<event>
 8    1  0.1106905E+005  0.1043930E+01  0.7957747E-01            NaN
         13   -1    0    0    0    0  0.00000000000E+00  0.00000000000E+00  0.74505805969E-08  0.10566000000E+00  0.10566000000E+00 0.  1.
     999900   -1    0    0    0    0 -0.00000000000E+00 -0.00000000000E+00 -0.74505805969E-08  0.93827000000E+00  0.93827000000E+00 0. -1.
     999902    2    1    2    0    0 -0.20046107294E-01  0.13413855924E-01  0.70143859072E-02  0.10188106935E+01  0.10185009817E+01 0.  0.
     999903    2    3    3    0    0  0.60269351274E-01  0.77291664232E-01  0.82558363659E-01  0.12963251123E+00  0.19552710698E-01 0.  0.
         14    1    1    2    0    0  0.20046107294E-01 -0.13413855924E-01 -0.70143859072E-02  0.25119306481E-01  0.00000000000E+00 0. -1.
     999901    1    3    3    0    0 -0.80315458569E-01 -0.63877808308E-01 -0.75543977752E-01  0.88917818229E+00  0.88000000000E+00 0. -1.
        -11    1    4    4    0    0  0.21665362912E-01  0.27085640413E-01  0.17557847067E-01  0.38878772889E-01  0.51100000000E-03 0.  1.
         11    1    4    4    0    0  0.38603988363E-01  0.50206023819E-01  0.65000516592E-01  0.90753738344E-01  0.51100000000E-03 0. -1.
</event>
<event>
 8    1  0.1106905E+005  0.1043930E+01  0.7957747E-01            NaN
         13   -1    0    0    0    0  0.00000000000E+00  0.00000000000E+00  0.74505805969E-08  0.10566000000E+00  0.10566000000E+00 0.  1.
     999900   -1    0    0    0    0 -0.00000000000E+00 -0.00000000000E+00 -0.74505805969E-08  0.93827000000E+00  0.93827000000E+00 0. -1.
     999902    2    1    2    0    0 -0.15073273861E-02  0.25063667326E-01 -0.10751642319E-01  0.10166159511E+01  0.10162489531E+01 0.  0.
     999903    2    3    3    0    0  0.20088773097E-01 -0.49429841578E-01 -0.11389531537E+00  0.12720362167E+00  0.19019738671E-01 0.  0.
         14    1    1    2    0    0  0.15073273861E-02 -0.25063667326E-01  0.10751642319E-01  0.27314048917E-01  0.00000000000E+00 0.  1.
     999901    1    3    3    0    0 -0.21596100483E-01  0.74493508904E-01  0.10314367305E+00  0.88941232941E+00  0.88000000000E+00 0.  1.
        -11    1    4    4    0    0  0.38035671847E-02 -0.39201404165E-02 -0.30499060488E-02  0.62767564968E-02  0.51100000000E-03 0.  1.
         11    1    4    4    0    0  0.16285205912E-01 -0.45509701161E-01 -0.11084540932E+00  0.12092686517E+00  0.51100000000E-03 0. -1.
</event>
<event>
 8    1  0.1106905E+005  0.1043930E+01  0.7957747E-01            NaN
         13   -1    0    0    0    0  0.00000000000E+00  0.00000000000E+00  0.74505805969E-08  0.10566000000E+00  0.10566000000E+00 0.  1.
     999900   -1    0    0    0    0 -0.00000000000E+00 -0.00000000000E+00 -0.74505805969E-08  0.93827000000E+00  0.93827000000E+00 0. -1.
     999902    2    1    2    0    0 -0.50955871089E-02  0.70180327044E-02  0.21642999048E-01  0.10206139712E+01  0.10203476079E+01 0.  0.
     999903    2    3    3    0    0 -0.12091694772E-02 -0.12725727779E+00  0.77379935521E-02  0.13031159986E+00  0.26932502144E-01 0.  0.
         14    1    1    2    0    0  0.50955871089E-02 -0.70180327044E-02 -0.21642999048E-01  0.23316028796E-01  0.00000000000E+00 0. -1.
     999901    1    3    3    0    0 -0.38864176317E-02  0.13427531049E+00  0.13905005496E-01  0.89030237135E+00  0.88000000000E+00 0.  1.
        -11    1    4    4    0    0 -0.22419105555E-02 -0.70571672888E-01 -0.90361643434E-02  0.71184974287E-01  0.51100000000E-03 0.  1.
         11    1    4    4    0    0  0.10327410783E-02 -0.56685604900E-01  0.16774157896E-01  0.59126625569E-01  0.51100000000E-03 0. -1.
</event>
<event>
 8    1  0.1106905E+005  0.1043930E+01  0.7957747E-01            NaN
         13   -1    0    0    0    0  0.00000000000E+00  0.00000000000E+00  0.74505805969E-08  0.10566000000E+00  0.10566000000E+00 0.  1.
     999900   -1    0    0    0    0 -0.00000000000E+00 -0.00000000000E+00 -0.74505805969E-08  0.93827000000E+00  0.93827000000E+00 0.  1.
     999902    2    1    2    0    0  0.62089773782E-02 -0.31222210805E-02 -0.21453129373E-01  0.10213792478E+01  0.10211302715E+01 0.  0.
     999903    2    3    3    0    0 -0.88720240668E-01 -0.34758802486E-01 -0.90614857837E-01  0.13301233352E+00  0.20044274805E-01 0.  0.
         14    1    1    2    0    0 -0.62089773782E-02  0.31222210805E-02  0.21453129373E-01  0.22550752193E-01  0.00000000000E+00 0.  1.
     999901    1    3    3    0    0  0.94929218046E-01  0.31636581405E-01  0.69161728464E-01  0.88836691429E+00  0.88000000000E+00 0. -1.
        -11    1    4    4    0    0 -0.63078232985E-01 -0.16354562746E-01 -0.53702009677E-01  0.84442300794E-01  0.51100000000E-03 0.  1.
         11    1    4    4    0    0 -0.25642007683E-01 -0.18404239739E-01 -0.36912848160E-01  0.48570032723E-01  0.51100000000E-03 0. -1.
</event>
<event>
 8    1  0.1106905E+005  0.1043930E+01  0.7957747E-01            NaN
         13   -1    0    0    0    0  0.00000000000E+00  0.00000000000E+00  0.74505805969E-08  0.10566000000E+00  0.10566000000E+00 0. -1.
     999900   -1    0    0    0    0 -0.00000000000E+00 -0.00000000000E+00 -0.74505805969E-08  0.93827000000E+00  0.93827000000E+00 0. -1.
     999902    2    1    2    0    0 -0.18050572618E-01 -0.80631957973E-02  0.13735285427E-01  0.10198572693E+01  0.10195731231E+01 0.  0.
     999903    2    3    3    0    0  0.11997493235E+00 -0.23994940970E-02 -0.38613454678E-01  0.12754369877E+00  0.19407582225E-01 0.  0.
         14    1    1    2    0    0  0.18050572618E-01  0.80631957973E-02 -0.13735285427E-01  0.24072730715E-01  0.00000000000E+00 0.  1.
     999901    1    3    3    0    0 -0.13802550497E+00 -0.56637017003E-02  0.52348740105E-01  0.89231357052E+00  0.88000000000E+00 0. -1.
        -11    1    4    4    0    0  0.83231826810E-01 -0.68380078211E-02 -0.34286046616E-01  0.90277845891E-01  0.51100000000E-03 0. -1.
         11    1    4    4    0    0  0.36743105544E-01  0.44385137241E-02 -0.43274080620E-02  0.37265852877E-01  0.51100000000E-03 0.  1.
</event>
<event>
 8    1  0.1106905E+005  0.1043930E+01  0.7957747E-01            NaN
         13   -1    0    0    0    0  0.00000000000E+00  0.00000000000E+00  0.74505805969E-08  0.10566000000E+00  0.10566000000E+00 0. -1.
     999900   -1    0    0    0    0 -0.00000000000E+00 -0.00000000000E+00 -0.74505805969E-08  0.93827000000E+00  0.93827000000E+00 0.  1.
     999902    2    1    2    0    0  0.10082995680E-01 -0.20851583541E-01  0.18131061991E-02  0.10206976370E+01  0.10204332038E+01 0.  0.
     999903    2    3    3    0    0  0.12582929933E+00  0.31365354998E-01 -0.77745092233E-02  0.13153188310E+00  0.20576569553E-01 0.  0.
         14    1    1    2    0    0 -0.10082995680E-01  0.20851583541E-01 -0.18131061991E-02  0.23232363034E-01  0.00000000000E+00 0.  1.
     999901    1    3    3    0    0 -0.11574630365E+00 -0.52216938539E-01  0.95876154224E-02  0.88916575387E+00  0.88000000000E+00 0.  1.
        -11    1    4    4    0    0  0.93601030941E-01  0.21106982967E-01 -0.14506581830E-01  0.97043081982E-01  0.51100000000E-03 0.  1.
         11    1    4    4    0    0  0.32228268388E-01  0.10258372032E-01  0.67320726065E-02  0.34488801118E-01  0.51100000000E-03 0. -1.
</event>
<event>
 8    1  0.1106905E+005  0.1043930E+01  0.7957747E-01            NaN
         13   -1    0    0    0    0  0.00000000000E+00  0.00000000000E+00  0.74505805969E-08  0.10566000000E+00  0.10566000000E+00 0. -1.
     999900   -1    0    0    0    0 -0.00000000000E+00 -0.00000000000E+00 -0.74505805969E-08  0.93827000000E+00  0.93827000000E+00 0. -1.
     999902    2    1    2    0    0  0.20565952755E-01 -0.10555185915E-01  0.38046205448E-03  0.10208104171E+01  0.10205485743E+01 0.  0.
     999903    2    3    3    0    0 -0.28189554597E-01  0.87484385472E-01 -0.88826153126E-01  0.12954913259E+00  0.21088470472E-01 0.  0.
         14    1    1    2    0    0 -0.20565952755E-01  0.10555185915E-01 -0.38046205448E-03  0.23119582907E-01  0.00000000000E+00 0.  1.
     999901    1    3    3    0    0  0.48755507352E-01 -0.98039571387E-01  0.89206615180E-01  0.89126128450E+00  0.88000000000E+00 0.  1.
        -11    1    4    4    0    0 -0.97923927261E-02  0.14789581489E-01 -0.27252263567E-01  0.32520296223E-01  0.51100000000E-03 0.  1.
         11    1    4    4    0    0 -0.18397161871E-01  0.72694803983E-01 -0.61573889559E-01  0.97028836371E-01  0.51100000000E-03 0. -1.
</event>
<event>
 8    1  0.1106905E+005  0.1043930E+01  0.7957747E-01            NaN
         13   -1    0    0    0    0  0.00000000000E+00  0.00000000000E+00  0.74505805969E-08  0.10566000000E+00  0.10566000000E+00 0.  1.
     999900   -1    0    0    0    0 -0.00000000000E+00 -0.00000000000E+00 -0.74505805969E-08  0.93827000000E+00  0.93827000000E+00 0.  1.
     999902    2    1    2    0    0 -0.40911082105E-02 -0.22612686343E-01 -0.46693906540E-02  0.10204806086E+01  0.10202111539E+01 0.  0.
     999903    2    3    3    0    0  0.98800947079E-01  0.68015793464E-02  0.81742186705E-01  0.12979607699E+00  0.18903647520E-01 0.  0.
         14    1    1    2    0    0  0.40911082105E-02  0.22612686343E-01  0.46693906540E-02  0.23449391444E-01  0.00000000000E+00 0.  1.
     999901    1    3    3    0    0 -0.10289205529E+00 -0.29414265689E-01 -0.86411577359E-01  0.89068453157E+00  0.88000000000E+00 0.  1.
        -11    1    4    4    0    0  0.89605499161E-01  0.40181759658E-03  0.72678279804E-01  0.11537634252E+00  0.51100000000E-03 0.  1.
         11    1    4    4    0    0  0.91954479181E-02  0.63997617498E-02  0.90639069011E-02  0.14419734470E-01  0.51100000000E-03 0. -1.
</event>
<event>
 8    1  0.1106905E+005  0.1043930E+01  0.7957747E-01            NaN
         13   -1    0    0    0    0  0.00000000000E+00  0.00000000000E+00  0.74505805969E-08  0.10566000000E+00  0.10566000000E+00 0. -1.
     999900   -1    0    0    0    0 -0.00000000000E+00 -0.00000000000E+00 -0.74505805969E-08  0.93827000000E+00  0.93827000000E+00 0.  1.
     999902    2    1    2    0    0  0.70536468066E-02  0.28728353533E-02 -0.24062860263E-01  0.10186905792E+01  0.10183778610E+01 0.  0.
     999903    2    3    3    0    0  0.10854399091E+00  0.40830140099E-01  0.52095491106E-01  0.12877983011E+00  0.20528179326E-01 0.  0.
         14    1    1    2    0    0 -0.70536468066E-02 -0.28728353533E-02  0.24062860263E-01  0.25239420760E-01  0.00000000000E+00 0. -1.
     999901    1    3    3    0    0 -0.10149034411E+00 -0.37957304745E-01 -0.76158351369E-01  0.88991074913E+00  0.88000000000E+00 0.  1.
        -11    1    4    4    0    0  0.82364672538E-01  0.25051949335E-01  0.45988699524E-01  0.97605128209E-01  0.51100000000E-03 0.  1.
         11    1    4    4    0    0  0.26179318375E-01  0.15778190764E-01  0.61067915824E-02  0.31174701904E-01  0.51100000000E-03 0. -1.
</event>
<event>
 8    1  0.1106905E+005  0.1043930E+01  0.7957747E-01            NaN
         13   -1    0    0    0    0  0.00000000000E+00  0.00000000000E+00  0.74505805969E-08  0.10566000000E+00  0.10566000000E+00 0. -1.
     999900   -1    0    0    0    0 -0.00000000000E+00 -0.00000000000E+00 -0.74505805969E-08  0.93827000000E+00  0.93827000000E+00 0.  1.
     999902    2    1    2    0    0  0.17386894671E-01 -0.14946422572E-01  0.36772425978E-02  0.10207088509E+01  0.10204446758E+01 0.  0.
     999903    2    3    3    0    0 -0.11354856983E+00 -0.19948514838E-01 -0.55049454380E-01  0.12907106469E+00  0.18375972343E-01 0.  0.
         14    1    1    2    0    0 -0.17386894671E-01  0.14946422572E-01 -0.36772425978E-02  0.23221149135E-01  0.00000000000E+00 0. -1.
     999901    1    3    3    0    0  0.13093546450E+00  0.50020922659E-02  0.58726696977E-01  0.89163778617E+00  0.88000000000E+00 0.  1.
        -11    1    4    4    0    0 -0.43173451955E-01 -0.13356870887E-01 -0.13917669583E-01  0.47289698680E-01  0.51100000000E-03 0.  1.
         11    1    4    4    0    0 -0.70375117873E-01 -0.65916439509E-02 -0.41131784796E-01  0.81781366014E-01  0.51100000000E-03 0. -1.
</event>
<event>
 8    1  0.1106905E+005  0.1043930E+01  0.7957747E-01            NaN
         13   -1    0    0    0    0  0.00000000000E+00  0.00000000000E+00  0.74505805969E-08  0.10566000000E+00  0.10566000000E+00 0.  1.
     999900   -1    0    0    0    0 -0.00000000000E+00 -0.00000000000E+00 -0.74505805969E-08  0.93827000000E+00  0.93827000000E+00 0.  1.
     999902    2    1    2    0    0  0.12607515622E-01  0.15130094272E-01  0.10929893500E-01  0.10214059734E+01  0.10211575935E+01 0.  0.
     999903    2    3    3    0    0  0.83762316747E-01 -0.98767718084E-01  0.66065656689E-02  0.13120688973E+00  0.20010331348E-01 0.  0.
         14    1    1    2    0    0 -0.12607515622E-01 -0.15130094272E-01 -0.10929893500E-01  0.22524026610E-01  0.00000000000E+00 0. -1.
     999901    1    3    3    0    0 -0.71154801125E-01  0.11389781236E+00  0.43233278312E-02  0.89019908366E+00  0.88000000000E+00 0. -1.
        -11    1    4    4    0    0  0.88040916577E-02 -0.86733361365E-02  0.65707272732E-02  0.14006226028E-01  0.51100000000E-03 0. -1.
         11    1    4    4    0    0  0.74958225089E-01 -0.90094381948E-01  0.35838395704E-04  0.11720066370E+00  0.51100000000E-03 0.  1.
</event>
<event>
 8    1  0.1106905E+005  0.1043930E+01  0.7957747E-01            NaN
         13   -1    0    0    0    0  0.00000000000E+00  0.00000000000E+00  0.74505805969E-08  0.10566000000E+00  0.10566000000E+00 0. -1.
     999900   -1    0    0    0    0 -0.00000000000E+00 -0.00000000000E+00 -0.74505805969E-08  0.93827000000E+00  0.93827000000E+00 0. -1.
     999902    2    1    2    0    0 -0.16400312407E-01  0.81156448721E-02 -0.13553686111E-01  0.10211586069E+01  0.10209046792E+01 0.  0.
     999903    2    3    3    0    0  0.10113166413E+00  0.33875669190E-01  0.70077309203E-01  0.12904230965E+00  0.19128877665E-01 0.  0.
         14    1    1    2    0    0  0.16400312407E-01 -0.81156448721E-02  0.13553686111E-01  0.22771393149E-01  0.00000000000E+00 0. -1.
     999901    1    3    3    0    0 -0.11753197654E+00 -0.25760024318E-01 -0.83630995314E-01  0.89211629721E+00  0.88000000000E+00 0.  1.
        -11    1    4    4    0    0  0.23491174920E-01  0.15752676448E-01  0.22941680288E-01  0.36422025339E-01  0.51100000000E-03 0. -1.
         11    1    4    4    0    0  0.77640489211E-01  0.18122992743E-01  0.47135628916E-01  0.92620284307E-01  0.51100000000E-03 0.  1.
</event>
<event>
 8    1  0.1106905E+005  0.1043930E+01  0.7957747E-01            NaN
         13   -1    0    0    0    0  0.00000000000E+00  0.00000000000E+00  0.74505805969E-08  0.10566000000E+00  0.10566000000E+00 0.  1.
     999900   -1    0    0    0    0 -0.00000000000E+00 -0.00000000000E+00 -0.74505805969E-08  0.93827000000E+00  0.93827000000E+00 0.  1.
     999902    2    1    2    0    0  0.56796032795E-02  0.11068364012E-01 -0.20305030098E-01  0.10201169611E+01  0.10198389841E+01 0.  0.
     999903    2    3    3    0    0  0.41300121655E-01 -0.12091122191E+00 -0.47878343394E-02  0.12942721948E+00  0.20081288573E-01 0.  0.
         14    1    1    2    0    0 -0.56796032795E-02 -0.11068364012E-01  0.20305030098E-01  0.23813038920E-01  0.00000000000E+00 0.  1.
     999901    1    3    3    0    0 -0.35620518375E-01  0.13197958593E+00 -0.15517195758E-01  0.89068974160E+00  0.88000000000E+00 0. -1.
        -11    1    4    4    0    0  0.33864121595E-01 -0.11482575140E+00 -0.44630364929E-02  0.11979946466E+00  0.51100000000E-03 0.  1.
         11    1    4    4    0    0  0.74360000598E-02 -0.60854705105E-02 -0.32479784645E-03  0.96277548196E-02  0.51100000000E-03 0. -1.
</event>
<event>
 8    1  0.1106905E+005  0.1043930E+01  0.7957747E-01            NaN
         13   -1    0    0    0    0  0.00000000000E+00  0.00000000000E+00  0.74505805969E-08  0.10566000000E+00  0.10566000000E+00 0.  1.
     999900   -1    0    0    0    0 -0.00000000000E+00 -0.00000000000E+00 -0.74505805969E-08  0.93827000000E+00  0.93827000000E+00 0.  1.
     999902    2    1    2    0    0 -0.19370034728E-02  0.94610023436E-02 -0.21287429337E-01  0.10205544317E+01  0.10202866905E+01 0.  0.
     999903    2    3    3    0    0 -0.92946946363E-01  0.84825126635E-01 -0.35857015714E-01  0.13253707046E+00  0.21116640897E-01 0.  0.
         14    1    1    2    0    0  0.19370034728E-02 -0.94610023436E-02  0.21287429337E-01  0.23375568348E-01  0.00000000000E+00 0.  1.
     999901    1    3    3    0    0  0.91009942890E-01 -0.75364124291E-01  0.14569586376E-01  0.88801736119E+00  0.88000000000E+00 0. -1.
        -11    1    4    4    0    0 -0.88215795407E-01  0.83627104792E-01 -0.37742259090E-01  0.12728023593E+00  0.51100000000E-03 0.  1.
         11    1    4    4    0    0 -0.47311509559E-02  0.11980218431E-02  0.18852433765E-02  0.52568345316E-02  0.51100000000E-03 0. -1.
</event>
<event>
 8    1  0.1106905E+005  0.1043930E+01  0.7957747E-01            NaN
         13   -1    0    0    0    0  0.00000000000E+00  0.00000000000E+00  0.74505805969E-08  0.10566000000E+00  0.10566000000E+00 0.  1.
     999900   -1    0    0    0    0 -0.00000000000E+00 -0.00000000000E+00 -0.74505805969E-08  0.93827000000E+00  0.93827000000E+00 0. -1.
     999902    2    1    2    0    0  0.29659462206E-02 -0.19178940716E-01 -0.15385466269E-01  0.10191642742E+01  0.10188633257E+01 0.  0.
     999903    2    3    3    0    0 -0.17577563971E-01  0.12339766910E+00 -0.17782182907E-01  0.12744914604E+00  0.19776837489E-01 0.  0.
         14    1    1    2    0    0 -0.29659462206E-02  0.19178940716E-01  0.15385466269E-01  0.24765725838E-01  0.00000000000E+00 0.  1.
     999901    1    3    3    0    0  0.20543510192E-01 -0.14257660982E+00  0.23967166383E-02  0.89171512813E+00  0.88000000000E+00 0.  1.
        -11    1    4    4    0    0 -0.23247875155E-02  0.12467872316E-01  0.41351340226E-02  0.13349641623E-01  0.51100000000E-03 0. -1.
         11    1    4    4    0    0 -0.15252776456E-01  0.11092979679E+00 -0.21917316929E-01  0.11409950441E+00  0.51100000000E-03 0.  1.
</event>
<event>
 8    1  0.1106905E+005  0.1043930E+01  0.7957747E-01            NaN
         13   -1    0    0    0    0  0.00000000000E+00  0.00000000000E+00  0.74505805969E-08  0.10566000000E+00  0.10566000000E+00 0.  1.
     999900   -1    0    0    0    0 -0.00000000000E+00 -0.00000000000E+00 -0.74505805969E-08  0.93827000000E+00  0.93827000000E+00 0.  1.
     999902    2    1    2    0    0  0.18397995602E-01 -0.83660986165E-02 -0.44475488906E-02  0.10232355916E+01  0.10230263034E+01 0.  0.
     999903    2    3    3    0    0  0.98338059187E-01 -0.44996551754E-02  0.89778353508E-01  0.13459399689E+00  0.19098964863E-01 0.  0.
         14    1    1    2    0    0 -0.18397995602E-01  0.83660986165E-02  0.44475488906E-02  0.20694408409E-01  0.00000000000E+00 0.  1.
     999901    1    3    3    0    0 -0.79940063585E-01 -0.38664434411E-02 -0.94225902398E-01  0.88864159470E+00  0.88000000000E+00 0.  1.
        -11    1    4    4    0    0  0.25032331413E-01  0.41906972219E-02  0.32023358167E-01  0.40864852238E-01  0.51100000000E-03 0.  1.
         11    1    4    4    0    0  0.73305727774E-01 -0.86903523972E-02  0.57754995341E-01  0.93729144652E-01  0.51100000000E-03 0. -1.
</event>
<event>
 8    1  0.1106905E+005  0.1043930E+01  0.7957747E-01            NaN
         13   -1    0    0    0    0  0.00000000000E+00  0.00000000000E+00  0.74505805969E-08  0.10566000000E+00  0.10566000000E+00 0.  1.
     999900   -1    0    0    0    0 -0.00000000000E+00 -0.00000000000E+00 -0.74505805969E-08  0.93827000000E+00  0.93827000000E+00 0. -1.
     999902    2    1    2    0    0  0.59314147453E-02  0.23240318599E-01 -0.14449110218E-02  0.10199012286E+01  0.10196181315E+01 0.  0.
     999903    2    3    3    0    0 -0.75844257026E-01  0.53274665230E-01  0.90272009811E-01  0.13085605757E+00  0.19589047174E-01 0.  0.
         14    1    1    2    0    0 -0.59314147453E-02 -0.23240318599E-01  0.14449110218E-02  0.24028771449E-01  0.00000000000E+00 0.  1.
     999901    1    3    3    0    0  0.81775671772E-01 -0.30034346631E-01 -0.91716920833E-01  0.88904517098E+00  0.88000000000E+00 0. -1.
        -11    1    4    4    0    0 -0.57871377262E-01  0.32626973215E-01  0.71837172973E-01  0.97849150375E-01  0.51100000000E-03 0. -1.
         11    1    4    4    0    0 -0.17972879764E-01  0.20647692015E-01  0.18434836838E-01  0.33006907199E-01  0.51100000000E-03 0.  1.
</event>
<event>
 8    1  0.1106905E+005  0.1043930E+01  0.7957747E-01            NaN
         13   -1    0    0    0    0  0.00000000000E+00  0.00000000000E+00  0.74505805969E-08  0.10566000000E+00  0.10566000000E+00 0. -1.
     999900   -1    0    0    0    0 -0.00000000000E+00 -0.00000000000E+00 -0.74505805969E-08  0.93827000000E+00  0.93827000000E+00 0.  1.
     999902    2    1    2    0    0 -0.12465343952E-01 -0.16549738685E-01 -0.11893115721E-01  0.10200401517E+01  0.10197603573E+01 0.  0.
     999903    2    3    3    0    0  0.62434918997E-01  0.10947430224E+00  0.31212220185E-02  0.12778596223E+00  0.20898998904E-01 0.  0.
         14    1    1    2    0    0  0.12465343952E-01  0.16549738685E-01  0.11893115721E-01  0.23889848304E-01  0.00000000000E+00 0. -1.
     999901    1    3    3    0    0 -0.74900262950E-01 -0.12602404093E+00 -0.15014337740E-01  0.89225418947E+00  0.88000000000E+00 0.  1.
        -11    1    4    4    0    0  0.24110728199E-01  0.56500820874E-01  0.92067791843E-02  0.62118402086E-01  0.51100000000E-03 0.  1.
         11    1    4    4    0    0  0.38324190798E-01  0.52973481366E-01 -0.60855571658E-02  0.65667560145E-01  0.51100000000E-03 0. -1.
</event>
<event>
 8    1  0.1106905E+005  0.1043930E+01  0.7957747E-01            NaN
         13   -1    0    0    0    0  0.00000000000E+00  0.00000000000E+00  0.74505805969E-08  0.10566000000E+00  0.10566000000E+00 0. -1.
     999900   -1    0    0    0    0 -0.00000000000E+00 -0.00000000000E+00 -0.74505805969E-08  0.93827000000E+00  0.93827000000E+00 0. -1.
     999902    2    1    2    0    0  0.14588519089E-01  0.45757857426E-03 -0.18196246658E-01  0.10206032415E+01  0.10203366302E+01 0.  0.
     999903    2    3    3    0    0 -0.71206226269E-01  0.65397337798E-01  0.82121366200E-01  0.12839164439E+00  0.19833232508E-01 0.  0.
         14    1    1    2    0    0 -0.14588519089E-01 -0.45757857426E-03  0.18196246658E-01  0.23326758450E-01  0.00000000000E+00 0. -1.
     999901    1    3    3    0    0  0.85794745357E-01 -0.64939759224E-01 -0.10031761286E+00  0.89221159716E+00  0.88000000000E+00 0. -1.
        -11    1    4    4    0    0 -0.49021304941E-01  0.55564843930E-01  0.66199075726E-01  0.99363569617E-01  0.51100000000E-03 0.  1.
         11    1    4    4    0    0 -0.22184921328E-01  0.98324938673E-02  0.15922290474E-01  0.29028074771E-01  0.51100000000E-03 0. -1.
</event>
<event>
 8    1  0.1106905E+005  0.1043930E+01  0.7957747E-01            NaN
         13   -1    0    0    0    0  0.00000000000E+00  0.00000000000E+00  0.74505805969E-08  0.10566000000E+00  0.10566000000E+00 0. -1.
     999900   -1    0    0    0    0 -0.00000000000E+00 -0.00000000000E+00 -0.74505805969E-08  0.93827000000E+00  0.93827000000E+00 0.  1.
     999902    2    1    2    0    0  0.10379006721E-02  0.72065307380E-02  0.23344697112E-01  0.10194762435E+01  0.10191829202E+01 0.  0.
     999903    2    3    3    0    0 -0.99226568560E-01 -0.21812185879E-01  0.80803386391E-01  0.13144665466E+00  0.20672503670E-01 0.  0.
         14    1    1    2    0    0 -0.10379006721E-02 -0.72065307380E-02 -0.23344697112E-01  0.24453756487E-01  0.00000000000E+00 0.  1.
     999901    1    3    3    0    0  0.10026446923E+00  0.29018716617E-01 -0.57458689280E-01  0.88802958885E+00  0.88000000000E+00 0.  1.
        -11    1    4    4    0    0 -0.19915242286E-01 -0.13195786781E-01  0.18266410935E-01  0.30077708581E-01  0.51100000000E-03 0. -1.
         11    1    4    4    0    0 -0.79311326275E-01 -0.86163990977E-02  0.62536975456E-01  0.10136894608E+00  0.51100000000E-03 0.  1.
</event>
<event>
 8    1  0.1106905E+005  0.1043930E+01  0.7957747E-01            NaN
         13   -1    0    0    0    0  0.00000000000E+00  0.00000000000E+00  0.74505805969E-08  0.10566000000E+00  0.10566000000E+00 0. -1.
     999900   -1    0    0    0    0 -0.00000000000E+00 -0.00000000000E+00 -0.74505805969E-08  0.93827000000E+00  0.93827000000E+00 0. -1.
     999902    2    1    2    0    0 -0.13666361696E-01  0.16649129281E-01  0.10295373698E-01  0.10200562138E+01  0.10197767999E+01 0.  0.
     999903    2    3    3    0    0 -0.11632318537E+00 -0.55296898259E-01  0.12261588294E-01  0.13117010168E+00  0.21596726948E-01 0.  0.
         14    1    1    2    0    0  0.13666361696E-01 -0.16649129281E-01 -0.10295373698E-01  0.23873786198E-01  0.00000000000E+00 0.  1.
     999901    1    3    3    0    0  0.10265682368E+00  0.71946027540E-01 -0.19662145963E-02  0.88888611212E+00  0.88000000000E+00 0.  1.
        -11    1    4    4    0    0 -0.14365525155E-01 -0.11562267187E-03  0.41060679079E-02  0.14950003219E-01  0.51100000000E-03 0. -1.
         11    1    4    4    0    0 -0.10195766022E+00 -0.55181275587E-01  0.81555203865E-02  0.11622009846E+00  0.51100000000E-03 0.  1.
</event>
<event>
 8    1  0.1106905E+005  0.1043930E+01  0.7957747E-01            NaN
         13   -1    0    0    0    0  0.00000000000E+00  0.00000000000E+00  0.74505805969E-08  0.10566000000E+00  0.10566000000E+00 0.  1.
     999900   -1    0    0    0    0 -0.00000000000E+00 -0.00000000000E+00 -0.74505805969E-08  0.93827000000E+00  0.93827000000E+00 0.  1.
     999902    2    1    2    0    0 -0.62694625418E-03  0.73172972576E-02 -0.22086944763E-01  0.10206540676E+01  0.10203886302E+01 0.  0.
     999903    2    3    3    0    0 -0.11230882975E+00 -0.53293627936E-01 -0.37571696921E-01  0.13139240480E+00  0.19971169475E-01 0.  0.
         14    1    1    2    0    0  0.62694625418E-03 -0.73172972576E-02  0.22086944763E-01  0.23275932413E-01  0.00000000000E+00 0.  1.
     999901    1    3    3    0    0  0.11168188350E+00  0.60610925193E-01  0.15484752159E-01  0.88926166279E+00  0.88000000000E+00 0.  1.
        -11    1    4    4    0    0 -0.10381642405E+00 -0.44920719785E-01 -0.29245803349E-01  0.11683877397E+00  0.51100000000E-03 0.  1.
         11    1    4    4    0    0 -0.84924057072E-02 -0.83729081505E-02 -0.83258935728E-02  0.14553630831E-01  0.51100000000E-03 0. -1.
</event>
<event>
 8    1  0.1106905E+005  0.1043930E+01  0.7957747E-01            NaN
         13   -1    0    0    0    0  0.00000000000E+00  0.00000000000E+00  0.74505805969E-08  0.10566000000E+00  0.10566000000E+00 0.  1.
     999900   -1    0    0    0    0 -0.00000000000E+00 -0.00000000000E+00 -0.74505805969E-08  0.93827000000E+00  0.93827000000E+00 0.  1.
     999902    2    1    2    0    0  0.21142158363E-01 -0.24136692818E-02 -0.11099575516E-01  0.10199296409E+01  0.10196472209E+01 0.  0.
     999903    2    3    3    0    0 -0.18097871113E-01 -0.10418097835E+00  0.71776759841E-01  0.12933161033E+00  0.19838170036E-01 0.  0.
         14    1    1    2    0    0 -0.21142158363E-01  0.24136692818E-02  0.11099575516E-01  0.24000359087E-01  0.00000000000E+00 0.  1.
     999901    1    3    3    0    0  0.39240029476E-01  0.10176730906E+00 -0.82876335358E-01  0.89059803058E+00  0.88000000000E+00 0.  1.
        -11    1    4    4    0    0 -0.21558184201E-01 -0.98660984949E-01  0.66336205079E-01  0.12082838442E+00  0.51100000000E-03 0. -1.
         11    1    4    4    0    0  0.34603130878E-02 -0.55199933977E-02  0.54405547620E-02  0.85032259111E-02  0.51100000000E-03 0.  1.
</event>
<event>
 8    1  0.1106905E+005  0.1043930E+01  0.7957747E-01            NaN
         13   -1    0    0    0    0  0.00000000000E+00  0.00000000000E+00  0.74505805969E-08  0.10566000000E+00  0.10566000000E+00 0. -1.
     999900   -1    0    0    0    0 -0.00000000000E+00 -0.00000000000E+00 -0.74505805969E-08  0.93827000000E+00  0.93827000000E+00 0. -1.
     999902    2    1    2    0    0 -0.94965129478E-03 -0.15963880405E-01  0.17668957957E-01  0.10200985210E+01  0.10198201083E+01 0.  0.
     999903    2    3    3    0    0 -0.55925388130E-02 -0.77463884710E-01  0.10664307639E+00  0.13346432323E+00  0.20200245271E-01 0.  0.
         14    1    1    2    0    0  0.94965129478E-03  0.15963880405E-01 -0.17668957957E-01  0.23831478981E-01  0.00000000000E+00 0.  1.
     999901    1    3    3    0    0  0.46428875182E-02  0.61500004305E-01 -0.88974118433E-01  0.88663419779E+00  0.88000000000E+00 0.  1.
        -11    1    4    4    0    0 -0.48051125072E-03 -0.40176737732E-01  0.71240463613E-01  0.81791600563E-01  0.51100000000E-03 0. -1.
         11    1    4    4    0    0 -0.51120275623E-02 -0.37287146978E-01  0.35402612777E-01  0.51672722669E-01  0.51100000000E-03 0.  1.
</event>
<event>
 8    1  0.1106905E+005  0.1043930E+01  0.7957747E-01            NaN
         13   -1    0    0    0    0  0.00000000000E+00  0.00000000000E+00  0.74505805969E-08  0.10566000000E+00  0.10566000000E+00 0.  1.
     999900   -1    0    0    0    0 -0.00000000000E+00 -0.00000000000E+00 -0.74505805969E-08  0.93827000000E+00  0.93827000000E+00 0.  1.
     999902    2    1    2    0    0  0.14018327634E-01  0.18966919931E-01 -0.25677709501E-02  0.10202055188E+01  0.10199296297E+01 0.  0.
     999903    2    3    3    0    0  0.90685735278E-01 -0.90548077725E-01  0.76323685395E-02  0.13005077440E+00  0.20786868674E-01 0.  0.
         14    1    1    2    0    0 -0.14018327634E-01 -0.18966919931E-01  0.25677709501E-02  0.23724481217E-01  0.00000000000E+00 0.  1.
     999901    1    3    3    0    0 -0.76667407644E-01  0.10951499766E+00 -0.10200139490E-01  0.89015474439E+00  0.88000000000E+00 0.  1.
        -11    1    4    4    0    0  0.96194978411E-03  0.29839276772E-03  0.19317152711E-02  0.22376394973E-02  0.51100000000E-03 0. -1.
         11    1    4    4    0    0  0.89723785494E-01 -0.90846470493E-01  0.57006532684E-02  0.12781313490E+00  0.51100000000E-03 0.  1.
</event>
<event>
 8    1  0.1106905E+005  0.1043930E+01  0.7957747E-01            NaN
         13   -1    0    0    0    0  0.00000000000E+00  0.00000000000E+00  0.74505805969E-08  0.10566000000E+00  0.10566000000E+00 0. -1.
     999900   -1    0    0    0    0 -0.00000000000E+00 -0.00000000000E+00 -0.74505805969E-08  0.93827000000E+00  0.93827000000E+00 0. -1.
     999902    2    1    2    0    0  0.16787426117E-01 -0.16187203301E-01  0.42791373885E-02  0.10202202079E+01  0.10199446643E+01 0.  0.
     999903    2    3    3    0    0  0.12799896147E+00 -0.17490964960E-01  0.24339573781E-01  0.13299299542E+00  0.20125953069E-01 0.  0.
         14    1    1    2    0    0 -0.16787426117E-01  0.16187203301E-01 -0.42791373885E-02  0.23709792136E-01  0.00000000000E+00 0. -1.
     999901    1    3    3    0    0 -0.11121153535E+00  0.13037616593E-02 -0.20060436393E-01  0.88722721244E+00  0.88000000000E+00 0.  1.
        -11    1    4    4    0    0  0.10429523259E+00 -0.12309153302E-01  0.27389512618E-01  0.10853320837E+00  0.51100000000E-03 0. -1.
         11    1    4    4    0    0  0.23703728882E-01 -0.51818116582E-02 -0.30499388368E-02  0.24459787057E-01  0.51100000000E-03 0.  1.
</event>
<event>
 8    1  0.1106905E+005  0.1043930E+01  0.7957747E-01            NaN
         13   -1    0    0    0    0  0.00000000000E+00  0.00000000000E+00  0.74505805969E-08  0.10566000000E+00  0.10566000000E+00 0.  1.
     999900   -1    0    0    0    0 -0.00000000000E+00 -0.00000000000E+00 -0.74505805969E-08  0.93827000000E+00  0.93827000000E+00 0.  1.
     999902    2    1    2    0    0  0.20272272887E-01  0.12288352095E-01 -0.55295059694E-02  0.10195877716E+01  0.10192971500E+01 0.  0.
     999903    2    3    3    0    0  0.87153604380E-01 -0.65198536146E-01 -0.70792192187E-01  0.13125419209E+00  0.19223126533E-01 0.  0.
         14    1    1    2    0    0 -0.20272272887E-01 -0.12288352095E-01  0.55295059694E-02  0.24342228359E-01  0.00000000000E+00 0.  1.
     999901    1    3    3    0    0 -0.66881331493E-01  0.77486888241E-01  0.65262686218E-01  0.88833357955E+00  0.88000000000E+00 0. -1.
        -11    1    4    4    0    0  0.16503842730E-01 -0.21622445704E-01 -0.21824691378E-01  0.34878148715E-01  0.51100000000E-03 0.  1.
         11    1    4    4    0    0  0.70649761650E-01 -0.43576090442E-01 -0.48967500809E-01  0.96376043371E-01  0.51100000000E-03 0. -1.
</event>
<event>
 8    1  0.1106905E+005  0.1043930E+01  0.7957747E-01            NaN
         13   -1    0    0    0    0  0.00000000000E+00  0.00000000000E+00  0.74505805969E-08  0.10566000000E+00  0.10566000000E+00 0. -1.
     999900   -1    0    0    0    0 -0.00000000000E+00 -0.00000000000E+00 -0.74505805969E-08  0.93827000000E+00  0.93827000000E+00 0.  1.
     999902    2    1    2    0    0  0.58408598160E-02  0.33282968239E-02  0.22869283032E-01  0.10200931103E+01  0.10198145696E+01 0.  0.
     999903    2    3    3    0    0  0.11642195800E+00  0.24844634272E-01 -0.48630418757E-01  0.13003505637E+00  0.19309844652E-01 0.  0.
         14    1    1    2    0    0 -0.58408598160E-02 -0.33282968239E-02 -0.22869283032E-01  0.23836889678E-01  0.00000000000E+00 0.  1.
     999901    1    3    3    0    0 -0.11058109818E+00 -0.21516337448E-01  0.71499701789E-01  0.89005805395E+00  0.88000000000E+00 0.  1.
        -11    1    4    4    0    0  0.29000777837E-01  0.85822518115E-02 -0.39080499647E-02  0.30499739947E-01  0.51100000000E-03 0. -1.
         11    1    4    4    0    0  0.87421180158E-01  0.16262382461E-01 -0.44722368793E-01  0.99535316421E-01  0.51100000000E-03 0.  1.
</event>
<event>
 8    1  0.1106905E+005  0.1043930E+01  0.7957747E-01            NaN
         13   -1    0    0    0    0  0.00000000000E+00  0.00000000000E+00  0.74505805969E-08  0.10566000000E+00  0.10566000000E+00 0.  1.
     999900   -1    0    0    0    0 -0.00000000000E+00 -0.00000000000E+00 -0.74505805969E-08  0.93827000000E+00  0.93827000000E+00 0. -1.
     999902    2    1    2    0    0  0.14738276996E-01 -0.17538648158E-01 -0.62467144948E-03  0.10210125132E+01  0.10207552796E+01 0.  0.
     999903    2    3    3    0    0  0.10714003380E+00 -0.71483165338E-01  0.30881855196E-01  0.13397206493E+00  0.20149328318E-01 0.  0.
         14    1    1    2    0    0 -0.14738276996E-01  0.17538648158E-01  0.62467144948E-03  0.22917486827E-01  0.00000000000E+00 0.  1.
     999901    1    3    3    0    0 -0.92401756807E-01  0.53944517180E-01 -0.31506526645E-01  0.88704044824E+00  0.88000000000E+00 0.  1.
        -11    1    4    4    0    0  0.62459492960E-01 -0.53339589760E-01  0.19567314223E-01  0.84436017217E-01  0.51100000000E-03 0. -1.
         11    1    4    4    0    0  0.44680540843E-01 -0.18143575579E-01  0.11314540973E-01  0.49536047715E-01  0.51100000000E-03 0.  1.
</event>
<event>
 8    1  0.1106905E+005  0.1043930E+01  0.7957747E-01            NaN
         13   -1    0    0    0    0  0.00000000000E+00  0.00000000000E+00  0.74505805969E-08  0.10566000000E+00  0.10566000000E+00 0. -1.
     999900   -1    0    0    0    0 -0.00000000000E+00 -0.00000000000E+00 -0.74505805969E-08  0.93827000000E+00  0.93827000000E+00 0.  1.
     999902    2    1    2    0    0  0.13288529701E-01  0.20476829234E-01 -0.53167621514E-02  0.10189469354E+01  0.10186406155E+01 0.  0.
     999903    2    3    3    0    0  0.39951233971E-01 -0.11441826262E+00 -0.34994063795E-01  0.12777448978E+00  0.20349344462E-01 0.  0.
         14    1    1    2    0    0 -0.13288529701E-01 -0.20476829234E-01  0.53167621514E-02  0.24983064601E-01  0.00000000000E+00 0. -1.
     999901    1    3    3    0    0 -0.26662704270E-01  0.13489509185E+00  0.29677301643E-01  0.89117244562E+00  0.88000000000E+00 0.  1.
        -11    1    4    4    0    0  0.17262081416E-01 -0.75248370896E-01 -0.27093435432E-01  0.81820609518E-01  0.51100000000E-03 0.  1.
         11    1    4    4    0    0  0.22689152555E-01 -0.39169891723E-01 -0.79006283625E-02  0.45953880258E-01  0.51100000000E-03 0. -1.
</event>
<event>
 8    1  0.1106905E+005  0.1043930E+01  0.7957747E-01            NaN
         13   -1    0    0    0    0  0.00000000000E+00  0.00000000000E+00  0.74505805969E-08  0.10566000000E+00  0.10566000000E+00 0. -1.
     999900   -1    0    0    0    0 -0.00000000000E+00 -0.00000000000E+00 -0.74505805969E-08  0.93827000000E+00  0.93827000000E+00 0. -1.
     999902    2    1    2    0    0 -0.15605229627E-01  0.14246875126E-01  0.42272416167E-02  0.10223808419E+01  0.10221537163E+01 0.  0.
     999903    2    3    3    0    0  0.32557502102E-01  0.10339913555E+00  0.75776356041E-01  0.13368120197E+00  0.19422549992E-01 0.  0.
         14    1    1    2    0    0  0.15605229627E-01 -0.14246875126E-01 -0.42272416167E-02  0.21549158087E-01  0.00000000000E+00 0.  1.
     999901    1    3    3    0    0 -0.48162731729E-01 -0.89152260426E-01 -0.71549114424E-01  0.88869963995E+00  0.88000000000E+00 0. -1.
        -11    1    4    4    0    0  0.27947470440E-01  0.61061760666E-01  0.40875062307E-01  0.78616992815E-01  0.51100000000E-03 0.  1.
         11    1    4    4    0    0  0.46100316624E-02  0.42337374886E-01  0.34901293734E-01  0.55064209151E-01  0.51100000000E-03 0. -1.
</event>
<event>
 8    1  0.1106905E+005  0.1043930E+01  0.7957747E-01            NaN
         13   -1    0    0    0    0  0.00000000000E+00  0.00000000000E+00  0.74505805969E-08  0.10566000000E+00  0.10566000000E+00 0.  1.
     999900   -1    0    0    0    0 -0.00000000000E+00 -0.00000000000E+00 -0.74505805969E-08  0.93827000000E+00  0.93827000000E+00 0. -1.
     999902    2    1    2    0    0  0.16257619039E-01 -0.16782362786E-01  0.44851842139E-02  0.10201376745E+01  0.10198601865E+01 0.  0.
     999903    2    3    3    0    0  0.46806795774E-02 -0.37994644039E-01 -0.12320797046E+00  0.13059311224E+00  0.20220169235E-01 0.  0.
         14    1    1    2    0    0 -0.16257619039E-01  0.16782362786E-01 -0.44851842139E-02  0.23792325547E-01  0.00000000000E+00 0. -1.
     999901    1    3    3    0    0  0.11576939462E-01  0.21212281253E-01  0.12769315467E+00  0.88954456221E+00  0.88000000000E+00 0.  1.
        -11    1    4    4    0    0  0.86387364904E-02 -0.21227811786E-01 -0.44930387109E-01  0.50440544884E-01  0.51100000000E-03 0. -1.
         11    1    4    4    0    0 -0.39580569130E-02 -0.16766832253E-01 -0.78277583351E-01  0.80152567361E-01  0.51100000000E-03 0.  1.
</event>
<event>
 8    1  0.1106905E+005  0.1043930E+01  0.7957747E-01            NaN
         13   -1    0    0    0    0  0.00000000000E+00  0.00000000000E+00  0.74505805969E-08  0.10566000000E+00  0.10566000000E+00 0.  1.
     999900   -1    0    0    0    0 -0.00000000000E+00 -0.00000000000E+00 -0.74505805969E-08  0.93827000000E+00  0.93827000000E+00 0.  1.
     999902    2    1    2    0    0  0.93656986772E-02  0.15251665855E-01 -0.15134271938E-01  0.10204912328E+01  0.10202220250E+01 0.  0.
     999903    2    3    3    0    0 -0.82426423865E-01 -0.45621695661E-01 -0.88591179369E-01  0.13058827335E+00  0.18150636577E-01 0.  0.
         14    1    1    2    0    0 -0.93656986772E-02 -0.15251665855E-01  0.15134271938E-01  0.23438767249E-01  0.00000000000E+00 0.  1.
     999901    1    3    3    0    0  0.91792122543E-01  0.60873361516E-01  0.73456907431E-01  0.88990295940E+00  0.88000000000E+00 0. -1.
        -11    1    4    4    0    0 -0.54386870148E-01 -0.33769954432E-01 -0.70246321563E-01  0.95042876014E-01  0.51100000000E-03 0. -1.
         11    1    4    4    0    0 -0.28039553717E-01 -0.11851741229E-01 -0.18344857806E-01  0.35545397335E-01  0.51100000000E-03 0.  1.
</event>
<event>
 8    1  0.1106905E+005  0.1043930E+01  0.7957747E-01            NaN
         13   -1    0    0    0    0  0.00000000000E+00  0.00000000000E+00  0.74505805969E-08  0.10566000000E+00  0.10566000000E+00 0.  1.
     999900   -1    0    0    0    0 -0.00000000000E+00 -0.00000000000E+00 -0.74505805969E-08  0.93827000000E+00  0.93827000000E+00 0.  1.
     999902    2    1    2    0    0 -0.14428781213E-01  0.65582768507E-02 -0.14975592991E-01  0.10221247459E+01  0.10218921308E+01 0.  0.
     999903    2    3    3    0    0 -0.80344419929E-01  0.64499537844E-01 -0.85148942629E-01  0.13497968436E+00  0.18808417338E-01 0.  0.
         14    1    1    2    0    0  0.14428781213E-01 -0.65582768507E-02  0.14975592991E-01  0.21805254137E-01  0.00000000000E+00 0.  1.
     999901    1    3    3    0    0  0.65915638717E-01 -0.57941260993E-01  0.70173349637E-01  0.88714506150E+00  0.88000000000E+00 0. -1.
        -11    1    4    4    0    0 -0.37850532161E-01  0.31659482192E-01 -0.28807270742E-01  0.57141102248E-01  0.51100000000E-03 0.  1.
         11    1    4    4    0    0 -0.42493887768E-01  0.32840055652E-01 -0.56341671887E-01  0.77838582110E-01  0.51100000000E-03 0. -1.
</event>
<event>
 8    1  0.1106905E+005  0.1043930E+01  0.7957747E-01            NaN
         13   -1    0    0    0    0  0.00000000000E+00  0.00000000000E+00  0.74505805969E-08  0.10566000000E+00  0.10566000000E+00 0. -1.
     999900   -1    0    0    0    0 -0.00000000000E+00 -0.00000000000E+00 -0.74505805969E-08  0.93827000000E+00  0.93827000000E+00 0. -1.
     999902    2    1    2    0    0 -0.17095322480E-01  0.29144090196E-02  0.15883637967E-01  0.10204133296E+01  0.10201423084E+01 0.  0.
     999903    2    3    3    0    0 -0.99747677939E-01  0.52347426933E-02  0.86601682781E-01  0.13371279524E+00  0.20056379660E-01 0.  0.
         14    1    1    2    0    0  0.17095322480E-01 -0.29144090196E-02 -0.15883637967E-01  0.23516670378E-01  0.00000000000E+00 0. -1.
     999901    1    3    3    0    0  0.82652355459E-01 -0.23203336737E-02 -0.70718044815E-01  0.88670053438E+00  0.88000000000E+00 0. -1.
        -11    1    4    4    0    0 -0.32788631958E-01 -0.85650858295E-03  0.40825849632E-01  0.52372121513E-01  0.51100000000E-03 0.  1.
         11    1    4    4    0    0 -0.66959045981E-01  0.60912512763E-02  0.45775833149E-01  0.81340673727E-01  0.51100000000E-03 0. -1.
</event>
<event>
 8    1  0.1106905E+005  0.1043930E+01  0.7957747E-01            NaN
         13   -1    0    0    0    0  0.00000000000E+00  0.00000000000E+00  0.74505805969E-08  0.10566000000E+00  0.10566000000E+00 0. -1.
     999900   -1    0    0    0    0 -0.00000000000E+00 -0.00000000000E+00 -0.74505805969E-08  0.93827000000E+00  0.93827000000E+00 0. -1.
     999902    2    1    2    0    0  0.18013572408E-01 -0.11303334849E-01 -0.11869499040E-01  0.10195755512E+01  0.10192846341E+01 0.  0.
     999903    2    3    3    0    0  0.38427275253E-01  0.11540360337E+00  0.37348868770E-01  0.12890512101E+00  0.20662649167E-01 0.  0.
         14    1    1    2    0    0 -0.18013572408E-01  0.11303334849E-01  0.11869499040E-01  0.24354448815E-01  0.00000000000E+00 0.  1.
     999901    1    3    3    0    0 -0.20413702845E-01 -0.12670693822E+00 -0.49218367811E-01  0.89067043017E+00  0.88000000000E+00 0. -1.
        -11    1    4    4    0    0  0.27736455103E-01  0.88400736430E-01  0.37247967900E-01  0.99858266442E-01  0.51100000000E-03 0. -1.
         11    1    4    4    0    0  0.10690820150E-01  0.27002866939E-01  0.10090086993E-03  0.29046854569E-01  0.51100000000E-03 0.  1.
</event>
<event>
 8    1  0.1106905E+005  0.1043930E+01  0.7957747E-01            NaN
         13   -1    0    0    0    0  0.00000000000E+00  0.00000000000E+00  0.74505805969E-08  0.10566000000E+00  0.10566000000E+00 0.  1.
     999900   -1    0    0    0    0 -0.00000000000E+00 -0.00000000000E+00 -0.74505805969E-08  0.93827000000E+00  0.93827000000E+00 0. -1.
     999902    2    1    2    0    0  0.18970102386E-01  0.16270430261E-01  0.20104418531E-01  0.10118554099E+01  0.10113469193E+01 0.  0.
     999903    2    3    3    0    0 -0.11420912844E+00  0.44514590545E-02  0.36716889394E-01  0.12160130584E+00  0.19370263540E-01 0.  0.
         14    1    1    2    0    0 -0.18970102386E-01 -0.16270430261E-01 -0.20104418531E-01  0.32074590097E-01  0.00000000000E+00 0. -1.
     999901    1    3    3    0    0  0.13317923083E+00  0.11818971207E-01 -0.16612470862E-01  0.89025410406E+00  0.88000000000E+00 0. -1.
        -11    1    4    4    0    0 -0.60188097765E-01 -0.56031790321E-03  0.96237454265E-02  0.60957351204E-01  0.51100000000E-03 0. -1.
         11    1    4    4    0    0 -0.54021030675E-01  0.50117769577E-02  0.27093143967E-01  0.60643954641E-01  0.51100000000E-03 0.  1.
</event>
<event>
 8    1  0.1106905E+005  0.1043930E+01  0.7957747E-01            NaN
         13   -1    0    0    0    0  0.00000000000E+00  0.00000000000E+00  0.74505805969E-08  0.10566000000E+00  0.10566000000E+00 0.  1.
     999900   -1    0    0    0    0 -0.00000000000E+00 -0.00000000000E+00 -0.74505805969E-08  0.93827000000E+00  0.93827000000E+00 0. -1.
     999902    2    1    2    0    0 -0.48148650046E-02  0.11041976907E-01  0.20871709237E-01  0.10198315265E+01  0.10195467650E+01 0.  0.
     999903    2    3    3    0    0  0.42232322994E-01  0.48154780688E-01 -0.10944873821E+00  0.12821825992E+00  0.18932614013E-01 0.  0.
         14    1    1    2    0    0  0.48148650046E-02 -0.11041976907E-01 -0.20871709237E-01  0.24098473510E-01  0.00000000000E+00 0.  1.
     999901    1    3    3    0    0 -0.47047187998E-01 -0.37112803781E-01  0.13032044744E+00  0.89161326657E+00  0.88000000000E+00 0.  1.
        -11    1    4    4    0    0  0.22398430979E-01  0.19589102359E-01 -0.34298412937E-01  0.45409964684E-01  0.51100000000E-03 0.  1.
         11    1    4    4    0    0  0.19833892014E-01  0.28565678328E-01 -0.75150325270E-01  0.82808295236E-01  0.51100000000E-03 0. -1.
</event>
<event>
 8    1  0.1106905E+005  0.1043930E+01  0.7957747E-01            NaN
         13   -1    0    0    0    0  0.00000000000E+00  0.00000000000E+00  0.74505805969E-08  0.10566000000E+00  0.10566000000E+00 0.  1.
     999900   -1    0    0    0    0 -0.00000000000E+00 -0.00000000000E+00 -0.74505805969E-08  0.93827000000E+00  0.93827000000E+00 0.  1.
     999902    2    1    2    0    0 -0.19959707317E-01  0.22320871277E-01  0.89970962228E-02  0.10126640608E+01  0.10121812788E+01 0.  0.
     999903    2    3    3    0    0  0.34890042971E-01  0.10672368698E+00 -0.51545471781E-01  0.12485905244E+00  0.18044025445E-01 0.  0.
         14    1    1    2    0    0  0.19959707317E-01 -0.22320871277E-01 -0.89970962228E-02  0.31265939154E-01  0.00000000000E+00 0. -1.
     999901    1    3    3    0    0 -0.54849750287E-01 -0.84402815705E-01  0.60542568003E-01  0.88780500840E+00  0.88000000000E+00 0.  1.
        -11    1    4    4    0    0  0.32094852698E-01  0.71616305390E-01 -0.34500275252E-01  0.85729253356E-01  0.51100000000E-03 0.  1.
         11    1    4    4    0    0  0.27951902726E-02  0.35107381592E-01 -0.17045196529E-01  0.39129799087E-01  0.51100000000E-03 0. -1.
</event>
<event>
 8    1  0.1106905E+005  0.1043930E+01  0.7957747E-01            NaN
         13   -1    0    0    0    0  0.00000000000E+00  0.00000000000E+00  0.74505805969E-08  0.10566000000E+00  0.10566000000E+00 0. -1.
     999900   -1    0    0    0    0 -0.00000000000E+00 -0.00000000000E+00 -0.74505805969E-08  0.93827000000E+00  0.93827000000E+00 0.  1.
     999902    2    1    2    0    0  0.13920656172E-01 -0.16979445612E-01  0.85763817019E-02  0.10203579707E+01  0.10200856571E+01 0.  0.
     999903    2    3    3    0    0 -0.57166958846E-01 -0.88676084278E-01  0.75580426723E-01  0.13205430695E+00  0.24380934647E-01 0.  0.
         14    1    1    2    0    0 -0.13920656172E-01  0.16979445612E-01 -0.85763817019E-02  0.23572029286E-01  0.00000000000E+00 0.  1.
     999901    1    3    3    0    0  0.71087615018E-01  0.71696638667E-01 -0.67004045021E-01  0.88830366376E+00  0.88000000000E+00 0.  1.
        -11    1    4    4    0    0 -0.17271964739E-01 -0.48798781386E-01  0.39127483128E-01  0.64891161860E-01  0.51100000000E-03 0.  1.
         11    1    4    4    0    0 -0.39894994107E-01 -0.39877302892E-01  0.36452943595E-01  0.67163145091E-01  0.51100000000E-03 0. -1.
</event>
<event>
 8    1  0.1106905E+005  0.1043930E+01  0.7957747E-01            NaN
         13   -1    0    0    0    0  0.00000000000E+00  0.00000000000E+00  0.74505805969E-08  0.10566000000E+00  0.10566000000E+00 0. -1.
     999900   -1    0    0    0    0 -0.00000000000E+00 -0.00000000000E+00 -0.74505805969E-08  0.93827000000E+00  0.93827000000E+00 0. -1.
     999902    2    1    2    0    0 -0.14481509590E-01 -0.16646883644E-01  0.97606362607E-02  0.10198031918E+01  0.10195177522E+01 0.  0.
     999903    2    3    3    0    0  0.45533255678E-01 -0.28112483169E-01  0.11795239796E+00  0.13107449902E+00  0.20103905767E-01 0.  0.
         14    1    1    2    0    0  0.14481509590E-01  0.16646883644E-01 -0.97606362607E-02  0.24126808228E-01  0.00000000000E+00 0.  1.
     999901    1    3    3    0    0 -0.60014765268E-01  0.11465599525E-01 -0.10819176170E+00  0.88872869275E+00  0.88000000000E+00 0. -1.
        -11    1    4    4    0    0  0.24395718474E-01 -0.15380724355E-01  0.85946750772E-01  0.90657723614E-01  0.51100000000E-03 0. -1.
         11    1    4    4    0    0  0.21137537204E-01 -0.12731758814E-01  0.32005647184E-01  0.40416775406E-01  0.51100000000E-03 0.  1.
</event>
<event>
 8    1  0.1106905E+005  0.1043930E+01  0.7957747E-01            NaN
         13   -1    0    0    0    0  0.00000000000E+00  0.00000000000E+00  0.74505805969E-08  0.10566000000E+00  0.10566000000E+00 0.  1.
     999900   -1    0    0    0    0 -0.00000000000E+00 -0.00000000000E+00 -0.74505805969E-08  0.93827000000E+00  0.93827000000E+00 0.  1.
     999902    2    1    2    0    0  0.20567752181E-01 -0.79437067314E-02 -0.93355196626E-02  0.10199865910E+01  0.10197055256E+01 0.  0.
     999903    2    3    3    0    0  0.60288228538E-01  0.11112983840E+00  0.23804470506E-01  0.13046172664E+00  0.21658666170E-01 0.  0.
         14    1    1    2    0    0 -0.20567752181E-01  0.79437067314E-02  0.93355196626E-02  0.23943408984E-01  0.00000000000E+00 0.  1.
     999901    1    3    3    0    0 -0.39720476357E-01 -0.11907354513E+00 -0.33139990168E-01  0.88952486437E+00  0.88000000000E+00 0. -1.
        -11    1    4    4    0    0  0.48606732380E-01  0.68238096507E-01  0.16965615848E-01  0.85481843041E-01  0.51100000000E-03 0. -1.
         11    1    4    4    0    0  0.11681496157E-01  0.42891741889E-01  0.68388546578E-02  0.44979883601E-01  0.51100000000E-03 0.  1.
</event>
<event>
 8    1  0.1106905E+005  0.1043930E+01  0.7957747E-01            NaN
         13   -1    0    0    0    0  0.00000000000E+00  0.00000000000E+00  0.74505805969E-08  0.10566000000E+00  0.10566000000E+00 0.  1.
     999900   -1    0    0    0    0 -0.00000000000E+00 -0.00000000000E+00 -0.74505805969E-08  0.93827000000E+00  0.93827000000E+00 0.  1.
     999902    2    1    2    0    0 -0.48060273536E-02  0.42259752033E-03 -0.23290820415E-01  0.10201447356E+01  0.10198674143E+01 0.  0.
     999903    2    3    3    0    0  0.60381047084E-02  0.42884022398E-01 -0.12446172111E+00  0.13326474430E+00  0.19831136296E-01 0.  0.
         14    1    1    2    0    0  0.48060273536E-02 -0.42259752033E-03  0.23290820415E-01  0.23785264413E-01  0.00000000000E+00 0.  1.
     999901    1    3    3    0    0 -0.10844132062E-01 -0.42461424878E-01  0.10117090069E+00  0.88687999129E+00  0.88000000000E+00 0. -1.
        -11    1    4    4    0    0 -0.29641396860E-03  0.40074756632E-01 -0.97366370659E-01  0.10529266469E+00  0.51100000000E-03 0.  1.
         11    1    4    4    0    0  0.63345186770E-02  0.28092657663E-02 -0.27095350447E-01  0.27972079612E-01  0.51100000000E-03 0. -1.
</event>
<event>
 8    1  0.1106905E+005  0.1043930E+01  0.7957747E-01            NaN
         13   -1    0    0    0    0  0.00000000000E+00  0.00000000000E+00  0.74505805969E-08  0.10566000000E+00  0.10566000000E+00 0.  1.
     999900   -1    0    0    0    0 -0.00000000000E+00 -0.00000000000E+00 -0.74505805969E-08  0.93827000000E+00  0.93827000000E+00 0. -1.
     999902    2    1    2    0    0 -0.30390356043E-01 -0.51630970251E-02  0.52031139424E-02  0.10126681430E+01  0.10121854890E+01 0.  0.
     999903    2    3    3    0    0 -0.76402198998E-01 -0.37344210767E-01 -0.90550503984E-01  0.12569493641E+00  0.19181688628E-01 0.  0.
         14    1    1    2    0    0  0.30390356043E-01  0.51630970251E-02 -0.52031139424E-02  0.31261857047E-01  0.00000000000E+00 0. -1.
     999901    1    3    3    0    0  0.46011842955E-01  0.32181113742E-01  0.95753617926E-01  0.88697320654E+00  0.88000000000E+00 0.  1.
        -11    1    4    4    0    0 -0.17849039299E-01 -0.10626667826E-02 -0.23817388225E-01  0.29786684399E-01  0.51100000000E-03 0. -1.
         11    1    4    4    0    0 -0.58553159699E-01 -0.36281543984E-01 -0.66733115759E-01  0.95908252014E-01  0.51100000000E-03 0.  1.
</event>
<event>
 8    1  0.1106905E+005  0.1043930E+01  0.7957747E-01            NaN
         13   -1    0    0    0    0  0.00000000000E+00  0.00000000000E+00  0.74505805969E-08  0.10566000000E+00  0.10566000000E+00 0. -1.
     999900   -1    0    0    0    0 -0.00000000000E+00 -0.00000000000E+00 -0.74505805969E-08  0.93827000000E+00  0.93827000000E+00 0.  1.
     999902    2    1    2    0    0 -0.97158541746E-02  0.22354423399E-01  0.23269906359E-02  0.10194446380E+01  0.10191505468E+01 0.  0.
     999903    2    3    3    0    0 -0.59521712471E-01  0.11550762635E+00 -0.19143952575E-01  0.13286743088E+00  0.20060340709E-01 0.  0.
         14    1    1    2    0    0  0.97158541746E-02 -0.22354423399E-01 -0.23269906359E-02  0.24485362020E-01  0.00000000000E+00 0. -1.
     999901    1    3    3    0    0  0.49805858296E-01 -0.93153202950E-01  0.21470943211E-01  0.88657720710E+00  0.88000000000E+00 0. -1.
        -11    1    4    4    0    0 -0.11508428129E-01  0.12315623657E-01 -0.75033363405E-02  0.18457510160E-01  0.51100000000E-03 0. -1.
         11    1    4    4    0    0 -0.48013284342E-01  0.10319200269E+00 -0.11640616234E-01  0.11440992072E+00  0.51100000000E-03 0.  1.
</event>
<event>
 8    1  0.1106905E+005  0.1043930E+01  0.7957747E-01            NaN
         13   -1    0    0    0    0  0.00000000000E+00  0.00000000000E+00  0.74505805969E-08  0.10566000000E+00  0.10566000000E+00 0.  1.
     999900   -1    0    0    0    0 -0.00000000000E+00 -0.00000000000E+00 -0.74505805969E-08  0.93827000000E+00  0.93827000000E+00 0. -1.
     999902    2    1    2    0    0  0.22018626245E-01 -0.95275312287E-02 -0.29766784385E-02  0.10197545089E+01  0.10194679025E+01 0.  0.
     999903    2    3    3    0    0  0.12663364843E+00 -0.36227678320E-01 -0.24900238120E-02  0.13315570591E+00  0.19383400305E-01 0.  0.
         14    1    1    2    0    0 -0.22018626245E-01  0.95275312287E-02  0.29766784385E-02  0.24175491051E-01  0.00000000000E+00 0.  1.
     999901    1    3    3    0    0 -0.10461502218E+00  0.26700147091E-01 -0.48665462645E-03  0.88659880304E+00  0.88000000000E+00 0.  1.
        -11    1    4    4    0    0  0.29385948376E-01 -0.17268919895E-02  0.42594238378E-02  0.29747603774E-01  0.51100000000E-03 0.  1.
         11    1    4    4    0    0  0.97247700050E-01 -0.34500786330E-01 -0.67494476498E-02  0.10340810213E+00  0.51100000000E-03 0. -1.
</event>
<event>
 8    1  0.1106905E+005  0.1043930E+01  0.7957747E-01            NaN
         13   -1    0    0    0    0  0.00000000000E+00  0.00000000000E+00  0.74505805969E-08  0.10566000000E+00  0.10566000000E+00 0.  1.
     999900   -1    0    0    0    0 -0.00000000000E+00 -0.00000000000E+00 -0.74505805969E-08  0.93827000000E+00  0.93827000000E+00 0. -1.
     999902    2    1    2    0    0 -0.21770846079E-01  0.26184009689E-02 -0.87365895463E-02  0.10203258953E+01  0.10200528314E+01 0.  0.
     999903    2    3    3    0    0 -0.42775262092E-01 -0.85328471919E-01 -0.88848404237E-01  0.13207269895E+00  0.20940098022E-01 0.  0.
         14    1    1    2    0    0  0.21770846079E-01 -0.26184009689E-02  0.87365895463E-02  0.23604104718E-01  0.00000000000E+00 0. -1.
     999901    1    3    3    0    0  0.21004416012E-01  0.87946872888E-01  0.80111814690E-01  0.88825319633E+00  0.88000000000E+00 0. -1.
        -11    1    4    4    0    0 -0.29065595316E-03 -0.90640915340E-02 -0.28293850062E-02  0.95136100789E-02  0.51100000000E-03 0.  1.
         11    1    4    4    0    0 -0.42484606138E-01 -0.76264380385E-01 -0.86019019230E-01  0.12255908887E+00  0.51100000000E-03 0. -1.
</event>
<event>
 8    1  0.1106905E+005  0.1043930E+01  0.7957747E-01            NaN
         13   -1    0    0    0    0  0.00000000000E+00  0.00000000000E+00  0.74505805969E-08  0.10566000000E+00  0.10566000000E+00 0. -1.
     999900   -1    0    0    0    0 -0.00000000000E+00 -0.00000000000E+00 -0.74505805969E-08  0.93827000000E+00  0.93827000000E+00 0. -1.
     999902    2    1    2    0    0 -0.46410235145E-02  0.21155110225E-01 -0.39713507982E-02  0.10219107036E+01  0.10216734491E+01 0.  0.
     999903    2    3    3    0    0  0.11389174182E+00  0.64736425676E-01  0.10593426877E-01  0.13277546062E+00  0.18840609991E-01 0.  0.
         14    1    1    2    0    0  0.46410235145E-02 -0.21155110225E-01  0.39713507982E-02  0.22019296425E-01  0.00000000000E+00 0.  1.
     999901    1    3    3    0    0 -0.11853276534E+00 -0.43581315451E-01 -0.14564777675E-01  0.88913524295E+00  0.88000000000E+00 0. -1.
        -11    1    4    4    0    0  0.43030656450E-01  0.34912960798E-01  0.63139418410E-02  0.55773463303E-01  0.51100000000E-03 0. -1.
         11    1    4    4    0    0  0.70861085374E-01  0.29823464878E-01  0.42794850360E-02  0.77001997317E-01  0.51100000000E-03 0.  1.
</event>
<event>
 8    1  0.1106905E+005  0.1043930E+01  0.7957747E-01            NaN
         13   -1    0    0    0    0  0.00000000000E+00  0.00000000000E+00  0.74505805969E-08  0.10566000000E+00  0.10566000000E+00 0.  1.
     999900   -1    0    0    0    0 -0.00000000000E+00 -0.00000000000E+00 -0.74505805969E-08  0.93827000000E+00  0.93827000000E+00 0. -1.
     999902    2    1    2    0    0 -0.40731425585E-02 -0.54514063880E-02  0.22361897071E-01  0.10205555960E+01  0.10202878818E+01 0.  0.
     999903    2    3    3    0    0 -0.11240167556E+00  0.48886031965E-01  0.44736570311E-01  0.13196780952E+00  0.19752499511E-01 0.  0.
         14    1    1    2    0    0  0.40731425585E-02  0.54514063880E-02 -0.22361897071E-01  0.23374404004E-01  0.00000000000E+00 0. -1.
     999901    1    3    3    0    0  0.10832853300E+00 -0.54337438353E-01 -0.22374673240E-01  0.88858778647E+00  0.88000000000E+00 0.  1.
        -11    1    4    4    0    0 -0.10550122280E+00  0.50507852695E-01  0.41063243732E-01  0.12396774703E+00  0.51100000000E-03 0.  1.
         11    1    4    4    0    0 -0.69004527618E-02 -0.16218207298E-02  0.36733265789E-02  0.80000624968E-02  0.51100000000E-03 0. -1.
</event>
<event>
 8    1  0.1106905E+005  0.1043930E+01  0.7957747E-01            NaN
         13   -1    0    0    0    0  0.00000000000E+00  0.00000000000E+00  0.74505805969E-08  0.10566000000E+00  0.10566000000E+00 0.  1.
     999900   -1    0    0    0    0 -0.00000000000E+00 -0.00000000000E+00 -0.74505805969E-08  0.93827000000E+00  0.93827000000E+00 0.  1.
     999902    2    1    2    0    0  0.15155412570E-01  0.17172128794E-01 -0.62869523177E-02  0.10201793304E+01  0.10199028247E+01 0.  0.
     999903    2    3    3    0    0 -0.62652217464E-01 -0.17468765698E-01 -0.11091194974E+00  0.12989824615E+00  0.18483387965E-01 0.  0.
         14    1    1    2    0    0 -0.15155412570E-01 -0.17172128794E-01  0.62869523177E-02  0.23750669610E-01  0.00000000000E+00 0.  1.
     999901    1    3    3    0    0  0.77807630034E-01  0.34640894492E-01  0.10462499742E+00  0.89028108424E+00  0.88000000000E+00 0. -1.
        -11    1    4    4    0    0 -0.25839030482E-01 -0.15872571230E-01 -0.57477756756E-01  0.64988827166E-01  0.51100000000E-03 0. -1.
         11    1    4    4    0    0 -0.36813186982E-01 -0.15961944678E-02 -0.53434192983E-01  0.64909418988E-01  0.51100000000E-03 0.  1.
</event>
<event>
 8    1  0.1106905E+005  0.1043930E+01  0.7957747E-01            NaN
         13   -1    0    0    0    0  0.00000000000E+00  0.00000000000E+00  0.74505805969E-08  0.10566000000E+00  0.10566000000E+00 0.  1.
     999900   -1    0    0    0    0 -0.00000000000E+00 -0.00000000000E+00 -0.74505805969E-08  0.93827000000E+00  0.93827000000E+00 0.  1.
     999902    2    1    2    0    0 -0.22708775112E-01 -0.35893923764E-02 -0.72777772172E-03  0.10209277856E+01  0.10206686248E+01 0.  0.
     999903    2    3    3    0    0 -0.11939547937E+00 -0.51651471168E-01 -0.25245735566E-01  0.13398956206E+00  0.19816675033E-01 0.  0.
         14    1    1    2    0    0  0.22708775112E-01  0.35893923764E-02  0.72777772172E-03  0.23002214352E-01  0.00000000000E+00 0.  1.
     999901    1    3    3    0    0  0.96686704260E-01  0.48062078792E-01  0.24517957844E-01  0.88693822358E+00  0.88000000000E+00 0.  1.
        -11    1    4    4    0    0 -0.24541551044E-01 -0.19721474321E-01 -0.69523881172E-02  0.32246257125E-01  0.51100000000E-03 0. -1.
         11    1    4    4    0    0 -0.94853928328E-01 -0.31929996847E-01 -0.18293347449E-01  0.10174330494E+00  0.51100000000E-03 0.  1.
</event>
<event>
 8    1  0.1106905E+005  0.1043930E+01  0.7957747E-01            NaN
         13   -1    0    0    0    0  0.00000000000E+00  0.00000000000E+00  0.74505805969E-08  0.10566000000E+00  0.10566000000E+00 0. -1.
     999900   -1    0    0    0    0 -0.00000000000E+00 -0.00000000000E+00 -0.74505805969E-08  0.93827000000E+00  0.93827000000E+00 0.  1.
     999902    2    1    2    0    0 -0.56437720340E-02 -0.68613454420E-02 -0.20526025708E-01  0.10215637765E+01  0.10213189029E+01 0.  0.
     999903    2    3    3    0    0 -0.12315701375E+00 -0.24241942454E-01 -0.40245464954E-01  0.13336317783E+00  0.20266177274E-01 0.  0.
         14    1    1    2    0    0  0.56437720340E-02  0.68613454420E-02  0.20526025708E-01  0.22366223539E-01  0.00000000000E+00 0. -1.
     999901    1    3    3    0    0  0.11751324171E+00  0.17380597012E-01  0.19719439246E-01  0.88820059863E+00  0.88000000000E+00 0.  1.
        -11    1    4    4    0    0 -0.38572998391E-01 -0.92310924516E-02 -0.22635555397E-01  0.45669670043E-01  0.51100000000E-03 0. -1.
         11    1    4    4    0    0 -0.84584015357E-01 -0.15010850002E-01 -0.17609909557E-01  0.87693507783E-01  0.51100000000E-03 0.  1.
</event>
<event>
 8    1  0.1106905E+005  0.1043930E+01  0.7957747E-01            NaN
         13   -1    0    0    0    0  0.00000000000E+00  0.00000000000E+00  0.74505805969E-08  0.10566000000E+00  0.10566000000E+00 0. -1.
     999900   -1    0    0    0    0 -0.00000000000E+00 -0.00000000000E+00 -0.74505805969E-08  0.93827000000E+00  0.93827000000E+00 0.  1.
     999902    2    1    2    0    0  0.22011724521E-01 -0.13236966759E-01 -0.79881398517E-03  0.10182323073E+01  0.10179079822E+01 0.  0.
     999903    2    3    3    0    0 -0.96158801107E-02  0.10711967273E+00 -0.65323951180E-01  0.12713774479E+00  0.18157591118E-01 0.  0.
         14    1    1    2    0    0 -0.22011724521E-01  0.13236966759E-01  0.79881398517E-03  0.25697692681E-01  0.00000000000E+00 0. -1.
     999901    1    3    3    0    0  0.31627604632E-01 -0.12035663949E+00  0.64525137195E-01  0.89109456253E+00  0.88000000000E+00 0. -1.
        -11    1    4    4    0    0  0.22704024886E-02  0.68698924019E-01 -0.43990451767E-01  0.81609545131E-01  0.51100000000E-03 0.  1.
         11    1    4    4    0    0 -0.11886282599E-01  0.38420748713E-01 -0.21333499413E-01  0.45528199656E-01  0.51100000000E-03 0. -1.
</event>
<event>
 8    1  0.1106905E+005  0.1043930E+01  0.7957747E-01            NaN
         13   -1    0    0    0    0  0.00000000000E+00  0.00000000000E+00  0.74505805969E-08  0.10566000000E+00  0.10566000000E+00 0.  1.
     999900   -1    0    0    0    0 -0.00000000000E+00 -0.00000000000E+00 -0.74505805969E-08  0.93827000000E+00  0.93827000000E+00 0.  1.
     999902    2    1    2    0    0 -0.13577143054E-01  0.32162562146E-02 -0.18248089604E-01  0.10209588030E+01  0.10207003485E+01 0.  0.
     999903    2    3    3    0    0 -0.91923081885E-01 -0.80445200394E-01 -0.48440978867E-01  0.13301233163E+00  0.20602637748E-01 0.  0.
         14    1    1    2    0    0  0.13577143054E-01 -0.32162562146E-02  0.18248089604E-01  0.22971197002E-01  0.00000000000E+00 0.  1.
     999901    1    3    3    0    0  0.78345938831E-01  0.83661456609E-01  0.30192889264E-01  0.88794647137E+00  0.88000000000E+00 0. -1.
        -11    1    4    4    0    0 -0.50241906827E-01 -0.33514517713E-01 -0.16642521076E-01  0.62647479821E-01  0.51100000000E-03 0. -1.
         11    1    4    4    0    0 -0.41681175058E-01 -0.46930682681E-01 -0.31798457791E-01  0.70364851808E-01  0.51100000000E-03 0.  1.
</event>
<event>
 8    1  0.1106905E+005  0.1043930E+01  0.7957747E-01            NaN
         13   -1    0    0    0    0  0.00000000000E+00  0.00000000000E+00  0.74505805969E-08  0.10566000000E+00  0.10566000000E+00 0. -1.
     999900   -1    0    0    0    0 -0.00000000000E+00 -0.00000000000E+00 -0.74505805969E-08  0.93827000000E+00  0.93827000000E+00 0.  1.
     999902    2    1    2    0    0  0.15359032258E-01 -0.20227563945E-01  0.83645320602E-02  0.10171901494E+01  0.10168386206E+01 0.  0.
     999903    2    3    3    0    0  0.10439589557E+00  0.16936555216E-01  0.72135259467E-01  0.12962300236E+00  0.20329219571E-01 0.  0.
         14    1    1    2    0    0 -0.15359032258E-01  0.20227563945E-01 -0.83645320602E-02  0.26739850629E-01  0.00000000000E+00 0. -1.
     999901    1    3    3    0    0 -0.89036863309E-01 -0.37164119161E-01 -0.63770727407E-01  0.88756714701E+00  0.88000000000E+00 0.  1.
        -11    1    4    4    0    0  0.94223567105E-01  0.15255989606E-01  0.71535136699E-01  0.11928270084E+00  0.51100000000E-03 0.  1.
         11    1    4    4    0    0  0.10172328462E-01  0.16805656097E-02  0.60012276817E-03  0.10340301516E-01  0.51100000000E-03 0. -1.
</event>
<event>
 8    1  0.1106905E+005  0.1043930E+01  0.7957747E-01            NaN
         13   -1    0    0    0    0  0.00000000000E+00  0.00000000000E+00  0.74505805969E-08  0.10566000000E+00  0.10566000000E+00 0.  1.
     999900   -1    0    0    0    0 -0.00000000000E+00 -0.00000000000E+00 -0.74505805969E-08  0.93827000000E+00  0.93827000000E+00 0.  1.
     999902    2    1    2    0    0 -0.10534551193E-01  0.12963024840E-01 -0.17146684293E-01  0.10199920476E+01  0.10197111119E+01 0.  0.
     999903    2    3    3    0    0 -0.16235170329E-01 -0.23591110579E-02 -0.13098179388E+00  0.13250926070E+00  0.11546760754E-01 0.  0.
         14    1    1    2    0    0  0.10534551193E-01 -0.12963024840E-01  0.17146684293E-01  0.23937952378E-01  0.00000000000E+00 0.  1.
     999901    1    3    3    0    0  0.57006191364E-02  0.15322135898E-01  0.11383510958E+00  0.88748278692E+00  0.88000000000E+00 0. -1.
        -11    1    4    4    0    0 -0.86160720237E-02  0.10227572974E-02 -0.31487503156E-01  0.32665068584E-01  0.51100000000E-03 0. -1.
         11    1    4    4    0    0 -0.76190983052E-02 -0.33818683554E-02 -0.99494290720E-01  0.99844192117E-01  0.51100000000E-03 0.  1.
</event>
<event>
 8    1  0.1106905E+005  0.1043930E+01  0.7957747E-01            NaN
         13   -1    0    0    0    0  0.00000000000E+00  0.00000000000E+00  0.74505805969E-08  0.10566000000E+00  0.10566000000E+00 0.  1.
     999900   -1    0    0    0    0 -0.00000000000E+00 -0.00000000000E+00 -0.74505805969E-08  0.93827000000E+00  0.93827000000E+00 0. -1.
     999902    2    1    2    0    0  0.16498259316E-01  0.10707292622E-01  0.15137839471E-01  0.10191107966E+01  0.10188085310E+01 0.  0.
     999903    2    3    3    0    0 -0.57409976440E-01  0.55217517745E-01  0.10159029609E+00  0.13067530947E+00  0.20262492060E-01 0.  0.
         14    1    1    2    0    0 -0.16498259316E-01 -0.10707292622E-01 -0.15137839471E-01  0.24819203444E-01  0.00000000000E+00 0. -1.
     999901    1    3    3    0    0  0.73908235756E-01 -0.44510225122E-01 -0.86452456623E-01  0.88843548708E+00  0.88000000000E+00 0. -1.
        -11    1    4    4    0    0 -0.98572776849E-02  0.13735271308E-01  0.35344950157E-01  0.39183545320E-01  0.51100000000E-03 0. -1.
         11    1    4    4    0    0 -0.47552698755E-01  0.41482246437E-01  0.66245345936E-01  0.91491764152E-01  0.51100000000E-03 0.  1.
</event>
<event>
 8    1  0.1106905E+005  0.1043930E+01  0.7957747E-01            NaN
         13   -1    0    0    0    0  0.00000000000E+00  0.00000000000E+00  0.74505805969E-08  0.10566000000E+00  0.10566000000E+00 0.  1.
     999900   -1    0    0    0    0 -0.00000000000E+00 -0.00000000000E+00 -0.74505805969E-08  0.93827000000E+00  0.93827000000E+00 0. -1.
     999902    2    1    2    0    0  0.16272044798E-01  0.12486792291E-02 -0.16260657701E-01  0.10208920394E+01  0.10206320632E+01 0.  0.
     999903    2    3    3    0    0  0.85240939761E-01 -0.89517292520E-01 -0.44849778399E-01  0.13307870992E+00  0.20471368796E-01 0.  0.
         14    1    1    2    0    0 -0.16272044798E-01 -0.12486792291E-02  0.16260657701E-01  0.23037960644E-01  0.00000000000E+00 0.  1.
     999901    1    3    3    0    0 -0.68968894963E-01  0.90765971750E-01  0.28589120698E-01  0.88781332943E+00  0.88000000000E+00 0.  1.
        -11    1    4    4    0    0  0.38733089782E-01 -0.27059172325E-01 -0.13606629695E-01  0.49171664031E-01  0.51100000000E-03 0. -1.
         11    1    4    4    0    0  0.46507849979E-01 -0.62458120196E-01 -0.31243148704E-01  0.83907045890E-01  0.51100000000E-03 0.  1.
</event>
<event>
 8    1  0.1106905E+005  0.1043930E+01  0.7957747E-01            NaN
         13   -1    0    0    0    0  0.00000000000E+00  0.00000000000E+00  0.74505805969E-08  0.10566000000E+00  0.10566000000E+00 0.  1.
     999900   -1    0    0    0    0 -0.00000000000E+00 -0.00000000000E+00 -0.74505805969E-08  0.93827000000E+00  0.93827000000E+00 0.  1.
     999902    2    1    2    0    0 -0.16250964263E-01 -0.18126856107E-01 -0.28221188342E-02  0.10194220195E+01  0.10191273781E+01 0.  0.
     999903    2    3    3    0    0  0.76607618321E-02 -0.11708130885E+00  0.55680913566E-01  0.13162341672E+00  0.21392511309E-01 0.  0.
         14    1    1    2    0    0  0.16250964263E-01  0.18126856107E-01  0.28221188342E-02  0.24507980465E-01  0.00000000000E+00 0.  1.
     999901    1    3    3    0    0 -0.23911726095E-01  0.98954452740E-01 -0.58503032400E-01  0.88779860282E+00  0.88000000000E+00 0.  1.
        -11    1    4    4    0    0  0.43264650633E-02 -0.62334838514E-01  0.17830624084E-01  0.64981094703E-01  0.51100000000E-03 0. -1.
         11    1    4    4    0    0  0.33342967688E-02 -0.54746470332E-01  0.37850289483E-01  0.66642322016E-01  0.51100000000E-03 0.  1.
</event>
<event>
 8    1  0.1106905E+005  0.1043930E+01  0.7957747E-01            NaN
         13   -1    0    0    0    0  0.00000000000E+00  0.00000000000E+00  0.74505805969E-08  0.10566000000E+00  0.10566000000E+00 0.  1.
     999900   -1    0    0    0    0 -0.00000000000E+00 -0.00000000000E+00 -0.74505805969E-08  0.93827000000E+00  0.93827000000E+00 0. -1.
     999902    2    1    2    0    0  0.14116596854E-01 -0.13370601764E-02  0.18737062437E-01  0.10204322651E+01  0.10201616853E+01 0.  0.
     999903    2    3    3    0    0 -0.72590490902E-01  0.10002732006E+00  0.35749009744E-01  0.13021753651E+00  0.20094053558E-01 0.  0.
         14    1    1    2    0    0 -0.14116596854E-01  0.13370601764E-02 -0.18737062437E-01  0.23497734900E-01  0.00000000000E+00 0. -1.
     999901    1    3    3    0    0  0.86707087756E-01 -0.10136438024E+00 -0.17011947307E-01  0.89021472859E+00  0.88000000000E+00 0. -1.
        -11    1    4    4    0    0 -0.51625703320E-01  0.59545248194E-01  0.29724348029E-01  0.84229732355E-01  0.51100000000E-03 0. -1.
         11    1    4    4    0    0 -0.20964787582E-01  0.40482071869E-01  0.60246617150E-02  0.45987804154E-01  0.51100000000E-03 0.  1.
</event>
<event>
 8    1  0.1106905E+005  0.1043930E+01  0.7957747E-01            NaN
         13   -1    0    0    0    0  0.00000000000E+00  0.00000000000E+00  0.74505805969E-08  0.10566000000E+00  0.10566000000E+00 0. -1.
     999900   -1    0    0    0    0 -0.00000000000E+00 -0.00000000000E+00 -0.74505805969E-08  0.93827000000E+00  0.93827000000E+00 0. -1.
     999902    2    1    2    0    0  0.17692208570E-01  0.15712698597E-01  0.76018359402E-02  0.10190766089E+01  0.10187734997E+01 0.  0.
     999903    2    3    3    0    0 -0.56667920076E-01  0.34898291129E-01 -0.10787976902E+00  0.12821549916E+00  0.19287969659E-01 0.  0.
         14    1    1    2    0    0 -0.17692208570E-01 -0.15712698597E-01 -0.76018359402E-02  0.24853391136E-01  0.00000000000E+00 0.  1.
     999901    1    3    3    0    0  0.74360128646E-01 -0.19185592532E-01  0.11548160496E+00  0.89086110970E+00  0.88000000000E+00 0.  1.
        -11    1    4    4    0    0 -0.32417180323E-02 -0.20301017188E-02 -0.31498316883E-02  0.49812256980E-02  0.51100000000E-03 0. -1.
         11    1    4    4    0    0 -0.53426202044E-01  0.36928392848E-01 -0.10472993733E+00  0.12323427347E+00  0.51100000000E-03 0.  1.
</event>
<event>
 8    1  0.1106905E+005  0.1043930E+01  0.7957747E-01            NaN
         13   -1    0    0    0    0  0.00000000000E+00  0.00000000000E+00  0.74505805969E-08  0.10566000000E+00  0.10566000000E+00 0.  1.
     999900   -1    0    0    0    0 -0.00000000000E+00 -0.00000000000E+00 -0.74505805969E-08  0.93827000000E+00  0.93827000000E+00 0.  1.
     999902    2    1    2    0    0 -0.19376021111E-01 -0.15927569751E-01 -0.51237103448E-02  0.10183298031E+01  0.10180079655E+01 0.  0.
     999903    2    3    3    0    0  0.21458692655E-01 -0.11933529751E+00 -0.44234408884E-01  0.13047267569E+00  0.19106214953E-01 0.  0.
         14    1    1    2    0    0  0.19376021111E-01  0.15927569751E-01  0.51237103448E-02  0.25600196874E-01  0.00000000000E+00 0. -1.
     999901    1    3    3    0    0 -0.40834713766E-01  0.10340772775E+00  0.39110698540E-01  0.88785712744E+00  0.88000000000E+00 0. -1.
        -11    1    4    4    0    0  0.17885166732E-01 -0.68692833408E-01 -0.33884485658E-01  0.78657511021E-01  0.51100000000E-03 0.  1.
         11    1    4    4    0    0  0.35735259231E-02 -0.50642464097E-01 -0.10349923226E-01  0.51815164664E-01  0.51100000000E-03 0. -1.
</event>
<event>
 8    1  0.1106905E+005  0.1043930E+01  0.7957747E-01            NaN
         13   -1    0    0    0    0  0.00000000000E+00  0.00000000000E+00  0.74505805969E-08  0.10566000000E+00  0.10566000000E+00 0.  1.
     999900   -1    0    0    0    0 -0.00000000000E+00 -0.00000000000E+00 -0.74505805969E-08  0.93827000000E+00  0.93827000000E+00 0. -1.
     999902    2    1    2    0    0  0.14654751332E-01  0.91122326002E-02  0.15869258560E-01  0.10204858560E+01  0.10202165233E+01 0.  0.
     999903    2    3    3    0    0 -0.94831552086E-01  0.45293445550E-01  0.76588980963E-01  0.13088863509E+00  0.14880971393E-01 0.  0.
         14    1    1    2    0    0 -0.14654751332E-01 -0.91122326002E-02 -0.15869258560E-01  0.23444143976E-01  0.00000000000E+00 0. -1.
     999901    1    3    3    0    0  0.10948630342E+00 -0.36181212949E-01 -0.60719722404E-01  0.88959722094E+00  0.88000000000E+00 0. -1.
        -11    1    4    4    0    0 -0.93716046477E-01  0.42301609462E-01  0.75104242632E-01  0.12733040451E+00  0.51100000000E-03 0.  1.
         11    1    4    4    0    0 -0.11155056087E-02  0.29918360871E-02  0.14847383306E-02  0.35582305779E-02  0.51100000000E-03 0. -1.
</event>
<event>
 8    1  0.1106905E+005  0.1043930E+01  0.7957747E-01            NaN
         13   -1    0    0    0    0  0.00000000000E+00  0.00000000000E+00  0.74505805969E-08  0.10566000000E+00  0.10566000000E+00 0.  1.
     999900   -1    0    0    0    0 -0.00000000000E+00 -0.00000000000E+00 -0.74505805969E-08  0.93827000000E+00  0.93827000000E+00 0.  1.
     999902    2    1    2    0    0  0.48986046412E-02 -0.83886788459E-02  0.21485300425E-01  0.10203506787E+01  0.10200781946E+01 0.  0.
     999903    2    3    3    0    0  0.11691134903E+00 -0.47949273283E-01  0.33218928439E-01  0.13229123608E+00  0.20738312300E-01 0.  0.
         14    1    1    2    0    0 -0.48986046412E-02  0.83886788459E-02 -0.21485300425E-01  0.23579321334E-01  0.00000000000E+00 0.  1.
     999901    1    3    3    0    0 -0.11201274439E+00  0.39560594437E-01 -0.11733628014E-01  0.88805944258E+00  0.88000000000E+00 0. -1.
        -11    1    4    4    0    0  0.20044304645E-01 -0.23188880156E-02  0.17881433623E-04  0.20184470047E-01  0.51100000000E-03 0. -1.
         11    1    4    4    0    0  0.96867044384E-01 -0.45630385267E-01  0.33201047005E-01  0.11210676603E+00  0.51100000000E-03 0.  1.
</event>
<event>
 8    1  0.1106905E+005  0.1043930E+01  0.7957747E-01            NaN
         13   -1    0    0    0    0  0.00000000000E+00  0.00000000000E+00  0.74505805969E-08  0.10566000000E+00  0.10566000000E+00 0.  1.
     999900   -1    0    0    0    0 -0.00000000000E+00 -0.00000000000E+00 -0.74505805969E-08  0.93827000000E+00  0.93827000000E+00 0.  1.
     999902    2    1    2    0    0 -0.20776206262E-01 -0.59458398934E-02  0.10064857683E-01  0.10200908490E+01  0.10198122549E+01 0.  0.
     999903    2    3    3    0    0  0.47485604492E-01  0.91576054941E-01  0.75702920422E-01  0.12965356878E+00  0.20929865382E-01 0.  0.
         14    1    1    2    0    0  0.20776206262E-01  0.59458398934E-02 -0.10064857683E-01  0.23839150968E-01  0.00000000000E+00 0.  1.
     999901    1    3    3    0    0 -0.68261810754E-01 -0.97521894834E-01 -0.65638062739E-01  0.89043728025E+00  0.88000000000E+00 0.  1.
        -11    1    4    4    0    0  0.21952933937E-01  0.40858853893E-01  0.21401841206E-01  0.51084999539E-01  0.51100000000E-03 0. -1.
         11    1    4    4    0    0  0.25532670555E-01  0.50717201047E-01  0.54301079217E-01  0.78568569243E-01  0.51100000000E-03 0.  1.
</event>
<event>
 7    1  0.1106905E+005  0.1043930E+01  0.7957747E-01            NaN
         13   -1    0    0    0    0  0.00000000000E+00  0.00000000000E+00  0.74505805969E-08  0.10566000000E+00  0.10566000000E+00 0. -1.
     999900   -1    0    0    0    0 -0.00000000000E+00 -0.00000000000E+00 -0.74505805969E-08  0.93827000000E+00  0.93827000000E+00 0.  1.
     999902    2    1    2    0    0  0.18961328175E-02 -0.14529158733E-01  0.33323308907E-02  0.10289034834E+01  0.10287937509E+01 0.  0.
         14    1    1    2    0    0 -0.18961328175E-02  0.14529158733E-01 -0.33323308907E-02  0.15026516639E-01  0.00000000000E+00 0.  1.
     999901    1    3    3    0    0 -0.11591877572E+00  0.14520263896E-01  0.60735792478E-01  0.88979595252E+00  0.88000000000E+00 0. -1.
        -11    1    3    3    0    0  0.64508943654E-01 -0.26172848156E-01 -0.15707258213E-01  0.71368066203E-01  0.51100000000E-03 0. -1.
         11    1    3    3    0    0  0.53305964884E-01 -0.28765744732E-02 -0.41696203374E-01  0.67739464641E-01  0.51100000000E-03 0.  1.
</event>
<event>
 8    1  0.1106905E+005  0.1043930E+01  0.7957747E-01            NaN
         13   -1    0    0    0    0  0.00000000000E+00  0.00000000000E+00  0.74505805969E-08  0.10566000000E+00  0.10566000000E+00 0.  1.
     999900   -1    0    0    0    0 -0.00000000000E+00 -0.00000000000E+00 -0.74505805969E-08  0.93827000000E+00  0.93827000000E+00 0.  1.
     999902    2    1    2    0    0 -0.21573700092E-01  0.15130265173E-02  0.46414041708E-02  0.10218108586E+01  0.10215714240E+01 0.  0.
     999903    2    3    3    0    0  0.36837814247E-01  0.12316731156E+00 -0.16468873262E-01  0.13127320418E+00  0.20837925839E-01 0.  0.
         14    1    1    2    0    0  0.21573700092E-01 -0.15130265173E-02 -0.46414041708E-02  0.22119141429E-01  0.00000000000E+00 0.  1.
     999901    1    3    3    0    0 -0.58411514339E-01 -0.12165428504E+00  0.21110277433E-01  0.89053765439E+00  0.88000000000E+00 0. -1.
        -11    1    4    4    0    0  0.30745844773E-01  0.87556971432E-01 -0.20126735219E-01  0.94957236737E-01  0.51100000000E-03 0.  1.
         11    1    4    4    0    0  0.60919694740E-02  0.35610340129E-01  0.36578619564E-02  0.36315967442E-01  0.51100000000E-03 0. -1.
</event>
<event>
 8    1  0.1106905E+005  0.1043930E+01  0.7957747E-01            NaN
         13   -1    0    0    0    0  0.00000000000E+00  0.00000000000E+00  0.74505805969E-08  0.10566000000E+00  0.10566000000E+00 0.  1.
     999900   -1    0    0    0    0 -0.00000000000E+00 -0.00000000000E+00 -0.74505805969E-08  0.93827000000E+00  0.93827000000E+00 0.  1.
     999902    2    1    2    0    0  0.32879893505E-02 -0.44280825801E-02  0.14951235238E-01  0.10279939332E+01  0.10278704045E+01 0.  0.
     999903    2    3    3    0    0 -0.70285807824E-01 -0.78034258641E-01 -0.84594331205E-01  0.13628753951E+00  0.19714265152E-01 0.  0.
         14    1    1    2    0    0 -0.32879893505E-02  0.44280825801E-02 -0.14951235238E-01  0.15936066781E-01  0.00000000000E+00 0. -1.
     999901    1    3    3    0    0  0.73573797174E-01  0.73606176061E-01  0.99545566443E-01  0.89170639371E+00  0.88000000000E+00 0. -1.
        -11    1    4    4    0    0 -0.30446550393E-01 -0.44754192966E-01 -0.51545997492E-01  0.74747449437E-01  0.51100000000E-03 0.  1.
         11    1    4    4    0    0 -0.39839257430E-01 -0.33280065674E-01 -0.33048333713E-01  0.61540090072E-01  0.51100000000E-03 0. -1.
</event>
<event>
 8    1  0.1106905E+005  0.1043930E+01  0.7957747E-01            NaN
         13   -1    0    0    0    0  0.00000000000E+00  0.00000000000E+00  0.74505805969E-08  0.10566000000E+00  0.10566000000E+00 0. -1.
     999900   -1    0    0    0    0 -0.00000000000E+00 -0.00000000000E+00 -0.74505805969E-08  0.93827000000E+00  0.93827000000E+00 0. -1.
     999902    2    1    2    0    0 -0.23557164241E-01 -0.27741589773E-02 -0.22264999883E-02  0.10201057844E+01  0.10198275434E+01 0.  0.
     999903    2    3    3    0    0  0.80360890556E-01 -0.79821619628E-01 -0.57537301288E-01  0.12892984331E+00  0.21977255618E-01 0.  0.
         14    1    1    2    0    0  0.23557164241E-01  0.27741589773E-02  0.22264999883E-02  0.23824215565E-01  0.00000000000E+00 0. -1.
     999901    1    3    3    0    0 -0.10391805480E+00  0.77047460651E-01  0.55310801299E-01  0.89117594113E+00  0.88000000000E+00 0. -1.
        -11    1    4    4    0    0  0.41712960322E-01 -0.29125025791E-01 -0.32881485713E-01  0.60577977928E-01  0.51100000000E-03 0. -1.
         11    1    4    4    0    0  0.38647930234E-01 -0.50696593837E-01 -0.24655815575E-01  0.68351865379E-01  0.51100000000E-03 0.  1.
</event>
<event>
 8    1  0.1106905E+005  0.1043930E+01  0.7957747E-01            NaN
         13   -1    0    0    0    0  0.00000000000E+00  0.00000000000E+00  0.74505805969E-08  0.10566000000E+00  0.10566000000E+00 0. -1.
     999900   -1    0    0    0    0 -0.00000000000E+00 -0.00000000000E+00 -0.74505805969E-08  0.93827000000E+00  0.93827000000E+00 0. -1.
     999902    2    1    2    0    0 -0.18344883730E-01  0.10410221675E-01 -0.11774189324E-01  0.10197734479E+01  0.10194872957E+01 0.  0.
     999903    2    3    3    0    0  0.32432911196E-01 -0.46026616477E-01 -0.11616591280E+00  0.13035727250E+00  0.18115077804E-01 0.  0.
         14    1    1    2    0    0  0.18344883730E-01 -0.10410221675E-01  0.11774189324E-01  0.24156552085E-01  0.00000000000E+00 0. -1.
     999901    1    3    3    0    0 -0.50777794926E-01  0.56436838152E-01  0.10439172348E+00  0.88941617541E+00  0.88000000000E+00 0.  1.
        -11    1    4    4    0    0  0.95258201165E-02 -0.22753523729E-01 -0.34598825055E-01  0.42494751525E-01  0.51100000000E-03 0. -1.
         11    1    4    4    0    0  0.22907091079E-01 -0.23273092748E-01 -0.81567087746E-01  0.87862520975E-01  0.51100000000E-03 0.  1.
</event>
<event>
 8    1  0.1106905E+005  0.1043930E+01  0.7957747E-01            NaN
         13   -1    0    0    0    0  0.00000000000E+00  0.00000000000E+00  0.74505805969E-08  0.10566000000E+00  0.10566000000E+00 0. -1.
     999900   -1    0    0    0    0 -0.00000000000E+00 -0.00000000000E+00 -0.74505805969E-08  0.93827000000E+00  0.93827000000E+00 0. -1.
     999902    2    1    2    0    0 -0.44835364714E-02 -0.20633017900E-01 -0.10655263351E-01  0.10202792460E+01  0.10200050890E+01 0.  0.
     999903    2    3    3    0    0 -0.68974178265E-01  0.10570505744E+00  0.71970328023E-02  0.12874177813E+00  0.24323891986E-01 0.  0.
         14    1    1    2    0    0  0.44835364714E-02  0.20633017900E-01  0.10655263351E-01  0.23650753984E-01  0.00000000000E+00 0.  1.
     999901    1    3    3    0    0  0.64490641793E-01 -0.12633807534E+00 -0.17852296153E-01  0.89153746788E+00  0.88000000000E+00 0. -1.
        -11    1    4    4    0    0 -0.10769801876E-01  0.33615374084E-01  0.74824424002E-02  0.36086425045E-01  0.51100000000E-03 0. -1.
         11    1    4    4    0    0 -0.58204376388E-01  0.72089683352E-01 -0.28540959786E-03  0.92655353089E-01  0.51100000000E-03 0.  1.
</event>
<event>
 8    1  0.1106905E+005  0.1043930E+01  0.7957747E-01            NaN
         13   -1    0    0    0    0  0.00000000000E+00  0.00000000000E+00  0.74505805969E-08  0.10566000000E+00  0.10566000000E+00 0. -1.
     999900   -1    0    0    0    0 -0.00000000000E+00 -0.00000000000E+00 -0.74505805969E-08  0.93827000000E+00  0.93827000000E+00 0.  1.
     999902    2    1    2    0    0 -0.13529491770E-01  0.17895624997E-01 -0.87117909069E-02  0.10198635120E+01  0.10195795150E+01 0.  0.
     999903    2    3    3    0    0 -0.10297780265E-01 -0.11947606136E+00  0.40016315799E-01  0.12786807901E+00  0.19192878447E-01 0.  0.
         14    1    1    2    0    0  0.13529491770E-01 -0.17895624997E-01  0.87117909069E-02  0.24066487953E-01  0.00000000000E+00 0. -1.
     999901    1    3    3    0    0 -0.32317115056E-02  0.13737168636E+00 -0.48728106706E-01  0.89199543304E+00  0.88000000000E+00 0.  1.
        -11    1    4    4    0    0  0.53920730312E-02 -0.41518108067E-01  0.15594829000E-01  0.44679833947E-01  0.51100000000E-03 0.  1.
         11    1    4    4    0    0 -0.15689853296E-01 -0.77957953295E-01  0.24421486799E-01  0.83188245064E-01  0.51100000000E-03 0. -1.
</event>
<event>
 8    1  0.1106905E+005  0.1043930E+01  0.7957747E-01            NaN
         13   -1    0    0    0    0  0.00000000000E+00  0.00000000000E+00  0.74505805969E-08  0.10566000000E+00  0.10566000000E+00 0. -1.
     999900   -1    0    0    0    0 -0.00000000000E+00 -0.00000000000E+00 -0.74505805969E-08  0.93827000000E+00  0.93827000000E+00 0.  1.
     999902    2    1    2    0    0  0.85759922128E-02  0.33493719101E-02  0.21615663994E-01  0.10204352588E+01  0.10201647487E+01 0.  0.
     999903    2    3    3    0    0 -0.12239348625E+00 -0.13421091232E-01  0.37999117108E-01  0.13043375865E+00  0.20217352144E-01 0.  0.
         14    1    1    2    0    0 -0.85759922128E-02 -0.33493719101E-02 -0.21615663994E-01  0.23494741210E-01  0.00000000000E+00 0.  1.
     999901    1    3    3    0    0  0.13096947846E+00  0.16770463142E-01 -0.16383453114E-01  0.89000150014E+00  0.88000000000E+00 0.  1.
        -11    1    4    4    0    0 -0.48008336591E-01  0.18184584459E-02  0.21960639254E-01  0.52826489290E-01  0.51100000000E-03 0. -1.
         11    1    4    4    0    0 -0.74385149657E-01 -0.15239549678E-01  0.16038477854E-01  0.77607269356E-01  0.51100000000E-03 0.  1.
</event>
<event>
 8    1  0.1106905E+005  0.1043930E+01  0.7957747E-01            NaN
         13   -1    0    0    0    0  0.00000000000E+00  0.00000000000E+00  0.74505805969E-08  0.10566000000E+00  0.10566000000E+00 0.  1.
     999900   -1    0    0    0    0 -0.00000000000E+00 -0.00000000000E+00 -0.74505805969E-08  0.93827000000E+00  0.93827000000E+00 0. -1.
     999902    2    1    2    0    0 -0.17735935015E-01 -0.11389247965E-01  0.11060305569E-01  0.10201264557E+01  0.10198487030E+01 0.  0.
     999903    2    3    3    0    0  0.10757276683E+00 -0.52441586813E-01 -0.42873833918E-01  0.12866896562E+00  0.19887606407E-01 0.  0.
         14    1    1    2    0    0  0.17735935015E-01  0.11389247965E-01 -0.11060305569E-01  0.23803544260E-01  0.00000000000E+00 0. -1.
     999901    1    3    3    0    0 -0.12530870185E+00  0.41052338848E-01  0.53934139487E-01  0.89145749012E+00  0.88000000000E+00 0.  1.
        -11    1    4    4    0    0  0.31986379411E-01 -0.25972984935E-01 -0.13437818089E-01  0.43342363691E-01  0.51100000000E-03 0.  1.
         11    1    4    4    0    0  0.75586387419E-01 -0.26468601878E-01 -0.29436015829E-01  0.85326601932E-01  0.51100000000E-03 0. -1.
</event>
<event>
 8    1  0.1106905E+005  0.1043930E+01  0.7957747E-01            NaN
         13   -1    0    0    0    0  0.00000000000E+00  0.00000000000E+00  0.74505805969E-08  0.10566000000E+00  0.10566000000E+00 0.  1.
     999900   -1    0    0    0    0 -0.00000000000E+00 -0.00000000000E+00 -0.74505805969E-08  0.93827000000E+00  0.93827000000E+00 0. -1.
     999902    2    1    2    0    0 -0.22927856861E-01 -0.27938035616E-02 -0.61658761247E-02  0.10200237249E+01  0.10197435410E+01 0.  0.
     999903    2    3    3    0    0  0.10384354080E+00 -0.68914802865E-01 -0.22860561143E-01  0.12832776425E+00  0.20314497340E-01 0.  0.
         14    1    1    2    0    0  0.22927856861E-01  0.27938035616E-02  0.61658761247E-02  0.23906275054E-01  0.00000000000E+00 0.  1.
     999901    1    3    3    0    0 -0.12677139766E+00  0.66120999303E-01  0.16694685019E-01  0.89169596070E+00  0.88000000000E+00 0. -1.
        -11    1    4    4    0    0  0.52882708025E-01 -0.28669255138E-01 -0.22538127791E-02  0.60198403561E-01  0.51100000000E-03 0. -1.
         11    1    4    4    0    0  0.50960832774E-01 -0.40245547727E-01 -0.20606748364E-01  0.68129360689E-01  0.51100000000E-03 0.  1.
</event>
<event>
 8    1  0.1106905E+005  0.1043930E+01  0.7957747E-01            NaN
         13   -1    0    0    0    0  0.00000000000E+00  0.00000000000E+00  0.74505805969E-08  0.10566000000E+00  0.10566000000E+00 0. -1.
     999900   -1    0    0    0    0 -0.00000000000E+00 -0.00000000000E+00 -0.74505805969E-08  0.93827000000E+00  0.93827000000E+00 0. -1.
     999902    2    1    2    0    0 -0.13564032554E-01  0.18476063973E-02  0.19256649351E-01  0.10203034223E+01  0.10200298321E+01 0.  0.
     999903    2    3    3    0    0  0.20635587400E-01 -0.12166701842E+00 -0.33457426834E-01  0.12945873868E+00  0.20284840945E-01 0.  0.
         14    1    1    2    0    0  0.13564032554E-01 -0.18476063973E-02 -0.19256649351E-01  0.23626577677E-01  0.00000000000E+00 0.  1.
     999901    1    3    3    0    0 -0.34199619954E-01  0.12351462481E+00  0.52714076185E-01  0.89084468364E+00  0.88000000000E+00 0.  1.
        -11    1    4    4    0    0  0.22786899638E-02 -0.42211729306E-01 -0.20140716463E-01  0.46828752915E-01  0.51100000000E-03 0.  1.
         11    1    4    4    0    0  0.18356897436E-01 -0.79455289111E-01 -0.13316710370E-01  0.82629985764E-01  0.51100000000E-03 0. -1.
</event>
<event>
 8    1  0.1106905E+005  0.1043930E+01  0.7957747E-01            NaN
         13   -1    0    0    0    0  0.00000000000E+00  0.00000000000E+00  0.74505805969E-08  0.10566000000E+00  0.10566000000E+00 0.  1.
     999900   -1    0    0    0    0 -0.00000000000E+00 -0.00000000000E+00 -0.74505805969E-08  0.93827000000E+00  0.93827000000E+00 0. -1.
     999902    2    1    2    0    0  0.94341561595E-02  0.16482564706E-01  0.13468212749E-01  0.10206475818E+01  0.10203819948E+01 0.  0.
     999903    2    3    3    0    0 -0.14600309794E-01  0.40147788159E-01 -0.12168284326E+00  0.12969106981E+00  0.13712961200E-01 0.  0.
         14    1    1    2    0    0 -0.94341561595E-02 -0.16482564706E-01 -0.13468212749E-01  0.23282418182E-01  0.00000000000E+00 0. -1.
     999901    1    3    3    0    0  0.24034465953E-01 -0.23665223453E-01  0.13515105601E+00  0.89095651201E+00  0.88000000000E+00 0.  1.
        -11    1    4    4    0    0 -0.51634227764E-02  0.74282999225E-02 -0.43156511589E-01  0.44097462377E-01  0.51100000000E-03 0. -1.
         11    1    4    4    0    0 -0.94368870176E-02  0.32719488236E-01 -0.78526331667E-01  0.85593607431E-01  0.51100000000E-03 0.  1.
</event>
<event>
 7    1  0.1854870E+005  0.1043930E+01  0.7957747E-01            NaN
         13   -1    0    0    0    0  0.00000000000E+00  0.00000000000E+00  0.74505805969E-08  0.10566000000E+00  0.10566000000E+00 0. -1.
     999900   -1    0    0    0    0 -0.00000000000E+00 -0.00000000000E+00 -0.74505805969E-08  0.93827000000E+00  0.93827000000E+00 0.  1.
     999903    2    1    2    0    0  0.64129722208E-01 -0.14462126065E-01 -0.50262674116E-01  0.85108981130E-01  0.19885368964E-01 0.  0.
         14    1    1    2    0    0  0.63462457409E-01 -0.22467042801E-01  0.87114991036E-02  0.67883294920E-01  0.00000000000E+00 0.  1.
     999901    1    1    2    0    0 -0.12759217962E+00  0.36929168866E-01  0.41551175012E-01  0.89093772395E+00  0.88000000000E+00 0. -1.
        -11    1    3    3    0    0  0.26975967819E-01  0.38553501232E-02 -0.19885182507E-01  0.33737933675E-01  0.51100000000E-03 0.  1.
         11    1    3    3    0    0  0.37153754390E-01 -0.18317476188E-01 -0.30377491609E-01  0.51371047455E-01  0.51100000000E-03 0. -1.
</event>
<event>
 8    1  0.1106905E+005  0.1043930E+01  0.7957747E-01            NaN
         13   -1    0    0    0    0  0.00000000000E+00  0.00000000000E+00  0.74505805969E-08  0.10566000000E+00  0.10566000000E+00 0. -1.
     999900   -1    0    0    0    0 -0.00000000000E+00 -0.00000000000E+00 -0.74505805969E-08  0.93827000000E+00  0.93827000000E+00 0.  1.
     999902    2    1    2    0    0 -0.24693511131E-02  0.18642067171E-01 -0.23539761380E-01  0.10138011977E+01  0.10133534051E+01 0.  0.
     999903    2    3    3    0    0  0.59919319804E-01  0.10971340851E+00 -0.36890583608E-02  0.12668204791E+00  0.20183538328E-01 0.  0.
         14    1    1    2    0    0  0.24693511131E-02 -0.18642067171E-01  0.23539761380E-01  0.30128802318E-01  0.00000000000E+00 0. -1.
     999901    1    3    3    0    0 -0.62388670917E-01 -0.91071341341E-01 -0.19850703019E-01  0.88711914977E+00  0.88000000000E+00 0. -1.
        -11    1    4    4    0    0  0.99242885055E-02  0.96594608265E-02 -0.52526187828E-02  0.14820519926E-01  0.51100000000E-03 0. -1.
         11    1    4    4    0    0  0.49995031298E-01  0.10005394768E+00  0.15635604220E-02  0.11186152799E+00  0.51100000000E-03 0.  1.
</event>
<event>
 7    1  0.1106905E+005  0.1043930E+01  0.7957747E-01            NaN
         13   -1    0    0    0    0  0.00000000000E+00  0.00000000000E+00  0.74505805969E-08  0.10566000000E+00  0.10566000000E+00 0. -1.
     999900   -1    0    0    0    0 -0.00000000000E+00 -0.00000000000E+00 -0.74505805969E-08  0.93827000000E+00  0.93827000000E+00 0. -1.
     999902    2    1    2    0    0 -0.11679636775E-01  0.26980636738E-01  0.12333476922E-02  0.10145039941E+01  0.10140771491E+01 0.  0.
         14    1    1    2    0    0  0.11679636775E-01 -0.26980636738E-01 -0.12333476922E-02  0.29426005854E-01  0.00000000000E+00 0.  1.
     999901    1    3    3    0    0  0.65939060384E-02  0.11744266835E+00 -0.61699732244E-01  0.88996804263E+00  0.88000000000E+00 0.  1.
        -11    1    3    3    0    0  0.18186841027E-01 -0.19306388019E-01  0.86806137726E-02  0.27912577476E-01  0.51100000000E-03 0. -1.
         11    1    3    3    0    0 -0.36460383840E-01 -0.71155643593E-01  0.54252466163E-01  0.96623374039E-01  0.51100000000E-03 0.  1.
</event>
<event>
 8    1  0.1106905E+005  0.1043930E+01  0.7957747E-01            NaN
         13   -1    0    0    0    0  0.00000000000E+00  0.00000000000E+00  0.74505805969E-08  0.10566000000E+00  0.10566000000E+00 0. -1.
     999900   -1    0    0    0    0 -0.00000000000E+00 -0.00000000000E+00 -0.74505805969E-08  0.93827000000E+00  0.93827000000E+00 0. -1.
     999902    2    1    2    0    0  0.27645534409E-02 -0.47542921357E-02  0.23020583558E-01  0.10202615967E+01  0.10199870256E+01 0.  0.
     999903    2    3    3    0    0 -0.95545678036E-01  0.66990586158E-01 -0.44334607271E-01  0.12933570136E+00  0.33844512409E-01 0.  0.
         14    1    1    2    0    0 -0.27645534409E-02  0.47542921357E-02 -0.23020583558E-01  0.23668403342E-01  0.00000000000E+00 0.  1.
     999901    1    3    3    0    0  0.98310231477E-01 -0.71744878294E-01  0.67355190829E-01  0.89092589529E+00  0.88000000000E+00 0. -1.
        -11    1    4    4    0    0 -0.10704953228E-01  0.15349770943E-01 -0.19339382098E-01  0.26916246256E-01  0.51100000000E-03 0. -1.
         11    1    4    4    0    0 -0.84840724808E-01  0.51640815215E-01 -0.24995225174E-01  0.10241945511E+00  0.51100000000E-03 0.  1.
</event>
<event>
 8    1  0.1106905E+005  0.1043930E+01  0.7957747E-01            NaN
         13   -1    0    0    0    0  0.00000000000E+00  0.00000000000E+00  0.74505805969E-08  0.10566000000E+00  0.10566000000E+00 0. -1.
     999900   -1    0    0    0    0 -0.00000000000E+00 -0.00000000000E+00 -0.74505805969E-08  0.93827000000E+00  0.93827000000E+00 0.  1.
     999902    2    1    2    0    0  0.55602412244E-02  0.14279582544E-01  0.18845002056E-01  0.10196409724E+01  0.10193516350E+01 0.  0.
     999903    2    3    3    0    0  0.26721055369E-01 -0.11969060775E+00  0.34814961340E-01  0.12910695757E+00  0.20412461269E-01 0.  0.
         14    1    1    2    0    0 -0.55602412244E-02 -0.14279582544E-01 -0.18845002056E-01  0.24289027617E-01  0.00000000000E+00 0.  1.
     999901    1    3    3    0    0 -0.21160814145E-01  0.13397019030E+00 -0.15969959285E-01  0.89053401482E+00  0.88000000000E+00 0.  1.
        -11    1    4    4    0    0  0.22248362199E-02 -0.36256650740E-01  0.27726788556E-02  0.36434097877E-01  0.51100000000E-03 0.  1.
         11    1    4    4    0    0  0.24496219149E-01 -0.83433957012E-01  0.32042282485E-01  0.92672859690E-01  0.51100000000E-03 0. -1.
</event>
<event>
 8    1  0.1106905E+005  0.1043930E+01  0.7957747E-01            NaN
         13   -1    0    0    0    0  0.00000000000E+00  0.00000000000E+00  0.74505805969E-08  0.10566000000E+00  0.10566000000E+00 0.  1.
     999900   -1    0    0    0    0 -0.00000000000E+00 -0.00000000000E+00 -0.74505805969E-08  0.93827000000E+00  0.93827000000E+00 0. -1.
     999902    2    1    2    0    0  0.12814745173E-01  0.20749884972E-01 -0.26351578092E-02  0.10194000290E+01  0.10191048521E+01 0.  0.
     999903    2    3    3    0    0  0.89556966387E-01 -0.83281482435E-01  0.35698239036E-01  0.12912965253E+00  0.21067684898E-01 0.  0.
         14    1    1    2    0    0 -0.12814745173E-01 -0.20749884972E-01  0.26351578092E-02  0.24529970993E-01  0.00000000000E+00 0.  1.
     999901    1    3    3    0    0 -0.76742221214E-01  0.10403136741E+00 -0.38333396845E-01  0.89027037648E+00  0.88000000000E+00 0. -1.
        -11    1    4    4    0    0  0.26488283143E-01 -0.34791133532E-01  0.19783917589E-01  0.47997048165E-01  0.51100000000E-03 0.  1.
         11    1    4    4    0    0  0.63068683244E-01 -0.48490348902E-01  0.15914321446E-01  0.81132604364E-01  0.51100000000E-03 0. -1.
</event>
<event>
 8    1  0.1106905E+005  0.1043930E+01  0.7957747E-01            NaN
         13   -1    0    0    0    0  0.00000000000E+00  0.00000000000E+00  0.74505805969E-08  0.10566000000E+00  0.10566000000E+00 0.  1.
     999900   -1    0    0    0    0 -0.00000000000E+00 -0.00000000000E+00 -0.74505805969E-08  0.93827000000E+00  0.93827000000E+00 0.  1.
     999902    2    1    2    0    0  0.17249035121E-01 -0.13295773161E-01  0.14052975344E-01  0.10180110318E+01  0.10176810247E+01 0.  0.
     999903    2    3    3    0    0 -0.70802909397E-01 -0.10040075288E+00  0.33571998809E-01  0.12912329159E+00  0.21269277575E-01 0.  0.
         14    1    1    2    0    0 -0.17249035121E-01  0.13295773161E-01 -0.14052975344E-01  0.25918968201E-01  0.00000000000E+00 0. -1.
     999901    1    3    3    0    0  0.88051944519E-01  0.87104979716E-01 -0.19519023465E-01  0.88888774021E+00  0.88000000000E+00 0.  1.
        -11    1    4    4    0    0 -0.53254498164E-01 -0.58211438971E-01  0.23596628238E-01  0.82350927056E-01  0.51100000000E-03 0.  1.
         11    1    4    4    0    0 -0.17548411233E-01 -0.42189313906E-01  0.99753705702E-02  0.46772364530E-01  0.51100000000E-03 0. -1.
</event>
<event>
 8    1  0.1106905E+005  0.1043930E+01  0.7957747E-01            NaN
         13   -1    0    0    0    0  0.00000000000E+00  0.00000000000E+00  0.74505805969E-08  0.10566000000E+00  0.10566000000E+00 0. -1.
     999900   -1    0    0    0    0 -0.00000000000E+00 -0.00000000000E+00 -0.74505805969E-08  0.93827000000E+00  0.93827000000E+00 0. -1.
     999902    2    1    2    0    0 -0.87744928454E-02  0.18976960683E-01  0.11200803350E-01  0.10202113416E+01  0.10199355895E+01 0.  0.
     999903    2    3    3    0    0  0.17654686039E-01 -0.92044417781E-01 -0.84566630982E-01  0.12768926933E+00  0.19213839891E-01 0.  0.
         14    1    1    2    0    0  0.87744928454E-02 -0.18976960683E-01 -0.11200803350E-01  0.23718658418E-01  0.00000000000E+00 0.  1.
     999901    1    3    3    0    0 -0.26429178884E-01  0.11102137846E+00  0.95767434332E-01  0.89252207225E+00  0.88000000000E+00 0.  1.
        -11    1    4    4    0    0 -0.18355765707E-02 -0.40782360665E-01 -0.36150837824E-01  0.54531774949E-01  0.51100000000E-03 0. -1.
         11    1    4    4    0    0  0.19490262610E-01 -0.51262057116E-01 -0.48415793158E-01  0.73157494384E-01  0.51100000000E-03 0.  1.
</event>
<event>
 8    1  0.1106905E+005  0.1043930E+01  0.7957747E-01            NaN
         13   -1    0    0    0    0  0.00000000000E+00  0.00000000000E+00  0.74505805969E-08  0.10566000000E+00  0.10566000000E+00 0.  1.
     999900   -1    0    0    0    0 -0.00000000000E+00 -0.00000000000E+00 -0.74505805969E-08  0.93827000000E+00  0.93827000000E+00 0.  1.
     999902    2    1    2    0    0 -0.19974496274E-01 -0.43565359157E-02 -0.12601251466E-01  0.10199143500E+01  0.10196315658E+01 0.  0.
     999903    2    3    3    0    0 -0.28360785404E-01 -0.92598384242E-01  0.84704748909E-01  0.13012481794E+00  0.19462241501E-01 0.  0.
         14    1    1    2    0    0  0.19974496274E-01  0.43565359157E-02  0.12601251466E-01  0.24015650004E-01  0.00000000000E+00 0.  1.
     999901    1    3    3    0    0  0.83862891302E-02  0.88241848326E-01 -0.97306000374E-01  0.88978953205E+00  0.88000000000E+00 0.  1.
        -11    1    4    4    0    0 -0.98278748152E-02 -0.62459626359E-01  0.57884332077E-01  0.85724261848E-01  0.51100000000E-03 0.  1.
         11    1    4    4    0    0 -0.18532910589E-01 -0.30138757883E-01  0.26820416832E-01  0.44400556096E-01  0.51100000000E-03 0. -1.
</event>
<event>
 8    1  0.1106905E+005  0.1043930E+01  0.7957747E-01            NaN
         13   -1    0    0    0    0  0.00000000000E+00  0.00000000000E+00  0.74505805969E-08  0.10566000000E+00  0.10566000000E+00 0.  1.
     999900   -1    0    0    0    0 -0.00000000000E+00 -0.00000000000E+00 -0.74505805969E-08  0.93827000000E+00  0.93827000000E+00 0.  1.
     999902    2    1    2    0    0 -0.11936554484E-01  0.19602870745E-01 -0.75113836200E-02  0.10197809885E+01  0.10194950170E+01 0.  0.
     999903    2    3    3    0    0  0.82698532533E-01 -0.34986921769E-01  0.87605096164E-01  0.12793851926E+00  0.25109357996E-01 0.  0.
         14    1    1    2    0    0  0.11936554484E-01 -0.19602870745E-01  0.75113836200E-02  0.24149011539E-01  0.00000000000E+00 0.  1.
     999901    1    3    3    0    0 -0.94635087017E-01  0.54589792514E-01 -0.95116479784E-01  0.89184246920E+00  0.88000000000E+00 0.  1.
        -11    1    4    4    0    0  0.57696016483E-01 -0.34690477582E-01  0.71415415201E-01  0.98146228670E-01  0.51100000000E-03 0.  1.
         11    1    4    4    0    0  0.25002516050E-01 -0.29644418678E-03  0.16189680963E-01  0.29792290592E-01  0.51100000000E-03 0. -1.
</event>
<event>
 8    1  0.1106905E+005  0.1043930E+01  0.7957747E-01            NaN
         13   -1    0    0    0    0  0.00000000000E+00  0.00000000000E+00  0.74505805969E-08  0.10566000000E+00  0.10566000000E+00 0.  1.
     999900   -1    0    0    0    0 -0.00000000000E+00 -0.00000000000E+00 -0.74505805969E-08  0.93827000000E+00  0.93827000000E+00 0.  1.
     999902    2    1    2    0    0 -0.33483589892E-02  0.25838823520E-01 -0.36619937582E-02  0.10176190421E+01  0.10172788449E+01 0.  0.
     999903    2    3    3    0    0 -0.66954955193E-01  0.67632847486E-01  0.86058341647E-01  0.12978894678E+00  0.19543910953E-01 0.  0.
         14    1    1    2    0    0  0.33483589892E-02 -0.25838823520E-01  0.36619937582E-02  0.26310957928E-01  0.00000000000E+00 0. -1.
     999901    1    3    3    0    0  0.63606596204E-01 -0.41794023966E-01 -0.89720335405E-01  0.88783009529E+00  0.88000000000E+00 0.  1.
        -11    1    4    4    0    0 -0.28780260297E-01  0.42758023147E-01  0.47629004877E-01  0.70180732063E-01  0.51100000000E-03 0. -1.
         11    1    4    4    0    0 -0.38174694896E-01  0.24874824338E-01  0.38429336770E-01  0.59608214718E-01  0.51100000000E-03 0.  1.
</event>
<event>
 8    1  0.1106905E+005  0.1043930E+01  0.7957747E-01            NaN
         13   -1    0    0    0    0  0.00000000000E+00  0.00000000000E+00  0.74505805969E-08  0.10566000000E+00  0.10566000000E+00 0.  1.
     999900   -1    0    0    0    0 -0.00000000000E+00 -0.00000000000E+00 -0.74505805969E-08  0.93827000000E+00  0.93827000000E+00 0.  1.
     999902    2    1    2    0    0  0.11886700706E-01  0.17633679159E-01 -0.11841883797E-01  0.10195892830E+01  0.10192986978E+01 0.  0.
     999903    2    3    3    0    0  0.10001531476E-01  0.12613623998E+00  0.31305127371E-01  0.13187422499E+00  0.20010460964E-01 0.  0.
         14    1    1    2    0    0 -0.11886700706E-01 -0.17633679159E-01  0.11841883797E-01  0.24340717045E-01  0.00000000000E+00 0. -1.
     999901    1    3    3    0    0  0.18851692302E-02 -0.10850256082E+00 -0.43147011168E-01  0.88771505797E+00  0.88000000000E+00 0.  1.
        -11    1    4    4    0    0 -0.16446016888E-02  0.60159904936E-01  0.69413098043E-02  0.60583510788E-01  0.51100000000E-03 0.  1.
         11    1    4    4    0    0  0.11646133165E-01  0.65976335046E-01  0.24363817566E-01  0.71290714200E-01  0.51100000000E-03 0. -1.
</event>
<event>
 8    1  0.1106905E+005  0.1043930E+01  0.7957747E-01            NaN
         13   -1    0    0    0    0  0.00000000000E+00  0.00000000000E+00  0.74505805969E-08  0.10566000000E+00  0.10566000000E+00 0.  1.
     999900   -1    0    0    0    0 -0.00000000000E+00 -0.00000000000E+00 -0.74505805969E-08  0.93827000000E+00  0.93827000000E+00 0.  1.
     999902    2    1    2    0    0  0.95541327448E-03  0.73305988408E-02  0.17862504002E-01  0.10245981728E+01  0.10244157828E+01 0.  0.
     999903    2    3    3    0    0  0.93583217197E-01 -0.83587827376E-01  0.46979895333E-01  0.13460160383E+00  0.12873917917E-01 0.  0.
         14    1    1    2    0    0 -0.95541327448E-03 -0.73305988408E-02 -0.17862504002E-01  0.19331827206E-01  0.00000000000E+00 0. -1.
     999901    1    3    3    0    0 -0.92627803922E-01  0.90918426217E-01 -0.29117391331E-01  0.88999656896E+00  0.88000000000E+00 0.  1.
        -11    1    4    4    0    0  0.37115560994E-01 -0.25063207974E-01  0.17890926739E-01  0.48229406408E-01  0.51100000000E-03 0.  1.
         11    1    4    4    0    0  0.56467656202E-01 -0.58524619402E-01  0.29088968594E-01  0.86372197425E-01  0.51100000000E-03 0. -1.
</event>
<event>
 8    1  0.1106905E+005  0.1043930E+01  0.7957747E-01            NaN
         13   -1    0    0    0    0  0.00000000000E+00  0.00000000000E+00  0.74505805969E-08  0.10566000000E+00  0.10566000000E+00 0. -1.
     999900   -1    0    0    0    0 -0.00000000000E+00 -0.00000000000E+00 -0.74505805969E-08  0.93827000000E+00  0.93827000000E+00 0.  1.
     999902    2    1    2    0    0 -0.21730743106E-01 -0.98379183456E-02  0.85250370407E-02  0.10185984764E+01  0.10182834428E+01 0.  0.
     999903    2    3    3    0    0 -0.32804027420E-01  0.64336250725E-01 -0.10410549670E+00  0.12825581080E+00  0.19908319597E-01 0.  0.
         14    1    1    2    0    0  0.21730743106E-01  0.98379183456E-02 -0.85250370407E-02  0.25331523639E-01  0.00000000000E+00 0.  1.
     999901    1    3    3    0    0  0.11073284314E-01 -0.74174169071E-01  0.11263053374E+00  0.89034266556E+00  0.88000000000E+00 0. -1.
        -11    1    4    4    0    0 -0.33177423682E-01  0.52885592166E-01 -0.94678736722E-01  0.11341054452E+00  0.51100000000E-03 0.  1.
         11    1    4    4    0    0  0.37339626170E-03  0.11450658559E-01 -0.94267599774E-02  0.14845266279E-01  0.51100000000E-03 0. -1.
</event>
<event>
 8    1  0.1106905E+005  0.1043930E+01  0.7957747E-01            NaN
         13   -1    0    0    0    0  0.00000000000E+00  0.00000000000E+00  0.74505805969E-08  0.10566000000E+00  0.10566000000E+00 0.  1.
     999900   -1    0    0    0    0 -0.00000000000E+00 -0.00000000000E+00 -0.74505805969E-08  0.93827000000E+00  0.93827000000E+00 0. -1.
     999902    2    1    2    0    0  0.74890696208E-02  0.25605571297E-01 -0.52798168931E-02  0.10167342667E+01  0.10163704842E+01 0.  0.
     999903    2    3    3    0    0  0.75695998709E-01 -0.77078168055E-01  0.61136208768E-01  0.12566343673E+00  0.19563616638E-01 0.  0.
         14    1    1    2    0    0 -0.74890696208E-02 -0.25605571297E-01  0.52798168931E-02  0.27195733335E-01  0.00000000000E+00 0.  1.
     999901    1    3    3    0    0 -0.68206929088E-01  0.10268373935E+00 -0.66416025661E-01  0.89107082994E+00  0.88000000000E+00 0. -1.
        -11    1    4    4    0    0  0.59074692197E-02 -0.95637239332E-02  0.13286771596E-01  0.17411560197E-01  0.51100000000E-03 0. -1.
         11    1    4    4    0    0  0.69788529489E-01 -0.67514444122E-01  0.47849437173E-01  0.10825187653E+00  0.51100000000E-03 0.  1.
</event>
<event>
 8    1  0.1106905E+005  0.1043930E+01  0.7957747E-01            NaN
         13   -1    0    0    0    0  0.00000000000E+00  0.00000000000E+00  0.74505805969E-08  0.10566000000E+00  0.10566000000E+00 0. -1.
     999900   -1    0    0    0    0 -0.00000000000E+00 -0.00000000000E+00 -0.74505805969E-08  0.93827000000E+00  0.93827000000E+00 0.  1.
     999902    2    1    2    0    0 -0.13859515121E-01 -0.17045208632E-01 -0.87666207416E-02  0.10202766929E+01  0.10200024761E+01 0.  0.
     999903    2    3    3    0    0 -0.28192828646E-01 -0.83302644809E-01  0.92854553398E-01  0.13183853820E+00  0.32019772778E-01 0.  0.
         14    1    1    2    0    0  0.13859515121E-01  0.17045208632E-01  0.87666207416E-02  0.23653307082E-01  0.00000000000E+00 0.  1.
     999901    1    3    3    0    0  0.14333313526E-01  0.66257436178E-01 -0.10162117414E+00  0.88843815472E+00  0.88000000000E+00 0.  1.
        -11    1    4    4    0    0 -0.12516712109E-01 -0.64735342873E-01  0.50684588483E-01  0.83165625890E-01  0.51100000000E-03 0.  1.
         11    1    4    4    0    0 -0.15676116538E-01 -0.18567301937E-01  0.42169964915E-01  0.48672912311E-01  0.51100000000E-03 0. -1.
</event>
<event>
 8    1  0.1106905E+005  0.1043930E+01  0.7957747E-01            NaN
         13   -1    0    0    0    0  0.00000000000E+00  0.00000000000E+00  0.74505805969E-08  0.10566000000E+00  0.10566000000E+00 0. -1.
     999900   -1    0    0    0    0 -0.00000000000E+00 -0.00000000000E+00 -0.74505805969E-08  0.93827000000E+00  0.93827000000E+00 0. -1.
     999902    2    1    2    0    0 -0.46504351064E-02  0.12430056865E-01  0.19302988430E-01  0.10205048378E+01  0.10202359461E+01 0.  0.
     999903    2    3    3    0    0  0.25830208890E-01  0.54762639232E-01  0.11730822858E+00  0.13352899583E+00  0.20065539862E-01 0.  0.
         14    1    1    2    0    0  0.46504351064E-02 -0.12430056865E-01 -0.19302988430E-01  0.23425162169E-01  0.00000000000E+00 0.  1.
     999901    1    3    3    0    0 -0.30480643997E-01 -0.42332582367E-01 -0.98005240147E-01  0.88697584200E+00  0.88000000000E+00 0. -1.
        -11    1    4    4    0    0  0.23106981470E-01  0.44652800900E-01  0.77638167121E-01  0.92497304479E-01  0.51100000000E-03 0. -1.
         11    1    4    4    0    0  0.27232274204E-02  0.10109838332E-01  0.39670061455E-01  0.41031691356E-01  0.51100000000E-03 0.  1.
</event>
<event>
 7    1  0.1358660E+005  0.1043930E+01  0.7957747E-01            NaN
         13   -1    0    0    0    0  0.00000000000E+00  0.00000000000E+00  0.74505805969E-08  0.10566000000E+00  0.10566000000E+00 0.  1.
     999900   -1    0    0    0    0 -0.00000000000E+00 -0.00000000000E+00 -0.74505805969E-08  0.93827000000E+00  0.93827000000E+00 0.  1.
     999903    2    1    2    0    0 -0.58047146297E-01 -0.62295737104E-01  0.76106339340E-02  0.87734045279E-01  0.19725894086E-01 0.  0.
         14    1    1    2    0    0 -0.55572204588E-01  0.29086442178E-01  0.25363880368E-01  0.67658092411E-01  0.00000000000E+00 0. -1.
     999901    1    1    2    0    0  0.11361935089E+00  0.33209294927E-01 -0.32974514302E-01  0.88853786231E+00  0.88000000000E+00 0.  1.
        -11    1    3    3    0    0 -0.42258108921E-01 -0.32382079880E-01  0.83805006812E-02  0.53896574841E-01  0.51100000000E-03 0.  1.
         11    1    3    3    0    0 -0.15789037376E-01 -0.29913657225E-01 -0.76986674719E-03  0.33837470438E-01  0.51100000000E-03 0. -1.
</event>
<event>
 8    1  0.1106905E+005  0.1043930E+01  0.7957747E-01            NaN
         13   -1    0    0    0    0  0.00000000000E+00  0.00000000000E+00  0.74505805969E-08  0.10566000000E+00  0.10566000000E+00 0.  1.
     999900   -1    0    0    0    0 -0.00000000000E+00 -0.00000000000E+00 -0.74505805969E-08  0.93827000000E+00  0.93827000000E+00 0. -1.
     999902    2    1    2    0    0 -0.10199333424E-01 -0.12814936353E-01  0.18890266307E-01  0.10189281769E+01  0.10186213912E+01 0.  0.
     999903    2    3    3    0    0  0.16611744122E-01 -0.12003735692E+00 -0.42309726418E-01  0.12990572475E+00  0.20011678503E-01 0.  0.
         14    1    1    2    0    0  0.10199333424E-01  0.12814936353E-01 -0.18890266307E-01  0.25001823076E-01  0.00000000000E+00 0. -1.
     999901    1    3    3    0    0 -0.26811077546E-01  0.10722242056E+00  0.61199992725E-01  0.88902245217E+00  0.88000000000E+00 0.  1.
        -11    1    4    4    0    0  0.14055532248E-02 -0.79377749068E-01 -0.26297104425E-01  0.83633733918E-01  0.51100000000E-03 0. -1.
         11    1    4    4    0    0  0.15206190897E-01 -0.40659607848E-01 -0.16012621993E-01  0.46271990837E-01  0.51100000000E-03 0.  1.
</event>
<event>
 8    1  0.1106905E+005  0.1043930E+01  0.7957747E-01            NaN
         13   -1    0    0    0    0  0.00000000000E+00  0.00000000000E+00  0.74505805969E-08  0.10566000000E+00  0.10566000000E+00 0. -1.
     999900   -1    0    0    0    0 -0.00000000000E+00 -0.00000000000E+00 -0.74505805969E-08  0.93827000000E+00  0.93827000000E+00 0.  1.
     999902    2    1    2    0    0 -0.12394517121E-01 -0.48585707194E-03 -0.19977082367E-01  0.10204152401E+01  0.10201442635E+01 0.  0.
     999903    2    3    3    0    0 -0.81896406636E-01 -0.50381288151E-01  0.85269814724E-01  0.13002376666E+00  0.19746973868E-01 0.  0.
         14    1    1    2    0    0  0.12394517121E-01  0.48585707194E-03  0.19977082367E-01  0.23514759869E-01  0.00000000000E+00 0. -1.
     999901    1    3    3    0    0  0.69501889514E-01  0.49895431079E-01 -0.10524689709E+00  0.89039147347E+00  0.88000000000E+00 0.  1.
        -11    1    4    4    0    0 -0.30620881473E-01 -0.11666622663E-01  0.38459676112E-01  0.50528766799E-01  0.51100000000E-03 0.  1.
         11    1    4    4    0    0 -0.51275525163E-01 -0.38714665489E-01  0.46810138612E-01  0.79494999858E-01  0.51100000000E-03 0. -1.
</event>
<event>
 8    1  0.1106905E+005  0.1043930E+01  0.7957747E-01            NaN
         13   -1    0    0    0    0  0.00000000000E+00  0.00000000000E+00  0.74505805969E-08  0.10566000000E+00  0.10566000000E+00 0. -1.
     999900   -1    0    0    0    0 -0.00000000000E+00 -0.00000000000E+00 -0.74505805969E-08  0.93827000000E+00  0.93827000000E+00 0. -1.
     999902    2    1    2    0    0 -0.20229434217E-01 -0.71152277847E-03 -0.13013087138E-01  0.10198659872E+01  0.10195820493E+01 0.  0.
     999903    2    3    3    0    0 -0.11756830400E-01  0.12607367086E+00 -0.25514483563E-01  0.13065141513E+00  0.19647133583E-01 0.  0.
         14    1    1    2    0    0  0.20229434217E-01  0.71152277847E-03  0.13013087138E-01  0.24064012763E-01  0.00000000000E+00 0.  1.
     999901    1    3    3    0    0 -0.84726038169E-02 -0.12678519364E+00  0.12501396426E-01  0.88921457211E+00  0.88000000000E+00 0.  1.
        -11    1    4    4    0    0  0.23752972790E-02  0.29501873827E-01 -0.12703813267E-01  0.32212584326E-01  0.51100000000E-03 0. -1.
         11    1    4    4    0    0 -0.14132127679E-01  0.96571797033E-01 -0.12810670296E-01  0.98438830800E-01  0.51100000000E-03 0.  1.
</event>
<event>
 8    1  0.1106905E+005  0.1043930E+01  0.7957747E-01            NaN
         13   -1    0    0    0    0  0.00000000000E+00  0.00000000000E+00  0.74505805969E-08  0.10566000000E+00  0.10566000000E+00 0. -1.
     999900   -1    0    0    0    0 -0.00000000000E+00 -0.00000000000E+00 -0.74505805969E-08  0.93827000000E+00  0.93827000000E+00 0. -1.
     999902    2    1    2    0    0 -0.54110743567E-04 -0.18359925850E-01 -0.12703485526E-01  0.10216035952E+01  0.10213596024E+01 0.  0.
     999903    2    3    3    0    0  0.46994285500E-01 -0.90252950404E-01 -0.85812298517E-01  0.13440178217E+00  0.18601896342E-01 0.  0.
         14    1    1    2    0    0  0.54110743567E-04  0.18359925850E-01  0.12703485526E-01  0.22326404764E-01  0.00000000000E+00 0. -1.
     999901    1    3    3    0    0 -0.47048396244E-01  0.71893024554E-01  0.73108812992E-01  0.88720181306E+00  0.88000000000E+00 0.  1.
        -11    1    4    4    0    0 -0.76072232216E-03 -0.93631457785E-02 -0.95584963138E-02  0.13411680361E-01  0.51100000000E-03 0. -1.
         11    1    4    4    0    0  0.47755007822E-01 -0.80889804625E-01 -0.76253802204E-01  0.12099010181E+00  0.51100000000E-03 0.  1.
</event>
<event>
 8    1  0.1106905E+005  0.1043930E+01  0.7957747E-01            NaN
         13   -1    0    0    0    0  0.00000000000E+00  0.00000000000E+00  0.74505805969E-08  0.10566000000E+00  0.10566000000E+00 0.  1.
     999900   -1    0    0    0    0 -0.00000000000E+00 -0.00000000000E+00 -0.74505805969E-08  0.93827000000E+00  0.93827000000E+00 0. -1.
     999902    2    1    2    0    0 -0.19514161634E-02  0.22046158306E-01 -0.75688557417E-02  0.10205392177E+01  0.10202711238E+01 0.  0.
     999903    2    3    3    0    0  0.10616513720E+00 -0.60248712271E-01 -0.38286614319E-01  0.12958174644E+00  0.20606321539E-01 0.  0.
         14    1    1    2    0    0  0.19514161634E-02 -0.22046158306E-01  0.75688557417E-02  0.23390782337E-01  0.00000000000E+00 0.  1.
     999901    1    3    3    0    0 -0.10811655336E+00  0.82294870577E-01  0.30717758577E-01  0.89095747122E+00  0.88000000000E+00 0. -1.
        -11    1    4    4    0    0  0.58237245446E-01 -0.24530904981E-01 -0.12199184783E-01  0.64361660068E-01  0.51100000000E-03 0.  1.
         11    1    4    4    0    0  0.47927891756E-01 -0.35717807290E-01 -0.26087429536E-01  0.65220086374E-01  0.51100000000E-03 0. -1.
</event>
<event>
 8    1  0.1106905E+005  0.1043930E+01  0.7957747E-01            NaN
         13   -1    0    0    0    0  0.00000000000E+00  0.00000000000E+00  0.74505805969E-08  0.10566000000E+00  0.10566000000E+00 0.  1.
     999900   -1    0    0    0    0 -0.00000000000E+00 -0.00000000000E+00 -0.74505805969E-08  0.93827000000E+00  0.93827000000E+00 0. -1.
     999902    2    1    2    0    0 -0.14752808837E-01  0.55962278956E-02 -0.18024040273E-01  0.10199752685E+01  0.10196939340E+01 0.  0.
     999903    2    3    3    0    0 -0.50803523131E-01  0.76282030373E-01 -0.94256932474E-01  0.13312263667E+00  0.20912220186E-01 0.  0.
         14    1    1    2    0    0  0.14752808837E-01 -0.55962278956E-02  0.18024040273E-01  0.23954731536E-01  0.00000000000E+00 0.  1.
     999901    1    3    3    0    0  0.36050714295E-01 -0.70685802477E-01  0.76232892202E-01  0.88685263180E+00  0.88000000000E+00 0.  1.
        -11    1    4    4    0    0 -0.35964431103E-01  0.64981370346E-01 -0.82785542902E-01  0.11121927005E+00  0.51100000000E-03 0.  1.
         11    1    4    4    0    0 -0.14839092028E-01  0.11300660027E-01 -0.11471389573E-01  0.21903366613E-01  0.51100000000E-03 0. -1.
</event>
<event>
 8    1  0.1106905E+005  0.1043930E+01  0.7957747E-01            NaN
         13   -1    0    0    0    0  0.00000000000E+00  0.00000000000E+00  0.74505805969E-08  0.10566000000E+00  0.10566000000E+00 0.  1.
     999900   -1    0    0    0    0 -0.00000000000E+00 -0.00000000000E+00 -0.74505805969E-08  0.93827000000E+00  0.93827000000E+00 0. -1.
     999902    2    1    2    0    0 -0.22112541527E-01  0.42484030456E-02  0.15034215648E-01  0.10168552690E+01  0.10164947599E+01 0.  0.
     999903    2    3    3    0    0  0.71220299690E-02  0.12244591641E+00 -0.28646448528E-01  0.12739851747E+00  0.19132106107E-01 0.  0.
         14    1    1    2    0    0  0.22112541527E-01 -0.42484030456E-02 -0.15034215648E-01  0.27074731048E-01  0.00000000000E+00 0. -1.
     999901    1    3    3    0    0 -0.29234571496E-01 -0.11819751336E+00  0.43680664176E-01  0.88945675148E+00  0.88000000000E+00 0.  1.
        -11    1    4    4    0    0  0.53946870139E-02  0.75881275052E-01 -0.27153064694E-01  0.80775123613E-01  0.51100000000E-03 0.  1.
         11    1    4    4    0    0  0.17273429551E-02  0.46564641356E-01 -0.14933838338E-02  0.46623393855E-01  0.51100000000E-03 0. -1.
</event>
<event>
 8    1  0.1106905E+005  0.1043930E+01  0.7957747E-01            NaN
         13   -1    0    0    0    0  0.00000000000E+00  0.00000000000E+00  0.74505805969E-08  0.10566000000E+00  0.10566000000E+00 0.  1.
     999900   -1    0    0    0    0 -0.00000000000E+00 -0.00000000000E+00 -0.74505805969E-08  0.93827000000E+00  0.93827000000E+00 0. -1.
     999902    2    1    2    0    0 -0.11750119116E-01  0.89627538670E-02  0.18436850562E-01  0.10203013370E+01  0.10200276980E+01 0.  0.
     999903    2    3    3    0    0  0.20099958240E-02  0.22692099238E-01  0.12954432780E+00  0.13310197543E+00  0.20382137947E-01 0.  0.
         14    1    1    2    0    0  0.11750119116E-01 -0.89627538670E-02 -0.18436850562E-01  0.23628662991E-01  0.00000000000E+00 0. -1.
     999901    1    3    3    0    0 -0.13760114940E-01 -0.13729345371E-01 -0.11110747724E+00  0.88719936158E+00  0.88000000000E+00 0. -1.
        -11    1    4    4    0    0  0.61087268027E-02  0.57933679421E-04  0.47453017989E-01  0.47847360813E-01  0.51100000000E-03 0. -1.
         11    1    4    4    0    0 -0.40987309787E-02  0.22634165559E-01  0.82091309810E-01  0.85254614617E-01  0.51100000000E-03 0.  1.
</event>
<event>
 8    1  0.1106905E+005  0.1043930E+01  0.7957747E-01            NaN
         13   -1    0    0    0    0  0.00000000000E+00  0.00000000000E+00  0.74505805969E-08  0.10566000000E+00  0.10566000000E+00 0.  1.
     999900   -1    0    0    0    0 -0.00000000000E+00 -0.00000000000E+00 -0.74505805969E-08  0.93827000000E+00  0.93827000000E+00 0.  1.
     999902    2    1    2    0    0  0.34433046000E-02  0.16667489634E-01 -0.14913852101E-01  0.10213007150E+01  0.10210499820E+01 0.  0.
     999903    2    3    3    0    0  0.92867411544E-01  0.59583330025E-01  0.69032726281E-01  0.13175843474E+00  0.20499719127E-01 0.  0.
         14    1    1    2    0    0 -0.34433046000E-02 -0.16667489634E-01  0.14913852101E-01  0.22629285047E-01  0.00000000000E+00 0.  1.
     999901    1    3    3    0    0 -0.89424106944E-01 -0.42915840391E-01 -0.83946578382E-01  0.88954228021E+00  0.88000000000E+00 0.  1.
        -11    1    4    4    0    0  0.24331522594E-01  0.19482820433E-01  0.30045733973E-01  0.43296772798E-01  0.51100000000E-03 0.  1.
         11    1    4    4    0    0  0.68535888950E-01  0.40100509592E-01  0.38986992307E-01  0.88461661944E-01  0.51100000000E-03 0. -1.
</event>
<event>
 8    1  0.1106905E+005  0.1043930E+01  0.7957747E-01            NaN
         13   -1    0    0    0    0  0.00000000000E+00  0.00000000000E+00  0.74505805969E-08  0.10566000000E+00  0.10566000000E+00 0.  1.
     999900   -1    0    0    0    0 -0.00000000000E+00 -0.00000000000E+00 -0.74505805969E-08  0.93827000000E+00  0.93827000000E+00 0. -1.
     999902    2    1    2    0    0 -0.18561464393E-01 -0.14103356768E-01  0.84578016637E-03  0.10206030204E+01  0.10203364040E+01 0.  0.
     999903    2    3    3    0    0  0.60088312872E-01 -0.97639069457E-01 -0.61799122034E-01  0.13094668984E+00  0.13561374103E-01 0.  0.
         14    1    1    2    0    0  0.18561464393E-01  0.14103356768E-01 -0.84578016637E-03  0.23326979586E-01  0.00000000000E+00 0. -1.
     999901    1    3    3    0    0 -0.78649777265E-01  0.83535712689E-01  0.62644902201E-01  0.88965633057E+00  0.88000000000E+00 0.  1.
        -11    1    4    4    0    0  0.22046190215E-01 -0.29010902349E-01 -0.25580148134E-01  0.44522713952E-01  0.51100000000E-03 0.  1.
         11    1    4    4    0    0  0.38042122657E-01 -0.68628167108E-01 -0.36218973901E-01  0.86423975888E-01  0.51100000000E-03 0. -1.
</event>
<event>
 8    1  0.1106905E+005  0.1043930E+01  0.7957747E-01            NaN
         13   -1    0    0    0    0  0.00000000000E+00  0.00000000000E+00  0.74505805969E-08  0.10566000000E+00  0.10566000000E+00 0. -1.
     999900   -1    0    0    0    0 -0.00000000000E+00 -0.00000000000E+00 -0.74505805969E-08  0.93827000000E+00  0.93827000000E+00 0. -1.
     999902    2    1    2    0    0 -0.20442197356E-01  0.11544847053E-01 -0.10664877572E-02  0.10204288442E+01  0.10201581847E+01 0.  0.
     999903    2    3    3    0    0  0.24738263911E-01 -0.44887388220E-01 -0.11738745213E+00  0.12983553749E+00  0.21227189050E-01 0.  0.
         14    1    1    2    0    0  0.20442197356E-01 -0.11544847053E-01  0.10664877572E-02  0.23501155767E-01  0.00000000000E+00 0. -1.
     999901    1    3    3    0    0 -0.45180461268E-01  0.56432235273E-01  0.11632096438E+00  0.89059330674E+00  0.88000000000E+00 0.  1.
        -11    1    4    4    0    0  0.17976150545E-01 -0.17611855389E-01 -0.37644926374E-01  0.45284887561E-01  0.51100000000E-03 0. -1.
         11    1    4    4    0    0  0.67621133666E-02 -0.27275532831E-01 -0.79742525759E-01  0.84550649932E-01  0.51100000000E-03 0.  1.
</event>
<event>
 8    1  0.1106905E+005  0.1043930E+01  0.7957747E-01            NaN
         13   -1    0    0    0    0  0.00000000000E+00  0.00000000000E+00  0.74505805969E-08  0.10566000000E+00  0.10566000000E+00 0. -1.
     999900   -1    0    0    0    0 -0.00000000000E+00 -0.00000000000E+00 -0.74505805969E-08  0.93827000000E+00  0.93827000000E+00 0.  1.
     999902    2    1    2    0    0  0.17112285192E-01  0.16969436470E-01  0.90300256496E-03  0.10198134602E+01  0.10195282665E+01 0.  0.
     999903    2    3    3    0    0 -0.57805783839E-01 -0.11697582040E-01  0.11316851131E+00  0.12906205858E+00  0.19275916157E-01 0.  0.
         14    1    1    2    0    0 -0.17112285192E-01 -0.16969436470E-01 -0.90300256496E-03  0.24116539807E-01  0.00000000000E+00 0.  1.
     999901    1    3    3    0    0  0.74918069031E-01  0.28667018510E-01 -0.11226550874E+00  0.89075140161E+00  0.88000000000E+00 0. -1.
        -11    1    4    4    0    0 -0.19841441071E-01  0.93281180164E-03  0.54834530152E-01  0.58323577905E-01  0.51100000000E-03 0.  1.
         11    1    4    4    0    0 -0.37964342768E-01 -0.12630393842E-01  0.58333981154E-01  0.70738480679E-01  0.51100000000E-03 0. -1.
</event>
<event>
 8    1  0.1106905E+005  0.1043930E+01  0.7957747E-01            NaN
         13   -1    0    0    0    0  0.00000000000E+00  0.00000000000E+00  0.74505805969E-08  0.10566000000E+00  0.10566000000E+00 0. -1.
     999900   -1    0    0    0    0 -0.00000000000E+00 -0.00000000000E+00 -0.74505805969E-08  0.93827000000E+00  0.93827000000E+00 0.  1.
     999902    2    1    2    0    0  0.63854117941E-02  0.12882962474E-01 -0.15464839973E-01  0.10228135258E+01  0.10225955227E+01 0.  0.
     999903    2    3    3    0    0 -0.22223655031E-01  0.12991593189E+00 -0.10246388036E-01  0.13458921471E+00  0.25243376295E-01 0.  0.
         14    1    1    2    0    0 -0.63854117941E-02 -0.12882962474E-01  0.15464839973E-01  0.21116474168E-01  0.00000000000E+00 0. -1.
     999901    1    3    3    0    0  0.28609066825E-01 -0.11703296941E+00 -0.52184519368E-02  0.88822431113E+00  0.88000000000E+00 0. -1.
        -11    1    4    4    0    0  0.96392534295E-04  0.45593439992E-01 -0.12681923573E-01  0.47327194807E-01  0.51100000000E-03 0. -1.
         11    1    4    4    0    0 -0.22320047565E-01  0.84322491895E-01  0.24355355367E-02  0.87262019900E-01  0.51100000000E-03 0.  1.
</event>
<event>
 8    1  0.1106905E+005  0.1043930E+01  0.7957747E-01            NaN
         13   -1    0    0    0    0  0.00000000000E+00  0.00000000000E+00  0.74505805969E-08  0.10566000000E+00  0.10566000000E+00 0.  1.
     999900   -1    0    0    0    0 -0.00000000000E+00 -0.00000000000E+00 -0.74505805969E-08  0.93827000000E+00  0.93827000000E+00 0.  1.
     999902    2    1    2    0    0 -0.16049610926E-01  0.15826528397E-01  0.19239483920E-02  0.10213076529E+01  0.10210570754E+01 0.  0.
     999903    2    3    3    0    0 -0.29479720058E-01  0.10813480508E+00 -0.69469890888E-01  0.13350234423E+00  0.20847546842E-01 0.  0.
         14    1    1    2    0    0  0.16049610926E-01 -0.15826528397E-01 -0.19239483920E-02  0.22622347124E-01  0.00000000000E+00 0.  1.
     999901    1    3    3    0    0  0.13430109132E-01 -0.92308276687E-01  0.71393839279E-01  0.88780530865E+00  0.88000000000E+00 0.  1.
        -11    1    4    4    0    0 -0.61465080598E-02  0.55709114154E-01 -0.40984626969E-01  0.69435478899E-01  0.51100000000E-03 0.  1.
         11    1    4    4    0    0 -0.23333211999E-01  0.52425690930E-01 -0.28485263919E-01  0.64066865330E-01  0.51100000000E-03 0. -1.
</event>
<event>
 8    1  0.1106905E+005  0.1043930E+01  0.7957747E-01            NaN
         13   -1    0    0    0    0  0.00000000000E+00  0.00000000000E+00  0.74505805969E-08  0.10566000000E+00  0.10566000000E+00 0.  1.
     999900   -1    0    0    0    0 -0.00000000000E+00 -0.00000000000E+00 -0.74505805969E-08  0.93827000000E+00  0.93827000000E+00 0.  1.
     999902    2    1    2    0    0 -0.33285391753E-02  0.19075998166E-01  0.13850546515E-01  0.10201222173E+01  0.10198443644E+01 0.  0.
     999903    2    3    3    0    0 -0.11379397157E+00 -0.51879099719E-01  0.29671657447E-01  0.13024158191E+00  0.21022688870E-01 0.  0.
         14    1    1    2    0    0  0.33285391753E-02 -0.19075998166E-01 -0.13850546515E-01  0.23807782716E-01  0.00000000000E+00 0. -1.
     999901    1    3    3    0    0  0.11046543240E+00  0.70955097885E-01 -0.15821110932E-01  0.88988063538E+00  0.88000000000E+00 0. -1.
        -11    1    4    4    0    0 -0.93106825424E-01 -0.48714136108E-01  0.19151917363E-01  0.10681294424E+00  0.51100000000E-03 0. -1.
         11    1    4    4    0    0 -0.20687146150E-01 -0.31649636114E-02  0.10519740084E-01  0.23428637667E-01  0.51100000000E-03 0.  1.
</event>
<event>
 8    1  0.1106905E+005  0.1043930E+01  0.7957747E-01            NaN
         13   -1    0    0    0    0  0.00000000000E+00  0.00000000000E+00  0.74505805969E-08  0.10566000000E+00  0.10566000000E+00 0.  1.
     999900   -1    0    0    0    0 -0.00000000000E+00 -0.00000000000E+00 -0.74505805969E-08  0.93827000000E+00  0.93827000000E+00 0.  1.
     999902    2    1    2    0    0  0.10111629013E-01 -0.41704063428E-02  0.20731203099E-01  0.10204902877E+01  0.10202210580E+01 0.  0.
     999903    2    3    3    0    0  0.31652498837E-01  0.10787303989E+00  0.66394341845E-01  0.13195055019E+00  0.19085744619E-01 0.  0.
         14    1    1    2    0    0 -0.10111629013E-01  0.41704063428E-02 -0.20731203099E-01  0.23439712291E-01  0.00000000000E+00 0. -1.
     999901    1    3    3    0    0 -0.21540869825E-01 -0.11204344623E+00 -0.45663138746E-01  0.88853973752E+00  0.88000000000E+00 0.  1.
        -11    1    4    4    0    0 -0.15495384825E-02  0.20315318119E-01  0.11354129578E-01  0.23330036418E-01  0.51100000000E-03 0.  1.
         11    1    4    4    0    0  0.33202037320E-01  0.87557721771E-01  0.55040212267E-01  0.10862051377E+00  0.51100000000E-03 0. -1.
</event>
<event>
 8    1  0.1106905E+005  0.1043930E+01  0.7957747E-01            NaN
         13   -1    0    0    0    0  0.00000000000E+00  0.00000000000E+00  0.74505805969E-08  0.10566000000E+00  0.10566000000E+00 0.  1.
     999900   -1    0    0    0    0 -0.00000000000E+00 -0.00000000000E+00 -0.74505805969E-08  0.93827000000E+00  0.93827000000E+00 0.  1.
     999902    2    1    2    0    0 -0.17922959327E-01  0.11151196292E-01  0.11401600926E-01  0.10199387901E+01  0.10196565880E+01 0.  0.
     999903    2    3    3    0    0 -0.66808655185E-01 -0.10980854079E+00  0.66931282573E-02  0.13030783346E+00  0.20347517217E-01 0.  0.
         14    1    1    2    0    0  0.17922959327E-01 -0.11151196292E-01 -0.11401600926E-01  0.23991209921E-01  0.00000000000E+00 0. -1.
     999901    1    3    3    0    0  0.48885695858E-01  0.12095973709E+00  0.47084726687E-02  0.88963095662E+00  0.88000000000E+00 0. -1.
        -11    1    4    4    0    0 -0.24229827570E-01 -0.36982082409E-01  0.11889238375E-01  0.45786177756E-01  0.51100000000E-03 0. -1.
         11    1    4    4    0    0 -0.42578827615E-01 -0.72826458386E-01 -0.51961101179E-02  0.84521655707E-01  0.51100000000E-03 0.  1.
</event>
<event>
 8    1  0.1106905E+005  0.1043930E+01  0.7957747E-01            NaN
         13   -1    0    0    0    0  0.00000000000E+00  0.00000000000E+00  0.74505805969E-08  0.10566000000E+00  0.10566000000E+00 0.  1.
     999900   -1    0    0    0    0 -0.00000000000E+00 -0.00000000000E+00 -0.74505805969E-08  0.93827000000E+00  0.93827000000E+00 0.  1.
     999902    2    1    2    0    0 -0.26154459766E-01 -0.17583092022E-01  0.50815304518E-02  0.10120075496E+01  0.10115039483E+01 0.  0.
     999903    2    3    3    0    0 -0.86171165782E-02  0.65175158342E-01 -0.10040989266E+00  0.12167899966E+00  0.20039372512E-01 0.  0.
         14    1    1    2    0    0  0.26154459766E-01  0.17583092022E-01 -0.50815304518E-02  0.31922450446E-01  0.00000000000E+00 0. -1.
     999901    1    3    3    0    0 -0.17537343188E-01 -0.82758250364E-01  0.10549142311E+00  0.89032854990E+00  0.88000000000E+00 0.  1.
        -11    1    4    4    0    0  0.55554988491E-02  0.25315240407E-01 -0.31220512870E-01  0.40579631703E-01  0.51100000000E-03 0.  1.
         11    1    4    4    0    0 -0.14172615427E-01  0.39859917935E-01 -0.69189379791E-01  0.81099367955E-01  0.51100000000E-03 0. -1.
</event>
<event>
 8    1  0.1106905E+005  0.1043930E+01  0.7957747E-01            NaN
         13   -1    0    0    0    0  0.00000000000E+00  0.00000000000E+00  0.74505805969E-08  0.10566000000E+00  0.10566000000E+00 0.  1.
     999900   -1    0    0    0    0 -0.00000000000E+00 -0.00000000000E+00 -0.74505805969E-08  0.93827000000E+00  0.93827000000E+00 0. -1.
     999902    2    1    2    0    0  0.13541904730E-01  0.15492944928E-01 -0.10826467421E-01  0.10206786146E+01  0.10204137432E+01 0.  0.
     999903    2    3    3    0    0 -0.11553535158E-01  0.10203108021E+00 -0.82431051433E-01  0.13318447579E+00  0.19985015577E-01 0.  0.
         14    1    1    2    0    0 -0.13541904730E-01 -0.15492944928E-01  0.10826467421E-01  0.23251385402E-01  0.00000000000E+00 0.  1.
     999901    1    3    3    0    0  0.25095439888E-01 -0.86538135286E-01  0.71604584011E-01  0.88749413881E+00  0.88000000000E+00 0.  1.
        -11    1    4    4    0    0 -0.17031595491E-01  0.85619214747E-01 -0.69103112582E-01  0.11133834231E+00  0.51100000000E-03 0. -1.
         11    1    4    4    0    0  0.54780603336E-02  0.16411865467E-01 -0.13327938851E-01  0.21846133483E-01  0.51100000000E-03 0.  1.
</event>
<event>
 8    1  0.1106905E+005  0.1043930E+01  0.7957747E-01            NaN
         13   -1    0    0    0    0  0.00000000000E+00  0.00000000000E+00  0.74505805969E-08  0.10566000000E+00  0.10566000000E+00 0.  1.
     999900   -1    0    0    0    0 -0.00000000000E+00 -0.00000000000E+00 -0.74505805969E-08  0.93827000000E+00  0.93827000000E+00 0. -1.
     999902    2    1    2    0    0 -0.72668751785E-02 -0.84712339263E-02  0.21544927980E-01  0.10196657629E+01  0.10193770229E+01 0.  0.
     999903    2    3    3    0    0  0.68682037855E-01 -0.67744232023E-01 -0.82290785045E-01  0.12833900971E+00  0.19814762542E-01 0.  0.
         14    1    1    2    0    0  0.72668751785E-02  0.84712339263E-02 -0.21544927980E-01  0.24264237073E-01  0.00000000000E+00 0. -1.
     999901    1    3    3    0    0 -0.75948913034E-01  0.59272998096E-01  0.10383571302E+00  0.89132675321E+00  0.88000000000E+00 0.  1.
        -11    1    4    4    0    0  0.20498717734E-01 -0.12342200017E-01 -0.12339956184E-01  0.26926993327E-01  0.51100000000E-03 0. -1.
         11    1    4    4    0    0  0.48183320121E-01 -0.55402032006E-01 -0.69950828861E-01  0.10141201639E+00  0.51100000000E-03 0.  1.
</event>
<event>
 8    1  0.1106905E+005  0.1043930E+01  0.7957747E-01            NaN
         13   -1    0    0    0    0  0.00000000000E+00  0.00000000000E+00  0.74505805969E-08  0.10566000000E+00  0.10566000000E+00 0. -1.
     999900   -1    0    0    0    0 -0.00000000000E+00 -0.00000000000E+00 -0.74505805969E-08  0.93827000000E+00  0.93827000000E+00 0. -1.
     999902    2    1    2    0    0 -0.20530242026E-01 -0.13406112635E-01 -0.62560044837E-02  0.10186248170E+01  0.10183104466E+01 0.  0.
     999903    2    3    3    0    0 -0.14944530066E-01 -0.12761365092E+00 -0.16921947796E-01  0.13116308583E+00  0.20219294901E-01 0.  0.
         14    1    1    2    0    0  0.20530242026E-01  0.13406112635E-01  0.62560044837E-02  0.25305182982E-01  0.00000000000E+00 0. -1.
     999901    1    3    3    0    0 -0.55857119595E-02  0.11420753829E+00  0.10665943312E-01  0.88746173119E+00  0.88000000000E+00 0. -1.
        -11    1    4    4    0    0 -0.15095781036E-01 -0.84653680720E-01 -0.31568800929E-02  0.86048563482E-01  0.51100000000E-03 0. -1.
         11    1    4    4    0    0  0.15125096959E-03 -0.42959970203E-01 -0.13765067703E-01  0.45114522346E-01  0.51100000000E-03 0.  1.
</event>
<event>
 8    1  0.1106905E+005  0.1043930E+01  0.7957747E-01            NaN
         13   -1    0    0    0    0  0.00000000000E+00  0.00000000000E+00  0.74505805969E-08  0.10566000000E+00  0.10566000000E+00 0.  1.
     999900   -1    0    0    0    0 -0.00000000000E+00 -0.00000000000E+00 -0.74505805969E-08  0.93827000000E+00  0.93827000000E+00 0.  1.
     999902    2    1    2    0    0  0.17466355714E-01 -0.19813331761E-02 -0.15390759857E-01  0.10205660373E+01  0.10202985650E+01 0.  0.
     999903    2    3    3    0    0  0.54850508732E-01 -0.50735410059E-01 -0.10884607705E+00  0.13348744372E+00  0.19717225956E-01 0.  0.
         14    1    1    2    0    0 -0.17466355714E-01  0.19813331761E-02  0.15390759857E-01  0.23363962679E-01  0.00000000000E+00 0.  1.
     999901    1    3    3    0    0 -0.37384153018E-01  0.48754076883E-01  0.93455317197E-01  0.88707859360E+00  0.88000000000E+00 0. -1.
        -11    1    4    4    0    0  0.49110251982E-01 -0.34431245877E-01 -0.84926173482E-01  0.10397135954E+00  0.51100000000E-03 0.  1.
         11    1    4    4    0    0  0.57402567498E-02 -0.16304164183E-01 -0.23919903572E-01  0.29516084177E-01  0.51100000000E-03 0. -1.
</event>
<event>
 8    1  0.1106905E+005  0.1043930E+01  0.7957747E-01            NaN
         13   -1    0    0    0    0  0.00000000000E+00  0.00000000000E+00  0.74505805969E-08  0.10566000000E+00  0.10566000000E+00 0.  1.
     999900   -1    0    0    0    0 -0.00000000000E+00 -0.00000000000E+00 -0.74505805969E-08  0.93827000000E+00  0.93827000000E+00 0.  1.
     999902    2    1    2    0    0  0.11587563722E-01  0.19481890986E-02 -0.20073091390E-01  0.10206706777E+01  0.10204056234E+01 0.  0.
     999903    2    3    3    0    0  0.40828267882E-01  0.47016607658E-01 -0.11656876372E+00  0.13376730313E+00  0.20685885477E-01 0.  0.
         14    1    1    2    0    0 -0.11587563722E-01 -0.19481890986E-02  0.20073091390E-01  0.23259322254E-01  0.00000000000E+00 0.  1.
     999901    1    3    3    0    0 -0.29240704160E-01 -0.45068418560E-01  0.96495672326E-01  0.88690337462E+00  0.88000000000E+00 0. -1.
        -11    1    4    4    0    0  0.25791161957E-01  0.29226067832E-01 -0.91944762315E-01  0.99867149324E-01  0.51100000000E-03 0. -1.
         11    1    4    4    0    0  0.15037105925E-01  0.17790539827E-01 -0.24624001400E-01  0.33900153803E-01  0.51100000000E-03 0.  1.
</event>
<event>
 8    1  0.1106905E+005  0.1043930E+01  0.7957747E-01            NaN
         13   -1    0    0    0    0  0.00000000000E+00  0.00000000000E+00  0.74505805969E-08  0.10566000000E+00  0.10566000000E+00 0. -1.
     999900   -1    0    0    0    0 -0.00000000000E+00 -0.00000000000E+00 -0.74505805969E-08  0.93827000000E+00  0.93827000000E+00 0. -1.
     999902    2    1    2    0    0 -0.12610208700E-01 -0.20318445057E-01 -0.83513519438E-03  0.10200018989E+01  0.10197211970E+01 0.  0.
     999903    2    3    3    0    0 -0.12947705658E+00 -0.19818729791E-01 -0.45678499825E-02  0.13226768019E+00  0.17798419561E-01 0.  0.
         14    1    1    2    0    0  0.12610208700E-01  0.20318445057E-01  0.83513519438E-03  0.23928101132E-01  0.00000000000E+00 0.  1.
     999901    1    3    3    0    0  0.11686684788E+00 -0.49971526526E-03  0.37327147881E-02  0.88773421868E+00  0.88000000000E+00 0. -1.
        -11    1    4    4    0    0 -0.61483301553E-01 -0.10342390967E-02  0.10352098729E-02  0.61502835714E-01  0.51100000000E-03 0.  1.
         11    1    4    4    0    0 -0.67993755027E-01 -0.18784490695E-01 -0.56030598553E-02  0.70764844478E-01  0.51100000000E-03 0. -1.
</event>
<event>
 8    1  0.1106905E+005  0.1043930E+01  0.7957747E-01            NaN
         13   -1    0    0    0    0  0.00000000000E+00  0.00000000000E+00  0.74505805969E-08  0.10566000000E+00  0.10566000000E+00 0.  1.
     999900   -1    0    0    0    0 -0.00000000000E+00 -0.00000000000E+00 -0.74505805969E-08  0.93827000000E+00  0.93827000000E+00 0. -1.
     999902    2    1    2    0    0 -0.96944277554E-02  0.10466713189E-01 -0.18234455508E-01  0.10207776916E+01  0.10205150986E+01 0.  0.
     999903    2    3    3    0    0 -0.10362639364E+00 -0.62228834180E-01 -0.49721054853E-01  0.13223998127E+00  0.20109005134E-01 0.  0.
         14    1    1    2    0    0  0.96944277554E-02 -0.10466713189E-01  0.18234455508E-01  0.23152308354E-01  0.00000000000E+00 0.  1.
     999901    1    3    3    0    0  0.93931965888E-01  0.72695547369E-01  0.31486599345E-01  0.88853771038E+00  0.88000000000E+00 0.  1.
        -11    1    4    4    0    0 -0.31582938972E-01 -0.90900704189E-02 -0.16234360566E-01  0.36659609904E-01  0.51100000000E-03 0.  1.
         11    1    4    4    0    0 -0.72043454671E-01 -0.53138763761E-01 -0.33486694287E-01  0.95580371365E-01  0.51100000000E-03 0. -1.
</event>
<event>
 8    1  0.1106905E+005  0.1043930E+01  0.7957747E-01            NaN
         13   -1    0    0    0    0  0.00000000000E+00  0.00000000000E+00  0.74505805969E-08  0.10566000000E+00  0.10566000000E+00 0. -1.
     999900   -1    0    0    0    0 -0.00000000000E+00 -0.00000000000E+00 -0.74505805969E-08  0.93827000000E+00  0.93827000000E+00 0.  1.
     999902    2    1    2    0    0  0.97082338788E-02 -0.16022653686E-01 -0.14646767764E-01  0.10201496921E+01  0.10198724878E+01 0.  0.
     999903    2    3    3    0    0  0.61446462198E-01 -0.11384175575E+00 -0.24212884253E-01  0.13316776922E+00  0.20292311984E-01 0.  0.
         14    1    1    2    0    0 -0.97082338788E-02  0.16022653686E-01  0.14646767764E-01  0.23780307864E-01  0.00000000000E+00 0.  1.
     999901    1    3    3    0    0 -0.51738228319E-01  0.97819102064E-01  0.95661164892E-02  0.88698192292E+00  0.88000000000E+00 0. -1.
        -11    1    4    4    0    0  0.42612402228E-01 -0.63874041361E-01 -0.21308423171E-01  0.79687012759E-01  0.51100000000E-03 0.  1.
         11    1    4    4    0    0  0.18834059970E-01 -0.49967714389E-01 -0.29044610826E-02  0.53480756459E-01  0.51100000000E-03 0. -1.
</event>
<event>
 8    1  0.1106905E+005  0.1043930E+01  0.7957747E-01            NaN
         13   -1    0    0    0    0  0.00000000000E+00  0.00000000000E+00  0.74505805969E-08  0.10566000000E+00  0.10566000000E+00 0.  1.
     999900   -1    0    0    0    0 -0.00000000000E+00 -0.00000000000E+00 -0.74505805969E-08  0.93827000000E+00  0.93827000000E+00 0.  1.
     999902    2    1    2    0    0  0.15651413644E-01  0.11096222415E-01  0.15146047481E-01  0.10194862757E+01  0.10191931960E+01 0.  0.
     999903    2    3    3    0    0 -0.12421466107E+00 -0.10855813772E-01  0.21758955969E-01  0.12814563306E+00  0.20018001674E-01 0.  0.
         14    1    1    2    0    0 -0.15651413644E-01 -0.11096222415E-01 -0.15146047481E-01  0.24443724251E-01  0.00000000000E+00 0. -1.
     999901    1    3    3    0    0  0.13986607471E+00  0.21952036187E-01 -0.66129084874E-02  0.89134064269E+00  0.88000000000E+00 0.  1.
        -11    1    4    4    0    0 -0.69509279112E-01 -0.89018148271E-02  0.25316880648E-02  0.70124551730E-01  0.51100000000E-03 0. -1.
         11    1    4    4    0    0 -0.54705381956E-01 -0.19539989450E-02  0.19227267904E-01  0.58021081331E-01  0.51100000000E-03 0.  1.
</event>
<event>
 8    1  0.1106905E+005  0.1043930E+01  0.7957747E-01            NaN
         13   -1    0    0    0    0  0.00000000000E+00  0.00000000000E+00  0.74505805969E-08  0.10566000000E+00  0.10566000000E+00 0. -1.
     999900   -1    0    0    0    0 -0.00000000000E+00 -0.00000000000E+00 -0.74505805969E-08  0.93827000000E+00  0.93827000000E+00 0.  1.
     999902    2    1    2    0    0  0.12585038766E-01 -0.20275168718E-01  0.33444207778E-04  0.10200664968E+01  0.10197873264E+01 0.  0.
     999903    2    3    3    0    0  0.24751238034E-01 -0.94378319595E-01  0.87298522106E-01  0.13256748991E+00  0.20813851780E-01 0.  0.
         14    1    1    2    0    0 -0.12585038766E-01  0.20275168718E-01 -0.33444207778E-04  0.23863503218E-01  0.00000000000E+00 0. -1.
     999901    1    3    3    0    0 -0.12166199268E-01  0.74103150877E-01 -0.87265077899E-01  0.88749900687E+00  0.88000000000E+00 0.  1.
        -11    1    4    4    0    0  0.13969513768E-01 -0.67979769401E-01  0.72774031023E-01  0.10056200612E+00  0.51100000000E-03 0.  1.
         11    1    4    4    0    0  0.10781724266E-01 -0.26398550194E-01  0.14524491083E-01  0.32005483791E-01  0.51100000000E-03 0. -1.
</event>
<event>
 8    1  0.1106905E+005  0.1043930E+01  0.7957747E-01            NaN
         13   -1    0    0    0    0  0.00000000000E+00  0.00000000000E+00  0.74505805969E-08  0.10566000000E+00  0.10566000000E+00 0. -1.
     999900   -1    0    0    0    0 -0.00000000000E+00 -0.00000000000E+00 -0.74505805969E-08  0.93827000000E+00  0.93827000000E+00 0. -1.
     999902    2    1    2    0    0  0.21367916913E-01 -0.28297351854E-02 -0.13108613046E-02  0.10223357037E+01  0.10221076154E+01 0.  0.
     999903    2    3    3    0    0  0.11879555231E+00 -0.16191698240E-01  0.58884403886E-01  0.13481434840E+00  0.18247771729E-01 0.  0.
         14    1    1    2    0    0 -0.21367916913E-01  0.28297351854E-02  0.13108613046E-02  0.21594296279E-01  0.00000000000E+00 0.  1.
     999901    1    3    3    0    0 -0.97427635399E-01  0.13361963055E-01 -0.60195265190E-01  0.88752135532E+00  0.88000000000E+00 0.  1.
        -11    1    4    4    0    0  0.41445777477E-01 -0.14047141359E-01  0.18304451566E-01  0.47438262185E-01  0.51100000000E-03 0. -1.
         11    1    4    4    0    0  0.77349774835E-01 -0.21445568806E-02  0.40579952320E-01  0.87376086217E-01  0.51100000000E-03 0.  1.
</event>
<event>
 8    1  0.1106905E+005  0.1043930E+01  0.7957747E-01            NaN
         13   -1    0    0    0    0  0.00000000000E+00  0.00000000000E+00  0.74505805969E-08  0.10566000000E+00  0.10566000000E+00 0. -1.
     999900   -1    0    0    0    0 -0.00000000000E+00 -0.00000000000E+00 -0.74505805969E-08  0.93827000000E+00  0.93827000000E+00 0.  1.
     999902    2    1    2    0    0 -0.21606286059E-01 -0.86604797028E-03 -0.12236796949E-01  0.10190840580E+01  0.10187811327E+01 0.  0.
     999903    2    3    3    0    0 -0.68699199644E-02  0.10634681845E+00 -0.72309953522E-01  0.13042183678E+00  0.20598168286E-01 0.  0.
         14    1    1    2    0    0  0.21606286059E-01  0.86604797028E-03  0.12236796949E-01  0.24845942041E-01  0.00000000000E+00 0.  1.
     999901    1    3    3    0    0 -0.14736366094E-01 -0.10721286642E+00  0.60073156573E-01  0.88866222118E+00  0.88000000000E+00 0. -1.
        -11    1    4    4    0    0 -0.11442471420E-01  0.66270698454E-01 -0.53374269857E-01  0.85859241958E-01  0.51100000000E-03 0.  1.
         11    1    4    4    0    0  0.45725514556E-02  0.40076119991E-01 -0.18935683665E-01  0.44562594822E-01  0.51100000000E-03 0. -1.
</event>
<event>
 8    1  0.1106905E+005  0.1043930E+01  0.7957747E-01            NaN
         13   -1    0    0    0    0  0.00000000000E+00  0.00000000000E+00  0.74505805969E-08  0.10566000000E+00  0.10566000000E+00 0. -1.
     999900   -1    0    0    0    0 -0.00000000000E+00 -0.00000000000E+00 -0.74505805969E-08  0.93827000000E+00  0.93827000000E+00 0.  1.
     999902    2    1    2    0    0 -0.18327986856E-03  0.17889849352E-02  0.23691958276E-01  0.10201698875E+01  0.10198931593E+01 0.  0.
     999903    2    3    3    0    0  0.96694274412E-01  0.13453666342E-01  0.87159770081E-01  0.13250469812E+00  0.20733684232E-01 0.  0.
         14    1    1    2    0    0  0.18327986856E-03 -0.17889849352E-02 -0.23691958276E-01  0.23760112490E-01  0.00000000000E+00 0.  1.
     999901    1    3    3    0    0 -0.96877554281E-01 -0.11664681407E-01 -0.63467811805E-01  0.88766518939E+00  0.88000000000E+00 0.  1.
        -11    1    4    4    0    0  0.28070431822E-01  0.55705154375E-02  0.38657179847E-01  0.48100087938E-01  0.51100000000E-03 0. -1.
         11    1    4    4    0    0  0.68623842590E-01  0.78831509045E-02  0.48502590234E-01  0.84404610184E-01  0.51100000000E-03 0.  1.
</event>
<event>
 8    1  0.1106905E+005  0.1043930E+01  0.7957747E-01            NaN
         13   -1    0    0    0    0  0.00000000000E+00  0.00000000000E+00  0.74505805969E-08  0.10566000000E+00  0.10566000000E+00 0. -1.
     999900   -1    0    0    0    0 -0.00000000000E+00 -0.00000000000E+00 -0.74505805969E-08  0.93827000000E+00  0.93827000000E+00 0.  1.
     999902    2    1    2    0    0  0.16016461087E-01  0.13464359771E-01  0.11811337583E-01  0.10199024386E+01  0.10196193705E+01 0.  0.
     999903    2    3    3    0    0 -0.83277038137E-01 -0.35319688959E-01 -0.87476881760E-01  0.12743550205E+00  0.20126023704E-01 0.  0.
         14    1    1    2    0    0 -0.16016461087E-01 -0.13464359771E-01 -0.11811337583E-01  0.24027561368E-01  0.00000000000E+00 0.  1.
     999901    1    3    3    0    0  0.99293499224E-01  0.48784048731E-01  0.99288219343E-01  0.89246693659E+00  0.88000000000E+00 0. -1.
        -11    1    4    4    0    0 -0.48987582657E-01 -0.10303449309E-01 -0.43605085727E-01  0.66389825610E-01  0.51100000000E-03 0. -1.
         11    1    4    4    0    0 -0.34289455480E-01 -0.25016239650E-01 -0.43871796032E-01  0.61045676435E-01  0.51100000000E-03 0.  1.
</event>
<event>
 8    1  0.1106905E+005  0.1043930E+01  0.7957747E-01            NaN
         13   -1    0    0    0    0  0.00000000000E+00  0.00000000000E+00  0.74505805969E-08  0.10566000000E+00  0.10566000000E+00 0. -1.
     999900   -1    0    0    0    0 -0.00000000000E+00 -0.00000000000E+00 -0.74505805969E-08  0.93827000000E+00  0.93827000000E+00 0. -1.
     999902    2    1    2    0    0 -0.11755314310E-01  0.11368465585E-01  0.15908095692E-01  0.10211155981E+01  0.10208606995E+01 0.  0.
     999903    2    3    3    0    0  0.43565128898E-01  0.10598592786E+00 -0.60313137109E-01  0.13104678509E+00  0.20115864796E-01 0.  0.
         14    1    1    2    0    0  0.11755314310E-01 -0.11368465585E-01 -0.15908095692E-01  0.22814401873E-01  0.00000000000E+00 0.  1.
     999901    1    3    3    0    0 -0.55320443209E-01 -0.94617462270E-01  0.76221232800E-01  0.89006881303E+00  0.88000000000E+00 0. -1.
        -11    1    4    4    0    0  0.99090562874E-02  0.28383755526E-01 -0.26050360181E-01  0.39783279916E-01  0.51100000000E-03 0. -1.
         11    1    4    4    0    0  0.33656072611E-01  0.77602172329E-01 -0.34262776928E-01  0.91263505179E-01  0.51100000000E-03 0.  1.
</event>
<event>
 8    1  0.1106905E+005  0.1043930E+01  0.7957747E-01            NaN
         13   -1    0    0    0    0  0.00000000000E+00  0.00000000000E+00  0.74505805969E-08  0.10566000000E+00  0.10566000000E+00 0. -1.
     999900   -1    0    0    0    0 -0.00000000000E+00 -0.00000000000E+00 -0.74505805969E-08  0.93827000000E+00  0.93827000000E+00 0. -1.
     999902    2    1    2    0    0  0.10922145602E-01 -0.13421522643E-01  0.16255993619E-01  0.10201878884E+01  0.10199115843E+01 0.  0.
     999903    2    3    3    0    0  0.44645645500E-01 -0.26784843382E-01 -0.11688923443E+00  0.12943343035E+00  0.19474554430E-01 0.  0.
         14    1    1    2    0    0 -0.10922145602E-01  0.13421522643E-01 -0.16255993619E-01  0.23742111598E-01  0.00000000000E+00 0.  1.
     999901    1    3    3    0    0 -0.33723499898E-01  0.13363320740E-01  0.13314522805E+00  0.89075445805E+00  0.88000000000E+00 0.  1.
        -11    1    4    4    0    0  0.26246632205E-01 -0.26265639910E-01 -0.80377452547E-01  0.88541321093E-01  0.51100000000E-03 0.  1.
         11    1    4    4    0    0  0.18399013294E-01 -0.51920347253E-03 -0.36511781880E-01  0.40892109258E-01  0.51100000000E-03 0. -1.
</event>
<event>
 8    1  0.1106905E+005  0.1043930E+01  0.7957747E-01            NaN
         13   -1    0    0    0    0  0.00000000000E+00  0.00000000000E+00  0.74505805969E-08  0.10566000000E+00  0.10566000000E+00 0. -1.
     999900   -1    0    0    0    0 -0.00000000000E+00 -0.00000000000E+00 -0.74505805969E-08  0.93827000000E+00  0.93827000000E+00 0.  1.
     999902    2    1    2    0    0  0.19524596592E-01 -0.14339072608E-01  0.47825828708E-02  0.10192380585E+01  0.10189389226E+01 0.  0.
     999903    2    3    3    0    0  0.51814290512E-01 -0.12913062206E-01  0.11822973621E+00  0.13136705750E+00  0.20677654536E-01 0.  0.
         14    1    1    2    0    0 -0.19524596592E-01  0.14339072608E-01 -0.47825828708E-02  0.24691941484E-01  0.00000000000E+00 0.  1.
     999901    1    3    3    0    0 -0.32289693920E-01 -0.14260104028E-02 -0.11344715333E+00  0.88787100101E+00  0.88000000000E+00 0.  1.
        -11    1    4    4    0    0  0.94849379675E-02 -0.25519941917E-02  0.45734445662E-01  0.46780095806E-01  0.51100000000E-03 0.  1.
         11    1    4    4    0    0  0.42329352544E-01 -0.10361068014E-01  0.72495290543E-01  0.84586961697E-01  0.51100000000E-03 0. -1.
</event>
<event>
 8    1  0.1106905E+005  0.1043930E+01  0.7957747E-01            NaN
         13   -1    0    0    0    0  0.00000000000E+00  0.00000000000E+00  0.74505805969E-08  0.10566000000E+00  0.10566000000E+00 0. -1.
     999900   -1    0    0    0    0 -0.00000000000E+00 -0.00000000000E+00 -0.74505805969E-08  0.93827000000E+00  0.93827000000E+00 0.  1.
     999902    2    1    2    0    0  0.17577517251E-02  0.76969259169E-02  0.21577728664E-01  0.10209532567E+01  0.10206946760E+01 0.  0.
     999903    2    3    3    0    0  0.27057685837E-01 -0.11275552331E+00  0.58684406320E-01  0.13161317283E+00  0.20790414089E-01 0.  0.
         14    1    1    2    0    0 -0.17577517251E-02 -0.76969259169E-02 -0.21577728664E-01  0.22976743329E-01  0.00000000000E+00 0.  1.
     999901    1    3    3    0    0 -0.25299934112E-01  0.12045244923E+00 -0.37106677656E-01  0.88934008384E+00  0.88000000000E+00 0.  1.
        -11    1    4    4    0    0  0.99426904394E-02 -0.36552874537E-01  0.86535433858E-02  0.38860193827E-01  0.51100000000E-03 0.  1.
         11    1    4    4    0    0  0.17114995398E-01 -0.76202648776E-01  0.50030862934E-01  0.92752979008E-01  0.51100000000E-03 0. -1.
</event>
<event>
 8    1  0.1106905E+005  0.1043930E+01  0.7957747E-01            NaN
         13   -1    0    0    0    0  0.00000000000E+00  0.00000000000E+00  0.74505805969E-08  0.10566000000E+00  0.10566000000E+00 0. -1.
     999900   -1    0    0    0    0 -0.00000000000E+00 -0.00000000000E+00 -0.74505805969E-08  0.93827000000E+00  0.93827000000E+00 0.  1.
     999902    2    1    2    0    0 -0.10404530734E-01 -0.12555677619E-01  0.16987231201E-01  0.10203829126E+01  0.10201111817E+01 0.  0.
     999903    2    3    3    0    0 -0.56190686338E-02  0.44270834820E-01  0.12287003850E+00  0.13220313237E+00  0.19726659595E-01 0.  0.
         14    1    1    2    0    0  0.10404530734E-01  0.12555677619E-01 -0.16987231201E-01  0.23547087381E-01  0.00000000000E+00 0. -1.
     999901    1    3    3    0    0 -0.47854621004E-02 -0.56826512439E-01 -0.10588280730E+00  0.88817978025E+00  0.88000000000E+00 0.  1.
        -11    1    4    4    0    0 -0.72101805872E-02  0.36695075774E-02  0.18298150617E-01  0.20013381197E-01  0.51100000000E-03 0. -1.
         11    1    4    4    0    0  0.15911119533E-02  0.40601327243E-01  0.10457188788E+00  0.11218975117E+00  0.51100000000E-03 0.  1.
</event>
<event>
 8    1  0.1106905E+005  0.1043930E+01  0.7957747E-01            NaN
         13   -1    0    0    0    0  0.00000000000E+00  0.00000000000E+00  0.74505805969E-08  0.10566000000E+00  0.10566000000E+00 0. -1.
     999900   -1    0    0    0    0 -0.00000000000E+00 -0.00000000000E+00 -0.74505805969E-08  0.93827000000E+00  0.93827000000E+00 0.  1.
     999902    2    1    2    0    0 -0.51051156776E-02 -0.19287649990E-01 -0.10008791907E-01  0.10216084507E+01  0.10213645652E+01 0.  0.
     999903    2    3    3    0    0  0.10421366838E+00 -0.35556692921E-01  0.68210796823E-01  0.13125257669E+00  0.21207522115E-01 0.  0.
         14    1    1    2    0    0  0.51051156776E-02  0.19287649990E-01  0.10008791907E-01  0.22321549312E-01  0.00000000000E+00 0.  1.
     999901    1    3    3    0    0 -0.10931878406E+00  0.16269042930E-01 -0.78219588731E-01  0.89035587400E+00  0.88000000000E+00 0.  1.
        -11    1    4    4    0    0  0.25501116654E-01 -0.73666252411E-03  0.10326546640E-01  0.27527228498E-01  0.51100000000E-03 0.  1.
         11    1    4    4    0    0  0.78712551730E-01 -0.34820030397E-01  0.57884250183E-01  0.10372534819E+00  0.51100000000E-03 0. -1.
</event>
<event>
 8    1  0.1106905E+005  0.1043930E+01  0.7957747E-01            NaN
         13   -1    0    0    0    0  0.00000000000E+00  0.00000000000E+00  0.74505805969E-08  0.10566000000E+00  0.10566000000E+00 0. -1.
     999900   -1    0    0    0    0 -0.00000000000E+00 -0.00000000000E+00 -0.74505805969E-08  0.93827000000E+00  0.93827000000E+00 0. -1.
     999902    2    1    2    0    0 -0.14010394599E-01 -0.64899497716E-02  0.17054388598E-01  0.10209242882E+01  0.10206650476E+01 0.  0.
     999903    2    3    3    0    0  0.15594860775E-01  0.10048462375E+00 -0.76867145261E-01  0.12899307726E+00  0.19755927439E-01 0.  0.
         14    1    1    2    0    0  0.14010394599E-01  0.64899497716E-02 -0.17054388598E-01  0.23005711797E-01  0.00000000000E+00 0.  1.
     999901    1    3    3    0    0 -0.29605255374E-01 -0.10697457352E+00  0.93921533859E-01  0.89193121094E+00  0.88000000000E+00 0.  1.
        -11    1    4    4    0    0  0.23463797315E-02  0.37964240259E-01 -0.40049195251E-01  0.55235751081E-01  0.51100000000E-03 0. -1.
         11    1    4    4    0    0  0.13248481043E-01  0.62520383489E-01 -0.36817950010E-01  0.73757326182E-01  0.51100000000E-03 0.  1.
</event>
<event>
 8    1  0.1106905E+005  0.1043930E+01  0.7957747E-01            NaN
         13   -1    0    0    0    0  0.00000000000E+00  0.00000000000E+00  0.74505805969E-08  0.10566000000E+00  0.10566000000E+00 0.  1.
     999900   -1    0    0    0    0 -0.00000000000E+00 -0.00000000000E+00 -0.74505805969E-08  0.93827000000E+00  0.93827000000E+00 0.  1.
     999902    2    1    2    0    0 -0.17008100507E-01  0.84888631458E-02 -0.10647079125E-01  0.10221424675E+01  0.10219102344E+01 0.  0.
     999903    2    3    3    0    0  0.82481523777E-01  0.37091325244E-01  0.91540123444E-01  0.13020160028E+00  0.19846771574E-01 0.  0.
         14    1    1    2    0    0  0.17008100507E-01 -0.84888631458E-02  0.10647079125E-01  0.21787532541E-01  0.00000000000E+00 0.  1.
     999901    1    3    3    0    0 -0.99489624283E-01 -0.28602462098E-01 -0.10218720257E+00  0.89194086718E+00  0.88000000000E+00 0.  1.
        -11    1    4    4    0    0  0.70121885663E-01  0.33245473318E-01  0.86733705501E-01  0.11638443683E+00  0.51100000000E-03 0.  1.
         11    1    4    4    0    0  0.12359638114E-01  0.38458519259E-02  0.48064179436E-02  0.13817163450E-01  0.51100000000E-03 0. -1.
</event>
<event>
 8    1  0.1106905E+005  0.1043930E+01  0.7957747E-01            NaN
         13   -1    0    0    0    0  0.00000000000E+00  0.00000000000E+00  0.74505805969E-08  0.10566000000E+00  0.10566000000E+00 0. -1.
     999900   -1    0    0    0    0 -0.00000000000E+00 -0.00000000000E+00 -0.74505805969E-08  0.93827000000E+00  0.93827000000E+00 0. -1.
     999902    2    1    2    0    0  0.21781390557E-01  0.41414428885E-02 -0.74329004119E-02  0.10205456349E+01  0.10202776898E+01 0.  0.
     999903    2    3    3    0    0 -0.10242884861E+00  0.65603624359E-01  0.36659313120E-01  0.12860959089E+00  0.20025410676E-01 0.  0.
         14    1    1    2    0    0 -0.21781390557E-01 -0.41414428885E-02  0.74329004119E-02  0.23384365126E-01  0.00000000000E+00 0.  1.
     999901    1    3    3    0    0  0.12421023917E+00 -0.61462181471E-01 -0.44092213532E-01  0.89193604399E+00  0.88000000000E+00 0. -1.
        -11    1    4    4    0    0 -0.62935885182E-01  0.50899341714E-01  0.20742565251E-01  0.83559462449E-01  0.51100000000E-03 0.  1.
         11    1    4    4    0    0 -0.39492963431E-01  0.14704282645E-01  0.15916747869E-01  0.45050128440E-01  0.51100000000E-03 0. -1.
</event>
<event>
 8    1  0.1106905E+005  0.1043930E+01  0.7957747E-01            NaN
         13   -1    0    0    0    0  0.00000000000E+00  0.00000000000E+00  0.74505805969E-08  0.10566000000E+00  0.10566000000E+00 0.  1.
     999900   -1    0    0    0    0 -0.00000000000E+00 -0.00000000000E+00 -0.74505805969E-08  0.93827000000E+00  0.93827000000E+00 0. -1.
     999902    2    1    2    0    0 -0.52141876225E-02  0.21521170651E-01 -0.13253335638E-01  0.10181230350E+01  0.10177959102E+01 0.  0.
     999903    2    3    3    0    0 -0.11209056135E+00  0.10022264673E-01  0.59145419033E-01  0.12863084063E+00  0.19569691786E-01 0.  0.
         14    1    1    2    0    0  0.52141876225E-02 -0.21521170651E-01  0.13253335638E-01  0.25806965035E-01  0.00000000000E+00 0.  1.
     999901    1    3    3    0    0  0.10687637373E+00  0.11498905978E-01 -0.72398754671E-01  0.88949219433E+00  0.88000000000E+00 0. -1.
        -11    1    4    4    0    0 -0.34247217334E-01  0.83676454913E-02  0.10366718488E-01  0.36750773589E-01  0.51100000000E-03 0.  1.
         11    1    4    4    0    0 -0.77843344015E-01  0.16546191821E-02  0.48778700545E-01  0.91880067044E-01  0.51100000000E-03 0. -1.
</event>
<event>
 8    1  0.1106905E+005  0.1043930E+01  0.7957747E-01            NaN
         13   -1    0    0    0    0  0.00000000000E+00  0.00000000000E+00  0.74505805969E-08  0.10566000000E+00  0.10566000000E+00 0. -1.
     999900   -1    0    0    0    0 -0.00000000000E+00 -0.00000000000E+00 -0.74505805969E-08  0.93827000000E+00  0.93827000000E+00 0. -1.
     999902    2    1    2    0    0 -0.17568601406E-01  0.10386143219E-01  0.12766772871E-01  0.10198568154E+01  0.10195726584E+01 0.  0.
     999903    2    3    3    0    0 -0.30469721225E-01 -0.11784565207E+00 -0.37864501762E-01  0.12902947065E+00  0.19972034930E-01 0.  0.
         14    1    1    2    0    0  0.17568601406E-01 -0.10386143219E-01 -0.12766772871E-01  0.24073184581E-01  0.00000000000E+00 0.  1.
     999901    1    3    3    0    0  0.12901119818E-01  0.12823179529E+00  0.50631274633E-01  0.89082734477E+00  0.88000000000E+00 0.  1.
        -11    1    4    4    0    0 -0.14536563229E-01 -0.87769784548E-01 -0.23039081234E-01  0.91901616608E-01  0.51100000000E-03 0.  1.
         11    1    4    4    0    0 -0.15933157996E-01 -0.30075867523E-01 -0.14825420529E-01  0.37127854043E-01  0.51100000000E-03 0. -1.
</event>
<event>
 8    1  0.1106905E+005  0.1043930E+01  0.7957747E-01            NaN
         13   -1    0    0    0    0  0.00000000000E+00  0.00000000000E+00  0.74505805969E-08  0.10566000000E+00  0.10566000000E+00 0. -1.
     999900   -1    0    0    0    0 -0.00000000000E+00 -0.00000000000E+00 -0.74505805969E-08  0.93827000000E+00  0.93827000000E+00 0.  1.
     999902    2    1    2    0    0  0.10656795502E-01 -0.80779262268E-03  0.21819340595E-01  0.10196338389E+01  0.10193443295E+01 0.  0.
     999903    2    3    3    0    0 -0.10248495964E+00 -0.75525349806E-01  0.94770500724E-02  0.12916424245E+00  0.19655575086E-01 0.  0.
         14    1    1    2    0    0 -0.10656795502E-01  0.80779262268E-03 -0.21819340595E-01  0.24296161081E-01  0.00000000000E+00 0.  1.
     999901    1    3    3    0    0  0.11314175515E+00  0.74717557183E-01  0.12342290522E-01  0.89046959647E+00  0.88000000000E+00 0. -1.
        -11    1    4    4    0    0 -0.25848679065E-01 -0.24824865228E-01 -0.48292962010E-02  0.36166439772E-01  0.51100000000E-03 0. -1.
         11    1    4    4    0    0 -0.76636280579E-01 -0.50700484578E-01  0.14306346273E-01  0.92997802673E-01  0.51100000000E-03 0.  1.
</event>
<event>
 8    1  0.1106905E+005  0.1043930E+01  0.7957747E-01            NaN
         13   -1    0    0    0    0  0.00000000000E+00  0.00000000000E+00  0.74505805969E-08  0.10566000000E+00  0.10566000000E+00 0. -1.
     999900   -1    0    0    0    0 -0.00000000000E+00 -0.00000000000E+00 -0.74505805969E-08  0.93827000000E+00  0.93827000000E+00 0.  1.
     999902    2    1    2    0    0  0.81202989938E-02 -0.20605576474E-02 -0.21909989344E-01  0.10204729587E+01  0.10202033261E+01 0.  0.
     999903    2    3    3    0    0 -0.72541389149E-02 -0.94641527081E-01  0.85093972758E-01  0.12903734288E+00  0.20000261960E-01 0.  0.
         14    1    1    2    0    0 -0.81202989938E-02  0.20605576474E-02  0.21909989344E-01  0.23457041302E-01  0.00000000000E+00 0. -1.
     999901    1    3    3    0    0  0.15374437909E-01  0.92580969434E-01 -0.10700396210E+00  0.89143561582E+00  0.88000000000E+00 0.  1.
        -11    1    4    4    0    0 -0.75968500688E-02 -0.72074490121E-01  0.75037893522E-01  0.10432349133E+00  0.51100000000E-03 0.  1.
         11    1    4    4    0    0  0.34271115390E-03 -0.22567036960E-01  0.10056079235E-01  0.24713851555E-01  0.51100000000E-03 0. -1.
</event>
<event>
 8    1  0.1106905E+005  0.1043930E+01  0.7957747E-01            NaN
         13   -1    0    0    0    0  0.00000000000E+00  0.00000000000E+00  0.74505805969E-08  0.10566000000E+00  0.10566000000E+00 0.  1.
     999900   -1    0    0    0    0 -0.00000000000E+00 -0.00000000000E+00 -0.74505805969E-08  0.93827000000E+00  0.93827000000E+00 0.  1.
     999902    2    1    2    0    0  0.89748139786E-02  0.88678014757E-02  0.21631947057E-01  0.10188875097E+01  0.10185797126E+01 0.  0.
     999903    2    3    3    0    0 -0.46534641427E-01  0.18972693910E-01 -0.11460335596E+00  0.12661879101E+00  0.19311993007E-01 0.  0.
         14    1    1    2    0    0 -0.89748139786E-02 -0.88678014757E-02 -0.21631947057E-01  0.25042490340E-01  0.00000000000E+00 0. -1.
     999901    1    3    3    0    0  0.55509455405E-01 -0.10104892434E-01  0.13623530301E+00  0.89226871865E+00  0.88000000000E+00 0. -1.
        -11    1    4    4    0    0 -0.35353459813E-01  0.16730997493E-01 -0.10370422746E+00  0.11083601090E+00  0.51100000000E-03 0.  1.
         11    1    4    4    0    0 -0.11181181614E-01  0.22416964168E-02 -0.10899128495E-01  0.15782780112E-01  0.51100000000E-03 0. -1.
</event>
<event>
 8    1  0.1106905E+005  0.1043930E+01  0.7957747E-01            NaN
         13   -1    0    0    0    0  0.00000000000E+00  0.00000000000E+00  0.74505805969E-08  0.10566000000E+00  0.10566000000E+00 0.  1.
     999900   -1    0    0    0    0 -0.00000000000E+00 -0.00000000000E+00 -0.74505805969E-08  0.93827000000E+00  0.93827000000E+00 0.  1.
     999902    2    1    2    0    0 -0.15462443089E-01  0.51047383933E-02 -0.16732425679E-01  0.10205822042E+01  0.10203151062E+01 0.  0.
     999903    2    3    3    0    0  0.90002428096E-01  0.86130777082E-01  0.23903102603E-01  0.12966172280E+00  0.26867382090E-01 0.  0.
         14    1    1    2    0    0  0.15462443089E-01 -0.51047383933E-02  0.16732425679E-01  0.23347795816E-01  0.00000000000E+00 0. -1.
     999901    1    3    3    0    0 -0.10546487118E+00 -0.81026038688E-01 -0.40635528283E-01  0.89092048139E+00  0.88000000000E+00 0. -1.
        -11    1    4    4    0    0  0.37429431249E-01  0.27890691059E-01  0.20893031819E-01  0.51143258314E-01  0.51100000000E-03 0.  1.
         11    1    4    4    0    0  0.52572996847E-01  0.58240086023E-01  0.30100707837E-02  0.78518464481E-01  0.51100000000E-03 0. -1.
</event>
<event>
 8    1  0.1106905E+005  0.1043930E+01  0.7957747E-01            NaN
         13   -1    0    0    0    0  0.00000000000E+00  0.00000000000E+00  0.74505805969E-08  0.10566000000E+00  0.10566000000E+00 0. -1.
     999900   -1    0    0    0    0 -0.00000000000E+00 -0.00000000000E+00 -0.74505805969E-08  0.93827000000E+00  0.93827000000E+00 0.  1.
     999902    2    1    2    0    0 -0.25383463938E-01  0.11804542217E-01  0.19437331409E-02  0.10158685397E+01  0.10154808931E+01 0.  0.
     999903    2    3    3    0    0 -0.55755093193E-01 -0.10541579277E+00 -0.37766900064E-01  0.12668915551E+00  0.20066977820E-01 0.  0.
         14    1    1    2    0    0  0.25383463938E-01 -0.11804542217E-01 -0.19437331409E-02  0.28061460350E-01  0.00000000000E+00 0.  1.
     999901    1    3    3    0    0  0.30371629255E-01  0.11722033499E+00  0.39710633205E-01  0.88917938415E+00  0.88000000000E+00 0.  1.
        -11    1    4    4    0    0 -0.37385987007E-01 -0.49311219828E-01 -0.20058825134E-01  0.65053255200E-01  0.51100000000E-03 0. -1.
         11    1    4    4    0    0 -0.18369106186E-01 -0.56104572947E-01 -0.17708074930E-01  0.61635900305E-01  0.51100000000E-03 0.  1.
</event>
<event>
 8    1  0.1106905E+005  0.1043930E+01  0.7957747E-01            NaN
         13   -1    0    0    0    0  0.00000000000E+00  0.00000000000E+00  0.74505805969E-08  0.10566000000E+00  0.10566000000E+00 0. -1.
     999900   -1    0    0    0    0 -0.00000000000E+00 -0.00000000000E+00 -0.74505805969E-08  0.93827000000E+00  0.93827000000E+00 0. -1.
     999902    2    1    2    0    0  0.61734700971E-02 -0.21693057925E-01  0.49351607925E-02  0.10208419878E+01  0.10205808678E+01 0.  0.
     999903    2    3    3    0    0  0.96120669610E-03 -0.12774480824E+00  0.35105910673E-01  0.13394604375E+00  0.19734683193E-01 0.  0.
         14    1    1    2    0    0 -0.61734700971E-02  0.21693057925E-01 -0.49351607925E-02  0.23088012197E-01  0.00000000000E+00 0. -1.
     999901    1    3    3    0    0  0.52122634010E-02  0.10605175031E+00 -0.30170749881E-01  0.88689594406E+00  0.88000000000E+00 0.  1.
        -11    1    4    4    0    0 -0.79073634496E-02 -0.67890006797E-01  0.23885497270E-01  0.72404126405E-01  0.51100000000E-03 0.  1.
         11    1    4    4    0    0  0.88685701457E-02 -0.59854801442E-01  0.11220413403E-01  0.61541917342E-01  0.51100000000E-03 0. -1.
</event>
<event>
 8    1  0.1106905E+005  0.1043930E+01  0.7957747E-01            NaN
         13   -1    0    0    0    0  0.00000000000E+00  0.00000000000E+00  0.74505805969E-08  0.10566000000E+00  0.10566000000E+00 0. -1.
     999900   -1    0    0    0    0 -0.00000000000E+00 -0.00000000000E+00 -0.74505805969E-08  0.93827000000E+00  0.93827000000E+00 0. -1.
     999902    2    1    2    0    0 -0.12806278311E-01  0.12832056193E-01 -0.14725935247E-01  0.10205737246E+01  0.10203064303E+01 0.  0.
     999903    2    3    3    0    0  0.11078883525E+00  0.65354391027E-01 -0.47638698935E-02  0.13033016779E+00  0.20442498314E-01 0.  0.
         14    1    1    2    0    0  0.12806278311E-01 -0.12832056193E-01  0.14725935247E-01  0.23356275371E-01  0.00000000000E+00 0. -1.
     999901    1    3    3    0    0 -0.12359511356E+00 -0.52522334834E-01 -0.99620653534E-02  0.89024355684E+00  0.88000000000E+00 0. -1.
        -11    1    4    4    0    0  0.47424166712E-01  0.24181943955E-01 -0.11495267727E-01  0.54463017754E-01  0.51100000000E-03 0. -1.
         11    1    4    4    0    0  0.63364668534E-01  0.41172447073E-01  0.67313978330E-02  0.75867150034E-01  0.51100000000E-03 0.  1.
</event>
<event>
 8    1  0.1106905E+005  0.1043930E+01  0.7957747E-01            NaN
         13   -1    0    0    0    0  0.00000000000E+00  0.00000000000E+00  0.74505805969E-08  0.10566000000E+00  0.10566000000E+00 0.  1.
     999900   -1    0    0    0    0 -0.00000000000E+00 -0.00000000000E+00 -0.74505805969E-08  0.93827000000E+00  0.93827000000E+00 0. -1.
     999902    2    1    2    0    0  0.18091417060E-01 -0.49160882758E-02 -0.14625448130E-01  0.10201524680E+01  0.10198753291E+01 0.  0.
     999903    2    3    3    0    0  0.45130928098E-02 -0.12778009899E+00 -0.23460978174E-01  0.13146917086E+00  0.19636794192E-01 0.  0.
         14    1    1    2    0    0 -0.18091417060E-01  0.49160882758E-02  0.14625448130E-01  0.23777532003E-01  0.00000000000E+00 0.  1.
     999901    1    3    3    0    0  0.13578324250E-01  0.12286401071E+00  0.88355300447E-02  0.88868329714E+00  0.88000000000E+00 0.  1.
        -11    1    4    4    0    0  0.34082822619E-02 -0.59920720972E-01 -0.20886355331E-01  0.63550060187E-01  0.51100000000E-03 0. -1.
         11    1    4    4    0    0  0.11048105478E-02 -0.67859378015E-01 -0.25746228431E-02  0.67919110674E-01  0.51100000000E-03 0.  1.
</event>
<event>
 8    1  0.1181369E+005  0.1043930E+01  0.7957747E-01            NaN
         13   -1    0    0    0    0  0.00000000000E+00  0.00000000000E+00  0.74505805969E-08  0.10566000000E+00  0.10566000000E+00 0.  1.
     999900   -1    0    0    0    0 -0.00000000000E+00 -0.00000000000E+00 -0.74505805969E-08  0.93827000000E+00  0.93827000000E+00 0. -1.
     999902    2    1    2    0    0 -0.16766412661E-01  0.73142919856E-03  0.16939898853E-01  0.10200845024E+01  0.10198057581E+01 0.  0.
     999903    2    3    3    0    0 -0.30193686890E-01  0.12006277959E+00  0.39388236269E-01  0.13164531443E+00  0.21267954419E-01 0.  0.
         14    1    1    2    0    0  0.16766412661E-01 -0.73142919856E-03 -0.16939898853E-01  0.23845497591E-01  0.00000000000E+00 0. -1.
     999901    1    3    3    0    0  0.13427274229E-01 -0.11933135039E+00 -0.22448337416E-01  0.88843918798E+00  0.88000000000E+00 0.  1.
        -11    1    4    4    0    0 -0.96850898397E-02  0.42212929430E-01  0.24534883754E-01  0.49779052001E-01  0.51100000000E-03 0. -1.
         11    1    4    4    0    0 -0.20508597050E-01  0.77849850159E-01  0.14853352515E-01  0.81866262433E-01  0.51100000000E-03 0.  1.
</event>
<event>
 8    1  0.1106905E+005  0.1043930E+01  0.7957747E-01            NaN
         13   -1    0    0    0    0  0.00000000000E+00  0.00000000000E+00  0.74505805969E-08  0.10566000000E+00  0.10566000000E+00 0. -1.
     999900   -1    0    0    0    0 -0.00000000000E+00 -0.00000000000E+00 -0.74505805969E-08  0.93827000000E+00  0.93827000000E+00 0.  1.
     999902    2    1    2    0    0  0.16683377642E-01 -0.19239733211E-01  0.49912287803E-03  0.10184593984E+01  0.10181408520E+01 0.  0.
     999903    2    3    3    0    0  0.42702051498E-01  0.77759127540E-01 -0.90081753795E-01  0.12812763684E+00  0.20785135014E-01 0.  0.
         14    1    1    2    0    0 -0.16683377642E-01  0.19239733211E-01 -0.49912287803E-03  0.25470601627E-01  0.00000000000E+00 0.  1.
     999901    1    3    3    0    0 -0.26018673856E-01 -0.96998860751E-01  0.90580876673E-01  0.89033176153E+00  0.88000000000E+00 0.  1.
        -11    1    4    4    0    0  0.28337468961E-01  0.46407203499E-01 -0.40827711559E-01  0.67998557602E-01  0.51100000000E-03 0.  1.
         11    1    4    4    0    0  0.14364582537E-01  0.31351924041E-01 -0.49254042235E-01  0.60129079238E-01  0.51100000000E-03 0. -1.
</event>
<event>
 8    1  0.1106905E+005  0.1043930E+01  0.7957747E-01            NaN
         13   -1    0    0    0    0  0.00000000000E+00  0.00000000000E+00  0.74505805969E-08  0.10566000000E+00  0.10566000000E+00 0.  1.
     999900   -1    0    0    0    0 -0.00000000000E+00 -0.00000000000E+00 -0.74505805969E-08  0.93827000000E+00  0.93827000000E+00 0.  1.
     999902    2    1    2    0    0  0.62969747376E-02 -0.56493924774E-03  0.22736728869E-01  0.10203306380E+01  0.10200576851E+01 0.  0.
     999903    2    3    3    0    0  0.63278886988E-01  0.83972063691E-01 -0.72604660655E-01  0.12932927787E+00  0.19977496022E-01 0.  0.
         14    1    1    2    0    0 -0.62969747376E-02  0.56493924774E-03 -0.22736728869E-01  0.23599362001E-01  0.00000000000E+00 0. -1.
     999901    1    3    3    0    0 -0.56981912250E-01 -0.84537002939E-01  0.95341389524E-01  0.89100136013E+00  0.88000000000E+00 0. -1.
        -11    1    4    4    0    0  0.44027767955E-01  0.43367513324E-01 -0.46661027297E-01  0.77438350656E-01  0.51100000000E-03 0. -1.
         11    1    4    4    0    0  0.19251119033E-01  0.40604550368E-01 -0.25943633359E-01  0.51890927217E-01  0.51100000000E-03 0.  1.
</event>
<event>
 8    1  0.1106905E+005  0.1043930E+01  0.7957747E-01            NaN
         13   -1    0    0    0    0  0.00000000000E+00  0.00000000000E+00  0.74505805969E-08  0.10566000000E+00  0.10566000000E+00 0.  1.
     999900   -1    0    0    0    0 -0.00000000000E+00 -0.00000000000E+00 -0.74505805969E-08  0.93827000000E+00  0.93827000000E+00 0. -1.
     999902    2    1    2    0    0 -0.10071731989E-01 -0.96999907973E-02 -0.19412539001E-01  0.10200056133E+01  0.10197249997E+01 0.  0.
     999903    2    3    3    0    0 -0.46487277855E-01 -0.52157934785E-01 -0.11192325949E+00  0.13339013727E+00  0.19611107635E-01 0.  0.
         14    1    1    2    0    0  0.10071731989E-01  0.96999907973E-02  0.19412539001E-01  0.23924386663E-01  0.00000000000E+00 0.  1.
     999901    1    3    3    0    0  0.36415545866E-01  0.42457943988E-01  0.92510720493E-01  0.88661547606E+00  0.88000000000E+00 0.  1.
        -11    1    4    4    0    0 -0.29071517048E-01 -0.41536403074E-01 -0.66757190118E-01  0.83828452433E-01  0.51100000000E-03 0. -1.
         11    1    4    4    0    0 -0.17415760807E-01 -0.10621531711E-01 -0.45166069376E-01  0.49561684841E-01  0.51100000000E-03 0.  1.
</event>
<event>
 8    1  0.1106905E+005  0.1043930E+01  0.7957747E-01            NaN
         13   -1    0    0    0    0  0.00000000000E+00  0.00000000000E+00  0.74505805969E-08  0.10566000000E+00  0.10566000000E+00 0.  1.
     999900   -1    0    0    0    0 -0.00000000000E+00 -0.00000000000E+00 -0.74505805969E-08  0.93827000000E+00  0.93827000000E+00 0. -1.
     999902    2    1    2    0    0 -0.35562357127E-02 -0.92802273026E-02 -0.14581779990E-01  0.10262835347E+01  0.10261318121E+01 0.  0.
     999903    2    3    3    0    0  0.10540188006E+00  0.15915305534E-01 -0.83023922623E-01  0.13656952850E+00  0.19884946994E-01 0.  0.
         14    1    1    2    0    0  0.35562357127E-02  0.92802273026E-02  0.14581779990E-01  0.17646465338E-01  0.00000000000E+00 0.  1.
     999901    1    3    3    0    0 -0.10895811577E+00 -0.25195532836E-01  0.68442142633E-01  0.88971400616E+00  0.88000000000E+00 0.  1.
        -11    1    4    4    0    0  0.11751776160E-01 -0.40993699364E-02 -0.12416225506E-01  0.17587860973E-01  0.51100000000E-03 0. -1.
         11    1    4    4    0    0  0.93650103901E-01  0.20014675470E-01 -0.70607697117E-01  0.11898166753E+00  0.51100000000E-03 0.  1.
</event>
<event>
 8    1  0.1106905E+005  0.1043930E+01  0.7957747E-01            NaN
         13   -1    0    0    0    0  0.00000000000E+00  0.00000000000E+00  0.74505805969E-08  0.10566000000E+00  0.10566000000E+00 0.  1.
     999900   -1    0    0    0    0 -0.00000000000E+00 -0.00000000000E+00 -0.74505805969E-08  0.93827000000E+00  0.93827000000E+00 0.  1.
     999902    2    1    2    0    0  0.39722990939E-03  0.74601500641E-02  0.22838282486E-01  0.10199008765E+01  0.10196177711E+01 0.  0.
     999903    2    3    3    0    0  0.51047748770E-01  0.99503011317E-01  0.68055767287E-01  0.13249905976E+00  0.20437501352E-01 0.  0.
         14    1    1    2    0    0 -0.39722990939E-03 -0.74601500641E-02 -0.22838282486E-01  0.24029123527E-01  0.00000000000E+00 0. -1.
     999901    1    3    3    0    0 -0.50650518861E-01 -0.92042861252E-01 -0.45217484802E-01  0.88740181671E+00  0.88000000000E+00 0.  1.
        -11    1    4    4    0    0  0.47482336697E-02  0.25676832948E-01  0.20650392651E-01  0.33294824085E-01  0.51100000000E-03 0.  1.
         11    1    4    4    0    0  0.46299515101E-01  0.73826178369E-01  0.47405374636E-01  0.99204235678E-01  0.51100000000E-03 0. -1.
</event>
<event>
 8    1  0.1106905E+005  0.1043930E+01  0.7957747E-01            NaN
         13   -1    0    0    0    0  0.00000000000E+00  0.00000000000E+00  0.74505805969E-08  0.10566000000E+00  0.10566000000E+00 0.  1.
     999900   -1    0    0    0    0 -0.00000000000E+00 -0.00000000000E+00 -0.74505805969E-08  0.93827000000E+00  0.93827000000E+00 0.  1.
     999902    2    1    2    0    0  0.98679807431E-02  0.20105004106E-01 -0.51141062241E-03  0.10215279962E+01  0.10212823298E+01 0.  0.
     999903    2    3    3    0    0 -0.64772743943E-01  0.63508995216E-01 -0.93670522530E-01  0.13240833925E+00  0.22997840760E-01 0.  0.
         14    1    1    2    0    0 -0.98679807431E-02 -0.20105004106E-01  0.51141062241E-03  0.22402003814E-01  0.00000000000E+00 0.  1.
     999901    1    3    3    0    0  0.74640724686E-01 -0.43403991110E-01  0.93159111908E-01  0.88911965694E+00  0.88000000000E+00 0. -1.
        -11    1    4    4    0    0 -0.62436127260E-01  0.52729882772E-01 -0.76181087003E-01  0.11172524183E+00  0.51100000000E-03 0.  1.
         11    1    4    4    0    0 -0.23366166827E-02  0.10779112443E-01 -0.17489435527E-01  0.20683097414E-01  0.51100000000E-03 0. -1.
</event>
<event>
 8    1  0.1106905E+005  0.1043930E+01  0.7957747E-01            NaN
         13   -1    0    0    0    0  0.00000000000E+00  0.00000000000E+00  0.74505805969E-08  0.10566000000E+00  0.10566000000E+00 0.  1.
     999900   -1    0    0    0    0 -0.00000000000E+00 -0.00000000000E+00 -0.74505805969E-08  0.93827000000E+00  0.93827000000E+00 0. -1.
     999902    2    1    2    0    0  0.11881027525E-01 -0.20273652110E-01 -0.82305105284E-02  0.10190317854E+01  0.10187275684E+01 0.  0.
     999903    2    3    3    0    0  0.67368517728E-01  0.24836087809E-01 -0.10707138157E+00  0.13061562845E+00  0.20995552066E-01 0.  0.
         14    1    1    2    0    0 -0.11881027525E-01  0.20273652110E-01  0.82305105284E-02  0.24898214564E-01  0.00000000000E+00 0.  1.
     999901    1    3    3    0    0 -0.55487490203E-01 -0.45109739919E-01  0.98840871038E-01  0.88841615699E+00  0.88000000000E+00 0.  1.
        -11    1    4    4    0    0  0.48239442241E-01  0.20355721650E-01 -0.60168604642E-01  0.79761653050E-01  0.51100000000E-03 0. -1.
         11    1    4    4    0    0  0.19129075487E-01  0.44803661586E-02 -0.46902776924E-01  0.50853975401E-01  0.51100000000E-03 0.  1.
</event>
<event>
 8    1  0.1106905E+005  0.1043930E+01  0.7957747E-01            NaN
         13   -1    0    0    0    0  0.00000000000E+00  0.00000000000E+00  0.74505805969E-08  0.10566000000E+00  0.10566000000E+00 0.  1.
     999900   -1    0    0    0    0 -0.00000000000E+00 -0.00000000000E+00 -0.74505805969E-08  0.93827000000E+00  0.93827000000E+00 0. -1.
     999902    2    1    2    0    0 -0.84074053532E-02 -0.21337655257E-01  0.44951461429E-02  0.10205593702E+01  0.10202917435E+01 0.  0.
     999903    2    3    3    0    0  0.11238214072E+00 -0.64644116360E-01 -0.45610961359E-02  0.13120703312E+00  0.19643691310E-01 0.  0.
         14    1    1    2    0    0  0.84074053532E-02  0.21337655257E-01 -0.44951461429E-02  0.23370629762E-01  0.00000000000E+00 0.  1.
     999901    1    3    3    0    0 -0.12078954608E+00  0.43306461103E-01  0.90562422788E-02  0.88935233712E+00  0.88000000000E+00 0.  1.
        -11    1    4    4    0    0  0.10217987141E+00 -0.51505429940E-01 -0.26905954048E-02  0.11445975650E+00  0.51100000000E-03 0. -1.
         11    1    4    4    0    0  0.10202269315E-01 -0.13138686420E-01 -0.18705007310E-02  0.16747276614E-01  0.51100000000E-03 0.  1.
</event>
<event>
 8    1  0.1106905E+005  0.1043930E+01  0.7957747E-01            NaN
         13   -1    0    0    0    0  0.00000000000E+00  0.00000000000E+00  0.74505805969E-08  0.10566000000E+00  0.10566000000E+00 0.  1.
     999900   -1    0    0    0    0 -0.00000000000E+00 -0.00000000000E+00 -0.74505805969E-08  0.93827000000E+00  0.93827000000E+00 0.  1.
     999902    2    1    2    0    0 -0.21948434167E-01  0.38258229635E-02 -0.16726914559E-02  0.10215879191E+01  0.10213435797E+01 0.  0.
     999903    2    3    3    0    0  0.67626576071E-01 -0.10246786747E+00 -0.37437152002E-01  0.12995956166E+00  0.20369822376E-01 0.  0.
         14    1    1    2    0    0  0.21948434167E-01 -0.38258229635E-02  0.16726914559E-02  0.22342080934E-01  0.00000000000E+00 0.  1.
     999901    1    3    3    0    0 -0.89575010238E-01  0.10629369043E+00  0.35764460546E-01  0.89162835740E+00  0.88000000000E+00 0.  1.
        -11    1    4    4    0    0  0.17329268133E-01 -0.27535802929E-01 -0.19533230549E-01  0.37951708705E-01  0.51100000000E-03 0.  1.
         11    1    4    4    0    0  0.50297307938E-01 -0.74932064539E-01 -0.17903921454E-01  0.92007852960E-01  0.51100000000E-03 0. -1.
</event>
<event>
 8    1  0.1106905E+005  0.1043930E+01  0.7957747E-01            NaN
         13   -1    0    0    0    0  0.00000000000E+00  0.00000000000E+00  0.74505805969E-08  0.10566000000E+00  0.10566000000E+00 0. -1.
     999900   -1    0    0    0    0 -0.00000000000E+00 -0.00000000000E+00 -0.74505805969E-08  0.93827000000E+00  0.93827000000E+00 0.  1.
     999902    2    1    2    0    0  0.14033112574E-01 -0.81088796013E-02  0.17703227233E-01  0.10199281994E+01  0.10196457451E+01 0.  0.
     999903    2    3    3    0    0 -0.80304892496E-01  0.34253497648E-01 -0.90453579112E-01  0.12729606636E+00  0.20006515834E-01 0.  0.
         14    1    1    2    0    0 -0.14033112574E-01  0.81088796013E-02 -0.17703227233E-01  0.24001800586E-01  0.00000000000E+00 0.  1.
     999901    1    3    3    0    0  0.94338005070E-01 -0.42362377250E-01  0.10815680635E+00  0.89263213306E+00  0.88000000000E+00 0. -1.
        -11    1    4    4    0    0 -0.72944742548E-01  0.34216531205E-01 -0.74578778050E-01  0.10979053570E+00  0.51100000000E-03 0. -1.
         11    1    4    4    0    0 -0.73601499480E-02  0.36966443344E-04 -0.15874801063E-01  0.17505530656E-01  0.51100000000E-03 0.  1.
</event>
<event>
 8    1  0.1106905E+005  0.1043930E+01  0.7957747E-01            NaN
         13   -1    0    0    0    0  0.00000000000E+00  0.00000000000E+00  0.74505805969E-08  0.10566000000E+00  0.10566000000E+00 0. -1.
     999900   -1    0    0    0    0 -0.00000000000E+00 -0.00000000000E+00 -0.74505805969E-08  0.93827000000E+00  0.93827000000E+00 0.  1.
     999902    2    1    2    0    0 -0.11405458244E-01  0.21047105021E-01  0.23969352753E-02  0.10198715211E+01  0.10195877153E+01 0.  0.
     999903    2    3    3    0    0 -0.67908423619E-01 -0.77236864260E-01  0.76400435244E-01  0.12951830934E+00  0.18996808930E-01 0.  0.
         14    1    1    2    0    0  0.11405458244E-01 -0.21047105021E-01 -0.23969352753E-02  0.24058478884E-01  0.00000000000E+00 0.  1.
     999901    1    3    3    0    0  0.56502965375E-01  0.98283969280E-01 -0.74003499969E-01  0.89035321178E+00  0.88000000000E+00 0.  1.
        -11    1    4    4    0    0 -0.20415886814E-01 -0.11768882031E-01  0.14569516871E-01  0.27710051633E-01  0.51100000000E-03 0.  1.
         11    1    4    4    0    0 -0.47492536805E-01 -0.65467982228E-01  0.61830918373E-01  0.10180825771E+00  0.51100000000E-03 0. -1.
</event>
<event>
 8    1  0.1106905E+005  0.1043930E+01  0.7957747E-01            NaN
         13   -1    0    0    0    0  0.00000000000E+00  0.00000000000E+00  0.74505805969E-08  0.10566000000E+00  0.10566000000E+00 0. -1.
     999900   -1    0    0    0    0 -0.00000000000E+00 -0.00000000000E+00 -0.74505805969E-08  0.93827000000E+00  0.93827000000E+00 0. -1.
     999902    2    1    2    0    0  0.56788446788E-02 -0.98612305652E-02  0.20612324862E-01  0.10203851262E+01  0.10201134470E+01 0.  0.
     999903    2    3    3    0    0  0.29914449569E-01 -0.90976516357E-01  0.90892635776E-01  0.13353317903E+00  0.19950885734E-01 0.  0.
         14    1    1    2    0    0 -0.56788446788E-02  0.98612305652E-02 -0.20612324862E-01  0.23544873781E-01  0.00000000000E+00 0.  1.
     999901    1    3    3    0    0 -0.24235604890E-01  0.81115285792E-01 -0.70280310913E-01  0.88685194719E+00  0.88000000000E+00 0. -1.
        -11    1    4    4    0    0  0.26188076198E-01 -0.62773191999E-01  0.53453538849E-01  0.86509137698E-01  0.51100000000E-03 0.  1.
         11    1    4    4    0    0  0.37263733704E-02 -0.28203324358E-01  0.37439096926E-01  0.47024041330E-01  0.51100000000E-03 0. -1.
</event>
<event>
 8    1  0.1106905E+005  0.1043930E+01  0.7957747E-01            NaN
         13   -1    0    0    0    0  0.00000000000E+00  0.00000000000E+00  0.74505805969E-08  0.10566000000E+00  0.10566000000E+00 0.  1.
     999900   -1    0    0    0    0 -0.00000000000E+00 -0.00000000000E+00 -0.74505805969E-08  0.93827000000E+00  0.93827000000E+00 0.  1.
     999902    2    1    2    0    0  0.19763836126E-01  0.27108958649E-02 -0.13313290735E-01  0.10199466332E+01  0.10196646177E+01 0.  0.
     999903    2    3    3    0    0 -0.63540069926E-01 -0.84297820469E-01  0.69347771793E-01  0.12790240290E+00  0.20160560338E-01 0.  0.
         14    1    1    2    0    0 -0.19763836126E-01 -0.27108958649E-02  0.13313290735E-01  0.23983366840E-01  0.00000000000E+00 0. -1.
     999901    1    3    3    0    0  0.83303906051E-01  0.87008716334E-01 -0.82661062528E-01  0.89204423026E+00  0.88000000000E+00 0. -1.
        -11    1    4    4    0    0 -0.38738111084E-01 -0.40418726792E-01  0.27437100478E-01  0.62348779695E-01  0.51100000000E-03 0.  1.
         11    1    4    4    0    0 -0.24801958842E-01 -0.43879093677E-01  0.41910671315E-01  0.65553623205E-01  0.51100000000E-03 0. -1.
</event>
<event>
 8    1  0.1106905E+005  0.1043930E+01  0.7957747E-01            NaN
         13   -1    0    0    0    0  0.00000000000E+00  0.00000000000E+00  0.74505805969E-08  0.10566000000E+00  0.10566000000E+00 0. -1.
     999900   -1    0    0    0    0 -0.00000000000E+00 -0.00000000000E+00 -0.74505805969E-08  0.93827000000E+00  0.93827000000E+00 0. -1.
     999902    2    1    2    0    0 -0.11103195181E-01 -0.11715975845E-01  0.17965446951E-01  0.10197783475E+01  0.10194923128E+01 0.  0.
     999903    2    3    3    0    0 -0.23739745744E-01  0.11899156418E+00  0.41305730261E-01  0.12972839822E+00  0.20018143718E-01 0.  0.
         14    1    1    2    0    0  0.11103195181E-01  0.11715975845E-01 -0.17965446951E-01  0.24151652477E-01  0.00000000000E+00 0.  1.
     999901    1    3    3    0    0  0.12636550563E-01 -0.13070754003E+00 -0.23340283309E-01  0.89004994930E+00  0.88000000000E+00 0. -1.
        -11    1    4    4    0    0 -0.90630487297E-02  0.90198247677E-01  0.30245690754E-01  0.95566341703E-01  0.51100000000E-03 0.  1.
         11    1    4    4    0    0 -0.14676697014E-01  0.28793316504E-01  0.11060039506E-01  0.34162056517E-01  0.51100000000E-03 0. -1.
</event>
<event>
 8    1  0.1106905E+005  0.1043930E+01  0.7957747E-01            NaN
         13   -1    0    0    0    0  0.00000000000E+00  0.00000000000E+00  0.74505805969E-08  0.10566000000E+00  0.10566000000E+00 0. -1.
     999900   -1    0    0    0    0 -0.00000000000E+00 -0.00000000000E+00 -0.74505805969E-08  0.93827000000E+00  0.93827000000E+00 0. -1.
     999902    2    1    2    0    0 -0.10307116151E-01 -0.21329525072E-01  0.36243475285E-02  0.10199650010E+01  0.10196834225E+01 0.  0.
     999903    2    3    3    0    0 -0.21822275278E-01 -0.10433623311E+00 -0.76336410852E-01  0.13237476030E+00  0.18263852426E-01 0.  0.
         14    1    1    2    0    0  0.10307116151E-01  0.21329525072E-01 -0.36243475285E-02  0.23964999022E-01  0.00000000000E+00 0.  1.
     999901    1    3    3    0    0  0.11515159128E-01  0.83006708034E-01  0.79960758380E-01  0.88759024068E+00  0.88000000000E+00 0.  1.
        -11    1    4    4    0    0 -0.18270139557E-01 -0.43220303016E-01 -0.33094236120E-01  0.57421965986E-01  0.51100000000E-03 0. -1.
         11    1    4    4    0    0 -0.35521357214E-02 -0.61115930089E-01 -0.43242174731E-01  0.74952794313E-01  0.51100000000E-03 0.  1.
</event>
<event>
 8    1  0.1106905E+005  0.1043930E+01  0.7957747E-01            NaN
         13   -1    0    0    0    0  0.00000000000E+00  0.00000000000E+00  0.74505805969E-08  0.10566000000E+00  0.10566000000E+00 0. -1.
     999900   -1    0    0    0    0 -0.00000000000E+00 -0.00000000000E+00 -0.74505805969E-08  0.93827000000E+00  0.93827000000E+00 0.  1.
     999902    2    1    2    0    0  0.10994428726E-01  0.12220539574E-01  0.16282051337E-01  0.10207929249E+01  0.10205306812E+01 0.  0.
     999903    2    3    3    0    0 -0.64246278196E-01 -0.22977323184E-01 -0.10684988716E+00  0.12834599209E+00  0.20006340444E-01 0.  0.
         14    1    1    2    0    0 -0.10994428726E-01 -0.12220539574E-01 -0.16282051337E-01  0.23137075145E-01  0.00000000000E+00 0.  1.
     999901    1    3    3    0    0  0.75240706921E-01  0.35197862758E-01  0.12313193849E+00  0.89244693276E+00  0.88000000000E+00 0. -1.
        -11    1    4    4    0    0 -0.29543497151E-01 -0.14112755941E-01 -0.68173683760E-01  0.75630023024E-01  0.51100000000E-03 0. -1.
         11    1    4    4    0    0 -0.34702781044E-01 -0.88645672431E-02 -0.38676203398E-01  0.52715969069E-01  0.51100000000E-03 0.  1.
</event>
<event>
 8    1  0.1106905E+005  0.1043930E+01  0.7957747E-01            NaN
         13   -1    0    0    0    0  0.00000000000E+00  0.00000000000E+00  0.74505805969E-08  0.10566000000E+00  0.10566000000E+00 0.  1.
     999900   -1    0    0    0    0 -0.00000000000E+00 -0.00000000000E+00 -0.74505805969E-08  0.93827000000E+00  0.93827000000E+00 0.  1.
     999902    2    1    2    0    0  0.46415347853E-02  0.77712098627E-02  0.25280888151E-01  0.10170774609E+01  0.10167229233E+01 0.  0.
     999903    2    3    3    0    0  0.23848381685E-01  0.82923059682E-01 -0.89897926659E-01  0.12618865594E+00  0.19923868480E-01 0.  0.
         14    1    1    2    0    0 -0.46415347853E-02 -0.77712098627E-02 -0.25280888151E-01  0.26852539053E-01  0.00000000000E+00 0. -1.
     999901    1    3    3    0    0 -0.19206846899E-01 -0.75151849820E-01  0.11517881481E+00  0.89088880500E+00  0.88000000000E+00 0. -1.
        -11    1    4    4    0    0  0.20359385198E-01  0.54237129263E-01 -0.47714859252E-01  0.75054244855E-01  0.51100000000E-03 0.  1.
         11    1    4    4    0    0  0.34889964868E-02  0.28685930419E-01 -0.42183067407E-01  0.51134411088E-01  0.51100000000E-03 0. -1.
</event>
<event>
 8    1  0.1106905E+005  0.1043930E+01  0.7957747E-01            NaN
         13   -1    0    0    0    0  0.00000000000E+00  0.00000000000E+00  0.74505805969E-08  0.10566000000E+00  0.10566000000E+00 0.  1.
     999900   -1    0    0    0    0 -0.00000000000E+00 -0.00000000000E+00 -0.74505805969E-08  0.93827000000E+00  0.93827000000E+00 0. -1.
     999902    2    1    2    0    0  0.76792677819E-02 -0.21317811080E-01 -0.87493569816E-02  0.10196406717E+01  0.10193513270E+01 0.  0.
     999903    2    3    3    0    0  0.56129311151E-01 -0.72540332164E-01  0.91326168217E-01  0.13116655044E+00  0.21250778599E-01 0.  0.
         14    1    1    2    0    0 -0.76792677819E-02  0.21317811080E-01  0.87493569816E-02  0.24289328325E-01  0.00000000000E+00 0.  1.
     999901    1    3    3    0    0 -0.48450043369E-01  0.51222521084E-01 -0.10007552520E+00  0.88847412124E+00  0.88000000000E+00 0. -1.
        -11    1    4    4    0    0  0.21102140011E-01 -0.19439189974E-01  0.41036605166E-01  0.50074409677E-01  0.51100000000E-03 0. -1.
         11    1    4    4    0    0  0.35027171140E-01 -0.53101142190E-01  0.50289563051E-01  0.81092140758E-01  0.51100000000E-03 0.  1.
</event>
<event>
 8    1  0.1106905E+005  0.1043930E+01  0.7957747E-01            NaN
         13   -1    0    0    0    0  0.00000000000E+00  0.00000000000E+00  0.74505805969E-08  0.10566000000E+00  0.10566000000E+00 0.  1.
     999900   -1    0    0    0    0 -0.00000000000E+00 -0.00000000000E+00 -0.74505805969E-08  0.93827000000E+00  0.93827000000E+00 0.  1.
     999902    2    1    2    0    0 -0.11850693732E-01 -0.10222978942E-01  0.22468019147E-01  0.10165482520E+01  0.10161794076E+01 0.  0.
     999903    2    3    3    0    0 -0.96302708780E-01  0.13781704580E-01  0.83845387961E-01  0.13005203141E+00  0.20477663251E-01 0.  0.
         14    1    1    2    0    0  0.11850693732E-01  0.10222978942E-01 -0.22468019147E-01  0.27381748022E-01  0.00000000000E+00 0. -1.
     999901    1    3    3    0    0  0.84452015048E-01 -0.24004683522E-01 -0.61377368814E-01  0.88649622057E+00  0.88000000000E+00 0.  1.
        -11    1    4    4    0    0 -0.19008835682E-01 -0.34178063224E-05  0.27403861596E-01  0.33355188457E-01  0.51100000000E-03 0. -1.
         11    1    4    4    0    0 -0.77293873098E-01  0.13785122387E-01  0.56441526366E-01  0.96696842954E-01  0.51100000000E-03 0.  1.
</event>
<event>
 8    1  0.1106905E+005  0.1043930E+01  0.7957747E-01            NaN
         13   -1    0    0    0    0  0.00000000000E+00  0.00000000000E+00  0.74505805969E-08  0.10566000000E+00  0.10566000000E+00 0. -1.
     999900   -1    0    0    0    0 -0.00000000000E+00 -0.00000000000E+00 -0.74505805969E-08  0.93827000000E+00  0.93827000000E+00 0.  1.
     999902    2    1    2    0    0 -0.65238982142E-02  0.13920651765E-01  0.18740538483E-01  0.10196904955E+01  0.10194023510E+01 0.  0.
     999903    2    3    3    0    0  0.93832876957E-01  0.76746357080E-01 -0.42273807628E-01  0.12966729248E+00  0.18218666363E-01 0.  0.
         14    1    1    2    0    0  0.65238982142E-02 -0.13920651765E-01 -0.18740538483E-01  0.24239504453E-01  0.00000000000E+00 0.  1.
     999901    1    3    3    0    0 -0.10035677517E+00 -0.62825705315E-01  0.61014346111E-01  0.89002320307E+00  0.88000000000E+00 0.  1.
        -11    1    4    4    0    0  0.44552000607E-01  0.28616851623E-01 -0.25473638569E-01  0.58761997395E-01  0.51100000000E-03 0.  1.
         11    1    4    4    0    0  0.49280876350E-01  0.48129505457E-01 -0.16800169059E-01  0.70905295083E-01  0.51100000000E-03 0. -1.
</event>
<event>
 8    1  0.1106905E+005  0.1043930E+01  0.7957747E-01            NaN
         13   -1    0    0    0    0  0.00000000000E+00  0.00000000000E+00  0.74505805969E-08  0.10566000000E+00  0.10566000000E+00 0. -1.
     999900   -1    0    0    0    0 -0.00000000000E+00 -0.00000000000E+00 -0.74505805969E-08  0.93827000000E+00  0.93827000000E+00 0. -1.
     999902    2    1    2    0    0  0.14348874794E-03 -0.21866987277E-01  0.12515148989E-01  0.10187344711E+01  0.10184228532E+01 0.  0.
     999903    2    3    3    0    0 -0.11440095666E+00  0.51478484211E-01 -0.15011841211E-01  0.12785977546E+00  0.19625330158E-01 0.  0.
         14    1    1    2    0    0 -0.14348874794E-03  0.21866987277E-01 -0.12515148989E-01  0.25195528885E-01  0.00000000000E+00 0.  1.
     999901    1    3    3    0    0  0.11454444541E+00 -0.73345471488E-01  0.27526990200E-01  0.89087469565E+00  0.88000000000E+00 0.  1.
        -11    1    4    4    0    0 -0.88443656175E-01  0.48112457493E-01 -0.14074528033E-01  0.10166337760E+00  0.51100000000E-03 0.  1.
         11    1    4    4    0    0 -0.25957300484E-01  0.33660267177E-02 -0.93731317735E-03  0.26196397869E-01  0.51100000000E-03 0. -1.
</event>
<event>
 8    1  0.1106905E+005  0.1043930E+01  0.7957747E-01            NaN
         13   -1    0    0    0    0  0.00000000000E+00  0.00000000000E+00  0.74505805969E-08  0.10566000000E+00  0.10566000000E+00 0.  1.
     999900   -1    0    0    0    0 -0.00000000000E+00 -0.00000000000E+00 -0.74505805969E-08  0.93827000000E+00  0.93827000000E+00 0. -1.
     999902    2    1    2    0    0 -0.51909429102E-02 -0.17999817233E-01 -0.14797214511E-01  0.10200574872E+01  0.10197781035E+01 0.  0.
     999903    2    3    3    0    0 -0.27490932661E-01  0.12311494651E+00 -0.14414250595E-01  0.12853585948E+00  0.20016371257E-01 0.  0.
         14    1    1    2    0    0  0.51909429102E-02  0.17999817233E-01  0.14797214511E-01  0.23872512771E-01  0.00000000000E+00 0. -1.
     999901    1    3    3    0    0  0.22299989751E-01 -0.14111476374E+00 -0.38296391562E-03  0.89152162775E+00  0.88000000000E+00 0.  1.
        -11    1    4    4    0    0 -0.54336445693E-02  0.25705562921E-01 -0.11314916473E-01  0.28610992890E-01  0.51100000000E-03 0. -1.
         11    1    4    4    0    0 -0.22057288092E-01  0.97409383590E-01 -0.30993341224E-02  0.99924866587E-01  0.51100000000E-03 0.  1.
</event>
<event>
 8    1  0.1106905E+005  0.1043930E+01  0.7957747E-01            NaN
         13   -1    0    0    0    0  0.00000000000E+00  0.00000000000E+00  0.74505805969E-08  0.10566000000E+00  0.10566000000E+00 0. -1.
     999900   -1    0    0    0    0 -0.00000000000E+00 -0.00000000000E+00 -0.74505805969E-08  0.93827000000E+00  0.93827000000E+00 0. -1.
     999902    2    1    2    0    0  0.70207207688E-02  0.76241520208E-02  0.19529760189E-01  0.10218205055E+01  0.10215812820E+01 0.  0.
     999903    2    3    3    0    0 -0.59414281586E-02 -0.67024900710E-02  0.13256936226E+00  0.13437967839E+00  0.20075811629E-01 0.  0.
         14    1    1    2    0    0 -0.70207207688E-02 -0.76241520208E-02 -0.19529760189E-01  0.22109494503E-01  0.00000000000E+00 0.  1.
     999901    1    3    3    0    0  0.12962148927E-01  0.14326642092E-01 -0.11303960207E+00  0.88744082711E+00  0.88000000000E+00 0. -1.
        -11    1    4    4    0    0  0.41593775945E-02 -0.90777617051E-02  0.40062985664E-01  0.41291768197E-01  0.51100000000E-03 0. -1.
         11    1    4    4    0    0 -0.10100805753E-01  0.23752716341E-02  0.92506376597E-01  0.93087910194E-01  0.51100000000E-03 0.  1.
</event>
<event>
 8    1  0.1106905E+005  0.1043930E+01  0.7957747E-01            NaN
         13   -1    0    0    0    0  0.00000000000E+00  0.00000000000E+00  0.74505805969E-08  0.10566000000E+00  0.10566000000E+00 0. -1.
     999900   -1    0    0    0    0 -0.00000000000E+00 -0.00000000000E+00 -0.74505805969E-08  0.93827000000E+00  0.93827000000E+00 0. -1.
     999902    2    1    2    0    0 -0.77065906932E-02 -0.22565204223E-01 -0.10994432337E-02  0.10200597516E+01  0.10197804215E+01 0.  0.
     999903    2    3    3    0    0  0.45751346012E-01  0.11446383350E+00  0.25722733384E-01  0.12744889726E+00  0.19657252087E-01 0.  0.
         14    1    1    2    0    0  0.77065906932E-02  0.22565204223E-01  0.10994432337E-02  0.23870248368E-01  0.00000000000E+00 0.  1.
     999901    1    3    3    0    0 -0.53457936705E-01 -0.13702903772E+00 -0.26822176617E-01  0.89261085437E+00  0.88000000000E+00 0. -1.
        -11    1    4    4    0    0  0.10240740034E-01  0.23768763339E-01 -0.25939403554E-02  0.26015697467E-01  0.51100000000E-03 0. -1.
         11    1    4    4    0    0  0.35510605978E-01  0.90695070161E-01  0.28316673739E-01  0.10143319980E+00  0.51100000000E-03 0.  1.
</event>
<event>
 8    1  0.1106905E+005  0.1043930E+01  0.7957747E-01            NaN
         13   -1    0    0    0    0  0.00000000000E+00  0.00000000000E+00  0.74505805969E-08  0.10566000000E+00  0.10566000000E+00 0. -1.
     999900   -1    0    0    0    0 -0.00000000000E+00 -0.00000000000E+00 -0.74505805969E-08  0.93827000000E+00  0.93827000000E+00 0. -1.
     999902    2    1    2    0    0  0.13079290130E-01  0.43293203733E-02 -0.18003159903E-01  0.10212600946E+01  0.10210084506E+01 0.  0.
     999903    2    3    3    0    0 -0.24855113469E-02  0.11520370492E+00 -0.63495560076E-01  0.13300058821E+00  0.19478165204E-01 0.  0.
         14    1    1    2    0    0 -0.13079290130E-01 -0.43293203733E-02  0.18003159903E-01  0.22669905419E-01  0.00000000000E+00 0.  1.
     999901    1    3    3    0    0  0.15564801477E-01 -0.11087438455E+00  0.45492400173E-01  0.88825950638E+00  0.88000000000E+00 0.  1.
        -11    1    4    4    0    0  0.46322422221E-02  0.93390843956E-01 -0.55272450499E-01  0.10862141735E+00  0.51100000000E-03 0. -1.
         11    1    4    4    0    0 -0.71177535690E-02  0.21812860963E-01 -0.82231095773E-02  0.24379170851E-01  0.51100000000E-03 0.  1.
</event>
<event>
 8    1  0.1106905E+005  0.1043930E+01  0.7957747E-01            NaN
         13   -1    0    0    0    0  0.00000000000E+00  0.00000000000E+00  0.74505805969E-08  0.10566000000E+00  0.10566000000E+00 0. -1.
     999900   -1    0    0    0    0 -0.00000000000E+00 -0.00000000000E+00 -0.74505805969E-08  0.93827000000E+00  0.93827000000E+00 0.  1.
     999902    2    1    2    0    0  0.91080006057E-02 -0.13537051387E-01  0.17980409510E-01  0.10196503262E+01  0.10193612142E+01 0.  0.
     999903    2    3    3    0    0  0.66762807357E-01 -0.41791798207E-01  0.10542608029E+00  0.13298852322E+00  0.19169299967E-01 0.  0.
         14    1    1    2    0    0 -0.91080006057E-02  0.13537051387E-01 -0.17980409510E-01  0.24279673833E-01  0.00000000000E+00 0.  1.
     999901    1    3    3    0    0 -0.57654806752E-01  0.28254746820E-01 -0.87445670776E-01  0.88666180294E+00  0.88000000000E+00 0.  1.
        -11    1    4    4    0    0  0.20735102283E-01 -0.21347577501E-01  0.29743419583E-01  0.42078446517E-01  0.51100000000E-03 0.  1.
         11    1    4    4    0    0  0.46027705075E-01 -0.20444220706E-01  0.75682660704E-01  0.90910076707E-01  0.51100000000E-03 0. -1.
</event>
<event>
 8    1  0.1106905E+005  0.1043930E+01  0.7957747E-01            NaN
         13   -1    0    0    0    0  0.00000000000E+00  0.00000000000E+00  0.74505805969E-08  0.10566000000E+00  0.10566000000E+00 0.  1.
     999900   -1    0    0    0    0 -0.00000000000E+00 -0.00000000000E+00 -0.74505805969E-08  0.93827000000E+00  0.93827000000E+00 0.  1.
     999902    2    1    2    0    0  0.16575928662E-01 -0.98469600196E-02  0.14223884080E-01  0.10199708074E+01  0.10196893669E+01 0.  0.
     999903    2    3    3    0    0 -0.67177342935E-01 -0.44563060422E-01 -0.97368624968E-01  0.12830231169E+00  0.21958422051E-01 0.  0.
         14    1    1    2    0    0 -0.16575928662E-01  0.98469600196E-02 -0.14223884080E-01  0.23959192619E-01  0.00000000000E+00 0. -1.
     999901    1    3    3    0    0  0.83753271598E-01  0.34716100402E-01  0.11159250905E+00  0.89166849569E+00  0.88000000000E+00 0. -1.
        -11    1    4    4    0    0 -0.49255254697E-01 -0.38932014340E-01 -0.85494781622E-01  0.10607261975E+00  0.51100000000E-03 0.  1.
         11    1    4    4    0    0 -0.17922088238E-01 -0.56310460814E-02 -0.11873843346E-01  0.22229691937E-01  0.51100000000E-03 0. -1.
</event>
<event>
 8    1  0.1106905E+005  0.1043930E+01  0.7957747E-01            NaN
         13   -1    0    0    0    0  0.00000000000E+00  0.00000000000E+00  0.74505805969E-08  0.10566000000E+00  0.10566000000E+00 0.  1.
     999900   -1    0    0    0    0 -0.00000000000E+00 -0.00000000000E+00 -0.74505805969E-08  0.93827000000E+00  0.93827000000E+00 0. -1.
     999902    2    1    2    0    0 -0.12492746760E-01  0.25901375007E-02  0.20537450814E-01  0.10197522329E+01  0.10194655718E+01 0.  0.
     999903    2    3    3    0    0 -0.33181022552E-02 -0.12818554766E+00  0.39393581017E-02  0.12988597860E+00  0.20305281659E-01 0.  0.
         14    1    1    2    0    0  0.12492746760E-01 -0.25901375007E-02 -0.20537450814E-01  0.24177767056E-01  0.00000000000E+00 0. -1.
     999901    1    3    3    0    0 -0.91746445048E-02  0.13077568516E+00  0.16598092713E-01  0.88986625434E+00  0.88000000000E+00 0. -1.
        -11    1    4    4    0    0 -0.48007088954E-02 -0.48254305627E-01  0.10674590732E-01  0.49656145901E-01  0.51100000000E-03 0. -1.
         11    1    4    4    0    0  0.14826066402E-02 -0.79931242036E-01 -0.67352326300E-02  0.80229832703E-01  0.51100000000E-03 0.  1.
</event>
<event>
 8    1  0.1106905E+005  0.1043930E+01  0.7957747E-01            NaN
         13   -1    0    0    0    0  0.00000000000E+00  0.00000000000E+00  0.74505805969E-08  0.10566000000E+00  0.10566000000E+00 0. -1.
     999900   -1    0    0    0    0 -0.00000000000E+00 -0.00000000000E+00 -0.74505805969E-08  0.93827000000E+00  0.93827000000E+00 0. -1.
     999902    2    1    2    0    0 -0.27074746536E-02  0.92276820972E-02 -0.21616955484E-01  0.10202704713E+01  0.10199961084E+01 0.  0.
     999903    2    3    3    0    0  0.11805833144E+00  0.69468928953E-02  0.48220887858E-01  0.12927838022E+00  0.20040374833E-01 0.  0.
         14    1    1    2    0    0  0.27074746536E-02 -0.92276820972E-02  0.21616955484E-01  0.23659528742E-01  0.00000000000E+00 0. -1.
     999901    1    3    3    0    0 -0.12076580610E+00  0.22807892019E-02 -0.69837843342E-01  0.89099209103E+00  0.88000000000E+00 0. -1.
        -11    1    4    4    0    0  0.40586931977E-01 -0.38601396207E-02  0.89210290287E-02  0.41737819842E-01  0.51100000000E-03 0.  1.
         11    1    4    4    0    0  0.77471399466E-01  0.10807032516E-01  0.39299858829E-01  0.87540560383E-01  0.51100000000E-03 0. -1.
</event>
<event>
 8    1  0.1106905E+005  0.1043930E+01  0.7957747E-01            NaN
         13   -1    0    0    0    0  0.00000000000E+00  0.00000000000E+00  0.74505805969E-08  0.10566000000E+00  0.10566000000E+00 0. -1.
     999900   -1    0    0    0    0 -0.00000000000E+00 -0.00000000000E+00 -0.74505805969E-08  0.93827000000E+00  0.93827000000E+00 0. -1.
     999902    2    1    2    0    0 -0.12019670004E-02 -0.15848606373E-01 -0.18964531618E-01  0.10191857783E+01  0.10188853587E+01 0.  0.
     999903    2    3    3    0    0 -0.43732858101E-01  0.11785321238E+00  0.82168223021E-02  0.12765682248E+00  0.20659274254E-01 0.  0.
         14    1    1    2    0    0  0.12019670004E-02  0.15848606373E-01  0.18964531618E-01  0.24744221712E-01  0.00000000000E+00 0. -1.
     999901    1    3    3    0    0  0.42530891101E-01 -0.13370181875E+00 -0.27181353920E-01  0.89152895580E+00  0.88000000000E+00 0.  1.
        -11    1    4    4    0    0 -0.39601308189E-01  0.10728715208E+00  0.13451080337E-01  0.11515202688E+00  0.51100000000E-03 0. -1.
         11    1    4    4    0    0 -0.41315499120E-02  0.10566060298E-01 -0.52342580353E-02  0.12504795603E-01  0.51100000000E-03 0.  1.
</event>
<event>
 8    1  0.1106905E+005  0.1043930E+01  0.7957747E-01            NaN
         13   -1    0    0    0    0  0.00000000000E+00  0.00000000000E+00  0.74505805969E-08  0.10566000000E+00  0.10566000000E+00 0. -1.
     999900   -1    0    0    0    0 -0.00000000000E+00 -0.00000000000E+00 -0.74505805969E-08  0.93827000000E+00  0.93827000000E+00 0.  1.
     999902    2    1    2    0    0  0.14509441109E-01 -0.12663044871E-01 -0.15113121697E-01  0.10194497420E+01  0.10191557748E+01 0.  0.
     999903    2    3    3    0    0 -0.51900093751E-01  0.11496389445E+00 -0.59306242663E-02  0.12771930050E+00  0.19150212976E-01 0.  0.
         14    1    1    2    0    0 -0.14509441109E-01  0.12663044871E-01  0.15113121697E-01  0.24480258049E-01  0.00000000000E+00 0. -1.
     999901    1    3    3    0    0  0.66409534860E-01 -0.12762693932E+00 -0.91824974303E-02  0.89173044146E+00  0.88000000000E+00 0. -1.
        -11    1    4    4    0    0 -0.44999399092E-01  0.79714169292E-01 -0.67400558816E-02  0.91787712570E-01  0.51100000000E-03 0. -1.
         11    1    4    4    0    0 -0.69006946590E-02  0.35249725155E-01  0.80943161533E-03  0.35931587925E-01  0.51100000000E-03 0.  1.
</event>
<event>
 8    1  0.1106905E+005  0.1043930E+01  0.7957747E-01            NaN
         13   -1    0    0    0    0  0.00000000000E+00  0.00000000000E+00  0.74505805969E-08  0.10566000000E+00  0.10566000000E+00 0. -1.
     999900   -1    0    0    0    0 -0.00000000000E+00 -0.00000000000E+00 -0.74505805969E-08  0.93827000000E+00  0.93827000000E+00 0. -1.
     999902    2    1    2    0    0 -0.91326810305E-02  0.57973177224E-02 -0.20042524195E-01  0.10211546288E+01  0.10209006115E+01 0.  0.
     999903    2    3    3    0    0 -0.12899146894E+00 -0.15333233245E-01  0.13164955229E-01  0.13215779762E+00  0.20456302820E-01 0.  0.
         14    1    1    2    0    0  0.91326810305E-02 -0.57973177224E-02  0.20042524195E-01  0.22775371165E-01  0.00000000000E+00 0. -1.
     999901    1    3    3    0    0  0.11985878791E+00  0.21130550968E-01 -0.33207479425E-01  0.88899683122E+00  0.88000000000E+00 0. -1.
        -11    1    4    4    0    0 -0.51747412996E-01 -0.11711398060E-01  0.13802878431E-01  0.54824558094E-01  0.51100000000E-03 0.  1.
         11    1    4    4    0    0 -0.77244055941E-01 -0.36218351859E-02 -0.63792320183E-03  0.77333239525E-01  0.51100000000E-03 0. -1.
</event>
<event>
 8    1  0.1106905E+005  0.1043930E+01  0.7957747E-01            NaN
         13   -1    0    0    0    0  0.00000000000E+00  0.00000000000E+00  0.74505805969E-08  0.10566000000E+00  0.10566000000E+00 0.  1.
     999900   -1    0    0    0    0 -0.00000000000E+00 -0.00000000000E+00 -0.74505805969E-08  0.93827000000E+00  0.93827000000E+00 0. -1.
     999902    2    1    2    0    0 -0.29791212939E-02 -0.25820414383E-01 -0.63626138217E-02  0.10171708554E+01  0.10168188125E+01 0.  0.
     999903    2    3    3    0    0 -0.12406223704E+00  0.10834717419E-01  0.18561996129E-01  0.12777445575E+00  0.21747047662E-01 0.  0.
         14    1    1    2    0    0  0.29791212939E-02  0.25820414383E-01  0.63626138217E-02  0.26759144554E-01  0.00000000000E+00 0.  1.
     999901    1    3    3    0    0  0.12108311575E+00 -0.36655131802E-01 -0.24924609951E-01  0.88939639969E+00  0.88000000000E+00 0.  1.
        -11    1    4    4    0    0 -0.57183056145E-01  0.14610185504E-01  0.35722446521E-02  0.59130207876E-01  0.51100000000E-03 0. -1.
         11    1    4    4    0    0 -0.66879180894E-01 -0.37754680856E-02  0.14989751477E-01  0.68644247878E-01  0.51100000000E-03 0.  1.
</event>
<event>
 8    1  0.1106905E+005  0.1043930E+01  0.7957747E-01            NaN
         13   -1    0    0    0    0  0.00000000000E+00  0.00000000000E+00  0.74505805969E-08  0.10566000000E+00  0.10566000000E+00 0.  1.
     999900   -1    0    0    0    0 -0.00000000000E+00 -0.00000000000E+00 -0.74505805969E-08  0.93827000000E+00  0.93827000000E+00 0. -1.
     999902    2    1    2    0    0 -0.14097721203E-01 -0.26476978893E-01  0.14003420935E-01  0.10108260433E+01  0.10102838303E+01 0.  0.
     999903    2    3    3    0    0 -0.88454881180E-01 -0.26858603165E-01 -0.79247297849E-01  0.12278053235E+00  0.15788424238E-01 0.  0.
         14    1    1    2    0    0  0.14097721203E-01  0.26476978893E-01 -0.14003420935E-01  0.33103956747E-01  0.00000000000E+00 0.  1.
     999901    1    3    3    0    0  0.74357159977E-01  0.38162427212E-03  0.93250718784E-01  0.88804551090E+00  0.88000000000E+00 0.  1.
        -11    1    4    4    0    0 -0.31578470183E-01 -0.19028315389E-02 -0.25314638219E-01  0.40520520433E-01  0.51100000000E-03 0. -1.
         11    1    4    4    0    0 -0.56876410997E-01 -0.24955771626E-01 -0.53932659630E-01  0.82260011920E-01  0.51100000000E-03 0.  1.
</event>
<event>
 8    1  0.1106905E+005  0.1043930E+01  0.7957747E-01            NaN
         13   -1    0    0    0    0  0.00000000000E+00  0.00000000000E+00  0.74505805969E-08  0.10566000000E+00  0.10566000000E+00 0.  1.
     999900   -1    0    0    0    0 -0.00000000000E+00 -0.00000000000E+00 -0.74505805969E-08  0.93827000000E+00  0.93827000000E+00 0.  1.
     999902    2    1    2    0    0 -0.17376062798E-01 -0.14881688316E-01 -0.66464646290E-02  0.10201063207E+01  0.10198280922E+01 0.  0.
     999903    2    3    3    0    0  0.49510245908E-01  0.27127773985E-01  0.11350829830E+00  0.12843612363E+00  0.20603968018E-01 0.  0.
         14    1    1    2    0    0  0.17376062798E-01  0.14881688316E-01  0.66464646290E-02  0.23823679345E-01  0.00000000000E+00 0.  1.
     999901    1    3    3    0    0 -0.66886308706E-01 -0.42009462301E-01 -0.12015476293E+00  0.89167019703E+00  0.88000000000E+00 0.  1.
        -11    1    4    4    0    0  0.46992790089E-01  0.20697760279E-01  0.86870870005E-01  0.10091347173E+00  0.51100000000E-03 0.  1.
         11    1    4    4    0    0  0.25174558185E-02  0.64300137067E-02  0.26637428294E-01  0.27522651892E-01  0.51100000000E-03 0. -1.
</event>
<event>
 8    1  0.1106905E+005  0.1043930E+01  0.7957747E-01            NaN
         13   -1    0    0    0    0  0.00000000000E+00  0.00000000000E+00  0.74505805969E-08  0.10566000000E+00  0.10566000000E+00 0. -1.
     999900   -1    0    0    0    0 -0.00000000000E+00 -0.00000000000E+00 -0.74505805969E-08  0.93827000000E+00  0.93827000000E+00 0.  1.
     999902    2    1    2    0    0 -0.71861535291E-02  0.23061558865E-03  0.22962682819E-01  0.10198680219E+01  0.10195841326E+01 0.  0.
     999903    2    3    3    0    0  0.62419813217E-02  0.11761846971E+00  0.52893353362E-01  0.13146717314E+00  0.24755686949E-01 0.  0.
         14    1    1    2    0    0  0.71861535291E-02 -0.23061558865E-03 -0.22962682819E-01  0.24061978064E-01  0.00000000000E+00 0.  1.
     999901    1    3    3    0    0 -0.13428134851E-01 -0.11738785412E+00 -0.29930670543E-01  0.88840084880E+00  0.88000000000E+00 0.  1.
        -11    1    4    4    0    0 -0.90217313087E-02  0.60925662428E-01  0.29000282844E-01  0.68077936985E-01  0.51100000000E-03 0.  1.
         11    1    4    4    0    0  0.15263712630E-01  0.56692807282E-01  0.23893070518E-01  0.63389236157E-01  0.51100000000E-03 0. -1.
</event>
<event>
 8    1  0.1106905E+005  0.1043930E+01  0.7957747E-01            NaN
         13   -1    0    0    0    0  0.00000000000E+00  0.00000000000E+00  0.74505805969E-08  0.10566000000E+00  0.10566000000E+00 0.  1.
     999900   -1    0    0    0    0 -0.00000000000E+00 -0.00000000000E+00 -0.74505805969E-08  0.93827000000E+00  0.93827000000E+00 0. -1.
     999902    2    1    2    0    0 -0.12785024364E-01 -0.20636932851E-01  0.37288617488E-02  0.10193689688E+01  0.10190730348E+01 0.  0.
     999903    2    3    3    0    0  0.73434329405E-01 -0.28940524563E-01 -0.99639058424E-01  0.12909504826E+00  0.22526314069E-01 0.  0.
         14    1    1    2    0    0  0.12785024364E-01  0.20636932851E-01 -0.37288617488E-02  0.24561031237E-01  0.00000000000E+00 0. -1.
     999901    1    3    3    0    0 -0.86219353769E-01  0.83035917113E-02  0.10336792017E+00  0.89027392050E+00  0.88000000000E+00 0.  1.
        -11    1    4    4    0    0  0.12085747284E-01 -0.13793523634E-01 -0.16568945553E-01  0.24720794069E-01  0.51100000000E-03 0. -1.
         11    1    4    4    0    0  0.61348582121E-01 -0.15147000929E-01 -0.83070112871E-01  0.10437425419E+00  0.51100000000E-03 0.  1.
</event>
<event>
 8    1  0.1106905E+005  0.1043930E+01  0.7957747E-01            NaN
         13   -1    0    0    0    0  0.00000000000E+00  0.00000000000E+00  0.74505805969E-08  0.10566000000E+00  0.10566000000E+00 0.  1.
     999900   -1    0    0    0    0 -0.00000000000E+00 -0.00000000000E+00 -0.74505805969E-08  0.93827000000E+00  0.93827000000E+00 0.  1.
     999902    2    1    2    0    0 -0.50677348936E-02 -0.23590912184E-01 -0.70416615210E-03  0.10197906354E+01  0.10195048951E+01 0.  0.
     999903    2    3    3    0    0 -0.26521173797E-01 -0.90444047621E-01  0.90472129443E-01  0.13229826434E+00  0.20835693718E-01 0.  0.
         14    1    1    2    0    0  0.50677348936E-02  0.23590912184E-01  0.70416615210E-03  0.24139364627E-01  0.00000000000E+00 0.  1.
     999901    1    3    3    0    0  0.21453438903E-01  0.66853135437E-01 -0.91176295595E-01  0.88749237103E+00  0.88000000000E+00 0.  1.
        -11    1    4    4    0    0 -0.17463530352E-01 -0.53489942019E-01  0.67386337902E-01  0.87791391642E-01  0.51100000000E-03 0.  1.
         11    1    4    4    0    0 -0.90576434442E-02 -0.36954105602E-01  0.23085791541E-01  0.44506872701E-01  0.51100000000E-03 0. -1.
</event>
<event>
 8    1  0.1106905E+005  0.1043930E+01  0.7957747E-01            NaN
         13   -1    0    0    0    0  0.00000000000E+00  0.00000000000E+00  0.74505805969E-08  0.10566000000E+00  0.10566000000E+00 0.  1.
     999900   -1    0    0    0    0 -0.00000000000E+00 -0.00000000000E+00 -0.74505805969E-08  0.93827000000E+00  0.93827000000E+00 0. -1.
     999902    2    1    2    0    0 -0.64224459366E-03  0.16966879100E-01 -0.15288861336E-01  0.10210818765E+01  0.10208262153E+01 0.  0.
     999903    2    3    3    0    0 -0.65568985434E-01  0.97297710571E-01  0.57336770584E-01  0.13206949948E+00  0.19715757623E-01 0.  0.
         14    1    1    2    0    0  0.64224459366E-03 -0.16966879100E-01  0.15288861336E-01  0.22848123457E-01  0.00000000000E+00 0.  1.
     999901    1    3    3    0    0  0.64926740840E-01 -0.80330831470E-01 -0.72625631921E-01  0.88901237706E+00  0.88000000000E+00 0. -1.
        -11    1    4    4    0    0 -0.50040648510E-01  0.86566824616E-01  0.50187185976E-01  0.11187893629E+00  0.51100000000E-03 0. -1.
         11    1    4    4    0    0 -0.15528336923E-01  0.10730885955E-01  0.71495846079E-02  0.20190563193E-01  0.51100000000E-03 0.  1.
</event>
<event>
 8    1  0.1106905E+005  0.1043930E+01  0.7957747E-01            NaN
         13   -1    0    0    0    0  0.00000000000E+00  0.00000000000E+00  0.74505805969E-08  0.10566000000E+00  0.10566000000E+00 0. -1.
     999900   -1    0    0    0    0 -0.00000000000E+00 -0.00000000000E+00 -0.74505805969E-08  0.93827000000E+00  0.93827000000E+00 0. -1.
     999902    2    1    2    0    0 -0.16784527827E-01 -0.66377256497E-02 -0.16316153462E-01  0.10195990189E+01  0.10193086690E+01 0.  0.
     999903    2    3    3    0    0 -0.70427600042E-01 -0.14774643943E-01 -0.10983709691E+00  0.13298187749E+00  0.21015587801E-01 0.  0.
         14    1    1    2    0    0  0.16784527827E-01  0.66377256497E-02  0.16316153462E-01  0.24330981072E-01  0.00000000000E+00 0.  1.
     999901    1    3    3    0    0  0.53643072216E-01  0.81369182930E-02  0.93520943448E-01  0.88661714144E+00  0.88000000000E+00 0.  1.
        -11    1    4    4    0    0 -0.15602646308E-01 -0.78844678214E-02 -0.41939190904E-01  0.45439677148E-01  0.51100000000E-03 0.  1.
         11    1    4    4    0    0 -0.54824953734E-01 -0.68901761213E-02 -0.67897906006E-01  0.87542200337E-01  0.51100000000E-03 0. -1.
</event>
<event>
 8    1  0.1106905E+005  0.1043930E+01  0.7957747E-01            NaN
         13   -1    0    0    0    0  0.00000000000E+00  0.00000000000E+00  0.74505805969E-08  0.10566000000E+00  0.10566000000E+00 0.  1.
     999900   -1    0    0    0    0 -0.00000000000E+00 -0.00000000000E+00 -0.74505805969E-08  0.93827000000E+00  0.93827000000E+00 0. -1.
     999902    2    1    2    0    0  0.18464392265E-01 -0.85263140167E-02 -0.12870207056E-01  0.10198618874E+01  0.10195778516E+01 0.  0.
     999903    2    3    3    0    0  0.10984656429E-01  0.12391471392E+00  0.28612727040E-01  0.12895369568E+00  0.18298865468E-01 0.  0.
         14    1    1    2    0    0 -0.18464392265E-01  0.85263140167E-02  0.12870207056E-01  0.24068112558E-01  0.00000000000E+00 0.  1.
     999901    1    3    3    0    0  0.74797358365E-02 -0.13244102794E+00 -0.41482934095E-01  0.89090819176E+00  0.88000000000E+00 0.  1.
        -11    1    4    4    0    0 -0.70443109827E-03  0.71785720601E-01  0.10579019305E-01  0.72566264034E-01  0.51100000000E-03 0. -1.
         11    1    4    4    0    0  0.11689087527E-01  0.52128993321E-01  0.18033707735E-01  0.56387431645E-01  0.51100000000E-03 0.  1.
</event>
<event>
 8    1  0.1106905E+005  0.1043930E+01  0.7957747E-01            NaN
         13   -1    0    0    0    0  0.00000000000E+00  0.00000000000E+00  0.74505805969E-08  0.10566000000E+00  0.10566000000E+00 0. -1.
     999900   -1    0    0    0    0 -0.00000000000E+00 -0.00000000000E+00 -0.74505805969E-08  0.93827000000E+00  0.93827000000E+00 0. -1.
     999902    2    1    2    0    0 -0.20125889893E-01 -0.13168488824E-01  0.37275133526E-02  0.10195916579E+01  0.10193011301E+01 0.  0.
     999903    2    3    3    0    0  0.29487938080E-01  0.59116900679E-01 -0.10795873556E+00  0.12821041078E+00  0.20456647087E-01 0.  0.
         14    1    1    2    0    0  0.20125889893E-01  0.13168488824E-01 -0.37275133526E-02  0.24338342131E-01  0.00000000000E+00 0.  1.
     999901    1    3    3    0    0 -0.49613827974E-01 -0.72285389503E-01  0.11168624892E+00  0.89138124709E+00  0.88000000000E+00 0.  1.
        -11    1    4    4    0    0  0.11641900556E-01  0.24543450157E-01 -0.63858596244E-01  0.69398099610E-01  0.51100000000E-03 0. -1.
         11    1    4    4    0    0  0.17846037525E-01  0.34573450522E-01 -0.44100139320E-01  0.58812311172E-01  0.51100000000E-03 0.  1.
</event>
<event>
 8    1  0.1106905E+005  0.1043930E+01  0.7957747E-01            NaN
         13   -1    0    0    0    0  0.00000000000E+00  0.00000000000E+00  0.74505805969E-08  0.10566000000E+00  0.10566000000E+00 0.  1.
     999900   -1    0    0    0    0 -0.00000000000E+00 -0.00000000000E+00 -0.74505805969E-08  0.93827000000E+00  0.93827000000E+00 0. -1.
     999902    2    1    2    0    0  0.16382922224E-01 -0.15576822180E-01  0.44777940374E-02  0.10208846497E+01  0.10206245048E+01 0.  0.
     999903    2    3    3    0    0  0.71929157818E-01  0.10086469342E+00  0.37435231459E-01  0.13086768161E+00  0.19428417672E-01 0.  0.
         14    1    1    2    0    0 -0.16382922224E-01  0.15576822180E-01 -0.44777940374E-02  0.23045350274E-01  0.00000000000E+00 0. -1.
     999901    1    3    3    0    0 -0.55546235594E-01 -0.11644151560E+00 -0.32957437421E-01  0.89001696811E+00  0.88000000000E+00 0. -1.
        -11    1    4    4    0    0  0.55247355038E-01  0.81431787300E-01  0.21587274262E-01  0.10074560910E+00  0.51100000000E-03 0. -1.
         11    1    4    4    0    0  0.16681802780E-01  0.19432906122E-01  0.15847957197E-01  0.30122072516E-01  0.51100000000E-03 0.  1.
</event>
<event>
 8    1  0.1106905E+005  0.1043930E+01  0.7957747E-01            NaN
         13   -1    0    0    0    0  0.00000000000E+00  0.00000000000E+00  0.74505805969E-08  0.10566000000E+00  0.10566000000E+00 0. -1.
     999900   -1    0    0    0    0 -0.00000000000E+00 -0.00000000000E+00 -0.74505805969E-08  0.93827000000E+00  0.93827000000E+00 0.  1.
     999902    2    1    2    0    0  0.20621593353E-01 -0.37479520014E-02 -0.13417283310E-01  0.10190438442E+01  0.10187399255E+01 0.  0.
     999903    2    3    3    0    0  0.95798033726E-01 -0.77334845643E-01  0.40690086460E-01  0.13112823139E+00  0.19518921942E-01 0.  0.
         14    1    1    2    0    0 -0.20621593353E-01  0.37479520014E-02  0.13417283310E-01  0.24886155751E-01  0.00000000000E+00 0. -1.
     999901    1    3    3    0    0 -0.75176440373E-01  0.73586893642E-01 -0.54107369771E-01  0.88791561286E+00  0.88000000000E+00 0.  1.
        -11    1    4    4    0    0  0.13620864514E-01 -0.66586252015E-02 -0.49244963742E-03  0.15177907212E-01  0.51100000000E-03 0.  1.
         11    1    4    4    0    0  0.82177169212E-01 -0.70676220442E-01  0.41182536098E-01  0.11595032417E+00  0.51100000000E-03 0. -1.
</event>
<event>
 8    1  0.1106905E+005  0.1043930E+01  0.7957747E-01            NaN
         13   -1    0    0    0    0  0.00000000000E+00  0.00000000000E+00  0.74505805969E-08  0.10566000000E+00  0.10566000000E+00 0. -1.
     999900   -1    0    0    0    0 -0.00000000000E+00 -0.00000000000E+00 -0.74505805969E-08  0.93827000000E+00  0.93827000000E+00 0. -1.
     999902    2    1    2    0    0 -0.10299305631E-01  0.28461568736E-02  0.22088463042E-01  0.10193927527E+01  0.10190973986E+01 0.  0.
     999903    2    3    3    0    0 -0.90484823841E-01 -0.71690935697E-01  0.60412952122E-01  0.13178120368E+00  0.19734924670E-01 0.  0.
         14    1    1    2    0    0  0.10299305631E-01 -0.28461568736E-02 -0.22088463042E-01  0.24537247298E-01  0.00000000000E+00 0.  1.
     999901    1    3    3    0    0  0.80185518211E-01  0.74537092570E-01 -0.38324489080E-01  0.88761154903E+00  0.88000000000E+00 0. -1.
        -11    1    4    4    0    0 -0.43212285611E-01 -0.31183687320E-01  0.38647785814E-01  0.65830361171E-01  0.51100000000E-03 0. -1.
         11    1    4    4    0    0 -0.47272538231E-01 -0.40507248376E-01  0.21765166308E-01  0.65950842506E-01  0.51100000000E-03 0.  1.
</event>
<event>
 8    1  0.1106905E+005  0.1043930E+01  0.7957747E-01            NaN
         13   -1    0    0    0    0  0.00000000000E+00  0.00000000000E+00  0.74505805969E-08  0.10566000000E+00  0.10566000000E+00 0.  1.
     999900   -1    0    0    0    0 -0.00000000000E+00 -0.00000000000E+00 -0.74505805969E-08  0.93827000000E+00  0.93827000000E+00 0. -1.
     999902    2    1    2    0    0  0.59940780336E-02  0.13589578502E-01 -0.19067890123E-01  0.10197599762E+01  0.10194735009E+01 0.  0.
     999903    2    3    3    0    0 -0.70460214945E-02 -0.11588332587E+00 -0.51630800749E-01  0.12959503628E+00  0.25505728975E-01 0.  0.
         14    1    1    2    0    0 -0.59940780336E-02 -0.13589578502E-01  0.19067890123E-01  0.24170023771E-01  0.00000000000E+00 0.  1.
     999901    1    3    3    0    0  0.13040099528E-01  0.12947290437E+00  0.32562910625E-01  0.89016493995E+00  0.88000000000E+00 0.  1.
        -11    1    4    4    0    0 -0.10433499700E-01 -0.19722137983E-01 -0.60521543771E-02  0.23123804536E-01  0.51100000000E-03 0. -1.
         11    1    4    4    0    0  0.33874782055E-02 -0.96161187882E-01 -0.45578646371E-01  0.10647123175E+00  0.51100000000E-03 0.  1.
</event>
<event>
 8    1  0.1106905E+005  0.1043930E+01  0.7957747E-01            NaN
         13   -1    0    0    0    0  0.00000000000E+00  0.00000000000E+00  0.74505805969E-08  0.10566000000E+00  0.10566000000E+00 0. -1.
     999900   -1    0    0    0    0 -0.00000000000E+00 -0.00000000000E+00 -0.74505805969E-08  0.93827000000E+00  0.93827000000E+00 0. -1.
     999902    2    1    2    0    0 -0.64988976362E-02  0.21635650879E-01 -0.81753189072E-02  0.10199055770E+01  0.10196225837E+01 0.  0.
     999903    2    3    3    0    0 -0.63090083330E-02 -0.36774906568E-01  0.12127829413E+00  0.12851897897E+00  0.20408478360E-01 0.  0.
         14    1    1    2    0    0  0.64988976362E-02 -0.21635650879E-01  0.81753189072E-02  0.24024422963E-01  0.00000000000E+00 0.  1.
     999901    1    3    3    0    0 -0.18988930316E-03  0.58410557447E-01 -0.12945361304E+00  0.89138659806E+00  0.88000000000E+00 0. -1.
        -11    1    4    4    0    0  0.71502494497E-02 -0.83936369422E-02  0.34998420327E-01  0.36697816756E-01  0.51100000000E-03 0. -1.
         11    1    4    4    0    0 -0.13459257783E-01 -0.28381269626E-01  0.86279873807E-01  0.91821162217E-01  0.51100000000E-03 0.  1.
</event>
<event>
 8    1  0.1106905E+005  0.1043930E+01  0.7957747E-01            NaN
         13   -1    0    0    0    0  0.00000000000E+00  0.00000000000E+00  0.74505805969E-08  0.10566000000E+00  0.10566000000E+00 0.  1.
     999900   -1    0    0    0    0 -0.00000000000E+00 -0.00000000000E+00 -0.74505805969E-08  0.93827000000E+00  0.93827000000E+00 0. -1.
     999902    2    1    2    0    0  0.82839593966E-03  0.14318751180E-01  0.19438273920E-01  0.10197730265E+01  0.10194868642E+01 0.  0.
     999903    2    3    3    0    0 -0.78687446911E-01  0.10321163094E+00  0.10921953711E-01  0.13168674633E+00  0.19435920979E-01 0.  0.
         14    1    1    2    0    0 -0.82839593966E-03 -0.14318751180E-01 -0.19438273920E-01  0.24156973490E-01  0.00000000000E+00 0.  1.
     999901    1    3    3    0    0  0.79515842851E-01 -0.88892879756E-01  0.85163202089E-02  0.88808628018E+00  0.88000000000E+00 0. -1.
        -11    1    4    4    0    0 -0.35488131357E-01  0.31206261756E-01  0.42464912304E-02  0.47450311367E-01  0.51100000000E-03 0. -1.
         11    1    4    4    0    0 -0.43199315554E-01  0.72005369179E-01  0.66754624808E-02  0.84236434963E-01  0.51100000000E-03 0.  1.
</event>
<event>
 8    1  0.1106905E+005  0.1043930E+01  0.7957747E-01            NaN
         13   -1    0    0    0    0  0.00000000000E+00  0.00000000000E+00  0.74505805969E-08  0.10566000000E+00  0.10566000000E+00 0. -1.
     999900   -1    0    0    0    0 -0.00000000000E+00 -0.00000000000E+00 -0.74505805969E-08  0.93827000000E+00  0.93827000000E+00 0.  1.
     999902    2    1    2    0    0 -0.13046152767E-01  0.22784761859E-01 -0.50304028588E-02  0.10171970161E+01  0.10168456703E+01 0.  0.
     999903    2    3    3    0    0  0.91136998298E-02 -0.66312366839E-01 -0.10575836618E+00  0.12670530924E+00  0.19723434049E-01 0.  0.
         14    1    1    2    0    0  0.13046152767E-01 -0.22784761859E-01  0.50304028588E-02  0.26732983894E-01  0.00000000000E+00 0. -1.
     999901    1    3    3    0    0 -0.22159852597E-01  0.89097128697E-01  0.10072796332E+00  0.89049170687E+00  0.88000000000E+00 0. -1.
        -11    1    4    4    0    0  0.15963663171E-03 -0.55854895122E-01 -0.81421305169E-01  0.98739479690E-01  0.51100000000E-03 0.  1.
         11    1    4    4    0    0  0.89540631981E-02 -0.10457471717E-01 -0.24337061012E-01  0.27965829546E-01  0.51100000000E-03 0. -1.
</event>
<event>
 8    1  0.1106905E+005  0.1043930E+01  0.7957747E-01            NaN
         13   -1    0    0    0    0  0.00000000000E+00  0.00000000000E+00  0.74505805969E-08  0.10566000000E+00  0.10566000000E+00 0.  1.
     999900   -1    0    0    0    0 -0.00000000000E+00 -0.00000000000E+00 -0.74505805969E-08  0.93827000000E+00  0.93827000000E+00 0. -1.
     999902    2    1    2    0    0 -0.19946472606E-01 -0.67881222695E-02 -0.13390462908E-01  0.10189651273E+01  0.10186592589E+01 0.  0.
     999903    2    3    3    0    0 -0.37444028621E-01  0.43439188502E-01 -0.11656076062E+00  0.13134299058E+00  0.19379161005E-01 0.  0.
         14    1    1    2    0    0  0.19946472606E-01  0.67881222695E-02  0.13390462908E-01  0.24964872726E-01  0.00000000000E+00 0.  1.
     999901    1    3    3    0    0  0.17497556015E-01 -0.50227310771E-01  0.10317029771E+00  0.88762213669E+00  0.88000000000E+00 0.  1.
        -11    1    4    4    0    0 -0.13046038073E-01  0.31519953582E-02 -0.26385511023E-01  0.29607271017E-01  0.51100000000E-03 0. -1.
         11    1    4    4    0    0 -0.24397990548E-01  0.40287193144E-01 -0.90175249600E-01  0.10173571957E+00  0.51100000000E-03 0.  1.
</event>
<event>
 8    1  0.1106905E+005  0.1043930E+01  0.7957747E-01            NaN
         13   -1    0    0    0    0  0.00000000000E+00  0.00000000000E+00  0.74505805969E-08  0.10566000000E+00  0.10566000000E+00 0.  1.
     999900   -1    0    0    0    0 -0.00000000000E+00 -0.00000000000E+00 -0.74505805969E-08  0.93827000000E+00  0.93827000000E+00 0.  1.
     999902    2    1    2    0    0  0.15682697217E-01 -0.17527759137E-01  0.68004208220E-02  0.10194470456E+01  0.10191530129E+01 0.  0.
     999903    2    3    3    0    0  0.11764306161E+00 -0.33077326409E-01  0.45982644393E-01  0.13255756456E+00  0.22871485949E-01 0.  0.
         14    1    1    2    0    0 -0.15682697217E-01  0.17527759137E-01 -0.68004208220E-02  0.24482954391E-01  0.00000000000E+00 0.  1.
     999901    1    3    3    0    0 -0.10196036439E+00  0.15549567272E-01 -0.39182223571E-01  0.88688948105E+00  0.88000000000E+00 0.  1.
        -11    1    4    4    0    0  0.27840431985E-01 -0.87529855409E-02  0.97892624416E-03  0.29204859640E-01  0.51100000000E-03 0. -1.
         11    1    4    4    0    0  0.89802629626E-01 -0.24324340868E-01  0.45003718149E-01  0.10335270492E+00  0.51100000000E-03 0.  1.
</event>
<event>
 7    1  0.1106905E+005  0.1043930E+01  0.7957747E-01            NaN
         13   -1    0    0    0    0  0.00000000000E+00  0.00000000000E+00  0.74505805969E-08  0.10566000000E+00  0.10566000000E+00 0.  1.
     999900   -1    0    0    0    0 -0.00000000000E+00 -0.00000000000E+00 -0.74505805969E-08  0.93827000000E+00  0.93827000000E+00 0. -1.
     999903    2    1    2    0    0  0.90704551944E-01 -0.79639680892E-02 -0.34712317660E-01  0.99324507119E-01  0.19226861058E-01 0.  0.
         14    1    1    2    0    0  0.36922044420E-01  0.33586609679E-01 -0.19006524240E-01  0.53409228393E-01  0.00000000000E+00 0. -1.
     999901    1    1    2    0    0 -0.12762659636E+00 -0.25622641590E-01  0.53718841900E-01  0.89119626449E+00  0.88000000000E+00 0.  1.
        -11    1    3    3    0    0  0.78505448788E-01 -0.28795125678E-02 -0.35208879387E-01  0.86089043383E-01  0.51100000000E-03 0.  1.
         11    1    3    3    0    0  0.12199103156E-01 -0.50844555214E-02  0.49656172651E-03  0.13235463736E-01  0.51100000000E-03 0. -1.
</event>
<event>
 8    1  0.1106905E+005  0.1043930E+01  0.7957747E-01            NaN
         13   -1    0    0    0    0  0.00000000000E+00  0.00000000000E+00  0.74505805969E-08  0.10566000000E+00  0.10566000000E+00 0.  1.
     999900   -1    0    0    0    0 -0.00000000000E+00 -0.00000000000E+00 -0.74505805969E-08  0.93827000000E+00  0.93827000000E+00 0. -1.
     999902    2    1    2    0    0 -0.53252294283E-02 -0.20028363726E-01 -0.11631045970E-01  0.10201650120E+01  0.10198881689E+01 0.  0.
     999903    2    3    3    0    0  0.87137758091E-01 -0.77202115179E-01  0.55233136789E-01  0.13095802779E+00  0.23369856011E-01 0.  0.
         14    1    1    2    0    0  0.53252294283E-02  0.20028363726E-01  0.11631045970E-01  0.23764987952E-01  0.00000000000E+00 0.  1.
     999901    1    3    3    0    0 -0.92462987519E-01  0.57173751453E-01 -0.66864182759E-01  0.88920698426E+00  0.88000000000E+00 0. -1.
        -11    1    4    4    0    0  0.57708226886E-01 -0.40577158213E-01  0.23917461551E-01  0.74491954646E-01  0.51100000000E-03 0.  1.
         11    1    4    4    0    0  0.29429531205E-01 -0.36624956966E-01  0.31315675238E-01  0.56466073144E-01  0.51100000000E-03 0. -1.
</event>
<event>
 8    1  0.1106905E+005  0.1043930E+01  0.7957747E-01            NaN
         13   -1    0    0    0    0  0.00000000000E+00  0.00000000000E+00  0.74505805969E-08  0.10566000000E+00  0.10566000000E+00 0.  1.
     999900   -1    0    0    0    0 -0.00000000000E+00 -0.00000000000E+00 -0.74505805969E-08  0.93827000000E+00  0.93827000000E+00 0. -1.
     999902    2    1    2    0    0  0.10419356207E-01 -0.18584324180E-01 -0.72818259085E-03  0.10226116901E+01  0.10223894553E+01 0.  0.
     999903    2    3    3    0    0  0.32230249351E-01 -0.27004615613E-01 -0.12522141043E+00  0.13354185020E+00  0.19621057194E-01 0.  0.
         14    1    1    2    0    0 -0.10419356207E-01  0.18584324180E-01  0.72818259085E-03  0.21318309944E-01  0.00000000000E+00 0. -1.
     999901    1    3    3    0    0 -0.21810893144E-01  0.84202914332E-02  0.12449322784E+00  0.88906983986E+00  0.88000000000E+00 0.  1.
        -11    1    4    4    0    0  0.25819865721E-01 -0.91762805742E-02 -0.71240084059E-01  0.76330074602E-01  0.51100000000E-03 0. -1.
         11    1    4    4    0    0  0.64103836297E-02 -0.17828335039E-01 -0.53981326375E-01  0.57211775595E-01  0.51100000000E-03 0.  1.
</event>
<event>
 8    1  0.1106905E+005  0.1043930E+01  0.7957747E-01            NaN
         13   -1    0    0    0    0  0.00000000000E+00  0.00000000000E+00  0.74505805969E-08  0.10566000000E+00  0.10566000000E+00 0.  1.
     999900   -1    0    0    0    0 -0.00000000000E+00 -0.00000000000E+00 -0.74505805969E-08  0.93827000000E+00  0.93827000000E+00 0. -1.
     999902    2    1    2    0    0 -0.61545020360E-02  0.14700879129E-01 -0.16937361723E-01  0.10206734318E+01  0.10204084410E+01 0.  0.
     999903    2    3    3    0    0 -0.70342861996E-01 -0.95970812472E-01  0.46120239118E-01  0.12918892273E+00  0.20104383112E-01 0.  0.
         14    1    1    2    0    0  0.61545020360E-02 -0.14700879129E-01  0.16937361723E-01  0.23256568203E-01  0.00000000000E+00 0. -1.
     999901    1    3    3    0    0  0.64188359960E-01  0.11067169160E+00 -0.63057600841E-01  0.89148450906E+00  0.88000000000E+00 0. -1.
        -11    1    4    4    0    0 -0.13815348140E-01 -0.20236116167E-01  0.18572130626E-01  0.30749786971E-01  0.51100000000E-03 0. -1.
         11    1    4    4    0    0 -0.56527513856E-01 -0.75734696306E-01  0.27548108492E-01  0.98439135763E-01  0.51100000000E-03 0.  1.
</event>
<event>
 8    1  0.1106905E+005  0.1043930E+01  0.7957747E-01            NaN
         13   -1    0    0    0    0  0.00000000000E+00  0.00000000000E+00  0.74505805969E-08  0.10566000000E+00  0.10566000000E+00 0.  1.
     999900   -1    0    0    0    0 -0.00000000000E+00 -0.00000000000E+00 -0.74505805969E-08  0.93827000000E+00  0.93827000000E+00 0.  1.
     999902    2    1    2    0    0  0.57750047817E-02  0.14643340399E-01 -0.17472952268E-01  0.10204123011E+01  0.10201412560E+01 0.  0.
     999903    2    3    3    0    0  0.12951679132E-01  0.10627004739E+00 -0.77414469807E-01  0.13359780893E+00  0.19857125927E-01 0.  0.
         14    1    1    2    0    0 -0.57750047817E-02 -0.14643340399E-01  0.17472952268E-01  0.23517698851E-01  0.00000000000E+00 0.  1.
     999901    1    3    3    0    0 -0.71766743507E-02 -0.91626706991E-01  0.59941517539E-01  0.88681449222E+00  0.88000000000E+00 0. -1.
        -11    1    4    4    0    0  0.18231191711E-01  0.76571761901E-01 -0.56102486765E-01  0.96661063589E-01  0.51100000000E-03 0. -1.
         11    1    4    4    0    0 -0.52795125786E-02  0.29698285490E-01 -0.21311983041E-01  0.36936745339E-01  0.51100000000E-03 0.  1.
</event>
<event>
 8    1  0.1106905E+005  0.1043930E+01  0.7957747E-01            NaN
         13   -1    0    0    0    0  0.00000000000E+00  0.00000000000E+00  0.74505805969E-08  0.10566000000E+00  0.10566000000E+00 0.  1.
     999900   -1    0    0    0    0 -0.00000000000E+00 -0.00000000000E+00 -0.74505805969E-08  0.93827000000E+00  0.93827000000E+00 0. -1.
     999902    2    1    2    0    0 -0.20022573974E-01  0.12482069404E-01 -0.37985306609E-02  0.10200315825E+01  0.10197515849E+01 0.  0.
     999903    2    3    3    0    0 -0.55663921843E-01 -0.10581001454E+00  0.47172782781E-01  0.12994091428E+00  0.19108594829E-01 0.  0.
         14    1    1    2    0    0  0.20022573974E-01 -0.12482069404E-01  0.37985306609E-02  0.23898417528E-01  0.00000000000E+00 0. -1.
     999901    1    3    3    0    0  0.35641347868E-01  0.11829208395E+00 -0.50971313442E-01  0.89009066819E+00  0.88000000000E+00 0.  1.
        -11    1    4    4    0    0 -0.61672549520E-02 -0.29257489148E-01  0.12348906029E-01  0.32354169839E-01  0.51100000000E-03 0. -1.
         11    1    4    4    0    0 -0.49496666891E-01 -0.76552525397E-01  0.34823876753E-01  0.97586744443E-01  0.51100000000E-03 0.  1.
</event>
<event>
 8    1  0.1106905E+005  0.1043930E+01  0.7957747E-01            NaN
         13   -1    0    0    0    0  0.00000000000E+00  0.00000000000E+00  0.74505805969E-08  0.10566000000E+00  0.10566000000E+00 0.  1.
     999900   -1    0    0    0    0 -0.00000000000E+00 -0.00000000000E+00 -0.74505805969E-08  0.93827000000E+00  0.93827000000E+00 0.  1.
     999902    2    1    2    0    0  0.17442426327E-01  0.83537431618E-02 -0.13808488295E-01  0.10201666330E+01  0.10198898281E+01 0.  0.
     999903    2    3    3    0    0 -0.66416077082E-01  0.96084063826E-01 -0.55047740186E-01  0.13088066459E+00  0.21360057302E-01 0.  0.
         14    1    1    2    0    0 -0.17442426327E-01 -0.83537431618E-02  0.13808488295E-01  0.23763366974E-01  0.00000000000E+00 0.  1.
     999901    1    3    3    0    0  0.83858503409E-01 -0.87730320665E-01  0.41239251891E-01  0.88928596843E+00  0.88000000000E+00 0. -1.
        -11    1    4    4    0    0 -0.36871203316E-01  0.68581613762E-01 -0.30445934696E-01  0.83607053773E-01  0.51100000000E-03 0.  1.
         11    1    4    4    0    0 -0.29544873766E-01  0.27502450065E-01 -0.24601805490E-01  0.47273610818E-01  0.51100000000E-03 0. -1.
</event>
<event>
 8    1  0.1106905E+005  0.1043930E+01  0.7957747E-01            NaN
         13   -1    0    0    0    0  0.00000000000E+00  0.00000000000E+00  0.74505805969E-08  0.10566000000E+00  0.10566000000E+00 0.  1.
     999900   -1    0    0    0    0 -0.00000000000E+00 -0.00000000000E+00 -0.74505805969E-08  0.93827000000E+00  0.93827000000E+00 0. -1.
     999902    2    1    2    0    0 -0.15861176398E-02  0.16644061295E-01  0.16983681544E-01  0.10200975435E+01  0.10198191076E+01 0.  0.
     999903    2    3    3    0    0 -0.38665140448E-01 -0.10803746359E+00  0.56196444946E-01  0.12967181529E+00  0.22128096001E-01 0.  0.
         14    1    1    2    0    0  0.15861176398E-02 -0.16644061295E-01 -0.16983681544E-01  0.23832456532E-01  0.00000000000E+00 0.  1.
     999901    1    3    3    0    0  0.37079022808E-01  0.12468152488E+00 -0.39212763402E-01  0.89042572817E+00  0.88000000000E+00 0. -1.
        -11    1    4    4    0    0 -0.23578406139E-01 -0.54795034118E-01  0.17585970950E-01  0.62192961782E-01  0.51100000000E-03 0. -1.
         11    1    4    4    0    0 -0.15086734309E-01 -0.53242429471E-01  0.38610473996E-01  0.67478853512E-01  0.51100000000E-03 0.  1.
</event>
<event>
 8    1  0.1106905E+005  0.1043930E+01  0.7957747E-01            NaN
         13   -1    0    0    0    0  0.00000000000E+00  0.00000000000E+00  0.74505805969E-08  0.10566000000E+00  0.10566000000E+00 0.  1.
     999900   -1    0    0    0    0 -0.00000000000E+00 -0.00000000000E+00 -0.74505805969E-08  0.93827000000E+00  0.93827000000E+00 0. -1.
     999902    2    1    2    0    0 -0.19731248093E-02  0.13348059195E-01 -0.14817417271E-01  0.10238895469E+01  0.10236934036E+01 0.  0.
     999903    2    3    3    0    0 -0.71441251627E-01 -0.33652529417E-01 -0.10683326911E+00  0.13512535266E+00  0.24681336556E-01 0.  0.
         14    1    1    2    0    0  0.19731248093E-02 -0.13348059195E-01  0.14817417271E-01  0.20040453098E-01  0.00000000000E+00 0.  1.
     999901    1    3    3    0    0  0.69468126818E-01  0.47000588611E-01  0.92015851835E-01  0.88876419424E+00  0.88000000000E+00 0.  1.
        -11    1    4    4    0    0 -0.50726629324E-01 -0.33643294854E-01 -0.88774826381E-01  0.10763964479E+00  0.51100000000E-03 0. -1.
         11    1    4    4    0    0 -0.20714622303E-01 -0.92345621806E-05 -0.18058442725E-01  0.27485707870E-01  0.51100000000E-03 0.  1.
</event>
<event>
 8    1  0.1106905E+005  0.1043930E+01  0.7957747E-01            NaN
         13   -1    0    0    0    0  0.00000000000E+00  0.00000000000E+00  0.74505805969E-08  0.10566000000E+00  0.10566000000E+00 0.  1.
     999900   -1    0    0    0    0 -0.00000000000E+00 -0.00000000000E+00 -0.74505805969E-08  0.93827000000E+00  0.93827000000E+00 0.  1.
     999902    2    1    2    0    0  0.11009472459E-01  0.18896960685E-01 -0.91938451838E-03  0.10220405305E+01  0.10218060957E+01 0.  0.
     999903    2    3    3    0    0 -0.25614359940E-01  0.12582788205E+00  0.33300896060E-01  0.13415171165E+00  0.19974501831E-01 0.  0.
         14    1    1    2    0    0 -0.11009472459E-01 -0.18896960685E-01  0.91938451838E-03  0.21889469496E-01  0.00000000000E+00 0.  1.
     999901    1    3    3    0    0  0.36623832399E-01 -0.10693092137E+00 -0.34220280579E-01  0.88788881885E+00  0.88000000000E+00 0.  1.
        -11    1    4    4    0    0 -0.50595883754E-02  0.45609904967E-01  0.20861263969E-01  0.50411470134E-01  0.51100000000E-03 0. -1.
         11    1    4    4    0    0 -0.20554771564E-01  0.80217977084E-01  0.12439632091E-01  0.83740241515E-01  0.51100000000E-03 0.  1.
</event>
<event>
 8    1  0.1106905E+005  0.1043930E+01  0.7957747E-01            NaN
         13   -1    0    0    0    0  0.00000000000E+00  0.00000000000E+00  0.74505805969E-08  0.10566000000E+00  0.10566000000E+00 0.  1.
     999900   -1    0    0    0    0 -0.00000000000E+00 -0.00000000000E+00 -0.74505805969E-08  0.93827000000E+00  0.93827000000E+00 0.  1.
     999902    2    1    2    0    0 -0.15863830310E-01  0.36734291828E-02  0.21259014288E-01  0.10171512606E+01  0.10167986950E+01 0.  0.
     999903    2    3    3    0    0  0.15916131775E-01  0.62545679521E-01 -0.10598159248E+00  0.12548648064E+00  0.18694213065E-01 0.  0.
         14    1    1    2    0    0  0.15863830310E-01 -0.36734291828E-02 -0.21259014288E-01  0.26778739375E-01  0.00000000000E+00 0. -1.
     999901    1    3    3    0    0 -0.31779962085E-01 -0.58872250338E-01  0.12724060677E+00  0.89166477998E+00  0.88000000000E+00 0. -1.
        -11    1    4    4    0    0  0.27475905803E-02  0.25509476809E-01 -0.26924526653E-01  0.37195079212E-01  0.51100000000E-03 0. -1.
         11    1    4    4    0    0  0.13168541195E-01  0.37036202712E-01 -0.79057065827E-01  0.88291401431E-01  0.51100000000E-03 0.  1.
</event>
<event>
 8    1  0.1106905E+005  0.1043930E+01  0.7957747E-01            NaN
         13   -1    0    0    0    0  0.00000000000E+00  0.00000000000E+00  0.74505805969E-08  0.10566000000E+00  0.10566000000E+00 0. -1.
     999900   -1    0    0    0    0 -0.00000000000E+00 -0.00000000000E+00 -0.74505805969E-08  0.93827000000E+00  0.93827000000E+00 0. -1.
     999902    2    1    2    0    0  0.13675299286E-01 -0.46164746656E-02 -0.15076940927E-01  0.10230580141E+01  0.10228450813E+01 0.  0.
     999903    2    3    3    0    0 -0.73332477849E-01  0.10108739620E+00  0.34705208642E-01  0.13108159958E+00  0.19535103366E-01 0.  0.
         14    1    1    2    0    0 -0.13675299286E-01  0.46164746656E-02  0.15076940927E-01  0.20871985929E-01  0.00000000000E+00 0.  1.
     999901    1    3    3    0    0  0.87007777135E-01 -0.10570387086E+00 -0.49782149569E-01  0.89197641449E+00  0.88000000000E+00 0. -1.
        -11    1    4    4    0    0 -0.39866872819E-01  0.43263647706E-01  0.91076020332E-02  0.59534194351E-01  0.51100000000E-03 0.  1.
         11    1    4    4    0    0 -0.33465605031E-01  0.57823748491E-01  0.25597606609E-01  0.71547405227E-01  0.51100000000E-03 0. -1.
</event>
<event>
 8    1  0.1106905E+005  0.1043930E+01  0.7957747E-01            NaN
         13   -1    0    0    0    0  0.00000000000E+00  0.00000000000E+00  0.74505805969E-08  0.10566000000E+00  0.10566000000E+00 0. -1.
     999900   -1    0    0    0    0 -0.00000000000E+00 -0.00000000000E+00 -0.74505805969E-08  0.93827000000E+00  0.93827000000E+00 0.  1.
     999902    2    1    2    0    0 -0.17872853785E-01 -0.31871352851E-02  0.15835529310E-01  0.10198393229E+01  0.10195547478E+01 0.  0.
     999903    2    3    3    0    0 -0.60682530127E-01  0.36297075048E-01  0.11051604876E+00  0.13284661042E+00  0.20846528418E-01 0.  0.
         14    1    1    2    0    0  0.17872853785E-01  0.31871352851E-02 -0.15835529310E-01  0.24090677082E-01  0.00000000000E+00 0.  1.
     999901    1    3    3    0    0  0.42809676342E-01 -0.39484210333E-01 -0.94680519454E-01  0.88699271249E+00  0.88000000000E+00 0.  1.
        -11    1    4    4    0    0 -0.31876830468E-01  0.82475546113E-02  0.41579586363E-01  0.53040339374E-01  0.51100000000E-03 0.  1.
         11    1    4    4    0    0 -0.28805699658E-01  0.28049520436E-01  0.68936462401E-01  0.79806271050E-01  0.51100000000E-03 0. -1.
</event>
<event>
 8    1  0.1106905E+005  0.1043930E+01  0.7957747E-01            NaN
         13   -1    0    0    0    0  0.00000000000E+00  0.00000000000E+00  0.74505805969E-08  0.10566000000E+00  0.10566000000E+00 0. -1.
     999900   -1    0    0    0    0 -0.00000000000E+00 -0.00000000000E+00 -0.74505805969E-08  0.93827000000E+00  0.93827000000E+00 0.  1.
     999902    2    1    2    0    0  0.17435478621E-01 -0.30207003306E-02 -0.13767935526E-01  0.10215095497E+01  0.10212634741E+01 0.  0.
     999903    2    3    3    0    0 -0.11802241284E+00 -0.45430658210E-01 -0.22802793661E-01  0.13008985414E+00  0.20252607556E-01 0.  0.
         14    1    1    2    0    0 -0.17435478621E-01  0.30207003306E-02  0.13767935526E-01  0.22420450350E-01  0.00000000000E+00 0.  1.
     999901    1    3    3    0    0  0.13545789146E+00  0.42409957879E-01  0.90348581346E-02  0.89141969551E+00  0.88000000000E+00 0. -1.
        -11    1    4    4    0    0 -0.83849517109E-01 -0.37547637238E-01 -0.86938487276E-02  0.92284401219E-01  0.51100000000E-03 0.  1.
         11    1    4    4    0    0 -0.34172895731E-01 -0.78830209721E-02 -0.14108944933E-01  0.37805452919E-01  0.51100000000E-03 0. -1.
</event>
<event>
 8    1  0.1106905E+005  0.1043930E+01  0.7957747E-01            NaN
         13   -1    0    0    0    0  0.00000000000E+00  0.00000000000E+00  0.74505805969E-08  0.10566000000E+00  0.10566000000E+00 0. -1.
     999900   -1    0    0    0    0 -0.00000000000E+00 -0.00000000000E+00 -0.74505805969E-08  0.93827000000E+00  0.93827000000E+00 0. -1.
     999902    2    1    2    0    0  0.19038276732E-02 -0.39475429796E-02 -0.23365850959E-01  0.10201566820E+01  0.10198796425E+01 0.  0.
     999903    2    3    3    0    0  0.80806588546E-01  0.64777921035E-02  0.97037736138E-01  0.12839922788E+00  0.22324268001E-01 0.  0.
         14    1    1    2    0    0 -0.19038276732E-02  0.39475429796E-02  0.23365850959E-01  0.23773317951E-01  0.00000000000E+00 0. -1.
     999901    1    3    3    0    0 -0.78902760872E-01 -0.10425335083E-01 -0.12040358710E+00  0.89175745417E+00  0.88000000000E+00 0. -1.
        -11    1    4    4    0    0  0.36043107935E-01 -0.68121400170E-02  0.51004956415E-01  0.62827363315E-01  0.51100000000E-03 0.  1.
         11    1    4    4    0    0  0.44763480610E-01  0.13289932121E-01  0.46032779723E-01  0.65571864562E-01  0.51100000000E-03 0. -1.
</event>
<event>
 8    1  0.1106905E+005  0.1043930E+01  0.7957747E-01            NaN
         13   -1    0    0    0    0  0.00000000000E+00  0.00000000000E+00  0.74505805969E-08  0.10566000000E+00  0.10566000000E+00 0. -1.
     999900   -1    0    0    0    0 -0.00000000000E+00 -0.00000000000E+00 -0.74505805969E-08  0.93827000000E+00  0.93827000000E+00 0. -1.
     999902    2    1    2    0    0  0.18665770493E-01  0.89946654121E-02 -0.11317462328E-01  0.10203206809E+01  0.10200474950E+01 0.  0.
     999903    2    3    3    0    0  0.21800236684E-01 -0.77052248140E-01 -0.10143486926E+00  0.13153778097E+00  0.24512361313E-01 0.  0.
         14    1    1    2    0    0 -0.18665770493E-01 -0.89946654121E-02  0.11317462328E-01  0.23609319082E-01  0.00000000000E+00 0. -1.
     999901    1    3    3    0    0 -0.31344661907E-02  0.86046913552E-01  0.90117406934E-01  0.88878289995E+00  0.88000000000E+00 0.  1.
        -11    1    4    4    0    0 -0.36915662111E-02 -0.29757701629E-01 -0.37880972182E-01  0.48315397564E-01  0.51100000000E-03 0.  1.
         11    1    4    4    0    0  0.25491802895E-01 -0.47294546511E-01 -0.63553897080E-01  0.83222383405E-01  0.51100000000E-03 0. -1.
</event>
<event>
 8    1  0.1106905E+005  0.1043930E+01  0.7957747E-01            NaN
         13   -1    0    0    0    0  0.00000000000E+00  0.00000000000E+00  0.74505805969E-08  0.10566000000E+00  0.10566000000E+00 0. -1.
     999900   -1    0    0    0    0 -0.00000000000E+00 -0.00000000000E+00 -0.74505805969E-08  0.93827000000E+00  0.93827000000E+00 0.  1.
     999902    2    1    2    0    0 -0.21222963219E-01  0.10296410708E-01  0.15933614650E-02  0.10202874739E+01  0.10200135099E+01 0.  0.
     999903    2    3    3    0    0 -0.78594536789E-01  0.96993512664E-01  0.42026768231E-01  0.13324590476E+00  0.20084301708E-01 0.  0.
         14    1    1    2    0    0  0.21222963219E-01 -0.10296410708E-01 -0.15933614650E-02  0.23642526134E-01  0.00000000000E+00 0. -1.
     999901    1    3    3    0    0  0.57371573570E-01 -0.86697101956E-01 -0.40433406766E-01  0.88704156911E+00  0.88000000000E+00 0.  1.
        -11    1    4    4    0    0 -0.49060494504E-01  0.55079008196E-01  0.34454889064E-01  0.81412712560E-01  0.51100000000E-03 0. -1.
         11    1    4    4    0    0 -0.29534042285E-01  0.41914504467E-01  0.75718791668E-02  0.51833192199E-01  0.51100000000E-03 0.  1.
</event>
<event>
 8    1  0.1106905E+005  0.1043930E+01  0.7957747E-01            NaN
         13   -1    0    0    0    0  0.00000000000E+00  0.00000000000E+00  0.74505805969E-08  0.10566000000E+00  0.10566000000E+00 0.  1.
     999900   -1    0    0    0    0 -0.00000000000E+00 -0.00000000000E+00 -0.74505805969E-08  0.93827000000E+00  0.93827000000E+00 0.  1.
     999902    2    1    2    0    0 -0.21190043551E-01  0.48845565086E-02 -0.10284689974E-01  0.10198748200E+01  0.10195910929E+01 0.  0.
     999903    2    3    3    0    0 -0.12730346923E+00  0.11448959678E-01  0.29296088936E-01  0.13259257145E+00  0.19628479861E-01 0.  0.
         14    1    1    2    0    0  0.21190043551E-01 -0.48845565086E-02  0.10284689974E-01  0.24055180021E-01  0.00000000000E+00 0. -1.
     999901    1    3    3    0    0  0.10611342568E+00 -0.65644031699E-02 -0.39580778910E-01  0.88728224853E+00  0.88000000000E+00 0.  1.
        -11    1    4    4    0    0 -0.11762944742E+00  0.15654055812E-01  0.25549514997E-01  0.12138688233E+00  0.51100000000E-03 0.  1.
         11    1    4    4    0    0 -0.96740218087E-02 -0.42050961332E-02  0.37465739386E-02  0.11205689123E-01  0.51100000000E-03 0. -1.
</event>
<event>
 8    1  0.1106905E+005  0.1043930E+01  0.7957747E-01            NaN
         13   -1    0    0    0    0  0.00000000000E+00  0.00000000000E+00  0.74505805969E-08  0.10566000000E+00  0.10566000000E+00 0.  1.
     999900   -1    0    0    0    0 -0.00000000000E+00 -0.00000000000E+00 -0.74505805969E-08  0.93827000000E+00  0.93827000000E+00 0.  1.
     999902    2    1    2    0    0  0.39749742686E-02 -0.19643189468E-01  0.63834079597E-02  0.10228966168E+01  0.10226803437E+01 0.  0.
     999903    2    3    3    0    0 -0.41135815628E-01  0.59024253976E-01  0.10681852401E+00  0.13255355785E+00  0.31372451965E-01 0.  0.
         14    1    1    2    0    0 -0.39749742686E-02  0.19643189468E-01 -0.63834079597E-02  0.21033383229E-01  0.00000000000E+00 0. -1.
     999901    1    3    3    0    0  0.45110789897E-01 -0.78667443444E-01 -0.10043511606E+00  0.89034305892E+00  0.88000000000E+00 0.  1.
        -11    1    4    4    0    0  0.54211599386E-03  0.73288555842E-02  0.73941758514E-03  0.74036391924E-02  0.51100000000E-03 0. -1.
         11    1    4    4    0    0 -0.41677931622E-01  0.51695398392E-01  0.10607910643E+00  0.12514991866E+00  0.51100000000E-03 0.  1.
</event>
<event>
 8    1  0.1106905E+005  0.1043930E+01  0.7957747E-01            NaN
         13   -1    0    0    0    0  0.00000000000E+00  0.00000000000E+00  0.74505805969E-08  0.10566000000E+00  0.10566000000E+00 0.  1.
     999900   -1    0    0    0    0 -0.00000000000E+00 -0.00000000000E+00 -0.74505805969E-08  0.93827000000E+00  0.93827000000E+00 0.  1.
     999902    2    1    2    0    0  0.66104098028E-02 -0.22178639798E-01  0.53374860307E-02  0.10201796666E+01  0.10199031688E+01 0.  0.
     999903    2    3    3    0    0  0.31711095272E-01 -0.99854596747E-01  0.79995574289E-01  0.13325383605E+00  0.19513043353E-01 0.  0.
         14    1    1    2    0    0 -0.66104098028E-02  0.22178639798E-01 -0.53374860307E-02  0.23750333433E-01  0.00000000000E+00 0. -1.
     999901    1    3    3    0    0 -0.25100685469E-01  0.77675956948E-01 -0.74658088258E-01  0.88692583052E+00  0.88000000000E+00 0.  1.
        -11    1    4    4    0    0  0.24592195361E-01 -0.68387734118E-01  0.65666770854E-01  0.97949191757E-01  0.51100000000E-03 0.  1.
         11    1    4    4    0    0  0.71188999113E-02 -0.31466862629E-01  0.14328803435E-01  0.35304644291E-01  0.51100000000E-03 0. -1.
</event>
<event>
 8    1  0.1106905E+005  0.1043930E+01  0.7957747E-01            NaN
         13   -1    0    0    0    0  0.00000000000E+00  0.00000000000E+00  0.74505805969E-08  0.10566000000E+00  0.10566000000E+00 0.  1.
     999900   -1    0    0    0    0 -0.00000000000E+00 -0.00000000000E+00 -0.74505805969E-08  0.93827000000E+00  0.93827000000E+00 0.  1.
     999902    2    1    2    0    0 -0.57911852714E-02 -0.22235754229E-01 -0.36564912733E-03  0.10209495672E+01  0.10206909025E+01 0.  0.
     999903    2    3    3    0    0  0.48922273155E-01 -0.76845880008E-01 -0.94184582634E-01  0.13259275787E+00  0.20283632552E-01 0.  0.
         14    1    1    2    0    0  0.57911852714E-02  0.22235754229E-01  0.36564912733E-03  0.22980432813E-01  0.00000000000E+00 0. -1.
     999901    1    3    3    0    0 -0.54713458427E-01  0.54610125779E-01  0.93818933506E-01  0.88835680931E+00  0.88000000000E+00 0. -1.
        -11    1    4    4    0    0  0.18620963638E-01 -0.15657335684E-01 -0.17877760406E-01  0.30195494460E-01  0.51100000000E-03 0. -1.
         11    1    4    4    0    0  0.30301309517E-01 -0.61188544324E-01 -0.76306822228E-01  0.10239726341E+00  0.51100000000E-03 0.  1.
</event>
<event>
 8    1  0.1106905E+005  0.1043930E+01  0.7957747E-01            NaN
         13   -1    0    0    0    0  0.00000000000E+00  0.00000000000E+00  0.74505805969E-08  0.10566000000E+00  0.10566000000E+00 0. -1.
     999900   -1    0    0    0    0 -0.00000000000E+00 -0.00000000000E+00 -0.74505805969E-08  0.93827000000E+00  0.93827000000E+00 0.  1.
     999902    2    1    2    0    0  0.24162636873E-01  0.35276115653E-02  0.73154623379E-03  0.10195002594E+01  0.10192075190E+01 0.  0.
     999903    2    3    3    0    0  0.68112942573E-01  0.11113824344E+00 -0.75451710634E-02  0.13181778157E+00  0.18108446369E-01 0.  0.
         14    1    1    2    0    0 -0.24162636873E-01 -0.35276115653E-02 -0.73154623379E-03  0.24429740561E-01  0.00000000000E+00 0.  1.
     999901    1    3    3    0    0 -0.43950305701E-01 -0.10761063188E+00  0.82767172972E-02  0.88768247787E+00  0.88000000000E+00 0. -1.
        -11    1    4    4    0    0  0.39802655208E-01  0.53547996586E-01  0.29644591441E-02  0.66788385510E-01  0.51100000000E-03 0. -1.
         11    1    4    4    0    0  0.28310287365E-01  0.57590246859E-01 -0.10509630207E-01  0.65029396061E-01  0.51100000000E-03 0.  1.
</event>
<event>
 8    1  0.1106905E+005  0.1043930E+01  0.7957747E-01            NaN
         13   -1    0    0    0    0  0.00000000000E+00  0.00000000000E+00  0.74505805969E-08  0.10566000000E+00  0.10566000000E+00 0. -1.
     999900   -1    0    0    0    0 -0.00000000000E+00 -0.00000000000E+00 -0.74505805969E-08  0.93827000000E+00  0.93827000000E+00 0.  1.
     999902    2    1    2    0    0 -0.19116182824E-02 -0.24183934612E-01 -0.35475427861E-02  0.10194126176E+01  0.10191177474E+01 0.  0.
     999903    2    3    3    0    0 -0.52934515666E-01 -0.11924762911E+00  0.13328852511E-01  0.13266279115E+00  0.19992444806E-01 0.  0.
         14    1    1    2    0    0  0.19116182824E-02  0.24183934612E-01  0.35475427861E-02  0.24517382356E-01  0.00000000000E+00 0. -1.
     999901    1    3    3    0    0  0.51022897384E-01  0.95063694498E-01 -0.16876395297E-01  0.88674982649E+00  0.88000000000E+00 0. -1.
        -11    1    4    4    0    0 -0.22752694312E-01 -0.50188224158E-01 -0.42519556311E-02  0.55270997732E-01  0.51100000000E-03 0.  1.
         11    1    4    4    0    0 -0.30181821354E-01 -0.69059404952E-01  0.17580808142E-01  0.77391793418E-01  0.51100000000E-03 0. -1.
</event>
<event>
 8    1  0.1106905E+005  0.1043930E+01  0.7957747E-01            NaN
         13   -1    0    0    0    0  0.00000000000E+00  0.00000000000E+00  0.74505805969E-08  0.10566000000E+00  0.10566000000E+00 0.  1.
     999900   -1    0    0    0    0 -0.00000000000E+00 -0.00000000000E+00 -0.74505805969E-08  0.93827000000E+00  0.93827000000E+00 0.  1.
     999902    2    1    2    0    0 -0.18580418656E-01  0.21550730744E-02  0.16112683873E-01  0.10192420499E+01  0.10189430119E+01 0.  0.
     999903    2    3    3    0    0  0.51136170022E-01 -0.10953185083E+00 -0.37387622518E-01  0.12784053854E+00  0.18254718462E-01 0.  0.
         14    1    1    2    0    0  0.18580418656E-01 -0.21550730744E-02 -0.16112683873E-01  0.24687950076E-01  0.00000000000E+00 0. -1.
     999901    1    3    3    0    0 -0.69716588678E-01  0.11168692391E+00  0.53500306391E-01  0.89140151138E+00  0.88000000000E+00 0. -1.
        -11    1    4    4    0    0  0.80814711734E-02 -0.13024163845E-01 -0.11131738230E-01  0.18950349264E-01  0.51100000000E-03 0. -1.
         11    1    4    4    0    0  0.43054698849E-01 -0.96507686987E-01 -0.26255884289E-01  0.10889018928E+00  0.51100000000E-03 0.  1.
</event>
<event>
 8    1  0.1106905E+005  0.1043930E+01  0.7957747E-01            NaN
         13   -1    0    0    0    0  0.00000000000E+00  0.00000000000E+00  0.74505805969E-08  0.10566000000E+00  0.10566000000E+00 0. -1.
     999900   -1    0    0    0    0 -0.00000000000E+00 -0.00000000000E+00 -0.74505805969E-08  0.93827000000E+00  0.93827000000E+00 0.  1.
     999902    2    1    2    0    0 -0.32309497751E-02  0.23670332773E-01  0.18540299569E-02  0.10199683407E+01  0.10196868416E+01 0.  0.
     999903    2    3    3    0    0 -0.42779631348E-01 -0.90200991773E-02 -0.12079554617E+00  0.12998200311E+00  0.19806516846E-01 0.  0.
         14    1    1    2    0    0  0.32309497751E-02 -0.23670332773E-01 -0.18540299569E-02  0.23961659315E-01  0.00000000000E+00 0.  1.
     999901    1    3    3    0    0  0.39548681573E-01  0.32690431950E-01  0.12264957613E+00  0.88998633758E+00  0.88000000000E+00 0. -1.
        -11    1    4    4    0    0 -0.27631207842E-01  0.41129540706E-02 -0.70891314662E-01  0.76198685379E-01  0.51100000000E-03 0. -1.
         11    1    4    4    0    0 -0.15148423505E-01 -0.13133053248E-01 -0.49904231507E-01  0.53783317726E-01  0.51100000000E-03 0.  1.
</event>
<event>
 8    1  0.1106905E+005  0.1043930E+01  0.7957747E-01            NaN
         13   -1    0    0    0    0  0.00000000000E+00  0.00000000000E+00  0.74505805969E-08  0.10566000000E+00  0.10566000000E+00 0.  1.
     999900   -1    0    0    0    0 -0.00000000000E+00 -0.00000000000E+00 -0.74505805969E-08  0.93827000000E+00  0.93827000000E+00 0.  1.
     999902    2    1    2    0    0 -0.23198777875E-01  0.57004388932E-02 -0.60997824777E-02  0.10192746630E+01  0.10189764241E+01 0.  0.
     999903    2    3    3    0    0  0.44966487286E-01 -0.11795100286E+00 -0.55939212189E-03  0.12800204566E+00  0.21208175773E-01 0.  0.
         14    1    1    2    0    0  0.23198777875E-01 -0.57004388932E-02  0.60997824777E-02  0.24655337044E-01  0.00000000000E+00 0.  1.
     999901    1    3    3    0    0 -0.68165265161E-01  0.12365144175E+00 -0.55403903558E-02  0.89127261730E+00  0.88000000000E+00 0.  1.
        -11    1    4    4    0    0  0.30243398515E-01 -0.51398434747E-01 -0.38202637495E-02  0.59760503548E-01  0.51100000000E-03 0. -1.
         11    1    4    4    0    0  0.14723088771E-01 -0.66552568108E-01  0.32608716276E-02  0.68241542110E-01  0.51100000000E-03 0.  1.
</event>
<event>
 8    1  0.1106905E+005  0.1043930E+01  0.7957747E-01            NaN
         13   -1    0    0    0    0  0.00000000000E+00  0.00000000000E+00  0.74505805969E-08  0.10566000000E+00  0.10566000000E+00 0.  1.
     999900   -1    0    0    0    0 -0.00000000000E+00 -0.00000000000E+00 -0.74505805969E-08  0.93827000000E+00  0.93827000000E+00 0.  1.
     999902    2    1    2    0    0  0.16242043664E-01 -0.13946099285E-01  0.10627150170E-01  0.10200294982E+01  0.10197494511E+01 0.  0.
     999903    2    3    3    0    0 -0.56014632705E-01 -0.10658699623E+00 -0.45886121008E-01  0.13042446620E+00  0.20163790288E-01 0.  0.
         14    1    1    2    0    0 -0.16242043664E-01  0.13946099285E-01 -0.10627150170E-01  0.23900501844E-01  0.00000000000E+00 0. -1.
     999901    1    3    3    0    0  0.72256676369E-01  0.92640896948E-01  0.56513271178E-01  0.88960503196E+00  0.88000000000E+00 0. -1.
        -11    1    4    4    0    0 -0.28091374647E-01 -0.50754931627E-01 -0.11458963643E-01  0.59133386363E-01  0.51100000000E-03 0.  1.
         11    1    4    4    0    0 -0.27923258058E-01 -0.55832064606E-01 -0.34427157365E-01  0.71291079834E-01  0.51100000000E-03 0. -1.
</event>
<event>
 8    1  0.1106905E+005  0.1043930E+01  0.7957747E-01            NaN
         13   -1    0    0    0    0  0.00000000000E+00  0.00000000000E+00  0.74505805969E-08  0.10566000000E+00  0.10566000000E+00 0. -1.
     999900   -1    0    0    0    0 -0.00000000000E+00 -0.00000000000E+00 -0.74505805969E-08  0.93827000000E+00  0.93827000000E+00 0. -1.
     999902    2    1    2    0    0 -0.19477042723E-01  0.11116313132E-01 -0.85311166195E-02  0.10199360932E+01  0.10196538269E+01 0.  0.
     999903    2    3    3    0    0 -0.12671126676E+00  0.17660829680E-01  0.28928803432E-01  0.13261131893E+00  0.19525271075E-01 0.  0.
         14    1    1    2    0    0  0.19477042723E-01 -0.11116313132E-01  0.85311166195E-02  0.23993906760E-01  0.00000000000E+00 0. -1.
     999901    1    3    3    0    0  0.10723422404E+00 -0.65445165481E-02 -0.37459920051E-01  0.88732477431E+00  0.88000000000E+00 0.  1.
        -11    1    4    4    0    0 -0.32783561791E-01  0.48170386255E-03  0.15198440606E-01  0.36142048644E-01  0.51100000000E-03 0. -1.
         11    1    4    4    0    0 -0.93927704968E-01  0.17179125817E-01  0.13730362826E-01  0.96469270282E-01  0.51100000000E-03 0.  1.
</event>
<event>
 8    1  0.1106905E+005  0.1043930E+01  0.7957747E-01            NaN
         13   -1    0    0    0    0  0.00000000000E+00  0.00000000000E+00  0.74505805969E-08  0.10566000000E+00  0.10566000000E+00 0.  1.
     999900   -1    0    0    0    0 -0.00000000000E+00 -0.00000000000E+00 -0.74505805969E-08  0.93827000000E+00  0.93827000000E+00 0. -1.
     999902    2    1    2    0    0  0.71715617546E-02  0.20544450198E-01  0.90221508871E-02  0.10203735797E+01  0.10201016308E+01 0.  0.
     999903    2    3    3    0    0 -0.33282808672E-01  0.11267743157E+00 -0.56861247688E-01  0.13219248071E+00  0.20921317624E-01 0.  0.
         14    1    1    2    0    0 -0.71715617546E-02 -0.20544450198E-01 -0.90221508871E-02  0.23556420326E-01  0.00000000000E+00 0. -1.
     999901    1    3    3    0    0  0.40454370427E-01 -0.92132981368E-01  0.65883398575E-01  0.88818109896E+00  0.88000000000E+00 0.  1.
        -11    1    4    4    0    0 -0.24195948379E-01  0.87691518316E-01 -0.53107012425E-01  0.10533689853E+00  0.51100000000E-03 0. -1.
         11    1    4    4    0    0 -0.90868602935E-02  0.24985913250E-01 -0.37542352632E-02  0.26855582182E-01  0.51100000000E-03 0.  1.
</event>
<event>
 8    1  0.1106905E+005  0.1043930E+01  0.7957747E-01            NaN
         13   -1    0    0    0    0  0.00000000000E+00  0.00000000000E+00  0.74505805969E-08  0.10566000000E+00  0.10566000000E+00 0. -1.
     999900   -1    0    0    0    0 -0.00000000000E+00 -0.00000000000E+00 -0.74505805969E-08  0.93827000000E+00  0.93827000000E+00 0.  1.
     999902    2    1    2    0    0 -0.23531961274E-01 -0.57225537262E-02 -0.22707480764E-02  0.10196059971E+01  0.10193158157E+01 0.  0.
     999903    2    3    3    0    0  0.12250662701E+00  0.45186483447E-02  0.27403565480E-01  0.12701834512E+00  0.18825853293E-01 0.  0.
         14    1    1    2    0    0  0.23531961274E-01  0.57225537262E-02  0.22707480764E-02  0.24324002947E-01  0.00000000000E+00 0.  1.
     999901    1    3    3    0    0 -0.14603858829E+00 -0.10241202071E-01 -0.29674313556E-01  0.89258765193E+00  0.88000000000E+00 0.  1.
        -11    1    4    4    0    0  0.30522355146E-01  0.92598234551E-02  0.60774024037E-02  0.32473903909E-01  0.51100000000E-03 0. -1.
         11    1    4    4    0    0  0.91984271867E-01 -0.47411751104E-02  0.21326163076E-01  0.94544441216E-01  0.51100000000E-03 0.  1.
</event>
<event>
 8    1  0.1106905E+005  0.1043930E+01  0.7957747E-01            NaN
         13   -1    0    0    0    0  0.00000000000E+00  0.00000000000E+00  0.74505805969E-08  0.10566000000E+00  0.10566000000E+00 0. -1.
     999900   -1    0    0    0    0 -0.00000000000E+00 -0.00000000000E+00 -0.74505805969E-08  0.93827000000E+00  0.93827000000E+00 0.  1.
     999902    2    1    2    0    0 -0.15169095162E-01  0.14860133550E-01 -0.97451865936E-02  0.10205656323E+01  0.10202981506E+01 0.  0.
     999903    2    3    3    0    0 -0.12034856900E+00  0.41842012414E-01 -0.34758596460E-01  0.13353890541E+00  0.19747079966E-01 0.  0.
         14    1    1    2    0    0  0.15169095162E-01 -0.14860133550E-01  0.97451865936E-02  0.23364367719E-01  0.00000000000E+00 0. -1.
     999901    1    3    3    0    0  0.10517947384E+00 -0.26981878864E-01  0.25013409866E-01  0.88702672687E+00  0.88000000000E+00 0. -1.
        -11    1    4    4    0    0 -0.36524069059E-01  0.17865747296E-01 -0.30968940476E-02  0.40780441646E-01  0.51100000000E-03 0. -1.
         11    1    4    4    0    0 -0.83824499944E-01  0.23976265118E-01 -0.31661702412E-01  0.92758463768E-01  0.51100000000E-03 0.  1.
</event>
<event>
 8    1  0.1106905E+005  0.1043930E+01  0.7957747E-01            NaN
         13   -1    0    0    0    0  0.00000000000E+00  0.00000000000E+00  0.74505805969E-08  0.10566000000E+00  0.10566000000E+00 0.  1.
     999900   -1    0    0    0    0 -0.00000000000E+00 -0.00000000000E+00 -0.74505805969E-08  0.93827000000E+00  0.93827000000E+00 0. -1.
     999902    2    1    2    0    0  0.23383670347E-01 -0.89126043050E-02  0.48226849160E-03  0.10189007544E+01  0.10185932869E+01 0.  0.
     999903    2    3    3    0    0  0.38310162967E-01 -0.10715030889E+00  0.62182504956E-01  0.13116184795E+00  0.19695409425E-01 0.  0.
         14    1    1    2    0    0 -0.23383670347E-01  0.89126043050E-02 -0.48226849160E-03  0.25029245640E-01  0.00000000000E+00 0. -1.
     999901    1    3    3    0    0 -0.14926492620E-01  0.98237704583E-01 -0.61700236464E-01  0.88773890642E+00  0.88000000000E+00 0. -1.
        -11    1    4    4    0    0  0.21103326864E-01 -0.78270936196E-01  0.50787525988E-01  0.95662551579E-01  0.51100000000E-03 0. -1.
         11    1    4    4    0    0  0.17206836103E-01 -0.28879372692E-01  0.11394978968E-01  0.35499296366E-01  0.51100000000E-03 0.  1.
</event>
<event>
 8    1  0.1106905E+005  0.1043930E+01  0.7957747E-01            NaN
         13   -1    0    0    0    0  0.00000000000E+00  0.00000000000E+00  0.74505805969E-08  0.10566000000E+00  0.10566000000E+00 0. -1.
     999900   -1    0    0    0    0 -0.00000000000E+00 -0.00000000000E+00 -0.74505805969E-08  0.93827000000E+00  0.93827000000E+00 0.  1.
     999902    2    1    2    0    0  0.11194077189E-01  0.13325764931E-01 -0.19073880647E-01  0.10181095372E+01  0.10177820658E+01 0.  0.
     999903    2    3    3    0    0  0.17611236605E-01 -0.10578127803E+00  0.63508747464E-01  0.12623086942E+00  0.20025907075E-01 0.  0.
         14    1    1    2    0    0 -0.11194077189E-01 -0.13325764931E-01  0.19073880647E-01  0.25820462777E-01  0.00000000000E+00 0. -1.
     999901    1    3    3    0    0 -0.64171594160E-02  0.11910704296E+00 -0.82582628111E-01  0.89187866780E+00  0.88000000000E+00 0.  1.
        -11    1    4    4    0    0  0.83187038454E-02 -0.63070590695E-01  0.26355191886E-01  0.68861872648E-01  0.51100000000E-03 0. -1.
         11    1    4    4    0    0  0.92925327594E-02 -0.42710687332E-01  0.37153555578E-01  0.57368996771E-01  0.51100000000E-03 0.  1.
</event>
<event>
 8    1  0.1106905E+005  0.1043930E+01  0.7957747E-01            NaN
         13   -1    0    0    0    0  0.00000000000E+00  0.00000000000E+00  0.74505805969E-08  0.10566000000E+00  0.10566000000E+00 0.  1.
     999900   -1    0    0    0    0 -0.00000000000E+00 -0.00000000000E+00 -0.74505805969E-08  0.93827000000E+00  0.93827000000E+00 0. -1.
     999902    2    1    2    0    0  0.56562503635E-02 -0.63953923179E-02 -0.20276032142E-01  0.10219297343E+01  0.10216928943E+01 0.  0.
     999903    2    3    3    0    0 -0.49729483400E-01  0.20805216256E-01  0.11585149597E+00  0.12932783171E+00  0.19955961352E-01 0.  0.
         14    1    1    2    0    0 -0.56562503635E-02  0.63953923179E-02  0.20276032142E-01  0.22000265692E-01  0.00000000000E+00 0.  1.
     999901    1    3    3    0    0  0.55385733763E-01 -0.27200608574E-01 -0.13612752811E+00  0.89260190260E+00  0.88000000000E+00 0. -1.
        -11    1    4    4    0    0 -0.26925738162E-01  0.16632938075E-01  0.46901764354E-01  0.56583448332E-01  0.51100000000E-03 0. -1.
         11    1    4    4    0    0 -0.22803745238E-01  0.41722781810E-02  0.68949731617E-01  0.72744383378E-01  0.51100000000E-03 0.  1.
</event>
<event>
 8    1  0.1106905E+005  0.1043930E+01  0.7957747E-01            NaN
         13   -1    0    0    0    0  0.00000000000E+00  0.00000000000E+00  0.74505805969E-08  0.10566000000E+00  0.10566000000E+00 0.  1.
     999900   -1    0    0    0    0 -0.00000000000E+00 -0.00000000000E+00 -0.74505805969E-08  0.93827000000E+00  0.93827000000E+00 0. -1.
     999902    2    1    2    0    0  0.16483465857E-01 -0.78360282078E-02 -0.12958419643E-01  0.10215463313E+01  0.10213010714E+01 0.  0.
     999903    2    3    3    0    0 -0.56447218203E-01  0.71136683098E-01  0.89344673429E-01  0.12912182656E+00  0.21053724128E-01 0.  0.
         14    1    1    2    0    0 -0.16483465857E-01  0.78360282078E-02  0.12958419643E-01  0.22383668697E-01  0.00000000000E+00 0.  1.
     999901    1    3    3    0    0  0.72930684060E-01 -0.78972711305E-01 -0.10230309307E+00  0.89242450474E+00  0.88000000000E+00 0. -1.
        -11    1    4    4    0    0 -0.17424079462E-01  0.19998516060E-01  0.40218322901E-01  0.48180014608E-01  0.51100000000E-03 0. -1.
         11    1    4    4    0    0 -0.39023138741E-01  0.51138167038E-01  0.49126350528E-01  0.80941811954E-01  0.51100000000E-03 0.  1.
</event>
<event>
 8    1  0.1106905E+005  0.1043930E+01  0.7957747E-01            NaN
         13   -1    0    0    0    0  0.00000000000E+00  0.00000000000E+00  0.74505805969E-08  0.10566000000E+00  0.10566000000E+00 0. -1.
     999900   -1    0    0    0    0 -0.00000000000E+00 -0.00000000000E+00 -0.74505805969E-08  0.93827000000E+00  0.93827000000E+00 0.  1.
     999902    2    1    2    0    0  0.13639931795E-01  0.61487495821E-02 -0.18588156173E-01  0.10200684324E+01  0.10197893078E+01 0.  0.
     999903    2    3    3    0    0 -0.35565993412E-01  0.96705535758E-01 -0.79832995809E-01  0.13193967762E+00  0.20441887803E-01 0.  0.
         14    1    1    2    0    0 -0.13639931795E-01 -0.61487495821E-02  0.18588156173E-01  0.23861567649E-01  0.00000000000E+00 0. -1.
     999901    1    3    3    0    0  0.49205925207E-01 -0.90556786176E-01  0.61244839636E-01  0.88812875473E+00  0.88000000000E+00 0. -1.
        -11    1    4    4    0    0 -0.23577397477E-01  0.39293756276E-01 -0.28277348781E-01  0.53849443164E-01  0.51100000000E-03 0. -1.
         11    1    4    4    0    0 -0.11988595935E-01  0.57411779482E-01 -0.51555647028E-01  0.78090234455E-01  0.51100000000E-03 0.  1.
</event>
<event>
 8    1  0.1106905E+005  0.1043930E+01  0.7957747E-01            NaN
         13   -1    0    0    0    0  0.00000000000E+00  0.00000000000E+00  0.74505805969E-08  0.10566000000E+00  0.10566000000E+00 0.  1.
     999900   -1    0    0    0    0 -0.00000000000E+00 -0.00000000000E+00 -0.74505805969E-08  0.93827000000E+00  0.93827000000E+00 0.  1.
     999902    2    1    2    0    0  0.17152015911E-01 -0.71852817999E-02  0.11455965160E-01  0.10220883182E+01  0.10218549169E+01 0.  0.
     999903    2    3    3    0    0 -0.89326086508E-01  0.49169864056E-01 -0.77256246045E-01  0.12946110312E+00  0.19870188862E-01 0.  0.
         14    1    1    2    0    0 -0.17152015911E-01  0.71852817999E-02 -0.11455965160E-01  0.21841681760E-01  0.00000000000E+00 0. -1.
     999901    1    3    3    0    0  0.10647810242E+00 -0.56355145856E-01  0.88712211205E-01  0.89262721512E+00  0.88000000000E+00 0. -1.
        -11    1    4    4    0    0 -0.35140365470E-01  0.16288320739E-01 -0.18080756999E-01  0.42747275615E-01  0.51100000000E-03 0. -1.
         11    1    4    4    0    0 -0.54185721038E-01  0.32881543316E-01 -0.59175489046E-01  0.86713827503E-01  0.51100000000E-03 0.  1.
</event>
<event>
 8    1  0.1106905E+005  0.1043930E+01  0.7957747E-01            NaN
         13   -1    0    0    0    0  0.00000000000E+00  0.00000000000E+00  0.74505805969E-08  0.10566000000E+00  0.10566000000E+00 0.  1.
     999900   -1    0    0    0    0 -0.00000000000E+00 -0.00000000000E+00 -0.74505805969E-08  0.93827000000E+00  0.93827000000E+00 0.  1.
     999902    2    1    2    0    0  0.48499959561E-02  0.84344151265E-02  0.20489417267E-01  0.10212478916E+01  0.10209959736E+01 0.  0.
     999903    2    3    3    0    0  0.54821940854E-01  0.77872062420E-01  0.93087753756E-01  0.13412371736E+00  0.15947989087E-01 0.  0.
         14    1    1    2    0    0 -0.48499959561E-02 -0.84344151265E-02 -0.20489417267E-01  0.22682108351E-01  0.00000000000E+00 0. -1.
     999901    1    3    3    0    0 -0.49971944898E-01 -0.69437647293E-01 -0.72598336489E-01  0.88712417428E+00  0.88000000000E+00 0.  1.
        -11    1    4    4    0    0  0.13889312470E-01  0.97899368379E-02  0.13952081657E-01  0.21992670773E-01  0.51100000000E-03 0.  1.
         11    1    4    4    0    0  0.40932628384E-01  0.68082125582E-01  0.79135672099E-01  0.11213104659E+00  0.51100000000E-03 0. -1.
</event>
<event>
 8    1  0.1106905E+005  0.1043930E+01  0.7957747E-01            NaN
         13   -1    0    0    0    0  0.00000000000E+00  0.00000000000E+00  0.74505805969E-08  0.10566000000E+00  0.10566000000E+00 0.  1.
     999900   -1    0    0    0    0 -0.00000000000E+00 -0.00000000000E+00 -0.74505805969E-08  0.93827000000E+00  0.93827000000E+00 0.  1.
     999902    2    1    2    0    0 -0.44339333419E-02 -0.14281609394E-01 -0.17695529248E-01  0.10207620073E+01  0.10204990542E+01 0.  0.
     999903    2    3    3    0    0  0.21817216027E-01  0.81967899581E-01 -0.98345209775E-01  0.13146033641E+00  0.20379212134E-01 0.  0.
         14    1    1    2    0    0  0.44339333419E-02  0.14281609394E-01  0.17695529248E-01  0.23167992729E-01  0.00000000000E+00 0.  1.
     999901    1    3    3    0    0 -0.26251149369E-01 -0.96249508975E-01  0.80649680527E-01  0.88930167086E+00  0.88000000000E+00 0. -1.
        -11    1    4    4    0    0  0.74124250294E-02  0.32323724154E-01 -0.24129119548E-01  0.41015152312E-01  0.51100000000E-03 0.  1.
         11    1    4    4    0    0  0.14404790997E-01  0.49644175427E-01 -0.74216090227E-01  0.90445184101E-01  0.51100000000E-03 0. -1.
</event>
<event>
 8    1  0.1106905E+005  0.1043930E+01  0.7957747E-01            NaN
         13   -1    0    0    0    0  0.00000000000E+00  0.00000000000E+00  0.74505805969E-08  0.10566000000E+00  0.10566000000E+00 0. -1.
     999900   -1    0    0    0    0 -0.00000000000E+00 -0.00000000000E+00 -0.74505805969E-08  0.93827000000E+00  0.93827000000E+00 0. -1.
     999902    2    1    2    0    0 -0.17276245574E-01 -0.73382413088E-02  0.14303615817E-01  0.10203310197E+01  0.10200580757E+01 0.  0.
     999903    2    3    3    0    0 -0.30691250692E-01 -0.11391617114E+00 -0.53766093275E-01  0.13118969077E+00  0.20027362837E-01 0.  0.
         14    1    1    2    0    0  0.17276245574E-01  0.73382413088E-02 -0.14303615817E-01  0.23598980318E-01  0.00000000000E+00 0.  1.
     999901    1    3    3    0    0  0.13415005118E-01  0.10657792983E+00  0.68069709092E-01  0.88914132891E+00  0.88000000000E+00 0.  1.
        -11    1    4    4    0    0 -0.33548531617E-01 -0.10112250999E+00 -0.48188917611E-01  0.11693459241E+00  0.51100000000E-03 0.  1.
         11    1    4    4    0    0  0.28572809257E-02 -0.12793661148E-01 -0.55771756636E-02  0.14255098360E-01  0.51100000000E-03 0. -1.
</event>
<event>
 8    1  0.1106905E+005  0.1043930E+01  0.7957747E-01            NaN
         13   -1    0    0    0    0  0.00000000000E+00  0.00000000000E+00  0.74505805969E-08  0.10566000000E+00  0.10566000000E+00 0.  1.
     999900   -1    0    0    0    0 -0.00000000000E+00 -0.00000000000E+00 -0.74505805969E-08  0.93827000000E+00  0.93827000000E+00 0. -1.
     999902    2    1    2    0    0 -0.24324963148E-02  0.21237708727E-01  0.88301614427E-02  0.10208014665E+01  0.10205394186E+01 0.  0.
     999903    2    3    3    0    0  0.84603049729E-01 -0.25314859555E-01 -0.93318592149E-01  0.12941115035E+00  0.15503807790E-01 0.  0.
         14    1    1    2    0    0  0.24324963148E-02 -0.21237708727E-01 -0.88301614427E-02  0.23128533490E-01  0.00000000000E+00 0. -1.
     999901    1    3    3    0    0 -0.87035546044E-01  0.46552568281E-01  0.10214875359E+00  0.89139031616E+00  0.88000000000E+00 0.  1.
        -11    1    4    4    0    0  0.44883058613E-01 -0.11004028905E-01 -0.59345647129E-01  0.75217980275E-01  0.51100000000E-03 0.  1.
         11    1    4    4    0    0  0.39719991116E-01 -0.14310830649E-01 -0.33972945020E-01  0.54193170072E-01  0.51100000000E-03 0. -1.
</event>
<event>
 8    1  0.1106905E+005  0.1043930E+01  0.7957747E-01            NaN
         13   -1    0    0    0    0  0.00000000000E+00  0.00000000000E+00  0.74505805969E-08  0.10566000000E+00  0.10566000000E+00 0.  1.
     999900   -1    0    0    0    0 -0.00000000000E+00 -0.00000000000E+00 -0.74505805969E-08  0.93827000000E+00  0.93827000000E+00 0. -1.
     999902    2    1    2    0    0 -0.11941946409E-01 -0.98184898640E-02  0.24576097653E-01  0.10148955824E+01  0.10144801850E+01 0.  0.
     999903    2    3    3    0    0 -0.85242312652E-01 -0.59660683469E-01  0.73780441339E-01  0.12907491470E+00  0.19777033718E-01 0.  0.
         14    1    1    2    0    0  0.11941946409E-01  0.98184898640E-02 -0.24576097653E-01  0.29034417561E-01  0.00000000000E+00 0. -1.
     999901    1    3    3    0    0  0.73300366242E-01  0.49842193605E-01 -0.49204343686E-01  0.88582066774E+00  0.88000000000E+00 0.  1.
        -11    1    4    4    0    0 -0.54755953233E-01 -0.47335853520E-01  0.43991248952E-01  0.84701762368E-01  0.51100000000E-03 0. -1.
         11    1    4    4    0    0 -0.30486359419E-01 -0.12324829949E-01  0.29789192387E-01  0.44373152333E-01  0.51100000000E-03 0.  1.
</event>
<event>
 8    1  0.1106905E+005  0.1043930E+01  0.7957747E-01            NaN
         13   -1    0    0    0    0  0.00000000000E+00  0.00000000000E+00  0.74505805969E-08  0.10566000000E+00  0.10566000000E+00 0. -1.
     999900   -1    0    0    0    0 -0.00000000000E+00 -0.00000000000E+00 -0.74505805969E-08  0.93827000000E+00  0.93827000000E+00 0. -1.
     999902    2    1    2    0    0  0.17454921509E-02 -0.53673930184E-02  0.23402821741E-01  0.10198562027E+01  0.10195720310E+01 0.  0.
     999903    2    3    3    0    0  0.54162695343E-01 -0.92590521818E-01  0.74930446426E-01  0.13249464534E+00  0.20824431437E-01 0.  0.
         14    1    1    2    0    0 -0.17454921509E-02  0.53673930184E-02 -0.23402821741E-01  0.24073797293E-01  0.00000000000E+00 0.  1.
     999901    1    3    3    0    0 -0.52417203192E-01  0.87223128800E-01 -0.51527624685E-01  0.88736155737E+00  0.88000000000E+00 0. -1.
        -11    1    4    4    0    0  0.36619093163E-01 -0.52141153483E-01  0.33482370058E-01  0.71979080964E-01  0.51100000000E-03 0.  1.
         11    1    4    4    0    0  0.17543602179E-01 -0.40449368335E-01  0.41448076368E-01  0.60515564376E-01  0.51100000000E-03 0. -1.
</event>
<event>
 8    1  0.1106905E+005  0.1043930E+01  0.7957747E-01            NaN
         13   -1    0    0    0    0  0.00000000000E+00  0.00000000000E+00  0.74505805969E-08  0.10566000000E+00  0.10566000000E+00 0.  1.
     999900   -1    0    0    0    0 -0.00000000000E+00 -0.00000000000E+00 -0.74505805969E-08  0.93827000000E+00  0.93827000000E+00 0. -1.
     999902    2    1    2    0    0  0.96279042607E-02 -0.88847155809E-02 -0.20016967524E-01  0.10200069212E+01  0.10197263386E+01 0.  0.
     999903    2    3    3    0    0 -0.75595296465E-01  0.80294430059E-01 -0.66281223650E-01  0.13020003463E+00  0.19924960793E-01 0.  0.
         14    1    1    2    0    0 -0.96279042607E-02  0.88847155809E-02  0.20016967524E-01  0.23923078821E-01  0.00000000000E+00 0. -1.
     999901    1    3    3    0    0  0.85223200725E-01 -0.89179145640E-01  0.46264256126E-01  0.88980688655E+00  0.88000000000E+00 0.  1.
        -11    1    4    4    0    0 -0.48895783599E-01  0.54759163494E-01 -0.33066810185E-01  0.80517319237E-01  0.51100000000E-03 0. -1.
         11    1    4    4    0    0 -0.26699512866E-01  0.25535266565E-01 -0.33214413465E-01  0.49682715391E-01  0.51100000000E-03 0.  1.
</event>
<event>
 8    1  0.1106905E+005  0.1043930E+01  0.7957747E-01            NaN
         13   -1    0    0    0    0  0.00000000000E+00  0.00000000000E+00  0.74505805969E-08  0.10566000000E+00  0.10566000000E+00 0. -1.
     999900   -1    0    0    0    0 -0.00000000000E+00 -0.00000000000E+00 -0.74505805969E-08  0.93827000000E+00  0.93827000000E+00 0. -1.
     999902    2    1    2    0    0 -0.40028128244E-02  0.54874307419E-02 -0.22593700329E-01  0.10203374228E+01  0.10200646286E+01 0.  0.
     999903    2    3    3    0    0 -0.11915712965E+00 -0.28447333196E-01 -0.44025715891E-01  0.13192793598E+00  0.21425319628E-01 0.  0.
         14    1    1    2    0    0  0.40028128244E-02 -0.54874307419E-02  0.22593700329E-01  0.23592577249E-01  0.00000000000E+00 0. -1.
     999901    1    3    3    0    0  0.11515431682E+00  0.33934763938E-01  0.21432015562E-01  0.88840948677E+00  0.88000000000E+00 0.  1.
        -11    1    4    4    0    0 -0.82960084915E-01 -0.26675129806E-01 -0.23424080168E-01  0.90237945965E-01  0.51100000000E-03 0.  1.
         11    1    4    4    0    0 -0.36197044734E-01 -0.17722033899E-02 -0.20601635723E-01  0.41689990019E-01  0.51100000000E-03 0. -1.
</event>
<event>
 8    1  0.1106905E+005  0.1043930E+01  0.7957747E-01            NaN
         13   -1    0    0    0    0  0.00000000000E+00  0.00000000000E+00  0.74505805969E-08  0.10566000000E+00  0.10566000000E+00 0. -1.
     999900   -1    0    0    0    0 -0.00000000000E+00 -0.00000000000E+00 -0.74505805969E-08  0.93827000000E+00  0.93827000000E+00 0. -1.
     999902    2    1    2    0    0 -0.11138563271E-01  0.12619947474E-01  0.16904486815E-01  0.10200743436E+01  0.10197953590E+01 0.  0.
     999903    2    3    3    0    0 -0.89007132219E-02 -0.11756981318E+00 -0.46449191093E-01  0.12824023897E+00  0.19650645564E-01 0.  0.
         14    1    1    2    0    0  0.11138563271E-01 -0.12619947474E-01 -0.16904486815E-01  0.23855656362E-01  0.00000000000E+00 0.  1.
     999901    1    3    3    0    0 -0.22378500490E-02  0.13018976065E+00  0.63353677907E-01  0.89183410467E+00  0.88000000000E+00 0.  1.
        -11    1    4    4    0    0 -0.13361440877E-01 -0.66416392816E-01 -0.31803393865E-01  0.74842383175E-01  0.51100000000E-03 0. -1.
         11    1    4    4    0    0  0.44607276556E-02 -0.51153420360E-01 -0.14645797228E-01  0.53397855792E-01  0.51100000000E-03 0.  1.
</event>
<event>
 8    1  0.1106905E+005  0.1043930E+01  0.7957747E-01            NaN
         13   -1    0    0    0    0  0.00000000000E+00  0.00000000000E+00  0.74505805969E-08  0.10566000000E+00  0.10566000000E+00 0. -1.
     999900   -1    0    0    0    0 -0.00000000000E+00 -0.00000000000E+00 -0.74505805969E-08  0.93827000000E+00  0.93827000000E+00 0. -1.
     999902    2    1    2    0    0 -0.78179255265E-02  0.22018628015E-01 -0.92851420206E-03  0.10205462005E+01  0.10202782686E+01 0.  0.
     999903    2    3    3    0    0 -0.10956869576E+00  0.16174455882E-01  0.68897396676E-01  0.13191633865E+00  0.19701700962E-01 0.  0.
         14    1    1    2    0    0  0.78179255265E-02 -0.22018628015E-01  0.92851420206E-03  0.23383799474E-01  0.00000000000E+00 0. -1.
     999901    1    3    3    0    0  0.10175077023E+00  0.58441721334E-02 -0.69825910879E-01  0.88862986188E+00  0.88000000000E+00 0.  1.
        -11    1    4    4    0    0 -0.68247019291E-01  0.18276529319E-01  0.49147326184E-01  0.86066299781E-01  0.51100000000E-03 0.  1.
         11    1    4    4    0    0 -0.41321676466E-01 -0.21020734369E-02  0.19750070493E-01  0.45850038867E-01  0.51100000000E-03 0. -1.
</event>
<event>
 8    1  0.1106905E+005  0.1043930E+01  0.7957747E-01            NaN
         13   -1    0    0    0    0  0.00000000000E+00  0.00000000000E+00  0.74505805969E-08  0.10566000000E+00  0.10566000000E+00 0. -1.
     999900   -1    0    0    0    0 -0.00000000000E+00 -0.00000000000E+00 -0.74505805969E-08  0.93827000000E+00  0.93827000000E+00 0. -1.
     999902    2    1    2    0    0  0.22227984350E-01  0.32390114934E-02 -0.84679758479E-02  0.10199241445E+01  0.10196415936E+01 0.  0.
     999903    2    3    3    0    0 -0.30512533008E-01  0.12365866477E+00 -0.19296318024E-01  0.13009286382E+00  0.18147321690E-01 0.  0.
         14    1    1    2    0    0 -0.22227984350E-01 -0.32390114934E-02  0.84679758479E-02  0.24005855508E-01  0.00000000000E+00 0. -1.
     999901    1    3    3    0    0  0.52740517357E-01 -0.12041965328E+00  0.10828342177E-01  0.88983128067E+00  0.88000000000E+00 0. -1.
        -11    1    4    4    0    0 -0.26050624843E-01  0.68639836261E-01 -0.95517398870E-02  0.74037551503E-01  0.51100000000E-03 0.  1.
         11    1    4    4    0    0 -0.44619081646E-02  0.55018828510E-01 -0.97445781375E-02  0.56055312318E-01  0.51100000000E-03 0. -1.
</event>
<event>
 8    1  0.1106905E+005  0.1043930E+01  0.7957747E-01            NaN
         13   -1    0    0    0    0  0.00000000000E+00  0.00000000000E+00  0.74505805969E-08  0.10566000000E+00  0.10566000000E+00 0. -1.
     999900   -1    0    0    0    0 -0.00000000000E+00 -0.00000000000E+00 -0.74505805969E-08  0.93827000000E+00  0.93827000000E+00 0.  1.
     999902    2    1    2    0    0  0.10887836626E-01 -0.16947939681E-01 -0.13751611779E-01  0.10195397464E+01  0.10192479629E+01 0.  0.
     999903    2    3    3    0    0 -0.46562113359E-01 -0.83453142585E-01 -0.88918329495E-01  0.13197370701E+00  0.19445632257E-01 0.  0.
         14    1    1    2    0    0 -0.10887836626E-01  0.16947939681E-01  0.13751611779E-01  0.24390253634E-01  0.00000000000E+00 0.  1.
     999901    1    3    3    0    0  0.57449949985E-01  0.66505202904E-01  0.75166717717E-01  0.88756603936E+00  0.88000000000E+00 0.  1.
        -11    1    4    4    0    0 -0.36967280734E-01 -0.69141813584E-01 -0.61767439602E-01  0.99813065009E-01  0.51100000000E-03 0. -1.
         11    1    4    4    0    0 -0.95948326252E-02 -0.14311329001E-01 -0.27150889893E-01  0.32160642000E-01  0.51100000000E-03 0.  1.
</event>
<event>
 8    1  0.1106905E+005  0.1043930E+01  0.7957747E-01            NaN
         13   -1    0    0    0    0  0.00000000000E+00  0.00000000000E+00  0.74505805969E-08  0.10566000000E+00  0.10566000000E+00 0.  1.
     999900   -1    0    0    0    0 -0.00000000000E+00 -0.00000000000E+00 -0.74505805969E-08  0.93827000000E+00  0.93827000000E+00 0. -1.
     999902    2    1    2    0    0 -0.98450261201E-02 -0.62616465542E-02 -0.19923453513E-01  0.10208415449E+01  0.10205804148E+01 0.  0.
     999903    2    3    3    0    0 -0.82598694704E-01  0.13176773895E-01 -0.10262669586E+00  0.13376163041E+00  0.19072580560E-01 0.  0.
         14    1    1    2    0    0  0.98450261201E-02  0.62616465542E-02  0.19923453513E-01  0.23088455053E-01  0.00000000000E+00 0.  1.
     999901    1    3    3    0    0  0.72753668584E-01 -0.19438420450E-01  0.82703242348E-01  0.88707991454E+00  0.88000000000E+00 0.  1.
        -11    1    4    4    0    0 -0.49904868315E-01  0.15863592190E-01 -0.55151919621E-01  0.76053565318E-01  0.51100000000E-03 0. -1.
         11    1    4    4    0    0 -0.32693826389E-01 -0.26868182944E-02 -0.47474776240E-01  0.57708065091E-01  0.51100000000E-03 0.  1.
</event>
<event>
 8    1  0.1106905E+005  0.1043930E+01  0.7957747E-01            NaN
         13   -1    0    0    0    0  0.00000000000E+00  0.00000000000E+00  0.74505805969E-08  0.10566000000E+00  0.10566000000E+00 0.  1.
     999900   -1    0    0    0    0 -0.00000000000E+00 -0.00000000000E+00 -0.74505805969E-08  0.93827000000E+00  0.93827000000E+00 0. -1.
     999902    2    1    2    0    0  0.76271970844E-02 -0.22424483138E-01 -0.43674184812E-02  0.10198446118E+01  0.10195601632E+01 0.  0.
     999903    2    3    3    0    0 -0.63994281525E-01  0.10786563761E+00  0.93234865110E-02  0.12726823266E+00  0.19493891350E-01 0.  0.
         14    1    1    2    0    0 -0.76271970844E-02  0.22424483138E-01  0.43674184812E-02  0.24085388176E-01  0.00000000000E+00 0.  1.
     999901    1    3    3    0    0  0.71621478609E-01 -0.13029012074E+00 -0.13690904992E-01  0.89257637916E+00  0.88000000000E+00 0.  1.
        -11    1    4    4    0    0 -0.54775601362E-01  0.78545096180E-01  0.11518114384E-01  0.96450125549E-01  0.51100000000E-03 0.  1.
         11    1    4    4    0    0 -0.92186801624E-02  0.29320541425E-01 -0.21946278733E-02  0.30818107111E-01  0.51100000000E-03 0. -1.
</event>
<event>
 8    1  0.1106905E+005  0.1043930E+01  0.7957747E-01            NaN
         13   -1    0    0    0    0  0.00000000000E+00  0.00000000000E+00  0.74505805969E-08  0.10566000000E+00  0.10566000000E+00 0.  1.
     999900   -1    0    0    0    0 -0.00000000000E+00 -0.00000000000E+00 -0.74505805969E-08  0.93827000000E+00  0.93827000000E+00 0. -1.
     999902    2    1    2    0    0  0.14285479296E-01 -0.15689042572E-01 -0.11481149134E-01  0.10198045412E+01  0.10195191340E+01 0.  0.
     999903    2    3    3    0    0  0.44996131361E-01  0.11861760110E+00 -0.96298495756E-02  0.12908301011E+00  0.21792254804E-01 0.  0.
         14    1    1    2    0    0 -0.14285479296E-01  0.15689042572E-01  0.11481149134E-01  0.24125458772E-01  0.00000000000E+00 0.  1.
     999901    1    3    3    0    0 -0.30710652065E-01 -0.13430664367E+00 -0.18512995584E-02  0.89072153112E+00  0.88000000000E+00 0. -1.
        -11    1    4    4    0    0  0.15998827004E-01  0.21654991349E-01  0.29811803990E-02  0.27093351092E-01  0.51100000000E-03 0.  1.
         11    1    4    4    0    0  0.28997304357E-01  0.96962609747E-01 -0.12611029975E-01  0.10198965902E+00  0.51100000000E-03 0. -1.
</event>
<event>
 8    1  0.1106905E+005  0.1043930E+01  0.7957747E-01            NaN
         13   -1    0    0    0    0  0.00000000000E+00  0.00000000000E+00  0.74505805969E-08  0.10566000000E+00  0.10566000000E+00 0.  1.
     999900   -1    0    0    0    0 -0.00000000000E+00 -0.00000000000E+00 -0.74505805969E-08  0.93827000000E+00  0.93827000000E+00 0. -1.
     999902    2    1    2    0    0 -0.71274272373E-02  0.10924678865E-01  0.19726863773E-01  0.10202805184E+01  0.10200063912E+01 0.  0.
     999903    2    3    3    0    0  0.11361532780E+00  0.25671754042E-01 -0.51189732388E-01  0.12908724374E+00  0.21809312883E-01 0.  0.
         14    1    1    2    0    0  0.71274272373E-02 -0.10924678865E-01 -0.19726863773E-01  0.23649481636E-01  0.00000000000E+00 0. -1.
     999901    1    3    3    0    0 -0.12074275504E+00 -0.14747075177E-01  0.70916596161E-01  0.89119327462E+00  0.88000000000E+00 0.  1.
        -11    1    4    4    0    0  0.75403038847E-01  0.27411375761E-01 -0.35647803665E-01  0.87795380377E-01  0.51100000000E-03 0.  1.
         11    1    4    4    0    0  0.38212288952E-01 -0.17396217189E-02 -0.15541928723E-01  0.41291863365E-01  0.51100000000E-03 0. -1.
</event>
<event>
 8    1  0.1106905E+005  0.1043930E+01  0.7957747E-01            NaN
         13   -1    0    0    0    0  0.00000000000E+00  0.00000000000E+00  0.74505805969E-08  0.10566000000E+00  0.10566000000E+00 0.  1.
     999900   -1    0    0    0    0 -0.00000000000E+00 -0.00000000000E+00 -0.74505805969E-08  0.93827000000E+00  0.93827000000E+00 0.  1.
     999902    2    1    2    0    0  0.19852669518E-01 -0.27214910216E-01 -0.14242402186E-02  0.10102134123E+01  0.10096505980E+01 0.  0.
     999903    2    3    3    0    0 -0.10871213582E-01 -0.10001758932E-01  0.11879095240E+00  0.12134225061E+00  0.19860335951E-01 0.  0.
         14    1    1    2    0    0 -0.19852669518E-01  0.27214910216E-01  0.14242402186E-02  0.33716587687E-01  0.00000000000E+00 0. -1.
     999901    1    3    3    0    0  0.30723883100E-01 -0.17213151284E-01 -0.12021519262E+00  0.88887116170E+00  0.88000000000E+00 0.  1.
        -11    1    4    4    0    0 -0.15591716429E-01 -0.97435091872E-02  0.72072002910E-01  0.74381935421E-01  0.51100000000E-03 0. -1.
         11    1    4    4    0    0  0.47205028466E-02 -0.25824974441E-03  0.46718949492E-01  0.46960315190E-01  0.51100000000E-03 0.  1.
</event>
<event>
 8    1  0.1106905E+005  0.1043930E+01  0.7957747E-01            NaN
         13   -1    0    0    0    0  0.00000000000E+00  0.00000000000E+00  0.74505805969E-08  0.10566000000E+00  0.10566000000E+00 0.  1.
     999900   -1    0    0    0    0 -0.00000000000E+00 -0.00000000000E+00 -0.74505805969E-08  0.93827000000E+00  0.93827000000E+00 0.  1.
     999902    2    1    2    0    0 -0.48162373286E-02 -0.15613702320E-01 -0.15567020412E-01  0.10213619703E+01  0.10211126080E+01 0.  0.
     999903    2    3    3    0    0  0.10304446825E+00  0.45439775396E-01  0.60578291021E-01  0.12942051063E+00  0.19924949263E-01 0.  0.
         14    1    1    2    0    0  0.48162373286E-02  0.15613702320E-01  0.15567020412E-01  0.22568029747E-01  0.00000000000E+00 0.  1.
     999901    1    3    3    0    0 -0.10786070558E+00 -0.61053477716E-01 -0.76145311433E-01  0.89194145963E+00  0.88000000000E+00 0. -1.
        -11    1    4    4    0    0  0.54575783487E-01  0.19916574189E-01  0.20754905442E-01  0.61694515895E-01  0.51100000000E-03 0.  1.
         11    1    4    4    0    0  0.48468684762E-01  0.25523201206E-01  0.39823385579E-01  0.67725994731E-01  0.51100000000E-03 0. -1.
</event>
<event>
 8    1  0.1106905E+005  0.1043930E+01  0.7957747E-01            NaN
         13   -1    0    0    0    0  0.00000000000E+00  0.00000000000E+00  0.74505805969E-08  0.10566000000E+00  0.10566000000E+00 0. -1.
     999900   -1    0    0    0    0 -0.00000000000E+00 -0.00000000000E+00 -0.74505805969E-08  0.93827000000E+00  0.93827000000E+00 0. -1.
     999902    2    1    2    0    0  0.20617042463E-02  0.62781867892E-02 -0.98980436919E-02  0.10320288436E+01  0.10319602204E+01 0.  0.
     999903    2    3    3    0    0 -0.11243375645E+00 -0.79481737059E-01  0.15855215591E-01  0.14010552551E+00  0.20481071791E-01 0.  0.
         14    1    1    2    0    0 -0.20617042463E-02 -0.62781867892E-02  0.98980436919E-02  0.11901156359E-01  0.00000000000E+00 0. -1.
     999901    1    3    3    0    0  0.11449546070E+00  0.85759923848E-01 -0.25753259283E-01  0.89192331813E+00  0.88000000000E+00 0. -1.
        -11    1    4    4    0    0 -0.51647817705E-01 -0.28799849855E-01  0.14770083964E-01  0.60953629315E-01  0.51100000000E-03 0. -1.
         11    1    4    4    0    0 -0.60785938746E-01 -0.50681887204E-01  0.10851316266E-02  0.79151896196E-01  0.51100000000E-03 0.  1.
</event>
<event>
 8    1  0.1106905E+005  0.1043930E+01  0.7957747E-01            NaN
         13   -1    0    0    0    0  0.00000000000E+00  0.00000000000E+00  0.74505805969E-08  0.10566000000E+00  0.10566000000E+00 0. -1.
     999900   -1    0    0    0    0 -0.00000000000E+00 -0.00000000000E+00 -0.74505805969E-08  0.93827000000E+00  0.93827000000E+00 0.  1.
     999902    2    1    2    0    0  0.64099711476E-02  0.22623602124E-01 -0.51784370251E-02  0.10198523898E+01  0.10195681270E+01 0.  0.
     999903    2    3    3    0    0  0.48058945136E-01 -0.77380963988E-01 -0.89050761969E-01  0.12925140329E+00  0.21872614129E-01 0.  0.
         14    1    1    2    0    0 -0.64099711476E-02 -0.22623602124E-01  0.51784370251E-02  0.24077610206E-01  0.00000000000E+00 0. -1.
     999901    1    3    3    0    0 -0.41648973989E-01  0.10000456611E+00  0.83872324944E-01  0.89060098651E+00  0.88000000000E+00 0. -1.
        -11    1    4    4    0    0  0.30685035524E-01 -0.45796029287E-01 -0.38830949061E-01  0.67431086522E-01  0.51100000000E-03 0.  1.
         11    1    4    4    0    0  0.17373909612E-01 -0.31584934701E-01 -0.50219812908E-01  0.61820316765E-01  0.51100000000E-03 0. -1.
</event>
<event>
 8    1  0.1106905E+005  0.1043930E+01  0.7957747E-01            NaN
         13   -1    0    0    0    0  0.00000000000E+00  0.00000000000E+00  0.74505805969E-08  0.10566000000E+00  0.10566000000E+00 0.  1.
     999900   -1    0    0    0    0 -0.00000000000E+00 -0.00000000000E+00 -0.74505805969E-08  0.93827000000E+00  0.93827000000E+00 0.  1.
     999902    2    1    2    0    0 -0.24361138905E-01  0.44172036379E-02 -0.11544498998E-01  0.10166123824E+01  0.10162452872E+01 0.  0.
     999903    2    3    3    0    0  0.17537060782E-01  0.74105528151E-01  0.98427063494E-01  0.12604758052E+00  0.20023184643E-01 0.  0.
         14    1    1    2    0    0  0.24361138905E-01 -0.44172036379E-02  0.11544498998E-01  0.27317617646E-01  0.00000000000E+00 0.  1.
     999901    1    3    3    0    0 -0.41898199687E-01 -0.69688324513E-01 -0.10997156249E+00  0.89056480183E+00  0.88000000000E+00 0. -1.
        -11    1    4    4    0    0 -0.34562774604E-02  0.15240765169E-01  0.26422877035E-01  0.30702708816E-01  0.51100000000E-03 0. -1.
         11    1    4    4    0    0  0.20993338242E-01  0.58864762982E-01  0.72004186459E-01  0.95344871703E-01  0.51100000000E-03 0.  1.
</event>
<event>
 8    1  0.1106905E+005  0.1043930E+01  0.7957747E-01            NaN
         13   -1    0    0    0    0  0.00000000000E+00  0.00000000000E+00  0.74505805969E-08  0.10566000000E+00  0.10566000000E+00 0. -1.
     999900   -1    0    0    0    0 -0.00000000000E+00 -0.00000000000E+00 -0.74505805969E-08  0.93827000000E+00  0.93827000000E+00 0.  1.
     999902    2    1    2    0    0 -0.49716388646E-02 -0.18814160599E-01 -0.10473819293E-01  0.10218304361E+01  0.10215914298E+01 0.  0.
     999903    2    3    3    0    0  0.10215320425E+00 -0.13052584322E-01  0.77158450277E-01  0.13099468111E+00  0.24505773496E-01 0.  0.
         14    1    1    2    0    0  0.49716388646E-02  0.18814160599E-01  0.10473819293E-01  0.22099563856E-01  0.00000000000E+00 0.  1.
     999901    1    3    3    0    0 -0.10712484311E+00 -0.57615762768E-02 -0.87632269570E-01  0.89083575503E+00  0.88000000000E+00 0.  1.
        -11    1    4    4    0    0  0.81934096798E-01 -0.25791750040E-02  0.67758778257E-01  0.10635488477E+00  0.51100000000E-03 0.  1.
         11    1    4    4    0    0  0.20219107450E-01 -0.10473409318E-01  0.93996720205E-02  0.24639796345E-01  0.51100000000E-03 0. -1.
</event>
<event>
 8    1  0.1106905E+005  0.1043930E+01  0.7957747E-01            NaN
         13   -1    0    0    0    0  0.00000000000E+00  0.00000000000E+00  0.74505805969E-08  0.10566000000E+00  0.10566000000E+00 0. -1.
     999900   -1    0    0    0    0 -0.00000000000E+00 -0.00000000000E+00 -0.74505805969E-08  0.93827000000E+00  0.93827000000E+00 0.  1.
     999902    2    1    2    0    0  0.20837022772E-01  0.82567198699E-02 -0.13353233988E-01  0.10178404657E+01  0.10175060441E+01 0.  0.
     999903    2    3    3    0    0 -0.10131901390E+00  0.64282884728E-01 -0.37622432093E-01  0.12730690520E+00  0.19843610246E-01 0.  0.
         14    1    1    2    0    0 -0.20837022772E-01 -0.82567198699E-02  0.13353233988E-01  0.26089534280E-01  0.00000000000E+00 0.  1.
     999901    1    3    3    0    0  0.12215603667E+00 -0.56026164858E-01  0.24269198104E-01  0.89053356052E+00  0.88000000000E+00 0. -1.
        -11    1    4    4    0    0 -0.80331203410E-01  0.52526014793E-01 -0.21548906774E-01  0.98370224029E-01  0.51100000000E-03 0. -1.
         11    1    4    4    0    0 -0.20987810488E-01  0.11756869935E-01 -0.16073525319E-01  0.28936681167E-01  0.51100000000E-03 0.  1.
</event>
<event>
 8    1  0.1106905E+005  0.1043930E+01  0.7957747E-01            NaN
         13   -1    0    0    0    0  0.00000000000E+00  0.00000000000E+00  0.74505805969E-08  0.10566000000E+00  0.10566000000E+00 0. -1.
     999900   -1    0    0    0    0 -0.00000000000E+00 -0.00000000000E+00 -0.74505805969E-08  0.93827000000E+00  0.93827000000E+00 0.  1.
     999902    2    1    2    0    0 -0.23327409973E-01 -0.13988699109E-02  0.27208368798E-02  0.10204028275E+01  0.10201315614E+01 0.  0.
     999903    2    3    3    0    0 -0.42064962369E-01 -0.83531711237E-01 -0.91111572066E-01  0.13141383967E+00  0.14875175666E-01 0.  0.
         14    1    1    2    0    0  0.23327409973E-01  0.13988699109E-02 -0.27208368798E-02  0.23527172512E-01  0.00000000000E+00 0. -1.
     999901    1    3    3    0    0  0.18737552395E-01  0.82132841326E-01  0.93832408946E-01  0.88898898782E+00  0.88000000000E+00 0. -1.
        -11    1    4    4    0    0 -0.97672330367E-02 -0.19154967235E-01 -0.12854116864E-01  0.25055958419E-01  0.51100000000E-03 0.  1.
         11    1    4    4    0    0 -0.32297729332E-01 -0.64376744002E-01 -0.78257455202E-01  0.10635788125E+00  0.51100000000E-03 0. -1.
</event>
<event>
 8    1  0.1106905E+005  0.1043930E+01  0.7957747E-01            NaN
         13   -1    0    0    0    0  0.00000000000E+00  0.00000000000E+00  0.74505805969E-08  0.10566000000E+00  0.10566000000E+00 0. -1.
     999900   -1    0    0    0    0 -0.00000000000E+00 -0.00000000000E+00 -0.74505805969E-08  0.93827000000E+00  0.93827000000E+00 0. -1.
     999902    2    1    2    0    0 -0.32584406513E-02  0.44781149538E-02  0.22916650362E-01  0.10203536599E+01  0.10200812455E+01 0.  0.
     999903    2    3    3    0    0 -0.54910801493E-01 -0.10820812644E+00  0.46243805629E-01  0.13135967141E+00  0.19816128938E-01 0.  0.
         14    1    1    2    0    0  0.32584406513E-02 -0.44781149538E-02 -0.22916650362E-01  0.23576340107E-01  0.00000000000E+00 0.  1.
     999901    1    3    3    0    0  0.51652360842E-01  0.11268624140E+00 -0.23327155266E-01  0.88899398848E+00  0.88000000000E+00 0. -1.
        -11    1    4    4    0    0 -0.53542987813E-01 -0.90781051657E-01  0.38133758521E-01  0.11208253898E+00  0.51100000000E-03 0. -1.
         11    1    4    4    0    0 -0.13678136798E-02 -0.17427074784E-01  0.81100471074E-02  0.19277132434E-01  0.51100000000E-03 0.  1.
</event>
<event>
 8    1  0.1106905E+005  0.1043930E+01  0.7957747E-01            NaN
         13   -1    0    0    0    0  0.00000000000E+00  0.00000000000E+00  0.74505805969E-08  0.10566000000E+00  0.10566000000E+00 0.  1.
     999900   -1    0    0    0    0 -0.00000000000E+00 -0.00000000000E+00 -0.74505805969E-08  0.93827000000E+00  0.93827000000E+00 0.  1.
     999902    2    1    2    0    0  0.13621451014E-01 -0.15331867301E-01 -0.12116334148E-01  0.10201095123E+01  0.10198313593E+01 0.  0.
     999903    2    3    3    0    0  0.86092077872E-01  0.78951724627E-01  0.52637844163E-01  0.12975312796E+00  0.20491727203E-01 0.  0.
         14    1    1    2    0    0 -0.13621451014E-01  0.15331867301E-01  0.12116334148E-01  0.23820487733E-01  0.00000000000E+00 0.  1.
     999901    1    3    3    0    0 -0.72470626859E-01 -0.94283591928E-01 -0.64754178311E-01  0.89035638431E+00  0.88000000000E+00 0. -1.
        -11    1    4    4    0    0  0.67794517251E-01  0.68987385344E-01  0.49572461413E-01  0.10868783721E+00  0.51100000000E-03 0. -1.
         11    1    4    4    0    0  0.18297560621E-01  0.99643392833E-02  0.30653827500E-02  0.21065290752E-01  0.51100000000E-03 0.  1.
</event>
<event>
 8    1  0.1106905E+005  0.1043930E+01  0.7957747E-01            NaN
         13   -1    0    0    0    0  0.00000000000E+00  0.00000000000E+00  0.74505805969E-08  0.10566000000E+00  0.10566000000E+00 0.  1.
     999900   -1    0    0    0    0 -0.00000000000E+00 -0.00000000000E+00 -0.74505805969E-08  0.93827000000E+00  0.93827000000E+00 0. -1.
     999902    2    1    2    0    0  0.14850240487E-01 -0.14745301711E-01  0.99062265254E-02  0.10207764498E+01  0.10205138282E+01 0.  0.
     999903    2    3    3    0    0 -0.29473579250E-01 -0.12727063231E+00  0.50000289928E-02  0.13249123554E+00  0.21503987599E-01 0.  0.
         14    1    1    2    0    0 -0.14850240487E-01  0.14745301711E-01 -0.99062265254E-02  0.23153550247E-01  0.00000000000E+00 0. -1.
     999901    1    3    3    0    0  0.44323819737E-01  0.11252533059E+00  0.49061975325E-02  0.88828521422E+00  0.88000000000E+00 0.  1.
        -11    1    4    4    0    0 -0.78885373918E-03 -0.45919525972E-01 -0.17791000295E-02  0.45963588563E-01  0.51100000000E-03 0. -1.
         11    1    4    4    0    0 -0.28684725511E-01 -0.81351106334E-01  0.67791290223E-02  0.86527646973E-01  0.51100000000E-03 0.  1.
</event>
<event>
 7    1  0.1106905E+005  0.1043930E+01  0.7957747E-01            NaN
         13   -1    0    0    0    0  0.00000000000E+00  0.00000000000E+00  0.74505805969E-08  0.10566000000E+00  0.10566000000E+00 0. -1.
     999900   -1    0    0    0    0 -0.00000000000E+00 -0.00000000000E+00 -0.74505805969E-08  0.93827000000E+00  0.93827000000E+00 0. -1.
     999903    2    1    2    0    0  0.67494364427E-01  0.14485286118E-01 -0.88964430863E-01  0.11435135576E+00  0.19906025746E-01 0.  0.
         14    1    1    2    0    0 -0.29335553099E-01  0.63769748742E-02 -0.27658880083E-01  0.40819776232E-01  0.00000000000E+00 0.  1.
     999901    1    1    2    0    0 -0.38158811328E-01 -0.20862260993E-01  0.11662331095E+00  0.88875886801E+00  0.88000000000E+00 0.  1.
        -11    1    3    3    0    0  0.43690712645E-01  0.18617544961E-01 -0.55020016013E-01  0.72683936567E-01  0.51100000000E-03 0. -1.
         11    1    3    3    0    0  0.23803651782E-01 -0.41322588431E-02 -0.33944414850E-01  0.41667419189E-01  0.51100000000E-03 0.  1.
</event>
<event>
 8    1  0.1106905E+005  0.1043930E+01  0.7957747E-01            NaN
         13   -1    0    0    0    0  0.00000000000E+00  0.00000000000E+00  0.74505805969E-08  0.10566000000E+00  0.10566000000E+00 0.  1.
     999900   -1    0    0    0    0 -0.00000000000E+00 -0.00000000000E+00 -0.74505805969E-08  0.93827000000E+00  0.93827000000E+00 0.  1.
     999902    2    1    2    0    0  0.14512270715E-01 -0.12460041666E-01  0.16430476176E-01  0.10187145447E+01  0.10184024275E+01 0.  0.
     999903    2    3    3    0    0  0.61389527470E-01 -0.10984779896E+00  0.33976260357E-01  0.13192837710E+00  0.20383753283E-01 0.  0.
         14    1    1    2    0    0 -0.14512270715E-01  0.12460041666E-01 -0.16430476176E-01  0.25215455320E-01  0.00000000000E+00 0. -1.
     999901    1    3    3    0    0 -0.46877256755E-01  0.97387757289E-01 -0.17545784181E-01  0.88678616758E+00  0.88000000000E+00 0.  1.
        -11    1    4    4    0    0  0.97329641820E-02 -0.25415203306E-01 -0.17369139578E-03  0.27220478331E-01  0.51100000000E-03 0.  1.
         11    1    4    4    0    0  0.51656563288E-01 -0.84432595649E-01  0.34149951753E-01  0.10470789877E+00  0.51100000000E-03 0. -1.
</event>
<event>
 8    1  0.1106905E+005  0.1043930E+01  0.7957747E-01            NaN
         13   -1    0    0    0    0  0.00000000000E+00  0.00000000000E+00  0.74505805969E-08  0.10566000000E+00  0.10566000000E+00 0. -1.
     999900   -1    0    0    0    0 -0.00000000000E+00 -0.00000000000E+00 -0.74505805969E-08  0.93827000000E+00  0.93827000000E+00 0. -1.
     999902    2    1    2    0    0 -0.97005395353E-02 -0.15942671208E-01  0.15435437933E-01  0.10197117842E+01  0.10194241516E+01 0.  0.
     999903    2    3    3    0    0 -0.15473760141E-01  0.11245657075E+00 -0.54704022068E-01  0.12761356132E+00  0.20168625263E-01 0.  0.
         14    1    1    2    0    0  0.97005395353E-02  0.15942671208E-01 -0.15435437933E-01  0.24218215803E-01  0.00000000000E+00 0.  1.
     999901    1    3    3    0    0  0.57732206060E-02 -0.12839924196E+00  0.70139460000E-01  0.89209822288E+00  0.88000000000E+00 0.  1.
        -11    1    4    4    0    0  0.16781478889E-02  0.30590163982E-01 -0.22363988513E-01  0.37933934887E-01  0.51100000000E-03 0. -1.
         11    1    4    4    0    0 -0.17151908030E-01  0.81866406766E-01 -0.32340033555E-01  0.89679626433E-01  0.51100000000E-03 0.  1.
</event>
<event>
 8    1  0.1106905E+005  0.1043930E+01  0.7957747E-01            NaN
         13   -1    0    0    0    0  0.00000000000E+00  0.00000000000E+00  0.74505805969E-08  0.10566000000E+00  0.10566000000E+00 0. -1.
     999900   -1    0    0    0    0 -0.00000000000E+00 -0.00000000000E+00 -0.74505805969E-08  0.93827000000E+00  0.93827000000E+00 0. -1.
     999902    2    1    2    0    0 -0.17866914669E-01  0.36040211425E-02 -0.66446527320E-02  0.10245298191E+01  0.10243461247E+01 0.  0.
     999903    2    3    3    0    0 -0.84893760388E-01 -0.25011947671E-01  0.10000576694E+00  0.13509978605E+00  0.20451178218E-01 0.  0.
         14    1    1    2    0    0  0.17866914669E-01 -0.36040211425E-02  0.66446527320E-02  0.19400180878E-01  0.00000000000E+00 0. -1.
     999901    1    3    3    0    0  0.67026845719E-01  0.28615968813E-01 -0.10665041967E+00  0.88943003307E+00  0.88000000000E+00 0. -1.
        -11    1    4    4    0    0 -0.66442887113E-01 -0.14718465309E-01  0.64409520395E-01  0.93702390084E-01  0.51100000000E-03 0. -1.
         11    1    4    4    0    0 -0.18450873275E-01 -0.10293482361E-01  0.35596246541E-01  0.41397395964E-01  0.51100000000E-03 0.  1.
</event>
<event>
 8    1  0.1106905E+005  0.1043930E+01  0.7957747E-01            NaN
         13   -1    0    0    0    0  0.00000000000E+00  0.00000000000E+00  0.74505805969E-08  0.10566000000E+00  0.10566000000E+00 0.  1.
     999900   -1    0    0    0    0 -0.00000000000E+00 -0.00000000000E+00 -0.74505805969E-08  0.93827000000E+00  0.93827000000E+00 0. -1.
     999902    2    1    2    0    0  0.19333948044E-01 -0.72902059016E-02  0.11087658662E-01  0.10204803769E+01  0.10202109168E+01 0.  0.
     999903    2    3    3    0    0 -0.11723808182E+00  0.41893498299E-01  0.24346841093E-01  0.12849003949E+00  0.20422745869E-01 0.  0.
         14    1    1    2    0    0 -0.19333948044E-01  0.72902059016E-02 -0.11087658662E-01  0.23449623103E-01  0.00000000000E+00 0.  1.
     999901    1    3    3    0    0  0.13657202987E+00 -0.49183704201E-01 -0.13259182431E-01  0.89199033740E+00  0.88000000000E+00 0. -1.
        -11    1    4    4    0    0 -0.58132987109E-01  0.10645786516E-01  0.78025675302E-02  0.59614747688E-01  0.51100000000E-03 0.  1.
         11    1    4    4    0    0 -0.59105094714E-01  0.31247711783E-01  0.16544273563E-01  0.68875291807E-01  0.51100000000E-03 0. -1.
</event>
<event>
 8    1  0.1106905E+005  0.1043930E+01  0.7957747E-01            NaN
         13   -1    0    0    0    0  0.00000000000E+00  0.00000000000E+00  0.74505805969E-08  0.10566000000E+00  0.10566000000E+00 0.  1.
     999900   -1    0    0    0    0 -0.00000000000E+00 -0.00000000000E+00 -0.74505805969E-08  0.93827000000E+00  0.93827000000E+00 0. -1.
     999902    2    1    2    0    0  0.17398441108E-01 -0.10660507296E-01  0.12142917877E-01  0.10201854717E+01  0.10199091107E+01 0.  0.
     999903    2    3    3    0    0 -0.18459568871E-01 -0.10553475245E+00  0.73582917476E-01  0.13223176075E+00  0.24340360464E-01 0.  0.
         14    1    1    2    0    0 -0.17398441108E-01  0.10660507296E-01 -0.12142917877E-01  0.23744528283E-01  0.00000000000E+00 0. -1.
     999901    1    3    3    0    0  0.35858009979E-01  0.94874245158E-01 -0.61439999599E-01  0.88795371097E+00  0.88000000000E+00 0.  1.
        -11    1    4    4    0    0 -0.15092804584E-01 -0.37606111174E-01  0.17773809049E-01  0.44251347516E-01  0.51100000000E-03 0. -1.
         11    1    4    4    0    0 -0.33667642861E-02 -0.67928641280E-01  0.55809108427E-01  0.87980413231E-01  0.51100000000E-03 0.  1.
</event>
<event>
 8    1  0.1106905E+005  0.1043930E+01  0.7957747E-01            NaN
         13   -1    0    0    0    0  0.00000000000E+00  0.00000000000E+00  0.74505805969E-08  0.10566000000E+00  0.10566000000E+00 0. -1.
     999900   -1    0    0    0    0 -0.00000000000E+00 -0.00000000000E+00 -0.74505805969E-08  0.93827000000E+00  0.93827000000E+00 0.  1.
     999902    2    1    2    0    0  0.13551211267E-01 -0.13236010213E-01  0.14454047078E-01  0.10201025627E+01  0.10198242454E+01 0.  0.
     999903    2    3    3    0    0  0.42765797664E-01 -0.10515006891E+00  0.63837231071E-01  0.13345698234E+00  0.29156879490E-01 0.  0.
         14    1    1    2    0    0 -0.13551211267E-01  0.13236010213E-01 -0.14454047078E-01  0.23827437338E-01  0.00000000000E+00 0.  1.
     999901    1    3    3    0    0 -0.29214586396E-01  0.91914058701E-01 -0.49383183993E-01  0.88664558032E+00  0.88000000000E+00 0.  1.
        -11    1    4    4    0    0  0.28833826354E-01 -0.93188130283E-01  0.60500221245E-01  0.11478656306E+00  0.51100000000E-03 0. -1.
         11    1    4    4    0    0  0.13931971310E-01 -0.11961938631E-01  0.33370098261E-02  0.18670419277E-01  0.51100000000E-03 0.  1.
</event>
<event>
 8    1  0.1106905E+005  0.1043930E+01  0.7957747E-01            NaN
         13   -1    0    0    0    0  0.00000000000E+00  0.00000000000E+00  0.74505805969E-08  0.10566000000E+00  0.10566000000E+00 0. -1.
     999900   -1    0    0    0    0 -0.00000000000E+00 -0.00000000000E+00 -0.74505805969E-08  0.93827000000E+00  0.93827000000E+00 0. -1.
     999902    2    1    2    0    0 -0.34325838836E-02  0.61405561359E-02 -0.23004719680E-01  0.10198736871E+01  0.10195899330E+01 0.  0.
     999903    2    3    3    0    0  0.12395057770E-01  0.26104979317E-01  0.12258662521E+00  0.12754755160E+00  0.20144225870E-01 0.  0.
         14    1    1    2    0    0  0.34325838836E-02 -0.61405561359E-02  0.23004719680E-01  0.24056312879E-01  0.00000000000E+00 0. -1.
     999901    1    3    3    0    0 -0.15827641654E-01 -0.19964423181E-01 -0.14559134489E+00  0.89232613552E+00  0.88000000000E+00 0. -1.
        -11    1    4    4    0    0  0.14212993429E-01  0.21096664168E-01  0.66417939533E-01  0.71124413770E-01  0.51100000000E-03 0. -1.
         11    1    4    4    0    0 -0.18179356592E-02  0.50083151489E-02  0.56168685676E-01  0.56423137827E-01  0.51100000000E-03 0.  1.
</event>
<event>
 8    1  0.1106905E+005  0.1043930E+01  0.7957747E-01            NaN
         13   -1    0    0    0    0  0.00000000000E+00  0.00000000000E+00  0.74505805969E-08  0.10566000000E+00  0.10566000000E+00 0.  1.
     999900   -1    0    0    0    0 -0.00000000000E+00 -0.00000000000E+00 -0.74505805969E-08  0.93827000000E+00  0.93827000000E+00 0.  1.
     999902    2    1    2    0    0  0.22400798032E-01  0.28562039037E-02 -0.37146801716E-02  0.10210443604E+01  0.10207878493E+01 0.  0.
     999903    2    3    3    0    0 -0.79238689678E-01 -0.36107812443E-01 -0.94272734703E-01  0.12972537073E+00  0.18941468800E-01 0.  0.
         14    1    1    2    0    0 -0.22400798032E-01 -0.28562039037E-02  0.37146801716E-02  0.22885639645E-01  0.00000000000E+00 0.  1.
     999901    1    3    3    0    0  0.10163948771E+00  0.38964016347E-01  0.90558054532E-01  0.89131898963E+00  0.88000000000E+00 0. -1.
        -11    1    4    4    0    0 -0.16989723592E-01 -0.59625058418E-02 -0.96581566378E-02  0.20438769392E-01  0.51100000000E-03 0. -1.
         11    1    4    4    0    0 -0.62248966086E-01 -0.30145306602E-01 -0.84614578065E-01  0.10928660133E+00  0.51100000000E-03 0.  1.
</event>
<event>
 8    1  0.1106905E+005  0.1043930E+01  0.7957747E-01            NaN
         13   -1    0    0    0    0  0.00000000000E+00  0.00000000000E+00  0.74505805969E-08  0.10566000000E+00  0.10566000000E+00 0. -1.
     999900   -1    0    0    0    0 -0.00000000000E+00 -0.00000000000E+00 -0.74505805969E-08  0.93827000000E+00  0.93827000000E+00 0. -1.
     999902    2    1    2    0    0 -0.58379234287E-02  0.15472948097E-01  0.15202131860E-01  0.10214667347E+01  0.10212197080E+01 0.  0.
     999903    2    3    3    0    0  0.25083887004E-01 -0.74673180877E-01 -0.99823129121E-01  0.12887875948E+00  0.20971223317E-01 0.  0.
         14    1    1    2    0    0  0.58379234287E-02 -0.15472948097E-01 -0.15202131860E-01  0.22463265254E-01  0.00000000000E+00 0. -1.
     999901    1    3    3    0    0 -0.30921810432E-01  0.90146128975E-01  0.11502526098E+00  0.89258797527E+00  0.88000000000E+00 0.  1.
        -11    1    4    4    0    0  0.10588580136E-02 -0.35760319218E-01 -0.43278631728E-01  0.56153563521E-01  0.51100000000E-03 0.  1.
         11    1    4    4    0    0  0.24025028990E-01 -0.38912861659E-01 -0.56544497393E-01  0.72725195956E-01  0.51100000000E-03 0. -1.
</event>
<event>
 8    1  0.1106905E+005  0.1043930E+01  0.7957747E-01            NaN
         13   -1    0    0    0    0  0.00000000000E+00  0.00000000000E+00  0.74505805969E-08  0.10566000000E+00  0.10566000000E+00 0. -1.
     999900   -1    0    0    0    0 -0.00000000000E+00 -0.00000000000E+00 -0.74505805969E-08  0.93827000000E+00  0.93827000000E+00 0. -1.
     999902    2    1    2    0    0  0.65538346878E-03 -0.69960349470E-02  0.22817397344E-01  0.10200551669E+01  0.10197757283E+01 0.  0.
     999903    2    3    3    0    0 -0.35600466685E-01 -0.12124286606E+00 -0.25646328902E-01  0.13060839626E+00  0.20822900613E-01 0.  0.
         14    1    1    2    0    0 -0.65538346878E-03  0.69960349470E-02 -0.22817397344E-01  0.23874833068E-01  0.00000000000E+00 0.  1.
     999901    1    3    3    0    0  0.36255850153E-01  0.11424683111E+00  0.48463726247E-01  0.88944677067E+00  0.88000000000E+00 0.  1.
        -11    1    4    4    0    0 -0.33533765221E-01 -0.10292020045E+00 -0.28518059973E-01  0.11194026057E+00  0.51100000000E-03 0. -1.
         11    1    4    4    0    0 -0.20667014639E-02 -0.18322665612E-01  0.28717310710E-02  0.18668135697E-01  0.51100000000E-03 0.  1.
</event>
<event>
 8    1  0.1106905E+005  0.1043930E+01  0.7957747E-01            NaN
         13   -1    0    0    0    0  0.00000000000E+00  0.00000000000E+00  0.74505805969E-08  0.10566000000E+00  0.10566000000E+00 0. -1.
     999900   -1    0    0    0    0 -0.00000000000E+00 -0.00000000000E+00 -0.74505805969E-08  0.93827000000E+00  0.93827000000E+00 0.  1.
     999902    2    1    2    0    0  0.15690949841E-02 -0.36101130851E-02  0.22816069284E-01  0.10207768578E+01  0.10205142456E+01 0.  0.
     999903    2    3    3    0    0 -0.91481807244E-01 -0.91406578313E-01  0.19271901083E-01  0.13151916128E+00  0.14205632591E-01 0.  0.
         14    1    1    2    0    0 -0.15690949841E-02  0.36101130851E-02 -0.22816069284E-01  0.23153142187E-01  0.00000000000E+00 0.  1.
     999901    1    3    3    0    0  0.93050902228E-01  0.87796465228E-01  0.35441682005E-02  0.88925769653E+00  0.88000000000E+00 0. -1.
        -11    1    4    4    0    0 -0.46972489533E-01 -0.56688271565E-01  0.12220287208E-01  0.74629561478E-01  0.51100000000E-03 0.  1.
         11    1    4    4    0    0 -0.44509317712E-01 -0.34718306748E-01  0.70516138756E-02  0.56889599804E-01  0.51100000000E-03 0. -1.
</event>
<event>
 8    1  0.1106905E+005  0.1043930E+01  0.7957747E-01            NaN
         13   -1    0    0    0    0  0.00000000000E+00  0.00000000000E+00  0.74505805969E-08  0.10566000000E+00  0.10566000000E+00 0.  1.
     999900   -1    0    0    0    0 -0.00000000000E+00 -0.00000000000E+00 -0.74505805969E-08  0.93827000000E+00  0.93827000000E+00 0.  1.
     999902    2    1    2    0    0 -0.16421099933E-01 -0.16808555838E-01 -0.18679039894E-02  0.10203573646E+01  0.10200850369E+01 0.  0.
     999903    2    3    3    0    0 -0.69351621305E-01  0.10433142165E+00 -0.27186379110E-01  0.13012281161E+00  0.22319363116E-01 0.  0.
         14    1    1    2    0    0  0.16421099933E-01  0.16808555838E-01  0.18679039894E-02  0.23572635357E-01  0.00000000000E+00 0.  1.
     999901    1    3    3    0    0  0.52930521372E-01 -0.12113997749E+00  0.25318475121E-01  0.89023455304E+00  0.88000000000E+00 0. -1.
        -11    1    4    4    0    0 -0.34149704778E-01  0.70688769005E-01 -0.15032418770E-01  0.79933341823E-01  0.51100000000E-03 0.  1.
         11    1    4    4    0    0 -0.35201916527E-01  0.33642652646E-01 -0.12153960340E-01  0.50189469784E-01  0.51100000000E-03 0. -1.
</event>
<event>
 8    1  0.1106905E+005  0.1043930E+01  0.7957747E-01            NaN
         13   -1    0    0    0    0  0.00000000000E+00  0.00000000000E+00  0.74505805969E-08  0.10566000000E+00  0.10566000000E+00 0.  1.
     999900   -1    0    0    0    0 -0.00000000000E+00 -0.00000000000E+00 -0.74505805969E-08  0.93827000000E+00  0.93827000000E+00 0. -1.
     999902    2    1    2    0    0 -0.86046702400E-02  0.15095697177E-01  0.17007628227E-01  0.10196158099E+01  0.10193258654E+01 0.  0.
     999903    2    3    3    0    0 -0.36685992370E-02 -0.11508616657E+00  0.55078760786E-01  0.12921079329E+00  0.20086683561E-01 0.  0.
         14    1    1    2    0    0  0.86046702400E-02 -0.15095697177E-01 -0.17007628227E-01  0.24314190119E-01  0.00000000000E+00 0.  1.
     999901    1    3    3    0    0 -0.49360710031E-02  0.13018186374E+00 -0.38071132558E-01  0.89040501660E+00  0.88000000000E+00 0. -1.
        -11    1    4    4    0    0  0.26865959661E-02 -0.89424970762E-01  0.35250847692E-01  0.96160941019E-01  0.51100000000E-03 0. -1.
         11    1    4    4    0    0 -0.63551952030E-02 -0.25661195805E-01  0.19827913094E-01  0.33049852267E-01  0.51100000000E-03 0.  1.
</event>
<event>
 8    1  0.1106905E+005  0.1043930E+01  0.7957747E-01            NaN
         13   -1    0    0    0    0  0.00000000000E+00  0.00000000000E+00  0.74505805969E-08  0.10566000000E+00  0.10566000000E+00 0. -1.
     999900   -1    0    0    0    0 -0.00000000000E+00 -0.00000000000E+00 -0.74505805969E-08  0.93827000000E+00  0.93827000000E+00 0.  1.
     999902    2    1    2    0    0  0.35634642811E-02  0.51625366805E-02 -0.22290721420E-01  0.10207734389E+01  0.10205107482E+01 0.  0.
     999903    2    3    3    0    0 -0.76950281914E-01  0.37660397655E-01  0.94260629574E-01  0.12885259499E+00  0.19449254765E-01 0.  0.
         14    1    1    2    0    0 -0.35634642811E-02 -0.51625366805E-02  0.22290721420E-01  0.23156561145E-01  0.00000000000E+00 0. -1.
     999901    1    3    3    0    0  0.80513746195E-01 -0.32497860975E-01 -0.11655135099E+00  0.89192084386E+00  0.88000000000E+00 0.  1.
        -11    1    4    4    0    0 -0.79646687689E-02  0.11576687972E-01  0.13754644109E-01  0.19669951921E-01  0.51100000000E-03 0.  1.
         11    1    4    4    0    0 -0.68985613145E-01  0.26083709683E-01  0.80505985464E-01  0.10918264307E+00  0.51100000000E-03 0. -1.
</event>
<event>
 8    1  0.1106905E+005  0.1043930E+01  0.7957747E-01            NaN
         13   -1    0    0    0    0  0.00000000000E+00  0.00000000000E+00  0.74505805969E-08  0.10566000000E+00  0.10566000000E+00 0.  1.
     999900   -1    0    0    0    0 -0.00000000000E+00 -0.00000000000E+00 -0.74505805969E-08  0.93827000000E+00  0.93827000000E+00 0.  1.
     999902    2    1    2    0    0  0.17222076355E-01  0.15967798462E-01 -0.11865895720E-02  0.10204145052E+01  0.10201435114E+01 0.  0.
     999903    2    3    3    0    0  0.87663199215E-01  0.42640817898E-01  0.87933097323E-01  0.13271200978E+00  0.19420918796E-01 0.  0.
         14    1    1    2    0    0 -0.17222076355E-01 -0.15967798462E-01  0.11865895720E-02  0.23515494818E-01  0.00000000000E+00 0.  1.
     999901    1    3    3    0    0 -0.70441122860E-01 -0.26673019435E-01 -0.89119686895E-01  0.88770249540E+00  0.88000000000E+00 0.  1.
        -11    1    4    4    0    0  0.72530639264E-01  0.39706650997E-01  0.65499005890E-01  0.10548787920E+00  0.51100000000E-03 0.  1.
         11    1    4    4    0    0  0.15132559951E-01  0.29341669007E-02  0.22434091433E-01  0.27224130573E-01  0.51100000000E-03 0. -1.
</event>
<event>
 8    1  0.1106905E+005  0.1043930E+01  0.7957747E-01            NaN
         13   -1    0    0    0    0  0.00000000000E+00  0.00000000000E+00  0.74505805969E-08  0.10566000000E+00  0.10566000000E+00 0. -1.
     999900   -1    0    0    0    0 -0.00000000000E+00 -0.00000000000E+00 -0.74505805969E-08  0.93827000000E+00  0.93827000000E+00 0. -1.
     999902    2    1    2    0    0 -0.77604603483E-02 -0.15700727989E-01 -0.14163053129E-01  0.10214060199E+01  0.10211576410E+01 0.  0.
     999903    2    3    3    0    0  0.31564132969E-01 -0.12537918805E+00  0.23756118705E-01  0.13291648604E+00  0.19652068613E-01 0.  0.
         14    1    1    2    0    0  0.77604603483E-02  0.15700727989E-01  0.14163053129E-01  0.22523980068E-01  0.00000000000E+00 0. -1.
     999901    1    3    3    0    0 -0.39324593317E-01  0.10967846006E+00 -0.37919171834E-01  0.88848953389E+00  0.88000000000E+00 0. -1.
        -11    1    4    4    0    0  0.36367938208E-02 -0.22846517055E-01  0.11805832495E-01  0.25977459706E-01  0.51100000000E-03 0.  1.
         11    1    4    4    0    0  0.27927339148E-01 -0.10253267099E+00  0.11950286210E-01  0.10693902634E+00  0.51100000000E-03 0. -1.
</event>
<event>
 8    1  0.1106905E+005  0.1043930E+01  0.7957747E-01            NaN
         13   -1    0    0    0    0  0.00000000000E+00  0.00000000000E+00  0.74505805969E-08  0.10566000000E+00  0.10566000000E+00 0. -1.
     999900   -1    0    0    0    0 -0.00000000000E+00 -0.00000000000E+00 -0.74505805969E-08  0.93827000000E+00  0.93827000000E+00 0.  1.
     999902    2    1    2    0    0  0.15204070307E-04  0.94675434864E-02  0.21881193064E-01  0.10200884140E+01  0.10198097623E+01 0.  0.
     999903    2    3    3    0    0  0.33810467070E-02  0.12180670152E+00 -0.43341051140E-01  0.13054619669E+00  0.17763973173E-01 0.  0.
         14    1    1    2    0    0 -0.15204070307E-04 -0.94675434864E-02 -0.21881193064E-01  0.23841585953E-01  0.00000000000E+00 0.  1.
     999901    1    3    3    0    0 -0.33658426367E-02 -0.11233915804E+00  0.65222244204E-01  0.88954221736E+00  0.88000000000E+00 0. -1.
        -11    1    4    4    0    0 -0.53391783813E-02  0.29340418947E-01 -0.15333622692E-01  0.33537264582E-01  0.51100000000E-03 0.  1.
         11    1    4    4    0    0  0.87202250883E-02  0.92466282576E-01 -0.28007428448E-01  0.97008932106E-01  0.51100000000E-03 0. -1.
</event>
<event>
 8    1  0.1106905E+005  0.1043930E+01  0.7957747E-01            NaN
         13   -1    0    0    0    0  0.00000000000E+00  0.00000000000E+00  0.74505805969E-08  0.10566000000E+00  0.10566000000E+00 0. -1.
     999900   -1    0    0    0    0 -0.00000000000E+00 -0.00000000000E+00 -0.74505805969E-08  0.93827000000E+00  0.93827000000E+00 0. -1.
     999902    2    1    2    0    0  0.15478115521E-01 -0.13616912892E-01 -0.12363819881E-01  0.10198913557E+01  0.10196080232E+01 0.  0.
     999903    2    3    3    0    0 -0.57043659429E-01 -0.99382909903E-01 -0.61190201796E-01  0.13140993799E+00  0.19834040036E-01 0.  0.
         14    1    1    2    0    0 -0.15478115521E-01  0.13616912892E-01  0.12363819881E-01  0.24038644280E-01  0.00000000000E+00 0. -1.
     999901    1    3    3    0    0  0.72521774950E-01  0.85765997011E-01  0.48826381915E-01  0.88848141773E+00  0.88000000000E+00 0.  1.
        -11    1    4    4    0    0 -0.34749590147E-01 -0.40891481334E-01 -0.29762535141E-01  0.61365437178E-01  0.51100000000E-03 0.  1.
         11    1    4    4    0    0 -0.22294069282E-01 -0.58491428569E-01 -0.31427666655E-01  0.70044500809E-01  0.51100000000E-03 0. -1.
</event>
<event>
 8    1  0.1106905E+005  0.1043930E+01  0.7957747E-01            NaN
         13   -1    0    0    0    0  0.00000000000E+00  0.00000000000E+00  0.74505805969E-08  0.10566000000E+00  0.10566000000E+00 0. -1.
     999900   -1    0    0    0    0 -0.00000000000E+00 -0.00000000000E+00 -0.74505805969E-08  0.93827000000E+00  0.93827000000E+00 0.  1.
     999902    2    1    2    0    0 -0.19212604490E-01  0.35500618927E-02  0.13591118934E-01  0.10201298818E+01  0.10198522100E+01 0.  0.
     999903    2    3    3    0    0 -0.87248062091E-01 -0.37517872639E-01  0.91407158102E-01  0.13312890400E+00  0.18660691859E-01 0.  0.
         14    1    1    2    0    0  0.19212604490E-01 -0.35500618927E-02 -0.13591118934E-01  0.23800118164E-01  0.00000000000E+00 0.  1.
     999901    1    3    3    0    0  0.68035457602E-01  0.41067934532E-01 -0.77816039168E-01  0.88700097784E+00  0.88000000000E+00 0. -1.
        -11    1    4    4    0    0 -0.15793673047E-01 -0.76302609518E-02  0.27934724982E-01  0.32988952262E-01  0.51100000000E-03 0. -1.
         11    1    4    4    0    0 -0.71454389044E-01 -0.29887611688E-01  0.63472433121E-01  0.10013995173E+00  0.51100000000E-03 0.  1.
</event>
<event>
 8    1  0.1106905E+005  0.1043930E+01  0.7957747E-01            NaN
         13   -1    0    0    0    0  0.00000000000E+00  0.00000000000E+00  0.74505805969E-08  0.10566000000E+00  0.10566000000E+00 0.  1.
     999900   -1    0    0    0    0 -0.00000000000E+00 -0.00000000000E+00 -0.74505805969E-08  0.93827000000E+00  0.93827000000E+00 0.  1.
     999902    2    1    2    0    0  0.22576348062E-01 -0.55664106840E-02 -0.43247350647E-02  0.10202787896E+01  0.10200046219E+01 0.  0.
     999903    2    3    3    0    0  0.76797306379E-01 -0.19719238478E-01 -0.10470732995E+00  0.13280097005E+00  0.19641742978E-01 0.  0.
         14    1    1    2    0    0 -0.22576348062E-01  0.55664106840E-02  0.43247350647E-02  0.23651210394E-01  0.00000000000E+00 0.  1.
     999901    1    3    3    0    0 -0.54220958317E-01  0.14152827794E-01  0.10038259488E+00  0.88747781956E+00  0.88000000000E+00 0. -1.
        -11    1    4    4    0    0  0.69059772277E-01 -0.10952304341E-01 -0.87914819281E-01  0.11233201542E+00  0.51100000000E-03 0.  1.
         11    1    4    4    0    0  0.77375341022E-02 -0.87669341372E-02 -0.16792510667E-01  0.20468954630E-01  0.51100000000E-03 0. -1.
</event>
<event>
 8    1  0.1106905E+005  0.1043930E+01  0.7957747E-01            NaN
         13   -1    0    0    0    0  0.00000000000E+00  0.00000000000E+00  0.74505805969E-08  0.10566000000E+00  0.10566000000E+00 0.  1.
     999900   -1    0    0    0    0 -0.00000000000E+00 -0.00000000000E+00 -0.74505805969E-08  0.93827000000E+00  0.93827000000E+00 0.  1.
     999902    2    1    2    0    0 -0.88159075777E-02  0.20462338527E-01  0.80071987691E-02  0.10202542158E+01  0.10199794714E+01 0.  0.
     999903    2    3    3    0    0 -0.54877038465E-02 -0.11661737751E+00  0.49435852550E-01  0.12867233016E+00  0.21975836712E-01 0.  0.
         14    1    1    2    0    0  0.88159075777E-02 -0.20462338527E-01 -0.80071987691E-02  0.23675784180E-01  0.00000000000E+00 0. -1.
     999901    1    3    3    0    0 -0.33282037312E-02  0.13707971604E+00 -0.41428653781E-01  0.89158188566E+00  0.88000000000E+00 0.  1.
        -11    1    4    4    0    0 -0.91012045809E-02 -0.28851222877E-01  0.18896623522E-01  0.35673077914E-01  0.51100000000E-03 0. -1.
         11    1    4    4    0    0  0.36135007344E-02 -0.87766154635E-01  0.30539229028E-01  0.92999252242E-01  0.51100000000E-03 0.  1.
</event>
<event>
 7    1  0.1106905E+005  0.1043930E+01  0.7957747E-01            NaN
         13   -1    0    0    0    0  0.00000000000E+00  0.00000000000E+00  0.74505805969E-08  0.10566000000E+00  0.10566000000E+00 0. -1.
     999900   -1    0    0    0    0 -0.00000000000E+00 -0.00000000000E+00 -0.74505805969E-08  0.93827000000E+00  0.93827000000E+00 0. -1.
     999902    2    1    2    0    0 -0.15081406698E-01  0.41096309876E-02  0.17092084457E-01  0.10207680215E+01  0.10205052065E+01 0.  0.
         14    1    1    2    0    0  0.15081406698E-01 -0.41096309876E-02 -0.17092084457E-01  0.23161978455E-01  0.00000000000E+00 0.  1.
     999901    1    3    3    0    0 -0.94418930523E-01 -0.90780369549E-01  0.27090300486E-01  0.89010667581E+00  0.88000000000E+00 0. -1.
        -11    1    3    3    0    0  0.36478199123E-01  0.50140893655E-01  0.15077140087E-01  0.63814962994E-01  0.51100000000E-03 0.  1.
         11    1    3    3    0    0  0.42859324701E-01  0.44749106882E-01 -0.25075356115E-01  0.66846382744E-01  0.51100000000E-03 0. -1.
</event>
<event>
 8    1  0.1106905E+005  0.1043930E+01  0.7957747E-01            NaN
         13   -1    0    0    0    0  0.00000000000E+00  0.00000000000E+00  0.74505805969E-08  0.10566000000E+00  0.10566000000E+00 0. -1.
     999900   -1    0    0    0    0 -0.00000000000E+00 -0.00000000000E+00 -0.74505805969E-08  0.93827000000E+00  0.93827000000E+00 0. -1.
     999902    2    1    2    0    0  0.15111985104E-01 -0.15591191778E-01  0.84743568651E-02  0.10206218023E+01  0.10203556200E+01 0.  0.
     999903    2    3    3    0    0 -0.11218911502E+00 -0.62435892988E-01  0.58237007765E-02  0.13022468749E+00  0.20974162174E-01 0.  0.
         14    1    1    2    0    0 -0.15111985104E-01  0.15591191778E-01 -0.84743568651E-02  0.23308197681E-01  0.00000000000E+00 0.  1.
     999901    1    3    3    0    0  0.12730110012E+00  0.46844701209E-01  0.26506560886E-02  0.89039711483E+00  0.88000000000E+00 0.  1.
        -11    1    4    4    0    0 -0.10825595479E+00 -0.54472845916E-01  0.50439250091E-02  0.12129445573E+00  0.51100000000E-03 0.  1.
         11    1    4    4    0    0 -0.39331602269E-02 -0.79630470715E-02  0.77977576740E-03  0.89302317596E-02  0.51100000000E-03 0. -1.
</event>
<event>
 8    1  0.1106905E+005  0.1043930E+01  0.7957747E-01            NaN
         13   -1    0    0    0    0  0.00000000000E+00  0.00000000000E+00  0.74505805969E-08  0.10566000000E+00  0.10566000000E+00 0.  1.
     999900   -1    0    0    0    0 -0.00000000000E+00 -0.00000000000E+00 -0.74505805969E-08  0.93827000000E+00  0.93827000000E+00 0.  1.
     999902    2    1    2    0    0 -0.18274764470E-01 -0.13221566819E-02  0.16289222361E-01  0.10194135998E+01  0.10191187534E+01 0.  0.
     999903    2    3    3    0    0 -0.11557780734E+00  0.29149964861E-01  0.54660604841E-01  0.13269560891E+00  0.20307459256E-01 0.  0.
         14    1    1    2    0    0  0.18274764470E-01  0.13221566819E-02 -0.16289222361E-01  0.24516400222E-01  0.00000000000E+00 0. -1.
     999901    1    3    3    0    0  0.97303042866E-01 -0.30472121543E-01 -0.38371382480E-01  0.88671799087E+00  0.88000000000E+00 0.  1.
        -11    1    4    4    0    0 -0.31384207609E-01 -0.11082203426E-02  0.12724393567E-01  0.33887578140E-01  0.51100000000E-03 0. -1.
         11    1    4    4    0    0 -0.84193599727E-01  0.30258185204E-01  0.41936211274E-01  0.98808030766E-01  0.51100000000E-03 0.  1.
</event>
<event>
 8    1  0.1106905E+005  0.1043930E+01  0.7957747E-01            NaN
         13   -1    0    0    0    0  0.00000000000E+00  0.00000000000E+00  0.74505805969E-08  0.10566000000E+00  0.10566000000E+00 0. -1.
     999900   -1    0    0    0    0 -0.00000000000E+00 -0.00000000000E+00 -0.74505805969E-08  0.93827000000E+00  0.93827000000E+00 0. -1.
     999902    2    1    2    0    0 -0.22330295478E-01 -0.86529759028E-02 -0.52839061819E-02  0.10194058129E+01  0.10191107769E+01 0.  0.
     999903    2    3    3    0    0 -0.46469436786E-01 -0.11414975389E-01  0.11972318316E+00  0.13023929353E+00  0.18409855388E-01 0.  0.
         14    1    1    2    0    0  0.22330295478E-01  0.86529759028E-02  0.52839061819E-02  0.24524187095E-01  0.00000000000E+00 0.  1.
     999901    1    3    3    0    0  0.24139141308E-01  0.27619994865E-02 -0.12500708934E+00  0.88916651937E+00  0.88000000000E+00 0. -1.
        -11    1    4    4    0    0 -0.33090802078E-01 -0.16285655958E-01  0.81928167538E-01  0.89848258354E-01  0.51100000000E-03 0.  1.
         11    1    4    4    0    0 -0.13378634708E-01  0.48706805692E-02  0.37795015624E-01  0.40391035180E-01  0.51100000000E-03 0. -1.
</event>
<event>
 8    1  0.1106905E+005  0.1043930E+01  0.7957747E-01            NaN
         13   -1    0    0    0    0  0.00000000000E+00  0.00000000000E+00  0.74505805969E-08  0.10566000000E+00  0.10566000000E+00 0. -1.
     999900   -1    0    0    0    0 -0.00000000000E+00 -0.00000000000E+00 -0.74505805969E-08  0.93827000000E+00  0.93827000000E+00 0. -1.
     999902    2    1    2    0    0  0.16729986296E-01 -0.71066655089E-02 -0.92252421758E-02  0.10235461282E+01  0.10233431362E+01 0.  0.
     999903    2    3    3    0    0  0.95407888580E-01  0.47581499628E-01  0.78628416113E-01  0.13399608859E+00  0.20145958049E-01 0.  0.
         14    1    1    2    0    0 -0.16729986296E-01  0.71066655089E-02  0.92252421758E-02  0.20383871794E-01  0.00000000000E+00 0. -1.
     999901    1    3    3    0    0 -0.78677902284E-01 -0.54688165137E-01 -0.87853658288E-01  0.88955003962E+00  0.88000000000E+00 0. -1.
        -11    1    4    4    0    0  0.78764816805E-01  0.30851634589E-01  0.65498681015E-01  0.10698625173E+00  0.51100000000E-03 0.  1.
         11    1    4    4    0    0  0.16643071775E-01  0.16729865039E-01  0.13129735098E-01  0.27009836858E-01  0.51100000000E-03 0. -1.
</event>
<event>
 8    1  0.1106905E+005  0.1043930E+01  0.7957747E-01            NaN
         13   -1    0    0    0    0  0.00000000000E+00  0.00000000000E+00  0.74505805969E-08  0.10566000000E+00  0.10566000000E+00 0.  1.
     999900   -1    0    0    0    0 -0.00000000000E+00 -0.00000000000E+00 -0.74505805969E-08  0.93827000000E+00  0.93827000000E+00 0.  1.
     999902    2    1    2    0    0  0.12981984566E-01  0.56663207741E-02 -0.18545497347E-01  0.10205938781E+01  0.10203270502E+01 0.  0.
     999903    2    3    3    0    0  0.10238619017E+00  0.39770434016E-01 -0.73424503443E-01  0.13370724055E+00  0.20538965683E-01 0.  0.
         14    1    1    2    0    0 -0.12981984566E-01 -0.56663207741E-02  0.18545497347E-01  0.23336121919E-01  0.00000000000E+00 0.  1.
     999901    1    3    3    0    0 -0.89404205600E-01 -0.34104113242E-01  0.54879006096E-01  0.88688663753E+00  0.88000000000E+00 0.  1.
        -11    1    4    4    0    0  0.51606574014E-01  0.31013955415E-01 -0.39420837477E-01  0.71967822395E-01  0.51100000000E-03 0. -1.
         11    1    4    4    0    0  0.50779616152E-01  0.87564786011E-02 -0.34003665966E-01  0.61739418155E-01  0.51100000000E-03 0.  1.
</event>
<event>
 8    1  0.1106905E+005  0.1043930E+01  0.7957747E-01            NaN
         13   -1    0    0    0    0  0.00000000000E+00  0.00000000000E+00  0.74505805969E-08  0.10566000000E+00  0.10566000000E+00 0.  1.
     999900   -1    0    0    0    0 -0.00000000000E+00 -0.00000000000E+00 -0.74505805969E-08  0.93827000000E+00  0.93827000000E+00 0. -1.
     999902    2    1    2    0    0 -0.62147113971E-03  0.16903502755E-01 -0.16917103852E-01  0.10200071441E+01  0.10197265668E+01 0.  0.
     999903    2    3    3    0    0 -0.10069128359E+00  0.51046834201E-01 -0.66102440397E-01  0.13231410494E+00  0.19823618858E-01 0.  0.
         14    1    1    2    0    0  0.62147113971E-03 -0.16903502755E-01  0.16917103852E-01  0.23922855902E-01  0.00000000000E+00 0.  1.
     999901    1    3    3    0    0  0.10006981245E+00 -0.34143331446E-01  0.49185336544E-01  0.88769303916E+00  0.88000000000E+00 0. -1.
        -11    1    4    4    0    0 -0.56624707557E-01  0.27831520097E-01 -0.48138979820E-01  0.79363552819E-01  0.51100000000E-03 0. -1.
         11    1    4    4    0    0 -0.44066576037E-01  0.23215314104E-01 -0.17963460576E-01  0.52950552117E-01  0.51100000000E-03 0.  1.
</event>
<event>
 8    1  0.1106905E+005  0.1043930E+01  0.7957747E-01            NaN
         13   -1    0    0    0    0  0.00000000000E+00  0.00000000000E+00  0.74505805969E-08  0.10566000000E+00  0.10566000000E+00 0.  1.
     999900   -1    0    0    0    0 -0.00000000000E+00 -0.00000000000E+00 -0.74505805969E-08  0.93827000000E+00  0.93827000000E+00 0.  1.
     999902    2    1    2    0    0 -0.22115806805E-03  0.24028252679E-01 -0.33311818981E-02  0.10196709273E+01  0.10193823116E+01 0.  0.
     999903    2    3    3    0    0 -0.11904178028E+00 -0.65770459469E-03  0.48025174526E-01  0.12985903022E+00  0.19635995377E-01 0.  0.
         14    1    1    2    0    0  0.22115806805E-03 -0.24028252679E-01  0.33311818981E-02  0.24259072746E-01  0.00000000000E+00 0.  1.
     999901    1    3    3    0    0  0.11882062221E+00  0.24685957273E-01 -0.51356356424E-01  0.88981189703E+00  0.88000000000E+00 0.  1.
        -11    1    4    4    0    0 -0.11097790989E+00  0.18994052849E-02  0.48996421715E-01  0.12132854028E+00  0.51100000000E-03 0.  1.
         11    1    4    4    0    0 -0.80638703885E-02 -0.25571098796E-02 -0.97124718826E-03  0.85304899437E-02  0.51100000000E-03 0. -1.
</event>
<event>
 8    1  0.1106905E+005  0.1043930E+01  0.7957747E-01            NaN
         13   -1    0    0    0    0  0.00000000000E+00  0.00000000000E+00  0.74505805969E-08  0.10566000000E+00  0.10566000000E+00 0.  1.
     999900   -1    0    0    0    0 -0.00000000000E+00 -0.00000000000E+00 -0.74505805969E-08  0.93827000000E+00  0.93827000000E+00 0. -1.
     999902    2    1    2    0    0 -0.15761880161E-01  0.16266875096E-01 -0.71384034207E-02  0.10201812128E+01  0.10199047514E+01 0.  0.
     999903    2    3    3    0    0  0.59831000010E-01  0.90384356646E-01 -0.71449253045E-01  0.13150603590E+00  0.20970484701E-01 0.  0.
         14    1    1    2    0    0  0.15761880161E-01 -0.16266875096E-01  0.71384034207E-02  0.23748787232E-01  0.00000000000E+00 0.  1.
     999901    1    3    3    0    0 -0.75592880171E-01 -0.74117481550E-01  0.64310849624E-01  0.88867517687E+00  0.88000000000E+00 0. -1.
        -11    1    4    4    0    0  0.49966595833E-01  0.82027262513E-01 -0.69181710140E-01  0.11837019318E+00  0.51100000000E-03 0.  1.
         11    1    4    4    0    0  0.98644041765E-02  0.83570941337E-02 -0.22675429050E-02  0.13135842719E-01  0.51100000000E-03 0. -1.
</event>
<event>
 8    1  0.1106905E+005  0.1043930E+01  0.7957747E-01            NaN
         13   -1    0    0    0    0  0.00000000000E+00  0.00000000000E+00  0.74505805969E-08  0.10566000000E+00  0.10566000000E+00 0. -1.
     999900   -1    0    0    0    0 -0.00000000000E+00 -0.00000000000E+00 -0.74505805969E-08  0.93827000000E+00  0.93827000000E+00 0.  1.
     999902    2    1    2    0    0 -0.19352240799E-01 -0.12297737307E-01  0.72514591970E-02  0.10198815650E+01  0.10195979989E+01 0.  0.
     999903    2    3    3    0    0  0.46412059418E-01 -0.74251687078E-01 -0.93454737479E-01  0.12954175730E+00  0.19490680693E-01 0.  0.
         14    1    1    2    0    0  0.19352240799E-01  0.12297737307E-01 -0.72514591970E-02  0.24048435028E-01  0.00000000000E+00 0.  1.
     999901    1    3    3    0    0 -0.65764300217E-01  0.61953949771E-01  0.10070619668E+00  0.89033980767E+00  0.88000000000E+00 0.  1.
        -11    1    4    4    0    0  0.22923228494E-01 -0.23725746173E-01 -0.25733465060E-01  0.41843252515E-01  0.51100000000E-03 0.  1.
         11    1    4    4    0    0  0.23488830924E-01 -0.50525940905E-01 -0.67721272420E-01  0.87698504785E-01  0.51100000000E-03 0. -1.
</event>
<event>
 8    1  0.1106905E+005  0.1043930E+01  0.7957747E-01            NaN
         13   -1    0    0    0    0  0.00000000000E+00  0.00000000000E+00  0.74505805969E-08  0.10566000000E+00  0.10566000000E+00 0.  1.
     999900   -1    0    0    0    0 -0.00000000000E+00 -0.00000000000E+00 -0.74505805969E-08  0.93827000000E+00  0.93827000000E+00 0.  1.
     999902    2    1    2    0    0  0.20085490610E-01 -0.22850978410E-02 -0.12883318898E-01  0.10199585897E+01  0.10196768587E+01 0.  0.
     999903    2    3    3    0    0 -0.78876305977E-01  0.99431565788E-01 -0.50149777836E-02  0.12855428883E+00  0.19822897244E-01 0.  0.
         14    1    1    2    0    0 -0.20085490610E-01  0.22850978410E-02  0.12883318898E-01  0.23971410284E-01  0.00000000000E+00 0. -1.
     999901    1    3    3    0    0  0.98961796587E-01 -0.10171666363E+00 -0.78683411146E-02  0.89140430088E+00  0.88000000000E+00 0. -1.
        -11    1    4    4    0    0 -0.33326094770E-01  0.56708494986E-01  0.12352209947E-02  0.65789580391E-01  0.51100000000E-03 0.  1.
         11    1    4    4    0    0 -0.45550211207E-01  0.42723070802E-01 -0.62501987783E-02  0.62764708440E-01  0.51100000000E-03 0. -1.
</event>
<event>
 8    1  0.1106905E+005  0.1043930E+01  0.7957747E-01            NaN
         13   -1    0    0    0    0  0.00000000000E+00  0.00000000000E+00  0.74505805969E-08  0.10566000000E+00  0.10566000000E+00 0.  1.
     999900   -1    0    0    0    0 -0.00000000000E+00 -0.00000000000E+00 -0.74505805969E-08  0.93827000000E+00  0.93827000000E+00 0.  1.
     999902    2    1    2    0    0 -0.14273126733E-01 -0.77234169694E-02  0.16659669854E-01  0.10206723579E+01  0.10204073423E+01 0.  0.
     999903    2    3    3    0    0 -0.64801701537E-01  0.11055178389E+00 -0.16259424787E-01  0.13071402921E+00  0.20020766595E-01 0.  0.
         14    1    1    2    0    0  0.14273126733E-01  0.77234169694E-02 -0.16659669854E-01  0.23257642100E-01  0.00000000000E+00 0. -1.
     999901    1    3    3    0    0  0.50528574804E-01 -0.11827520086E+00  0.32919094641E-01  0.88995832869E+00  0.88000000000E+00 0.  1.
        -11    1    4    4    0    0 -0.18514805541E-01  0.51086001036E-01 -0.66936939609E-02  0.54750745985E-01  0.51100000000E-03 0.  1.
         11    1    4    4    0    0 -0.46286895995E-01  0.59465782853E-01 -0.95657308261E-02  0.75963283226E-01  0.51100000000E-03 0. -1.
</event>
<event>
 8    1  0.1106905E+005  0.1043930E+01  0.7957747E-01            NaN
         13   -1    0    0    0    0  0.00000000000E+00  0.00000000000E+00  0.74505805969E-08  0.10566000000E+00  0.10566000000E+00 0.  1.
     999900   -1    0    0    0    0 -0.00000000000E+00 -0.00000000000E+00 -0.74505805969E-08  0.93827000000E+00  0.93827000000E+00 0. -1.
     999902    2    1    2    0    0  0.47951900695E-02 -0.16760277097E-01  0.14703507724E-01  0.10211244332E+01  0.10208697342E+01 0.  0.
     999903    2    3    3    0    0 -0.68274690715E-01 -0.98447153337E-01 -0.50651153898E-01  0.13192075295E+00  0.22006141779E-01 0.  0.
         14    1    1    2    0    0 -0.47951900695E-02  0.16760277097E-01 -0.14703507724E-01  0.22805566767E-01  0.00000000000E+00 0. -1.
     999901    1    3    3    0    0  0.73069880785E-01  0.81686876240E-01  0.65354661622E-01  0.88920368028E+00  0.88000000000E+00 0.  1.
        -11    1    4    4    0    0 -0.72668430930E-02 -0.21890854663E-01 -0.37565969964E-02  0.23374979539E-01  0.51100000000E-03 0.  1.
         11    1    4    4    0    0 -0.61007847623E-01 -0.76556298673E-01 -0.46894556902E-01  0.10854577341E+00  0.51100000000E-03 0. -1.
</event>
<event>
 8    1  0.1106905E+005  0.1043930E+01  0.7957747E-01            NaN
         13   -1    0    0    0    0  0.00000000000E+00  0.00000000000E+00  0.74505805969E-08  0.10566000000E+00  0.10566000000E+00 0.  1.
     999900   -1    0    0    0    0 -0.00000000000E+00 -0.00000000000E+00 -0.74505805969E-08  0.93827000000E+00  0.93827000000E+00 0. -1.
     999902    2    1    2    0    0  0.16965303088E-01 -0.13367640678E-01  0.95159762832E-02  0.10203276880E+01  0.10200546661E+01 0.  0.
     999903    2    3    3    0    0 -0.10504108023E+00 -0.49406728312E-01  0.53733764901E-01  0.13008076371E+00  0.23643905310E-01 0.  0.
         14    1    1    2    0    0 -0.16965303088E-01  0.13367640678E-01 -0.95159762832E-02  0.23602311979E-01  0.00000000000E+00 0.  1.
     999901    1    3    3    0    0  0.12200638332E+00  0.36039087635E-01 -0.44217788618E-01  0.89024692431E+00  0.88000000000E+00 0. -1.
        -11    1    4    4    0    0 -0.47827724154E-01 -0.13354329043E-01  0.13792089778E-01  0.51539423390E-01  0.51100000000E-03 0.  1.
         11    1    4    4    0    0 -0.57213356081E-01 -0.36052399269E-01  0.39941675123E-01  0.78541340323E-01  0.51100000000E-03 0. -1.
</event>
<event>
 8    1  0.1578554E+005  0.1043930E+01  0.7957747E-01            NaN
         13   -1    0    0    0    0  0.00000000000E+00  0.00000000000E+00  0.74505805969E-08  0.10566000000E+00  0.10566000000E+00 0. -1.
     999900   -1    0    0    0    0 -0.00000000000E+00 -0.00000000000E+00 -0.74505805969E-08  0.93827000000E+00  0.93827000000E+00 0. -1.
     999902    2    1    2    0    0 -0.15033606624E-02 -0.19074737542E-01  0.14100688015E-01  0.10201616364E+01  0.10198847137E+01 0.  0.
     999903    2    3    3    0    0 -0.59074445818E-01 -0.97112925697E-01 -0.62899163584E-01  0.13149220078E+00  0.20326918152E-01 0.  0.
         14    1    1    2    0    0  0.15033606624E-02  0.19074737542E-01 -0.14100688015E-01  0.23768363597E-01  0.00000000000E+00 0. -1.
     999901    1    3    3    0    0  0.57571085156E-01  0.78038188155E-01  0.76999851599E-01  0.88866943562E+00  0.88000000000E+00 0.  1.
        -11    1    4    4    0    0 -0.47480605532E-01 -0.59633917906E-01 -0.42293037504E-01  0.87175536757E-01  0.51100000000E-03 0.  1.
         11    1    4    4    0    0 -0.11593840286E-01 -0.37479007790E-01 -0.20606126080E-01  0.44316664028E-01  0.51100000000E-03 0. -1.
</event>
<event>
 8    1  0.1106905E+005  0.1043930E+01  0.7957747E-01            NaN
         13   -1    0    0    0    0  0.00000000000E+00  0.00000000000E+00  0.74505805969E-08  0.10566000000E+00  0.10566000000E+00 0.  1.
     999900   -1    0    0    0    0 -0.00000000000E+00 -0.00000000000E+00 -0.74505805969E-08  0.93827000000E+00  0.93827000000E+00 0. -1.
     999902    2    1    2    0    0  0.11958514339E-01  0.14408195584E-01 -0.13593156326E-01  0.10207918051E+01  0.10205295357E+01 0.  0.
     999903    2    3    3    0    0  0.54606028657E-01  0.65281150843E-01 -0.10148465314E+00  0.13392553373E+00  0.19835996057E-01 0.  0.
         14    1    1    2    0    0 -0.11958514339E-01 -0.14408195584E-01  0.13593156326E-01  0.23138194919E-01  0.00000000000E+00 0. -1.
     999901    1    3    3    0    0 -0.42647514318E-01 -0.50872955259E-01  0.87891496815E-01  0.88686627135E+00  0.88000000000E+00 0.  1.
        -11    1    4    4    0    0  0.22029028505E-01  0.18285128816E-01 -0.22517134333E-01  0.36426727719E-01  0.51100000000E-03 0. -1.
         11    1    4    4    0    0  0.32577000152E-01  0.46996022026E-01 -0.78967518808E-01  0.97498806008E-01  0.51100000000E-03 0.  1.
</event>
<event>
 8    1  0.1106905E+005  0.1043930E+01  0.7957747E-01            NaN
         13   -1    0    0    0    0  0.00000000000E+00  0.00000000000E+00  0.74505805969E-08  0.10566000000E+00  0.10566000000E+00 0. -1.
     999900   -1    0    0    0    0 -0.00000000000E+00 -0.00000000000E+00 -0.74505805969E-08  0.93827000000E+00  0.93827000000E+00 0.  1.
     999902    2    1    2    0    0  0.28471138200E-02  0.98549247787E-02  0.26721475888E-01  0.10153072316E+01  0.10149036957E+01 0.  0.
     999903    2    3    3    0    0 -0.46048805204E-01 -0.91279937648E-01 -0.65894285693E-01  0.12334492822E+00  0.20479134548E-01 0.  0.
         14    1    1    2    0    0 -0.28471138200E-02 -0.98549247787E-02 -0.26721475888E-01  0.28622768439E-01  0.00000000000E+00 0.  1.
     999901    1    3    3    0    0  0.48895919024E-01  0.10113486243E+00  0.92615761581E-01  0.89196230334E+00  0.88000000000E+00 0. -1.
        -11    1    4    4    0    0 -0.12445446467E-01 -0.45394424266E-01 -0.34663301697E-01  0.58458091807E-01  0.51100000000E-03 0. -1.
         11    1    4    4    0    0 -0.33603358737E-01 -0.45885513382E-01 -0.31230983996E-01  0.64886836409E-01  0.51100000000E-03 0.  1.
</event>
<event>
 8    1  0.1106905E+005  0.1043930E+01  0.7957747E-01            NaN
         13   -1    0    0    0    0  0.00000000000E+00  0.00000000000E+00  0.74505805969E-08  0.10566000000E+00  0.10566000000E+00 0.  1.
     999900   -1    0    0    0    0 -0.00000000000E+00 -0.00000000000E+00 -0.74505805969E-08  0.93827000000E+00  0.93827000000E+00 0. -1.
     999902    2    1    2    0    0 -0.17447619331E-01 -0.15045946233E-01  0.49931438728E-02  0.10203560439E+01  0.10200836853E+01 0.  0.
     999903    2    3    3    0    0  0.12185261354E+00  0.14293833085E-01 -0.31304913498E-01  0.12817729140E+00  0.19926046544E-01 0.  0.
         14    1    1    2    0    0  0.17447619331E-01  0.15045946233E-01 -0.49931438728E-02  0.23573956055E-01  0.00000000000E+00 0.  1.
     999901    1    3    3    0    0 -0.13930023287E+00 -0.29339779318E-01  0.36298057370E-01  0.89217875255E+00  0.88000000000E+00 0.  1.
        -11    1    4    4    0    0  0.58327467226E-01  0.13007846180E-01 -0.70995418502E-02  0.60182739309E-01  0.51100000000E-03 0. -1.
         11    1    4    4    0    0  0.63525146311E-01  0.12859869051E-02 -0.24205371647E-01  0.67994552089E-01  0.51100000000E-03 0.  1.
</event>
<event>
 8    1  0.1120547E+005  0.1043930E+01  0.7957747E-01            NaN
         13   -1    0    0    0    0  0.00000000000E+00  0.00000000000E+00  0.74505805969E-08  0.10566000000E+00  0.10566000000E+00 0. -1.
     999900   -1    0    0    0    0 -0.00000000000E+00 -0.00000000000E+00 -0.74505805969E-08  0.93827000000E+00  0.93827000000E+00 0. -1.
     999902    2    1    2    0    0 -0.31688390073E-02 -0.11523288926E-01 -0.20467907010E-01  0.10202284611E+01  0.10199531116E+01 0.  0.
     999903    2    3    3    0    0  0.57332468691E-01  0.11281797498E+00  0.12617825705E-01  0.12881619742E+00  0.20481595378E-01 0.  0.
         14    1    1    2    0    0  0.31688390073E-02  0.11523288926E-01  0.20467907010E-01  0.23701538889E-01  0.00000000000E+00 0. -1.
     999901    1    3    3    0    0 -0.60501307699E-01 -0.12434126390E+00 -0.33085732716E-01  0.89141226369E+00  0.88000000000E+00 0. -1.
        -11    1    4    4    0    0  0.39510145995E-01  0.79252765857E-01  0.18182402293E-01  0.90404166976E-01  0.51100000000E-03 0. -1.
         11    1    4    4    0    0  0.17822322696E-01  0.33565209119E-01 -0.55645765874E-02  0.38412030447E-01  0.51100000000E-03 0.  1.
</event>
<event>
 8    1  0.1106905E+005  0.1043930E+01  0.7957747E-01            NaN
         13   -1    0    0    0    0  0.00000000000E+00  0.00000000000E+00  0.74505805969E-08  0.10566000000E+00  0.10566000000E+00 0.  1.
     999900   -1    0    0    0    0 -0.00000000000E+00 -0.00000000000E+00 -0.74505805969E-08  0.93827000000E+00  0.93827000000E+00 0. -1.
     999902    2    1    2    0    0 -0.88034693913E-03  0.23403393239E-01  0.18667808531E-02  0.10204357731E+01  0.10201652750E+01 0.  0.
     999903    2    3    3    0    0 -0.55187922455E-01  0.15588040319E-02 -0.11639310562E+00  0.13059764201E+00  0.21453494074E-01 0.  0.
         14    1    1    2    0    0  0.88034693913E-03 -0.23403393239E-01 -0.18667808531E-02  0.23494226878E-01  0.00000000000E+00 0. -1.
     999901    1    3    3    0    0  0.54307575516E-01  0.21844589207E-01  0.11825988647E+00  0.88983813111E+00  0.88000000000E+00 0.  1.
        -11    1    4    4    0    0 -0.35080941328E-01 -0.69395104181E-02 -0.56708827638E-01  0.67044623217E-01  0.51100000000E-03 0. -1.
         11    1    4    4    0    0 -0.20106981128E-01  0.84983144500E-02 -0.59684277979E-01  0.63553018791E-01  0.51100000000E-03 0.  1.
</event>
<event>
 8    1  0.1106905E+005  0.1043930E+01  0.7957747E-01            NaN
         13   -1    0    0    0    0  0.00000000000E+00  0.00000000000E+00  0.74505805969E-08  0.10566000000E+00  0.10566000000E+00 0.  1.
     999900   -1    0    0    0    0 -0.00000000000E+00 -0.00000000000E+00 -0.74505805969E-08  0.93827000000E+00  0.93827000000E+00 0.  1.
     999902    2    1    2    0    0  0.21081822984E-02  0.15269299468E-01  0.17306308613E-01  0.10207544902E+01  0.10204913644E+01 0.  0.
     999903    2    3    3    0    0 -0.94851472290E-01 -0.59910662449E-01  0.67019239236E-01  0.13085304799E+00  0.66971986680E-02 0.  0.
         14    1    1    2    0    0 -0.21081822984E-02 -0.15269299468E-01 -0.17306308613E-01  0.23175509847E-01  0.00000000000E+00 0. -1.
     999901    1    3    3    0    0  0.96959654588E-01  0.75179961917E-01 -0.49712930623E-01  0.88990144216E+00  0.88000000000E+00 0.  1.
        -11    1    4    4    0    0 -0.54089249029E-01 -0.33426128661E-01  0.41714706032E-01  0.76048213379E-01  0.51100000000E-03 0.  1.
         11    1    4    4    0    0 -0.40762223261E-01 -0.26484533788E-01  0.25304533204E-01  0.54804834612E-01  0.51100000000E-03 0. -1.
</event>
<event>
 8    1  0.1106905E+005  0.1043930E+01  0.7957747E-01            NaN
         13   -1    0    0    0    0  0.00000000000E+00  0.00000000000E+00  0.74505805969E-08  0.10566000000E+00  0.10566000000E+00 0. -1.
     999900   -1    0    0    0    0 -0.00000000000E+00 -0.00000000000E+00 -0.74505805969E-08  0.93827000000E+00  0.93827000000E+00 0.  1.
     999902    2    1    2    0    0  0.16551726358E-01  0.16359062443E-01 -0.83685023758E-04  0.10206580088E+01  0.10203926624E+01 0.  0.
     999903    2    3    3    0    0 -0.83704386968E-01  0.76133043064E-01 -0.62860304573E-01  0.13073378679E+00  0.18364108327E-01 0.  0.
         14    1    1    2    0    0 -0.16551726358E-01 -0.16359062443E-01  0.83685023758E-04  0.23271991162E-01  0.00000000000E+00 0. -1.
     999901    1    3    3    0    0  0.10025611333E+00 -0.59773980621E-01  0.62776619549E-01  0.88992422204E+00  0.88000000000E+00 0.  1.
        -11    1    4    4    0    0 -0.69576461666E-01  0.70859842228E-01 -0.51656585261E-01  0.11194045373E+00  0.51100000000E-03 0. -1.
         11    1    4    4    0    0 -0.14127925302E-01  0.52732008366E-02 -0.11203719312E-01  0.18793333069E-01  0.51100000000E-03 0.  1.
</event>
<event>
 8    1  0.1106905E+005  0.1043930E+01  0.7957747E-01            NaN
         13   -1    0    0    0    0  0.00000000000E+00  0.00000000000E+00  0.74505805969E-08  0.10566000000E+00  0.10566000000E+00 0. -1.
     999900   -1    0    0    0    0 -0.00000000000E+00 -0.00000000000E+00 -0.74505805969E-08  0.93827000000E+00  0.93827000000E+00 0.  1.
     999902    2    1    2    0    0 -0.11266930583E-03 -0.60443962618E-02  0.23431517326E-01  0.10197311689E+01  0.10194440021E+01 0.  0.
     999903    2    3    3    0    0  0.99950669763E-01 -0.51124277712E-01 -0.60306351790E-01  0.12896919273E+00  0.19808292431E-01 0.  0.
         14    1    1    2    0    0  0.11266930583E-03  0.60443962618E-02 -0.23431517326E-01  0.24198831062E-01  0.00000000000E+00 0.  1.
     999901    1    3    3    0    0 -0.10006333907E+00  0.45079881450E-01  0.83737869117E-01  0.89076197621E+00  0.88000000000E+00 0. -1.
        -11    1    4    4    0    0  0.84523545783E-01 -0.37211895473E-01 -0.42761949953E-01  0.10177327960E+00  0.51100000000E-03 0. -1.
         11    1    4    4    0    0  0.15427123980E-01 -0.13912382239E-01 -0.17544401838E-01  0.27195913125E-01  0.51100000000E-03 0.  1.
</event>
<event>
 8    1  0.1106905E+005  0.1043930E+01  0.7957747E-01            NaN
         13   -1    0    0    0    0  0.00000000000E+00  0.00000000000E+00  0.74505805969E-08  0.10566000000E+00  0.10566000000E+00 0. -1.
     999900   -1    0    0    0    0 -0.00000000000E+00 -0.00000000000E+00 -0.74505805969E-08  0.93827000000E+00  0.93827000000E+00 0.  1.
     999902    2    1    2    0    0  0.18015024374E-01  0.12259840522E-01  0.11789016556E-01  0.10191544939E+01  0.10188533048E+01 0.  0.
     999903    2    3    3    0    0 -0.35633841812E-01  0.54904104830E-01 -0.10846864099E+00  0.12833541104E+00  0.20501225333E-01 0.  0.
         14    1    1    2    0    0 -0.18015024374E-01 -0.12259840522E-01 -0.11789016556E-01  0.24775506134E-01  0.00000000000E+00 0.  1.
     999901    1    3    3    0    0  0.53648866186E-01 -0.42644264309E-01  0.12025765755E+00  0.89081908282E+00  0.88000000000E+00 0.  1.
        -11    1    4    4    0    0 -0.32746404917E-01  0.35610398938E-01 -0.68570130036E-01  0.83919910639E-01  0.51100000000E-03 0.  1.
         11    1    4    4    0    0 -0.28874368950E-02  0.19293705893E-01 -0.39898510954E-01  0.44415500405E-01  0.51100000000E-03 0. -1.
</event>
<event>
 8    1  0.1106905E+005  0.1043930E+01  0.7957747E-01            NaN
         13   -1    0    0    0    0  0.00000000000E+00  0.00000000000E+00  0.74505805969E-08  0.10566000000E+00  0.10566000000E+00 0. -1.
     999900   -1    0    0    0    0 -0.00000000000E+00 -0.00000000000E+00 -0.74505805969E-08  0.93827000000E+00  0.93827000000E+00 0.  1.
     999902    2    1    2    0    0 -0.21639568091E-01 -0.12122292107E-01  0.71403000395E-02  0.10181190574E+01  0.10177918305E+01 0.  0.
     999903    2    3    3    0    0 -0.80203946717E-01 -0.14473251489E-01 -0.98985772434E-01  0.12980714331E+00  0.20237668674E-01 0.  0.
         14    1    1    2    0    0  0.21639568091E-01  0.12122292107E-01 -0.71403000395E-02  0.25810942597E-01  0.00000000000E+00 0.  1.
     999901    1    3    3    0    0  0.58564378626E-01  0.23509593815E-02  0.10612607247E+00  0.88831191409E+00  0.88000000000E+00 0. -1.
        -11    1    4    4    0    0 -0.41126508236E-01 -0.45147209868E-02 -0.65074848301E-01  0.77115299310E-01  0.51100000000E-03 0. -1.
         11    1    4    4    0    0 -0.39077438481E-01 -0.99585305020E-02 -0.33910924133E-01  0.52691844004E-01  0.51100000000E-03 0.  1.
</event>
<event>
 8    1  0.1106905E+005  0.1043930E+01  0.7957747E-01            NaN
         13   -1    0    0    0    0  0.00000000000E+00  0.00000000000E+00  0.74505805969E-08  0.10566000000E+00  0.10566000000E+00 0.  1.
     999900   -1    0    0    0    0 -0.00000000000E+00 -0.00000000000E+00 -0.74505805969E-08  0.93827000000E+00  0.93827000000E+00 0.  1.
     999902    2    1    2    0    0 -0.11867769403E-01 -0.18919237472E-01 -0.54785908763E-02  0.10209344253E+01  0.10206754158E+01 0.  0.
     999903    2    3    3    0    0  0.12023369109E+00  0.22061559365E-01 -0.37882075458E-01  0.12954213940E+00  0.20081368603E-01 0.  0.
         14    1    1    2    0    0  0.11867769403E-01  0.18919237472E-01  0.54785908763E-02  0.22995574686E-01  0.00000000000E+00 0.  1.
     999901    1    3    3    0    0 -0.13210146049E+00 -0.40980796837E-01  0.32403484582E-01  0.89139228591E+00  0.88000000000E+00 0. -1.
        -11    1    4    4    0    0  0.99193630022E-02  0.58213971848E-03 -0.92036915939E-02  0.13553660353E-01  0.51100000000E-03 0.  1.
         11    1    4    4    0    0  0.11031432809E+00  0.21479419647E-01 -0.28678383864E-01  0.11598847905E+00  0.51100000000E-03 0. -1.
</event>
<event>
 8    1  0.1106905E+005  0.1043930E+01  0.7957747E-01            NaN
         13   -1    0    0    0    0  0.00000000000E+00  0.00000000000E+00  0.74505805969E-08  0.10566000000E+00  0.10566000000E+00 0. -1.
     999900   -1    0    0    0    0 -0.00000000000E+00 -0.00000000000E+00 -0.74505805969E-08  0.93827000000E+00  0.93827000000E+00 0.  1.
     999902    2    1    2    0    0  0.74175688204E-02 -0.76021421684E-02  0.74882644612E-02  0.10309343470E+01  0.10308524341E+01 0.  0.
     999903    2    3    3    0    0  0.33485405428E-01 -0.99019323353E-01 -0.91367976146E-01  0.14031142485E+00  0.20324618172E-01 0.  0.
         14    1    1    2    0    0 -0.74175688204E-02  0.76021421684E-02 -0.74882644612E-02  0.12995653019E-01  0.00000000000E+00 0.  1.
     999901    1    3    3    0    0 -0.26067836608E-01  0.91417181185E-01  0.98856240607E-01  0.89062292213E+00  0.88000000000E+00 0. -1.
        -11    1    4    4    0    0  0.13998456794E-01 -0.64836733616E-01 -0.65489330674E-01  0.93214121096E-01  0.51100000000E-03 0. -1.
         11    1    4    4    0    0  0.19486948635E-01 -0.34182589738E-01 -0.25878645472E-01  0.47097303753E-01  0.51100000000E-03 0.  1.
</event>
<event>
 8    1  0.1106905E+005  0.1043930E+01  0.7957747E-01            NaN
         13   -1    0    0    0    0  0.00000000000E+00  0.00000000000E+00  0.74505805969E-08  0.10566000000E+00  0.10566000000E+00 0.  1.
     999900   -1    0    0    0    0 -0.00000000000E+00 -0.00000000000E+00 -0.74505805969E-08  0.93827000000E+00  0.93827000000E+00 0. -1.
     999902    2    1    2    0    0  0.20451161142E-01  0.10343543585E-01  0.76084017736E-02  0.10197819843E+01  0.10194960367E+01 0.  0.
     999903    2    3    3    0    0  0.12347116273E+00 -0.25067065964E-01  0.35966571577E-01  0.13261164111E+00  0.20463803769E-01 0.  0.
         14    1    1    2    0    0 -0.20451161142E-01 -0.10343543585E-01 -0.76084017736E-02  0.24148015726E-01  0.00000000000E+00 0. -1.
     999901    1    3    3    0    0 -0.10302000159E+00  0.35410609549E-01 -0.28358169803E-01  0.88717034316E+00  0.88000000000E+00 0.  1.
        -11    1    4    4    0    0  0.94824203271E-01 -0.27421462565E-01  0.24864133216E-01  0.10179416671E+00  0.51100000000E-03 0. -1.
         11    1    4    4    0    0  0.28646959460E-01  0.23543966010E-02  0.11102438361E-01  0.30817474397E-01  0.51100000000E-03 0.  1.
</event>
<event>
 8    1  0.1106905E+005  0.1043930E+01  0.7957747E-01            NaN
         13   -1    0    0    0    0  0.00000000000E+00  0.00000000000E+00  0.74505805969E-08  0.10566000000E+00  0.10566000000E+00 0. -1.
     999900   -1    0    0    0    0 -0.00000000000E+00 -0.00000000000E+00 -0.74505805969E-08  0.93827000000E+00  0.93827000000E+00 0.  1.
     999902    2    1    2    0    0 -0.22154089623E-01 -0.17682815120E-01  0.34186365378E-03  0.10155821163E+01  0.10151864028E+01 0.  0.
     999903    2    3    3    0    0 -0.15125427248E-01  0.10008979563E+00 -0.70482926509E-01  0.12488803819E+00  0.19555904896E-01 0.  0.
         14    1    1    2    0    0  0.22154089623E-01  0.17682815120E-01 -0.34186365378E-03  0.28347883666E-01  0.00000000000E+00 0.  1.
     999901    1    3    3    0    0 -0.70286623750E-02 -0.11777261075E+00  0.70824790163E-01  0.89069407814E+00  0.88000000000E+00 0. -1.
        -11    1    4    4    0    0 -0.16539627582E-01  0.91746175035E-01 -0.57992643866E-01  0.10979220272E+00  0.51100000000E-03 0.  1.
         11    1    4    4    0    0  0.14142003340E-02  0.83436205901E-02 -0.12490282643E-01  0.15095835473E-01  0.51100000000E-03 0. -1.
</event>
<event>
 8    1  0.1106905E+005  0.1043930E+01  0.7957747E-01            NaN
         13   -1    0    0    0    0  0.00000000000E+00  0.00000000000E+00  0.74505805969E-08  0.10566000000E+00  0.10566000000E+00 0. -1.
     999900   -1    0    0    0    0 -0.00000000000E+00 -0.00000000000E+00 -0.74505805969E-08  0.93827000000E+00  0.93827000000E+00 0. -1.
     999902    2    1    2    0    0 -0.13819431569E-01  0.19031808483E-01  0.48726380382E-02  0.10199106531E+01  0.10196277808E+01 0.  0.
     999903    2    3    3    0    0 -0.10822150403E+00  0.73886410798E-01  0.11606575492E-01  0.13313778221E+00  0.20490505641E-01 0.  0.
         14    1    1    2    0    0  0.13819431569E-01 -0.19031808483E-01 -0.48726380382E-02  0.24019346879E-01  0.00000000000E+00 0. -1.
     999901    1    3    3    0    0  0.94402072458E-01 -0.54854602315E-01 -0.67339374533E-02  0.88677287092E+00  0.88000000000E+00 0.  1.
        -11    1    4    4    0    0 -0.92938978117E-01  0.56019505786E-01  0.46655929161E-02  0.10861798912E+00  0.51100000000E-03 0.  1.
         11    1    4    4    0    0 -0.15282525910E-01  0.17866905012E-01  0.69409825754E-02  0.24519793086E-01  0.51100000000E-03 0. -1.
</event>
<event>
 8    1  0.1106905E+005  0.1043930E+01  0.7957747E-01            NaN
         13   -1    0    0    0    0  0.00000000000E+00  0.00000000000E+00  0.74505805969E-08  0.10566000000E+00  0.10566000000E+00 0.  1.
     999900   -1    0    0    0    0 -0.00000000000E+00 -0.00000000000E+00 -0.74505805969E-08  0.93827000000E+00  0.93827000000E+00 0. -1.
     999902    2    1    2    0    0  0.11884520475E-01 -0.20307379998E-01 -0.31359129758E-02  0.10201925726E+01  0.10199163788E+01 0.  0.
     999903    2    3    3    0    0  0.71117546631E-01  0.10293934175E+00  0.25181629919E-01  0.12918180440E+00  0.19990262273E-01 0.  0.
         14    1    1    2    0    0 -0.11884520475E-01  0.20307379998E-01  0.31359129758E-02  0.23737427398E-01  0.00000000000E+00 0.  1.
     999901    1    3    3    0    0 -0.59233026156E-01 -0.12324672174E+00 -0.28317542895E-01  0.89101076820E+00  0.88000000000E+00 0. -1.
        -11    1    4    4    0    0  0.85913464215E-02  0.26974729744E-01  0.57130133414E-02  0.28885063970E-01  0.51100000000E-03 0. -1.
         11    1    4    4    0    0  0.62526200210E-01  0.75964612002E-01  0.19468616578E-01  0.10029674043E+00  0.51100000000E-03 0.  1.
</event>
<event>
 8    1  0.1106905E+005  0.1043930E+01  0.7957747E-01            NaN
         13   -1    0    0    0    0  0.00000000000E+00  0.00000000000E+00  0.74505805969E-08  0.10566000000E+00  0.10566000000E+00 0. -1.
     999900   -1    0    0    0    0 -0.00000000000E+00 -0.00000000000E+00 -0.74505805969E-08  0.93827000000E+00  0.93827000000E+00 0. -1.
     999902    2    1    2    0    0  0.14035277552E-01  0.80906275175E-02 -0.17234144774E-01  0.10202770295E+01  0.10200028205E+01 0.  0.
     999903    2    3    3    0    0 -0.29062125013E-01  0.11922984524E+00  0.39614715316E-01  0.13042248813E+00  0.19502221257E-01 0.  0.
         14    1    1    2    0    0 -0.14035277552E-01 -0.80906275175E-02  0.17234144774E-01  0.23652970547E-01  0.00000000000E+00 0. -1.
     999901    1    3    3    0    0  0.43097402565E-01 -0.11113921772E+00 -0.56848860090E-01  0.88985454133E+00  0.88000000000E+00 0. -1.
        -11    1    4    4    0    0 -0.13360403046E-01  0.23681166874E-01  0.12042404008E-01  0.29741866944E-01  0.51100000000E-03 0.  1.
         11    1    4    4    0    0 -0.15701721967E-01  0.95548678365E-01  0.27572311308E-01  0.10068062118E+00  0.51100000000E-03 0. -1.
</event>
<event>
 8    1  0.1106905E+005  0.1043930E+01  0.7957747E-01            NaN
         13   -1    0    0    0    0  0.00000000000E+00  0.00000000000E+00  0.74505805969E-08  0.10566000000E+00  0.10566000000E+00 0.  1.
     999900   -1    0    0    0    0 -0.00000000000E+00 -0.00000000000E+00 -0.74505805969E-08  0.93827000000E+00  0.93827000000E+00 0. -1.
     999902    2    1    2    0    0 -0.17263018664E-01  0.56971365054E-02  0.15925601534E-01  0.10197619640E+01  0.10194755364E+01 0.  0.
     999903    2    3    3    0    0  0.10489192936E+00  0.16877084581E-01  0.71447027979E-01  0.12952073193E+00  0.19590542686E-01 0.  0.
         14    1    1    2    0    0  0.17263018664E-01 -0.56971365054E-02 -0.15925601534E-01  0.24168035956E-01  0.00000000000E+00 0.  1.
     999901    1    3    3    0    0 -0.12215494803E+00 -0.11179948076E-01 -0.55521426446E-01  0.89024123212E+00  0.88000000000E+00 0. -1.
        -11    1    4    4    0    0  0.50465483453E-01  0.44510655316E-02  0.23160398304E-01  0.55706751611E-01  0.51100000000E-03 0. -1.
         11    1    4    4    0    0  0.54426445909E-01  0.12426019050E-01  0.48286629675E-01  0.73813980316E-01  0.51100000000E-03 0.  1.
</event>
<event>
 8    1  0.1106905E+005  0.1043930E+01  0.7957747E-01            NaN
         13   -1    0    0    0    0  0.00000000000E+00  0.00000000000E+00  0.74505805969E-08  0.10566000000E+00  0.10566000000E+00 0. -1.
     999900   -1    0    0    0    0 -0.00000000000E+00 -0.00000000000E+00 -0.74505805969E-08  0.93827000000E+00  0.93827000000E+00 0. -1.
     999902    2    1    2    0    0 -0.88343225034E-02 -0.61543034703E-02  0.19956715126E-01  0.10212542159E+01  0.10210024399E+01 0.  0.
     999903    2    3    3    0    0  0.95253344657E-01  0.19017581313E-01 -0.81645586812E-01  0.12895892062E+00  0.23011590446E-01 0.  0.
         14    1    1    2    0    0  0.88343225034E-02  0.61543034703E-02 -0.19956715126E-01  0.22675784087E-01  0.00000000000E+00 0.  1.
     999901    1    3    3    0    0 -0.10408766716E+00 -0.25171884783E-01  0.10160230194E+00  0.89229529529E+00  0.88000000000E+00 0.  1.
        -11    1    4    4    0    0  0.21231662338E-01  0.69941687904E-04 -0.29904743534E-01  0.36678920163E-01  0.51100000000E-03 0. -1.
         11    1    4    4    0    0  0.74021682319E-01  0.18947639625E-01 -0.51740843279E-01  0.92280000460E-01  0.51100000000E-03 0.  1.
</event>
<event>
 8    1  0.1106905E+005  0.1043930E+01  0.7957747E-01            NaN
         13   -1    0    0    0    0  0.00000000000E+00  0.00000000000E+00  0.74505805969E-08  0.10566000000E+00  0.10566000000E+00 0.  1.
     999900   -1    0    0    0    0 -0.00000000000E+00 -0.00000000000E+00 -0.74505805969E-08  0.93827000000E+00  0.93827000000E+00 0.  1.
     999902    2    1    2    0    0 -0.17724308251E-01  0.13256253848E-01 -0.10016120616E-01  0.10196359258E+01  0.10193464667E+01 0.  0.
     999903    2    3    3    0    0 -0.34065347744E-01  0.97306899350E-01  0.78424469166E-01  0.13106782008E+00  0.19982380199E-01 0.  0.
         14    1    1    2    0    0  0.17724308251E-01 -0.13256253848E-01  0.10016120616E-01  0.24294074201E-01  0.00000000000E+00 0.  1.
     999901    1    3    3    0    0  0.16341039493E-01 -0.84050645502E-01 -0.88440589782E-01  0.88856810572E+00  0.88000000000E+00 0.  1.
        -11    1    4    4    0    0 -0.14465145362E-01  0.41835420102E-01  0.21541552766E-01  0.49231518584E-01  0.51100000000E-03 0. -1.
         11    1    4    4    0    0 -0.19600202382E-01  0.55471479248E-01  0.56882916401E-01  0.81836301496E-01  0.51100000000E-03 0.  1.
</event>
<event>
 8    1  0.1106905E+005  0.1043930E+01  0.7957747E-01            NaN
         13   -1    0    0    0    0  0.00000000000E+00  0.00000000000E+00  0.74505805969E-08  0.10566000000E+00  0.10566000000E+00 0. -1.
     999900   -1    0    0    0    0 -0.00000000000E+00 -0.00000000000E+00 -0.74505805969E-08  0.93827000000E+00  0.93827000000E+00 0. -1.
     999902    2    1    2    0    0 -0.18395105032E-01  0.17728573669E-02  0.17042615306E-01  0.10187909139E+01  0.10184807080E+01 0.  0.
     999903    2    3    3    0    0 -0.12751803521E+00  0.10833392360E-01 -0.21301016796E-01  0.13117605301E+00  0.19370386502E-01 0.  0.
         14    1    1    2    0    0  0.18395105032E-01 -0.17728573669E-02 -0.17042615306E-01  0.25139086079E-01  0.00000000000E+00 0. -1.
     999901    1    3    3    0    0  0.10912293018E+00 -0.90605349927E-02  0.38343632103E-01  0.88761486091E+00  0.88000000000E+00 0. -1.
        -11    1    4    4    0    0 -0.10485095104E+00  0.56208678370E-02 -0.10499211320E-01  0.10552635050E+00  0.51100000000E-03 0. -1.
         11    1    4    4    0    0 -0.22667084167E-01  0.52125245227E-02 -0.10801805476E-01  0.25649702514E-01  0.51100000000E-03 0.  1.
</event>
<event>
 8    1  0.1106905E+005  0.1043930E+01  0.7957747E-01            NaN
         13   -1    0    0    0    0  0.00000000000E+00  0.00000000000E+00  0.74505805969E-08  0.10566000000E+00  0.10566000000E+00 0.  1.
     999900   -1    0    0    0    0 -0.00000000000E+00 -0.00000000000E+00 -0.74505805969E-08  0.93827000000E+00  0.93827000000E+00 0.  1.
     999902    2    1    2    0    0  0.21141782263E-01  0.12403084616E-01 -0.19116029218E-02  0.10193441160E+01  0.10190475755E+01 0.  0.
     999903    2    3    3    0    0  0.66129350414E-01 -0.48521254075E-01 -0.99768670483E-01  0.13068689189E+00  0.19946754583E-01 0.  0.
         14    1    1    2    0    0 -0.21141782263E-01 -0.12403084616E-01  0.19116029218E-02  0.24585883978E-01  0.00000000000E+00 0. -1.
     999901    1    3    3    0    0 -0.44987568151E-01  0.60924338691E-01  0.97857067561E-01  0.88865722413E+00  0.88000000000E+00 0. -1.
        -11    1    4    4    0    0  0.30525784525E-01 -0.26484905763E-01 -0.63594424778E-01  0.75351083190E-01  0.51100000000E-03 0. -1.
         11    1    4    4    0    0  0.35603565889E-01 -0.22036348312E-01 -0.36174245705E-01  0.55335808698E-01  0.51100000000E-03 0.  1.
</event>
<event>
 8    1  0.1106905E+005  0.1043930E+01  0.7957747E-01            NaN
         13   -1    0    0    0    0  0.00000000000E+00  0.00000000000E+00  0.74505805969E-08  0.10566000000E+00  0.10566000000E+00 0.  1.
     999900   -1    0    0    0    0 -0.00000000000E+00 -0.00000000000E+00 -0.74505805969E-08  0.93827000000E+00  0.93827000000E+00 0. -1.
     999902    2    1    2    0    0 -0.10009698855E-01  0.18989043326E-01 -0.14762547534E-01  0.10178779243E+01  0.10175444748E+01 0.  0.
     999903    2    3    3    0    0  0.51240685389E-01  0.11550174566E+00 -0.25462031902E-01  0.13042043787E+00  0.19872454705E-01 0.  0.
         14    1    1    2    0    0  0.10009698855E-01 -0.18989043326E-01  0.14762547534E-01  0.26052075682E-01  0.00000000000E+00 0.  1.
     999901    1    3    3    0    0 -0.61250384244E-01 -0.96512702337E-01  0.10699484368E-01  0.88745748645E+00  0.88000000000E+00 0. -1.
        -11    1    4    4    0    0  0.11639737728E-01  0.49330024662E-01 -0.75113287724E-02  0.51240765104E-01  0.51100000000E-03 0.  1.
         11    1    4    4    0    0  0.39600947661E-01  0.66171721001E-01 -0.17950703130E-01  0.79179672769E-01  0.51100000000E-03 0. -1.
</event>
<event>
 8    1  0.1106905E+005  0.1043930E+01  0.7957747E-01            NaN
         13   -1    0    0    0    0  0.00000000000E+00  0.00000000000E+00  0.74505805969E-08  0.10566000000E+00  0.10566000000E+00 0.  1.
     999900   -1    0    0    0    0 -0.00000000000E+00 -0.00000000000E+00 -0.74505805969E-08  0.93827000000E+00  0.93827000000E+00 0. -1.
     999902    2    1    2    0    0 -0.24252573264E-02  0.19534568184E-01 -0.11274653081E-01  0.10212452247E+01  0.10209932468E+01 0.  0.
     999903    2    3    3    0    0 -0.18652920982E-01 -0.44388418293E-02  0.12701976384E+00  0.12997455472E+00  0.19792162333E-01 0.  0.
         14    1    1    2    0    0  0.24252573264E-02 -0.19534568184E-01  0.11274653081E-01  0.22684775276E-01  0.00000000000E+00 0.  1.
     999901    1    3    3    0    0  0.16227663656E-01  0.23973410013E-01 -0.13829441693E+00  0.89127067000E+00  0.88000000000E+00 0. -1.
        -11    1    4    4    0    0 -0.36250761458E-02 -0.16508234814E-02  0.87604621352E-01  0.87696620223E-01  0.51100000000E-03 0. -1.
         11    1    4    4    0    0 -0.15027844836E-01 -0.27880183478E-02  0.39415142492E-01  0.42277934498E-01  0.51100000000E-03 0.  1.
</event>
<event>
 8    1  0.1106905E+005  0.1043930E+01  0.7957747E-01            NaN
         13   -1    0    0    0    0  0.00000000000E+00  0.00000000000E+00  0.74505805969E-08  0.10566000000E+00  0.10566000000E+00 0.  1.
     999900   -1    0    0    0    0 -0.00000000000E+00 -0.00000000000E+00 -0.74505805969E-08  0.93827000000E+00  0.93827000000E+00 0. -1.
     999902    2    1    2    0    0 -0.68442977645E-02 -0.17745470125E-01  0.13583997825E-01  0.10205575564E+01  0.10202898877E+01 0.  0.
     999903    2    3    3    0    0  0.36167486187E-01  0.49124630034E-01 -0.11105473258E+00  0.12822553471E+00  0.19680391044E-01 0.  0.
         14    1    1    2    0    0  0.68442977645E-02  0.17745470125E-01 -0.13583997825E-01  0.23372443577E-01  0.00000000000E+00 0.  1.
     999901    1    3    3    0    0 -0.43011783952E-01 -0.66870100159E-01  0.12463873040E+00  0.89233202171E+00  0.88000000000E+00 0.  1.
        -11    1    4    4    0    0  0.14260922213E-01  0.62838733814E-02 -0.33579091695E-01  0.37022661804E-01  0.51100000000E-03 0. -1.
         11    1    4    4    0    0  0.21906563975E-01  0.42840756652E-01 -0.77475640882E-01  0.91202872909E-01  0.51100000000E-03 0.  1.
</event>
<event>
 8    1  0.1106905E+005  0.1043930E+01  0.7957747E-01            NaN
         13   -1    0    0    0    0  0.00000000000E+00  0.00000000000E+00  0.74505805969E-08  0.10566000000E+00  0.10566000000E+00 0.  1.
     999900   -1    0    0    0    0 -0.00000000000E+00 -0.00000000000E+00 -0.74505805969E-08  0.93827000000E+00  0.93827000000E+00 0. -1.
     999902    2    1    2    0    0 -0.12936181873E-01  0.21039047973E-01 -0.82298082074E-02  0.10178970193E+01  0.10175640647E+01 0.  0.
     999903    2    3    3    0    0  0.55117945930E-01 -0.10877864584E+00 -0.22657839607E-01  0.12565704820E+00  0.20137882541E-01 0.  0.
         14    1    1    2    0    0  0.12936181873E-01 -0.21039047973E-01  0.82298082074E-02  0.26032980701E-01  0.00000000000E+00 0. -1.
     999901    1    3    3    0    0 -0.68054127803E-01  0.12981769381E+00  0.14428031400E-01  0.89223997110E+00  0.88000000000E+00 0. -1.
        -11    1    4    4    0    0  0.36714008733E-01 -0.59549680491E-01 -0.47097016553E-02  0.70117938465E-01  0.51100000000E-03 0.  1.
         11    1    4    4    0    0  0.18403937197E-01 -0.49228965344E-01 -0.17948137952E-01  0.55539109735E-01  0.51100000000E-03 0. -1.
</event>
<event>
 8    1  0.1106905E+005  0.1043930E+01  0.7957747E-01            NaN
         13   -1    0    0    0    0  0.00000000000E+00  0.00000000000E+00  0.74505805969E-08  0.10566000000E+00  0.10566000000E+00 0.  1.
     999900   -1    0    0    0    0 -0.00000000000E+00 -0.00000000000E+00 -0.74505805969E-08  0.93827000000E+00  0.93827000000E+00 0. -1.
     999902    2    1    2    0    0  0.17993281982E-01  0.99368384600E-03  0.78715200998E-02  0.10242651473E+01  0.10240763573E+01 0.  0.
     999903    2    3    3    0    0 -0.33046078601E-01  0.96340090554E-01 -0.83085025264E-01  0.13299131351E+00  0.20251214485E-01 0.  0.
         14    1    1    2    0    0 -0.17993281982E-01 -0.99368384600E-03 -0.78715200998E-02  0.19664852727E-01  0.00000000000E+00 0. -1.
     999901    1    3    3    0    0  0.51039360583E-01 -0.95346406708E-01  0.90956545364E-01  0.89127383376E+00  0.88000000000E+00 0.  1.
        -11    1    4    4    0    0 -0.11333419278E-01  0.58701525255E-01 -0.40984185067E-01  0.72486412564E-01  0.51100000000E-03 0.  1.
         11    1    4    4    0    0 -0.21712659323E-01  0.37638565299E-01 -0.42100840197E-01  0.60504900950E-01  0.51100000000E-03 0. -1.
</event>
<event>
 7    1  0.1106905E+005  0.1043930E+01  0.7957747E-01            NaN
         13   -1    0    0    0    0  0.00000000000E+00  0.00000000000E+00  0.74505805969E-08  0.10566000000E+00  0.10566000000E+00 0.  1.
     999900   -1    0    0    0    0 -0.00000000000E+00 -0.00000000000E+00 -0.74505805969E-08  0.93827000000E+00  0.93827000000E+00 0. -1.
     999903    2    1    2    0    0  0.80774436691E-01  0.43354795216E-01 -0.70872178650E-01  0.11779223971E+00  0.21165966521E-01 0.  0.
         14    1    1    2    0    0  0.17065505494E-01  0.51457353007E-02  0.34275611713E-01  0.38633245111E-01  0.00000000000E+00 0.  1.
     999901    1    1    2    0    0 -0.97839942185E-01 -0.48500530516E-01  0.36596566938E-01  0.88750451518E+00  0.88000000000E+00 0.  1.
        -11    1    3    3    0    0  0.26587730118E-01  0.81954635787E-02 -0.31980109687E-01  0.42391762793E-01  0.51100000000E-03 0.  1.
         11    1    3    3    0    0  0.54186706573E-01  0.35159331637E-01 -0.38892068964E-01  0.75400476920E-01  0.51100000000E-03 0. -1.
</event>
<event>
 8    1  0.1106905E+005  0.1043930E+01  0.7957747E-01            NaN
         13   -1    0    0    0    0  0.00000000000E+00  0.00000000000E+00  0.74505805969E-08  0.10566000000E+00  0.10566000000E+00 0. -1.
     999900   -1    0    0    0    0 -0.00000000000E+00 -0.00000000000E+00 -0.74505805969E-08  0.93827000000E+00  0.93827000000E+00 0.  1.
     999902    2    1    2    0    0  0.10089732231E-01 -0.19785918272E-01  0.66538474291E-02  0.10207446826E+01  0.10204813316E+01 0.  0.
     999903    2    3    3    0    0 -0.13497934413E-01 -0.81139596141E-01 -0.10101297350E+00  0.13174929669E+00  0.19708578537E-01 0.  0.
         14    1    1    2    0    0 -0.10089732231E-01  0.19785918272E-01 -0.66538474291E-02  0.23185317422E-01  0.00000000000E+00 0. -1.
     999901    1    3    3    0    0  0.23587666643E-01  0.61353677869E-01  0.10766682093E+00  0.88899538589E+00  0.88000000000E+00 0. -1.
        -11    1    4    4    0    0 -0.70503063495E-02 -0.74099366184E-01 -0.84006110773E-01  0.11223952359E+00  0.51100000000E-03 0.  1.
         11    1    4    4    0    0 -0.64476280632E-02 -0.70402299569E-02 -0.17006862723E-01  0.19509773093E-01  0.51100000000E-03 0. -1.
</event>
<event>
 8    1  0.1106905E+005  0.1043930E+01  0.7957747E-01            NaN
         13   -1    0    0    0    0  0.00000000000E+00  0.00000000000E+00  0.74505805969E-08  0.10566000000E+00  0.10566000000E+00 0.  1.
     999900   -1    0    0    0    0 -0.00000000000E+00 -0.00000000000E+00 -0.74505805969E-08  0.93827000000E+00  0.93827000000E+00 0.  1.
     999902    2    1    2    0    0 -0.18085856286E-01  0.75487433020E-02  0.12690861722E-01  0.10205817732E+01  0.10203146652E+01 0.  0.
     999903    2    3    3    0    0 -0.59211072251E-01 -0.62657122666E-01 -0.95355197338E-01  0.13024807291E+00  0.20978101449E-01 0.  0.
         14    1    1    2    0    0  0.18085856286E-01 -0.75487433020E-02 -0.12690861722E-01  0.23348226791E-01  0.00000000000E+00 0. -1.
     999901    1    3    3    0    0  0.41125215965E-01  0.70205865968E-01  0.10804605906E+00  0.89033370030E+00  0.88000000000E+00 0. -1.
        -11    1    4    4    0    0 -0.17936127300E-01 -0.16522036257E-01 -0.41778295809E-01  0.48377365227E-01  0.51100000000E-03 0.  1.
         11    1    4    4    0    0 -0.41274944950E-01 -0.46135086409E-01 -0.53576901529E-01  0.81870707686E-01  0.51100000000E-03 0. -1.
</event>
<event>
 8    1  0.1106905E+005  0.1043930E+01  0.7957747E-01            NaN
         13   -1    0    0    0    0  0.00000000000E+00  0.00000000000E+00  0.74505805969E-08  0.10566000000E+00  0.10566000000E+00 0. -1.
     999900   -1    0    0    0    0 -0.00000000000E+00 -0.00000000000E+00 -0.74505805969E-08  0.93827000000E+00  0.93827000000E+00 0.  1.
     999902    2    1    2    0    0 -0.73887475557E-02  0.12977781530E-01  0.19945928756E-01  0.10190130083E+01  0.10187083265E+01 0.  0.
     999903    2    3    3    0    0 -0.12292832422E+00 -0.25666357085E-01 -0.24003341155E-01  0.12953321559E+00  0.20798047364E-01 0.  0.
         14    1    1    2    0    0  0.73887475557E-02 -0.12977781530E-01 -0.19945928756E-01  0.24916991749E-01  0.00000000000E+00 0.  1.
     999901    1    3    3    0    0  0.11553957666E+00  0.38644138616E-01  0.43949269911E-01  0.88947979266E+00  0.88000000000E+00 0. -1.
        -11    1    4    4    0    0 -0.85236833277E-01 -0.12729345045E-01 -0.24770348891E-01  0.89672656242E-01  0.51100000000E-03 0. -1.
         11    1    4    4    0    0 -0.37691490940E-01 -0.12937012040E-01  0.76700773586E-03  0.39860559349E-01  0.51100000000E-03 0.  1.
</event>
<event>
 8    1  0.1106905E+005  0.1043930E+01  0.7957747E-01            NaN
         13   -1    0    0    0    0  0.00000000000E+00  0.00000000000E+00  0.74505805969E-08  0.10566000000E+00  0.10566000000E+00 0. -1.
     999900   -1    0    0    0    0 -0.00000000000E+00 -0.00000000000E+00 -0.74505805969E-08  0.93827000000E+00  0.93827000000E+00 0.  1.
     999902    2    1    2    0    0 -0.16482696045E-01  0.82660850592E-02  0.24090828601E-01  0.10135923097E+01  0.10131381914E+01 0.  0.
     999903    2    3    3    0    0 -0.55696787505E-01 -0.10551765539E+00  0.29318804249E-01  0.12538523006E+00  0.25015113371E-01 0.  0.
         14    1    1    2    0    0  0.16482696045E-01 -0.82660850592E-02 -0.24090828601E-01  0.30337690317E-01  0.00000000000E+00 0.  1.
     999901    1    3    3    0    0  0.39214091460E-01  0.11378374045E+00 -0.52279756482E-02  0.88820707962E+00  0.88000000000E+00 0. -1.
        -11    1    4    4    0    0 -0.45791412225E-01 -0.68287329803E-01  0.27916286188E-01  0.86830829782E-01  0.51100000000E-03 0.  1.
         11    1    4    4    0    0 -0.99053752808E-02 -0.37230325589E-01  0.14025180607E-02  0.38554400279E-01  0.51100000000E-03 0. -1.
</event>
<event>
 8    1  0.1106905E+005  0.1043930E+01  0.7957747E-01            NaN
         13   -1    0    0    0    0  0.00000000000E+00  0.00000000000E+00  0.74505805969E-08  0.10566000000E+00  0.10566000000E+00 0. -1.
     999900   -1    0    0    0    0 -0.00000000000E+00 -0.00000000000E+00 -0.74505805969E-08  0.93827000000E+00  0.93827000000E+00 0. -1.
     999902    2    1    2    0    0 -0.65370094164E-02 -0.22586539636E-01  0.16951221503E-02  0.10203554861E+01  0.10200831144E+01 0.  0.
     999903    2    3    3    0    0  0.94180202599E-01  0.36228540368E-01 -0.77906077107E-01  0.12909821612E+00  0.20361111374E-01 0.  0.
         14    1    1    2    0    0  0.65370094164E-02  0.22586539636E-01 -0.16951221503E-02  0.23574513864E-01  0.00000000000E+00 0.  1.
     999901    1    3    3    0    0 -0.10071721202E+00 -0.58815080004E-01  0.79601199257E-01  0.89125727002E+00  0.88000000000E+00 0.  1.
        -11    1    4    4    0    0  0.35192790717E-01  0.22563182592E-01 -0.25160064622E-01  0.48794668766E-01  0.51100000000E-03 0. -1.
         11    1    4    4    0    0  0.58987411882E-01  0.13665357776E-01 -0.52746012485E-01  0.80303547355E-01  0.51100000000E-03 0.  1.
</event>
<event>
 8    1  0.1106905E+005  0.1043930E+01  0.7957747E-01            NaN
         13   -1    0    0    0    0  0.00000000000E+00  0.00000000000E+00  0.74505805969E-08  0.10566000000E+00  0.10566000000E+00 0.  1.
     999900   -1    0    0    0    0 -0.00000000000E+00 -0.00000000000E+00 -0.74505805969E-08  0.93827000000E+00  0.93827000000E+00 0.  1.
     999902    2    1    2    0    0 -0.21837205117E-01 -0.81100252777E-02 -0.24426794387E-02  0.10205077303E+01  0.10202389057E+01 0.  0.
     999903    2    3    3    0    0 -0.10634510221E+00  0.76185590414E-01  0.15165054528E-02  0.13244072228E+00  0.20608740387E-01 0.  0.
         14    1    1    2    0    0  0.21837205117E-01  0.81100252777E-02  0.24426794387E-02  0.23422269748E-01  0.00000000000E+00 0.  1.
     999901    1    3    3    0    0  0.84507897090E-01 -0.84295615692E-01 -0.39591848915E-02  0.88806700797E+00  0.88000000000E+00 0. -1.
        -11    1    4    4    0    0 -0.73475309876E-01  0.40657997082E-01  0.27606204684E-02  0.84021283223E-01  0.51100000000E-03 0.  1.
         11    1    4    4    0    0 -0.32869792330E-01  0.35527593332E-01 -0.12441150156E-02  0.48419439061E-01  0.51100000000E-03 0. -1.
</event>
<event>
 8    1  0.1106905E+005  0.1043930E+01  0.7957747E-01            NaN
         13   -1    0    0    0    0  0.00000000000E+00  0.00000000000E+00  0.74505805969E-08  0.10566000000E+00  0.10566000000E+00 0.  1.
     999900   -1    0    0    0    0 -0.00000000000E+00 -0.00000000000E+00 -0.74505805969E-08  0.93827000000E+00  0.93827000000E+00 0.  1.
     999902    2    1    2    0    0  0.76347303529E-02 -0.21625299183E-01 -0.83260251313E-02  0.10195319393E+01  0.10192399668E+01 0.  0.
     999903    2    3    3    0    0 -0.23071352408E-01 -0.42202170877E-01 -0.12049367461E+00  0.13164238942E+00  0.22308799653E-01 0.  0.
         14    1    1    2    0    0 -0.76347303529E-02  0.21625299183E-01  0.83260251313E-02  0.24398060718E-01  0.00000000000E+00 0.  1.
     999901    1    3    3    0    0  0.30706082761E-01  0.20576871694E-01  0.11216764948E+00  0.88788954986E+00  0.88000000000E+00 0. -1.
        -11    1    4    4    0    0 -0.27202206436E-03 -0.19690494295E-01 -0.32600174921E-01  0.38089658537E-01  0.51100000000E-03 0. -1.
         11    1    4    4    0    0 -0.22799330344E-01 -0.22511676581E-01 -0.87893499690E-01  0.93552730882E-01  0.51100000000E-03 0.  1.
</event>
<event>
 8    1  0.1106905E+005  0.1043930E+01  0.7957747E-01            NaN
         13   -1    0    0    0    0  0.00000000000E+00  0.00000000000E+00  0.74505805969E-08  0.10566000000E+00  0.10566000000E+00 0.  1.
     999900   -1    0    0    0    0 -0.00000000000E+00 -0.00000000000E+00 -0.74505805969E-08  0.93827000000E+00  0.93827000000E+00 0.  1.
     999902    2    1    2    0    0  0.31349064677E-02  0.23591605774E-01 -0.90873297114E-02  0.10184550895E+01  0.10181364341E+01 0.  0.
     999903    2    3    3    0    0 -0.51550304426E-01 -0.79523399515E-01  0.80935746992E-01  0.12619541269E+00  0.19831340975E-01 0.  0.
         14    1    1    2    0    0 -0.31349064677E-02 -0.23591605774E-01  0.90873297114E-02  0.25474910458E-01  0.00000000000E+00 0. -1.
     999901    1    3    3    0    0  0.54685210894E-01  0.10311500529E+00 -0.90023076703E-01  0.89225967686E+00  0.88000000000E+00 0.  1.
        -11    1    4    4    0    0 -0.36683159472E-01 -0.46201550703E-01  0.59902027648E-01  0.84075867605E-01  0.51100000000E-03 0. -1.
         11    1    4    4    0    0 -0.14867144955E-01 -0.33321848812E-01  0.21033719343E-01  0.42119545080E-01  0.51100000000E-03 0.  1.
</event>
<event>
 8    1  0.1106905E+005  0.1043930E+01  0.7957747E-01            NaN
         13   -1    0    0    0    0  0.00000000000E+00  0.00000000000E+00  0.74505805969E-08  0.10566000000E+00  0.10566000000E+00 0.  1.
     999900   -1    0    0    0    0 -0.00000000000E+00 -0.00000000000E+00 -0.74505805969E-08  0.93827000000E+00  0.93827000000E+00 0. -1.
     999902    2    1    2    0    0  0.88980839655E-03 -0.98032532553E-03  0.22880545634E-01  0.10210111832E+01  0.10207539194E+01 0.  0.
     999903    2    3    3    0    0  0.11033408388E+00  0.67368137951E-01  0.13770471645E-01  0.13155485747E+00  0.20124079049E-01 0.  0.
         14    1    1    2    0    0 -0.88980839655E-03  0.98032532553E-03 -0.22880545634E-01  0.22918816838E-01  0.00000000000E+00 0. -1.
     999901    1    3    3    0    0 -0.10944427548E+00 -0.68348463277E-01  0.91100739889E-02  0.88945632569E+00  0.88000000000E+00 0. -1.
        -11    1    4    4    0    0  0.78838255091E-01  0.38325709406E-01  0.48836901677E-02  0.87797733558E-01  0.51100000000E-03 0. -1.
         11    1    4    4    0    0  0.31495828790E-01  0.29042428545E-01  0.88867814774E-02  0.43757123911E-01  0.51100000000E-03 0.  1.
</event>
<event>
 8    1  0.1106905E+005  0.1043930E+01  0.7957747E-01            NaN
         13   -1    0    0    0    0  0.00000000000E+00  0.00000000000E+00  0.74505805969E-08  0.10566000000E+00  0.10566000000E+00 0. -1.
     999900   -1    0    0    0    0 -0.00000000000E+00 -0.00000000000E+00 -0.74505805969E-08  0.93827000000E+00  0.93827000000E+00 0.  1.
     999902    2    1    2    0    0  0.15465895927E-01  0.13091396468E-01 -0.11953657868E-01  0.10204040880E+01  0.10201328513E+01 0.  0.
     999903    2    3    3    0    0 -0.78784263688E-01 -0.39926655063E-01  0.90254213960E-01  0.12791293655E+00  0.20366595453E-01 0.  0.
         14    1    1    2    0    0 -0.15465895927E-01 -0.13091396468E-01  0.11953657868E-01  0.23525911985E-01  0.00000000000E+00 0.  1.
     999901    1    3    3    0    0  0.94250159615E-01  0.53018051531E-01 -0.10220787183E+00  0.89249115146E+00  0.88000000000E+00 0.  1.
        -11    1    4    4    0    0 -0.36359257496E-01 -0.18608278709E-01  0.27595840497E-01  0.49295589822E-01  0.51100000000E-03 0. -1.
         11    1    4    4    0    0 -0.42425006192E-01 -0.21318376354E-01  0.62658373463E-01  0.78617346730E-01  0.51100000000E-03 0.  1.
</event>
<event>
 8    1  0.1106905E+005  0.1043930E+01  0.7957747E-01            NaN
         13   -1    0    0    0    0  0.00000000000E+00  0.00000000000E+00  0.74505805969E-08  0.10566000000E+00  0.10566000000E+00 0.  1.
     999900   -1    0    0    0    0 -0.00000000000E+00 -0.00000000000E+00 -0.74505805969E-08  0.93827000000E+00  0.93827000000E+00 0. -1.
     999902    2    1    2    0    0 -0.13050977747E-01  0.18667070662E-01  0.62398367379E-02  0.10203138380E+01  0.10200404918E+01 0.  0.
     999903    2    3    3    0    0 -0.94995068448E-01  0.40284318885E-01  0.81952469028E-01  0.13300637033E+00  0.18099668229E-01 0.  0.
         14    1    1    2    0    0  0.13050977747E-01 -0.18667070662E-01 -0.62398367379E-02  0.23616162046E-01  0.00000000000E+00 0. -1.
     999901    1    3    3    0    0  0.81944090701E-01 -0.21617248222E-01 -0.75712632290E-01  0.88730746763E+00  0.88000000000E+00 0. -1.
        -11    1    4    4    0    0 -0.26147871800E-01  0.19712953335E-01  0.29028494895E-01  0.43763299301E-01  0.51100000000E-03 0. -1.
         11    1    4    4    0    0 -0.68847196648E-01  0.20571365550E-01  0.52923974133E-01  0.89243071025E-01  0.51100000000E-03 0.  1.
</event>
<event>
 8    1  0.1106905E+005  0.1043930E+01  0.7957747E-01            NaN
         13   -1    0    0    0    0  0.00000000000E+00  0.00000000000E+00  0.74505805969E-08  0.10566000000E+00  0.10566000000E+00 0. -1.
     999900   -1    0    0    0    0 -0.00000000000E+00 -0.00000000000E+00 -0.74505805969E-08  0.93827000000E+00  0.93827000000E+00 0.  1.
     999902    2    1    2    0    0  0.89974285615E-02  0.54177546627E-02  0.20340199194E-01  0.10210383096E+01  0.10207816614E+01 0.  0.
     999903    2    3    3    0    0 -0.11862281957E-01  0.55396135177E-03 -0.12610661530E+00  0.12867882291E+00  0.22679074848E-01 0.  0.
         14    1    1    2    0    0 -0.89974285615E-02 -0.54177546627E-02 -0.20340199194E-01  0.22891690404E-01  0.00000000000E+00 0.  1.
     999901    1    3    3    0    0  0.20859710518E-01  0.48637933109E-02  0.14644681449E+00  0.89235948669E+00  0.88000000000E+00 0. -1.
        -11    1    4    4    0    0 -0.10934882057E-02  0.10657845874E-01 -0.58685392708E-01  0.59657537943E-01  0.51100000000E-03 0.  1.
         11    1    4    4    0    0 -0.10768793751E-01 -0.10103884522E-01 -0.67421222592E-01  0.69021284964E-01  0.51100000000E-03 0. -1.
</event>
<event>
 8    1  0.1106905E+005  0.1043930E+01  0.7957747E-01            NaN
         13   -1    0    0    0    0  0.00000000000E+00  0.00000000000E+00  0.74505805969E-08  0.10566000000E+00  0.10566000000E+00 0.  1.
     999900   -1    0    0    0    0 -0.00000000000E+00 -0.00000000000E+00 -0.74505805969E-08  0.93827000000E+00  0.93827000000E+00 0.  1.
     999902    2    1    2    0    0 -0.47301910576E-02 -0.20085320733E-01  0.91925466684E-02  0.10213402295E+01  0.10210903813E+01 0.  0.
     999903    2    3    3    0    0 -0.93729391872E-01 -0.26523774549E-01  0.88786421377E-01  0.13325380561E+00  0.19617302852E-01 0.  0.
         14    1    1    2    0    0  0.47301910576E-02  0.20085320733E-01 -0.91925466684E-02  0.22589770487E-01  0.00000000000E+00 0.  1.
     999901    1    3    3    0    0  0.88999200814E-01  0.64384538161E-02 -0.79593874708E-01  0.88808642390E+00  0.88000000000E+00 0.  1.
        -11    1    4    4    0    0 -0.62042170927E-01 -0.26913403036E-01  0.58636859528E-01  0.89510360588E-01  0.51100000000E-03 0.  1.
         11    1    4    4    0    0 -0.31687220945E-01  0.38962848651E-03  0.30149561849E-01  0.43743445021E-01  0.51100000000E-03 0. -1.
</event>
<event>
 8    1  0.1106905E+005  0.1043930E+01  0.7957747E-01            NaN
         13   -1    0    0    0    0  0.00000000000E+00  0.00000000000E+00  0.74505805969E-08  0.10566000000E+00  0.10566000000E+00 0. -1.
     999900   -1    0    0    0    0 -0.00000000000E+00 -0.00000000000E+00 -0.74505805969E-08  0.93827000000E+00  0.93827000000E+00 0.  1.
     999902    2    1    2    0    0 -0.14028276117E-01  0.19446725997E-01  0.14354356299E-03  0.10199510866E+01  0.10196691771E+01 0.  0.
     999903    2    3    3    0    0  0.33046200749E-01 -0.55717307333E-01  0.10957890462E+00  0.12874867608E+00  0.19292888190E-01 0.  0.
         14    1    1    2    0    0  0.14028276117E-01 -0.19446725997E-01 -0.14354356299E-03  0.23978913394E-01  0.00000000000E+00 0. -1.
     999901    1    3    3    0    0 -0.47074476866E-01  0.75164033330E-01 -0.10943536105E+00  0.89120241053E+00  0.88000000000E+00 0.  1.
        -11    1    4    4    0    0  0.21600714099E-01 -0.20319894069E-01  0.58091254115E-01  0.65225331507E-01  0.51100000000E-03 0.  1.
         11    1    4    4    0    0  0.11445486651E-01 -0.35397413264E-01  0.51487650503E-01  0.63523344573E-01  0.51100000000E-03 0. -1.
</event>
<event>
 8    1  0.1106905E+005  0.1043930E+01  0.7957747E-01            NaN
         13   -1    0    0    0    0  0.00000000000E+00  0.00000000000E+00  0.74505805969E-08  0.10566000000E+00  0.10566000000E+00 0.  1.
     999900   -1    0    0    0    0 -0.00000000000E+00 -0.00000000000E+00 -0.74505805969E-08  0.93827000000E+00  0.93827000000E+00 0. -1.
     999902    2    1    2    0    0 -0.15425456158E-01  0.19201250298E-01  0.18657758916E-02  0.10192295176E+01  0.10189301722E+01 0.  0.
     999903    2    3    3    0    0  0.67100770250E-01 -0.10426544068E+00  0.19092336141E-01  0.12662022111E+00  0.17157144451E-01 0.  0.
         14    1    1    2    0    0  0.15425456158E-01 -0.19201250298E-01 -0.18657758916E-02  0.24700482392E-01  0.00000000000E+00 0. -1.
     999901    1    3    3    0    0 -0.82526226409E-01  0.12346669098E+00 -0.17226560249E-01  0.89260929650E+00  0.88000000000E+00 0.  1.
        -11    1    4    4    0    0  0.50668492530E-02 -0.18552432100E-01  0.89515731947E-03  0.19259494433E-01  0.51100000000E-03 0.  1.
         11    1    4    4    0    0  0.62033920997E-01 -0.85713008577E-01  0.18197178821E-01  0.10736072667E+00  0.51100000000E-03 0. -1.
</event>
<event>
 8    1  0.1106905E+005  0.1043930E+01  0.7957747E-01            NaN
         13   -1    0    0    0    0  0.00000000000E+00  0.00000000000E+00  0.74505805969E-08  0.10566000000E+00  0.10566000000E+00 0. -1.
     999900   -1    0    0    0    0 -0.00000000000E+00 -0.00000000000E+00 -0.74505805969E-08  0.93827000000E+00  0.93827000000E+00 0.  1.
     999902    2    1    2    0    0 -0.11232722054E-01 -0.11636179556E-01 -0.18383450102E-01  0.10194447808E+01  0.10191506931E+01 0.  0.
     999903    2    3    3    0    0  0.71134521336E-01 -0.10332847161E+00  0.25599348615E-01  0.12976712810E+00  0.21149177669E-01 0.  0.
         14    1    1    2    0    0  0.11232722054E-01  0.11636179556E-01  0.18383450102E-01  0.24485219155E-01  0.00000000000E+00 0.  1.
     999901    1    3    3    0    0 -0.82367243389E-01  0.91692292052E-01 -0.43982798717E-01  0.88967765274E+00  0.88000000000E+00 0. -1.
        -11    1    4    4    0    0  0.43229516580E-01 -0.51445561204E-01  0.51119821751E-02  0.67393103165E-01  0.51100000000E-03 0.  1.
         11    1    4    4    0    0  0.27905004755E-01 -0.51882910404E-01  0.20487366440E-01  0.62374024939E-01  0.51100000000E-03 0. -1.
</event>
<event>
 8    1  0.1106905E+005  0.1043930E+01  0.7957747E-01            NaN
         13   -1    0    0    0    0  0.00000000000E+00  0.00000000000E+00  0.74505805969E-08  0.10566000000E+00  0.10566000000E+00 0. -1.
     999900   -1    0    0    0    0 -0.00000000000E+00 -0.00000000000E+00 -0.74505805969E-08  0.93827000000E+00  0.93827000000E+00 0.  1.
     999902    2    1    2    0    0 -0.45838974258E-02 -0.15629612994E-01  0.17157366990E-01  0.10202726088E+01  0.10199982961E+01 0.  0.
     999903    2    3    3    0    0 -0.87895199756E-01 -0.76532786461E-01  0.61074442527E-01  0.13315442095E+00  0.20424953968E-01 0.  0.
         14    1    1    2    0    0  0.45838974258E-02  0.15629612994E-01 -0.17157366990E-01  0.23657391233E-01  0.00000000000E+00 0.  1.
     999901    1    3    3    0    0  0.83311302330E-01  0.60903173467E-01 -0.43917075537E-01  0.88711818782E+00  0.88000000000E+00 0.  1.
        -11    1    4    4    0    0 -0.75197428550E-01 -0.56678637653E-01  0.43374232593E-01  0.10367596829E+00  0.51100000000E-03 0.  1.
         11    1    4    4    0    0 -0.12697771206E-01 -0.19854148808E-01  0.17700209933E-01  0.29478452659E-01  0.51100000000E-03 0. -1.
</event>
<event>
 8    1  0.1106905E+005  0.1043930E+01  0.7957747E-01            NaN
         13   -1    0    0    0    0  0.00000000000E+00  0.00000000000E+00  0.74505805969E-08  0.10566000000E+00  0.10566000000E+00 0. -1.
     999900   -1    0    0    0    0 -0.00000000000E+00 -0.00000000000E+00 -0.74505805969E-08  0.93827000000E+00  0.93827000000E+00 0.  1.
     999902    2    1    2    0    0 -0.40621742811E-02  0.23321222985E-01  0.39942602900E-02  0.10199230257E+01  0.10196404481E+01 0.  0.
     999903    2    3    3    0    0 -0.24162799236E-01 -0.12143320929E+00  0.24083970084E-01  0.12764421429E+00  0.19574029784E-01 0.  0.
         14    1    1    2    0    0  0.40621742811E-02 -0.23321222985E-01 -0.39942602900E-02  0.24006974334E-01  0.00000000000E+00 0.  1.
     999901    1    3    3    0    0  0.20100624955E-01  0.14475443227E+00 -0.20089709794E-01  0.89227881137E+00  0.88000000000E+00 0. -1.
        -11    1    4    4    0    0 -0.26944333212E-01 -0.95309329614E-01  0.17914406476E-01  0.10065312953E+00  0.51100000000E-03 0.  1.
         11    1    4    4    0    0  0.27815339751E-02 -0.26123879676E-01  0.61695636078E-02  0.26991084763E-01  0.51100000000E-03 0. -1.
</event>
<event>
 8    1  0.1106905E+005  0.1043930E+01  0.7957747E-01            NaN
         13   -1    0    0    0    0  0.00000000000E+00  0.00000000000E+00  0.74505805969E-08  0.10566000000E+00  0.10566000000E+00 0. -1.
     999900   -1    0    0    0    0 -0.00000000000E+00 -0.00000000000E+00 -0.74505805969E-08  0.93827000000E+00  0.93827000000E+00 0.  1.
     999902    2    1    2    0    0 -0.15435822574E-01  0.12175579288E-01  0.13487861263E-01  0.10200881932E+01  0.10198095362E+01 0.  0.
     999903    2    3    3    0    0  0.82287682320E-01 -0.95932525891E-01 -0.46641676814E-02  0.12791851094E+00  0.19159300478E-01 0.  0.
         14    1    1    2    0    0  0.15435822574E-01 -0.12175579288E-01 -0.13487861263E-01  0.23841806789E-01  0.00000000000E+00 0.  1.
     999901    1    3    3    0    0 -0.97723504894E-01  0.10810810518E+00  0.18152028944E-01  0.89216968227E+00  0.88000000000E+00 0. -1.
        -11    1    4    4    0    0  0.28176806138E-01 -0.46234876779E-01  0.16854454024E-02  0.54172853738E-01  0.51100000000E-03 0.  1.
         11    1    4    4    0    0  0.54110876182E-01 -0.49697649112E-01 -0.63496130838E-02  0.73745657199E-01  0.51100000000E-03 0. -1.
</event>
<event>
 8    1  0.1106905E+005  0.1043930E+01  0.7957747E-01            NaN
         13   -1    0    0    0    0  0.00000000000E+00  0.00000000000E+00  0.74505805969E-08  0.10566000000E+00  0.10566000000E+00 0.  1.
     999900   -1    0    0    0    0 -0.00000000000E+00 -0.00000000000E+00 -0.74505805969E-08  0.93827000000E+00  0.93827000000E+00 0. -1.
     999902    2    1    2    0    0  0.10879551310E-01  0.68345009804E-02  0.20013145055E-01  0.10201476323E+01  0.10198703793E+01 0.  0.
     999903    2    3    3    0    0 -0.11830468973E+00 -0.38470357601E-01  0.29854564031E-01  0.12950856290E+00  0.20129700575E-01 0.  0.
         14    1    1    2    0    0 -0.10879551310E-01 -0.68345009804E-02 -0.20013145055E-01  0.23782367741E-01  0.00000000000E+00 0. -1.
     999901    1    3    3    0    0  0.12918424104E+00  0.45304858582E-01 -0.98414189764E-02  0.89063906936E+00  0.88000000000E+00 0. -1.
        -11    1    4    4    0    0 -0.77436581409E-01 -0.18645326201E-01  0.11339343808E-01  0.80454422926E-01  0.51100000000E-03 0. -1.
         11    1    4    4    0    0 -0.40868108318E-01 -0.19825031400E-01  0.18515220223E-01  0.49054139973E-01  0.51100000000E-03 0.  1.
</event>
<event>
 8    1  0.1106905E+005  0.1043930E+01  0.7957747E-01            NaN
         13   -1    0    0    0    0  0.00000000000E+00  0.00000000000E+00  0.74505805969E-08  0.10566000000E+00  0.10566000000E+00 0. -1.
     999900   -1    0    0    0    0 -0.00000000000E+00 -0.00000000000E+00 -0.74505805969E-08  0.93827000000E+00  0.93827000000E+00 0. -1.
     999902    2    1    2    0    0  0.13994177187E-01  0.16426143348E-01  0.87720450131E-02  0.10206361391E+01  0.10203702880E+01 0.  0.
     999903    2    3    3    0    0 -0.47879357601E-01 -0.48036562394E-01  0.10962639900E+00  0.13038034698E+00  0.19522891983E-01 0.  0.
         14    1    1    2    0    0 -0.13994177187E-01 -0.16426143348E-01 -0.87720450131E-02  0.23293860868E-01  0.00000000000E+00 0.  1.
     999901    1    3    3    0    0  0.61873534788E-01  0.64462705741E-01 -0.10085435398E+00  0.89025579215E+00  0.88000000000E+00 0. -1.
        -11    1    4    4    0    0 -0.22806533514E-01 -0.13826761130E-01  0.29880604650E-01  0.40055323611E-01  0.51100000000E-03 0. -1.
         11    1    4    4    0    0 -0.25072824087E-01 -0.34209801263E-01  0.79745794346E-01  0.90325023372E-01  0.51100000000E-03 0.  1.
</event>
<event>
 8    1  0.1106905E+005  0.1043930E+01  0.7957747E-01            NaN
         13   -1    0    0    0    0  0.00000000000E+00  0.00000000000E+00  0.74505805969E-08  0.10566000000E+00  0.10566000000E+00 0.  1.
     999900   -1    0    0    0    0 -0.00000000000E+00 -0.00000000000E+00 -0.74505805969E-08  0.93827000000E+00  0.93827000000E+00 0.  1.
     999902    2    1    2    0    0  0.66184756399E-02  0.19749618886E-01 -0.11933065205E-01  0.10199247982E+01  0.10196422629E+01 0.  0.
     999903    2    3    3    0    0 -0.26397259081E-01 -0.11055079056E+00  0.53667264045E-01  0.12730414050E+00  0.20195949576E-01 0.  0.
         14    1    1    2    0    0 -0.66184756399E-02 -0.19749618886E-01  0.11933065205E-01  0.24005201752E-01  0.00000000000E+00 0.  1.
     999901    1    3    3    0    0  0.33015734721E-01  0.13030040944E+00 -0.65600329250E-01  0.89262065775E+00  0.88000000000E+00 0.  1.
        -11    1    4    4    0    0 -0.49638779588E-03 -0.40580605724E-01  0.15019130807E-01  0.43276637727E-01  0.51100000000E-03 0.  1.
         11    1    4    4    0    0 -0.25900871285E-01 -0.69970184832E-01  0.38648133239E-01  0.84027502774E-01  0.51100000000E-03 0. -1.
</event>
<event>
 8    1  0.1106905E+005  0.1043930E+01  0.7957747E-01            NaN
         13   -1    0    0    0    0  0.00000000000E+00  0.00000000000E+00  0.74505805969E-08  0.10566000000E+00  0.10566000000E+00 0.  1.
     999900   -1    0    0    0    0 -0.00000000000E+00 -0.00000000000E+00 -0.74505805969E-08  0.93827000000E+00  0.93827000000E+00 0.  1.
     999902    2    1    2    0    0  0.44208121387E-02  0.54227335711E-02 -0.27888232426E-01  0.10151775544E+01  0.10147703010E+01 0.  0.
     999903    2    3    3    0    0  0.27752160445E-01 -0.28695487215E-01  0.11438681026E+00  0.12279277610E+00  0.20002752413E-01 0.  0.
         14    1    1    2    0    0 -0.44208121387E-02 -0.54227335711E-02  0.27888232426E-01  0.28752445586E-01  0.00000000000E+00 0.  1.
     999901    1    3    3    0    0 -0.23331348306E-01  0.34118220786E-01 -0.14227504269E+00  0.89238477832E+00  0.88000000000E+00 0.  1.
        -11    1    4    4    0    0  0.21664380979E-01 -0.80511309797E-02  0.60062112051E-01  0.64357474611E-01  0.51100000000E-03 0. -1.
         11    1    4    4    0    0  0.60877794660E-02 -0.20644356235E-01  0.54324698208E-01  0.58435301485E-01  0.51100000000E-03 0.  1.
</event>
<event>
 8    1  0.1106905E+005  0.1043930E+01  0.7957747E-01            NaN
         13   -1    0    0    0    0  0.00000000000E+00  0.00000000000E+00  0.74505805969E-08  0.10566000000E+00  0.10566000000E+00 0.  1.
     999900   -1    0    0    0    0 -0.00000000000E+00 -0.00000000000E+00 -0.74505805969E-08  0.93827000000E+00  0.93827000000E+00 0.  1.
     999902    2    1    2    0    0  0.98078240460E-02  0.34687512484E-02 -0.19665201583E-01  0.10216826226E+01  0.10214403730E+01 0.  0.
     999903    2    3    3    0    0  0.12075839846E+00  0.13361711562E-01  0.47334700465E-01  0.13213392382E+00  0.21393312548E-01 0.  0.
         14    1    1    2    0    0 -0.98078240460E-02 -0.34687512484E-02  0.19665201583E-01  0.22247377397E-01  0.00000000000E+00 0. -1.
     999901    1    3    3    0    0 -0.11095057442E+00 -0.98929603134E-02 -0.66999902049E-01  0.88954869878E+00  0.88000000000E+00 0. -1.
        -11    1    4    4    0    0  0.91367067125E-01  0.31352744097E-02  0.41786897260E-01  0.10051953444E+00  0.51100000000E-03 0. -1.
         11    1    4    4    0    0  0.29391331336E-01  0.10226437152E-01  0.55478032056E-02  0.31614389381E-01  0.51100000000E-03 0.  1.
</event>
<event>
 8    1  0.1106905E+005  0.1043930E+01  0.7957747E-01            NaN
         13   -1    0    0    0    0  0.00000000000E+00  0.00000000000E+00  0.74505805969E-08  0.10566000000E+00  0.10566000000E+00 0.  1.
     999900   -1    0    0    0    0 -0.00000000000E+00 -0.00000000000E+00 -0.74505805969E-08  0.93827000000E+00  0.93827000000E+00 0. -1.
     999902    2    1    2    0    0  0.20624968428E-01  0.46832275852E-02 -0.91640250507E-02  0.10208800261E+01  0.10206197756E+01 0.  0.
     999903    2    3    3    0    0 -0.11231501015E+00  0.60405258991E-01 -0.26481461465E-02  0.12912869337E+00  0.20093530147E-01 0.  0.
         14    1    1    2    0    0 -0.20624968428E-01 -0.46832275852E-02  0.91640250507E-02  0.23049973935E-01  0.00000000000E+00 0.  1.
     999901    1    3    3    0    0  0.13293997858E+00 -0.55722031405E-01 -0.65158789042E-02  0.89175133270E+00  0.88000000000E+00 0. -1.
        -11    1    4    4    0    0 -0.89193370439E-01  0.52773948108E-01  0.45368099671E-02  0.10373712303E+00  0.51100000000E-03 0.  1.
         11    1    4    4    0    0 -0.23121639713E-01  0.76313108826E-02 -0.71849561136E-02  0.25391570337E-01  0.51100000000E-03 0. -1.
</event>
<event>
 8    1  0.1106905E+005  0.1043930E+01  0.7957747E-01            NaN
         13   -1    0    0    0    0  0.00000000000E+00  0.00000000000E+00  0.74505805969E-08  0.10566000000E+00  0.10566000000E+00 0. -1.
     999900   -1    0    0    0    0 -0.00000000000E+00 -0.00000000000E+00 -0.74505805969E-08  0.93827000000E+00  0.93827000000E+00 0. -1.
     999902    2    1    2    0    0 -0.20840750965E-01 -0.13624498779E-02 -0.10896940860E-01  0.10203729100E+01  0.10201009455E+01 0.  0.
     999903    2    3    3    0    0 -0.76924584823E-01 -0.10502693496E+00  0.53687122689E-02  0.13236598806E+00  0.23321297297E-01 0.  0.
         14    1    1    2    0    0  0.20840750965E-01  0.13624498779E-02  0.10896940860E-01  0.23557090028E-01  0.00000000000E+00 0. -1.
     999901    1    3    3    0    0  0.56083833858E-01  0.10366448508E+00 -0.16265653129E-01  0.88800692191E+00  0.88000000000E+00 0.  1.
        -11    1    4    4    0    0 -0.44914135510E-01 -0.53432124869E-01 -0.77880597610E-02  0.70236646648E-01  0.51100000000E-03 0.  1.
         11    1    4    4    0    0 -0.32010449314E-01 -0.51594810089E-01  0.13156772030E-01  0.62129341415E-01  0.51100000000E-03 0. -1.
</event>
<event>
 8    1  0.1106905E+005  0.1043930E+01  0.7957747E-01            NaN
         13   -1    0    0    0    0  0.00000000000E+00  0.00000000000E+00  0.74505805969E-08  0.10566000000E+00  0.10566000000E+00 0. -1.
     999900   -1    0    0    0    0 -0.00000000000E+00 -0.00000000000E+00 -0.74505805969E-08  0.93827000000E+00  0.93827000000E+00 0. -1.
     999902    2    1    2    0    0 -0.10182040047E-01 -0.19529751521E-01 -0.62469102057E-02  0.10210365725E+01  0.10207798849E+01 0.  0.
     999903    2    3    3    0    0 -0.12825150331E+00 -0.24023787026E-01 -0.15066306138E-01  0.13309604735E+00  0.21493575678E-01 0.  0.
         14    1    1    2    0    0  0.10182040047E-01  0.19529751521E-01  0.62469102057E-02  0.22893427466E-01  0.00000000000E+00 0.  1.
     999901    1    3    3    0    0  0.11806946327E+00  0.44940355043E-02  0.88193959323E-02  0.88794052518E+00  0.88000000000E+00 0. -1.
        -11    1    4    4    0    0 -0.59441546216E-01 -0.18753867344E-01 -0.14875870373E-01  0.64082428147E-01  0.51100000000E-03 0.  1.
         11    1    4    4    0    0 -0.68809957099E-01 -0.52699196816E-02 -0.19043576465E-03  0.69013619208E-01  0.51100000000E-03 0. -1.
</event>
<event>
 8    1  0.1106905E+005  0.1043930E+01  0.7957747E-01            NaN
         13   -1    0    0    0    0  0.00000000000E+00  0.00000000000E+00  0.74505805969E-08  0.10566000000E+00  0.10566000000E+00 0. -1.
     999900   -1    0    0    0    0 -0.00000000000E+00 -0.00000000000E+00 -0.74505805969E-08  0.93827000000E+00  0.93827000000E+00 0.  1.
     999902    2    1    2    0    0  0.74707775810E-02  0.22085055802E-01 -0.81264383138E-02  0.10192398966E+01  0.10189408057E+01 0.  0.
     999903    2    3    3    0    0 -0.69074042928E-01 -0.16363590922E-01 -0.10629384044E+00  0.12964771652E+00  0.21706205773E-01 0.  0.
         14    1    1    2    0    0 -0.74707775810E-02 -0.22085055802E-01  0.81264383138E-02  0.24690103424E-01  0.00000000000E+00 0.  1.
     999901    1    3    3    0    0  0.76544820509E-01  0.38448646724E-01  0.98167402123E-01  0.88959218006E+00  0.88000000000E+00 0. -1.
        -11    1    4    4    0    0 -0.46784058841E-01 -0.74007609165E-02 -0.52384217828E-01  0.70624973078E-01  0.51100000000E-03 0. -1.
         11    1    4    4    0    0 -0.22289984086E-01 -0.89628300055E-02 -0.53909622608E-01  0.59022743439E-01  0.51100000000E-03 0.  1.
</event>
<event>
 8    1  0.1106905E+005  0.1043930E+01  0.7957747E-01            NaN
         13   -1    0    0    0    0  0.00000000000E+00  0.00000000000E+00  0.74505805969E-08  0.10566000000E+00  0.10566000000E+00 0.  1.
     999900   -1    0    0    0    0 -0.00000000000E+00 -0.00000000000E+00 -0.74505805969E-08  0.93827000000E+00  0.93827000000E+00 0.  1.
     999902    2    1    2    0    0 -0.15915493783E-01  0.10882836541E-01  0.12066569448E-01  0.10211848649E+01  0.10209315291E+01 0.  0.
     999903    2    3    3    0    0  0.10669218014E+00  0.68034719001E-01  0.26133144952E-01  0.13073731004E+00  0.19933857567E-01 0.  0.
         14    1    1    2    0    0  0.15915493783E-01 -0.10882836541E-01 -0.12066569448E-01  0.22745135123E-01  0.00000000000E+00 0. -1.
     999901    1    3    3    0    0 -0.12260767393E+00 -0.57151882460E-01 -0.14066575503E-01  0.89044755484E+00  0.88000000000E+00 0. -1.
        -11    1    4    4    0    0  0.54854117078E-01  0.46327179529E-01  0.17160213206E-01  0.73823544766E-01  0.51100000000E-03 0.  1.
         11    1    4    4    0    0  0.51838063065E-01  0.21707539472E-01  0.89729317458E-02  0.56913765271E-01  0.51100000000E-03 0. -1.
</event>
<event>
 8    1  0.1106905E+005  0.1043930E+01  0.7957747E-01            NaN
         13   -1    0    0    0    0  0.00000000000E+00  0.00000000000E+00  0.74505805969E-08  0.10566000000E+00  0.10566000000E+00 0.  1.
     999900   -1    0    0    0    0 -0.00000000000E+00 -0.00000000000E+00 -0.74505805969E-08  0.93827000000E+00  0.93827000000E+00 0. -1.
     999902    2    1    2    0    0 -0.66828027257E-02  0.19158298022E-01 -0.12322791320E-01  0.10201907620E+01  0.10199145256E+01 0.  0.
     999903    2    3    3    0    0 -0.20825158423E-01 -0.33402701376E-01  0.12087447235E+00  0.12850461994E+00  0.18798180660E-01 0.  0.
         14    1    1    2    0    0  0.66828027257E-02 -0.19158298022E-01  0.12322791320E-01  0.23739238010E-01  0.00000000000E+00 0.  1.
     999901    1    3    3    0    0  0.14142355697E-01  0.52560999399E-01 -0.13319726367E+00  0.89168614205E+00  0.88000000000E+00 0. -1.
        -11    1    4    4    0    0 -0.20337466544E-01 -0.18199304622E-01  0.62936855538E-01  0.68601283809E-01  0.51100000000E-03 0.  1.
         11    1    4    4    0    0 -0.48769187943E-03 -0.15203396755E-01  0.57937616812E-01  0.59903336127E-01  0.51100000000E-03 0. -1.
</event>
<event>
 8    1  0.1106905E+005  0.1043930E+01  0.7957747E-01            NaN
         13   -1    0    0    0    0  0.00000000000E+00  0.00000000000E+00  0.74505805969E-08  0.10566000000E+00  0.10566000000E+00 0.  1.
     999900   -1    0    0    0    0 -0.00000000000E+00 -0.00000000000E+00 -0.74505805969E-08  0.93827000000E+00  0.93827000000E+00 0. -1.
     999902    2    1    2    0    0  0.13499659527E-01 -0.88856721185E-02 -0.15663895922E-01  0.10214232541E+01  0.10211752594E+01 0.  0.
     999903    2    3    3    0    0  0.95837706166E-01 -0.86163355360E-01  0.26981654435E-01  0.13318340066E+00  0.20020459636E-01 0.  0.
         14    1    1    2    0    0 -0.13499659527E-01  0.88856721185E-02  0.15663895922E-01  0.22506745917E-01  0.00000000000E+00 0.  1.
     999901    1    3    3    0    0 -0.82338046640E-01  0.77277683241E-01 -0.42645550357E-01  0.88823985343E+00  0.88000000000E+00 0.  1.
        -11    1    4    4    0    0  0.40984418697E-01 -0.43145767617E-01  0.21428775730E-01  0.63251350890E-01  0.51100000000E-03 0.  1.
         11    1    4    4    0    0  0.54853287470E-01 -0.43017587743E-01  0.55528787045E-02  0.69932049765E-01  0.51100000000E-03 0. -1.
</event>
<event>
 8    1  0.1106905E+005  0.1043930E+01  0.7957747E-01            NaN
         13   -1    0    0    0    0  0.00000000000E+00  0.00000000000E+00  0.74505805969E-08  0.10566000000E+00  0.10566000000E+00 0. -1.
     999900   -1    0    0    0    0 -0.00000000000E+00 -0.00000000000E+00 -0.74505805969E-08  0.93827000000E+00  0.93827000000E+00 0.  1.
     999902    2    1    2    0    0 -0.13777759796E-01 -0.20558711856E-01  0.22896760574E-02  0.10190758270E+01  0.10187726985E+01 0.  0.
     999903    2    3    3    0    0  0.12184675180E+00 -0.25662414744E-01 -0.23603822183E-01  0.12829497340E+00  0.19931616134E-01 0.  0.
         14    1    1    2    0    0  0.13777759796E-01  0.20558711856E-01 -0.22896760574E-02  0.24854172982E-01  0.00000000000E+00 0.  1.
     999901    1    3    3    0    0 -0.13562451160E+00  0.51037028880E-02  0.25893498241E-01  0.89078085362E+00  0.88000000000E+00 0.  1.
        -11    1    4    4    0    0  0.87775540018E-01 -0.22221228401E-01 -0.25269753883E-01  0.94006116819E-01  0.51100000000E-03 0. -1.
         11    1    4    4    0    0  0.34071211784E-01 -0.34411863427E-02  0.16659317000E-02  0.34288856576E-01  0.51100000000E-03 0.  1.
</event>
<event>
 8    1  0.1106905E+005  0.1043930E+01  0.7957747E-01            NaN
         13   -1    0    0    0    0  0.00000000000E+00  0.00000000000E+00  0.74505805969E-08  0.10566000000E+00  0.10566000000E+00 0.  1.
     999900   -1    0    0    0    0 -0.00000000000E+00 -0.00000000000E+00 -0.74505805969E-08  0.93827000000E+00  0.93827000000E+00 0.  1.
     999902    2    1    2    0    0 -0.14160888545E-01  0.14740101570E-01  0.11312457658E-01  0.10205682137E+01  0.10203007919E+01 0.  0.
     999903    2    3    3    0    0 -0.63572648240E-01  0.59380406094E-01 -0.96419593000E-01  0.13150102083E+00  0.20694596699E-01 0.  0.
         14    1    1    2    0    0  0.14160888545E-01 -0.14740101570E-01 -0.11312457658E-01  0.23361786253E-01  0.00000000000E+00 0.  1.
     999901    1    3    3    0    0  0.49411759696E-01 -0.44640304524E-01  0.10773205066E+00  0.88906719292E+00  0.88000000000E+00 0.  1.
        -11    1    4    4    0    0 -0.47801667043E-01  0.33624104529E-01 -0.71465390469E-01  0.92320869435E-01  0.51100000000E-03 0.  1.
         11    1    4    4    0    0 -0.15770981198E-01  0.25756301565E-01 -0.24954202531E-01  0.39180151394E-01  0.51100000000E-03 0. -1.
</event>
<event>
 8    1  0.1106905E+005  0.1043930E+01  0.7957747E-01            NaN
         13   -1    0    0    0    0  0.00000000000E+00  0.00000000000E+00  0.74505805969E-08  0.10566000000E+00  0.10566000000E+00 0. -1.
     999900   -1    0    0    0    0 -0.00000000000E+00 -0.00000000000E+00 -0.74505805969E-08  0.93827000000E+00  0.93827000000E+00 0.  1.
     999902    2    1    2    0    0  0.21848948664E-01 -0.17377470756E-02  0.70981541007E-02  0.10208913344E+01  0.10206313421E+01 0.  0.
     999903    2    3    3    0    0  0.69882292887E-01  0.78189380487E-01 -0.77509586028E-01  0.13192900807E+00  0.20010326445E-01 0.  0.
         14    1    1    2    0    0 -0.21848948664E-01  0.17377470756E-02 -0.70981541007E-02  0.23038665635E-01  0.00000000000E+00 0.  1.
     999901    1    3    3    0    0 -0.48033344223E-01 -0.79927127563E-01  0.84607740129E-01  0.88896232629E+00  0.88000000000E+00 0. -1.
        -11    1    4    4    0    0  0.19636423317E-01  0.33645062257E-01 -0.21574319452E-01  0.44534163468E-01  0.51100000000E-03 0.  1.
         11    1    4    4    0    0  0.50245869570E-01  0.44544318230E-01 -0.55935266576E-01  0.87394844604E-01  0.51100000000E-03 0. -1.
</event>
<event>
 8    1  0.1106905E+005  0.1043930E+01  0.7957747E-01            NaN
         13   -1    0    0    0    0  0.00000000000E+00  0.00000000000E+00  0.74505805969E-08  0.10566000000E+00  0.10566000000E+00 0. -1.
     999900   -1    0    0    0    0 -0.00000000000E+00 -0.00000000000E+00 -0.74505805969E-08  0.93827000000E+00  0.93827000000E+00 0. -1.
     999902    2    1    2    0    0  0.17925901749E-01 -0.14979713407E-01 -0.22364685206E-02  0.10204623295E+01  0.10201924497E+01 0.  0.
     999903    2    3    3    0    0  0.20526930085E-01 -0.10910794994E+00  0.68656195877E-01  0.13260386098E+00  0.23328332882E-01 0.  0.
         14    1    1    2    0    0 -0.17925901749E-01  0.14979713407E-01  0.22364685206E-02  0.23467670501E-01  0.00000000000E+00 0. -1.
     999901    1    3    3    0    0 -0.26010283354E-02  0.94128236533E-01 -0.70892664397E-01  0.88785846852E+00  0.88000000000E+00 0. -1.
        -11    1    4    4    0    0  0.13509049444E-01 -0.37228590121E-01  0.13917709894E-01  0.41981259020E-01  0.51100000000E-03 0. -1.
         11    1    4    4    0    0  0.70178806402E-02 -0.71879359819E-01  0.54738485983E-01  0.90622601957E-01  0.51100000000E-03 0.  1.
</event>
<event>
 8    1  0.1106905E+005  0.1043930E+01  0.7957747E-01            NaN
         13   -1    0    0    0    0  0.00000000000E+00  0.00000000000E+00  0.74505805969E-08  0.10566000000E+00  0.10566000000E+00 0.  1.
     999900   -1    0    0    0    0 -0.00000000000E+00 -0.00000000000E+00 -0.74505805969E-08  0.93827000000E+00  0.93827000000E+00 0.  1.
     999902    2    1    2    0    0 -0.20583028609E-01  0.18538286057E-02 -0.10977709395E-01  0.10205289776E+01  0.10202606462E+01 0.  0.
     999903    2    3    3    0    0 -0.12957519352E+00 -0.22324665938E-01  0.91901610295E-02  0.13324625228E+00  0.19544390541E-01 0.  0.
         14    1    1    2    0    0  0.20583028609E-01 -0.18538286057E-02  0.10977709395E-01  0.23401022430E-01  0.00000000000E+00 0. -1.
     999901    1    3    3    0    0  0.10899216491E+00  0.24178494544E-01 -0.20167870424E-01  0.88728272530E+00  0.88000000000E+00 0.  1.
        -11    1    4    4    0    0 -0.61822895294E-01 -0.13120728697E-01 -0.50474319795E-02  0.63403167071E-01  0.51100000000E-03 0.  1.
         11    1    4    4    0    0 -0.67752298222E-01 -0.92039372413E-02  0.14237593009E-01  0.69843085204E-01  0.51100000000E-03 0. -1.
</event>
<event>
 8    1  0.1106905E+005  0.1043930E+01  0.7957747E-01            NaN
         13   -1    0    0    0    0  0.00000000000E+00  0.00000000000E+00  0.74505805969E-08  0.10566000000E+00  0.10566000000E+00 0.  1.
     999900   -1    0    0    0    0 -0.00000000000E+00 -0.00000000000E+00 -0.74505805969E-08  0.93827000000E+00  0.93827000000E+00 0.  1.
     999902    2    1    2    0    0 -0.12245734474E-01  0.18915450651E-01 -0.35951217545E-02  0.10211116480E+01  0.10208566601E+01 0.  0.
     999903    2    3    3    0    0 -0.92912720566E-01  0.70762418817E-01 -0.62448796465E-01  0.13394817618E+00  0.20054130831E-01 0.  0.
         14    1    1    2    0    0  0.12245734474E-01 -0.18915450651E-01  0.35951217545E-02  0.22818351968E-01  0.00000000000E+00 0.  1.
     999901    1    3    3    0    0  0.80666986092E-01 -0.51846968166E-01  0.58853674710E-01  0.88716347185E+00  0.88000000000E+00 0. -1.
        -11    1    4    4    0    0 -0.36325307306E-01  0.29832775243E-01 -0.36226458092E-01  0.59347618456E-01  0.51100000000E-03 0. -1.
         11    1    4    4    0    0 -0.56587413260E-01  0.40929643574E-01 -0.26222338373E-01  0.74600557728E-01  0.51100000000E-03 0.  1.
</event>
<event>
 8    1  0.1106905E+005  0.1043930E+01  0.7957747E-01            NaN
         13   -1    0    0    0    0  0.00000000000E+00  0.00000000000E+00  0.74505805969E-08  0.10566000000E+00  0.10566000000E+00 0.  1.
     999900   -1    0    0    0    0 -0.00000000000E+00 -0.00000000000E+00 -0.74505805969E-08  0.93827000000E+00  0.93827000000E+00 0. -1.
     999902    2    1    2    0    0 -0.24738952341E-02  0.21064857112E-02 -0.25609129932E-01  0.10181155665E+01  0.10177882500E+01 0.  0.
     999903    2    3    3    0    0 -0.29824724447E-01 -0.84037872617E-01 -0.93512571808E-01  0.13088403206E+00  0.20836279426E-01 0.  0.
         14    1    1    2    0    0  0.24738952341E-02 -0.21064857112E-02  0.25609129932E-01  0.25814433473E-01  0.00000000000E+00 0.  1.
     999901    1    3    3    0    0  0.27350829213E-01  0.86144358328E-01  0.67903441876E-01  0.88723153446E+00  0.88000000000E+00 0.  1.
        -11    1    4    4    0    0 -0.22855025205E-01 -0.35022014302E-01 -0.38114729791E-01  0.56585222549E-01  0.51100000000E-03 0.  1.
         11    1    4    4    0    0 -0.69696992418E-02 -0.49015858315E-01 -0.55397842017E-01  0.74298809513E-01  0.51100000000E-03 0. -1.
</event>
<event>
 8    1  0.1106905E+005  0.1043930E+01  0.7957747E-01            NaN
         13   -1    0    0    0    0  0.00000000000E+00  0.00000000000E+00  0.74505805969E-08  0.10566000000E+00  0.10566000000E+00 0.  1.
     999900   -1    0    0    0    0 -0.00000000000E+00 -0.00000000000E+00 -0.74505805969E-08  0.93827000000E+00  0.93827000000E+00 0.  1.
     999902    2    1    2    0    0  0.11289441277E-01 -0.18061269950E-01  0.10253100272E-01  0.10202913236E+01  0.10200174499E+01 0.  0.
     999903    2    3    3    0    0  0.20441007349E-01  0.12363035977E+00  0.21254295381E-01  0.12884233718E+00  0.21125864262E-01 0.  0.
         14    1    1    2    0    0 -0.11289441277E-01  0.18061269950E-01 -0.10253100272E-01  0.23638676396E-01  0.00000000000E+00 0. -1.
     999901    1    3    3    0    0 -0.91515660720E-02 -0.14169162972E+00 -0.11001195108E-01  0.89144898642E+00  0.88000000000E+00 0. -1.
        -11    1    4    4    0    0  0.14805145945E-01  0.10669903804E+00  0.25037403517E-01  0.11059389568E+00  0.51100000000E-03 0. -1.
         11    1    4    4    0    0  0.56358614042E-02  0.16931321726E-01 -0.37831081364E-02  0.18248441504E-01  0.51100000000E-03 0.  1.
</event>
<event>
 8    1  0.1106905E+005  0.1043930E+01  0.7957747E-01            NaN
         13   -1    0    0    0    0  0.00000000000E+00  0.00000000000E+00  0.74505805969E-08  0.10566000000E+00  0.10566000000E+00 0.  1.
     999900   -1    0    0    0    0 -0.00000000000E+00 -0.00000000000E+00 -0.74505805969E-08  0.93827000000E+00  0.93827000000E+00 0.  1.
     999902    2    1    2    0    0 -0.18848366046E-01 -0.77305435598E-02  0.11987038255E-01  0.10202929255E+01  0.10200190893E+01 0.  0.
     999903    2    3    3    0    0  0.70936444056E-01  0.88549518950E-01 -0.55388849600E-01  0.12795292702E+00  0.20761273366E-01 0.  0.
         14    1    1    2    0    0  0.18848366046E-01  0.77305435598E-02 -0.11987038255E-01  0.23637074533E-01  0.00000000000E+00 0. -1.
     999901    1    3    3    0    0 -0.89784810102E-01 -0.96280062510E-01  0.67375887855E-01  0.89233999845E+00  0.88000000000E+00 0. -1.
        -11    1    4    4    0    0  0.61309170263E-01  0.63101194036E-01 -0.39514882229E-01  0.96448235265E-01  0.51100000000E-03 0.  1.
         11    1    4    4    0    0  0.96272737937E-02  0.25448324914E-01 -0.15873967370E-01  0.31504691757E-01  0.51100000000E-03 0. -1.
</event>
<event>
 8    1  0.1106905E+005  0.1043930E+01  0.7957747E-01            NaN
         13   -1    0    0    0    0  0.00000000000E+00  0.00000000000E+00  0.74505805969E-08  0.10566000000E+00  0.10566000000E+00 0.  1.
     999900   -1    0    0    0    0 -0.00000000000E+00 -0.00000000000E+00 -0.74505805969E-08  0.93827000000E+00  0.93827000000E+00 0.  1.
     999902    2    1    2    0    0 -0.20360847451E-01 -0.10716063196E-01 -0.64617983531E-02  0.10200311934E+01  0.10197511866E+01 0.  0.
     999903    2    3    3    0    0  0.49499876743E-02 -0.12377553899E+00  0.37931048805E-01  0.13132775111E+00  0.21525039318E-01 0.  0.
         14    1    1    2    0    0  0.20360847451E-01  0.10716063196E-01  0.64617983531E-02  0.23898806608E-01  0.00000000000E+00 0. -1.
     999901    1    3    3    0    0 -0.25310835126E-01  0.11305947580E+00 -0.44392847159E-01  0.88870344228E+00  0.88000000000E+00 0.  1.
        -11    1    4    4    0    0  0.13122577778E-01 -0.78431678511E-01  0.26881857179E-01  0.83944181502E-01  0.51100000000E-03 0.  1.
         11    1    4    4    0    0 -0.81725901038E-02 -0.45343860481E-01  0.11049191627E-01  0.47383569609E-01  0.51100000000E-03 0. -1.
</event>
<event>
 8    1  0.1106905E+005  0.1043930E+01  0.7957747E-01            NaN
         13   -1    0    0    0    0  0.00000000000E+00  0.00000000000E+00  0.74505805969E-08  0.10566000000E+00  0.10566000000E+00 0. -1.
     999900   -1    0    0    0    0 -0.00000000000E+00 -0.00000000000E+00 -0.74505805969E-08  0.93827000000E+00  0.93827000000E+00 0.  1.
     999902    2    1    2    0    0 -0.91592142342E-02  0.39673184676E-02 -0.20952716432E-01  0.10207212269E+01  0.10204573367E+01 0.  0.
     999903    2    3    3    0    0 -0.50956255064E-01 -0.37961241818E-01  0.11097304072E+00  0.12892001468E+00  0.16363331165E-01 0.  0.
         14    1    1    2    0    0  0.91592142342E-02 -0.39673184676E-02  0.20952716432E-01  0.23208773063E-01  0.00000000000E+00 0. -1.
     999901    1    3    3    0    0  0.41797040830E-01  0.41928560285E-01 -0.13192575715E+00  0.89180121226E+00  0.88000000000E+00 0. -1.
        -11    1    4    4    0    0 -0.21024305748E-01 -0.17194482478E-01  0.63586632654E-01  0.69146168608E-01  0.51100000000E-03 0. -1.
         11    1    4    4    0    0 -0.29931949316E-01 -0.20766759340E-01  0.47386408066E-01  0.59773846067E-01  0.51100000000E-03 0.  1.
</event>
<event>
 8    1  0.1106905E+005  0.1043930E+01  0.7957747E-01            NaN
         13   -1    0    0    0    0  0.00000000000E+00  0.00000000000E+00  0.74505805969E-08  0.10566000000E+00  0.10566000000E+00 0.  1.
     999900   -1    0    0    0    0 -0.00000000000E+00 -0.00000000000E+00 -0.74505805969E-08  0.93827000000E+00  0.93827000000E+00 0. -1.
     999902    2    1    2    0    0  0.16649912914E-01  0.64702497437E-03  0.15806868030E-01  0.10209627338E+01  0.10207043688E+01 0.  0.
     999903    2    3    3    0    0  0.97154629328E-01 -0.46078350343E-01  0.77796502281E-01  0.13388495543E+00  0.17625241924E-01 0.  0.
         14    1    1    2    0    0 -0.16649912914E-01 -0.64702497437E-03 -0.15806868030E-01  0.22967266235E-01  0.00000000000E+00 0. -1.
     999901    1    3    3    0    0 -0.80504716414E-01  0.46725375318E-01 -0.61989634251E-01  0.88707777834E+00  0.88000000000E+00 0. -1.
        -11    1    4    4    0    0  0.83259629146E-01 -0.35299578016E-01  0.58171496881E-01  0.10752864839E+00  0.51100000000E-03 0. -1.
         11    1    4    4    0    0  0.13895000182E-01 -0.10778772327E-01  0.19625005399E-01  0.26356307042E-01  0.51100000000E-03 0.  1.
</event>
<event>
 8    1  0.1106905E+005  0.1043930E+01  0.7957747E-01            NaN
         13   -1    0    0    0    0  0.00000000000E+00  0.00000000000E+00  0.74505805969E-08  0.10566000000E+00  0.10566000000E+00 0.  1.
     999900   -1    0    0    0    0 -0.00000000000E+00 -0.00000000000E+00 -0.74505805969E-08  0.93827000000E+00  0.93827000000E+00 0.  1.
     999902    2    1    2    0    0  0.70686056169E-02  0.96403170127E-02  0.20450935714E-01  0.10202415710E+01  0.10199665296E+01 0.  0.
     999903    2    3    3    0    0  0.78628495303E-01 -0.48187141016E-01  0.93042031356E-01  0.13247228796E+00  0.19688744167E-01 0.  0.
         14    1    1    2    0    0 -0.70686056169E-02 -0.96403170127E-02 -0.20450935714E-01  0.23688429012E-01  0.00000000000E+00 0. -1.
     999901    1    3    3    0    0 -0.71559889686E-01  0.57827458029E-01 -0.72591095642E-01  0.88776928302E+00  0.88000000000E+00 0.  1.
        -11    1    4    4    0    0  0.16039465411E-01 -0.33041544448E-02  0.23855899872E-01  0.28940403711E-01  0.51100000000E-03 0. -1.
         11    1    4    4    0    0  0.62589029892E-01 -0.44882986571E-01  0.69186131484E-01  0.10353188425E+00  0.51100000000E-03 0.  1.
</event>
<event>
 8    1  0.1106905E+005  0.1043930E+01  0.7957747E-01            NaN
         13   -1    0    0    0    0  0.00000000000E+00  0.00000000000E+00  0.74505805969E-08  0.10566000000E+00  0.10566000000E+00 0.  1.
     999900   -1    0    0    0    0 -0.00000000000E+00 -0.00000000000E+00 -0.74505805969E-08  0.93827000000E+00  0.93827000000E+00 0.  1.
     999902    2    1    2    0    0 -0.13701178890E-01 -0.64614784572E-02  0.17999845415E-01  0.10204041112E+01  0.10201328751E+01 0.  0.
     999903    2    3    3    0    0  0.38719911962E-01 -0.71960280528E-01  0.10232781420E+00  0.13240114382E+00  0.19533759722E-01 0.  0.
         14    1    1    2    0    0  0.13701178890E-01  0.64614784572E-02 -0.17999845415E-01  0.23525888756E-01  0.00000000000E+00 0. -1.
     999901    1    3    3    0    0 -0.52421090852E-01  0.65498802071E-01 -0.84327968786E-01  0.88800296743E+00  0.88000000000E+00 0.  1.
        -11    1    4    4    0    0  0.17692556619E-01 -0.40605388501E-01  0.40856626641E-01  0.60260677033E-01  0.51100000000E-03 0. -1.
         11    1    4    4    0    0  0.21027355343E-01 -0.31354892028E-01  0.61471187560E-01  0.72140466784E-01  0.51100000000E-03 0.  1.
</event>
<event>
 8    1  0.1106905E+005  0.1043930E+01  0.7957747E-01            NaN
         13   -1    0    0    0    0  0.00000000000E+00  0.00000000000E+00  0.74505805969E-08  0.10566000000E+00  0.10566000000E+00 0.  1.
     999900   -1    0    0    0    0 -0.00000000000E+00 -0.00000000000E+00 -0.74505805969E-08  0.93827000000E+00  0.93827000000E+00 0. -1.
     999902    2    1    2    0    0  0.68846668958E-02 -0.15798179491E-01 -0.15847590993E-01  0.10205178823E+01  0.10202492935E+01 0.  0.
     999903    2    3    3    0    0 -0.59391923735E-01 -0.31267448928E-01  0.10851948072E+00  0.12917111856E+00  0.20090948359E-01 0.  0.
         14    1    1    2    0    0 -0.68846668958E-02  0.15798179491E-01  0.15847590993E-01  0.23412117670E-01  0.00000000000E+00 0.  1.
     999901    1    3    3    0    0  0.66276590631E-01  0.15469269437E-01 -0.12436707171E+00  0.89134676377E+00  0.88000000000E+00 0. -1.
        -11    1    4    4    0    0 -0.24959866903E-01 -0.77265955612E-02  0.58284830468E-01  0.63875486835E-01  0.51100000000E-03 0. -1.
         11    1    4    4    0    0 -0.34432056832E-01 -0.23540853366E-01  0.50234650253E-01  0.65295631721E-01  0.51100000000E-03 0.  1.
</event>
<event>
 8    1  0.1106905E+005  0.1043930E+01  0.7957747E-01            NaN
         13   -1    0    0    0    0  0.00000000000E+00  0.00000000000E+00  0.74505805969E-08  0.10566000000E+00  0.10566000000E+00 0.  1.
     999900   -1    0    0    0    0 -0.00000000000E+00 -0.00000000000E+00 -0.74505805969E-08  0.93827000000E+00  0.93827000000E+00 0.  1.
     999902    2    1    2    0    0 -0.21622163507E-01  0.89921719688E-02 -0.12863093437E-02  0.10204772453E+01  0.10202077124E+01 0.  0.
     999903    2    3    3    0    0 -0.78563555774E-01  0.13318581353E-01  0.10379221130E+00  0.13238798431E+00  0.20103192741E-01 0.  0.
         14    1    1    2    0    0  0.21622163507E-01 -0.89921719688E-02  0.12863093437E-02  0.23452754703E-01  0.00000000000E+00 0. -1.
     999901    1    3    3    0    0  0.56941392267E-01 -0.43264093845E-02 -0.10507852065E+00  0.88808926098E+00  0.88000000000E+00 0.  1.
        -11    1    4    4    0    0 -0.50135966148E-01  0.55476178702E-02  0.79685516595E-01  0.94310306127E-01  0.51100000000E-03 0.  1.
         11    1    4    4    0    0 -0.28427589626E-01  0.77709634830E-02  0.24106694708E-01  0.38077678188E-01  0.51100000000E-03 0. -1.
</event>
<event>
 8    1  0.1106905E+005  0.1043930E+01  0.7957747E-01            NaN
         13   -1    0    0    0    0  0.00000000000E+00  0.00000000000E+00  0.74505805969E-08  0.10566000000E+00  0.10566000000E+00 0. -1.
     999900   -1    0    0    0    0 -0.00000000000E+00 -0.00000000000E+00 -0.74505805969E-08  0.93827000000E+00  0.93827000000E+00 0.  1.
     999902    2    1    2    0    0  0.10934940043E-01  0.13478267152E-01 -0.17459269110E-01  0.10193116597E+01  0.10190143262E+01 0.  0.
     999903    2    3    3    0    0 -0.10324127616E+00  0.19503306843E-01 -0.73930580989E-01  0.13012016264E+00  0.20649112350E-01 0.  0.
         14    1    1    2    0    0 -0.10934940043E-01 -0.13478267152E-01  0.17459269110E-01  0.24618340258E-01  0.00000000000E+00 0. -1.
     999901    1    3    3    0    0  0.11417621620E+00 -0.60250396902E-02  0.56471311879E-01  0.88919149710E+00  0.88000000000E+00 0. -1.
        -11    1    4    4    0    0 -0.48794600408E-01  0.51631802670E-02 -0.22980313200E-01  0.54184198575E-01  0.51100000000E-03 0.  1.
         11    1    4    4    0    0 -0.54446675747E-01  0.14340126576E-01 -0.50950267789E-01  0.75935964068E-01  0.51100000000E-03 0. -1.
</event>
<event>
 8    1  0.1106905E+005  0.1043930E+01  0.7957747E-01            NaN
         13   -1    0    0    0    0  0.00000000000E+00  0.00000000000E+00  0.74505805969E-08  0.10566000000E+00  0.10566000000E+00 0.  1.
     999900   -1    0    0    0    0 -0.00000000000E+00 -0.00000000000E+00 -0.74505805969E-08  0.93827000000E+00  0.93827000000E+00 0.  1.
     999902    2    1    2    0    0  0.11844740598E-01 -0.19147542529E-01  0.70628569747E-02  0.10203331737E+01  0.10200602801E+01 0.  0.
     999903    2    3    3    0    0  0.56862210997E-01  0.79881208107E-01  0.83461266912E-01  0.13035003723E+00  0.20273891639E-01 0.  0.
         14    1    1    2    0    0 -0.11844740598E-01  0.19147542529E-01 -0.70628569747E-02  0.23596826341E-01  0.00000000000E+00 0. -1.
     999901    1    3    3    0    0 -0.45017470400E-01 -0.99028750636E-01 -0.76398409937E-01  0.88998313643E+00  0.88000000000E+00 0.  1.
        -11    1    4    4    0    0  0.30402037453E-01  0.41472552737E-01  0.30550615448E-01  0.59815196539E-01  0.51100000000E-03 0.  1.
         11    1    4    4    0    0  0.26460173545E-01  0.38408655370E-01  0.52910651464E-01  0.70534840687E-01  0.51100000000E-03 0. -1.
</event>
<event>
 8    1  0.1106905E+005  0.1043930E+01  0.7957747E-01            NaN
         13   -1    0    0    0    0  0.00000000000E+00  0.00000000000E+00  0.74505805969E-08  0.10566000000E+00  0.10566000000E+00 0.  1.
     999900   -1    0    0    0    0 -0.00000000000E+00 -0.00000000000E+00 -0.74505805969E-08  0.93827000000E+00  0.93827000000E+00 0.  1.
     999902    2    1    2    0    0  0.86068693845E-03  0.77960813423E-03 -0.24347683214E-01  0.10195546385E+01  0.10192632156E+01 0.  0.
     999903    2    3    3    0    0  0.59999691161E-01 -0.21753327478E-01  0.10775181002E+00  0.12744734050E+00  0.23647448983E-01 0.  0.
         14    1    1    2    0    0 -0.86068693845E-03 -0.77960813423E-03  0.24347683214E-01  0.24375361510E-01  0.00000000000E+00 0.  1.
     999901    1    3    3    0    0 -0.59139004223E-01  0.22532935612E-01 -0.13209949323E+00  0.89210729799E+00  0.88000000000E+00 0.  1.
        -11    1    4    4    0    0  0.20526824873E-01 -0.20435938043E-02  0.54593507252E-01  0.58362993156E-01  0.51100000000E-03 0.  1.
         11    1    4    4    0    0  0.39472866288E-01 -0.19709733674E-01  0.53158302766E-01  0.69084347348E-01  0.51100000000E-03 0. -1.
</event>
<event>
 8    1  0.1106905E+005  0.1043930E+01  0.7957747E-01            NaN
         13   -1    0    0    0    0  0.00000000000E+00  0.00000000000E+00  0.74505805969E-08  0.10566000000E+00  0.10566000000E+00 0. -1.
     999900   -1    0    0    0    0 -0.00000000000E+00 -0.00000000000E+00 -0.74505805969E-08  0.93827000000E+00  0.93827000000E+00 0. -1.
     999902    2    1    2    0    0 -0.11935526942E-01 -0.12715827759E-02 -0.20735572534E-01  0.10199709162E+01  0.10196894784E+01 0.  0.
     999903    2    3    3    0    0  0.61597468656E-01  0.95109426908E-01  0.56515375802E-01  0.12830724115E+00  0.20705293938E-01 0.  0.
         14    1    1    2    0    0  0.11935526942E-01  0.12715827759E-02  0.20735572534E-01  0.23959083756E-01  0.00000000000E+00 0.  1.
     999901    1    3    3    0    0 -0.73532995598E-01 -0.96381009684E-01 -0.77250948336E-01  0.89166367510E+00  0.88000000000E+00 0.  1.
        -11    1    4    4    0    0  0.42278097892E-01  0.62621839646E-01  0.48132440028E-01  0.89587528518E-01  0.51100000000E-03 0. -1.
         11    1    4    4    0    0  0.19319370764E-01  0.32487587262E-01  0.83829357743E-02  0.38719712628E-01  0.51100000000E-03 0.  1.
</event>
<event>
 8    1  0.1106905E+005  0.1043930E+01  0.7957747E-01            NaN
         13   -1    0    0    0    0  0.00000000000E+00  0.00000000000E+00  0.74505805969E-08  0.10566000000E+00  0.10566000000E+00 0.  1.
     999900   -1    0    0    0    0 -0.00000000000E+00 -0.00000000000E+00 -0.74505805969E-08  0.93827000000E+00  0.93827000000E+00 0.  1.
     999902    2    1    2    0    0  0.55048645831E-03 -0.70253287190E-02 -0.21965727106E-01  0.10208615920E+01  0.10206009204E+01 0.  0.
     999903    2    3    3    0    0 -0.11610651790E+00 -0.47525961395E-01  0.31152599866E-01  0.13065334978E+00  0.18983488223E-01 0.  0.
         14    1    1    2    0    0 -0.55048645831E-03  0.70253287190E-02  0.21965727106E-01  0.23068407969E-01  0.00000000000E+00 0. -1.
     999901    1    3    3    0    0  0.11665700436E+00  0.40500632676E-01 -0.53118326971E-01  0.89020824225E+00  0.88000000000E+00 0.  1.
        -11    1    4    4    0    0 -0.27437167061E-01 -0.84748998196E-02  0.15083837593E-01  0.32440797475E-01  0.51100000000E-03 0.  1.
         11    1    4    4    0    0 -0.88669350838E-01 -0.39051061576E-01  0.16068762272E-01  0.98212552304E-01  0.51100000000E-03 0. -1.
</event>
<event>
 8    1  0.1106905E+005  0.1043930E+01  0.7957747E-01            NaN
         13   -1    0    0    0    0  0.00000000000E+00  0.00000000000E+00  0.74505805969E-08  0.10566000000E+00  0.10566000000E+00 0.  1.
     999900   -1    0    0    0    0 -0.00000000000E+00 -0.00000000000E+00 -0.74505805969E-08  0.93827000000E+00  0.93827000000E+00 0.  1.
     999902    2    1    2    0    0 -0.16328174737E-01  0.12637705796E-01 -0.12419830647E-01  0.10198349156E+01  0.10195502352E+01 0.  0.
     999903    2    3    3    0    0  0.32364412480E-01  0.12446560835E+00  0.15255854852E-01  0.13099162718E+00  0.19670343813E-01 0.  0.
         14    1    1    2    0    0  0.16328174737E-01 -0.12637705796E-01  0.12419830647E-01  0.24095084381E-01  0.00000000000E+00 0.  1.
     999901    1    3    3    0    0 -0.48692587217E-01 -0.11182790256E+00 -0.27675685499E-01  0.88884328844E+00  0.88000000000E+00 0.  1.
        -11    1    4    4    0    0  0.39603076856E-03  0.36041121880E-01  0.30566128810E-02  0.36176281042E-01  0.51100000000E-03 0. -1.
         11    1    4    4    0    0  0.31968381712E-01  0.88424486472E-01  0.12199241971E-01  0.94815346135E-01  0.51100000000E-03 0.  1.
</event>
<event>
 8    1  0.1106905E+005  0.1043930E+01  0.7957747E-01            NaN
         13   -1    0    0    0    0  0.00000000000E+00  0.00000000000E+00  0.74505805969E-08  0.10566000000E+00  0.10566000000E+00 0.  1.
     999900   -1    0    0    0    0 -0.00000000000E+00 -0.00000000000E+00 -0.74505805969E-08  0.93827000000E+00  0.93827000000E+00 0. -1.
     999902    2    1    2    0    0  0.23511166431E-01 -0.61595636601E-02 -0.32163077614E-03  0.10196232393E+01  0.10193334741E+01 0.  0.
     999903    2    3    3    0    0 -0.41925612931E-01  0.35873872063E-01 -0.11476571779E+00  0.12881112053E+00  0.19402141071E-01 0.  0.
         14    1    1    2    0    0 -0.23511166431E-01  0.61595636601E-02  0.32163077614E-03  0.24306760743E-01  0.00000000000E+00 0.  1.
     999901    1    3    3    0    0  0.65436779362E-01 -0.42033435724E-01  0.11444408701E+00  0.89081211872E+00  0.88000000000E+00 0.  1.
        -11    1    4    4    0    0 -0.23123604365E-01  0.15905995111E-01 -0.78299266598E-01  0.83178951845E-01  0.51100000000E-03 0.  1.
         11    1    4    4    0    0 -0.18802008566E-01  0.19967876952E-01 -0.36466451187E-01  0.45632168689E-01  0.51100000000E-03 0. -1.
</event>
<event>
 8    1  0.1106905E+005  0.1043930E+01  0.7957747E-01            NaN
         13   -1    0    0    0    0  0.00000000000E+00  0.00000000000E+00  0.74505805969E-08  0.10566000000E+00  0.10566000000E+00 0.  1.
     999900   -1    0    0    0    0 -0.00000000000E+00 -0.00000000000E+00 -0.74505805969E-08  0.93827000000E+00  0.93827000000E+00 0.  1.
     999902    2    1    2    0    0  0.19860326478E-01 -0.11445418250E-01 -0.68967421219E-02  0.10199926815E+01  0.10197117608E+01 0.  0.
     999903    2    3    3    0    0  0.10951310056E+00 -0.32651873759E-01  0.63613456414E-01  0.13237845121E+00  0.20447944952E-01 0.  0.
         14    1    1    2    0    0 -0.19860326478E-01  0.11445418250E-01  0.68967421219E-02  0.23937318535E-01  0.00000000000E+00 0. -1.
     999901    1    3    3    0    0 -0.89652774084E-01  0.21206455509E-01 -0.70510198536E-01  0.88761423026E+00  0.88000000000E+00 0.  1.
        -11    1    4    4    0    0  0.57834293714E-01 -0.24832988661E-01  0.42809868252E-01  0.76121145524E-01  0.51100000000E-03 0.  1.
         11    1    4    4    0    0  0.51678806848E-01 -0.78188850987E-02  0.20803588162E-01  0.56257305684E-01  0.51100000000E-03 0. -1.
</event>
<event>
 8    1  0.1106905E+005  0.1043930E+01  0.7957747E-01            NaN
         13   -1    0    0    0    0  0.00000000000E+00  0.00000000000E+00  0.74505805969E-08  0.10566000000E+00  0.10566000000E+00 0.  1.
     999900   -1    0    0    0    0 -0.00000000000E+00 -0.00000000000E+00 -0.74505805969E-08  0.93827000000E+00  0.93827000000E+00 0. -1.
     999902    2    1    2    0    0  0.20590448258E-01 -0.12201073845E-01 -0.19014472813E-02  0.10199206630E+01  0.10196380292E+01 0.  0.
     999903    2    3    3    0    0 -0.50571101992E-01  0.22982700310E-01 -0.11479104052E+00  0.12916484657E+00  0.20516669703E-01 0.  0.
         14    1    1    2    0    0 -0.20590448258E-01  0.12201073845E-01  0.19014472813E-02  0.24009337022E-01  0.00000000000E+00 0. -1.
     999901    1    3    3    0    0  0.71161550251E-01 -0.35183774156E-01  0.11288959324E+00  0.89075581641E+00  0.88000000000E+00 0.  1.
        -11    1    4    4    0    0 -0.39346000547E-01  0.26370581753E-01 -0.95030619223E-01  0.10618189606E+00  0.51100000000E-03 0. -1.
         11    1    4    4    0    0 -0.11225101445E-01 -0.33878814423E-02 -0.19760421300E-01  0.22982950508E-01  0.51100000000E-03 0.  1.
</event>
<event>
 8    1  0.1106905E+005  0.1043930E+01  0.7957747E-01            NaN
         13   -1    0    0    0    0  0.00000000000E+00  0.00000000000E+00  0.74505805969E-08  0.10566000000E+00  0.10566000000E+00 0.  1.
     999900   -1    0    0    0    0 -0.00000000000E+00 -0.00000000000E+00 -0.74505805969E-08  0.93827000000E+00  0.93827000000E+00 0.  1.
     999902    2    1    2    0    0  0.25217855021E-03  0.39923884856E-02 -0.21927185367E-01  0.10216408946E+01  0.10213977254E+01 0.  0.
     999903    2    3    3    0    0 -0.25747524370E-01  0.67269573905E-01 -0.11067868372E+00  0.13453502992E+00  0.25724942420E-01 0.  0.
         14    1    1    2    0    0 -0.25217855021E-03 -0.39923884856E-02  0.21927185367E-01  0.22289105364E-01  0.00000000000E+00 0.  1.
     999901    1    3    3    0    0  0.25999702920E-01 -0.63277185420E-01  0.88751498351E-01  0.88710586471E+00  0.88000000000E+00 0.  1.
        -11    1    4    4    0    0 -0.16501054547E-01  0.48983051263E-01 -0.96936506654E-01  0.10985705055E+00  0.51100000000E-03 0. -1.
         11    1    4    4    0    0 -0.92464698226E-02  0.18286522643E-01 -0.13742177064E-01  0.24677979374E-01  0.51100000000E-03 0.  1.
</event>
<event>
 8    1  0.1106905E+005  0.1043930E+01  0.7957747E-01            NaN
         13   -1    0    0    0    0  0.00000000000E+00  0.00000000000E+00  0.74505805969E-08  0.10566000000E+00  0.10566000000E+00 0.  1.
     999900   -1    0    0    0    0 -0.00000000000E+00 -0.00000000000E+00 -0.74505805969E-08  0.93827000000E+00  0.93827000000E+00 0. -1.
     999902    2    1    2    0    0 -0.45816963358E-02 -0.22307237945E-01 -0.76871168434E-02  0.10198946808E+01  0.10196114276E+01 0.  0.
     999903    2    3    3    0    0  0.10124780677E+00 -0.72164034229E-01  0.36383030042E-01  0.13105962197E+00  0.19852793887E-01 0.  0.
         14    1    1    2    0    0  0.45816963358E-02  0.22307237945E-01  0.76871168434E-02  0.24035319249E-01  0.00000000000E+00 0.  1.
     999901    1    3    3    0    0 -0.10582950311E+00  0.49856796284E-01 -0.44070146885E-01  0.88883505878E+00  0.88000000000E+00 0.  1.
        -11    1    4    4    0    0  0.52528140479E-01 -0.27884305024E-01  0.23648436353E-01  0.64001950531E-01  0.51100000000E-03 0. -1.
         11    1    4    4    0    0  0.48719666291E-01 -0.44279729205E-01  0.12734593688E-01  0.67057671444E-01  0.51100000000E-03 0.  1.
</event>
<event>
 8    1  0.1106905E+005  0.1043930E+01  0.7957747E-01            NaN
         13   -1    0    0    0    0  0.00000000000E+00  0.00000000000E+00  0.74505805969E-08  0.10566000000E+00  0.10566000000E+00 0.  1.
     999900   -1    0    0    0    0 -0.00000000000E+00 -0.00000000000E+00 -0.74505805969E-08  0.93827000000E+00  0.93827000000E+00 0.  1.
     999902    2    1    2    0    0 -0.17486107058E-01 -0.27356980392E-02 -0.15997106114E-01  0.10200730222E+01  0.10197940063E+01 0.  0.
     999903    2    3    3    0    0 -0.10510938218E+00  0.47460539887E-01 -0.63224590902E-01  0.13303980079E+00  0.20043817772E-01 0.  0.
         14    1    1    2    0    0  0.17486107058E-01  0.27356980392E-02  0.15997106114E-01  0.23856977759E-01  0.00000000000E+00 0.  1.
     999901    1    3    3    0    0  0.87623275118E-01 -0.50196237926E-01  0.47227484788E-01  0.88703322145E+00  0.88000000000E+00 0. -1.
        -11    1    4    4    0    0 -0.66227319447E-01  0.29621632665E-01 -0.50530160164E-01  0.88414123137E-01  0.51100000000E-03 0.  1.
         11    1    4    4    0    0 -0.38882062729E-01  0.17838907221E-01 -0.12694430737E-01  0.44625677649E-01  0.51100000000E-03 0. -1.
</event>
<event>
 8    1  0.1106905E+005  0.1043930E+01  0.7957747E-01            NaN
         13   -1    0    0    0    0  0.00000000000E+00  0.00000000000E+00  0.74505805969E-08  0.10566000000E+00  0.10566000000E+00 0. -1.
     999900   -1    0    0    0    0 -0.00000000000E+00 -0.00000000000E+00 -0.74505805969E-08  0.93827000000E+00  0.93827000000E+00 0.  1.
     999902    2    1    2    0    0 -0.28270684400E-01  0.26611748885E-03 -0.12064779319E-01  0.10131914035E+01  0.10127250164E+01 0.  0.
     999903    2    3    3    0    0 -0.36574695634E-01  0.19011149231E-01 -0.11793076716E+00  0.12660923573E+00  0.20569408696E-01 0.  0.
         14    1    1    2    0    0  0.28270684400E-01 -0.26611748885E-03  0.12064779319E-01  0.30738596502E-01  0.00000000000E+00 0. -1.
     999901    1    3    3    0    0  0.83040112341E-02 -0.18745031742E-01  0.10586598784E+00  0.88658216777E+00  0.88000000000E+00 0. -1.
        -11    1    4    4    0    0 -0.61012892470E-03 -0.35250415653E-02 -0.86068419820E-02  0.93347214873E-02  0.51100000000E-03 0. -1.
         11    1    4    4    0    0 -0.35964566709E-01  0.22536190797E-01 -0.10932392518E+00  0.11727451425E+00  0.51100000000E-03 0.  1.
</event>
<event>
 8    1  0.1106905E+005  0.1043930E+01  0.7957747E-01            NaN
         13   -1    0    0    0    0  0.00000000000E+00  0.00000000000E+00  0.74505805969E-08  0.10566000000E+00  0.10566000000E+00 0. -1.
     999900   -1    0    0    0    0 -0.00000000000E+00 -0.00000000000E+00 -0.74505805969E-08  0.93827000000E+00  0.93827000000E+00 0. -1.
     999902    2    1    2    0    0 -0.21621041498E-01  0.33534405636E-02 -0.10260814068E-01  0.10197639224E+01  0.10194775418E+01 0.  0.
     999903    2    3    3    0    0  0.35381976648E-02  0.42444280683E-01 -0.12258851475E+00  0.13140667818E+00  0.20633354490E-01 0.  0.
         14    1    1    2    0    0  0.21621041498E-01 -0.33534405636E-02  0.10260814068E-01  0.24166077555E-01  0.00000000000E+00 0.  1.
     999901    1    3    3    0    0 -0.25159239163E-01 -0.39090840120E-01  0.11232770068E+00  0.88835724426E+00  0.88000000000E+00 0.  1.
        -11    1    4    4    0    0 -0.16235054678E-02 -0.19703961744E-02 -0.72353152293E-02  0.76895473570E-02  0.51100000000E-03 0. -1.
         11    1    4    4    0    0  0.51617031326E-02  0.44414676858E-01 -0.11535319952E+00  0.12371713082E+00  0.51100000000E-03 0.  1.
</event>
<event>
 8    1  0.1106905E+005  0.1043930E+01  0.7957747E-01            NaN
         13   -1    0    0    0    0  0.00000000000E+00  0.00000000000E+00  0.74505805969E-08  0.10566000000E+00  0.10566000000E+00 0.  1.
     999900   -1    0    0    0    0 -0.00000000000E+00 -0.00000000000E+00 -0.74505805969E-08  0.93827000000E+00  0.93827000000E+00 0. -1.
     999902    2    1    2    0    0  0.70727002580E-02  0.22424570089E-01  0.76478535703E-03  0.10204040711E+01  0.10201328340E+01 0.  0.
     999903    2    3    3    0    0 -0.50347211224E-01  0.10214909509E+00  0.64781001665E-01  0.13262531374E+00  0.20581942627E-01 0.  0.
         14    1    1    2    0    0 -0.70727002580E-02 -0.22424570089E-01 -0.76478535703E-03  0.23525928871E-01  0.00000000000E+00 0.  1.
     999901    1    3    3    0    0  0.57419911482E-01 -0.79724525001E-01 -0.64016216308E-01  0.88777875739E+00  0.88000000000E+00 0. -1.
        -11    1    4    4    0    0 -0.12689722454E-01  0.48562828983E-01  0.29722113389E-01  0.58335602851E-01  0.51100000000E-03 0.  1.
         11    1    4    4    0    0 -0.37657488770E-01  0.53586266107E-01  0.35058888276E-01  0.74289710889E-01  0.51100000000E-03 0. -1.
</event>
<event>
 8    1  0.1106905E+005  0.1043930E+01  0.7957747E-01            NaN
         13   -1    0    0    0    0  0.00000000000E+00  0.00000000000E+00  0.74505805969E-08  0.10566000000E+00  0.10566000000E+00 0. -1.
     999900   -1    0    0    0    0 -0.00000000000E+00 -0.00000000000E+00 -0.74505805969E-08  0.93827000000E+00  0.93827000000E+00 0. -1.
     999902    2    1    2    0    0 -0.96005912440E-02 -0.18886883904E-01 -0.95445712684E-02  0.10206924318E+01  0.10204278787E+01 0.  0.
     999903    2    3    3    0    0  0.67287160822E-01  0.96781303792E-01  0.45870411434E-01  0.12807735440E+00  0.20137807490E-01 0.  0.
         14    1    1    2    0    0  0.96005912440E-02  0.18886883904E-01  0.95445712684E-02  0.23237568215E-01  0.00000000000E+00 0. -1.
     999901    1    3    3    0    0 -0.76887752066E-01 -0.11566818770E+00 -0.55414982703E-01  0.89261507738E+00  0.88000000000E+00 0. -1.
        -11    1    4    4    0    0  0.27917243993E-01  0.46091769946E-01  0.31082939708E-01  0.62211205026E-01  0.51100000000E-03 0.  1.
         11    1    4    4    0    0  0.39369916829E-01  0.50689533846E-01  0.14787471726E-01  0.65866149376E-01  0.51100000000E-03 0. -1.
</event>
<event>
 8    1  0.1106905E+005  0.1043930E+01  0.7957747E-01            NaN
         13   -1    0    0    0    0  0.00000000000E+00  0.00000000000E+00  0.74505805969E-08  0.10566000000E+00  0.10566000000E+00 0. -1.
     999900   -1    0    0    0    0 -0.00000000000E+00 -0.00000000000E+00 -0.74505805969E-08  0.93827000000E+00  0.93827000000E+00 0.  1.
     999902    2    1    2    0    0  0.51514850170E-03 -0.15387938062E-01 -0.16739105593E-01  0.10211868324E+01  0.10209335409E+01 0.  0.
     999903    2    3    3    0    0 -0.79086374560E-01 -0.59641797874E-01 -0.88215151058E-01  0.13360380438E+00  0.16008278276E-01 0.  0.
         14    1    1    2    0    0 -0.51514850170E-03  0.15387938062E-01  0.16739105593E-01  0.22743167586E-01  0.00000000000E+00 0. -1.
     999901    1    3    3    0    0  0.79601523062E-01  0.44253859811E-01  0.71476045465E-01  0.88758302804E+00  0.88000000000E+00 0. -1.
        -11    1    4    4    0    0 -0.30816662057E-01 -0.13891510913E-01 -0.28329334581E-01  0.44107290266E-01  0.51100000000E-03 0.  1.
         11    1    4    4    0    0 -0.48269712504E-01 -0.45750286960E-01 -0.59885816477E-01  0.89496514112E-01  0.51100000000E-03 0. -1.
</event>
<event>
 8    1  0.1106905E+005  0.1043930E+01  0.7957747E-01            NaN
         13   -1    0    0    0    0  0.00000000000E+00  0.00000000000E+00  0.74505805969E-08  0.10566000000E+00  0.10566000000E+00 0.  1.
     999900   -1    0    0    0    0 -0.00000000000E+00 -0.00000000000E+00 -0.74505805969E-08  0.93827000000E+00  0.93827000000E+00 0. -1.
     999902    2    1    2    0    0 -0.15433132760E-01  0.17885088824E-01  0.32141287524E-02  0.10200890979E+01  0.10198104623E+01 0.  0.
     999903    2    3    3    0    0  0.66318645024E-01 -0.10688765034E+00  0.62151673751E-02  0.12753064277E+00  0.20057518919E-01 0.  0.
         14    1    1    2    0    0  0.15433132760E-01 -0.17885088824E-01 -0.32141287524E-02  0.23840902094E-01  0.00000000000E+00 0.  1.
     999901    1    3    3    0    0 -0.81751777784E-01  0.12477273917E+00 -0.30010386227E-02  0.89255845514E+00  0.88000000000E+00 0.  1.
        -11    1    4    4    0    0  0.23009731223E-01 -0.46232443321E-01  0.11154926651E-01  0.52835405326E-01  0.51100000000E-03 0.  1.
         11    1    4    4    0    0  0.43308913802E-01 -0.60655207021E-01 -0.49397592757E-02  0.74695237439E-01  0.51100000000E-03 0. -1.
</event>
<event>
 8    1  0.1106905E+005  0.1043930E+01  0.7957747E-01            NaN
         13   -1    0    0    0    0  0.00000000000E+00  0.00000000000E+00  0.74505805969E-08  0.10566000000E+00  0.10566000000E+00 0.  1.
     999900   -1    0    0    0    0 -0.00000000000E+00 -0.00000000000E+00 -0.74505805969E-08  0.93827000000E+00  0.93827000000E+00 0.  1.
     999902    2    1    2    0    0  0.95845503825E-02 -0.15934254581E-01  0.14379008543E-01  0.10204242568E+01  0.10201534904E+01 0.  0.
     999903    2    3    3    0    0  0.63980508131E-01  0.66736258411E-01 -0.87801749041E-01  0.12900166280E+00  0.19622646676E-01 0.  0.
         14    1    1    2    0    0 -0.95845503825E-02  0.15934254581E-01 -0.14379008543E-01  0.23505743166E-01  0.00000000000E+00 0. -1.
     999901    1    3    3    0    0 -0.54395957748E-01 -0.82670512992E-01  0.10218075758E+00  0.89142259404E+00  0.88000000000E+00 0. -1.
        -11    1    4    4    0    0  0.38835898576E-01  0.31005969771E-01 -0.36780116624E-01  0.61827463796E-01  0.51100000000E-03 0. -1.
         11    1    4    4    0    0  0.25144609555E-01  0.35730288640E-01 -0.51021632418E-01  0.67174199002E-01  0.51100000000E-03 0.  1.
</event>
<event>
 8    1  0.1106905E+005  0.1043930E+01  0.7957747E-01            NaN
         13   -1    0    0    0    0  0.00000000000E+00  0.00000000000E+00  0.74505805969E-08  0.10566000000E+00  0.10566000000E+00 0.  1.
     999900   -1    0    0    0    0 -0.00000000000E+00 -0.00000000000E+00 -0.74505805969E-08  0.93827000000E+00  0.93827000000E+00 0. -1.
     999902    2    1    2    0    0  0.13780341772E-01  0.52805366843E-02 -0.20564308174E-01  0.10186184876E+01  0.10183039579E+01 0.  0.
     999903    2    3    3    0    0 -0.80207640377E-01 -0.30671362647E-01  0.89925195077E-01  0.12601879563E+00  0.20498733647E-01 0.  0.
         14    1    1    2    0    0 -0.13780341772E-01 -0.52805366843E-02  0.20564308174E-01  0.25311512355E-01  0.00000000000E+00 0.  1.
     999901    1    3    3    0    0  0.93987982150E-01  0.35951899332E-01 -0.11048950325E+00  0.89259969201E+00  0.88000000000E+00 0. -1.
        -11    1    4    4    0    0 -0.55215586050E-01 -0.30849146303E-01  0.62819338871E-01  0.89145730283E-01  0.51100000000E-03 0. -1.
         11    1    4    4    0    0 -0.24992054327E-01  0.17778365547E-03  0.27105856205E-01  0.36873065348E-01  0.51100000000E-03 0.  1.
</event>
<event>
 8    1  0.1106905E+005  0.1043930E+01  0.7957747E-01            NaN
         13   -1    0    0    0    0  0.00000000000E+00  0.00000000000E+00  0.74505805969E-08  0.10566000000E+00  0.10566000000E+00 0. -1.
     999900   -1    0    0    0    0 -0.00000000000E+00 -0.00000000000E+00 -0.74505805969E-08  0.93827000000E+00  0.93827000000E+00 0.  1.
     999902    2    1    2    0    0  0.20482025752E-01  0.12146849413E-01  0.99551517572E-03  0.10200961925E+01  0.10198177247E+01 0.  0.
     999903    2    3    3    0    0 -0.20836847217E-01 -0.12490147276E+00  0.80520484309E-02  0.12850251456E+00  0.20334912453E-01 0.  0.
         14    1    1    2    0    0 -0.20482025752E-01 -0.12146849413E-01 -0.99551517572E-03  0.23833807502E-01  0.00000000000E+00 0.  1.
     999901    1    3    3    0    0  0.41318872969E-01  0.13704832218E+00 -0.70565332552E-02  0.89159367794E+00  0.88000000000E+00 0. -1.
        -11    1    4    4    0    0 -0.73990744386E-02 -0.58824251071E-01  0.13643134581E-01  0.60839420270E-01  0.51100000000E-03 0.  1.
         11    1    4    4    0    0 -0.13437772778E-01 -0.66077221692E-01 -0.55910861502E-02  0.67663094291E-01  0.51100000000E-03 0. -1.
</event>
<event>
 7    1  0.1106905E+005  0.1043930E+01  0.7957747E-01            NaN
         13   -1    0    0    0    0  0.00000000000E+00  0.00000000000E+00  0.74505805969E-08  0.10566000000E+00  0.10566000000E+00 0. -1.
     999900   -1    0    0    0    0 -0.00000000000E+00 -0.00000000000E+00 -0.74505805969E-08  0.93827000000E+00  0.93827000000E+00 0.  1.
     999903    2    1    2    0    0 -0.38786375135E-01 -0.11288934974E-01 -0.36038281186E-01  0.57830854126E-01  0.20342738979E-01 0.  0.
         14    1    1    2    0    0 -0.73403816532E-01 -0.46350331409E-01  0.43440822658E-01  0.97075118215E-01  0.00000000000E+00 0. -1.
     999901    1    1    2    0    0  0.11219019167E+00  0.57639266383E-01 -0.74025414720E-02  0.88902402766E+00  0.88000000000E+00 0. -1.
        -11    1    3    3    0    0  0.13360637449E-02 -0.15697100783E-02 -0.71057226992E-02  0.74162977380E-02  0.51100000000E-03 0.  1.
         11    1    3    3    0    0 -0.40122438879E-01 -0.97192248958E-02 -0.28932558487E-01  0.50414556388E-01  0.51100000000E-03 0. -1.
</event>
<event>
 8    1  0.1106905E+005  0.1043930E+01  0.7957747E-01            NaN
         13   -1    0    0    0    0  0.00000000000E+00  0.00000000000E+00  0.74505805969E-08  0.10566000000E+00  0.10566000000E+00 0.  1.
     999900   -1    0    0    0    0 -0.00000000000E+00 -0.00000000000E+00 -0.74505805969E-08  0.93827000000E+00  0.93827000000E+00 0. -1.
     999902    2    1    2    0    0 -0.51722971636E-02 -0.14107285097E-01 -0.17951010789E-01  0.10205204520E+01  0.10202519228E+01 0.  0.
     999903    2    3    3    0    0  0.99515027625E-01 -0.54711146567E-01 -0.64388855000E-01  0.13217109337E+00  0.20657274592E-01 0.  0.
         14    1    1    2    0    0  0.51722971636E-02  0.14107285097E-01  0.17951010789E-01  0.23409548033E-01  0.00000000000E+00 0.  1.
     999901    1    3    3    0    0 -0.10468732479E+00  0.40603861470E-01  0.46437844211E-01  0.88834935859E+00  0.88000000000E+00 0. -1.
        -11    1    4    4    0    0  0.16631545608E-01 -0.18766488080E-01 -0.13664078915E-01  0.28561469811E-01  0.51100000000E-03 0. -1.
         11    1    4    4    0    0  0.82883482017E-01 -0.35944658487E-01 -0.50724776084E-01  0.10360962356E+00  0.51100000000E-03 0.  1.
</event>
<event>
 8    1  0.1106905E+005  0.1043930E+01  0.7957747E-01            NaN
         13   -1    0    0    0    0  0.00000000000E+00  0.00000000000E+00  0.74505805969E-08  0.10566000000E+00  0.10566000000E+00 0. -1.
     999900   -1    0    0    0    0 -0.00000000000E+00 -0.00000000000E+00 -0.74505805969E-08  0.93827000000E+00  0.93827000000E+00 0.  1.
     999902    2    1    2    0    0 -0.14018617021E-02  0.14541595507E-01  0.18692024327E-01  0.10202062779E+01  0.10199304067E+01 0.  0.
     999903    2    3    3    0    0 -0.65536070246E-01 -0.10912164459E+00 -0.32055611636E-02  0.12897942806E+00  0.20564712921E-01 0.  0.
         14    1    1    2    0    0  0.14018617021E-02 -0.14541595507E-01 -0.18692024327E-01  0.23723722085E-01  0.00000000000E+00 0.  1.
     999901    1    3    3    0    0  0.64134208544E-01  0.12366324010E+00  0.21897585491E-01  0.89122684986E+00  0.88000000000E+00 0.  1.
        -11    1    4    4    0    0 -0.57093100754E-01 -0.78820471314E-01 -0.51203027590E-02  0.97461620514E-01  0.51100000000E-03 0.  1.
         11    1    4    4    0    0 -0.84429694922E-02 -0.30301173280E-01  0.19147415953E-02  0.31517807543E-01  0.51100000000E-03 0. -1.
</event>
<event>
 8    1  0.1106905E+005  0.1043930E+01  0.7957747E-01            NaN
         13   -1    0    0    0    0  0.00000000000E+00  0.00000000000E+00  0.74505805969E-08  0.10566000000E+00  0.10566000000E+00 0. -1.
     999900   -1    0    0    0    0 -0.00000000000E+00 -0.00000000000E+00 -0.74505805969E-08  0.93827000000E+00  0.93827000000E+00 0. -1.
     999902    2    1    2    0    0  0.15525088378E-01 -0.17712703860E-01 -0.10621768816E-02  0.10203525432E+01  0.10200801028E+01 0.  0.
     999903    2    3    3    0    0  0.76254670709E-01 -0.65164370561E-01  0.84785751067E-01  0.13282248202E+00  0.19799448263E-01 0.  0.
         14    1    1    2    0    0 -0.15525088378E-01  0.17712703860E-01  0.10621768816E-02  0.23577456752E-01  0.00000000000E+00 0.  1.
     999901    1    3    3    0    0 -0.60729582330E-01  0.47451666702E-01 -0.85847927949E-01  0.88753006122E+00  0.88000000000E+00 0. -1.
        -11    1    4    4    0    0  0.39840895051E-02 -0.42298872192E-02  0.12587327444E-01  0.13873242168E-01  0.51100000000E-03 0.  1.
         11    1    4    4    0    0  0.72270581203E-01 -0.60934483342E-01  0.72198423623E-01  0.11894923986E+00  0.51100000000E-03 0. -1.
</event>
<event>
 8    1  0.1106905E+005  0.1043930E+01  0.7957747E-01            NaN
         13   -1    0    0    0    0  0.00000000000E+00  0.00000000000E+00  0.74505805969E-08  0.10566000000E+00  0.10566000000E+00 0. -1.
     999900   -1    0    0    0    0 -0.00000000000E+00 -0.00000000000E+00 -0.74505805969E-08  0.93827000000E+00  0.93827000000E+00 0. -1.
     999902    2    1    2    0    0  0.14222012889E-01 -0.16488852409E-01 -0.10554787376E-01  0.10197318298E+01  0.10194446789E+01 0.  0.
     999903    2    3    3    0    0 -0.10674334373E+00 -0.68565917201E-01 -0.20033910642E-01  0.12988100413E+00  0.19294849726E-01 0.  0.
         14    1    1    2    0    0 -0.14222012889E-01  0.16488852409E-01  0.10554787376E-01  0.24198170198E-01  0.00000000000E+00 0. -1.
     999901    1    3    3    0    0  0.12096535661E+00  0.52077064792E-01  0.94791232658E-02  0.88985082568E+00  0.88000000000E+00 0.  1.
        -11    1    4    4    0    0 -0.23767548247E-01 -0.70828723649E-02 -0.71444474814E-03  0.24816022705E-01  0.51100000000E-03 0.  1.
         11    1    4    4    0    0 -0.82975795479E-01 -0.61483044836E-01 -0.19319465893E-01  0.10506498142E+00  0.51100000000E-03 0. -1.
</event>
<event>
 8    1  0.1106905E+005  0.1043930E+01  0.7957747E-01            NaN
         13   -1    0    0    0    0  0.00000000000E+00  0.00000000000E+00  0.74505805969E-08  0.10566000000E+00  0.10566000000E+00 0.  1.
     999900   -1    0    0    0    0 -0.00000000000E+00 -0.00000000000E+00 -0.74505805969E-08  0.93827000000E+00  0.93827000000E+00 0. -1.
     999902    2    1    2    0    0  0.13442609932E-01 -0.52435811383E-02 -0.19264366080E-01  0.10198610427E+01  0.10195769867E+01 0.  0.
     999903    2    3    3    0    0 -0.31099391925E-01 -0.12353204727E+00 -0.21497148312E-01  0.13082722081E+00  0.20646923214E-01 0.  0.
         14    1    1    2    0    0 -0.13442609932E-01  0.52435811383E-02  0.19264366080E-01  0.24068957298E-01  0.00000000000E+00 0.  1.
     999901    1    3    3    0    0  0.44542001857E-01  0.11828846613E+00  0.22327822318E-02  0.88903382189E+00  0.88000000000E+00 0.  1.
        -11    1    4    4    0    0 -0.25349605058E-01 -0.58463070789E-01 -0.10688038059E-01  0.64614459691E-01  0.51100000000E-03 0. -1.
         11    1    4    4    0    0 -0.57497868666E-02 -0.65068976484E-01 -0.10809110253E-01  0.66212761120E-01  0.51100000000E-03 0.  1.
</event>
<event>
 8    1  0.1106905E+005  0.1043930E+01  0.7957747E-01            NaN
         13   -1    0    0    0    0  0.00000000000E+00  0.00000000000E+00  0.74505805969E-08  0.10566000000E+00  0.10566000000E+00 0.  1.
     999900   -1    0    0    0    0 -0.00000000000E+00 -0.00000000000E+00 -0.74505805969E-08  0.93827000000E+00  0.93827000000E+00 0.  1.
     999902    2    1    2    0    0  0.13114010378E-01 -0.14024820184E-01 -0.12306024267E-01  0.10211240560E+01  0.10208693485E+01 0.  0.
     999903    2    3    3    0    0  0.10692260702E+00 -0.64347378626E-01  0.41635460557E-01  0.13306882319E+00  0.20019268289E-01 0.  0.
         14    1    1    2    0    0 -0.13114010378E-01  0.14024820184E-01  0.12306024267E-01  0.22805944021E-01  0.00000000000E+00 0.  1.
     999901    1    3    3    0    0 -0.93808596641E-01  0.50322558441E-01 -0.53941484824E-01  0.88805523279E+00  0.88000000000E+00 0.  1.
        -11    1    4    4    0    0  0.77771634438E-01 -0.35949902217E-01  0.28916118820E-01  0.90428013586E-01  0.51100000000E-03 0. -1.
         11    1    4    4    0    0  0.29150972581E-01 -0.28397476409E-01  0.12719341737E-01  0.42640809608E-01  0.51100000000E-03 0.  1.
</event>
<event>
 8    1  0.1106905E+005  0.1043930E+01  0.7957747E-01            NaN
         13   -1    0    0    0    0  0.00000000000E+00  0.00000000000E+00  0.74505805969E-08  0.10566000000E+00  0.10566000000E+00 0. -1.
     999900   -1    0    0    0    0 -0.00000000000E+00 -0.00000000000E+00 -0.74505805969E-08  0.93827000000E+00  0.93827000000E+00 0. -1.
     999902    2    1    2    0    0  0.10862967422E-01  0.19030389192E-01  0.11737492659E-01  0.10190718322E+01  0.10187686050E+01 0.  0.
     999903    2    3    3    0    0 -0.84358286071E-01 -0.80949113698E-01 -0.44156980474E-01  0.12655450447E+00  0.19927976308E-01 0.  0.
         14    1    1    2    0    0 -0.10862967422E-01 -0.19030389192E-01 -0.11737492659E-01  0.24858167832E-01  0.00000000000E+00 0.  1.
     999901    1    3    3    0    0  0.95221253494E-01  0.99979502890E-01  0.55894473133E-01  0.89251732770E+00  0.88000000000E+00 0. -1.
        -11    1    4    4    0    0 -0.39970320458E-02  0.65154463075E-04 -0.37353942352E-02  0.54949796516E-02  0.51100000000E-03 0. -1.
         11    1    4    4    0    0 -0.80361254026E-01 -0.81014268161E-01 -0.40421586239E-01  0.12105952482E+00  0.51100000000E-03 0.  1.
</event>
<event>
 8    1  0.1106905E+005  0.1043930E+01  0.7957747E-01            NaN
         13   -1    0    0    0    0  0.00000000000E+00  0.00000000000E+00  0.74505805969E-08  0.10566000000E+00  0.10566000000E+00 0.  1.
     999900   -1    0    0    0    0 -0.00000000000E+00 -0.00000000000E+00 -0.74505805969E-08  0.93827000000E+00  0.93827000000E+00 0. -1.
     999902    2    1    2    0    0 -0.21136807074E-01 -0.15006409308E-01  0.45465706437E-02  0.10176121688E+01  0.10172717916E+01 0.  0.
     999903    2    3    3    0    0  0.68115651896E-01 -0.73073676087E-02  0.10572368477E+00  0.12729644667E+00  0.18268775516E-01 0.  0.
         14    1    1    2    0    0  0.21136807074E-01  0.15006409308E-01 -0.45465706437E-02  0.26317831184E-01  0.00000000000E+00 0. -1.
     999901    1    3    3    0    0 -0.89252458970E-01 -0.76990416991E-02 -0.10117711413E+00  0.89031572214E+00  0.88000000000E+00 0. -1.
        -11    1    4    4    0    0  0.40269134513E-01 -0.89946859590E-02  0.76319231589E-01  0.86760554408E-01  0.51100000000E-03 0. -1.
         11    1    4    4    0    0  0.27846517383E-01  0.16873183504E-02  0.29404453183E-01  0.40535892263E-01  0.51100000000E-03 0.  1.
</event>
<event>
 8    1  0.1106905E+005  0.1043930E+01  0.7957747E-01            NaN
         13   -1    0    0    0    0  0.00000000000E+00  0.00000000000E+00  0.74505805969E-08  0.10566000000E+00  0.10566000000E+00 0. -1.
     999900   -1    0    0    0    0 -0.00000000000E+00 -0.00000000000E+00 -0.74505805969E-08  0.93827000000E+00  0.93827000000E+00 0.  1.
     999902    2    1    2    0    0 -0.22261488773E-01 -0.21237681291E-02  0.92257758938E-02  0.10197391089E+01  0.10194521327E+01 0.  0.
     999903    2    3    3    0    0 -0.54757116228E-01 -0.11196123468E-01 -0.11592177133E+00  0.13024476823E+00  0.20053618754E-01 0.  0.
         14    1    1    2    0    0  0.22261488773E-01  0.21237681291E-02 -0.92257758938E-02  0.24190891143E-01  0.00000000000E+00 0.  1.
     999901    1    3    3    0    0  0.32495627455E-01  0.90723553392E-02  0.12514754722E+00  0.88949434063E+00  0.88000000000E+00 0. -1.
        -11    1    4    4    0    0 -0.34584063676E-01 -0.14010327250E-01 -0.59260334329E-01  0.70031386362E-01  0.51100000000E-03 0.  1.
         11    1    4    4    0    0 -0.20173052552E-01  0.28142037819E-02 -0.56661436997E-01  0.60213381867E-01  0.51100000000E-03 0. -1.
</event>
<event>
 8    1  0.1106905E+005  0.1043930E+01  0.7957747E-01            NaN
         13   -1    0    0    0    0  0.00000000000E+00  0.00000000000E+00  0.74505805969E-08  0.10566000000E+00  0.10566000000E+00 0.  1.
     999900   -1    0    0    0    0 -0.00000000000E+00 -0.00000000000E+00 -0.74505805969E-08  0.93827000000E+00  0.93827000000E+00 0. -1.
     999902    2    1    2    0    0 -0.13413077457E-01  0.11300037614E-01 -0.16743044416E-01  0.10196827108E+01  0.10193943789E+01 0.  0.
     999903    2    3    3    0    0 -0.95694662378E-02 -0.12585792353E+00 -0.19963610197E-01  0.12904392224E+00  0.17944261954E-01 0.  0.
         14    1    1    2    0    0  0.13413077457E-01 -0.11300037614E-01  0.16743044416E-01  0.24247289194E-01  0.00000000000E+00 0.  1.
     999901    1    3    3    0    0 -0.38436112196E-02  0.13715796114E+00  0.32205657810E-02  0.89063878856E+00  0.88000000000E+00 0.  1.
        -11    1    4    4    0    0  0.16640702131E-02 -0.68173431391E-01 -0.16546529237E-01  0.70174316014E-01  0.51100000000E-03 0.  1.
         11    1    4    4    0    0 -0.11233536451E-01 -0.57684492135E-01 -0.34170809600E-02  0.58869606228E-01  0.51100000000E-03 0. -1.
</event>
<event>
 8    1  0.1106905E+005  0.1043930E+01  0.7957747E-01            NaN
         13   -1    0    0    0    0  0.00000000000E+00  0.00000000000E+00  0.74505805969E-08  0.10566000000E+00  0.10566000000E+00 0.  1.
     999900   -1    0    0    0    0 -0.00000000000E+00 -0.00000000000E+00 -0.74505805969E-08  0.93827000000E+00  0.93827000000E+00 0. -1.
     999902    2    1    2    0    0 -0.86308803701E-02  0.70819219571E-02 -0.20516553886E-01  0.10205724595E+01  0.10203051359E+01 0.  0.
     999903    2    3    3    0    0 -0.88242255358E-01 -0.41869016128E-01  0.82959921071E-01  0.12959459994E+00  0.19305483349E-01 0.  0.
         14    1    1    2    0    0  0.86308803701E-02 -0.70819219571E-02  0.20516553886E-01  0.23357540494E-01  0.00000000000E+00 0. -1.
     999901    1    3    3    0    0  0.79611374988E-01  0.48950938086E-01 -0.10347647496E+00  0.89097785957E+00  0.88000000000E+00 0. -1.
        -11    1    4    4    0    0 -0.70324374047E-01 -0.24759080700E-01  0.65930247480E-01  0.99526822093E-01  0.51100000000E-03 0. -1.
         11    1    4    4    0    0 -0.17917881311E-01 -0.17109935429E-01  0.17029673591E-01  0.30067777848E-01  0.51100000000E-03 0.  1.
</event>
<event>
 8    1  0.1106905E+005  0.1043930E+01  0.7957747E-01            NaN
         13   -1    0    0    0    0  0.00000000000E+00  0.00000000000E+00  0.74505805969E-08  0.10566000000E+00  0.10566000000E+00 0. -1.
     999900   -1    0    0    0    0 -0.00000000000E+00 -0.00000000000E+00 -0.74505805969E-08  0.93827000000E+00  0.93827000000E+00 0. -1.
     999902    2    1    2    0    0 -0.16830126444E-01 -0.61368688387E-02 -0.14947384792E-01  0.10205989343E+01  0.10203322234E+01 0.  0.
     999903    2    3    3    0    0 -0.62721234308E-01 -0.16996376323E-01 -0.11512168818E+00  0.13366104822E+00  0.19734302079E-01 0.  0.
         14    1    1    2    0    0  0.16830126444E-01  0.61368688387E-02  0.14947384792E-01  0.23331065715E-01  0.00000000000E+00 0. -1.
     999901    1    3    3    0    0  0.45891107864E-01  0.10859507484E-01  0.10017430339E+00  0.88693788607E+00  0.88000000000E+00 0.  1.
        -11    1    4    4    0    0 -0.51851378796E-01 -0.20620582956E-01 -0.87844615858E-01  0.10407070472E+00  0.51100000000E-03 0.  1.
         11    1    4    4    0    0 -0.10869855512E-01  0.36242066328E-02 -0.27277072326E-01  0.29590343497E-01  0.51100000000E-03 0. -1.
</event>
<event>
 8    1  0.1106905E+005  0.1043930E+01  0.7957747E-01            NaN
         13   -1    0    0    0    0  0.00000000000E+00  0.00000000000E+00  0.74505805969E-08  0.10566000000E+00  0.10566000000E+00 0.  1.
     999900   -1    0    0    0    0 -0.00000000000E+00 -0.00000000000E+00 -0.74505805969E-08  0.93827000000E+00  0.93827000000E+00 0. -1.
     999902    2    1    2    0    0 -0.20576449498E-01 -0.99981414600E-02 -0.54023278728E-02  0.10204238678E+01  0.10201530923E+01 0.  0.
     999903    2    3    3    0    0 -0.22498108682E-01  0.10915994760E+00  0.63247370799E-01  0.12974147538E+00  0.20262316390E-01 0.  0.
         14    1    1    2    0    0  0.20576449498E-01  0.99981414600E-02  0.54023278728E-02  0.23506132244E-01  0.00000000000E+00 0.  1.
     999901    1    3    3    0    0  0.19216591837E-02 -0.11915808906E+00 -0.68649698671E-01  0.89068239238E+00  0.88000000000E+00 0. -1.
        -11    1    4    4    0    0 -0.99953470592E-02  0.52962508024E-01  0.19078172705E-01  0.57176673686E-01  0.51100000000E-03 0.  1.
         11    1    4    4    0    0 -0.12502761623E-01  0.56197439579E-01  0.44169198094E-01  0.72564801693E-01  0.51100000000E-03 0. -1.
</event>
<event>
 8    1  0.1106905E+005  0.1043930E+01  0.7957747E-01            NaN
         13   -1    0    0    0    0  0.00000000000E+00  0.00000000000E+00  0.74505805969E-08  0.10566000000E+00  0.10566000000E+00 0. -1.
     999900   -1    0    0    0    0 -0.00000000000E+00 -0.00000000000E+00 -0.74505805969E-08  0.93827000000E+00  0.93827000000E+00 0.  1.
     999902    2    1    2    0    0  0.35687549156E-02  0.15907208911E-01  0.18072018651E-01  0.10195912826E+01  0.10193007458E+01 0.  0.
     999903    2    3    3    0    0  0.11390008961E+00  0.41967834205E-01 -0.41874781086E-01  0.13029618061E+00  0.22114878912E-01 0.  0.
         14    1    1    2    0    0 -0.35687549156E-02 -0.15907208911E-01 -0.18072018651E-01  0.24338717409E-01  0.00000000000E+00 0.  1.
     999901    1    3    3    0    0 -0.11033133470E+00 -0.26060625293E-01  0.59946799737E-01  0.88929510198E+00  0.88000000000E+00 0.  1.
        -11    1    4    4    0    0  0.17527063012E-01  0.17774250387E-02 -0.13176602621E-01  0.22005480118E-01  0.51100000000E-03 0. -1.
         11    1    4    4    0    0  0.96373026600E-01  0.40190409166E-01 -0.28698178464E-01  0.10829070049E+00  0.51100000000E-03 0.  1.
</event>
<event>
 8    1  0.1106905E+005  0.1043930E+01  0.7957747E-01            NaN
         13   -1    0    0    0    0  0.00000000000E+00  0.00000000000E+00  0.74505805969E-08  0.10566000000E+00  0.10566000000E+00 0. -1.
     999900   -1    0    0    0    0 -0.00000000000E+00 -0.00000000000E+00 -0.74505805969E-08  0.93827000000E+00  0.93827000000E+00 0.  1.
     999902    2    1    2    0    0 -0.80676511992E-02 -0.19946539783E-01  0.11758816424E-01  0.10194101874E+01  0.10191152580E+01 0.  0.
     999903    2    3    3    0    0 -0.10477273706E+00 -0.55342195639E-01 -0.51930901309E-01  0.13111907172E+00  0.21337933598E-01 0.  0.
         14    1    1    2    0    0  0.80676511992E-02  0.19946539783E-01 -0.11758816424E-01  0.24519812578E-01  0.00000000000E+00 0.  1.
     999901    1    3    3    0    0  0.96705085858E-01  0.35395655856E-01  0.63689717732E-01  0.88829111570E+00  0.88000000000E+00 0.  1.
        -11    1    4    4    0    0 -0.65846471857E-01 -0.35088711359E-01 -0.21271966053E-01  0.77586939504E-01  0.51100000000E-03 0.  1.
         11    1    4    4    0    0 -0.38926265200E-01 -0.20253484280E-01 -0.30658935256E-01  0.53532132219E-01  0.51100000000E-03 0. -1.
</event>
<event>
 8    1  0.1106905E+005  0.1043930E+01  0.7957747E-01            NaN
         13   -1    0    0    0    0  0.00000000000E+00  0.00000000000E+00  0.74505805969E-08  0.10566000000E+00  0.10566000000E+00 0. -1.
     999900   -1    0    0    0    0 -0.00000000000E+00 -0.00000000000E+00 -0.74505805969E-08  0.93827000000E+00  0.93827000000E+00 0.  1.
     999902    2    1    2    0    0  0.11635114367E-01  0.77419155745E-02  0.19963283996E-01  0.10195610474E+01  0.10192697796E+01 0.  0.
     999903    2    3    3    0    0 -0.22822089012E-01  0.12083770283E+00  0.41815088519E-01  0.13138569460E+00  0.19776272257E-01 0.  0.
         14    1    1    2    0    0 -0.11635114367E-01 -0.77419155745E-02 -0.19963283996E-01  0.24368952604E-01  0.00000000000E+00 0.  1.
     999901    1    3    3    0    0  0.34457203379E-01 -0.11309578726E+00 -0.21851804524E-01  0.88817535280E+00  0.88000000000E+00 0.  1.
        -11    1    4    4    0    0 -0.31443650419E-02  0.57614235164E-01  0.26094249826E-01  0.63328177931E-01  0.51100000000E-03 0. -1.
         11    1    4    4    0    0 -0.19677723970E-01  0.63223467667E-01  0.15720838693E-01  0.68057516666E-01  0.51100000000E-03 0.  1.
</event>
<event>
 8    1  0.1106905E+005  0.1043930E+01  0.7957747E-01            NaN
         13   -1    0    0    0    0  0.00000000000E+00  0.00000000000E+00  0.74505805969E-08  0.10566000000E+00  0.10566000000E+00 0.  1.
     999900   -1    0    0    0    0 -0.00000000000E+00 -0.00000000000E+00 -0.74505805969E-08  0.93827000000E+00  0.93827000000E+00 0. -1.
     999902    2    1    2    0    0  0.18405155756E-01  0.66646406431E-02 -0.13646438559E-01  0.10200680538E+01  0.10197889202E+01 0.  0.
     999903    2    3    3    0    0 -0.89457604478E-01  0.55560279345E-01  0.70289080142E-01  0.12817661987E+00  0.19977073239E-01 0.  0.
         14    1    1    2    0    0 -0.18405155756E-01 -0.66646406431E-02  0.13646438559E-01  0.23861946246E-01  0.00000000000E+00 0.  1.
     999901    1    3    3    0    0  0.10786276023E+00 -0.48895638702E-01 -0.83935518701E-01  0.89189143388E+00  0.88000000000E+00 0. -1.
        -11    1    4    4    0    0 -0.24602257414E-01  0.14270402395E-01  0.89491064399E-02  0.29820514440E-01  0.51100000000E-03 0. -1.
         11    1    4    4    0    0 -0.64855347064E-01  0.41289876950E-01  0.61339973702E-01  0.98356105434E-01  0.51100000000E-03 0.  1.
</event>
<event>
 8    1  0.1106905E+005  0.1043930E+01  0.7957747E-01            NaN
         13   -1    0    0    0    0  0.00000000000E+00  0.00000000000E+00  0.74505805969E-08  0.10566000000E+00  0.10566000000E+00 0. -1.
     999900   -1    0    0    0    0 -0.00000000000E+00 -0.00000000000E+00 -0.74505805969E-08  0.93827000000E+00  0.93827000000E+00 0.  1.
     999902    2    1    2    0    0  0.11979110615E-01 -0.30409550455E-03  0.20974008997E-01  0.10197742425E+01  0.10194881094E+01 0.  0.
     999903    2    3    3    0    0  0.10601963565E+00 -0.35034850716E-01  0.69434752516E-01  0.13275773234E+00  0.18325575856E-01 0.  0.
         14    1    1    2    0    0 -0.11979110615E-01  0.30409550455E-03 -0.20974008997E-01  0.24155757463E-01  0.00000000000E+00 0.  1.
     999901    1    3    3    0    0 -0.94040525033E-01  0.34730755211E-01 -0.48460743518E-01  0.88701651020E+00  0.88000000000E+00 0.  1.
        -11    1    4    4    0    0  0.87990565853E-01 -0.22128780136E-01  0.52253641042E-01  0.10470304061E+00  0.51100000000E-03 0.  1.
         11    1    4    4    0    0  0.18029069795E-01 -0.12906070579E-01  0.17181111474E-01  0.28054691728E-01  0.51100000000E-03 0. -1.
</event>
<event>
 8    1  0.1106905E+005  0.1043930E+01  0.7957747E-01            NaN
         13   -1    0    0    0    0  0.00000000000E+00  0.00000000000E+00  0.74505805969E-08  0.10566000000E+00  0.10566000000E+00 0. -1.
     999900   -1    0    0    0    0 -0.00000000000E+00 -0.00000000000E+00 -0.74505805969E-08  0.93827000000E+00  0.93827000000E+00 0.  1.
     999902    2    1    2    0    0 -0.15781720605E-01  0.11737965486E-01 -0.13483650953E-01  0.10200835876E+01  0.10198048217E+01 0.  0.
     999903    2    3    3    0    0  0.63397668727E-02 -0.12689067892E+00  0.67877273892E-02  0.12872608920E+00  0.19567722356E-01 0.  0.
         14    1    1    2    0    0  0.15781720605E-01 -0.11737965486E-01  0.13483650953E-01  0.23846412351E-01  0.00000000000E+00 0. -1.
     999901    1    3    3    0    0 -0.22121487478E-01  0.13862864440E+00 -0.20271378342E-01  0.89135749845E+00  0.88000000000E+00 0. -1.
        -11    1    4    4    0    0  0.20583606945E-02 -0.98075138987E-01  0.12938354566E-01  0.98947621881E-01  0.51100000000E-03 0.  1.
         11    1    4    4    0    0  0.42814061782E-02 -0.28815539930E-01 -0.61506271771E-02  0.29778467321E-01  0.51100000000E-03 0. -1.
</event>
<event>
 8    1  0.1106905E+005  0.1043930E+01  0.7957747E-01            NaN
         13   -1    0    0    0    0  0.00000000000E+00  0.00000000000E+00  0.74505805969E-08  0.10566000000E+00  0.10566000000E+00 0. -1.
     999900   -1    0    0    0    0 -0.00000000000E+00 -0.00000000000E+00 -0.74505805969E-08  0.93827000000E+00  0.93827000000E+00 0.  1.
     999902    2    1    2    0    0  0.56583989435E-04 -0.70184055502E-02  0.23396902279E-01  0.10195030425E+01  0.10192103695E+01 0.  0.
     999903    2    3    3    0    0 -0.29298355962E-01 -0.12408234253E+00  0.24102380931E-01  0.13126536282E+00  0.19870815746E-01 0.  0.
         14    1    1    2    0    0 -0.56583989435E-04  0.70184055502E-02 -0.23396902279E-01  0.24426957536E-01  0.00000000000E+00 0.  1.
     999901    1    3    3    0    0  0.29354939952E-01  0.11706393698E+00 -0.70547865282E-03  0.88823767965E+00  0.88000000000E+00 0. -1.
        -11    1    4    4    0    0 -0.20275754585E-01 -0.44292175994E-01  0.10169401478E-01  0.49765258219E-01  0.51100000000E-03 0. -1.
         11    1    4    4    0    0 -0.90226013778E-02 -0.79790166541E-01  0.13932979454E-01  0.81500104600E-01  0.51100000000E-03 0.  1.
</event>
<event>
 8    1  0.1106905E+005  0.1043930E+01  0.7957747E-01            NaN
         13   -1    0    0    0    0  0.00000000000E+00  0.00000000000E+00  0.74505805969E-08  0.10566000000E+00  0.10566000000E+00 0.  1.
     999900   -1    0    0    0    0 -0.00000000000E+00 -0.00000000000E+00 -0.74505805969E-08  0.93827000000E+00  0.93827000000E+00 0.  1.
     999902    2    1    2    0    0  0.23260356870E-01  0.20106343617E-01  0.91197602625E-02  0.10118600876E+01  0.10113517477E+01 0.  0.
     999903    2    3    3    0    0  0.42980660146E-01 -0.11058127200E+00 -0.12617399708E-01  0.12172490270E+00  0.24128785654E-01 0.  0.
         14    1    1    2    0    0 -0.23260356870E-01 -0.20106343617E-01 -0.91197602625E-02  0.32069912420E-01  0.00000000000E+00 0. -1.
     999901    1    3    3    0    0 -0.19720303276E-01  0.13068761562E+00  0.21737159970E-01  0.89013518488E+00  0.88000000000E+00 0.  1.
        -11    1    4    4    0    0  0.32717995382E-01 -0.69278408373E-01  0.22239760186E-02  0.76649672399E-01  0.51100000000E-03 0. -1.
         11    1    4    4    0    0  0.10262664764E-01 -0.41302863632E-01 -0.14841375726E-01  0.45075230301E-01  0.51100000000E-03 0.  1.
</event>
<event>
 8    1  0.1106905E+005  0.1043930E+01  0.7957747E-01            NaN
         13   -1    0    0    0    0  0.00000000000E+00  0.00000000000E+00  0.74505805969E-08  0.10566000000E+00  0.10566000000E+00 0.  1.
     999900   -1    0    0    0    0 -0.00000000000E+00 -0.00000000000E+00 -0.74505805969E-08  0.93827000000E+00  0.93827000000E+00 0. -1.
     999902    2    1    2    0    0 -0.30743926864E-02 -0.36501096524E-02  0.23309503121E-01  0.10201369732E+01  0.10198594687E+01 0.  0.
     999903    2    3    3    0    0 -0.98474077581E-01 -0.59982831318E-01 -0.55889603090E-01  0.12966127229E+00  0.19832140299E-01 0.  0.
         14    1    1    2    0    0  0.30743926864E-02  0.36501096524E-02 -0.23309503121E-01  0.23793026848E-01  0.00000000000E+00 0. -1.
     999901    1    3    3    0    0  0.95399684895E-01  0.56332721666E-01  0.79199106210E-01  0.89047570087E+00  0.88000000000E+00 0.  1.
        -11    1    4    4    0    0 -0.29152658240E-01 -0.22400754284E-01 -0.27252707686E-01  0.45767264198E-01  0.51100000000E-03 0. -1.
         11    1    4    4    0    0 -0.69321419341E-01 -0.37582077034E-01 -0.28636895404E-01  0.83894008087E-01  0.51100000000E-03 0.  1.
</event>
<event>
 8    1  0.1106905E+005  0.1043930E+01  0.7957747E-01            NaN
         13   -1    0    0    0    0  0.00000000000E+00  0.00000000000E+00  0.74505805969E-08  0.10566000000E+00  0.10566000000E+00 0. -1.
     999900   -1    0    0    0    0 -0.00000000000E+00 -0.00000000000E+00 -0.74505805969E-08  0.93827000000E+00  0.93827000000E+00 0. -1.
     999902    2    1    2    0    0 -0.20779165815E-01 -0.48509634124E-02 -0.96644806148E-02  0.10205054880E+01  0.10202366114E+01 0.  0.
     999903    2    3    3    0    0 -0.10129302385E+00  0.25212245892E-02 -0.84045937612E-01  0.13367437010E+00  0.23205265310E-01 0.  0.
         14    1    1    2    0    0  0.20779165815E-01  0.48509634124E-02  0.96644806148E-02  0.23424512024E-01  0.00000000000E+00 0. -1.
     999901    1    3    3    0    0  0.80513858035E-01 -0.73721880016E-02  0.74381456997E-01  0.88683111788E+00  0.88000000000E+00 0.  1.
        -11    1    4    4    0    0 -0.40852068412E-01  0.11503149230E-01 -0.40248247035E-01  0.58492704213E-01  0.51100000000E-03 0. -1.
         11    1    4    4    0    0 -0.60440955437E-01 -0.89819246407E-02 -0.43797690577E-01  0.75181665885E-01  0.51100000000E-03 0.  1.
</event>
<event>
 8    1  0.1106905E+005  0.1043930E+01  0.7957747E-01            NaN
         13   -1    0    0    0    0  0.00000000000E+00  0.00000000000E+00  0.74505805969E-08  0.10566000000E+00  0.10566000000E+00 0. -1.
     999900   -1    0    0    0    0 -0.00000000000E+00 -0.00000000000E+00 -0.74505805969E-08  0.93827000000E+00  0.93827000000E+00 0. -1.
     999902    2    1    2    0    0 -0.14230546850E-01  0.67655572756E-02  0.17560957065E-01  0.10203361779E+01  0.10200633546E+01 0.  0.
     999903    2    3    3    0    0 -0.67775818331E-01 -0.11041077241E+00 -0.30098961522E-03  0.13077649047E+00  0.17840954264E-01 0.  0.
         14    1    1    2    0    0  0.14230546850E-01 -0.67655572756E-02 -0.17560957065E-01  0.23593822114E-01  0.00000000000E+00 0.  1.
     999901    1    3    3    0    0  0.53545271482E-01  0.11717632969E+00  0.17861946681E-01  0.88955968742E+00  0.88000000000E+00 0.  1.
        -11    1    4    4    0    0 -0.21967553849E-01 -0.52102486592E-01 -0.23634664148E-02  0.56595844597E-01  0.51100000000E-03 0. -1.
         11    1    4    4    0    0 -0.45808264483E-01 -0.58308285823E-01  0.20624767996E-02  0.74180645872E-01  0.51100000000E-03 0.  1.
</event>
<event>
 8    1  0.1106905E+005  0.1043930E+01  0.7957747E-01            NaN
         13   -1    0    0    0    0  0.00000000000E+00  0.00000000000E+00  0.74505805969E-08  0.10566000000E+00  0.10566000000E+00 0. -1.
     999900   -1    0    0    0    0 -0.00000000000E+00 -0.00000000000E+00 -0.74505805969E-08  0.93827000000E+00  0.93827000000E+00 0. -1.
     999902    2    1    2    0    0 -0.36757759220E-02  0.22096989069E-01  0.26305560148E-02  0.10213754422E+01  0.10211263809E+01 0.  0.
     999903    2    3    3    0    0 -0.35347331371E-01  0.14778401241E-01 -0.12400401608E+00  0.13171653898E+00  0.22459199886E-01 0.  0.
         14    1    1    2    0    0  0.36757759220E-02 -0.22096989069E-01 -0.26305560148E-02  0.22554557843E-01  0.00000000000E+00 0.  1.
     999901    1    3    3    0    0  0.31671555449E-01  0.73185878275E-02  0.12663457209E+00  0.88965890318E+00  0.88000000000E+00 0.  1.
        -11    1    4    4    0    0 -0.33059876904E-02  0.11338401144E-01 -0.41161682599E-01  0.42825624695E-01  0.51100000000E-03 0.  1.
         11    1    4    4    0    0 -0.32041343681E-01  0.34400000976E-02 -0.82842333478E-01  0.88890914286E-01  0.51100000000E-03 0. -1.
</event>
<event>
 8    1  0.1106905E+005  0.1043930E+01  0.7957747E-01            NaN
         13   -1    0    0    0    0  0.00000000000E+00  0.00000000000E+00  0.74505805969E-08  0.10566000000E+00  0.10566000000E+00 0.  1.
     999900   -1    0    0    0    0 -0.00000000000E+00 -0.00000000000E+00 -0.74505805969E-08  0.93827000000E+00  0.93827000000E+00 0. -1.
     999902    2    1    2    0    0  0.69576885589E-02  0.21631364906E-01  0.79961945649E-02  0.10198413200E+01  0.10195567926E+01 0.  0.
     999903    2    3    3    0    0  0.55213602845E-01 -0.32659659294E-01  0.11232276878E+00  0.13070680672E+00  0.18779500861E-01 0.  0.
         14    1    1    2    0    0 -0.69576885589E-02 -0.21631364906E-01 -0.79961945649E-02  0.24088680024E-01  0.00000000000E+00 0. -1.
     999901    1    3    3    0    0 -0.48255914286E-01  0.54291024200E-01 -0.10432657422E+00  0.88913451325E+00  0.88000000000E+00 0. -1.
        -11    1    4    4    0    0  0.14942930188E-01 -0.17404755168E-02  0.36196716052E-01  0.39201834034E-01  0.51100000000E-03 0. -1.
         11    1    4    4    0    0  0.40270672658E-01 -0.30919183778E-01  0.76126052728E-01  0.91504972688E-01  0.51100000000E-03 0.  1.
</event>
<event>
 8    1  0.1106905E+005  0.1043930E+01  0.7957747E-01            NaN
         13   -1    0    0    0    0  0.00000000000E+00  0.00000000000E+00  0.74505805969E-08  0.10566000000E+00  0.10566000000E+00 0. -1.
     999900   -1    0    0    0    0 -0.00000000000E+00 -0.00000000000E+00 -0.74505805969E-08  0.93827000000E+00  0.93827000000E+00 0. -1.
     999902    2    1    2    0    0  0.64350268457E-02  0.34435588992E-02  0.24170553404E-01  0.10186815680E+01  0.10183686236E+01 0.  0.
     999903    2    3    3    0    0 -0.40611152302E-01  0.10095307933E+00 -0.63612646997E-01  0.12771168081E+00  0.20564888483E-01 0.  0.
         14    1    1    2    0    0 -0.64350268457E-02 -0.34435588992E-02 -0.24170553404E-01  0.25248432036E-01  0.00000000000E+00 0.  1.
     999901    1    3    3    0    0  0.47046179148E-01 -0.97509520434E-01  0.87783200402E-01  0.89096988716E+00  0.88000000000E+00 0.  1.
        -11    1    4    4    0    0 -0.23310481933E-01  0.81012816720E-01 -0.49816441994E-01  0.97920345459E-01  0.51100000000E-03 0.  1.
         11    1    4    4    0    0 -0.17300670370E-01  0.19940262613E-01 -0.13796205004E-01  0.29791335348E-01  0.51100000000E-03 0. -1.
</event>
<event>
 8    1  0.1106905E+005  0.1043930E+01  0.7957747E-01            NaN
         13   -1    0    0    0    0  0.00000000000E+00  0.00000000000E+00  0.74505805969E-08  0.10566000000E+00  0.10566000000E+00 0. -1.
     999900   -1    0    0    0    0 -0.00000000000E+00 -0.00000000000E+00 -0.74505805969E-08  0.93827000000E+00  0.93827000000E+00 0.  1.
     999902    2    1    2    0    0  0.47265133484E-02  0.18280416966E-01  0.14059934216E-01  0.10203886465E+01  0.10201170495E+01 0.  0.
     999903    2    3    3    0    0  0.97439850177E-01 -0.81554770430E-01  0.17299135823E-01  0.12989815254E+00  0.20701810309E-01 0.  0.
         14    1    1    2    0    0 -0.47265133484E-02 -0.18280416966E-01 -0.14059934216E-01  0.23541353467E-01  0.00000000000E+00 0.  1.
     999901    1    3    3    0    0 -0.92713336829E-01  0.99835187397E-01 -0.32392016067E-02  0.89049049400E+00  0.88000000000E+00 0.  1.
        -11    1    4    4    0    0  0.16148858659E-01 -0.24781429540E-01  0.36042946404E-02  0.29801962132E-01  0.51100000000E-03 0.  1.
         11    1    4    4    0    0  0.81290991518E-01 -0.56773340890E-01  0.13694841183E-01  0.10009619041E+00  0.51100000000E-03 0. -1.
</event>
<event>
 8    1  0.1106905E+005  0.1043930E+01  0.7957747E-01            NaN
         13   -1    0    0    0    0  0.00000000000E+00  0.00000000000E+00  0.74505805969E-08  0.10566000000E+00  0.10566000000E+00 0.  1.
     999900   -1    0    0    0    0 -0.00000000000E+00 -0.00000000000E+00 -0.74505805969E-08  0.93827000000E+00  0.93827000000E+00 0.  1.
     999902    2    1    2    0    0 -0.65356203133E-02  0.12559525023E-01  0.16537789409E-01  0.10221595044E+01  0.10219276383E+01 0.  0.
     999903    2    3    3    0    0  0.77198630549E-01 -0.10221090200E+00  0.17369946184E-01  0.13076488459E+00  0.19774806281E-01 0.  0.
         14    1    1    2    0    0  0.65356203133E-02 -0.12559525023E-01 -0.16537789409E-01  0.21770495635E-01  0.00000000000E+00 0.  1.
     999901    1    3    3    0    0 -0.83734250863E-01  0.11477042702E+00 -0.83215677543E-03  0.89139461978E+00  0.88000000000E+00 0.  1.
        -11    1    4    4    0    0  0.40199241647E-01 -0.45022541273E-01  0.16773364970E-01  0.62646748879E-01  0.51100000000E-03 0. -1.
         11    1    4    4    0    0  0.36999388902E-01 -0.57188360728E-01  0.59658121498E-03  0.68118135706E-01  0.51100000000E-03 0.  1.
</event>
<event>
 8    1  0.1106905E+005  0.1043930E+01  0.7957747E-01            NaN
         13   -1    0    0    0    0  0.00000000000E+00  0.00000000000E+00  0.74505805969E-08  0.10566000000E+00  0.10566000000E+00 0.  1.
     999900   -1    0    0    0    0 -0.00000000000E+00 -0.00000000000E+00 -0.74505805969E-08  0.93827000000E+00  0.93827000000E+00 0. -1.
     999902    2    1    2    0    0 -0.21652038844E-01  0.67091529197E-02 -0.14839038194E-02  0.10212138056E+01  0.10209611213E+01 0.  0.
     999903    2    3    3    0    0 -0.32268349795E-02 -0.79684257156E-01  0.10187044984E+00  0.13077266104E+00  0.19076347184E-01 0.  0.
         14    1    1    2    0    0  0.21652038844E-01 -0.67091529197E-02  0.14839038194E-02  0.22716194434E-01  0.00000000000E+00 0. -1.
     999901    1    3    3    0    0 -0.18425203865E-01  0.86393410076E-01 -0.10335435366E+00  0.89044114453E+00  0.88000000000E+00 0. -1.
        -11    1    4    4    0    0  0.72318453106E-02 -0.35926648834E-01  0.51826278444E-01  0.63476357342E-01  0.51100000000E-03 0.  1.
         11    1    4    4    0    0 -0.10458680290E-01 -0.43757608322E-01  0.50044171400E-01  0.67296303699E-01  0.51100000000E-03 0. -1.
</event>
<event>
 8    1  0.1106905E+005  0.1043930E+01  0.7957747E-01            NaN
         13   -1    0    0    0    0  0.00000000000E+00  0.00000000000E+00  0.74505805969E-08  0.10566000000E+00  0.10566000000E+00 0. -1.
     999900   -1    0    0    0    0 -0.00000000000E+00 -0.00000000000E+00 -0.74505805969E-08  0.93827000000E+00  0.93827000000E+00 0. -1.
     999902    2    1    2    0    0 -0.21142213874E-01  0.80157198343E-02  0.10145839866E-01  0.10191472835E+01  0.10188459169E+01 0.  0.
     999903    2    3    3    0    0 -0.39581369288E-02 -0.15579436806E-01 -0.12553062842E+00  0.12827123824E+00  0.20908997819E-01 0.  0.
         14    1    1    2    0    0  0.21142213874E-01 -0.80157198343E-02 -0.10145839866E-01  0.24782716529E-01  0.00000000000E+00 0.  1.
     999901    1    3    3    0    0 -0.17184076945E-01  0.23595156640E-01  0.13567646828E+00  0.89087604523E+00  0.88000000000E+00 0.  1.
        -11    1    4    4    0    0  0.71505135771E-02 -0.92329455026E-02 -0.36538948684E-01  0.38363172692E-01  0.51100000000E-03 0. -1.
         11    1    4    4    0    0 -0.11108650506E-01 -0.63464913031E-02 -0.88991679734E-01  0.89908065550E-01  0.51100000000E-03 0.  1.
</event>
<event>
 8    1  0.1106905E+005  0.1043930E+01  0.7957747E-01            NaN
         13   -1    0    0    0    0  0.00000000000E+00  0.00000000000E+00  0.74505805969E-08  0.10566000000E+00  0.10566000000E+00 0.  1.
     999900   -1    0    0    0    0 -0.00000000000E+00 -0.00000000000E+00 -0.74505805969E-08  0.93827000000E+00  0.93827000000E+00 0. -1.
     999902    2    1    2    0    0 -0.18545427959E-01  0.10960257136E-02 -0.78546392743E-02  0.10237599844E+01  0.10235612713E+01 0.  0.
     999903    2    3    3    0    0 -0.12003937469E+00  0.52265483830E-01  0.28866136792E-01  0.13569030806E+00  0.20915868919E-01 0.  0.
         14    1    1    2    0    0  0.18545427959E-01 -0.10960257136E-02  0.78546392743E-02  0.20170015584E-01  0.00000000000E+00 0.  1.
     999901    1    3    3    0    0  0.10149394673E+00 -0.51169458116E-01 -0.36720776067E-01  0.88806967636E+00  0.88000000000E+00 0. -1.
        -11    1    4    4    0    0 -0.49639225641E-01  0.11234343717E-01  0.14741571306E-01  0.52989038929E-01  0.51100000000E-03 0. -1.
         11    1    4    4    0    0 -0.70400149048E-01  0.41031140113E-01  0.14124565486E-01  0.82701269132E-01  0.51100000000E-03 0.  1.
</event>
<event>
 8    1  0.1106905E+005  0.1043930E+01  0.7957747E-01            NaN
         13   -1    0    0    0    0  0.00000000000E+00  0.00000000000E+00  0.74505805969E-08  0.10566000000E+00  0.10566000000E+00 0. -1.
     999900   -1    0    0    0    0 -0.00000000000E+00 -0.00000000000E+00 -0.74505805969E-08  0.93827000000E+00  0.93827000000E+00 0.  1.
     999902    2    1    2    0    0  0.19672862036E-01 -0.10583330785E-01 -0.20970691375E-02  0.10214928413E+01  0.10212463947E+01 0.  0.
     999903    2    3    3    0    0 -0.55629650647E-01 -0.43946542156E-01  0.10803961630E+00  0.13081126983E+00  0.20324198051E-01 0.  0.
         14    1    1    2    0    0 -0.19672862036E-01  0.10583330785E-01  0.20970691375E-02  0.22437158691E-01  0.00000000000E+00 0.  1.
     999901    1    3    3    0    0  0.75302512682E-01  0.33363211371E-01 -0.11013668544E+00  0.89068157148E+00  0.88000000000E+00 0.  1.
        -11    1    4    4    0    0 -0.25065647566E-01 -0.78925170512E-02  0.34105205130E-01  0.43058154294E-01  0.51100000000E-03 0. -1.
         11    1    4    4    0    0 -0.30564003081E-01 -0.36054025105E-01  0.73934411169E-01  0.87753115538E-01  0.51100000000E-03 0.  1.
</event>
<event>
 8    1  0.1106905E+005  0.1043930E+01  0.7957747E-01            NaN
         13   -1    0    0    0    0  0.00000000000E+00  0.00000000000E+00  0.74505805969E-08  0.10566000000E+00  0.10566000000E+00 0.  1.
     999900   -1    0    0    0    0 -0.00000000000E+00 -0.00000000000E+00 -0.74505805969E-08  0.93827000000E+00  0.93827000000E+00 0.  1.
     999902    2    1    2    0    0  0.97316422446E-03  0.21179976045E-01 -0.14088414826E-01  0.10184737264E+01  0.10181555429E+01 0.  0.
     999903    2    3    3    0    0  0.55238629112E-01  0.10766957556E+00 -0.48549502810E-01  0.13190012082E+00  0.19913412609E-01 0.  0.
         14    1    1    2    0    0 -0.97316422446E-03 -0.21179976045E-01  0.14088414826E-01  0.25456273611E-01  0.00000000000E+00 0.  1.
     999901    1    3    3    0    0 -0.54265464888E-01 -0.86489599516E-01  0.34461087984E-01  0.88657360557E+00  0.88000000000E+00 0. -1.
        -11    1    4    4    0    0  0.36665098086E-01  0.56418359424E-01 -0.34436155991E-01  0.75587503320E-01  0.51100000000E-03 0. -1.
         11    1    4    4    0    0  0.18573531026E-01  0.51251216137E-01 -0.14113346818E-01  0.56312617501E-01  0.51100000000E-03 0.  1.
</event>
<event>
 8    1  0.1106905E+005  0.1043930E+01  0.7957747E-01            NaN
         13   -1    0    0    0    0  0.00000000000E+00  0.00000000000E+00  0.74505805969E-08  0.10566000000E+00  0.10566000000E+00 0. -1.
     999900   -1    0    0    0    0 -0.00000000000E+00 -0.00000000000E+00 -0.74505805969E-08  0.93827000000E+00  0.93827000000E+00 0. -1.
     999902    2    1    2    0    0  0.13746727887E-01  0.10946860574E-01  0.14007978669E-01  0.10214571330E+01  0.10212098926E+01 0.  0.
     999903    2    3    3    0    0  0.12741380843E+00  0.31837336077E-01 -0.11956575925E-01  0.13352088797E+00  0.20903905592E-01 0.  0.
         14    1    1    2    0    0 -0.13746727887E-01 -0.10946860574E-01 -0.14007978669E-01  0.22472866983E-01  0.00000000000E+00 0.  1.
     999901    1    3    3    0    0 -0.11366708055E+00 -0.20890475503E-01  0.25964554594E-01  0.88793624504E+00  0.88000000000E+00 0.  1.
        -11    1    4    4    0    0  0.10636576621E+00  0.34176222503E-01 -0.11721151646E-01  0.11233582208E+00  0.51100000000E-03 0.  1.
         11    1    4    4    0    0  0.21048042226E-01 -0.23388864261E-02 -0.23542427889E-03  0.21185065892E-01  0.51100000000E-03 0. -1.
</event>
<event>
 8    1  0.1106905E+005  0.1043930E+01  0.7957747E-01            NaN
         13   -1    0    0    0    0  0.00000000000E+00  0.00000000000E+00  0.74505805969E-08  0.10566000000E+00  0.10566000000E+00 0. -1.
     999900   -1    0    0    0    0 -0.00000000000E+00 -0.00000000000E+00 -0.74505805969E-08  0.93827000000E+00  0.93827000000E+00 0. -1.
     999902    2    1    2    0    0  0.65684324056E-02 -0.24298149332E-01 -0.44646649886E-02  0.10183667921E+01  0.10180458956E+01 0.  0.
     999903    2    3    3    0    0  0.65375612241E-01 -0.87538528201E-01  0.69619393793E-01  0.13104155426E+00  0.19699349120E-01 0.  0.
         14    1    1    2    0    0 -0.65684324056E-02  0.24298149332E-01  0.44646649886E-02  0.25563207911E-01  0.00000000000E+00 0.  1.
     999901    1    3    3    0    0 -0.58807179836E-01  0.63240378869E-01 -0.74084058781E-01  0.88732523783E+00  0.88000000000E+00 0.  1.
        -11    1    4    4    0    0  0.30552525612E-01 -0.43887020883E-01  0.22663539287E-01  0.58081189358E-01  0.51100000000E-03 0. -1.
         11    1    4    4    0    0  0.34823086629E-01 -0.43651507319E-01  0.46955854505E-01  0.72960364904E-01  0.51100000000E-03 0.  1.
</event>
<event>
 8    1  0.1106905E+005  0.1043930E+01  0.7957747E-01            NaN
         13   -1    0    0    0    0  0.00000000000E+00  0.00000000000E+00  0.74505805969E-08  0.10566000000E+00  0.10566000000E+00 0.  1.
     999900   -1    0    0    0    0 -0.00000000000E+00 -0.00000000000E+00 -0.74505805969E-08  0.93827000000E+00  0.93827000000E+00 0.  1.
     999902    2    1    2    0    0 -0.13589669832E-01 -0.18736442016E-01  0.57800732263E-02  0.10200732896E+01  0.10197942800E+01 0.  0.
     999903    2    3    3    0    0  0.48678100415E-01 -0.11740690243E+00 -0.27888040118E-01  0.13173400934E+00  0.20546732999E-01 0.  0.
         14    1    1    2    0    0  0.13589669832E-01  0.18736442016E-01 -0.57800732263E-02  0.23856710420E-01  0.00000000000E+00 0.  1.
     999901    1    3    3    0    0 -0.62267770247E-01  0.98670460409E-01  0.33668113344E-01  0.88833928024E+00  0.88000000000E+00 0. -1.
        -11    1    4    4    0    0  0.20610343212E-01 -0.39867294313E-01 -0.65025804541E-03  0.44887318473E-01  0.51100000000E-03 0. -1.
         11    1    4    4    0    0  0.28067757203E-01 -0.77539608112E-01 -0.27237782072E-01  0.86846690863E-01  0.51100000000E-03 0.  1.
</event>
<event>
 8    1  0.1106905E+005  0.1043930E+01  0.7957747E-01            NaN
         13   -1    0    0    0    0  0.00000000000E+00  0.00000000000E+00  0.74505805969E-08  0.10566000000E+00  0.10566000000E+00 0. -1.
     999900   -1    0    0    0    0 -0.00000000000E+00 -0.00000000000E+00 -0.74505805969E-08  0.93827000000E+00  0.93827000000E+00 0. -1.
     999902    2    1    2    0    0  0.17087714852E-01 -0.36911859684E-02  0.15637336793E-01  0.10204749120E+01  0.10202053248E+01 0.  0.
     999903    2    3    3    0    0 -0.99274902287E-01  0.79449485510E-01 -0.16313594156E-02  0.12876260534E+00  0.20234135223E-01 0.  0.
         14    1    1    2    0    0 -0.17087714852E-01  0.36911859684E-02 -0.15637336793E-01  0.23455088035E-01  0.00000000000E+00 0.  1.
     999901    1    3    3    0    0  0.11636261714E+00 -0.83140671478E-01  0.17268696209E-01  0.89171230663E+00  0.88000000000E+00 0. -1.
        -11    1    4    4    0    0 -0.52571937886E-01  0.52143421472E-01 -0.70886513912E-02  0.74385853194E-01  0.51100000000E-03 0. -1.
         11    1    4    4    0    0 -0.46702964401E-01  0.27306064038E-01  0.54572919756E-02  0.54376752145E-01  0.51100000000E-03 0.  1.
</event>
<event>
 8    1  0.1106905E+005  0.1043930E+01  0.7957747E-01            NaN
         13   -1    0    0    0    0  0.00000000000E+00  0.00000000000E+00  0.74505805969E-08  0.10566000000E+00  0.10566000000E+00 0. -1.
     999900   -1    0    0    0    0 -0.00000000000E+00 -0.00000000000E+00 -0.74505805969E-08  0.93827000000E+00  0.93827000000E+00 0. -1.
     999902    2    1    2    0    0 -0.14389848588E-01  0.25192725392E-02 -0.15733237624E-01  0.10224602715E+01  0.10222348348E+01 0.  0.
     999903    2    3    3    0    0  0.78720731994E-01 -0.94090443237E-01  0.40309516462E-01  0.13052764640E+00  0.19043219352E-01 0.  0.
         14    1    1    2    0    0  0.14389848588E-01 -0.25192725392E-02  0.15733237624E-01  0.21469728518E-01  0.00000000000E+00 0. -1.
     999901    1    3    3    0    0 -0.93110580582E-01  0.96609715776E-01 -0.56042754086E-01  0.89193262508E+00  0.88000000000E+00 0. -1.
        -11    1    4    4    0    0  0.65935673434E-01 -0.66354427780E-01  0.28669357166E-01  0.97839747948E-01  0.51100000000E-03 0.  1.
         11    1    4    4    0    0  0.12785058560E-01 -0.27736015457E-01  0.11640159297E-01  0.32687898453E-01  0.51100000000E-03 0. -1.
</event>
<event>
 8    1  0.1106905E+005  0.1043930E+01  0.7957747E-01            NaN
         13   -1    0    0    0    0  0.00000000000E+00  0.00000000000E+00  0.74505805969E-08  0.10566000000E+00  0.10566000000E+00 0.  1.
     999900   -1    0    0    0    0 -0.00000000000E+00 -0.00000000000E+00 -0.74505805969E-08  0.93827000000E+00  0.93827000000E+00 0.  1.
     999902    2    1    2    0    0  0.55114131484E-03  0.24520324941E-01  0.13474015011E-03  0.10194031118E+01  0.10191080100E+01 0.  0.
     999903    2    3    3    0    0 -0.12370806942E+00  0.24709437935E-01  0.26052468869E-01  0.13029562901E+00  0.19595332148E-01 0.  0.
         14    1    1    2    0    0 -0.55114131484E-03 -0.24520324941E-01 -0.13474015011E-03  0.24526888242E-01  0.00000000000E+00 0.  1.
     999901    1    3    3    0    0  0.12425921074E+00 -0.18911299414E-03 -0.25917728718E-01  0.88910748275E+00  0.88000000000E+00 0.  1.
        -11    1    4    4    0    0 -0.87959066994E-01  0.12883804487E-01  0.10365820928E-01  0.89501403615E-01  0.51100000000E-03 0. -1.
         11    1    4    4    0    0 -0.35749002427E-01  0.11825633448E-01  0.15686647940E-01  0.40794225395E-01  0.51100000000E-03 0.  1.
</event>
<event>
 8    1  0.1106905E+005  0.1043930E+01  0.7957747E-01            NaN
         13   -1    0    0    0    0  0.00000000000E+00  0.00000000000E+00  0.74505805969E-08  0.10566000000E+00  0.10566000000E+00 0. -1.
     999900   -1    0    0    0    0 -0.00000000000E+00 -0.00000000000E+00 -0.74505805969E-08  0.93827000000E+00  0.93827000000E+00 0.  1.
     999902    2    1    2    0    0 -0.20831693563E-01 -0.10474119329E-01 -0.65822540226E-03  0.10206040511E+01  0.10203374585E+01 0.  0.
     999903    2    3    3    0    0 -0.10447906484E+00  0.32778438642E-02 -0.79493703837E-01  0.13302248757E+00  0.21192309958E-01 0.  0.
         14    1    1    2    0    0  0.20831693563E-01  0.10474119329E-01  0.65822540226E-03  0.23325948922E-01  0.00000000000E+00 0.  1.
     999901    1    3    3    0    0  0.83647371273E-01 -0.13751963193E-01  0.78835478435E-01  0.88758156350E+00  0.88000000000E+00 0. -1.
        -11    1    4    4    0    0 -0.55399524092E-01  0.69419404838E-02 -0.30708857104E-01  0.63722781114E-01  0.51100000000E-03 0.  1.
         11    1    4    4    0    0 -0.49079540744E-01 -0.36640966196E-02 -0.48784846734E-01  0.69299706460E-01  0.51100000000E-03 0. -1.
</event>
<event>
 7    1  0.1106905E+005  0.1043930E+01  0.7957747E-01            NaN
         13   -1    0    0    0    0  0.00000000000E+00  0.00000000000E+00  0.74505805969E-08  0.10566000000E+00  0.10566000000E+00 0.  1.
     999900   -1    0    0    0    0 -0.00000000000E+00 -0.00000000000E+00 -0.74505805969E-08  0.93827000000E+00  0.93827000000E+00 0. -1.
     999903    2    1    2    0    0 -0.80227683845E-03 -0.65555320628E-01  0.36947876974E-01  0.75513308818E-01  0.62426344537E-02 0.  0.
         14    1    1    2    0    0  0.35588382587E-01 -0.30722863633E-01 -0.67144007447E-01  0.81967951427E-01  0.00000000000E+00 0. -1.
     999901    1    1    2    0    0 -0.34786105749E-01  0.96278184262E-01  0.30196130473E-01  0.88644873976E+00  0.88000000000E+00 0.  1.
        -11    1    3    3    0    0  0.19131851930E-02 -0.45006703080E-01  0.26938869815E-01  0.52490260312E-01  0.51100000000E-03 0. -1.
         11    1    3    3    0    0 -0.27154620314E-02 -0.20548617548E-01  0.10009007159E-01  0.23023048506E-01  0.51100000000E-03 0.  1.
</event>
<event>
 8    1  0.1106905E+005  0.1043930E+01  0.7957747E-01            NaN
         13   -1    0    0    0    0  0.00000000000E+00  0.00000000000E+00  0.74505805969E-08  0.10566000000E+00  0.10566000000E+00 0.  1.
     999900   -1    0    0    0    0 -0.00000000000E+00 -0.00000000000E+00 -0.74505805969E-08  0.93827000000E+00  0.93827000000E+00 0.  1.
     999902    2    1    2    0    0  0.12787017228E-01 -0.78414232736E-02  0.17455520829E-01  0.10209149846E+01  0.10206555319E+01 0.  0.
     999903    2    3    3    0    0 -0.69672745669E-02 -0.11101380721E+00  0.70380505290E-01  0.13308852244E+00  0.19660391022E-01 0.  0.
         14    1    1    2    0    0 -0.12787017228E-01  0.78414232736E-02 -0.17455520829E-01  0.23015015446E-01  0.00000000000E+00 0. -1.
     999901    1    3    3    0    0  0.19754291795E-01  0.10317238393E+00 -0.52924984461E-01  0.88782646211E+00  0.88000000000E+00 0. -1.
        -11    1    4    4    0    0 -0.10416657243E-01 -0.82213670585E-01  0.59855315132E-01  0.10222775675E+00  0.51100000000E-03 0.  1.
         11    1    4    4    0    0  0.34493826762E-02 -0.28800136621E-01  0.10525190158E-01  0.30860765692E-01  0.51100000000E-03 0. -1.
</event>
<event>
 8    1  0.1106905E+005  0.1043930E+01  0.7957747E-01            NaN
         13   -1    0    0    0    0  0.00000000000E+00  0.00000000000E+00  0.74505805969E-08  0.10566000000E+00  0.10566000000E+00 0. -1.
     999900   -1    0    0    0    0 -0.00000000000E+00 -0.00000000000E+00 -0.74505805969E-08  0.93827000000E+00  0.93827000000E+00 0. -1.
     999902    2    1    2    0    0  0.82788290598E-04  0.18298579059E-01  0.16184253396E-01  0.10195010232E+01  0.10192083013E+01 0.  0.
     999903    2    3    3    0    0  0.36897077032E-01  0.95251538698E-01 -0.76883768275E-01  0.13049106459E+00  0.26125738179E-01 0.  0.
         14    1    1    2    0    0 -0.82788290598E-04 -0.18298579059E-01 -0.16184253396E-01  0.24428976800E-01  0.00000000000E+00 0.  1.
     999901    1    3    3    0    0 -0.36814288741E-01 -0.76952959639E-01  0.93068021671E-01  0.88900995861E+00  0.88000000000E+00 0.  1.
        -11    1    4    4    0    0  0.78590323532E-02  0.36957702656E-01 -0.42408722563E-01  0.56801382427E-01  0.51100000000E-03 0. -1.
         11    1    4    4    0    0  0.29038044679E-01  0.58293836043E-01 -0.34475045712E-01  0.73689682162E-01  0.51100000000E-03 0.  1.
</event>
<event>
 8    1  0.1106905E+005  0.1043930E+01  0.7957747E-01            NaN
         13   -1    0    0    0    0  0.00000000000E+00  0.00000000000E+00  0.74505805969E-08  0.10566000000E+00  0.10566000000E+00 0. -1.
     999900   -1    0    0    0    0 -0.00000000000E+00 -0.00000000000E+00 -0.74505805969E-08  0.93827000000E+00  0.93827000000E+00 0.  1.
     999902    2    1    2    0    0 -0.15874286692E-01 -0.40402706665E-02 -0.17017690904E-01  0.10203097001E+01  0.10200362569E+01 0.  0.
     999903    2    3    3    0    0 -0.51429287646E-01  0.92829053495E-01 -0.76312985663E-01  0.13229857625E+00  0.20421476318E-01 0.  0.
         14    1    1    2    0    0  0.15874286692E-01  0.40402706665E-02  0.17017690904E-01  0.23620299930E-01  0.00000000000E+00 0. -1.
     999901    1    3    3    0    0  0.35555000954E-01 -0.96869324162E-01  0.59295294759E-01  0.88801112383E+00  0.88000000000E+00 0. -1.
        -11    1    4    4    0    0 -0.14973542787E-01  0.12194636746E-01 -0.10276358136E-01  0.21881060452E-01  0.51100000000E-03 0. -1.
         11    1    4    4    0    0 -0.36455744859E-01  0.80634416749E-01 -0.66036627527E-01  0.11041751579E+00  0.51100000000E-03 0.  1.
</event>
<event>
 8    1  0.1106905E+005  0.1043930E+01  0.7957747E-01            NaN
         13   -1    0    0    0    0  0.00000000000E+00  0.00000000000E+00  0.74505805969E-08  0.10566000000E+00  0.10566000000E+00 0.  1.
     999900   -1    0    0    0    0 -0.00000000000E+00 -0.00000000000E+00 -0.74505805969E-08  0.93827000000E+00  0.93827000000E+00 0. -1.
     999902    2    1    2    0    0 -0.19016016187E-01  0.10067212905E-01 -0.86220070156E-02  0.10207503397E+01  0.10204871186E+01 0.  0.
     999903    2    3    3    0    0  0.11774631035E+00 -0.46155885231E-01  0.11351222707E-01  0.12819003325E+00  0.17586216912E-01 0.  0.
         14    1    1    2    0    0  0.19016016187E-01 -0.10067212905E-01  0.86220070156E-02  0.23179660314E-01  0.00000000000E+00 0. -1.
     999901    1    3    3    0    0 -0.13676232653E+00  0.56223098136E-01 -0.19973229723E-01  0.89256030644E+00  0.88000000000E+00 0.  1.
        -11    1    4    4    0    0  0.94686889847E-01 -0.33169044158E-01  0.27844438716E-02  0.10036835581E+00  0.51100000000E-03 0. -1.
         11    1    4    4    0    0  0.23059420500E-01 -0.12986841072E-01  0.85667788355E-02  0.27821677438E-01  0.51100000000E-03 0.  1.
</event>
<event>
 8    1  0.1106905E+005  0.1043930E+01  0.7957747E-01            NaN
         13   -1    0    0    0    0  0.00000000000E+00  0.00000000000E+00  0.74505805969E-08  0.10566000000E+00  0.10566000000E+00 0.  1.
     999900   -1    0    0    0    0 -0.00000000000E+00 -0.00000000000E+00 -0.74505805969E-08  0.93827000000E+00  0.93827000000E+00 0. -1.
     999902    2    1    2    0    0  0.20477906606E-01 -0.35456038382E-02  0.11732211093E-01  0.10200645282E+01  0.10197853112E+01 0.  0.
     999903    2    3    3    0    0  0.48119223994E-01  0.78267636040E-01 -0.89780109946E-01  0.13002958512E+00  0.20148009686E-01 0.  0.
         14    1    1    2    0    0 -0.20477906606E-01  0.35456038382E-02 -0.11732211093E-01  0.23865471768E-01  0.00000000000E+00 0. -1.
     999901    1    3    3    0    0 -0.27641317387E-01 -0.81813239878E-01  0.10151232104E+00  0.89003494312E+00  0.88000000000E+00 0.  1.
        -11    1    4    4    0    0  0.30381341679E-01  0.39956130299E-01 -0.36583459763E-01  0.62113838393E-01  0.51100000000E-03 0.  1.
         11    1    4    4    0    0  0.17737882314E-01  0.38311505741E-01 -0.53196650183E-01  0.67915746722E-01  0.51100000000E-03 0. -1.
</event>
<event>
 8    1  0.1106905E+005  0.1043930E+01  0.7957747E-01            NaN
         13   -1    0    0    0    0  0.00000000000E+00  0.00000000000E+00  0.74505805969E-08  0.10566000000E+00  0.10566000000E+00 0. -1.
     999900   -1    0    0    0    0 -0.00000000000E+00 -0.00000000000E+00 -0.74505805969E-08  0.93827000000E+00  0.93827000000E+00 0.  1.
     999902    2    1    2    0    0  0.96407749354E-02 -0.19012656323E-01  0.17375917477E-01  0.10164282155E+01  0.10160560856E+01 0.  0.
     999903    2    3    3    0    0  0.44323055960E-01 -0.68269070972E-01  0.10005236286E+00  0.13050245698E+00  0.19880055917E-01 0.  0.
         14    1    1    2    0    0 -0.96407749354E-02  0.19012656323E-01 -0.17375917477E-01  0.27501784487E-01  0.00000000000E+00 0.  1.
     999901    1    3    3    0    0 -0.34682281025E-01  0.49256414648E-01 -0.82676445388E-01  0.88592575853E+00  0.88000000000E+00 0.  1.
        -11    1    4    4    0    0  0.13452254559E-01 -0.35334812870E-01  0.36554497490E-01  0.52592818531E-01  0.51100000000E-03 0.  1.
         11    1    4    4    0    0  0.30870801401E-01 -0.32934258102E-01  0.63497865375E-01  0.77909638454E-01  0.51100000000E-03 0. -1.
</event>
<event>
 8    1  0.1106905E+005  0.1043930E+01  0.7957747E-01            NaN
         13   -1    0    0    0    0  0.00000000000E+00  0.00000000000E+00  0.74505805969E-08  0.10566000000E+00  0.10566000000E+00 0.  1.
     999900   -1    0    0    0    0 -0.00000000000E+00 -0.00000000000E+00 -0.74505805969E-08  0.93827000000E+00  0.93827000000E+00 0. -1.
     999902    2    1    2    0    0  0.17685303270E-01  0.11333616775E-01 -0.12645254119E-01  0.10194121846E+01  0.10191173038E+01 0.  0.
     999903    2    3    3    0    0 -0.82752317271E-01 -0.12524972754E-01 -0.96539933645E-01  0.12941484461E+00  0.20577226753E-01 0.  0.
         14    1    1    2    0    0 -0.17685303270E-01 -0.11333616775E-01  0.12645254119E-01  0.24517815414E-01  0.00000000000E+00 0. -1.
     999901    1    3    3    0    0  0.10043762054E+00  0.23858589529E-01  0.83894679526E-01  0.88999733998E+00  0.88000000000E+00 0.  1.
        -11    1    4    4    0    0 -0.27477036686E-01  0.30263598871E-02 -0.22070346664E-01  0.35376655043E-01  0.51100000000E-03 0.  1.
         11    1    4    4    0    0 -0.55275280585E-01 -0.15551332641E-01 -0.74469586981E-01  0.94038189565E-01  0.51100000000E-03 0. -1.
</event>
<event>
 8    1  0.1106905E+005  0.1043930E+01  0.7957747E-01            NaN
         13   -1    0    0    0    0  0.00000000000E+00  0.00000000000E+00  0.74505805969E-08  0.10566000000E+00  0.10566000000E+00 0.  1.
     999900   -1    0    0    0    0 -0.00000000000E+00 -0.00000000000E+00 -0.74505805969E-08  0.93827000000E+00  0.93827000000E+00 0. -1.
     999902    2    1    2    0    0 -0.31177462294E-02  0.23329515676E-01 -0.16915775397E-02  0.10203323714E+01  0.10200594590E+01 0.  0.
     999903    2    3    3    0    0 -0.35684320906E-01  0.12132446368E+00 -0.37794699318E-01  0.13355899161E+00  0.20410014620E-01 0.  0.
         14    1    1    2    0    0  0.31177462294E-02 -0.23329515676E-01  0.16915775397E-02  0.23597628648E-01  0.00000000000E+00 0. -1.
     999901    1    3    3    0    0  0.32566574676E-01 -0.97994948005E-01  0.36103121778E-01  0.88677337974E+00  0.88000000000E+00 0.  1.
        -11    1    4    4    0    0 -0.21245541615E-01  0.99474141546E-01 -0.27117336629E-01  0.10527150109E+00  0.51100000000E-03 0.  1.
         11    1    4    4    0    0 -0.14438779291E-01  0.21850322135E-01 -0.10677362689E-01  0.28287490518E-01  0.51100000000E-03 0. -1.
</event>
<event>
 8    1  0.1106905E+005  0.1043930E+01  0.7957747E-01            NaN
         13   -1    0    0    0    0  0.00000000000E+00  0.00000000000E+00  0.74505805969E-08  0.10566000000E+00  0.10566000000E+00 0. -1.
     999900   -1    0    0    0    0 -0.00000000000E+00 -0.00000000000E+00 -0.74505805969E-08  0.93827000000E+00  0.93827000000E+00 0. -1.
     999902    2    1    2    0    0  0.17535395738E-01  0.14561812742E-01  0.32626519192E-04  0.10211366335E+01  0.10208822100E+01 0.  0.
     999903    2    3    3    0    0  0.69520701630E-01  0.11277574256E+00 -0.37977419546E-02  0.13413994814E+00  0.20678655124E-01 0.  0.
         14    1    1    2    0    0 -0.17535395738E-01 -0.14561812742E-01 -0.32626519192E-04  0.22793366546E-01  0.00000000000E+00 0. -1.
     999901    1    3    3    0    0 -0.51985305892E-01 -0.98213929817E-01  0.38303684738E-02  0.88699668532E+00  0.88000000000E+00 0. -1.
        -11    1    4    4    0    0  0.36469472907E-01  0.77776885209E-01 -0.40230481984E-02  0.85998327685E-01  0.51100000000E-03 0.  1.
         11    1    4    4    0    0  0.33051228723E-01  0.34998857350E-01  0.22530624383E-03  0.48141620453E-01  0.51100000000E-03 0. -1.
</event>
<event>
 8    1  0.1106905E+005  0.1043930E+01  0.7957747E-01            NaN
         13   -1    0    0    0    0  0.00000000000E+00  0.00000000000E+00  0.74505805969E-08  0.10566000000E+00  0.10566000000E+00 0. -1.
     999900   -1    0    0    0    0 -0.00000000000E+00 -0.00000000000E+00 -0.74505805969E-08  0.93827000000E+00  0.93827000000E+00 0.  1.
     999902    2    1    2    0    0  0.13841274249E-01  0.26773699634E-02  0.14094393754E-01  0.10239950779E+01  0.10238010151E+01 0.  0.
     999903    2    3    3    0    0  0.68355418967E-01 -0.73988939101E-01  0.88841501238E-01  0.13583031562E+00  0.20254280755E-01 0.  0.
         14    1    1    2    0    0 -0.13841274249E-01 -0.26773699634E-02 -0.14094393754E-01  0.19934922073E-01  0.00000000000E+00 0. -1.
     999901    1    3    3    0    0 -0.54514144718E-01  0.76666309064E-01 -0.74747107485E-01  0.88816476230E+00  0.88000000000E+00 0.  1.
        -11    1    4    4    0    0  0.39774133369E-01 -0.31672122713E-01  0.52960808370E-01  0.73418072616E-01  0.51100000000E-03 0. -1.
         11    1    4    4    0    0  0.28581285598E-01 -0.42316816388E-01  0.35880692868E-01  0.62412243008E-01  0.51100000000E-03 0.  1.
</event>
<event>
 8    1  0.1106905E+005  0.1043930E+01  0.7957747E-01            NaN
         13   -1    0    0    0    0  0.00000000000E+00  0.00000000000E+00  0.74505805969E-08  0.10566000000E+00  0.10566000000E+00 0. -1.
     999900   -1    0    0    0    0 -0.00000000000E+00 -0.00000000000E+00 -0.74505805969E-08  0.93827000000E+00  0.93827000000E+00 0.  1.
     999902    2    1    2    0    0 -0.75648726503E-02 -0.22092543410E-02  0.22993237403E-01  0.10196236825E+01  0.10193339281E+01 0.  0.
     999903    2    3    3    0    0 -0.11751915271E+00  0.42882254536E-01  0.35254590817E-01  0.13155075271E+00  0.20324255428E-01 0.  0.
         14    1    1    2    0    0  0.75648726503E-02  0.22092543410E-02 -0.22993237403E-01  0.24306317475E-01  0.00000000000E+00 0.  1.
     999901    1    3    3    0    0  0.10995428006E+00 -0.45091508877E-01 -0.12261353414E-01  0.88807292981E+00  0.88000000000E+00 0.  1.
        -11    1    4    4    0    0 -0.66351291504E-02  0.24412212328E-02 -0.26749447148E-02  0.75763414771E-02  0.51100000000E-03 0.  1.
         11    1    4    4    0    0 -0.11088402356E+00  0.40441033303E-01  0.37929535532E-01  0.12397441124E+00  0.51100000000E-03 0. -1.
</event>
<event>
 8    1  0.1106905E+005  0.1043930E+01  0.7957747E-01            NaN
         13   -1    0    0    0    0  0.00000000000E+00  0.00000000000E+00  0.74505805969E-08  0.10566000000E+00  0.10566000000E+00 0.  1.
     999900   -1    0    0    0    0 -0.00000000000E+00 -0.00000000000E+00 -0.74505805969E-08  0.93827000000E+00  0.93827000000E+00 0. -1.
     999902    2    1    2    0    0 -0.48033459904E-04  0.10404515129E-01 -0.20374682184E-01  0.10210524145E+01  0.10207960861E+01 0.  0.
     999903    2    3    3    0    0  0.94046731558E-01  0.88481489435E-01 -0.22553411809E-01  0.13259612097E+00  0.19982823208E-01 0.  0.
         14    1    1    2    0    0  0.48033459904E-04 -0.10404515129E-01  0.20374682184E-01  0.22877585458E-01  0.00000000000E+00 0.  1.
     999901    1    3    3    0    0 -0.94094765018E-01 -0.78076974306E-01  0.21787296253E-02  0.88845629357E+00  0.88000000000E+00 0. -1.
        -11    1    4    4    0    0  0.40499942814E-01  0.30231110219E-01 -0.16811252551E-01  0.53263915800E-01  0.51100000000E-03 0.  1.
         11    1    4    4    0    0  0.53546788744E-01  0.58250379216E-01 -0.57421592579E-02  0.79332205173E-01  0.51100000000E-03 0. -1.
</event>
<event>
 8    1  0.1106905E+005  0.1043930E+01  0.7957747E-01            NaN
         13   -1    0    0    0    0  0.00000000000E+00  0.00000000000E+00  0.74505805969E-08  0.10566000000E+00  0.10566000000E+00 0. -1.
     999900   -1    0    0    0    0 -0.00000000000E+00 -0.00000000000E+00 -0.74505805969E-08  0.93827000000E+00  0.93827000000E+00 0. -1.
     999902    2    1    2    0    0 -0.23773244625E-01  0.22965391559E-02  0.92364510777E-02  0.10183223199E+01  0.10180002917E+01 0.  0.
     999903    2    3    3    0    0 -0.22058033973E-01  0.61945222259E-01 -0.10869495089E+00  0.12845226032E+00  0.19016398420E-01 0.  0.
         14    1    1    2    0    0  0.23773244625E-01 -0.22965391559E-02 -0.92364510777E-02  0.25607680110E-01  0.00000000000E+00 0. -1.
     999901    1    3    3    0    0 -0.17152106518E-02 -0.59648683103E-01  0.11793140197E+00  0.88987005957E+00  0.88000000000E+00 0.  1.
        -11    1    4    4    0    0 -0.11474695736E-01  0.94845429257E-02 -0.22023623265E-01  0.26588085668E-01  0.51100000000E-03 0.  1.
         11    1    4    4    0    0 -0.10583338237E-01  0.52460679333E-01 -0.86671327628E-01  0.10186417466E+00  0.51100000000E-03 0. -1.
</event>
<event>
 7    1  0.2544723E+005  0.1043930E+01  0.7957747E-01            NaN
         13   -1    0    0    0    0  0.00000000000E+00  0.00000000000E+00  0.74505805969E-08  0.10566000000E+00  0.10566000000E+00 0. -1.
     999900   -1    0    0    0    0 -0.00000000000E+00 -0.00000000000E+00 -0.74505805969E-08  0.93827000000E+00  0.93827000000E+00 0.  1.
     999903    2    1    2    0    0  0.94629448869E-01 -0.37948546308E-02  0.49642639817E-01  0.10869728111E+00  0.19533911967E-01 0.  0.
         14    1    1    2    0    0 -0.28252612886E-02  0.14564767656E-01  0.43064177850E-01  0.45548193950E-01  0.00000000000E+00 0. -1.
     999901    1    1    2    0    0 -0.91804187580E-01 -0.10769913025E-01 -0.92706817667E-01  0.88968452494E+00  0.88000000000E+00 0.  1.
        -11    1    3    3    0    0  0.49877842334E-01  0.20904426452E-03  0.36731028149E-01  0.61945721445E-01  0.51100000000E-03 0. -1.
         11    1    3    3    0    0  0.44751606535E-01 -0.40038988953E-02  0.12911611668E-01  0.46751559660E-01  0.51100000000E-03 0.  1.
</event>
<event>
 8    1  0.1106905E+005  0.1043930E+01  0.7957747E-01            NaN
         13   -1    0    0    0    0  0.00000000000E+00  0.00000000000E+00  0.74505805969E-08  0.10566000000E+00  0.10566000000E+00 0. -1.
     999900   -1    0    0    0    0 -0.00000000000E+00 -0.00000000000E+00 -0.74505805969E-08  0.93827000000E+00  0.93827000000E+00 0.  1.
     999902    2    1    2    0    0 -0.75287716332E-02 -0.67495069094E-02 -0.18364138810E-01  0.10229662255E+01  0.10227513963E+01 0.  0.
     999903    2    3    3    0    0  0.10999321277E-01  0.11965598308E+00  0.48514255198E-01  0.13122951679E+00  0.20712647456E-01 0.  0.
         14    1    1    2    0    0  0.75287716332E-02  0.67495069094E-02  0.18364138810E-01  0.20963774470E-01  0.00000000000E+00 0. -1.
     999901    1    3    3    0    0 -0.18528092911E-01 -0.12640548999E+00 -0.66878394008E-01  0.89173670874E+00  0.88000000000E+00 0.  1.
        -11    1    4    4    0    0  0.63974874713E-02  0.17906310201E-01  0.14244063823E-01  0.23763801593E-01  0.51100000000E-03 0. -1.
         11    1    4    4    0    0  0.46018338062E-02  0.10174967288E+00  0.34270191375E-01  0.10746571520E+00  0.51100000000E-03 0.  1.
</event>
<event>
 8    1  0.1106905E+005  0.1043930E+01  0.7957747E-01            NaN
         13   -1    0    0    0    0  0.00000000000E+00  0.00000000000E+00  0.74505805969E-08  0.10566000000E+00  0.10566000000E+00 0. -1.
     999900   -1    0    0    0    0 -0.00000000000E+00 -0.00000000000E+00 -0.74505805969E-08  0.93827000000E+00  0.93827000000E+00 0.  1.
     999902    2    1    2    0    0  0.15158822825E-01 -0.18154125030E-01 -0.11620983163E-02  0.10202506284E+01  0.10199757998E+01 0.  0.
     999903    2    3    3    0    0 -0.95800259698E-01 -0.85535952582E-01  0.12955575921E-01  0.13061500786E+00  0.19958566789E-01 0.  0.
         14    1    1    2    0    0 -0.15158822825E-01  0.18154125030E-01  0.11620983163E-02  0.23679371561E-01  0.00000000000E+00 0.  1.
     999901    1    3    3    0    0  0.11095908252E+00  0.67381827552E-01 -0.14117674237E-01  0.88963562058E+00  0.88000000000E+00 0. -1.
        -11    1    4    4    0    0 -0.79556915484E-01 -0.64920559089E-01  0.16909609436E-01  0.10406814021E+00  0.51100000000E-03 0. -1.
         11    1    4    4    0    0 -0.16243344214E-01 -0.20615393493E-01 -0.39540335150E-02  0.26546867653E-01  0.51100000000E-03 0.  1.
</event>
<event>
 8    1  0.1106905E+005  0.1043930E+01  0.7957747E-01            NaN
         13   -1    0    0    0    0  0.00000000000E+00  0.00000000000E+00  0.74505805969E-08  0.10566000000E+00  0.10566000000E+00 0. -1.
     999900   -1    0    0    0    0 -0.00000000000E+00 -0.00000000000E+00 -0.74505805969E-08  0.93827000000E+00  0.93827000000E+00 0.  1.
     999902    2    1    2    0    0  0.18487463689E-01  0.34724648433E-02 -0.15173472433E-01  0.10197622820E+01  0.10194758620E+01 0.  0.
     999903    2    3    3    0    0 -0.99625601663E-01 -0.73471561876E-01 -0.28864718822E-01  0.12843825023E+00  0.18435867706E-01 0.  0.
         14    1    1    2    0    0 -0.18487463689E-01 -0.34724648433E-02  0.15173472433E-01  0.24167717960E-01  0.00000000000E+00 0. -1.
     999901    1    3    3    0    0  0.11811306535E+00  0.76944026719E-01  0.13691246389E-01  0.89132403181E+00  0.88000000000E+00 0.  1.
        -11    1    4    4    0    0 -0.66487440794E-01 -0.55474871070E-01 -0.13165003860E-01  0.87587781974E-01  0.51100000000E-03 0. -1.
         11    1    4    4    0    0 -0.33138160869E-01 -0.17996690806E-01 -0.15699714962E-01  0.40850468255E-01  0.51100000000E-03 0.  1.
</event>
<event>
 8    1  0.1106905E+005  0.1043930E+01  0.7957747E-01            NaN
         13   -1    0    0    0    0  0.00000000000E+00  0.00000000000E+00  0.74505805969E-08  0.10566000000E+00  0.10566000000E+00 0. -1.
     999900   -1    0    0    0    0 -0.00000000000E+00 -0.00000000000E+00 -0.74505805969E-08  0.93827000000E+00  0.93827000000E+00 0. -1.
     999902    2    1    2    0    0  0.25493570976E-01 -0.38757585271E-02 -0.18778735035E-01  0.10120303988E+01  0.10115275298E+01 0.  0.
     999903    2    3    3    0    0  0.10886300050E+00  0.50902040984E-01  0.28582531427E-01  0.12512896200E+00  0.19953079267E-01 0.  0.
         14    1    1    2    0    0 -0.25493570976E-01  0.38757585271E-02  0.18778735035E-01  0.31899601170E-01  0.00000000000E+00 0.  1.
     999901    1    3    3    0    0 -0.83369429528E-01 -0.54777799511E-01 -0.47361266462E-01  0.88690143683E+00  0.88000000000E+00 0.  1.
        -11    1    4    4    0    0  0.15752862870E-01  0.15294968208E-01  0.26366275535E-02  0.22120164261E-01  0.51100000000E-03 0.  1.
         11    1    4    4    0    0  0.93110137634E-01  0.35607072776E-01  0.25945903873E-01  0.10300879773E+00  0.51100000000E-03 0. -1.
</event>
<event>
 8    1  0.1106905E+005  0.1043930E+01  0.7957747E-01            NaN
         13   -1    0    0    0    0  0.00000000000E+00  0.00000000000E+00  0.74505805969E-08  0.10566000000E+00  0.10566000000E+00 0. -1.
     999900   -1    0    0    0    0 -0.00000000000E+00 -0.00000000000E+00 -0.74505805969E-08  0.93827000000E+00  0.93827000000E+00 0.  1.
     999902    2    1    2    0    0 -0.50738036620E-02  0.30445020401E-02  0.22443679316E-01  0.10207194158E+01  0.10204554839E+01 0.  0.
     999903    2    3    3    0    0 -0.11483675979E+00 -0.60528055242E-01  0.55370772067E-02  0.13146399146E+00  0.20024858472E-01 0.  0.
         14    1    1    2    0    0  0.50738036620E-02 -0.30445020401E-02 -0.22443679316E-01  0.23210584170E-01  0.00000000000E+00 0.  1.
     999901    1    3    3    0    0  0.10976295612E+00  0.63572557282E-01  0.16906602110E-01  0.88925542437E+00  0.88000000000E+00 0. -1.
        -11    1    4    4    0    0 -0.86209031087E-01 -0.39670625841E-01 -0.32899679467E-02  0.94957046109E-01  0.51100000000E-03 0.  1.
         11    1    4    4    0    0 -0.28627728699E-01 -0.20857429401E-01  0.88270451534E-02  0.36506945351E-01  0.51100000000E-03 0. -1.
</event>
<event>
 8    1  0.1106905E+005  0.1043930E+01  0.7957747E-01            NaN
         13   -1    0    0    0    0  0.00000000000E+00  0.00000000000E+00  0.74505805969E-08  0.10566000000E+00  0.10566000000E+00 0. -1.
     999900   -1    0    0    0    0 -0.00000000000E+00 -0.00000000000E+00 -0.74505805969E-08  0.93827000000E+00  0.93827000000E+00 0. -1.
     999902    2    1    2    0    0 -0.87388004632E-02  0.81279149784E-02  0.10849275713E-01  0.10278012549E+01  0.10276746971E+01 0.  0.
     999903    2    3    3    0    0 -0.12885549589E+00 -0.43657499365E-01  0.13744796855E-01  0.13812820612E+00  0.19513221518E-01 0.  0.
         14    1    1    2    0    0  0.87388004632E-02 -0.81279149784E-02 -0.10849275713E-01  0.16128745114E-01  0.00000000000E+00 0.  1.
     999901    1    3    3    0    0  0.12011669542E+00  0.51785414344E-01 -0.28955211413E-02  0.88967304877E+00  0.88000000000E+00 0. -1.
        -11    1    4    4    0    0 -0.43601801256E-01 -0.11666770900E-01  0.13336828382E-01  0.47067639927E-01  0.51100000000E-03 0. -1.
         11    1    4    4    0    0 -0.85253694632E-01 -0.31990728465E-01  0.40796847271E-03  0.91060566193E-01  0.51100000000E-03 0.  1.
</event>
<event>
 8    1  0.1106905E+005  0.1043930E+01  0.7957747E-01            NaN
         13   -1    0    0    0    0  0.00000000000E+00  0.00000000000E+00  0.74505805969E-08  0.10566000000E+00  0.10566000000E+00 0.  1.
     999900   -1    0    0    0    0 -0.00000000000E+00 -0.00000000000E+00 -0.74505805969E-08  0.93827000000E+00  0.93827000000E+00 0. -1.
     999902    2    1    2    0    0  0.23230150277E-01  0.65464497160E-02 -0.51788603650E-02  0.10192456633E+01  0.10189467138E+01 0.  0.
     999903    2    3    3    0    0  0.59222812697E-01 -0.98058691410E-01  0.58089134017E-01  0.13006595903E+00  0.20492869555E-01 0.  0.
         14    1    1    2    0    0 -0.23230150277E-01 -0.65464497160E-02  0.51788603650E-02  0.24684336743E-01  0.00000000000E+00 0.  1.
     999901    1    3    3    0    0 -0.35992662421E-01  0.10460514113E+00 -0.63267994382E-01  0.88917970423E+00  0.88000000000E+00 0.  1.
        -11    1    4    4    0    0  0.34786572960E-01 -0.54399469112E-01  0.21421536522E-01  0.68033456813E-01  0.51100000000E-03 0.  1.
         11    1    4    4    0    0  0.24436239737E-01 -0.43659222298E-01  0.36667597495E-01  0.62032502216E-01  0.51100000000E-03 0. -1.
</event>
<event>
 8    1  0.1106905E+005  0.1043930E+01  0.7957747E-01            NaN
         13   -1    0    0    0    0  0.00000000000E+00  0.00000000000E+00  0.74505805969E-08  0.10566000000E+00  0.10566000000E+00 0.  1.
     999900   -1    0    0    0    0 -0.00000000000E+00 -0.00000000000E+00 -0.74505805969E-08  0.93827000000E+00  0.93827000000E+00 0.  1.
     999902    2    1    2    0    0  0.22602722226E-01 -0.63178887336E-02 -0.36064142681E-03  0.10204581268E+01  0.10201881492E+01 0.  0.
     999903    2    3    3    0    0  0.35373115010E-01  0.90731348830E-01 -0.85163402696E-01  0.13097898382E+00  0.20475695794E-01 0.  0.
         14    1    1    2    0    0 -0.22602722226E-01  0.63178887336E-02  0.36064142681E-03  0.23471873217E-01  0.00000000000E+00 0.  1.
     999901    1    3    3    0    0 -0.12770392784E-01 -0.97049237564E-01  0.84802761269E-01  0.88947914296E+00  0.88000000000E+00 0.  1.
        -11    1    4    4    0    0  0.18936473445E-01  0.31909274401E-01 -0.42804044331E-01  0.56650146967E-01  0.51100000000E-03 0.  1.
         11    1    4    4    0    0  0.16436641565E-01  0.58822074430E-01 -0.42359358366E-01  0.74328836855E-01  0.51100000000E-03 0. -1.
</event>
<event>
 8    1  0.1106905E+005  0.1043930E+01  0.7957747E-01            NaN
         13   -1    0    0    0    0  0.00000000000E+00  0.00000000000E+00  0.74505805969E-08  0.10566000000E+00  0.10566000000E+00 0. -1.
     999900   -1    0    0    0    0 -0.00000000000E+00 -0.00000000000E+00 -0.74505805969E-08  0.93827000000E+00  0.93827000000E+00 0. -1.
     999902    2    1    2    0    0 -0.78295774500E-02 -0.12627458971E-01 -0.20377613927E-01  0.10187109169E+01  0.10183987088E+01 0.  0.
     999903    2    3    3    0    0 -0.50595723319E-01 -0.10420706381E+00  0.55082196825E-01  0.12971713160E+00  0.19324762855E-01 0.  0.
         14    1    1    2    0    0  0.78295774500E-02  0.12627458971E-01  0.20377613927E-01  0.25219083101E-01  0.00000000000E+00 0. -1.
     999901    1    3    3    0    0  0.42766145869E-01  0.91579604835E-01 -0.75459810751E-01  0.88899378529E+00  0.88000000000E+00 0. -1.
        -11    1    4    4    0    0 -0.18076431546E-01 -0.41687641415E-01  0.11560171136E-01  0.46888330124E-01  0.51100000000E-03 0.  1.
         11    1    4    4    0    0 -0.32519291773E-01 -0.62519422391E-01  0.43522025689E-01  0.82828801480E-01  0.51100000000E-03 0. -1.
</event>
<event>
 8    1  0.1106905E+005  0.1043930E+01  0.7957747E-01            NaN
         13   -1    0    0    0    0  0.00000000000E+00  0.00000000000E+00  0.74505805969E-08  0.10566000000E+00  0.10566000000E+00 0.  1.
     999900   -1    0    0    0    0 -0.00000000000E+00 -0.00000000000E+00 -0.74505805969E-08  0.93827000000E+00  0.93827000000E+00 0. -1.
     999902    2    1    2    0    0  0.81247727106E-02  0.46947668348E-02 -0.19829447534E-01  0.10219923667E+01  0.10217568878E+01 0.  0.
     999903    2    3    3    0    0 -0.28269129759E-01 -0.91939080218E-01  0.84793910571E-01  0.12979919049E+00  0.20146573249E-01 0.  0.
         14    1    1    2    0    0 -0.81247727106E-02 -0.46947668348E-02  0.19829447534E-01  0.21937633344E-01  0.00000000000E+00 0.  1.
     999901    1    3    3    0    0  0.36393902470E-01  0.96633847053E-01 -0.10462335811E+00  0.89219317616E+00  0.88000000000E+00 0. -1.
        -11    1    4    4    0    0 -0.19585868401E-01 -0.58625789822E-01  0.41359782394E-01  0.74373934910E-01  0.51100000000E-03 0. -1.
         11    1    4    4    0    0 -0.86832613578E-02 -0.33313290396E-01  0.43434128177E-01  0.55425255582E-01  0.51100000000E-03 0.  1.
</event>
<event>
 8    1  0.1106905E+005  0.1043930E+01  0.7957747E-01            NaN
         13   -1    0    0    0    0  0.00000000000E+00  0.00000000000E+00  0.74505805969E-08  0.10566000000E+00  0.10566000000E+00 0.  1.
     999900   -1    0    0    0    0 -0.00000000000E+00 -0.00000000000E+00 -0.74505805969E-08  0.93827000000E+00  0.93827000000E+00 0. -1.
     999902    2    1    2    0    0 -0.14237010815E-01 -0.15909797354E-01  0.96473343167E-02  0.10205017011E+01  0.10202327366E+01 0.  0.
     999903    2    3    3    0    0  0.98206491157E-01 -0.75947135295E-01  0.36399579807E-01  0.13091544577E+00  0.20036024190E-01 0.  0.
         14    1    1    2    0    0  0.14237010815E-01  0.15909797354E-01 -0.96473343167E-02  0.23428298875E-01  0.00000000000E+00 0. -1.
     999901    1    3    3    0    0 -0.11244350197E+00  0.60037337941E-01 -0.26752245490E-01  0.88958625536E+00  0.88000000000E+00 0. -1.
        -11    1    4    4    0    0  0.12746179876E-01 -0.19101948410E-01  0.42678351601E-02  0.23362899487E-01  0.51100000000E-03 0.  1.
         11    1    4    4    0    0  0.85460311281E-01 -0.56845186885E-01  0.32131744647E-01  0.10755254628E+00  0.51100000000E-03 0. -1.
</event>
<event>
 8    1  0.1214000E+005  0.1043930E+01  0.7957747E-01            NaN
         13   -1    0    0    0    0  0.00000000000E+00  0.00000000000E+00  0.74505805969E-08  0.10566000000E+00  0.10566000000E+00 0.  1.
     999900   -1    0    0    0    0 -0.00000000000E+00 -0.00000000000E+00 -0.74505805969E-08  0.93827000000E+00  0.93827000000E+00 0. -1.
     999902    2    1    2    0    0  0.21638451562E-01 -0.77142966592E-02 -0.63469374268E-02  0.10200969017E+01  0.10198184507E+01 0.  0.
     999903    2    3    3    0    0 -0.72888185193E-01 -0.10348629582E+00  0.15574172293E-01  0.12959811119E+00  0.23043754456E-01 0.  0.
         14    1    1    2    0    0 -0.21638451562E-01  0.77142966592E-02  0.63469374268E-02  0.23833098280E-01  0.00000000000E+00 0.  1.
     999901    1    3    3    0    0  0.94526636755E-01  0.95771999158E-01 -0.21921109719E-01  0.89049879053E+00  0.88000000000E+00 0. -1.
        -11    1    4    4    0    0 -0.35780838003E-01 -0.69784343442E-01  0.12043216948E-01  0.79343702670E-01  0.51100000000E-03 0.  1.
         11    1    4    4    0    0 -0.37107347190E-01 -0.33701952375E-01  0.35309553450E-02  0.50254408523E-01  0.51100000000E-03 0. -1.
</event>
<event>
 8    1  0.1106905E+005  0.1043930E+01  0.7957747E-01            NaN
         13   -1    0    0    0    0  0.00000000000E+00  0.00000000000E+00  0.74505805969E-08  0.10566000000E+00  0.10566000000E+00 0. -1.
     999900   -1    0    0    0    0 -0.00000000000E+00 -0.00000000000E+00 -0.74505805969E-08  0.93827000000E+00  0.93827000000E+00 0.  1.
     999902    2    1    2    0    0 -0.14641351569E-02 -0.16429962956E-01 -0.15912653735E-01  0.10210105776E+01  0.10207533001E+01 0.  0.
     999903    2    3    3    0    0  0.48761968361E-01  0.11216175424E+00 -0.39109507157E-01  0.12994571732E+00  0.19958637892E-01 0.  0.
         14    1    1    2    0    0  0.14641351569E-02  0.16429962956E-01  0.15912653735E-01  0.22919422405E-01  0.00000000000E+00 0. -1.
     999901    1    3    3    0    0 -0.50226103518E-01 -0.12859171720E+00  0.23196853422E-01  0.89106486027E+00  0.88000000000E+00 0.  1.
        -11    1    4    4    0    0  0.25224365235E-01  0.34314823998E-01 -0.13502868066E-01  0.44680692861E-01  0.51100000000E-03 0. -1.
         11    1    4    4    0    0  0.23537603126E-01  0.77846930246E-01 -0.25606639091E-01  0.85265024459E-01  0.51100000000E-03 0.  1.
</event>
<event>
 8    1  0.1106905E+005  0.1043930E+01  0.7957747E-01            NaN
         13   -1    0    0    0    0  0.00000000000E+00  0.00000000000E+00  0.74505805969E-08  0.10566000000E+00  0.10566000000E+00 0. -1.
     999900   -1    0    0    0    0 -0.00000000000E+00 -0.00000000000E+00 -0.74505805969E-08  0.93827000000E+00  0.93827000000E+00 0. -1.
     999902    2    1    2    0    0  0.35380445911E-02  0.22642005436E-01  0.62710203617E-02  0.10201707099E+01  0.10198940011E+01 0.  0.
     999903    2    3    3    0    0 -0.12154497549E-02  0.58722172424E-01 -0.11542651000E+00  0.13105054757E+00  0.20029876608E-01 0.  0.
         14    1    1    2    0    0 -0.35380445911E-02 -0.22642005436E-01 -0.62710203617E-02  0.23759290100E-01  0.00000000000E+00 0. -1.
     999901    1    3    3    0    0  0.47534943460E-02 -0.36080166987E-01  0.12169753036E+00  0.88912016233E+00  0.88000000000E+00 0.  1.
        -11    1    4    4    0    0  0.62639366730E-02  0.84703300720E-02 -0.13219751789E-01  0.16911722341E-01  0.51100000000E-03 0.  1.
         11    1    4    4    0    0 -0.74793864278E-02  0.50251842351E-01 -0.10220675821E+00  0.11413882523E+00  0.51100000000E-03 0. -1.
</event>
<event>
 8    1  0.1106905E+005  0.1043930E+01  0.7957747E-01            NaN
         13   -1    0    0    0    0  0.00000000000E+00  0.00000000000E+00  0.74505805969E-08  0.10566000000E+00  0.10566000000E+00 0. -1.
     999900   -1    0    0    0    0 -0.00000000000E+00 -0.00000000000E+00 -0.74505805969E-08  0.93827000000E+00  0.93827000000E+00 0.  1.
     999902    2    1    2    0    0 -0.21192286014E-01  0.81432574973E-02  0.68707243662E-02  0.10202101247E+01  0.10199343440E+01 0.  0.
     999903    2    3    3    0    0  0.12116701303E+00 -0.19574459453E-01  0.30151758855E-01  0.12803500268E+00  0.20475078449E-01 0.  0.
         14    1    1    2    0    0  0.21192286014E-01 -0.81432574973E-02 -0.68707243662E-02  0.23719875263E-01  0.00000000000E+00 0.  1.
     999901    1    3    3    0    0 -0.14235929905E+00  0.27717716950E-01 -0.23281034488E-01  0.89217512206E+00  0.88000000000E+00 0.  1.
        -11    1    4    4    0    0  0.74601235801E-01 -0.33347476431E-02  0.23388978141E-01  0.78254522836E-01  0.51100000000E-03 0.  1.
         11    1    4    4    0    0  0.46565777234E-01 -0.16239711810E-01  0.67627807134E-02  0.49780479839E-01  0.51100000000E-03 0. -1.
</event>
<event>
 8    1  0.1106905E+005  0.1043930E+01  0.7957747E-01            NaN
         13   -1    0    0    0    0  0.00000000000E+00  0.00000000000E+00  0.74505805969E-08  0.10566000000E+00  0.10566000000E+00 0. -1.
     999900   -1    0    0    0    0 -0.00000000000E+00 -0.00000000000E+00 -0.74505805969E-08  0.93827000000E+00  0.93827000000E+00 0. -1.
     999902    2    1    2    0    0 -0.92688550152E-02  0.98201832532E-02  0.15360334288E-01  0.10234779208E+01  0.10232735543E+01 0.  0.
     999903    2    3    3    0    0  0.29094750268E-01 -0.40790430901E-01  0.12330232179E+00  0.13461084802E+00  0.20155746080E-01 0.  0.
         14    1    1    2    0    0  0.92688550152E-02 -0.98201832532E-02 -0.15360334288E-01  0.20452079157E-01  0.00000000000E+00 0.  1.
     999901    1    3    3    0    0 -0.38363605283E-01  0.50610614154E-01 -0.10794198750E+00  0.88886707282E+00  0.88000000000E+00 0. -1.
        -11    1    4    4    0    0  0.49335785291E-02 -0.19596302257E-01  0.32356940336E-01  0.38152168590E-01  0.51100000000E-03 0.  1.
         11    1    4    4    0    0  0.24161171739E-01 -0.21194128645E-01  0.90945381456E-01  0.96458679434E-01  0.51100000000E-03 0. -1.
</event>
<event>
 8    1  0.1106905E+005  0.1043930E+01  0.7957747E-01            NaN
         13   -1    0    0    0    0  0.00000000000E+00  0.00000000000E+00  0.74505805969E-08  0.10566000000E+00  0.10566000000E+00 0.  1.
     999900   -1    0    0    0    0 -0.00000000000E+00 -0.00000000000E+00 -0.74505805969E-08  0.93827000000E+00  0.93827000000E+00 0.  1.
     999902    2    1    2    0    0 -0.84235372946E-02  0.11123694563E-01 -0.18716716015E-01  0.10205845932E+01  0.10203175505E+01 0.  0.
     999903    2    3    3    0    0  0.37426387382E-01  0.10949307751E+00 -0.62310687026E-01  0.13284635169E+00  0.19392342418E-01 0.  0.
         14    1    1    2    0    0  0.84235372946E-02 -0.11123694563E-01  0.18716716015E-01  0.23345406822E-01  0.00000000000E+00 0.  1.
     999901    1    3    3    0    0 -0.45849924677E-01 -0.98369382947E-01  0.43593971010E-01  0.88773824149E+00  0.88000000000E+00 0.  1.
        -11    1    4    4    0    0  0.97716787183E-02  0.10666358551E-01 -0.10521494199E-01  0.17894688343E-01  0.51100000000E-03 0.  1.
         11    1    4    4    0    0  0.27654708664E-01  0.98826718958E-01 -0.51789192827E-01  0.11495166335E+00  0.51100000000E-03 0. -1.
</event>
<event>
 8    1  0.1106905E+005  0.1043930E+01  0.7957747E-01            NaN
         13   -1    0    0    0    0  0.00000000000E+00  0.00000000000E+00  0.74505805969E-08  0.10566000000E+00  0.10566000000E+00 0.  1.
     999900   -1    0    0    0    0 -0.00000000000E+00 -0.00000000000E+00 -0.74505805969E-08  0.93827000000E+00  0.93827000000E+00 0. -1.
     999902    2    1    2    0    0  0.21152636014E-01 -0.30326181355E-02  0.84796819431E-02  0.10209400938E+01  0.10206812133E+01 0.  0.
     999903    2    3    3    0    0 -0.45064935480E-01  0.42090109927E-01 -0.11151255313E+00  0.12918958838E+00  0.21271447477E-01 0.  0.
         14    1    1    2    0    0 -0.21152636014E-01  0.30326181355E-02 -0.84796819431E-02  0.22989906240E-01  0.00000000000E+00 0. -1.
     999901    1    3    3    0    0  0.66217571493E-01 -0.45122728063E-01  0.11999223507E+00  0.89175050538E+00  0.88000000000E+00 0.  1.
        -11    1    4    4    0    0 -0.19497284910E-01  0.19199227821E-01 -0.29264584062E-01  0.40067835842E-01  0.51100000000E-03 0. -1.
         11    1    4    4    0    0 -0.25567650570E-01  0.22890882106E-01 -0.82247969067E-01  0.89121752541E-01  0.51100000000E-03 0.  1.
</event>
<event>
 8    1  0.1106905E+005  0.1043930E+01  0.7957747E-01            NaN
         13   -1    0    0    0    0  0.00000000000E+00  0.00000000000E+00  0.74505805969E-08  0.10566000000E+00  0.10566000000E+00 0. -1.
     999900   -1    0    0    0    0 -0.00000000000E+00 -0.00000000000E+00 -0.74505805969E-08  0.93827000000E+00  0.93827000000E+00 0.  1.
     999902    2    1    2    0    0 -0.39866342670E-02 -0.19021940272E-01  0.13948595436E-01  0.10200074002E+01  0.10197268290E+01 0.  0.
     999903    2    3    3    0    0 -0.89513146218E-01  0.66223044062E-01  0.64969398110E-01  0.13029699011E+00  0.18925856105E-01 0.  0.
         14    1    1    2    0    0  0.39866342670E-02  0.19021940272E-01 -0.13948595436E-01  0.23922599757E-01  0.00000000000E+00 0.  1.
     999901    1    3    3    0    0  0.85526511951E-01 -0.85244984334E-01 -0.51020802674E-01  0.88971041014E+00  0.88000000000E+00 0. -1.
        -11    1    4    4    0    0 -0.45985933390E-01  0.29503784963E-01  0.41889604324E-01  0.68848961273E-01  0.51100000000E-03 0. -1.
         11    1    4    4    0    0 -0.43527212828E-01  0.36719259099E-01  0.23079793786E-01  0.61448028833E-01  0.51100000000E-03 0.  1.
</event>
<event>
 8    1  0.1106905E+005  0.1043930E+01  0.7957747E-01            NaN
         13   -1    0    0    0    0  0.00000000000E+00  0.00000000000E+00  0.74505805969E-08  0.10566000000E+00  0.10566000000E+00 0. -1.
     999900   -1    0    0    0    0 -0.00000000000E+00 -0.00000000000E+00 -0.74505805969E-08  0.93827000000E+00  0.93827000000E+00 0.  1.
     999902    2    1    2    0    0 -0.13177984965E-01 -0.19764568318E-01 -0.13970185423E-01  0.10163716341E+01  0.10159979504E+01 0.  0.
     999903    2    3    3    0    0 -0.54212927843E-02  0.42971728435E-01  0.11535640675E+00  0.12467584708E+00  0.19000168562E-01 0.  0.
         14    1    1    2    0    0  0.13177984965E-01  0.19764568318E-01  0.13970185423E-01  0.27558365868E-01  0.00000000000E+00 0. -1.
     999901    1    3    3    0    0 -0.77566921812E-02 -0.62736296753E-01 -0.12932659218E+00  0.89169578705E+00  0.88000000000E+00 0.  1.
        -11    1    4    4    0    0 -0.71348372572E-02  0.21451718055E-01  0.36683681469E-01  0.43093337273E-01  0.51100000000E-03 0. -1.
         11    1    4    4    0    0  0.17135444730E-02  0.21520010380E-01  0.78672725285E-01  0.81582509806E-01  0.51100000000E-03 0.  1.
</event>
<event>
 8    1  0.1106905E+005  0.1043930E+01  0.7957747E-01            NaN
         13   -1    0    0    0    0  0.00000000000E+00  0.00000000000E+00  0.74505805969E-08  0.10566000000E+00  0.10566000000E+00 0. -1.
     999900   -1    0    0    0    0 -0.00000000000E+00 -0.00000000000E+00 -0.74505805969E-08  0.93827000000E+00  0.93827000000E+00 0. -1.
     999902    2    1    2    0    0 -0.10612867718E-01  0.19018056153E-01 -0.94174937441E-02  0.10202021975E+01  0.10199262303E+01 0.  0.
     999903    2    3    3    0    0  0.19341961851E-01  0.12817757258E+00  0.18804483979E-01  0.13250316529E+00  0.19996964610E-01 0.  0.
         14    1    1    2    0    0  0.10612867718E-01 -0.19018056153E-01  0.94174937441E-02  0.23727802457E-01  0.00000000000E+00 0. -1.
     999901    1    3    3    0    0 -0.29954829569E-01 -0.10915951642E+00 -0.28221977723E-01  0.88769903226E+00  0.88000000000E+00 0. -1.
        -11    1    4    4    0    0  0.10771987887E-01  0.96680001110E-01  0.60966727581E-02  0.97470451303E-01  0.51100000000E-03 0. -1.
         11    1    4    4    0    0  0.85699739640E-02  0.31497571467E-01  0.12707811221E-01  0.35032713984E-01  0.51100000000E-03 0.  1.
</event>
<event>
 8    1  0.1106905E+005  0.1043930E+01  0.7957747E-01            NaN
         13   -1    0    0    0    0  0.00000000000E+00  0.00000000000E+00  0.74505805969E-08  0.10566000000E+00  0.10566000000E+00 0. -1.
     999900   -1    0    0    0    0 -0.00000000000E+00 -0.00000000000E+00 -0.74505805969E-08  0.93827000000E+00  0.93827000000E+00 0.  1.
     999902    2    1    2    0    0 -0.18331255239E-01  0.44818576367E-02 -0.18847441712E-02  0.10249649209E+01  0.10247894490E+01 0.  0.
     999903    2    3    3    0    0  0.86543496105E-01  0.90419125894E-01 -0.42768127890E-01  0.13364265668E+00  0.19127254786E-01 0.  0.
         14    1    1    2    0    0  0.18331255239E-01 -0.44818576367E-02  0.18847441712E-02  0.18965079148E-01  0.00000000000E+00 0. -1.
     999901    1    3    3    0    0 -0.10487475134E+00 -0.85937268257E-01  0.40883383719E-01  0.89132226417E+00  0.88000000000E+00 0.  1.
        -11    1    4    4    0    0  0.46035337099E-01  0.58147185877E-01 -0.18465908458E-01  0.76430349884E-01  0.51100000000E-03 0. -1.
         11    1    4    4    0    0  0.40508159007E-01  0.32271940016E-01 -0.24302219432E-01  0.57212306795E-01  0.51100000000E-03 0.  1.
</event>
<event>
 8    1  0.1106905E+005  0.1043930E+01  0.7957747E-01            NaN
         13   -1    0    0    0    0  0.00000000000E+00  0.00000000000E+00  0.74505805969E-08  0.10566000000E+00  0.10566000000E+00 0. -1.
     999900   -1    0    0    0    0 -0.00000000000E+00 -0.00000000000E+00 -0.74505805969E-08  0.93827000000E+00  0.93827000000E+00 0. -1.
     999902    2    1    2    0    0 -0.34045749577E-02 -0.19487216101E-01  0.12693009681E-01  0.10204256341E+01  0.10201548998E+01 0.  0.
     999903    2    3    3    0    0 -0.86366896837E-01 -0.34322329915E-01  0.93147280741E-01  0.13274567082E+00  0.17542349136E-01 0.  0.
         14    1    1    2    0    0  0.34045749577E-02  0.19487216101E-01 -0.12693009681E-01  0.23504365909E-01  0.00000000000E+00 0.  1.
     999901    1    3    3    0    0  0.82962321879E-01  0.14835113814E-01 -0.80454271060E-01  0.88767996327E+00  0.88000000000E+00 0. -1.
        -11    1    4    4    0    0 -0.41331655885E-01 -0.12930379183E-01  0.54777288850E-01  0.69830602022E-01  0.51100000000E-03 0.  1.
         11    1    4    4    0    0 -0.45035240952E-01 -0.21391950732E-01  0.38369991891E-01  0.62915068802E-01  0.51100000000E-03 0. -1.
</event>
<event>
 8    1  0.1106905E+005  0.1043930E+01  0.7957747E-01            NaN
         13   -1    0    0    0    0  0.00000000000E+00  0.00000000000E+00  0.74505805969E-08  0.10566000000E+00  0.10566000000E+00 0.  1.
     999900   -1    0    0    0    0 -0.00000000000E+00 -0.00000000000E+00 -0.74505805969E-08  0.93827000000E+00  0.93827000000E+00 0.  1.
     999902    2    1    2    0    0 -0.23604311920E-01  0.45192269434E-03  0.38961135679E-02  0.10200020357E+01  0.10197213371E+01 0.  0.
     999903    2    3    3    0    0  0.41198007906E-01 -0.12172114412E+00  0.15550850366E-02  0.12919842134E+00  0.13285368197E-01 0.  0.
         14    1    1    2    0    0  0.23604311920E-01 -0.45192269434E-03 -0.38961135679E-02  0.23927964315E-01  0.00000000000E+00 0.  1.
     999901    1    3    3    0    0 -0.64802319826E-01  0.12217306681E+00  0.23410285313E-02  0.89080361434E+00  0.88000000000E+00 0. -1.
        -11    1    4    4    0    0  0.11883383881E-01 -0.43107617133E-01 -0.52216195785E-02  0.45022304465E-01  0.51100000000E-03 0. -1.
         11    1    4    4    0    0  0.29314624025E-01 -0.78613526983E-01  0.67767046151E-02  0.84176116879E-01  0.51100000000E-03 0.  1.
</event>
<event>
 8    1  0.1106905E+005  0.1043930E+01  0.7957747E-01            NaN
         13   -1    0    0    0    0  0.00000000000E+00  0.00000000000E+00  0.74505805969E-08  0.10566000000E+00  0.10566000000E+00 0. -1.
     999900   -1    0    0    0    0 -0.00000000000E+00 -0.00000000000E+00 -0.74505805969E-08  0.93827000000E+00  0.93827000000E+00 0.  1.
     999902    2    1    2    0    0  0.22413144281E-02 -0.21271919964E-01  0.20687625337E-03  0.10225393276E+01  0.10223155655E+01 0.  0.
     999903    2    3    3    0    0  0.73657349339E-01  0.10025402132E+00  0.35494177797E-01  0.13062341332E+00  0.18065590138E-01 0.  0.
         14    1    1    2    0    0 -0.22413144281E-02  0.21271919964E-01 -0.20687625337E-03  0.21390672432E-01  0.00000000000E+00 0. -1.
     999901    1    3    3    0    0 -0.71416034911E-01 -0.12152594128E+00 -0.35287301543E-01  0.89191591425E+00  0.88000000000E+00 0.  1.
        -11    1    4    4    0    0  0.48418574985E-01  0.73735568964E-01  0.32026399103E-01  0.93846917342E-01  0.51100000000E-03 0.  1.
         11    1    4    4    0    0  0.25238774354E-01  0.26518452352E-01  0.34677786934E-02  0.36776495974E-01  0.51100000000E-03 0. -1.
</event>
<event>
 8    1  0.1106905E+005  0.1043930E+01  0.7957747E-01            NaN
         13   -1    0    0    0    0  0.00000000000E+00  0.00000000000E+00  0.74505805969E-08  0.10566000000E+00  0.10566000000E+00 0. -1.
     999900   -1    0    0    0    0 -0.00000000000E+00 -0.00000000000E+00 -0.74505805969E-08  0.93827000000E+00  0.93827000000E+00 0. -1.
     999902    2    1    2    0    0  0.17062570213E-01  0.13343339625E-01  0.12146500412E-01  0.10190962833E+01  0.10187936597E+01 0.  0.
     999903    2    3    3    0    0  0.44157109997E-02  0.32513431761E-01  0.12587165730E+00  0.13148102495E+00  0.19156306051E-01 0.  0.
         14    1    1    2    0    0 -0.17062570213E-01 -0.13343339625E-01 -0.12146500412E-01  0.24833716735E-01  0.00000000000E+00 0. -1.
     999901    1    3    3    0    0  0.12646859213E-01 -0.19170092136E-01 -0.11372515689E+00  0.88761525831E+00  0.88000000000E+00 0. -1.
        -11    1    4    4    0    0  0.36549996522E-02  0.15441517449E-01  0.93828717663E-01  0.95162434095E-01  0.51100000000E-03 0.  1.
         11    1    4    4    0    0  0.76071134756E-03  0.17071914312E-01  0.32042939641E-01  0.36318590857E-01  0.51100000000E-03 0. -1.
</event>
<event>
 8    1  0.1106905E+005  0.1043930E+01  0.7957747E-01            NaN
         13   -1    0    0    0    0  0.00000000000E+00  0.00000000000E+00  0.74505805969E-08  0.10566000000E+00  0.10566000000E+00 0.  1.
     999900   -1    0    0    0    0 -0.00000000000E+00 -0.00000000000E+00 -0.74505805969E-08  0.93827000000E+00  0.93827000000E+00 0. -1.
     999902    2    1    2    0    0 -0.12430246162E-01  0.12444470087E-02 -0.19701583521E-01  0.10206016468E+01  0.10203349986E+01 0.  0.
     999903    2    3    3    0    0  0.50974186316E-01 -0.10095773306E+00  0.58786773932E-01  0.12895943725E+00  0.19591327969E-01 0.  0.
         14    1    1    2    0    0  0.12430246162E-01 -0.12444470087E-02  0.19701583521E-01  0.23328353162E-01  0.00000000000E+00 0.  1.
     999901    1    3    3    0    0 -0.63404432478E-01  0.10220218006E+00 -0.78488357453E-01  0.89164220959E+00  0.88000000000E+00 0. -1.
        -11    1    4    4    0    0  0.81656071733E-02 -0.69976986147E-02  0.14753692353E-02  0.10866589244E-01  0.51100000000E-03 0. -1.
         11    1    4    4    0    0  0.42808579142E-01 -0.93960034441E-01  0.57311404696E-01  0.11809284800E+00  0.51100000000E-03 0.  1.
</event>
<event>
 8    1  0.1106905E+005  0.1043930E+01  0.7957747E-01            NaN
         13   -1    0    0    0    0  0.00000000000E+00  0.00000000000E+00  0.74505805969E-08  0.10566000000E+00  0.10566000000E+00 0. -1.
     999900   -1    0    0    0    0 -0.00000000000E+00 -0.00000000000E+00 -0.74505805969E-08  0.93827000000E+00  0.93827000000E+00 0.  1.
     999902    2    1    2    0    0  0.30629720292E-02 -0.19303517634E-01 -0.12659516901E-01  0.10206432879E+01  0.10203776018E+01 0.  0.
     999903    2    3    3    0    0  0.57117497882E-01  0.52472411988E-01  0.10087712816E+00  0.12881132752E+00  0.20010010733E-01 0.  0.
         14    1    1    2    0    0 -0.30629720292E-02  0.19303517634E-01  0.12659516901E-01  0.23286712066E-01  0.00000000000E+00 0. -1.
     999901    1    3    3    0    0 -0.54054525853E-01 -0.71775929621E-01 -0.11353664506E+00  0.89183196041E+00  0.88000000000E+00 0.  1.
        -11    1    4    4    0    0  0.37934813223E-01  0.23010862059E-01  0.48580291942E-01  0.65794040104E-01  0.51100000000E-03 0. -1.
         11    1    4    4    0    0  0.19182684659E-01  0.29461549928E-01  0.52296836213E-01  0.63017287420E-01  0.51100000000E-03 0.  1.
</event>
<event>
 8    1  0.1106905E+005  0.1043930E+01  0.7957747E-01            NaN
         13   -1    0    0    0    0  0.00000000000E+00  0.00000000000E+00  0.74505805969E-08  0.10566000000E+00  0.10566000000E+00 0. -1.
     999900   -1    0    0    0    0 -0.00000000000E+00 -0.00000000000E+00 -0.74505805969E-08  0.93827000000E+00  0.93827000000E+00 0. -1.
     999902    2    1    2    0    0  0.16155936154E-01  0.14660807043E-01 -0.11063701787E-01  0.10194686216E+01  0.10191751132E+01 0.  0.
     999903    2    3    3    0    0 -0.10207815808E+00  0.67788993430E-01 -0.37354326730E-01  0.12958486391E+00  0.19534411779E-01 0.  0.
         14    1    1    2    0    0 -0.16155936154E-01 -0.14660807043E-01  0.11063701787E-01  0.24461378403E-01  0.00000000000E+00 0. -1.
     999901    1    3    3    0    0  0.11823409423E+00 -0.53128186387E-01  0.26290624943E-01  0.88988375768E+00  0.88000000000E+00 0.  1.
        -11    1    4    4    0    0 -0.31989674695E-01  0.16730784972E-01 -0.27133756604E-02  0.36206104201E-01  0.51100000000E-03 0. -1.
         11    1    4    4    0    0 -0.70088483382E-01  0.51058208458E-01 -0.34640951069E-01  0.93378759714E-01  0.51100000000E-03 0.  1.
</event>
<event>
 8    1  0.1106905E+005  0.1043930E+01  0.7957747E-01            NaN
         13   -1    0    0    0    0  0.00000000000E+00  0.00000000000E+00  0.74505805969E-08  0.10566000000E+00  0.10566000000E+00 0. -1.
     999900   -1    0    0    0    0 -0.00000000000E+00 -0.00000000000E+00 -0.74505805969E-08  0.93827000000E+00  0.93827000000E+00 0.  1.
     999902    2    1    2    0    0  0.38319885762E-03 -0.98772857973E-02  0.23347079751E-01  0.10185766225E+01  0.10182610383E+01 0.  0.
     999903    2    3    3    0    0 -0.15278108443E-02 -0.42305606784E-01 -0.11767692332E+00  0.12675656366E+00  0.20670500214E-01 0.  0.
         14    1    1    2    0    0 -0.38319885762E-03  0.98772857973E-02 -0.23347079751E-01  0.25353377467E-01  0.00000000000E+00 0.  1.
     999901    1    3    3    0    0  0.19110097019E-02  0.32428320986E-01  0.14102400307E+00  0.89182005887E+00  0.88000000000E+00 0. -1.
        -11    1    4    4    0    0 -0.12352052919E-02 -0.25774704315E-01 -0.42026731974E-01  0.49319047396E-01  0.51100000000E-03 0. -1.
         11    1    4    4    0    0 -0.29260555238E-03 -0.16530902469E-01 -0.75650191343E-01  0.77437516267E-01  0.51100000000E-03 0.  1.
</event>
<event>
 8    1  0.1106905E+005  0.1043930E+01  0.7957747E-01            NaN
         13   -1    0    0    0    0  0.00000000000E+00  0.00000000000E+00  0.74505805969E-08  0.10566000000E+00  0.10566000000E+00 0.  1.
     999900   -1    0    0    0    0 -0.00000000000E+00 -0.00000000000E+00 -0.74505805969E-08  0.93827000000E+00  0.93827000000E+00 0. -1.
     999902    2    1    2    0    0 -0.18316445578E-01 -0.10563521273E-01 -0.10754456293E-01  0.10202078903E+01  0.10199320570E+01 0.  0.
     999903    2    3    3    0    0 -0.33287396220E-01  0.18554997748E-01 -0.12504542473E+00  0.13221327148E+00  0.19790205223E-01 0.  0.
         14    1    1    2    0    0  0.18316445578E-01  0.10563521273E-01  0.10754456293E-01  0.23722109739E-01  0.00000000000E+00 0. -1.
     999901    1    3    3    0    0  0.14970950641E-01 -0.29118519020E-01  0.11429096843E+00  0.88799461878E+00  0.88000000000E+00 0.  1.
        -11    1    4    4    0    0 -0.12739188847E-01  0.16182748469E-01 -0.80541274864E-01  0.83134387339E-01  0.51100000000E-03 0.  1.
         11    1    4    4    0    0 -0.20548207373E-01  0.23722492788E-02 -0.44504149862E-01  0.49078884144E-01  0.51100000000E-03 0. -1.
</event>
<event>
 8    1  0.1106905E+005  0.1043930E+01  0.7957747E-01            NaN
         13   -1    0    0    0    0  0.00000000000E+00  0.00000000000E+00  0.74505805969E-08  0.10566000000E+00  0.10566000000E+00 0. -1.
     999900   -1    0    0    0    0 -0.00000000000E+00 -0.00000000000E+00 -0.74505805969E-08  0.93827000000E+00  0.93827000000E+00 0.  1.
     999902    2    1    2    0    0 -0.22377991958E-01 -0.51860160775E-02 -0.37855213203E-02  0.10206491182E+01  0.10203835666E+01 0.  0.
     999903    2    3    3    0    0  0.63916512362E-01  0.23243807372E-01  0.10796954394E+00  0.12894053857E+00  0.18510670789E-01 0.  0.
         14    1    1    2    0    0  0.22377991958E-01  0.51860160775E-02  0.37855213203E-02  0.23280881824E-01  0.00000000000E+00 0. -1.
     999901    1    3    3    0    0 -0.86294504320E-01 -0.28429823449E-01 -0.11175506526E+00  0.89170857961E+00  0.88000000000E+00 0.  1.
        -11    1    4    4    0    0  0.38043120512E-01  0.13213889767E-01  0.46640055638E-01  0.61623386892E-01  0.51100000000E-03 0. -1.
         11    1    4    4    0    0  0.25873391850E-01  0.10029917605E-01  0.61329488304E-01  0.67317151675E-01  0.51100000000E-03 0.  1.
</event>
<event>
 8    1  0.1106905E+005  0.1043930E+01  0.7957747E-01            NaN
         13   -1    0    0    0    0  0.00000000000E+00  0.00000000000E+00  0.74505805969E-08  0.10566000000E+00  0.10566000000E+00 0. -1.
     999900   -1    0    0    0    0 -0.00000000000E+00 -0.00000000000E+00 -0.74505805969E-08  0.93827000000E+00  0.93827000000E+00 0.  1.
     999902    2    1    2    0    0 -0.51741835076E-02  0.19315203707E-02  0.22590474742E-01  0.10206741944E+01  0.10204092211E+01 0.  0.
     999903    2    3    3    0    0  0.12004089880E+00  0.46479878556E-01  0.27405554336E-02  0.13047343481E+00  0.21109477751E-01 0.  0.
         14    1    1    2    0    0  0.51741835076E-02 -0.19315203707E-02 -0.22590474742E-01  0.23255805618E-01  0.00000000000E+00 0.  1.
     999901    1    3    3    0    0 -0.12521508231E+00 -0.44548358186E-01  0.19849919308E-01  0.89020075958E+00  0.88000000000E+00 0. -1.
        -11    1    4    4    0    0  0.30258451760E-01  0.21820518661E-01 -0.41141293287E-03  0.37311383238E-01  0.51100000000E-03 0.  1.
         11    1    4    4    0    0  0.89782447038E-01  0.24659359896E-01  0.31519683665E-02  0.93162051567E-01  0.51100000000E-03 0. -1.
</event>
<event>
 8    1  0.1106905E+005  0.1043930E+01  0.7957747E-01            NaN
         13   -1    0    0    0    0  0.00000000000E+00  0.00000000000E+00  0.74505805969E-08  0.10566000000E+00  0.10566000000E+00 0.  1.
     999900   -1    0    0    0    0 -0.00000000000E+00 -0.00000000000E+00 -0.74505805969E-08  0.93827000000E+00  0.93827000000E+00 0.  1.
     999902    2    1    2    0    0 -0.12964912783E-01 -0.15240282720E-01  0.13775453848E-01  0.10196376492E+01  0.10193482316E+01 0.  0.
     999903    2    3    3    0    0 -0.12560614338E+00 -0.15187264720E-01  0.30162393107E-01  0.13230649259E+00  0.24242148401E-01 0.  0.
         14    1    1    2    0    0  0.12964912783E-01  0.15240282720E-01 -0.13775453848E-01  0.24292350846E-01  0.00000000000E+00 0. -1.
     999901    1    3    3    0    0  0.11264123059E+00 -0.53018000875E-04 -0.16386939258E-01  0.88733115657E+00  0.88000000000E+00 0.  1.
        -11    1    4    4    0    0 -0.26875531739E-01 -0.13482939167E-01  0.66271878664E-02  0.30793905157E-01  0.51100000000E-03 0. -1.
         11    1    4    4    0    0 -0.98730611636E-01 -0.17043255530E-02  0.23535205240E-01  0.10151258743E+00  0.51100000000E-03 0.  1.
</event>
<event>
 8    1  0.1106905E+005  0.1043930E+01  0.7957747E-01            NaN
         13   -1    0    0    0    0  0.00000000000E+00  0.00000000000E+00  0.74505805969E-08  0.10566000000E+00  0.10566000000E+00 0. -1.
     999900   -1    0    0    0    0 -0.00000000000E+00 -0.00000000000E+00 -0.74505805969E-08  0.93827000000E+00  0.93827000000E+00 0.  1.
     999902    2    1    2    0    0  0.60131146659E-02  0.70297125223E-02  0.21251354589E-01  0.10207525438E+01  0.10204893733E+01 0.  0.
     999903    2    3    3    0    0  0.10289510759E+00 -0.51113763545E-01  0.62503832344E-01  0.13256981972E+00  0.21633493764E-01 0.  0.
         14    1    1    2    0    0 -0.60131146659E-02 -0.70297125223E-02 -0.21251354589E-01  0.23177456245E-01  0.00000000000E+00 0.  1.
     999901    1    3    3    0    0 -0.96881992922E-01  0.58143476067E-01 -0.41252477755E-01  0.88818272404E+00  0.88000000000E+00 0.  1.
        -11    1    4    4    0    0  0.78283194171E-01 -0.41491471005E-01  0.57627188975E-01  0.10569273715E+00  0.51100000000E-03 0.  1.
         11    1    4    4    0    0  0.24611913416E-01 -0.96222925403E-02  0.48766433689E-02  0.26877082567E-01  0.51100000000E-03 0. -1.
</event>
<event>
 8    1  0.1106905E+005  0.1043930E+01  0.7957747E-01            NaN
         13   -1    0    0    0    0  0.00000000000E+00  0.00000000000E+00  0.74505805969E-08  0.10566000000E+00  0.10566000000E+00 0. -1.
     999900   -1    0    0    0    0 -0.00000000000E+00 -0.00000000000E+00 -0.74505805969E-08  0.93827000000E+00  0.93827000000E+00 0.  1.
     999902    2    1    2    0    0  0.19459897010E-01 -0.12395867670E-01  0.60509434183E-02  0.10200771376E+01  0.10197982191E+01 0.  0.
     999903    2    3    3    0    0  0.10664869182E+00 -0.74841995241E-01  0.20917689356E-01  0.13344168553E+00  0.19846057318E-01 0.  0.
         14    1    1    2    0    0 -0.19459897010E-01  0.12395867670E-01 -0.60509434183E-02  0.23852862368E-01  0.00000000000E+00 0.  1.
     999901    1    3    3    0    0 -0.87188794808E-01  0.62446127571E-01 -0.14866745937E-01  0.88663545210E+00  0.88000000000E+00 0. -1.
        -11    1    4    4    0    0  0.80776590190E-01 -0.46562248535E-01  0.11285517565E-01  0.93917647645E-01  0.51100000000E-03 0.  1.
         11    1    4    4    0    0  0.25872101628E-01 -0.28279746706E-01  0.96321717905E-02  0.39524037886E-01  0.51100000000E-03 0. -1.
</event>
<event>
 8    1  0.1106905E+005  0.1043930E+01  0.7957747E-01            NaN
         13   -1    0    0    0    0  0.00000000000E+00  0.00000000000E+00  0.74505805969E-08  0.10566000000E+00  0.10566000000E+00 0. -1.
     999900   -1    0    0    0    0 -0.00000000000E+00 -0.00000000000E+00 -0.74505805969E-08  0.93827000000E+00  0.93827000000E+00 0. -1.
     999902    2    1    2    0    0  0.14137638867E-01 -0.13635299355E-01 -0.13287159644E-01  0.10202162312E+01  0.10199405941E+01 0.  0.
     999903    2    3    3    0    0 -0.36185772289E-01  0.11986286034E+00 -0.21368877110E-01  0.12868972089E+00  0.20685742667E-01 0.  0.
         14    1    1    2    0    0 -0.14137638867E-01  0.13635299355E-01  0.13287159644E-01  0.23713768841E-01  0.00000000000E+00 0. -1.
     999901    1    3    3    0    0  0.50323411157E-01 -0.13349815969E+00  0.80817174666E-02  0.89152651027E+00  0.88000000000E+00 0.  1.
        -11    1    4    4    0    0 -0.18028249492E-01  0.85638345694E-01 -0.20728369377E-01  0.89938147919E-01  0.51100000000E-03 0.  1.
         11    1    4    4    0    0 -0.18157522798E-01  0.34224514644E-01 -0.64050773327E-03  0.38751572973E-01  0.51100000000E-03 0. -1.
</event>
<event>
 8    1  0.1106905E+005  0.1043930E+01  0.7957747E-01            NaN
         13   -1    0    0    0    0  0.00000000000E+00  0.00000000000E+00  0.74505805969E-08  0.10566000000E+00  0.10566000000E+00 0.  1.
     999900   -1    0    0    0    0 -0.00000000000E+00 -0.00000000000E+00 -0.74505805969E-08  0.93827000000E+00  0.93827000000E+00 0. -1.
     999902    2    1    2    0    0 -0.70896500018E-02  0.21254640001E-01 -0.78912237048E-02  0.10201751211E+01  0.10198985163E+01 0.  0.
     999903    2    3    3    0    0 -0.36781263713E-01 -0.11844297131E+00  0.24306162670E-01  0.12808001060E+00  0.20787033442E-01 0.  0.
         14    1    1    2    0    0  0.70896500018E-02 -0.21254640001E-01  0.78912237048E-02  0.23754878873E-01  0.00000000000E+00 0. -1.
     999901    1    3    3    0    0  0.29691613712E-01  0.13969761131E+00 -0.32197386375E-01  0.89209511052E+00  0.88000000000E+00 0. -1.
        -11    1    4    4    0    0 -0.13324409760E-01 -0.64345868581E-01  0.21137983745E-01  0.69029024162E-01  0.51100000000E-03 0. -1.
         11    1    4    4    0    0 -0.23456853953E-01 -0.54097102728E-01  0.31681789254E-02  0.59050986441E-01  0.51100000000E-03 0.  1.
</event>
<event>
 8    1  0.1106905E+005  0.1043930E+01  0.7957747E-01            NaN
         13   -1    0    0    0    0  0.00000000000E+00  0.00000000000E+00  0.74505805969E-08  0.10566000000E+00  0.10566000000E+00 0. -1.
     999900   -1    0    0    0    0 -0.00000000000E+00 -0.00000000000E+00 -0.74505805969E-08  0.93827000000E+00  0.93827000000E+00 0. -1.
     999902    2    1    2    0    0 -0.21957897309E-01 -0.24717866330E-02  0.82757637581E-02  0.10203345079E+01  0.10200616455E+01 0.  0.
     999903    2    3    3    0    0  0.74155454073E-01 -0.74559355198E-01  0.73495805555E-01  0.12977959787E+00  0.19569920122E-01 0.  0.
         14    1    1    2    0    0  0.21957897309E-01  0.24717866330E-02 -0.82757637581E-02  0.23595492137E-01  0.00000000000E+00 0. -1.
     999901    1    3    3    0    0 -0.96113351383E-01  0.72087568565E-01 -0.65220041797E-01  0.89055490999E+00  0.88000000000E+00 0. -1.
        -11    1    4    4    0    0  0.31567294597E-01 -0.43684712584E-01  0.31183836746E-01  0.62269904424E-01  0.51100000000E-03 0. -1.
         11    1    4    4    0    0  0.42588159477E-01 -0.30874642613E-01  0.42311968809E-01  0.67509693449E-01  0.51100000000E-03 0.  1.
</event>
<event>
 8    1  0.1106905E+005  0.1043930E+01  0.7957747E-01            NaN
         13   -1    0    0    0    0  0.00000000000E+00  0.00000000000E+00  0.74505805969E-08  0.10566000000E+00  0.10566000000E+00 0. -1.
     999900   -1    0    0    0    0 -0.00000000000E+00 -0.00000000000E+00 -0.74505805969E-08  0.93827000000E+00  0.93827000000E+00 0.  1.
     999902    2    1    2    0    0  0.18363207079E-01 -0.10553259910E-02  0.15473585591E-01  0.10198935082E+01  0.10196102271E+01 0.  0.
     999903    2    3    3    0    0  0.18666603616E-01 -0.27757331361E-01 -0.12266105186E+00  0.12871773025E+00  0.20090019949E-01 0.  0.
         14    1    1    2    0    0 -0.18363207079E-01  0.10553259910E-02 -0.15473585591E-01  0.24036491804E-01  0.00000000000E+00 0.  1.
     999901    1    3    3    0    0 -0.30339653649E-03  0.26702005370E-01  0.13813463745E+00  0.89117577795E+00  0.88000000000E+00 0. -1.
        -11    1    4    4    0    0 -0.38749059676E-02 -0.69342665223E-02 -0.18771670694E-01  0.20389597595E-01  0.51100000000E-03 0. -1.
         11    1    4    4    0    0  0.22541509584E-01 -0.20823064839E-01 -0.10388938117E+00  0.10832813265E+00  0.51100000000E-03 0.  1.
</event>
<event>
 8    1  0.1106905E+005  0.1043930E+01  0.7957747E-01            NaN
         13   -1    0    0    0    0  0.00000000000E+00  0.00000000000E+00  0.74505805969E-08  0.10566000000E+00  0.10566000000E+00 0.  1.
     999900   -1    0    0    0    0 -0.00000000000E+00 -0.00000000000E+00 -0.74505805969E-08  0.93827000000E+00  0.93827000000E+00 0. -1.
     999902    2    1    2    0    0  0.11342458277E-01  0.20033760828E-02  0.20201627546E-01  0.10206755245E+01  0.10204105819E+01 0.  0.
     999903    2    3    3    0    0 -0.11759841128E+00 -0.50308203082E-01  0.24031747295E-02  0.12956440119E+00  0.20514803754E-01 0.  0.
         14    1    1    2    0    0 -0.11342458277E-01 -0.20033760828E-02 -0.20201627546E-01  0.23254475504E-01  0.00000000000E+00 0. -1.
     999901    1    3    3    0    0  0.12894086956E+00  0.52311579165E-01  0.17798452816E-01  0.89111112331E+00  0.88000000000E+00 0.  1.
        -11    1    4    4    0    0 -0.84600608141E-01 -0.32898816994E-01  0.10514801560E-01  0.91380617366E-01  0.51100000000E-03 0. -1.
         11    1    4    4    0    0 -0.32997803142E-01 -0.17409386089E-01 -0.81116268308E-02  0.38183783823E-01  0.51100000000E-03 0.  1.
</event>
<event>
 8    1  0.1106905E+005  0.1043930E+01  0.7957747E-01            NaN
         13   -1    0    0    0    0  0.00000000000E+00  0.00000000000E+00  0.74505805969E-08  0.10566000000E+00  0.10566000000E+00 0. -1.
     999900   -1    0    0    0    0 -0.00000000000E+00 -0.00000000000E+00 -0.74505805969E-08  0.93827000000E+00  0.93827000000E+00 0. -1.
     999902    2    1    2    0    0  0.35454970895E-02  0.10989097983E-01  0.20364528520E-01  0.10205196423E+01  0.10202510944E+01 0.  0.
     999903    2    3    3    0    0 -0.12493514492E+00  0.28421191500E-01  0.18096298114E-01  0.13101624261E+00  0.20523773027E-01 0.  0.
         14    1    1    2    0    0 -0.35454970895E-02 -0.10989097983E-01 -0.20364528520E-01  0.23410357664E-01  0.00000000000E+00 0.  1.
     999901    1    3    3    0    0  0.12848064201E+00 -0.17432093517E-01  0.22682304064E-02  0.88950339973E+00  0.88000000000E+00 0. -1.
        -11    1    4    4    0    0 -0.51475005870E-02 -0.28753060941E-02  0.21547538022E-03  0.59221362756E-02  0.51100000000E-03 0. -1.
         11    1    4    4    0    0 -0.11978764433E+00  0.31296497594E-01  0.17880822734E-01  0.12509410633E+00  0.51100000000E-03 0.  1.
</event>
<event>
 8    1  0.1106905E+005  0.1043930E+01  0.7957747E-01            NaN
         13   -1    0    0    0    0  0.00000000000E+00  0.00000000000E+00  0.74505805969E-08  0.10566000000E+00  0.10566000000E+00 0.  1.
     999900   -1    0    0    0    0 -0.00000000000E+00 -0.00000000000E+00 -0.74505805969E-08  0.93827000000E+00  0.93827000000E+00 0. -1.
     999902    2    1    2    0    0  0.29635677594E-02  0.77884625427E-02 -0.21754923583E-01  0.10206336573E+01  0.10203677488E+01 0.  0.
     999903    2    3    3    0    0 -0.36168956650E-01  0.35276132247E-01  0.11647966150E+00  0.12855982238E+00  0.20187061591E-01 0.  0.
         14    1    1    2    0    0 -0.29635677594E-02 -0.77884625427E-02  0.21754923583E-01  0.23296342690E-01  0.00000000000E+00 0.  1.
     999901    1    3    3    0    0  0.39132524410E-01 -0.27487669704E-01 -0.13823458508E+00  0.89207383493E+00  0.88000000000E+00 0. -1.
        -11    1    4    4    0    0 -0.20592724784E-01  0.29341021172E-01  0.93733726335E-01  0.10035551012E+00  0.51100000000E-03 0. -1.
         11    1    4    4    0    0 -0.15576231866E-01  0.59351110749E-02  0.22745935166E-01  0.28204312263E-01  0.51100000000E-03 0.  1.
</event>
<event>
 8    1  0.1106905E+005  0.1043930E+01  0.7957747E-01            NaN
         13   -1    0    0    0    0  0.00000000000E+00  0.00000000000E+00  0.74505805969E-08  0.10566000000E+00  0.10566000000E+00 0.  1.
     999900   -1    0    0    0    0 -0.00000000000E+00 -0.00000000000E+00 -0.74505805969E-08  0.93827000000E+00  0.93827000000E+00 0.  1.
     999902    2    1    2    0    0  0.17605919415E-01 -0.13268217098E-01  0.79154628972E-02  0.10205063253E+01  0.10202374682E+01 0.  0.
     999903    2    3    3    0    0 -0.74500345997E-01  0.22936458682E-01  0.10221760920E+00  0.12995187022E+00  0.19043798272E-01 0.  0.
         14    1    1    2    0    0 -0.17605919415E-01  0.13268217098E-01 -0.79154628972E-02  0.23423674697E-01  0.00000000000E+00 0.  1.
     999901    1    3    3    0    0  0.92106265412E-01 -0.36204675780E-01 -0.94302146300E-01  0.89055445509E+00  0.88000000000E+00 0.  1.
        -11    1    4    4    0    0 -0.42114223141E-01  0.21363542260E-01  0.52736809221E-01  0.70791531248E-01  0.51100000000E-03 0.  1.
         11    1    4    4    0    0 -0.32386122856E-01  0.15729164217E-02  0.49480799976E-01  0.59160338969E-01  0.51100000000E-03 0. -1.
</event>
<event>
 8    1  0.1106905E+005  0.1043930E+01  0.7957747E-01            NaN
         13   -1    0    0    0    0  0.00000000000E+00  0.00000000000E+00  0.74505805969E-08  0.10566000000E+00  0.10566000000E+00 0. -1.
     999900   -1    0    0    0    0 -0.00000000000E+00 -0.00000000000E+00 -0.74505805969E-08  0.93827000000E+00  0.93827000000E+00 0.  1.
     999902    2    1    2    0    0 -0.14128431505E-02  0.63653353900E-02 -0.22607535024E-01  0.10204009911E+01  0.10201296821E+01 0.  0.
     999903    2    3    3    0    0  0.19320703746E-01 -0.84580962969E-01  0.91985810077E-01  0.12808224541E+00  0.20406945970E-01 0.  0.
         14    1    1    2    0    0  0.14128431505E-02 -0.63653353900E-02  0.22607535024E-01  0.23529008909E-01  0.00000000000E+00 0. -1.
     999901    1    3    3    0    0 -0.20733546896E-01  0.90946298359E-01 -0.11459334510E+00  0.89231874568E+00  0.88000000000E+00 0. -1.
        -11    1    4    4    0    0  0.42368909063E-02 -0.60490576575E-01  0.60437673283E-01  0.85615621073E-01  0.51100000000E-03 0. -1.
         11    1    4    4    0    0  0.15083812840E-01 -0.24090386394E-01  0.31548136794E-01  0.42466624337E-01  0.51100000000E-03 0.  1.
</event>
<event>
 8    1  0.1106905E+005  0.1043930E+01  0.7957747E-01            NaN
         13   -1    0    0    0    0  0.00000000000E+00  0.00000000000E+00  0.74505805969E-08  0.10566000000E+00  0.10566000000E+00 0. -1.
     999900   -1    0    0    0    0 -0.00000000000E+00 -0.00000000000E+00 -0.74505805969E-08  0.93827000000E+00  0.93827000000E+00 0.  1.
     999902    2    1    2    0    0 -0.16669073129E-01  0.14984749242E-01 -0.58346972546E-02  0.10207687306E+01  0.10205059318E+01 0.  0.
     999903    2    3    3    0    0  0.55227378749E-01 -0.97866595236E-01 -0.60081125144E-01  0.12900239309E+00  0.20098308363E-01 0.  0.
         14    1    1    2    0    0  0.16669073129E-01 -0.14984749242E-01  0.58346972546E-02  0.23161269414E-01  0.00000000000E+00 0. -1.
     999901    1    3    3    0    0 -0.71896451878E-01  0.11285134448E+00  0.54246427889E-01  0.89176633749E+00  0.88000000000E+00 0.  1.
        -11    1    4    4    0    0  0.42542689853E-02 -0.24176974520E-01 -0.13095731110E-01  0.27827759447E-01  0.51100000000E-03 0.  1.
         11    1    4    4    0    0  0.50973109763E-01 -0.73689620717E-01 -0.46985394034E-01  0.10117463365E+00  0.51100000000E-03 0. -1.
</event>
<event>
 8    1  0.1106905E+005  0.1043930E+01  0.7957747E-01            NaN
         13   -1    0    0    0    0  0.00000000000E+00  0.00000000000E+00  0.74505805969E-08  0.10566000000E+00  0.10566000000E+00 0. -1.
     999900   -1    0    0    0    0 -0.00000000000E+00 -0.00000000000E+00 -0.74505805969E-08  0.93827000000E+00  0.93827000000E+00 0.  1.
     999902    2    1    2    0    0 -0.11093383541E-01  0.32639614332E-02 -0.20337609221E-01  0.10205348092E+01  0.10202666131E+01 0.  0.
     999903    2    3    3    0    0 -0.27809781316E-01 -0.12241807044E+00 -0.33139830176E-01  0.13135580140E+00  0.19913068825E-01 0.  0.
         14    1    1    2    0    0  0.11093383541E-01 -0.32639614332E-02  0.20337609221E-01  0.23395190776E-01  0.00000000000E+00 0. -1.
     999901    1    3    3    0    0  0.16716397775E-01  0.12568203188E+00  0.12802220956E-01  0.88917900782E+00  0.88000000000E+00 0.  1.
        -11    1    4    4    0    0 -0.28883037413E-02 -0.45775433520E-01 -0.57187508430E-02  0.46224429089E-01  0.51100000000E-03 0. -1.
         11    1    4    4    0    0 -0.24921477575E-01 -0.76642636923E-01 -0.27421079333E-01  0.85131372312E-01  0.51100000000E-03 0.  1.
</event>
<event>
 8    1  0.1106905E+005  0.1043930E+01  0.7957747E-01            NaN
         13   -1    0    0    0    0  0.00000000000E+00  0.00000000000E+00  0.74505805969E-08  0.10566000000E+00  0.10566000000E+00 0. -1.
     999900   -1    0    0    0    0 -0.00000000000E+00 -0.00000000000E+00 -0.74505805969E-08  0.93827000000E+00  0.93827000000E+00 0.  1.
     999902    2    1    2    0    0 -0.12464466300E-01 -0.18062324096E-01 -0.59288834427E-02  0.10211975973E+01  0.10209445483E+01 0.  0.
     999903    2    3    3    0    0 -0.57985086060E-01 -0.46240659588E-01  0.10769205405E+00  0.13227923053E+00  0.19993686974E-01 0.  0.
         14    1    1    2    0    0  0.12464466300E-01  0.18062324096E-01  0.59288834427E-02  0.22732402661E-01  0.00000000000E+00 0. -1.
     999901    1    3    3    0    0  0.45520619760E-01  0.28178335493E-01 -0.11362093750E+00  0.88891836681E+00  0.88000000000E+00 0.  1.
        -11    1    4    4    0    0 -0.35725828281E-01 -0.16016741456E-01  0.58641412819E-01  0.70512036076E-01  0.51100000000E-03 0. -1.
         11    1    4    4    0    0 -0.22259257779E-01 -0.30223918133E-01  0.49050641234E-01  0.61767194453E-01  0.51100000000E-03 0.  1.
</event>
<event>
 8    1  0.1106905E+005  0.1043930E+01  0.7957747E-01            NaN
         13   -1    0    0    0    0  0.00000000000E+00  0.00000000000E+00  0.74505805969E-08  0.10566000000E+00  0.10566000000E+00 0.  1.
     999900   -1    0    0    0    0 -0.00000000000E+00 -0.00000000000E+00 -0.74505805969E-08  0.93827000000E+00  0.93827000000E+00 0. -1.
     999902    2    1    2    0    0  0.10928145265E-01  0.18432577740E-01 -0.46384898106E-02  0.10220051313E+01  0.10217699293E+01 0.  0.
     999903    2    3    3    0    0  0.34522647884E-01 -0.48943091106E-01  0.11482076726E+00  0.13106927757E+00  0.20201671861E-01 0.  0.
         14    1    1    2    0    0 -0.10928145265E-01 -0.18432577740E-01  0.46384898106E-02  0.21924868729E-01  0.00000000000E+00 0.  1.
     999901    1    3    3    0    0 -0.23594502619E-01  0.67375668847E-01 -0.11945925707E+00  0.89093585370E+00  0.88000000000E+00 0. -1.
        -11    1    4    4    0    0  0.27848523643E-01 -0.26500082641E-01  0.57713746386E-01  0.69346465605E-01  0.51100000000E-03 0. -1.
         11    1    4    4    0    0  0.66741242408E-02 -0.22443008466E-01  0.57107020871E-01  0.61722811967E-01  0.51100000000E-03 0.  1.
</event>
<event>
 8    1  0.1106905E+005  0.1043930E+01  0.7957747E-01            NaN
         13   -1    0    0    0    0  0.00000000000E+00  0.00000000000E+00  0.74505805969E-08  0.10566000000E+00  0.10566000000E+00 0.  1.
     999900   -1    0    0    0    0 -0.00000000000E+00 -0.00000000000E+00 -0.74505805969E-08  0.93827000000E+00  0.93827000000E+00 0.  1.
     999902    2    1    2    0    0  0.80191515511E-02  0.16398694114E-01  0.14139922174E-01  0.10208397129E+01  0.10205785408E+01 0.  0.
     999903    2    3    3    0    0  0.64290136972E-01 -0.86511947942E-01 -0.67025504185E-01  0.12935508010E+00  0.24955554237E-01 0.  0.
         14    1    1    2    0    0 -0.80191515511E-02 -0.16398694114E-01 -0.14139922174E-01  0.23090287121E-01  0.00000000000E+00 0. -1.
     999901    1    3    3    0    0 -0.56270985421E-01  0.10291064206E+00  0.81165426360E-01  0.89148463278E+00  0.88000000000E+00 0. -1.
        -11    1    4    4    0    0  0.12137730794E-01 -0.35644774893E-01 -0.19955320545E-01  0.42618662873E-01  0.51100000000E-03 0. -1.
         11    1    4    4    0    0  0.52152406178E-01 -0.50867173049E-01 -0.47070183641E-01  0.86736417225E-01  0.51100000000E-03 0.  1.
</event>
<event>
 8    1  0.1106905E+005  0.1043930E+01  0.7957747E-01            NaN
         13   -1    0    0    0    0  0.00000000000E+00  0.00000000000E+00  0.74505805969E-08  0.10566000000E+00  0.10566000000E+00 0. -1.
     999900   -1    0    0    0    0 -0.00000000000E+00 -0.00000000000E+00 -0.74505805969E-08  0.93827000000E+00  0.93827000000E+00 0.  1.
     999902    2    1    2    0    0  0.52125975096E-02  0.14863251855E-01  0.17666558732E-01  0.10202615669E+01  0.10199869951E+01 0.  0.
     999903    2    3    3    0    0  0.10664930607E-01  0.11822477712E+00  0.56945684015E-01  0.13332516414E+00  0.21022602013E-01 0.  0.
         14    1    1    2    0    0 -0.52125975096E-02 -0.14863251855E-01 -0.17666558732E-01  0.23668433112E-01  0.00000000000E+00 0.  1.
     999901    1    3    3    0    0 -0.54523330975E-02 -0.10336152526E+00 -0.39279125283E-01  0.88693640275E+00  0.88000000000E+00 0.  1.
        -11    1    4    4    0    0 -0.39644605169E-02  0.66891126316E-01  0.35115912600E-01  0.75654002972E-01  0.51100000000E-03 0. -1.
         11    1    4    4    0    0  0.14629391124E-01  0.51333650801E-01  0.21829771416E-01  0.57671161166E-01  0.51100000000E-03 0.  1.
</event>
<event>
 8    1  0.1106905E+005  0.1043930E+01  0.7957747E-01            NaN
         13   -1    0    0    0    0  0.00000000000E+00  0.00000000000E+00  0.74505805969E-08  0.10566000000E+00  0.10566000000E+00 0. -1.
     999900   -1    0    0    0    0 -0.00000000000E+00 -0.00000000000E+00 -0.74505805969E-08  0.93827000000E+00  0.93827000000E+00 0.  1.
     999902    2    1    2    0    0  0.12826439694E-01  0.16011887043E-01  0.12666742261E-01  0.10198189146E+01  0.10195338513E+01 0.  0.
     999903    2    3    3    0    0  0.68142149178E-01  0.73164150350E-01 -0.82887972960E-01  0.13107996946E+00  0.17753786700E-01 0.  0.
         14    1    1    2    0    0 -0.12826439694E-01 -0.16011887043E-01 -0.12666742261E-01  0.24111085447E-01  0.00000000000E+00 0.  1.
     999901    1    3    3    0    0 -0.55315709484E-01 -0.57152263307E-01  0.95554715222E-01  0.88873894509E+00  0.88000000000E+00 0. -1.
        -11    1    4    4    0    0  0.38207753527E-01  0.28125245331E-01 -0.39969170662E-01  0.62037549750E-01  0.51100000000E-03 0.  1.
         11    1    4    4    0    0  0.29934395651E-01  0.45038905019E-01 -0.42918802298E-01  0.69042419715E-01  0.51100000000E-03 0. -1.
</event>
<event>
 8    1  0.1106905E+005  0.1043930E+01  0.7957747E-01            NaN
         13   -1    0    0    0    0  0.00000000000E+00  0.00000000000E+00  0.74505805969E-08  0.10566000000E+00  0.10566000000E+00 0. -1.
     999900   -1    0    0    0    0 -0.00000000000E+00 -0.00000000000E+00 -0.74505805969E-08  0.93827000000E+00  0.93827000000E+00 0.  1.
     999902    2    1    2    0    0 -0.83626918338E-02 -0.20968442028E-01 -0.74829700182E-02  0.10201475481E+01  0.10198702932E+01 0.  0.
     999903    2    3    3    0    0  0.87514305498E-01  0.79677700343E-01 -0.45448737261E-01  0.12842817297E+00  0.20516293382E-01 0.  0.
         14    1    1    2    0    0  0.83626918338E-02  0.20968442028E-01  0.74829700182E-02  0.23782451851E-01  0.00000000000E+00 0. -1.
     999901    1    3    3    0    0 -0.95876997332E-01 -0.10064614237E+00  0.37965767243E-01  0.89171937518E+00  0.88000000000E+00 0. -1.
        -11    1    4    4    0    0  0.54911104079E-01  0.47343495830E-01 -0.38156770292E-01  0.81931899702E-01  0.51100000000E-03 0. -1.
         11    1    4    4    0    0  0.32603201419E-01  0.32334204514E-01 -0.72919669694E-02  0.46496273266E-01  0.51100000000E-03 0.  1.
</event>
<event>
 8    1  0.1106905E+005  0.1043930E+01  0.7957747E-01            NaN
         13   -1    0    0    0    0  0.00000000000E+00  0.00000000000E+00  0.74505805969E-08  0.10566000000E+00  0.10566000000E+00 0.  1.
     999900   -1    0    0    0    0 -0.00000000000E+00 -0.00000000000E+00 -0.74505805969E-08  0.93827000000E+00  0.93827000000E+00 0.  1.
     999902    2    1    2    0    0  0.48653634294E-02 -0.10361803046E-01  0.19482327310E-01  0.10213335445E+01  0.10210835467E+01 0.  0.
     999903    2    3    3    0    0 -0.10595846796E+00  0.33016845087E-01 -0.63604149171E-01  0.12944398223E+00  0.19822909734E-01 0.  0.
         14    1    1    2    0    0 -0.48653634294E-02  0.10361803046E-01 -0.19482327310E-01  0.22596455498E-01  0.00000000000E+00 0. -1.
     999901    1    3    3    0    0  0.11082383139E+00 -0.43378648133E-01  0.83086476482E-01  0.89188956227E+00  0.88000000000E+00 0.  1.
        -11    1    4    4    0    0 -0.23079101898E-01  0.14517994934E-01 -0.21101543403E-01  0.34481203232E-01  0.51100000000E-03 0. -1.
         11    1    4    4    0    0 -0.82879366067E-01  0.18498850153E-01 -0.42502605769E-01  0.94962778996E-01  0.51100000000E-03 0.  1.
</event>
<event>
 8    1  0.1106905E+005  0.1043930E+01  0.7957747E-01            NaN
         13   -1    0    0    0    0  0.00000000000E+00  0.00000000000E+00  0.74505805969E-08  0.10566000000E+00  0.10566000000E+00 0.  1.
     999900   -1    0    0    0    0 -0.00000000000E+00 -0.00000000000E+00 -0.74505805969E-08  0.93827000000E+00  0.93827000000E+00 0. -1.
     999902    2    1    2    0    0  0.18867854289E-01 -0.13814914730E-01 -0.30513107116E-02  0.10203469915E+01  0.10200744212E+01 0.  0.
     999903    2    3    3    0    0  0.32878722034E-01  0.80157513548E-01  0.96310429664E-01  0.12967315827E+00  0.57612301192E-02 0.  0.
         14    1    1    2    0    0 -0.18867854289E-01  0.13814914730E-01  0.30513107116E-02  0.23583008534E-01  0.00000000000E+00 0. -1.
     999901    1    3    3    0    0 -0.14010867745E-01 -0.93972428278E-01 -0.99361740376E-01  0.89067383320E+00  0.88000000000E+00 0. -1.
        -11    1    4    4    0    0  0.27165282303E-01  0.60045839123E-01  0.73916222508E-01  0.99031936411E-01  0.51100000000E-03 0.  1.
         11    1    4    4    0    0  0.57134397310E-02  0.20111674425E-01  0.22394207156E-01  0.30641221857E-01  0.51100000000E-03 0. -1.
</event>
<event>
 8    1  0.1106905E+005  0.1043930E+01  0.7957747E-01            NaN
         13   -1    0    0    0    0  0.00000000000E+00  0.00000000000E+00  0.74505805969E-08  0.10566000000E+00  0.10566000000E+00 0.  1.
     999900   -1    0    0    0    0 -0.00000000000E+00 -0.00000000000E+00 -0.74505805969E-08  0.93827000000E+00  0.93827000000E+00 0. -1.
     999902    2    1    2    0    0 -0.19687431820E-01 -0.75859177087E-02 -0.89896859348E-02  0.10209962787E+01  0.10207386764E+01 0.  0.
     999903    2    3    3    0    0  0.11654717756E+00 -0.14810981293E-01  0.49690402933E-01  0.12855276612E+00  0.15939503374E-01 0.  0.
         14    1    1    2    0    0  0.19687431820E-01  0.75859177087E-02  0.89896859348E-02  0.22933721293E-01  0.00000000000E+00 0.  1.
     999901    1    3    3    0    0 -0.13623460938E+00  0.72250635842E-02 -0.58680088867E-01  0.89244351259E+00  0.88000000000E+00 0. -1.
        -11    1    4    4    0    0  0.27296948807E-01 -0.33909712035E-02  0.45497046462E-02  0.27885175869E-01  0.51100000000E-03 0.  1.
         11    1    4    4    0    0  0.89250228755E-01 -0.11420010089E-01  0.45140698286E-01  0.10066759025E+00  0.51100000000E-03 0. -1.
</event>
<event>
 8    1  0.1106905E+005  0.1043930E+01  0.7957747E-01            NaN
         13   -1    0    0    0    0  0.00000000000E+00  0.00000000000E+00  0.74505805969E-08  0.10566000000E+00  0.10566000000E+00 0. -1.
     999900   -1    0    0    0    0 -0.00000000000E+00 -0.00000000000E+00 -0.74505805969E-08  0.93827000000E+00  0.93827000000E+00 0. -1.
     999902    2    1    2    0    0  0.11052359791E-01  0.20847093608E-01  0.39434556986E-02  0.10200070652E+01  0.10197264860E+01 0.  0.
     999903    2    3    3    0    0  0.67668232604E-01 -0.72332048669E-01  0.82025508246E-01  0.12984723875E+00  0.17922233117E-01 0.  0.
         14    1    1    2    0    0 -0.11052359791E-01 -0.20847093608E-01 -0.39434556986E-02  0.23922934847E-01  0.00000000000E+00 0.  1.
     999901    1    3    3    0    0 -0.56615872813E-01  0.93179142277E-01 -0.78082052547E-01  0.89015982640E+00  0.88000000000E+00 0. -1.
        -11    1    4    4    0    0  0.34746952378E-01 -0.29142122835E-01  0.46478307324E-01  0.64939265438E-01  0.51100000000E-03 0.  1.
         11    1    4    4    0    0  0.32921280226E-01 -0.43189925834E-01  0.35547200922E-01  0.64907973313E-01  0.51100000000E-03 0. -1.
</event>
<event>
 8    1  0.1106905E+005  0.1043930E+01  0.7957747E-01            NaN
         13   -1    0    0    0    0  0.00000000000E+00  0.00000000000E+00  0.74505805969E-08  0.10566000000E+00  0.10566000000E+00 0. -1.
     999900   -1    0    0    0    0 -0.00000000000E+00 -0.00000000000E+00 -0.74505805969E-08  0.93827000000E+00  0.93827000000E+00 0. -1.
     999902    2    1    2    0    0 -0.14283761717E-01  0.31484471122E-02 -0.17815325282E-01  0.10208795253E+01  0.10206192634E+01 0.  0.
     999903    2    3    3    0    0 -0.60607007808E-01 -0.53040373987E-01 -0.10479370723E+00  0.13359813497E+00  0.19499998015E-01 0.  0.
         14    1    1    2    0    0  0.14283761717E-01 -0.31484471122E-02  0.17815325282E-01  0.23050474678E-01  0.00000000000E+00 0. -1.
     999901    1    3    3    0    0  0.46323246092E-01  0.56188821099E-01  0.86978381952E-01  0.88728139036E+00  0.88000000000E+00 0.  1.
        -11    1    4    4    0    0 -0.44059354079E-01 -0.29477405456E-01 -0.77675057120E-01  0.94041585131E-01  0.51100000000E-03 0.  1.
         11    1    4    4    0    0 -0.16547653729E-01 -0.23562968530E-01 -0.27118650113E-01  0.39556549835E-01  0.51100000000E-03 0. -1.
</event>
<event>
 8    1  0.1106905E+005  0.1043930E+01  0.7957747E-01            NaN
         13   -1    0    0    0    0  0.00000000000E+00  0.00000000000E+00  0.74505805969E-08  0.10566000000E+00  0.10566000000E+00 0. -1.
     999900   -1    0    0    0    0 -0.00000000000E+00 -0.00000000000E+00 -0.74505805969E-08  0.93827000000E+00  0.93827000000E+00 0. -1.
     999902    2    1    2    0    0 -0.16902201985E-01 -0.33077030249E-03 -0.17045896454E-01  0.10199225756E+01  0.10196399873E+01 0.  0.
     999903    2    3    3    0    0 -0.93400840598E-01 -0.67652445225E-01  0.58456357588E-01  0.13083043189E+00  0.19972125484E-01 0.  0.
         14    1    1    2    0    0  0.16902201985E-01  0.33077030249E-03  0.17045896454E-01  0.24007424411E-01  0.00000000000E+00 0. -1.
     999901    1    3    3    0    0  0.76498638613E-01  0.67321674923E-01 -0.75502254042E-01  0.88909214370E+00  0.88000000000E+00 0. -1.
        -11    1    4    4    0    0 -0.40943514579E-01 -0.22724505376E-01  0.32692753470E-01  0.57112623658E-01  0.51100000000E-03 0.  1.
         11    1    4    4    0    0 -0.52457326019E-01 -0.44927939849E-01  0.25763604118E-01  0.73717808231E-01  0.51100000000E-03 0. -1.
</event>
<event>
 8    1  0.1106905E+005  0.1043930E+01  0.7957747E-01            NaN
         13   -1    0    0    0    0  0.00000000000E+00  0.00000000000E+00  0.74505805969E-08  0.10566000000E+00  0.10566000000E+00 0.  1.
     999900   -1    0    0    0    0 -0.00000000000E+00 -0.00000000000E+00 -0.74505805969E-08  0.93827000000E+00  0.93827000000E+00 0.  1.
     999902    2    1    2    0    0 -0.27105907131E-01 -0.73856994128E-02 -0.79942319012E-02  0.10147206436E+01  0.10143001519E+01 0.  0.
     999903    2    3    3    0    0  0.60623096592E-01  0.26450255164E-01  0.10157202484E+00  0.12295497117E+00  0.20646376631E-01 0.  0.
         14    1    1    2    0    0  0.27105907131E-01  0.73856994128E-02  0.79942319012E-02  0.29209356393E-01  0.00000000000E+00 0. -1.
     999901    1    3    3    0    0 -0.87729003723E-01 -0.33835954576E-01 -0.10956625674E+00  0.89176567243E+00  0.88000000000E+00 0.  1.
        -11    1    4    4    0    0  0.13760308190E-01  0.14136164747E-01  0.39993061612E-01  0.44596898248E-01  0.51100000000E-03 0.  1.
         11    1    4    4    0    0  0.46862788402E-01  0.12314090417E-01  0.61578963224E-01  0.78358072924E-01  0.51100000000E-03 0. -1.
</event>
<event>
 7    1  0.1106905E+005  0.1043930E+01  0.7957747E-01            NaN
         13   -1    0    0    0    0  0.00000000000E+00  0.00000000000E+00  0.74505805969E-08  0.10566000000E+00  0.10566000000E+00 0. -1.
     999900   -1    0    0    0    0 -0.00000000000E+00 -0.00000000000E+00 -0.74505805969E-08  0.93827000000E+00  0.93827000000E+00 0. -1.
     999903    2    1    2    0    0  0.32821571625E-01 -0.18941989794E-01 -0.23959701129E-02  0.43769611181E-01  0.21771165538E-01 0.  0.
         14    1    1    2    0    0 -0.18021746229E-01  0.10025855644E+00  0.53022363297E-01  0.11483872381E+00  0.00000000000E+00 0.  1.
     999901    1    1    2    0    0 -0.14799825396E-01 -0.81316566650E-01 -0.50626393184E-01  0.88532166501E+00  0.88000000000E+00 0. -1.
        -11    1    3    3    0    0  0.19660717168E-01 -0.19812479569E-01 -0.85631080610E-02  0.29200446690E-01  0.51100000000E-03 0. -1.
         11    1    3    3    0    0  0.13160854457E-01  0.87048977542E-03  0.61671379481E-02  0.14569164491E-01  0.51100000000E-03 0.  1.
</event>
<event>
 8    1  0.1106905E+005  0.1043930E+01  0.7957747E-01            NaN
         13   -1    0    0    0    0  0.00000000000E+00  0.00000000000E+00  0.74505805969E-08  0.10566000000E+00  0.10566000000E+00 0.  1.
     999900   -1    0    0    0    0 -0.00000000000E+00 -0.00000000000E+00 -0.74505805969E-08  0.93827000000E+00  0.93827000000E+00 0. -1.
     999902    2    1    2    0    0  0.15972769574E-01 -0.53327333163E-02 -0.11445743295E-01  0.10235689477E+01  0.10233664144E+01 0.  0.
     999903    2    3    3    0    0 -0.94073460903E-01 -0.17227899582E-01  0.87436121145E-01  0.13114007603E+00  0.20150128769E-01 0.  0.
         14    1    1    2    0    0 -0.15972769574E-01  0.53327333163E-02  0.11445743295E-01  0.20361052332E-01  0.00000000000E+00 0.  1.
     999901    1    3    3    0    0  0.11004623048E+00  0.11895166265E-01 -0.98881864440E-01  0.89242887164E+00  0.88000000000E+00 0.  1.
        -11    1    4    4    0    0 -0.30279475556E-01  0.20374863160E-02  0.20112137282E-01  0.36410948593E-01  0.51100000000E-03 0.  1.
         11    1    4    4    0    0 -0.63793985348E-01 -0.19265385898E-01  0.67323983863E-01  0.94729127434E-01  0.51100000000E-03 0. -1.
</event>
<event>
 8    1  0.1106905E+005  0.1043930E+01  0.7957747E-01            NaN
         13   -1    0    0    0    0  0.00000000000E+00  0.00000000000E+00  0.74505805969E-08  0.10566000000E+00  0.10566000000E+00 0.  1.
     999900   -1    0    0    0    0 -0.00000000000E+00 -0.00000000000E+00 -0.74505805969E-08  0.93827000000E+00  0.93827000000E+00 0.  1.
     999902    2    1    2    0    0 -0.85491114122E-02  0.12506791291E-01 -0.18975405123E-01  0.10196488729E+01  0.10193597259E+01 0.  0.
     999903    2    3    3    0    0 -0.69531180052E-01 -0.34029107680E-01  0.10031597569E+00  0.12829325579E+00  0.20082313936E-01 0.  0.
         14    1    1    2    0    0  0.85491114122E-02 -0.12506791291E-01  0.18975405123E-01  0.24281127114E-01  0.00000000000E+00 0.  1.
     999901    1    3    3    0    0  0.60982068640E-01  0.46535898971E-01 -0.11929138082E+00  0.89135561709E+00  0.88000000000E+00 0.  1.
        -11    1    4    4    0    0 -0.24588481658E-01 -0.18208441734E-02  0.29673180488E-01  0.38583256278E-01  0.51100000000E-03 0. -1.
         11    1    4    4    0    0 -0.44942698394E-01 -0.32208263506E-01  0.70642795207E-01  0.89709999513E-01  0.51100000000E-03 0.  1.
</event>
<event>
 8    1  0.1106905E+005  0.1043930E+01  0.7957747E-01            NaN
         13   -1    0    0    0    0  0.00000000000E+00  0.00000000000E+00  0.74505805969E-08  0.10566000000E+00  0.10566000000E+00 0. -1.
     999900   -1    0    0    0    0 -0.00000000000E+00 -0.00000000000E+00 -0.74505805969E-08  0.93827000000E+00  0.93827000000E+00 0.  1.
     999902    2    1    2    0    0  0.15132590767E-01 -0.49030023023E-02 -0.17327621722E-01  0.10204080696E+01  0.10201369258E+01 0.  0.
     999903    2    3    3    0    0  0.12366842141E+00 -0.17272559695E-01  0.37564687754E-01  0.13195649629E+00  0.20228479290E-01 0.  0.
         14    1    1    2    0    0 -0.15132590767E-01  0.49030023023E-02  0.17327621722E-01  0.23521930394E-01  0.00000000000E+00 0.  1.
     999901    1    3    3    0    0 -0.10853583065E+00  0.12369557393E-01 -0.54892309476E-01  0.88845157331E+00  0.88000000000E+00 0.  1.
        -11    1    4    4    0    0  0.65871796671E-01 -0.45545474580E-03  0.14220586285E-01  0.67392783227E-01  0.51100000000E-03 0.  1.
         11    1    4    4    0    0  0.57796624742E-01 -0.16817104949E-01  0.23344101468E-01  0.64563713066E-01  0.51100000000E-03 0. -1.
</event>
<event>
 8    1  0.1106905E+005  0.1043930E+01  0.7957747E-01            NaN
         13   -1    0    0    0    0  0.00000000000E+00  0.00000000000E+00  0.74505805969E-08  0.10566000000E+00  0.10566000000E+00 0. -1.
     999900   -1    0    0    0    0 -0.00000000000E+00 -0.00000000000E+00 -0.74505805969E-08  0.93827000000E+00  0.93827000000E+00 0.  1.
     999902    2    1    2    0    0  0.19620847535E-01  0.89351384652E-02 -0.51828049049E-02  0.10217562357E+01  0.10215156041E+01 0.  0.
     999903    2    3    3    0    0  0.10054743236E+00  0.83063675607E-01 -0.27987645201E-01  0.13464620142E+00  0.18355677922E-01 0.  0.
         14    1    1    2    0    0 -0.19620847535E-01 -0.89351384652E-02  0.51828049049E-02  0.22173764319E-01  0.00000000000E+00 0.  1.
     999901    1    3    3    0    0 -0.80926584828E-01 -0.74128537142E-01  0.22804840296E-01  0.88711003426E+00  0.88000000000E+00 0. -1.
        -11    1    4    4    0    0  0.43128902427E-01  0.44055550120E-01 -0.19756946784E-01  0.64742503722E-01  0.51100000000E-03 0. -1.
         11    1    4    4    0    0  0.57418529936E-01  0.39008125487E-01 -0.82306984167E-02  0.69903697695E-01  0.51100000000E-03 0.  1.
</event>
<event>
 8    1  0.1106905E+005  0.1043930E+01  0.7957747E-01            NaN
         13   -1    0    0    0    0  0.00000000000E+00  0.00000000000E+00  0.74505805969E-08  0.10566000000E+00  0.10566000000E+00 0. -1.
     999900   -1    0    0    0    0 -0.00000000000E+00 -0.00000000000E+00 -0.74505805969E-08  0.93827000000E+00  0.93827000000E+00 0.  1.
     999902    2    1    2    0    0 -0.16529039862E-01  0.98923412568E-02 -0.14229732909E-01  0.10199810361E+01  0.10196998387E+01 0.  0.
     999903    2    3    3    0    0 -0.89442630276E-01 -0.40869402392E-02  0.92661061997E-01  0.13040953585E+00  0.20096951001E-01 0.  0.
         14    1    1    2    0    0  0.16529039862E-01 -0.98923412568E-02  0.14229732909E-01  0.23948963922E-01  0.00000000000E+00 0. -1.
     999901    1    3    3    0    0  0.72913590413E-01  0.13979281496E-01 -0.10689079491E+00  0.88957150023E+00  0.88000000000E+00 0.  1.
        -11    1    4    4    0    0 -0.19946099830E-01 -0.91916304332E-02  0.24994008537E-01  0.33276035704E-01  0.51100000000E-03 0. -1.
         11    1    4    4    0    0 -0.69496530446E-01  0.51046901940E-02  0.67667053460E-01  0.97133500148E-01  0.51100000000E-03 0.  1.
</event>
<event>
 8    1  0.1106905E+005  0.1043930E+01  0.7957747E-01            NaN
         13   -1    0    0    0    0  0.00000000000E+00  0.00000000000E+00  0.74505805969E-08  0.10566000000E+00  0.10566000000E+00 0. -1.
     999900   -1    0    0    0    0 -0.00000000000E+00 -0.00000000000E+00 -0.74505805969E-08  0.93827000000E+00  0.93827000000E+00 0. -1.
     999902    2    1    2    0    0 -0.16157663519E-01  0.16969568516E-01  0.60940016036E-02  0.10197189859E+01  0.10194315264E+01 0.  0.
     999903    2    3    3    0    0 -0.30801809686E-01 -0.11551666737E+00 -0.42008835233E-01  0.12838238475E+00  0.20602003729E-01 0.  0.
         14    1    1    2    0    0  0.16157663519E-01 -0.16969568516E-01 -0.60940016036E-02  0.24211014055E-01  0.00000000000E+00 0.  1.
     999901    1    3    3    0    0  0.14644146167E-01  0.13248623588E+00  0.48102836837E-01  0.89133660119E+00  0.88000000000E+00 0.  1.
        -11    1    4    4    0    0 -0.15058930920E-04 -0.12054173727E-01  0.11661745373E-02  0.12121238182E-01  0.51100000000E-03 0. -1.
         11    1    4    4    0    0 -0.30786750755E-01 -0.10346249364E+00 -0.43175009770E-01  0.11626114657E+00  0.51100000000E-03 0.  1.
</event>
<event>
 8    1  0.1106905E+005  0.1043930E+01  0.7957747E-01            NaN
         13   -1    0    0    0    0  0.00000000000E+00  0.00000000000E+00  0.74505805969E-08  0.10566000000E+00  0.10566000000E+00 0. -1.
     999900   -1    0    0    0    0 -0.00000000000E+00 -0.00000000000E+00 -0.74505805969E-08  0.93827000000E+00  0.93827000000E+00 0. -1.
     999902    2    1    2    0    0 -0.11025956320E-01  0.71790315929E-02  0.21563910294E-01  0.10186691126E+01  0.10183558555E+01 0.  0.
     999903    2    3    3    0    0  0.96280818981E-01  0.69666083001E-01 -0.42186761041E-01  0.12766769633E+00  0.19898709866E-01 0.  0.
         14    1    1    2    0    0  0.11025956320E-01 -0.71790315929E-02 -0.21563910294E-01  0.25260887446E-01  0.00000000000E+00 0.  1.
     999901    1    3    3    0    0 -0.10730677530E+00 -0.62487051408E-01  0.63750671336E-01  0.89100141623E+00  0.88000000000E+00 0.  1.
        -11    1    4    4    0    0  0.29045895514E-01  0.25328799355E-01 -0.46858199394E-02  0.38825637824E-01  0.51100000000E-03 0.  1.
         11    1    4    4    0    0  0.67234923467E-01  0.44337283646E-01 -0.37500941102E-01  0.88842058504E-01  0.51100000000E-03 0. -1.
</event>
<event>
 8    1  0.1106905E+005  0.1043930E+01  0.7957747E-01            NaN
         13   -1    0    0    0    0  0.00000000000E+00  0.00000000000E+00  0.74505805969E-08  0.10566000000E+00  0.10566000000E+00 0. -1.
     999900   -1    0    0    0    0 -0.00000000000E+00 -0.00000000000E+00 -0.74505805969E-08  0.93827000000E+00  0.93827000000E+00 0. -1.
     999902    2    1    2    0    0 -0.35532610046E-02 -0.19742784192E-01 -0.12272992036E-01  0.10204134202E+01  0.10201424011E+01 0.  0.
     999903    2    3    3    0    0  0.83001157238E-02 -0.99670809317E-01  0.83198861238E-01  0.13156930198E+00  0.19628259279E-01 0.  0.
         14    1    1    2    0    0  0.35532610046E-02  0.19742784192E-01  0.12272992036E-01  0.23516579788E-01  0.00000000000E+00 0. -1.
     999901    1    3    3    0    0 -0.11853376728E-01  0.79928025125E-01 -0.95471853273E-01  0.88884411823E+00  0.88000000000E+00 0. -1.
        -11    1    4    4    0    0  0.14242289731E-01 -0.61219361778E-01  0.47819685938E-01  0.78978709520E-01  0.51100000000E-03 0.  1.
         11    1    4    4    0    0 -0.59421740070E-02 -0.38451447539E-01  0.35379175300E-01  0.52590592464E-01  0.51100000000E-03 0. -1.
</event>
<event>
 8    1  0.1106905E+005  0.1043930E+01  0.7957747E-01            NaN
         13   -1    0    0    0    0  0.00000000000E+00  0.00000000000E+00  0.74505805969E-08  0.10566000000E+00  0.10566000000E+00 0.  1.
     999900   -1    0    0    0    0 -0.00000000000E+00 -0.00000000000E+00 -0.74505805969E-08  0.93827000000E+00  0.93827000000E+00 0. -1.
     999902    2    1    2    0    0  0.15294275594E-01 -0.16982534774E-01  0.13767456215E-03  0.10210752345E+01  0.10208194229E+01 0.  0.
     999903    2    3    3    0    0  0.42734212458E-01  0.69083407452E-01 -0.10064562494E+00  0.13072835263E+00  0.19016578583E-01 0.  0.
         14    1    1    2    0    0 -0.15294275594E-01  0.16982534774E-01 -0.13767456215E-03  0.22854765533E-01  0.00000000000E+00 0. -1.
     999901    1    3    3    0    0 -0.27439936864E-01 -0.86065942225E-01  0.10078329950E+00  0.89034688184E+00  0.88000000000E+00 0.  1.
        -11    1    4    4    0    0  0.41579347572E-01  0.54335860190E-01 -0.86101183467E-01  0.10997682830E+00  0.51100000000E-03 0.  1.
         11    1    4    4    0    0  0.11548648863E-02  0.14747547262E-01 -0.14544441473E-01  0.20751524327E-01  0.51100000000E-03 0. -1.
</event>
<event>
 8    1  0.1106905E+005  0.1043930E+01  0.7957747E-01            NaN
         13   -1    0    0    0    0  0.00000000000E+00  0.00000000000E+00  0.74505805969E-08  0.10566000000E+00  0.10566000000E+00 0.  1.
     999900   -1    0    0    0    0 -0.00000000000E+00 -0.00000000000E+00 -0.74505805969E-08  0.93827000000E+00  0.93827000000E+00 0.  1.
     999902    2    1    2    0    0  0.11941460240E-01  0.18693095126E-01 -0.15393240391E-02  0.10216948972E+01  0.10214529177E+01 0.  0.
     999903    2    3    3    0    0 -0.97499036957E-01  0.58016893727E-02 -0.84780646806E-01  0.13092414746E+00  0.20338449039E-01 0.  0.
         14    1    1    2    0    0 -0.11941460240E-01 -0.18693095126E-01  0.15393240391E-02  0.22235102800E-01  0.00000000000E+00 0.  1.
     999901    1    3    3    0    0  0.10944049720E+00  0.12891405753E-01  0.83241322767E-01  0.89077074974E+00  0.88000000000E+00 0. -1.
        -11    1    4    4    0    0 -0.31899161138E-01  0.95430284626E-02 -0.21106497146E-01  0.39425514788E-01  0.51100000000E-03 0. -1.
         11    1    4    4    0    0 -0.65599875818E-01 -0.37413390899E-02 -0.63674149660E-01  0.91498632676E-01  0.51100000000E-03 0.  1.
</event>
<event>
 8    1  0.1106905E+005  0.1043930E+01  0.7957747E-01            NaN
         13   -1    0    0    0    0  0.00000000000E+00  0.00000000000E+00  0.74505805969E-08  0.10566000000E+00  0.10566000000E+00 0. -1.
     999900   -1    0    0    0    0 -0.00000000000E+00 -0.00000000000E+00 -0.74505805969E-08  0.93827000000E+00  0.93827000000E+00 0.  1.
     999902    2    1    2    0    0  0.54108809770E-02 -0.96841698844E-02 -0.21352721857E-01  0.10198675914E+01  0.10195836917E+01 0.  0.
     999903    2    3    3    0    0 -0.68453392520E-01  0.10518393530E+00 -0.24505812948E-01  0.12932811751E+00  0.19382980093E-01 0.  0.
         14    1    1    2    0    0 -0.54108809770E-02  0.96841698844E-02  0.21352721857E-01  0.24062408649E-01  0.00000000000E+00 0. -1.
     999901    1    3    3    0    0  0.73864273497E-01 -0.11486810518E+00  0.31530910907E-02  0.89053947384E+00  0.88000000000E+00 0. -1.
        -11    1    4    4    0    0 -0.33072816502E-01  0.67373846661E-01 -0.11457285512E-01  0.75924810948E-01  0.51100000000E-03 0. -1.
         11    1    4    4    0    0 -0.35380576018E-01  0.37810088639E-01 -0.13048527435E-01  0.53403306560E-01  0.51100000000E-03 0.  1.
</event>
<event>
 8    1  0.1106905E+005  0.1043930E+01  0.7957747E-01            NaN
         13   -1    0    0    0    0  0.00000000000E+00  0.00000000000E+00  0.74505805969E-08  0.10566000000E+00  0.10566000000E+00 0.  1.
     999900   -1    0    0    0    0 -0.00000000000E+00 -0.00000000000E+00 -0.74505805969E-08  0.93827000000E+00  0.93827000000E+00 0. -1.
     999902    2    1    2    0    0  0.40350943264E-02 -0.11413979893E-01  0.19766994271E-01  0.10207503756E+01  0.10204871554E+01 0.  0.
     999903    2    3    3    0    0  0.34574005248E-01 -0.45354930866E-01 -0.11422810864E+00  0.12943713056E+00  0.21295031632E-01 0.  0.
         14    1    1    2    0    0 -0.40350943264E-02  0.11413979893E-01 -0.19766994271E-01  0.23179624366E-01  0.00000000000E+00 0.  1.
     999901    1    3    3    0    0 -0.30538910921E-01  0.33940950973E-01  0.13399510291E+00  0.89131324507E+00  0.88000000000E+00 0.  1.
        -11    1    4    4    0    0  0.12159803196E-01 -0.29146105671E-01 -0.45868046566E-01  0.55691068460E-01  0.51100000000E-03 0.  1.
         11    1    4    4    0    0  0.22414202051E-01 -0.16208825196E-01 -0.68360062075E-01  0.73746062103E-01  0.51100000000E-03 0. -1.
</event>
<event>
 8    1  0.1106905E+005  0.1043930E+01  0.7957747E-01            NaN
         13   -1    0    0    0    0  0.00000000000E+00  0.00000000000E+00  0.74505805969E-08  0.10566000000E+00  0.10566000000E+00 0. -1.
     999900   -1    0    0    0    0 -0.00000000000E+00 -0.00000000000E+00 -0.74505805969E-08  0.93827000000E+00  0.93827000000E+00 0.  1.
     999902    2    1    2    0    0 -0.20848585320E-01  0.12007816133E-01  0.11634776417E-02  0.10198425585E+01  0.10195580608E+01 0.  0.
     999903    2    3    3    0    0 -0.89835559493E-01 -0.73393750669E-01  0.57918307514E-01  0.13120667078E+00  0.20089542682E-01 0.  0.
         14    1    1    2    0    0  0.20848585320E-01 -0.12007816133E-01 -0.11634776417E-02  0.24087441507E-01  0.00000000000E+00 0.  1.
     999901    1    3    3    0    0  0.68986974173E-01  0.85401566802E-01 -0.56754829872E-01  0.88863588771E+00  0.88000000000E+00 0.  1.
        -11    1    4    4    0    0 -0.33373656439E-01 -0.40117079847E-01  0.26231147380E-01  0.58408177967E-01  0.51100000000E-03 0. -1.
         11    1    4    4    0    0 -0.56461903054E-01 -0.33276670822E-01  0.31687160134E-01  0.72798492813E-01  0.51100000000E-03 0.  1.
</event>
<event>
 8    1  0.1106905E+005  0.1043930E+01  0.7957747E-01            NaN
         13   -1    0    0    0    0  0.00000000000E+00  0.00000000000E+00  0.74505805969E-08  0.10566000000E+00  0.10566000000E+00 0.  1.
     999900   -1    0    0    0    0 -0.00000000000E+00 -0.00000000000E+00 -0.74505805969E-08  0.93827000000E+00  0.93827000000E+00 0. -1.
     999902    2    1    2    0    0  0.56858878621E-02 -0.21220350734E-01  0.69754963946E-02  0.10208802678E+01  0.10206200228E+01 0.  0.
     999903    2    3    3    0    0 -0.11501608618E+00 -0.25041887851E-01  0.54660262694E-01  0.13135376022E+00  0.20255117353E-01 0.  0.
         14    1    1    2    0    0 -0.56858878621E-02  0.21220350734E-01 -0.69754963946E-02  0.23049732232E-01  0.00000000000E+00 0.  1.
     999901    1    3    3    0    0  0.12070197405E+00  0.38215371179E-02 -0.47684766299E-01  0.88952650754E+00  0.88000000000E+00 0. -1.
        -11    1    4    4    0    0 -0.22927120125E-01 -0.13297088189E-01  0.99834027063E-02  0.28326574840E-01  0.51100000000E-03 0.  1.
         11    1    4    4    0    0 -0.92088966059E-01 -0.11744799662E-01  0.44676859987E-01  0.10302718538E+00  0.51100000000E-03 0. -1.
</event>
<event>
 8    1  0.1106905E+005  0.1043930E+01  0.7957747E-01            NaN
         13   -1    0    0    0    0  0.00000000000E+00  0.00000000000E+00  0.74505805969E-08  0.10566000000E+00  0.10566000000E+00 0.  1.
     999900   -1    0    0    0    0 -0.00000000000E+00 -0.00000000000E+00 -0.74505805969E-08  0.93827000000E+00  0.93827000000E+00 0. -1.
     999902    2    1    2    0    0 -0.11716580393E-01  0.84139768157E-02  0.20355224621E-01  0.10189818852E+01  0.10186764324E+01 0.  0.
     999903    2    3    3    0    0 -0.11288185908E+00  0.47134476239E-01 -0.40024380813E-01  0.13028655641E+00  0.20215409016E-01 0.  0.
         14    1    1    2    0    0  0.11716580393E-01 -0.84139768157E-02 -0.20355224621E-01  0.24948114785E-01  0.00000000000E+00 0. -1.
     999901    1    3    3    0    0  0.10116527869E+00 -0.38720499423E-01  0.60379605434E-01  0.88869532881E+00  0.88000000000E+00 0.  1.
        -11    1    4    4    0    0 -0.26801360466E-01  0.14677913818E-01 -0.18771085838E-01  0.35865984741E-01  0.51100000000E-03 0. -1.
         11    1    4    4    0    0 -0.86080498615E-01  0.32456562421E-01 -0.21253294975E-01  0.94420571669E-01  0.51100000000E-03 0.  1.
</event>
<event>
 8    1  0.1106905E+005  0.1043930E+01  0.7957747E-01            NaN
         13   -1    0    0    0    0  0.00000000000E+00  0.00000000000E+00  0.74505805969E-08  0.10566000000E+00  0.10566000000E+00 0.  1.
     999900   -1    0    0    0    0 -0.00000000000E+00 -0.00000000000E+00 -0.74505805969E-08  0.93827000000E+00  0.93827000000E+00 0.  1.
     999902    2    1    2    0    0 -0.48259932322E-02 -0.22593297695E-01  0.10109598610E-01  0.10187119252E+01  0.10183997424E+01 0.  0.
     999903    2    3    3    0    0  0.10870980249E+00 -0.17950879359E-01 -0.62975624369E-01  0.12840109255E+00  0.19515534246E-01 0.  0.
         14    1    1    2    0    0  0.48259932322E-02  0.22593297695E-01 -0.10109598610E-01  0.25218074777E-01  0.00000000000E+00 0.  1.
     999901    1    3    3    0    0 -0.11353579572E+00 -0.46424183360E-02  0.73085222979E-01  0.89031083267E+00  0.88000000000E+00 0.  1.
        -11    1    4    4    0    0  0.34627471029E-01 -0.15011497358E-01 -0.22046651130E-01  0.43711814762E-01  0.51100000000E-03 0.  1.
         11    1    4    4    0    0  0.74082331458E-01 -0.29393820013E-02 -0.40928973239E-01  0.84689277788E-01  0.51100000000E-03 0. -1.
</event>
<event>
 8    1  0.1106905E+005  0.1043930E+01  0.7957747E-01            NaN
         13   -1    0    0    0    0  0.00000000000E+00  0.00000000000E+00  0.74505805969E-08  0.10566000000E+00  0.10566000000E+00 0.  1.
     999900   -1    0    0    0    0 -0.00000000000E+00 -0.00000000000E+00 -0.74505805969E-08  0.93827000000E+00  0.93827000000E+00 0. -1.
     999902    2    1    2    0    0  0.17786952856E-02 -0.16167446882E-01  0.18240238288E-01  0.10194911705E+01  0.10191982095E+01 0.  0.
     999903    2    3    3    0    0 -0.23883822610E-01  0.71357143764E-03 -0.12372247515E+00  0.12758481575E+00  0.19992203116E-01 0.  0.
         14    1    1    2    0    0 -0.17786952856E-02  0.16167446882E-01 -0.18240238288E-01  0.24438829522E-01  0.00000000000E+00 0. -1.
     999901    1    3    3    0    0  0.25662517896E-01 -0.16881018320E-01  0.14196271344E+00  0.89190635473E+00  0.88000000000E+00 0.  1.
        -11    1    4    4    0    0 -0.18706119977E-01 -0.68537116552E-02 -0.60472056969E-01  0.63671210787E-01  0.51100000000E-03 0. -1.
         11    1    4    4    0    0 -0.51777026333E-02  0.75672830929E-02 -0.63250418180E-01  0.63913604960E-01  0.51100000000E-03 0.  1.
</event>
<event>
 8    1  0.1106905E+005  0.1043930E+01  0.7957747E-01            NaN
         13   -1    0    0    0    0  0.00000000000E+00  0.00000000000E+00  0.74505805969E-08  0.10566000000E+00  0.10566000000E+00 0. -1.
     999900   -1    0    0    0    0 -0.00000000000E+00 -0.00000000000E+00 -0.74505805969E-08  0.93827000000E+00  0.93827000000E+00 0. -1.
     999902    2    1    2    0    0  0.18138386833E-01  0.92310098931E-02  0.11197424287E-01  0.10207008173E+01  0.10204364573E+01 0.  0.
     999903    2    3    3    0    0 -0.17299617793E-01 -0.19458878516E-01  0.12787414521E+00  0.13182938725E+00  0.18688648938E-01 0.  0.
         14    1    1    2    0    0 -0.18138386833E-01 -0.92310098931E-02 -0.11197424287E-01  0.23229182750E-01  0.00000000000E+00 0.  1.
     999901    1    3    3    0    0  0.35438004626E-01  0.28689888409E-01 -0.11667672093E+00  0.88887143000E+00  0.88000000000E+00 0. -1.
        -11    1    4    4    0    0 -0.66552583342E-02 -0.11581526655E-01  0.10083750765E+00  0.10171965539E+00  0.51100000000E-03 0. -1.
         11    1    4    4    0    0 -0.10644359459E-01 -0.78773518615E-02  0.27036637563E-01  0.30109731855E-01  0.51100000000E-03 0.  1.
</event>
<event>
 8    1  0.1106905E+005  0.1043930E+01  0.7957747E-01            NaN
         13   -1    0    0    0    0  0.00000000000E+00  0.00000000000E+00  0.74505805969E-08  0.10566000000E+00  0.10566000000E+00 0.  1.
     999900   -1    0    0    0    0 -0.00000000000E+00 -0.00000000000E+00 -0.74505805969E-08  0.93827000000E+00  0.93827000000E+00 0.  1.
     999902    2    1    2    0    0  0.71357948643E-02 -0.19209189725E-01  0.90208996547E-02  0.10215405121E+01  0.10212951232E+01 0.  0.
     999903    2    3    3    0    0 -0.45417923111E-01  0.11384584154E+00  0.37448312697E-01  0.12953510155E+00  0.18796356972E-01 0.  0.
         14    1    1    2    0    0 -0.71357948643E-02  0.19209189725E-01 -0.90208996547E-02  0.22389487908E-01  0.00000000000E+00 0. -1.
     999901    1    3    3    0    0  0.52553717975E-01 -0.13305503126E+00 -0.28427413042E-01  0.89200541054E+00  0.88000000000E+00 0. -1.
        -11    1    4    4    0    0 -0.13740999696E-01  0.52711386900E-01  0.98723631510E-02  0.55362713596E-01  0.51100000000E-03 0.  1.
         11    1    4    4    0    0 -0.31676923414E-01  0.61134454638E-01  0.27575949546E-01  0.74172387957E-01  0.51100000000E-03 0. -1.
</event>
<event>
 8    1  0.1106905E+005  0.1043930E+01  0.7957747E-01            NaN
         13   -1    0    0    0    0  0.00000000000E+00  0.00000000000E+00  0.74505805969E-08  0.10566000000E+00  0.10566000000E+00 0. -1.
     999900   -1    0    0    0    0 -0.00000000000E+00 -0.00000000000E+00 -0.74505805969E-08  0.93827000000E+00  0.93827000000E+00 0. -1.
     999902    2    1    2    0    0  0.30044820691E-02  0.20980160948E-01  0.11744492753E-01  0.10196992927E+01  0.10194113597E+01 0.  0.
     999903    2    3    3    0    0 -0.12640019955E-01  0.76494471010E-01  0.10634401486E+00  0.13275191059E+00  0.17402473061E-01 0.  0.
         14    1    1    2    0    0 -0.30044820691E-02 -0.20980160948E-01 -0.11744492753E-01  0.24230707293E-01  0.00000000000E+00 0.  1.
     999901    1    3    3    0    0  0.15644502024E-01 -0.55514310063E-01 -0.94599522107E-01  0.88694738212E+00  0.88000000000E+00 0. -1.
        -11    1    4    4    0    0 -0.11746778520E-01  0.28442734554E-01  0.49778384913E-01  0.58524564758E-01  0.51100000000E-03 0. -1.
         11    1    4    4    0    0 -0.89324143434E-03  0.48051736457E-01  0.56565629947E-01  0.74227345830E-01  0.51100000000E-03 0.  1.
</event>
<event>
 8    1  0.1106905E+005  0.1043930E+01  0.7957747E-01            NaN
         13   -1    0    0    0    0  0.00000000000E+00  0.00000000000E+00  0.74505805969E-08  0.10566000000E+00  0.10566000000E+00 0. -1.
     999900   -1    0    0    0    0 -0.00000000000E+00 -0.00000000000E+00 -0.74505805969E-08  0.93827000000E+00  0.93827000000E+00 0. -1.
     999902    2    1    2    0    0 -0.21173368117E-01 -0.33052850626E-03  0.11401316489E-01  0.10198798278E+01  0.10195962202E+01 0.  0.
     999903    2    3    3    0    0  0.12289630032E+00 -0.14512366029E-01 -0.24081448066E-01  0.12734623151E+00  0.17973233970E-01 0.  0.
         14    1    1    2    0    0  0.21173368117E-01  0.33052850626E-03 -0.11401316489E-01  0.24050172228E-01  0.00000000000E+00 0.  1.
     999901    1    3    3    0    0 -0.14406966843E+00  0.14181837522E-01  0.35482764556E-01  0.89253359626E+00  0.88000000000E+00 0.  1.
        -11    1    4    4    0    0  0.38210209614E-01  0.11671280662E-03 -0.14498382327E-01  0.40871725578E-01  0.51100000000E-03 0. -1.
         11    1    4    4    0    0  0.84686090702E-01 -0.14629078835E-01 -0.95830657388E-02  0.86474505930E-01  0.51100000000E-03 0.  1.
</event>
<event>
 8    1  0.1106905E+005  0.1043930E+01  0.7957747E-01            NaN
         13   -1    0    0    0    0  0.00000000000E+00  0.00000000000E+00  0.74505805969E-08  0.10566000000E+00  0.10566000000E+00 0. -1.
     999900   -1    0    0    0    0 -0.00000000000E+00 -0.00000000000E+00 -0.74505805969E-08  0.93827000000E+00  0.93827000000E+00 0.  1.
     999902    2    1    2    0    0  0.33581249719E-02  0.32944536228E-02  0.19630009090E-01  0.10237441712E+01  0.10235451433E+01 0.  0.
     999903    2    3    3    0    0 -0.68081813260E-01 -0.95865123802E-01  0.61962802389E-01  0.13429020838E+00  0.19214992263E-01 0.  0.
         14    1    1    2    0    0 -0.33581249719E-02 -0.32944536228E-02 -0.19630009090E-01  0.20185828813E-01  0.00000000000E+00 0.  1.
     999901    1    3    3    0    0  0.71439938232E-01  0.99159577425E-01 -0.42332793298E-01  0.88945396281E+00  0.88000000000E+00 0.  1.
        -11    1    4    4    0    0 -0.56764100026E-01 -0.88257487058E-01  0.58776218079E-01  0.12027656466E+00  0.51100000000E-03 0.  1.
         11    1    4    4    0    0 -0.11317713234E-01 -0.76076367436E-02  0.31865843091E-02  0.14013643717E-01  0.51100000000E-03 0. -1.
</event>
<event>
 8    1  0.1106905E+005  0.1043930E+01  0.7957747E-01            NaN
         13   -1    0    0    0    0  0.00000000000E+00  0.00000000000E+00  0.74505805969E-08  0.10566000000E+00  0.10566000000E+00 0. -1.
     999900   -1    0    0    0    0 -0.00000000000E+00 -0.00000000000E+00 -0.74505805969E-08  0.93827000000E+00  0.93827000000E+00 0. -1.
     999902    2    1    2    0    0  0.37398270094E-02 -0.21486196617E-02  0.23753511891E-01  0.10197880821E+01  0.10195022806E+01 0.  0.
     999903    2    3    3    0    0  0.11679651147E+00 -0.41095106982E-01 -0.33530695908E-01  0.12985543115E+00  0.20196349209E-01 0.  0.
         14    1    1    2    0    0 -0.37398270094E-02  0.21486196617E-02 -0.23753511891E-01  0.24141917895E-01  0.00000000000E+00 0.  1.
     999901    1    3    3    0    0 -0.11305668446E+00  0.38946487320E-01  0.57284207799E-01  0.88993265096E+00  0.88000000000E+00 0.  1.
        -11    1    4    4    0    0  0.53551493316E-01 -0.84032060844E-02 -0.12755977565E-01  0.55689787156E-01  0.51100000000E-03 0.  1.
         11    1    4    4    0    0  0.63245018153E-01 -0.32691900898E-01 -0.20774718344E-01  0.74165643992E-01  0.51100000000E-03 0. -1.
</event>
<event>
 8    1  0.1106905E+005  0.1043930E+01  0.7957747E-01            NaN
         13   -1    0    0    0    0  0.00000000000E+00  0.00000000000E+00  0.74505805969E-08  0.10566000000E+00  0.10566000000E+00 0. -1.
     999900   -1    0    0    0    0 -0.00000000000E+00 -0.00000000000E+00 -0.74505805969E-08  0.93827000000E+00  0.93827000000E+00 0. -1.
     999902    2    1    2    0    0  0.38696090209E-02  0.13058994719E-01 -0.19638302776E-01  0.10200307499E+01  0.10197507326E+01 0.  0.
     999903    2    3    3    0    0  0.48489613526E-01 -0.10955521110E+00  0.41531083037E-01  0.12830944706E+00  0.19618777943E-01 0.  0.
         14    1    1    2    0    0 -0.38696090209E-02 -0.13058994719E-01  0.19638302776E-01  0.23899250050E-01  0.00000000000E+00 0. -1.
     999901    1    3    3    0    0 -0.44620004505E-01  0.12261420581E+00 -0.61169385813E-01  0.89172130289E+00  0.88000000000E+00 0.  1.
        -11    1    4    4    0    0  0.27593214541E-01 -0.72371908131E-01  0.35594001617E-01  0.85242434546E-01  0.51100000000E-03 0.  1.
         11    1    4    4    0    0  0.20896398985E-01 -0.37183302965E-01  0.59370814197E-02  0.43067012512E-01  0.51100000000E-03 0. -1.
</event>
<event>
 8    1  0.1106905E+005  0.1043930E+01  0.7957747E-01            NaN
         13   -1    0    0    0    0  0.00000000000E+00  0.00000000000E+00  0.74505805969E-08  0.10566000000E+00  0.10566000000E+00 0.  1.
     999900   -1    0    0    0    0 -0.00000000000E+00 -0.00000000000E+00 -0.74505805969E-08  0.93827000000E+00  0.93827000000E+00 0. -1.
     999902    2    1    2    0    0  0.28351959213E-02  0.17110952669E-01  0.15697350587E-01  0.10205370555E+01  0.10202689115E+01 0.  0.
     999903    2    3    3    0    0 -0.65799909717E-01 -0.10251364100E+00  0.37773396152E-01  0.12952180707E+00  0.22591908709E-01 0.  0.
         14    1    1    2    0    0 -0.28351959213E-02 -0.17110952669E-01 -0.15697350587E-01  0.23392944505E-01  0.00000000000E+00 0. -1.
     999901    1    3    3    0    0  0.68635105638E-01  0.11962459367E+00 -0.22076045565E-01  0.89101524842E+00  0.88000000000E+00 0. -1.
        -11    1    4    4    0    0 -0.32078953617E-02 -0.20047890902E-01  0.48256074648E-02  0.20874772589E-01  0.51100000000E-03 0.  1.
         11    1    4    4    0    0 -0.62592014355E-01 -0.82465750103E-01  0.32947788687E-01  0.10864703448E+00  0.51100000000E-03 0. -1.
</event>
<event>
 8    1  0.1106905E+005  0.1043930E+01  0.7957747E-01            NaN
         13   -1    0    0    0    0  0.00000000000E+00  0.00000000000E+00  0.74505805969E-08  0.10566000000E+00  0.10566000000E+00 0.  1.
     999900   -1    0    0    0    0 -0.00000000000E+00 -0.00000000000E+00 -0.74505805969E-08  0.93827000000E+00  0.93827000000E+00 0. -1.
     999902    2    1    2    0    0 -0.21188354353E-01  0.10879487360E-01 -0.56292441742E-03  0.10201050868E+01  0.10198268292E+01 0.  0.
     999903    2    3    3    0    0  0.31954046992E-01  0.50346708836E-01 -0.11415161022E+00  0.13033873211E+00  0.20043521661E-01 0.  0.
         14    1    1    2    0    0  0.21188354353E-01 -0.10879487360E-01  0.56292441742E-03  0.23824913207E-01  0.00000000000E+00 0.  1.
     999901    1    3    3    0    0 -0.53142401345E-01 -0.39467221477E-01  0.11358868581E+00  0.88976635469E+00  0.88000000000E+00 0.  1.
        -11    1    4    4    0    0  0.33200387997E-01  0.42159433254E-01 -0.89813100944E-01  0.10462474754E+00  0.51100000000E-03 0.  1.
         11    1    4    4    0    0 -0.12463410049E-02  0.81872755820E-02 -0.24338509279E-01  0.25713984566E-01  0.51100000000E-03 0. -1.
</event>
<event>
 8    1  0.1106905E+005  0.1043930E+01  0.7957747E-01            NaN
         13   -1    0    0    0    0  0.00000000000E+00  0.00000000000E+00  0.74505805969E-08  0.10566000000E+00  0.10566000000E+00 0. -1.
     999900   -1    0    0    0    0 -0.00000000000E+00 -0.00000000000E+00 -0.74505805969E-08  0.93827000000E+00  0.93827000000E+00 0.  1.
     999902    2    1    2    0    0  0.11829751982E-01  0.14650566321E-01  0.13201073338E-01  0.10209332510E+01  0.10206742147E+01 0.  0.
     999903    2    3    3    0    0 -0.90232959047E-01  0.52848369229E-01  0.77880064570E-01  0.13185550358E+00  0.19637523700E-01 0.  0.
         14    1    1    2    0    0 -0.11829751982E-01 -0.14650566321E-01 -0.13201073338E-01  0.22996748961E-01  0.00000000000E+00 0.  1.
     999901    1    3    3    0    0  0.10206271103E+00 -0.38197802908E-01 -0.64678991232E-01  0.88907774746E+00  0.88000000000E+00 0. -1.
        -11    1    4    4    0    0 -0.62722921530E-01  0.34472918321E-01  0.41732385490E-01  0.82851675315E-01  0.51100000000E-03 0. -1.
         11    1    4    4    0    0 -0.27510037517E-01  0.18375450908E-01  0.36147679080E-01  0.49003828260E-01  0.51100000000E-03 0.  1.
</event>
<event>
 8    1  0.1106905E+005  0.1043930E+01  0.7957747E-01            NaN
         13   -1    0    0    0    0  0.00000000000E+00  0.00000000000E+00  0.74505805969E-08  0.10566000000E+00  0.10566000000E+00 0.  1.
     999900   -1    0    0    0    0 -0.00000000000E+00 -0.00000000000E+00 -0.74505805969E-08  0.93827000000E+00  0.93827000000E+00 0.  1.
     999902    2    1    2    0    0 -0.18904298251E-02 -0.11249811348E-01  0.21448021105E-01  0.10196370053E+01  0.10193475723E+01 0.  0.
     999903    2    3    3    0    0  0.10065374802E+00 -0.10755483659E-01  0.81773337728E-01  0.13163098250E+00  0.19823707337E-01 0.  0.
         14    1    1    2    0    0  0.18904298251E-02  0.11249811348E-01 -0.21448021105E-01  0.24292994661E-01  0.00000000000E+00 0. -1.
     999901    1    3    3    0    0 -0.10254417784E+00 -0.49432768876E-03 -0.60325316623E-01  0.88800602284E+00  0.88000000000E+00 0.  1.
        -11    1    4    4    0    0  0.70831973820E-01 -0.13438822752E-01  0.48644038442E-01  0.86972835236E-01  0.51100000000E-03 0.  1.
         11    1    4    4    0    0  0.29821774198E-01  0.26833390927E-02  0.33129299286E-01  0.44658147265E-01  0.51100000000E-03 0. -1.
</event>
<event>
 8    1  0.1106905E+005  0.1043930E+01  0.7957747E-01            NaN
         13   -1    0    0    0    0  0.00000000000E+00  0.00000000000E+00  0.74505805969E-08  0.10566000000E+00  0.10566000000E+00 0.  1.
     999900   -1    0    0    0    0 -0.00000000000E+00 -0.00000000000E+00 -0.74505805969E-08  0.93827000000E+00  0.93827000000E+00 0. -1.
     999902    2    1    2    0    0 -0.13702525434E-01 -0.83700162162E-02 -0.19269319372E-01  0.10188476747E+01  0.10185388854E+01 0.  0.
     999903    2    3    3    0    0 -0.48542147780E-02  0.11270388749E+00  0.55620797991E-01  0.12736255845E+00  0.20045410211E-01 0.  0.
         14    1    1    2    0    0  0.13702525434E-01  0.83700162162E-02  0.19269319372E-01  0.25082325327E-01  0.00000000000E+00 0.  1.
     999901    1    3    3    0    0 -0.88483106564E-02 -0.12107390371E+00 -0.74890117364E-01  0.89148511622E+00  0.88000000000E+00 0.  1.
        -11    1    4    4    0    0 -0.73757980025E-02  0.10922829974E+00  0.50229142540E-01  0.12045103462E+00  0.51100000000E-03 0.  1.
         11    1    4    4    0    0  0.25215832246E-02  0.34755877472E-02  0.53916554516E-02  0.69115238302E-02  0.51100000000E-03 0. -1.
</event>
<event>
 8    1  0.1106905E+005  0.1043930E+01  0.7957747E-01            NaN
         13   -1    0    0    0    0  0.00000000000E+00  0.00000000000E+00  0.74505805969E-08  0.10566000000E+00  0.10566000000E+00 0.  1.
     999900   -1    0    0    0    0 -0.00000000000E+00 -0.00000000000E+00 -0.74505805969E-08  0.93827000000E+00  0.93827000000E+00 0. -1.
     999902    2    1    2    0    0 -0.17582709153E-01 -0.41871135360E-02 -0.15331887539E-01  0.10202287267E+01  0.10199533834E+01 0.  0.
     999903    2    3    3    0    0  0.54254012046E-01 -0.81678973660E-01  0.80985166218E-01  0.12868934016E+00  0.19682392172E-01 0.  0.
         14    1    1    2    0    0  0.17582709153E-01  0.41871135360E-02  0.15331887539E-01  0.23701273308E-01  0.00000000000E+00 0.  1.
     999901    1    3    3    0    0 -0.71836721199E-01  0.77491860124E-01 -0.96317053757E-01  0.89153938653E+00  0.88000000000E+00 0. -1.
        -11    1    4    4    0    0  0.19590002400E-01 -0.15484152038E-01  0.16004903724E-01  0.29663870661E-01  0.51100000000E-03 0.  1.
         11    1    4    4    0    0  0.34664009647E-01 -0.66194821621E-01  0.64980262493E-01  0.99025469496E-01  0.51100000000E-03 0. -1.
</event>
<event>
 8    1  0.1106905E+005  0.1043930E+01  0.7957747E-01            NaN
         13   -1    0    0    0    0  0.00000000000E+00  0.00000000000E+00  0.74505805969E-08  0.10566000000E+00  0.10566000000E+00 0.  1.
     999900   -1    0    0    0    0 -0.00000000000E+00 -0.00000000000E+00 -0.74505805969E-08  0.93827000000E+00  0.93827000000E+00 0.  1.
     999902    2    1    2    0    0 -0.11348351876E-01  0.18698269673E-01 -0.80934707023E-02  0.10206080222E+01  0.10203415215E+01 0.  0.
     999903    2    3    3    0    0 -0.31651847229E-01 -0.97396523131E-01 -0.76097520735E-01  0.13015039625E+00  0.25697681457E-01 0.  0.
         14    1    1    2    0    0  0.11348351876E-01 -0.18698269673E-01  0.80934707023E-02  0.23321977769E-01  0.00000000000E+00 0.  1.
     999901    1    3    3    0    0  0.20303495353E-01  0.11609479280E+00  0.68004050032E-01  0.89045762598E+00  0.88000000000E+00 0. -1.
        -11    1    4    4    0    0 -0.33511220122E-01 -0.80048979886E-01 -0.70533666479E-01  0.11183067684E+00  0.51100000000E-03 0. -1.
         11    1    4    4    0    0  0.18593728933E-02 -0.17347543244E-01 -0.55638542551E-02  0.18319719412E-01  0.51100000000E-03 0.  1.
</event>
<event>
 8    1  0.1106905E+005  0.1043930E+01  0.7957747E-01            NaN
         13   -1    0    0    0    0  0.00000000000E+00  0.00000000000E+00  0.74505805969E-08  0.10566000000E+00  0.10566000000E+00 0.  1.
     999900   -1    0    0    0    0 -0.00000000000E+00 -0.00000000000E+00 -0.74505805969E-08  0.93827000000E+00  0.93827000000E+00 0. -1.
     999902    2    1    2    0    0  0.34018516101E-02 -0.23314291785E-01 -0.57938508597E-03  0.10203617060E+01  0.10200894797E+01 0.  0.
     999903    2    3    3    0    0  0.12286950050E+00 -0.17579893435E-01 -0.37976236981E-01  0.13148380268E+00  0.20972100133E-01 0.  0.
         14    1    1    2    0    0 -0.34018516101E-02  0.23314291785E-01  0.57938508597E-03  0.23568294017E-01  0.00000000000E+00 0.  1.
     999901    1    3    3    0    0 -0.11946764889E+00 -0.57343983500E-02  0.37396851895E-01  0.88887790331E+00  0.88000000000E+00 0.  1.
        -11    1    4    4    0    0  0.87116432922E-01 -0.39630374853E-02 -0.21460907437E-01  0.89809855919E-01  0.51100000000E-03 0.  1.
         11    1    4    4    0    0  0.35753067580E-01 -0.13616855950E-01 -0.16515329543E-01  0.41673946756E-01  0.51100000000E-03 0. -1.
</event>
<event>
 8    1  0.1106905E+005  0.1043930E+01  0.7957747E-01            NaN
         13   -1    0    0    0    0  0.00000000000E+00  0.00000000000E+00  0.74505805969E-08  0.10566000000E+00  0.10566000000E+00 0.  1.
     999900   -1    0    0    0    0 -0.00000000000E+00 -0.00000000000E+00 -0.74505805969E-08  0.93827000000E+00  0.93827000000E+00 0.  1.
     999902    2    1    2    0    0  0.10390848617E-01  0.20204707758E-01 -0.10259892479E-01  0.10190007933E+01  0.10186958091E+01 0.  0.
     999903    2    3    3    0    0 -0.12437258362E+00 -0.20036315839E-01 -0.17808846264E-01  0.12780075444E+00  0.12078258232E-01 0.  0.
         14    1    1    2    0    0 -0.10390848617E-01 -0.20204707758E-01  0.10259892479E-01  0.24929206651E-01  0.00000000000E+00 0.  1.
     999901    1    3    3    0    0  0.13476343224E+00  0.40241023597E-01  0.75489537854E-02  0.89120003891E+00  0.88000000000E+00 0. -1.
        -11    1    4    4    0    0 -0.31323773828E-01 -0.27322488220E-02 -0.91975059550E-02  0.32764298058E-01  0.51100000000E-03 0.  1.
         11    1    4    4    0    0 -0.93048809790E-01 -0.17304067017E-01 -0.86113403090E-02  0.95036456382E-01  0.51100000000E-03 0. -1.
</event>
<event>
 8    1  0.1106905E+005  0.1043930E+01  0.7957747E-01            NaN
         13   -1    0    0    0    0  0.00000000000E+00  0.00000000000E+00  0.74505805969E-08  0.10566000000E+00  0.10566000000E+00 0. -1.
     999900   -1    0    0    0    0 -0.00000000000E+00 -0.00000000000E+00 -0.74505805969E-08  0.93827000000E+00  0.93827000000E+00 0. -1.
     999902    2    1    2    0    0  0.13778718152E-02 -0.64186348148E-02 -0.22204331840E-01  0.10207755241E+01  0.10205128812E+01 0.  0.
     999903    2    3    3    0    0  0.65048496643E-01  0.10509901757E+00 -0.39317618427E-01  0.13129084188E+00  0.20354351708E-01 0.  0.
         14    1    1    2    0    0 -0.13778718152E-02  0.64186348148E-02  0.22204331840E-01  0.23154475940E-01  0.00000000000E+00 0. -1.
     999901    1    3    3    0    0 -0.63670624828E-01 -0.11151765238E+00  0.17113286588E-01  0.88948468218E+00  0.88000000000E+00 0.  1.
        -11    1    4    4    0    0  0.33941686804E-01  0.69622163387E-01 -0.18041667519E-01  0.79530161735E-01  0.51100000000E-03 0. -1.
         11    1    4    4    0    0  0.31106809839E-01  0.35476854179E-01 -0.21275950909E-01  0.51760680143E-01  0.51100000000E-03 0.  1.
</event>
<event>
 8    1  0.1106905E+005  0.1043930E+01  0.7957747E-01            NaN
         13   -1    0    0    0    0  0.00000000000E+00  0.00000000000E+00  0.74505805969E-08  0.10566000000E+00  0.10566000000E+00 0. -1.
     999900   -1    0    0    0    0 -0.00000000000E+00 -0.00000000000E+00 -0.74505805969E-08  0.93827000000E+00  0.93827000000E+00 0.  1.
     999902    2    1    2    0    0 -0.11034345900E-01 -0.75180385671E-02  0.19636697804E-01  0.10201838931E+01  0.10199074949E+01 0.  0.
     999903    2    3    3    0    0 -0.12983249110E+00 -0.12860632104E-01  0.31510298901E-02  0.13203226196E+00  0.20017932083E-01 0.  0.
         14    1    1    2    0    0  0.11034345900E-01  0.75180385671E-02 -0.19636697804E-01  0.23746106922E-01  0.00000000000E+00 0.  1.
     999901    1    3    3    0    0  0.11879814520E+00  0.53425935369E-02  0.16485667913E-01  0.88815163112E+00  0.88000000000E+00 0. -1.
        -11    1    4    4    0    0 -0.58712634724E-01 -0.15479929291E-01  0.40572299094E-02  0.60856584874E-01  0.51100000000E-03 0. -1.
         11    1    4    4    0    0 -0.71119856380E-01  0.26192971867E-02 -0.90620001929E-03  0.71175677086E-01  0.51100000000E-03 0.  1.
</event>
<event>
 8    1  0.1106905E+005  0.1043930E+01  0.7957747E-01            NaN
         13   -1    0    0    0    0  0.00000000000E+00  0.00000000000E+00  0.74505805969E-08  0.10566000000E+00  0.10566000000E+00 0. -1.
     999900   -1    0    0    0    0 -0.00000000000E+00 -0.00000000000E+00 -0.74505805969E-08  0.93827000000E+00  0.93827000000E+00 0. -1.
     999902    2    1    2    0    0  0.20474263414E-01  0.34728291767E-02 -0.11586087802E-01  0.10201498941E+01  0.10198726945E+01 0.  0.
     999903    2    3    3    0    0  0.65778215042E-01  0.33263056178E-02  0.11088940707E+00  0.13051361095E+00  0.19987600162E-01 0.  0.
         14    1    1    2    0    0 -0.20474263414E-01 -0.34728291767E-02  0.11586087802E-01  0.23780105874E-01  0.00000000000E+00 0. -1.
     999901    1    3    3    0    0 -0.45303951628E-01  0.14652355895E-03 -0.12247549487E+00  0.88963628318E+00  0.88000000000E+00 0. -1.
        -11    1    4    4    0    0  0.20500942673E-01 -0.71689898571E-02  0.27505673201E-01  0.35050053428E-01  0.51100000000E-03 0.  1.
         11    1    4    4    0    0  0.45277272370E-01  0.10495295475E-01  0.83383733864E-01  0.95463557521E-01  0.51100000000E-03 0. -1.
</event>
<event>
 8    1  0.1106905E+005  0.1043930E+01  0.7957747E-01            NaN
         13   -1    0    0    0    0  0.00000000000E+00  0.00000000000E+00  0.74505805969E-08  0.10566000000E+00  0.10566000000E+00 0.  1.
     999900   -1    0    0    0    0 -0.00000000000E+00 -0.00000000000E+00 -0.74505805969E-08  0.93827000000E+00  0.93827000000E+00 0.  1.
     999902    2    1    2    0    0  0.15082206068E-02  0.17554724205E-01  0.12124501216E-01  0.10225419987E+01  0.10223182931E+01 0.  0.
     999903    2    3    3    0    0 -0.13271455492E-01 -0.33521293608E-01  0.12684545022E+00  0.13350426349E+00  0.20828141394E-01 0.  0.
         14    1    1    2    0    0 -0.15082206068E-02 -0.17554724205E-01 -0.12124501216E-01  0.21388001334E-01  0.00000000000E+00 0. -1.
     999901    1    3    3    0    0  0.14779676098E-01  0.51076017813E-01 -0.11472094900E+00  0.88903773517E+00  0.88000000000E+00 0.  1.
        -11    1    4    4    0    0 -0.17868042049E-01 -0.21194184012E-01  0.73428177251E-01  0.78488334790E-01  0.51100000000E-03 0. -1.
         11    1    4    4    0    0  0.45965865569E-02 -0.12327109597E-01  0.53417272966E-01  0.55015928704E-01  0.51100000000E-03 0.  1.
</event>
<event>
 8    1  0.1106905E+005  0.1043930E+01  0.7957747E-01            NaN
         13   -1    0    0    0    0  0.00000000000E+00  0.00000000000E+00  0.74505805969E-08  0.10566000000E+00  0.10566000000E+00 0. -1.
     999900   -1    0    0    0    0 -0.00000000000E+00 -0.00000000000E+00 -0.74505805969E-08  0.93827000000E+00  0.93827000000E+00 0.  1.
     999902    2    1    2    0    0  0.15198893965E-01  0.13928225104E-01  0.11943153364E-01  0.10201047876E+01  0.10198265230E+01 0.  0.
     999903    2    3    3    0    0  0.38961025852E-01 -0.54779593208E-01 -0.10822103078E+00  0.12896796628E+00  0.20054412382E-01 0.  0.
         14    1    1    2    0    0 -0.15198893965E-01 -0.13928225104E-01 -0.11943153364E-01  0.23825212372E-01  0.00000000000E+00 0.  1.
     999901    1    3    3    0    0 -0.23762131887E-01  0.68707818312E-01  0.12016418414E+00  0.89113682135E+00  0.88000000000E+00 0. -1.
        -11    1    4    4    0    0  0.38421980261E-01 -0.44117043723E-01 -0.82727973890E-01  0.10132492733E+00  0.51100000000E-03 0.  1.
         11    1    4    4    0    0  0.53904559048E-03 -0.10662549485E-01 -0.25493056891E-01  0.27643038948E-01  0.51100000000E-03 0. -1.
</event>
<event>
 8    1  0.1106905E+005  0.1043930E+01  0.7957747E-01            NaN
         13   -1    0    0    0    0  0.00000000000E+00  0.00000000000E+00  0.74505805969E-08  0.10566000000E+00  0.10566000000E+00 0. -1.
     999900   -1    0    0    0    0 -0.00000000000E+00 -0.00000000000E+00 -0.74505805969E-08  0.93827000000E+00  0.93827000000E+00 0.  1.
     999902    2    1    2    0    0  0.28955376722E-02  0.20958421405E-01  0.10166397603E-01  0.10204567129E+01  0.10201867024E+01 0.  0.
     999903    2    3    3    0    0  0.23291393572E-01 -0.11663995933E+00  0.45295239652E-01  0.12883832994E+00  0.20007183703E-01 0.  0.
         14    1    1    2    0    0 -0.28955376722E-02 -0.20958421405E-01 -0.10166397603E-01  0.23473287082E-01  0.00000000000E+00 0.  1.
     999901    1    3    3    0    0 -0.20395855900E-01  0.13759838074E+00 -0.35128842049E-01  0.89161838298E+00  0.88000000000E+00 0.  1.
        -11    1    4    4    0    0 -0.13427644992E-02 -0.39741790928E-01  0.17384663141E-01  0.43401619742E-01  0.51100000000E-03 0.  1.
         11    1    4    4    0    0  0.24634158071E-01 -0.76898168402E-01  0.27910576511E-01  0.85436710199E-01  0.51100000000E-03 0. -1.
</event>
<event>
 8    1  0.1106905E+005  0.1043930E+01  0.7957747E-01            NaN
         13   -1    0    0    0    0  0.00000000000E+00  0.00000000000E+00  0.74505805969E-08  0.10566000000E+00  0.10566000000E+00 0.  1.
     999900   -1    0    0    0    0 -0.00000000000E+00 -0.00000000000E+00 -0.74505805969E-08  0.93827000000E+00  0.93827000000E+00 0.  1.
     999902    2    1    2    0    0  0.15941858485E-01  0.12911786129E-01 -0.14151999900E-01  0.10190073963E+01  0.10187025756E+01 0.  0.
     999903    2    3    3    0    0 -0.85552351824E-01 -0.72601712035E-01  0.54631813819E-01  0.12640174648E+00  0.20063721981E-01 0.  0.
         14    1    1    2    0    0 -0.15941858485E-01 -0.12911786129E-01  0.14151999900E-01  0.24922603679E-01  0.00000000000E+00 0.  1.
     999901    1    3    3    0    0  0.10149421031E+00  0.85513498164E-01 -0.68783813718E-01  0.89260564984E+00  0.88000000000E+00 0.  1.
        -11    1    4    4    0    0 -0.28261765334E-01 -0.12800003010E-01  0.12141154792E-01  0.33320207345E-01  0.51100000000E-03 0.  1.
         11    1    4    4    0    0 -0.57290586490E-01 -0.59801709025E-01  0.42490659026E-01  0.93081539137E-01  0.51100000000E-03 0. -1.
</event>
<event>
 8    1  0.1106905E+005  0.1043930E+01  0.7957747E-01            NaN
         13   -1    0    0    0    0  0.00000000000E+00  0.00000000000E+00  0.74505805969E-08  0.10566000000E+00  0.10566000000E+00 0. -1.
     999900   -1    0    0    0    0 -0.00000000000E+00 -0.00000000000E+00 -0.74505805969E-08  0.93827000000E+00  0.93827000000E+00 0. -1.
     999902    2    1    2    0    0  0.13518218764E-01 -0.19704067719E-01 -0.27183833615E-02  0.10198804235E+01  0.10195968301E+01 0.  0.
     999903    2    3    3    0    0 -0.54775254507E-01 -0.10993754432E+00 -0.42329850572E-01  0.13175028260E+00  0.21902706598E-01 0.  0.
         14    1    1    2    0    0 -0.13518218764E-01  0.19704067719E-01  0.27183833615E-02  0.24049576531E-01  0.00000000000E+00 0. -1.
     999901    1    3    3    0    0  0.68293473270E-01  0.90233476606E-01  0.39611467211E-01  0.88813014087E+00  0.88000000000E+00 0. -1.
        -11    1    4    4    0    0 -0.10003543706E-01 -0.15507101019E-01 -0.14843928304E-01  0.23688486596E-01  0.51100000000E-03 0. -1.
         11    1    4    4    0    0 -0.44771710801E-01 -0.94430443306E-01 -0.27485922268E-01  0.10806179600E+00  0.51100000000E-03 0.  1.
</event>
<event>
 8    1  0.1106905E+005  0.1043930E+01  0.7957747E-01            NaN
         13   -1    0    0    0    0  0.00000000000E+00  0.00000000000E+00  0.74505805969E-08  0.10566000000E+00  0.10566000000E+00 0.  1.
     999900   -1    0    0    0    0 -0.00000000000E+00 -0.00000000000E+00 -0.74505805969E-08  0.93827000000E+00  0.93827000000E+00 0. -1.
     999902    2    1    2    0    0 -0.20841627974E-01 -0.81334714494E-02 -0.99374425647E-02  0.10194498125E+01  0.10191558471E+01 0.  0.
     999903    2    3    3    0    0  0.94120344523E-01  0.80824872708E-01 -0.15947111860E-01  0.12750477035E+00  0.24735739023E-01 0.  0.
         14    1    1    2    0    0  0.20841627974E-01  0.81334714494E-02  0.99374425647E-02  0.24480187482E-01  0.00000000000E+00 0.  1.
     999901    1    3    3    0    0 -0.11496197250E+00 -0.88958344158E-01  0.60096692952E-02  0.89194504216E+00  0.88000000000E+00 0.  1.
        -11    1    4    4    0    0  0.88157852792E-01  0.65096093797E-01 -0.12212066196E-01  0.11026651404E+00  0.51100000000E-03 0. -1.
         11    1    4    4    0    0  0.59624917310E-02  0.15728778911E-01 -0.37350456635E-02  0.17238256315E-01  0.51100000000E-03 0.  1.
</event>
<event>
 8    1  0.1106905E+005  0.1043930E+01  0.7957747E-01            NaN
         13   -1    0    0    0    0  0.00000000000E+00  0.00000000000E+00  0.74505805969E-08  0.10566000000E+00  0.10566000000E+00 0.  1.
     999900   -1    0    0    0    0 -0.00000000000E+00 -0.00000000000E+00 -0.74505805969E-08  0.93827000000E+00  0.93827000000E+00 0. -1.
     999902    2    1    2    0    0 -0.56341514694E-04  0.18171310321E-01  0.11082144368E-01  0.10226458835E+01  0.10224243685E+01 0.  0.
     999903    2    3    3    0    0 -0.78352098574E-01  0.39177928634E-01 -0.97083535611E-01  0.13232497619E+00  0.20266351307E-01 0.  0.
         14    1    1    2    0    0  0.56341514694E-04 -0.18171310321E-01 -0.11082144368E-01  0.21284116541E-01  0.00000000000E+00 0. -1.
     999901    1    3    3    0    0  0.78295757059E-01 -0.21006618313E-01  0.10816567998E+00  0.89032090726E+00  0.88000000000E+00 0.  1.
        -11    1    4    4    0    0 -0.48219214335E-01  0.13424083603E-01 -0.58713027227E-01  0.77154256777E-01  0.51100000000E-03 0.  1.
         11    1    4    4    0    0 -0.30132884239E-01  0.25753845031E-01 -0.38370508383E-01  0.55170719418E-01  0.51100000000E-03 0. -1.
</event>
<event>
 8    1  0.1106905E+005  0.1043930E+01  0.7957747E-01            NaN
         13   -1    0    0    0    0  0.00000000000E+00  0.00000000000E+00  0.74505805969E-08  0.10566000000E+00  0.10566000000E+00 0.  1.
     999900   -1    0    0    0    0 -0.00000000000E+00 -0.00000000000E+00 -0.74505805969E-08  0.93827000000E+00  0.93827000000E+00 0. -1.
     999902    2    1    2    0    0 -0.17423597348E-01  0.14948575250E-01 -0.42970943686E-02  0.10205739159E+01  0.10203066260E+01 0.  0.
     999903    2    3    3    0    0 -0.72637049683E-01  0.18463339542E-01 -0.10770782537E+00  0.13279316692E+00  0.20396412479E-01 0.  0.
         14    1    1    2    0    0  0.17423597348E-01 -0.14948575250E-01  0.42970943686E-02  0.23356084144E-01  0.00000000000E+00 0.  1.
     999901    1    3    3    0    0  0.55213452335E-01 -0.35147642925E-02  0.10341073100E+00  0.88778074893E+00  0.88000000000E+00 0.  1.
        -11    1    4    4    0    0 -0.51449020977E-01  0.10155161473E-01 -0.58446918854E-01  0.78526635663E-01  0.51100000000E-03 0.  1.
         11    1    4    4    0    0 -0.21188028706E-01  0.83081780688E-02 -0.49260906517E-01  0.54266531261E-01  0.51100000000E-03 0. -1.
</event>
<event>
 8    1  0.1106905E+005  0.1043930E+01  0.7957747E-01            NaN
         13   -1    0    0    0    0  0.00000000000E+00  0.00000000000E+00  0.74505805969E-08  0.10566000000E+00  0.10566000000E+00 0.  1.
     999900   -1    0    0    0    0 -0.00000000000E+00 -0.00000000000E+00 -0.74505805969E-08  0.93827000000E+00  0.93827000000E+00 0. -1.
     999902    2    1    2    0    0  0.18575570530E-01 -0.11906835806E-01 -0.51151849654E-02  0.10212807246E+01  0.10210295435E+01 0.  0.
     999903    2    3    3    0    0 -0.99556269142E-01  0.79267143012E-01 -0.30079091698E-02  0.12871573168E+00  0.19077771811E-01 0.  0.
         14    1    1    2    0    0 -0.18575570530E-01  0.11906835806E-01  0.51151849654E-02  0.22649275411E-01  0.00000000000E+00 0.  1.
     999901    1    3    3    0    0  0.11813183967E+00 -0.91173978818E-01 -0.21072757956E-02  0.89256499291E+00  0.88000000000E+00 0. -1.
        -11    1    4    4    0    0 -0.30137916041E-01  0.22325226992E-01  0.77048443091E-02  0.38292760287E-01  0.51100000000E-03 0. -1.
         11    1    4    4    0    0 -0.69418353100E-01  0.56941916020E-01 -0.10712753479E-01  0.90422971392E-01  0.51100000000E-03 0.  1.
</event>
<event>
 8    1  0.1106905E+005  0.1043930E+01  0.7957747E-01            NaN
         13   -1    0    0    0    0  0.00000000000E+00  0.00000000000E+00  0.74505805969E-08  0.10566000000E+00  0.10566000000E+00 0.  1.
     999900   -1    0    0    0    0 -0.00000000000E+00 -0.00000000000E+00 -0.74505805969E-08  0.93827000000E+00  0.93827000000E+00 0.  1.
     999902    2    1    2    0    0 -0.33944502151E-02 -0.18353325514E-01 -0.13982757192E-01  0.10206086718E+01  0.10203421860E+01 0.  0.
     999903    2    3    3    0    0  0.16424111724E-01  0.86352537115E-01  0.90819748150E-01  0.12800592804E+00  0.20267679869E-01 0.  0.
         14    1    1    2    0    0  0.33944502151E-02  0.18353325514E-01  0.13982757192E-01  0.23321328186E-01  0.00000000000E+00 0.  1.
     999901    1    3    3    0    0 -0.19818561939E-01 -0.10470586263E+00 -0.10480250534E+00  0.89260274377E+00  0.88000000000E+00 0.  1.
        -11    1    4    4    0    0  0.12658777820E-01  0.41722769490E-01  0.32061907537E-01  0.54122649471E-01  0.51100000000E-03 0.  1.
         11    1    4    4    0    0  0.37653339036E-02  0.44629767624E-01  0.58757840613E-01  0.73883278569E-01  0.51100000000E-03 0. -1.
</event>
<event>
 8    1  0.1106905E+005  0.1043930E+01  0.7957747E-01            NaN
         13   -1    0    0    0    0  0.00000000000E+00  0.00000000000E+00  0.74505805969E-08  0.10566000000E+00  0.10566000000E+00 0. -1.
     999900   -1    0    0    0    0 -0.00000000000E+00 -0.00000000000E+00 -0.74505805969E-08  0.93827000000E+00  0.93827000000E+00 0.  1.
     999902    2    1    2    0    0  0.21761937366E-01 -0.18481968146E-02 -0.94726384635E-02  0.10201239371E+01  0.10198461249E+01 0.  0.
     999903    2    3    3    0    0 -0.84884292062E-01  0.12184585293E-01 -0.94863500188E-01  0.12947140305E+00  0.20247305526E-01 0.  0.
         14    1    1    2    0    0 -0.21761937366E-01  0.18481968146E-02  0.94726384635E-02  0.23806062859E-01  0.00000000000E+00 0.  1.
     999901    1    3    3    0    0  0.10664622943E+00 -0.14032782108E-01  0.85390861724E-01  0.89065253410E+00  0.88000000000E+00 0. -1.
        -11    1    4    4    0    0 -0.47358550241E-01 -0.29380044921E-02 -0.46859189053E-01  0.66689645906E-01  0.51100000000E-03 0.  1.
         11    1    4    4    0    0 -0.37525741821E-01  0.15122589786E-01 -0.48004311134E-01  0.62781757140E-01  0.51100000000E-03 0. -1.
</event>
<event>
 8    1  0.1106905E+005  0.1043930E+01  0.7957747E-01            NaN
         13   -1    0    0    0    0  0.00000000000E+00  0.00000000000E+00  0.74505805969E-08  0.10566000000E+00  0.10566000000E+00 0.  1.
     999900   -1    0    0    0    0 -0.00000000000E+00 -0.00000000000E+00 -0.74505805969E-08  0.93827000000E+00  0.93827000000E+00 0. -1.
     999902    2    1    2    0    0  0.20139655216E-01  0.25999959211E-02  0.12194365112E-01  0.10202431211E+01  0.10199681161E+01 0.  0.
     999903    2    3    3    0    0 -0.36452153009E-01 -0.10632351035E+00 -0.59581527571E-01  0.12882922076E+00  0.20336208593E-01 0.  0.
         14    1    1    2    0    0 -0.20139655216E-01 -0.25999959211E-02 -0.12194365112E-01  0.23686878888E-01  0.00000000000E+00 0.  1.
     999901    1    3    3    0    0  0.56591808225E-01  0.10892350627E+00  0.71775892683E-01  0.89141390036E+00  0.88000000000E+00 0.  1.
        -11    1    4    4    0    0 -0.23534128177E-01 -0.53116698765E-01 -0.40593174607E-01  0.70875283579E-01  0.51100000000E-03 0.  1.
         11    1    4    4    0    0 -0.12918024832E-01 -0.53206811589E-01 -0.18988352964E-01  0.57953937177E-01  0.51100000000E-03 0. -1.
</event>
<event>
 8    1  0.1203002E+005  0.1043930E+01  0.7957747E-01            NaN
         13   -1    0    0    0    0  0.00000000000E+00  0.00000000000E+00  0.74505805969E-08  0.10566000000E+00  0.10566000000E+00 0.  1.
     999900   -1    0    0    0    0 -0.00000000000E+00 -0.00000000000E+00 -0.74505805969E-08  0.93827000000E+00  0.93827000000E+00 0.  1.
     999902    2    1    2    0    0 -0.20760188875E-01  0.11539513295E-02 -0.19344445680E-01  0.10155306228E+01  0.10151334500E+01 0.  0.
     999903    2    3    3    0    0 -0.46711664313E-01 -0.10254496032E+00 -0.58090923251E-01  0.12821544044E+00  0.19162341528E-01 0.  0.
         14    1    1    2    0    0  0.20760188875E-01 -0.11539513295E-02  0.19344445680E-01  0.28399377184E-01  0.00000000000E+00 0.  1.
     999901    1    3    3    0    0  0.25951475438E-01  0.10369891165E+00  0.38746477571E-01  0.88731518238E+00  0.88000000000E+00 0. -1.
        -11    1    4    4    0    0 -0.17777996605E-01 -0.50397061465E-01 -0.18166376619E-01  0.56446428833E-01  0.51100000000E-03 0. -1.
         11    1    4    4    0    0 -0.28933667708E-01 -0.52147898854E-01 -0.39924546632E-01  0.71769011605E-01  0.51100000000E-03 0.  1.
</event>
<event>
 8    1  0.1106905E+005  0.1043930E+01  0.7957747E-01            NaN
         13   -1    0    0    0    0  0.00000000000E+00  0.00000000000E+00  0.74505805969E-08  0.10566000000E+00  0.10566000000E+00 0.  1.
     999900   -1    0    0    0    0 -0.00000000000E+00 -0.00000000000E+00 -0.74505805969E-08  0.93827000000E+00  0.93827000000E+00 0.  1.
     999902    2    1    2    0    0  0.70487028949E-02  0.18411621628E-01 -0.90659199859E-02  0.10222306238E+01  0.10220002863E+01 0.  0.
     999903    2    3    3    0    0 -0.12610771319E+00  0.27029072816E-01  0.15990609699E-01  0.13181907775E+00  0.22064531651E-01 0.  0.
         14    1    1    2    0    0 -0.70487028949E-02 -0.18411621628E-01  0.90659199859E-02  0.21699376227E-01  0.00000000000E+00 0. -1.
     999901    1    3    3    0    0  0.13315641609E+00 -0.86174511884E-02 -0.25056529685E-01  0.89041154602E+00  0.88000000000E+00 0.  1.
        -11    1    4    4    0    0 -0.62403857859E-01  0.24615541271E-01  0.74364978116E-02  0.67496140396E-01  0.51100000000E-03 0.  1.
         11    1    4    4    0    0 -0.63703855332E-01  0.24135315451E-02  0.85541118872E-02  0.64322937354E-01  0.51100000000E-03 0. -1.
</event>
<event>
 8    1  0.1106905E+005  0.1043930E+01  0.7957747E-01            NaN
         13   -1    0    0    0    0  0.00000000000E+00  0.00000000000E+00  0.74505805969E-08  0.10566000000E+00  0.10566000000E+00 0. -1.
     999900   -1    0    0    0    0 -0.00000000000E+00 -0.00000000000E+00 -0.74505805969E-08  0.93827000000E+00  0.93827000000E+00 0. -1.
     999902    2    1    2    0    0 -0.11724276829E-02  0.18884072415E-01 -0.11938090069E-01  0.10215581254E+01  0.10213131267E+01 0.  0.
     999903    2    3    3    0    0  0.38792884646E-01  0.17814722394E-01  0.12175355784E+00  0.13056327335E+00  0.20014676285E-01 0.  0.
         14    1    1    2    0    0  0.11724276829E-02 -0.18884072415E-01  0.11938090069E-01  0.22371874578E-01  0.00000000000E+00 0.  1.
     999901    1    3    3    0    0 -0.39965312329E-01  0.10693500211E-02 -0.13369164791E+00  0.89099485207E+00  0.88000000000E+00 0.  1.
        -11    1    4    4    0    0  0.18002344696E-01  0.18799224807E-01  0.60343052376E-01  0.65719406258E-01  0.51100000000E-03 0.  1.
         11    1    4    4    0    0  0.20790539950E-01 -0.98450241351E-03  0.61410505468E-01  0.64843867091E-01  0.51100000000E-03 0. -1.
</event>
<event>
 8    1  0.1106905E+005  0.1043930E+01  0.7957747E-01            NaN
         13   -1    0    0    0    0  0.00000000000E+00  0.00000000000E+00  0.74505805969E-08  0.10566000000E+00  0.10566000000E+00 0.  1.
     999900   -1    0    0    0    0 -0.00000000000E+00 -0.00000000000E+00 -0.74505805969E-08  0.93827000000E+00  0.93827000000E+00 0. -1.
     999902    2    1    2    0    0  0.11385400211E-01 -0.44602600105E-02  0.20067680521E-01  0.10204303605E+01  0.10201597363E+01 0.  0.
     999903    2    3    3    0    0  0.46117069364E-02 -0.82853613943E-01 -0.96625745431E-01  0.12924645321E+00  0.21957272234E-01 0.  0.
         14    1    1    2    0    0 -0.11385400211E-01  0.44602600105E-02 -0.20067680521E-01  0.23499639547E-01  0.00000000000E+00 0. -1.
     999901    1    3    3    0    0  0.67736932743E-02  0.78393353933E-01  0.11669342595E+00  0.89118390724E+00  0.88000000000E+00 0.  1.
        -11    1    4    4    0    0 -0.83111307446E-02 -0.46602936178E-01 -0.54178220576E-01  0.71947545201E-01  0.51100000000E-03 0.  1.
         11    1    4    4    0    0  0.12922837681E-01 -0.36250677765E-01 -0.42447524856E-01  0.57298908013E-01  0.51100000000E-03 0. -1.
</event>
<event>
 8    1  0.1106905E+005  0.1043930E+01  0.7957747E-01            NaN
         13   -1    0    0    0    0  0.00000000000E+00  0.00000000000E+00  0.74505805969E-08  0.10566000000E+00  0.10566000000E+00 0.  1.
     999900   -1    0    0    0    0 -0.00000000000E+00 -0.00000000000E+00 -0.74505805969E-08  0.93827000000E+00  0.93827000000E+00 0. -1.
     999902    2    1    2    0    0 -0.61527817661E-02 -0.13750168250E-01  0.18289077456E-01  0.10202358192E+01  0.10199606426E+01 0.  0.
     999903    2    3    3    0    0  0.14560907021E-01  0.10068871995E+00  0.79981912617E-01  0.13044296579E+00  0.16371397033E-01 0.  0.
         14    1    1    2    0    0  0.61527817661E-02  0.13750168250E-01 -0.18289077456E-01  0.23694180817E-01  0.00000000000E+00 0. -1.
     999901    1    3    3    0    0 -0.20713688787E-01 -0.11443888820E+00 -0.61692835160E-01  0.88979285339E+00  0.88000000000E+00 0.  1.
        -11    1    4    4    0    0  0.97498319641E-02  0.43589750723E-01  0.44449750233E-01  0.63017196131E-01  0.51100000000E-03 0.  1.
         11    1    4    4    0    0  0.48110750570E-02  0.57098969226E-01  0.35532162384E-01  0.67425769662E-01  0.51100000000E-03 0. -1.
</event>
<event>
 8    1  0.1106905E+005  0.1043930E+01  0.7957747E-01            NaN
         13   -1    0    0    0    0  0.00000000000E+00  0.00000000000E+00  0.74505805969E-08  0.10566000000E+00  0.10566000000E+00 0.  1.
     999900   -1    0    0    0    0 -0.00000000000E+00 -0.00000000000E+00 -0.74505805969E-08  0.93827000000E+00  0.93827000000E+00 0.  1.
     999902    2    1    2    0    0  0.10417780928E-02  0.13209603768E-01  0.17976655377E-01  0.10215975332E+01  0.10213534064E+01 0.  0.
     999903    2    3    3    0    0  0.29693369045E-01 -0.12492481898E+00  0.11051302958E-01  0.13033438864E+00  0.19416874155E-01 0.  0.
         14    1    1    2    0    0 -0.10417780928E-02 -0.13209603768E-01 -0.17976655377E-01  0.22332466766E-01  0.00000000000E+00 0. -1.
     999901    1    3    3    0    0 -0.28651590952E-01  0.13813442275E+00  0.69253524199E-02  0.89126314460E+00  0.88000000000E+00 0. -1.
        -11    1    4    4    0    0  0.16426812912E-01 -0.41872243243E-01 -0.29116958831E-02  0.45076202486E-01  0.51100000000E-03 0.  1.
         11    1    4    4    0    0  0.13266556133E-01 -0.83052575736E-01  0.13962998841E-01  0.85258186150E-01  0.51100000000E-03 0. -1.
</event>
<event>
 8    1  0.1106905E+005  0.1043930E+01  0.7957747E-01            NaN
         13   -1    0    0    0    0  0.00000000000E+00  0.00000000000E+00  0.74505805969E-08  0.10566000000E+00  0.10566000000E+00 0.  1.
     999900   -1    0    0    0    0 -0.00000000000E+00 -0.00000000000E+00 -0.74505805969E-08  0.93827000000E+00  0.93827000000E+00 0.  1.
     999902    2    1    2    0    0  0.16498426089E-01 -0.16874229100E-01  0.43552274597E-02  0.10199319651E+01  0.10196496005E+01 0.  0.
     999903    2    3    3    0    0 -0.42753167917E-01 -0.11771913493E+00  0.34655073914E-01  0.13167607457E+00  0.21259971089E-01 0.  0.
         14    1    1    2    0    0 -0.16498426089E-01  0.16874229100E-01 -0.43552274597E-02  0.23998034864E-01  0.00000000000E+00 0.  1.
     999901    1    3    3    0    0  0.59251594006E-01  0.10084490583E+00 -0.30299846454E-01  0.88825589056E+00  0.88000000000E+00 0.  1.
        -11    1    4    4    0    0 -0.13142477623E-01 -0.62293315232E-01  0.11456935673E-01  0.64689290742E-01  0.51100000000E-03 0.  1.
         11    1    4    4    0    0 -0.29610690294E-01 -0.55425819700E-01  0.23198138241E-01  0.66986783831E-01  0.51100000000E-03 0. -1.
</event>
<event>
 8    1  0.1106905E+005  0.1043930E+01  0.7957747E-01            NaN
         13   -1    0    0    0    0  0.00000000000E+00  0.00000000000E+00  0.74505805969E-08  0.10566000000E+00  0.10566000000E+00 0.  1.
     999900   -1    0    0    0    0 -0.00000000000E+00 -0.00000000000E+00 -0.74505805969E-08  0.93827000000E+00  0.93827000000E+00 0.  1.
     999902    2    1    2    0    0 -0.21242400738E-01 -0.51597608472E-02  0.11504494400E-01  0.10192274472E+01  0.10189280510E+01 0.  0.
     999903    2    3    3    0    0  0.41447526410E-01  0.35535017635E-03  0.12177061187E+00  0.13011605936E+00  0.19598042443E-01 0.  0.
         14    1    1    2    0    0  0.21242400738E-01  0.51597608472E-02 -0.11504494400E-01  0.24702552753E-01  0.00000000000E+00 0.  1.
     999901    1    3    3    0    0 -0.62689927148E-01 -0.55151110235E-02 -0.11026611747E+00  0.88911138789E+00  0.88000000000E+00 0.  1.
        -11    1    4    4    0    0  0.28256114349E-01  0.39907271223E-02  0.55093105814E-01  0.62047121854E-01  0.51100000000E-03 0. -1.
         11    1    4    4    0    0  0.13191412061E-01 -0.36353769460E-02  0.66677506057E-01  0.68068937502E-01  0.51100000000E-03 0.  1.
</event>
<event>
 8    1  0.1106905E+005  0.1043930E+01  0.7957747E-01            NaN
         13   -1    0    0    0    0  0.00000000000E+00  0.00000000000E+00  0.74505805969E-08  0.10566000000E+00  0.10566000000E+00 0.  1.
     999900   -1    0    0    0    0 -0.00000000000E+00 -0.00000000000E+00 -0.74505805969E-08  0.93827000000E+00  0.93827000000E+00 0. -1.
     999902    2    1    2    0    0  0.15313206771E-01  0.58380522653E-02  0.11868284839E-01  0.10236955408E+01  0.10234955431E+01 0.  0.
     999903    2    3    3    0    0 -0.78988921142E-01 -0.42206586224E-01 -0.93719196236E-01  0.13108706288E+00  0.19490631791E-01 0.  0.
         14    1    1    2    0    0 -0.15313206771E-01 -0.58380522653E-02 -0.11868284839E-01  0.20234459244E-01  0.00000000000E+00 0. -1.
     999901    1    3    3    0    0  0.94302127914E-01  0.48044638489E-01  0.10558748107E+00  0.89260847788E+00  0.88000000000E+00 0.  1.
        -11    1    4    4    0    0 -0.33901885005E-01 -0.17115991957E-01 -0.26347729024E-01  0.46225089868E-01  0.51100000000E-03 0.  1.
         11    1    4    4    0    0 -0.45087036137E-01 -0.25090594266E-01 -0.67371467212E-01  0.84861973012E-01  0.51100000000E-03 0. -1.
</event>
<event>
 8    1  0.1106905E+005  0.1043930E+01  0.7957747E-01            NaN
         13   -1    0    0    0    0  0.00000000000E+00  0.00000000000E+00  0.74505805969E-08  0.10566000000E+00  0.10566000000E+00 0.  1.
     999900   -1    0    0    0    0 -0.00000000000E+00 -0.00000000000E+00 -0.74505805969E-08  0.93827000000E+00  0.93827000000E+00 0. -1.
     999902    2    1    2    0    0 -0.22130989254E-01 -0.10118971814E-01  0.30368236048E-02  0.10194066117E+01  0.10191115952E+01 0.  0.
     999903    2    3    3    0    0  0.99041272478E-01 -0.76204851135E-01 -0.24636562011E-01  0.12821870967E+00  0.14721560084E-01 0.  0.
         14    1    1    2    0    0  0.22130989254E-01  0.10118971814E-01 -0.30368236048E-02  0.24523388296E-01  0.00000000000E+00 0. -1.
     999901    1    3    3    0    0 -0.12117226173E+00  0.66085879321E-01  0.27673385616E-01  0.89118790203E+00  0.88000000000E+00 0.  1.
        -11    1    4    4    0    0  0.78699916139E-02 -0.36216298052E-02  0.14483564094E-02  0.87983991577E-02  0.51100000000E-03 0. -1.
         11    1    4    4    0    0  0.91171280865E-01 -0.72583221329E-01 -0.26084918421E-01  0.11942031051E+00  0.51100000000E-03 0.  1.
</event>
<event>
 8    1  0.1106905E+005  0.1043930E+01  0.7957747E-01            NaN
         13   -1    0    0    0    0  0.00000000000E+00  0.00000000000E+00  0.74505805969E-08  0.10566000000E+00  0.10566000000E+00 0.  1.
     999900   -1    0    0    0    0 -0.00000000000E+00 -0.00000000000E+00 -0.74505805969E-08  0.93827000000E+00  0.93827000000E+00 0. -1.
     999902    2    1    2    0    0 -0.68719711782E-02  0.16972304142E-01 -0.13690936156E-01  0.10210668237E+01  0.10208108217E+01 0.  0.
     999903    2    3    3    0    0 -0.73607021249E-01 -0.99660743399E-01  0.33196133249E-01  0.12963245602E+00  0.18770536433E-01 0.  0.
         14    1    1    2    0    0  0.68719711782E-02 -0.16972304142E-01  0.13690936156E-01  0.22863176257E-01  0.00000000000E+00 0.  1.
     999901    1    3    3    0    0  0.66735050071E-01  0.11663304754E+00 -0.46887069405E-01  0.89143436773E+00  0.88000000000E+00 0.  1.
        -11    1    4    4    0    0 -0.67666652377E-01 -0.80930949794E-01  0.30343826578E-01  0.10977068557E+00  0.51100000000E-03 0.  1.
         11    1    4    4    0    0 -0.59403688720E-02 -0.18729793605E-01  0.28523066710E-02  0.19861770444E-01  0.51100000000E-03 0. -1.
</event>
<event>
 8    1  0.1106905E+005  0.1043930E+01  0.7957747E-01            NaN
         13   -1    0    0    0    0  0.00000000000E+00  0.00000000000E+00  0.74505805969E-08  0.10566000000E+00  0.10566000000E+00 0.  1.
     999900   -1    0    0    0    0 -0.00000000000E+00 -0.00000000000E+00 -0.74505805969E-08  0.93827000000E+00  0.93827000000E+00 0. -1.
     999902    2    1    2    0    0 -0.20820151014E-01  0.90175851418E-02  0.42150810850E-02  0.10208526856E+01  0.10205918103E+01 0.  0.
     999903    2    3    3    0    0  0.41039041105E-01  0.80651606514E-02 -0.12124409895E+00  0.12980416135E+00  0.19993475511E-01 0.  0.
         14    1    1    2    0    0  0.20820151014E-01 -0.90175851418E-02 -0.42150810850E-02  0.23077314371E-01  0.00000000000E+00 0.  1.
     999901    1    3    3    0    0 -0.61859192119E-01  0.95242449039E-03  0.12545918003E+00  0.89104852428E+00  0.88000000000E+00 0.  1.
        -11    1    4    4    0    0  0.27224686154E-01 -0.41243506829E-02 -0.64233333918E-01  0.69888311698E-01  0.51100000000E-03 0.  1.
         11    1    4    4    0    0  0.13814354951E-01  0.12189511334E-01 -0.57010765031E-01  0.59915849653E-01  0.51100000000E-03 0. -1.
</event>
<event>
 8    1  0.1106905E+005  0.1043930E+01  0.7957747E-01            NaN
         13   -1    0    0    0    0  0.00000000000E+00  0.00000000000E+00  0.74505805969E-08  0.10566000000E+00  0.10566000000E+00 0. -1.
     999900   -1    0    0    0    0 -0.00000000000E+00 -0.00000000000E+00 -0.74505805969E-08  0.93827000000E+00  0.93827000000E+00 0. -1.
     999902    2    1    2    0    0 -0.13387400609E-01 -0.45972874786E-04  0.19215878728E-01  0.10205104653E+01  0.10202417043E+01 0.  0.
     999903    2    3    3    0    0 -0.53980842338E-01 -0.37014832177E-01  0.11478495836E+00  0.13363506651E+00  0.19967854003E-01 0.  0.
         14    1    1    2    0    0  0.13387400609E-01  0.45972874786E-04 -0.19215878728E-01  0.23419534664E-01  0.00000000000E+00 0.  1.
     999901    1    3    3    0    0  0.40593441729E-01  0.36968859302E-01 -0.95569079632E-01  0.88687539883E+00  0.88000000000E+00 0. -1.
        -11    1    4    4    0    0 -0.28503862411E-01 -0.13079881887E-01  0.70891203592E-01  0.77520173827E-01  0.51100000000E-03 0. -1.
         11    1    4    4    0    0 -0.25476979927E-01 -0.23934950290E-01  0.43893754769E-01  0.56114892678E-01  0.51100000000E-03 0.  1.
</event>
<event>
 7    1  0.1106905E+005  0.1043930E+01  0.7957747E-01            NaN
         13   -1    0    0    0    0  0.00000000000E+00  0.00000000000E+00  0.74505805969E-08  0.10566000000E+00  0.10566000000E+00 0. -1.
     999900   -1    0    0    0    0 -0.00000000000E+00 -0.00000000000E+00 -0.74505805969E-08  0.93827000000E+00  0.93827000000E+00 0.  1.
     999903    2    1    2    0    0 -0.69613060013E-01  0.72777737603E-01  0.15272052966E-01  0.10376838346E+00  0.19800620931E-01 0.  0.
         14    1    1    2    0    0 -0.19464560102E-01  0.36428685205E-01 -0.26144727569E-01  0.48882154058E-01  0.00000000000E+00 0.  1.
     999901    1    1    2    0    0  0.89077620115E-01 -0.10920642281E+00  0.10872674603E-01  0.89127946248E+00  0.88000000000E+00 0.  1.
        -11    1    3    3    0    0 -0.46848374364E-01  0.38068950837E-01  0.28367212377E-02  0.60434454633E-01  0.51100000000E-03 0.  1.
         11    1    3    3    0    0 -0.22764685649E-01  0.34708786766E-01  0.12435331729E-01  0.43333928828E-01  0.51100000000E-03 0. -1.
</event>
<event>
 8    1  0.1106905E+005  0.1043930E+01  0.7957747E-01            NaN
         13   -1    0    0    0    0  0.00000000000E+00  0.00000000000E+00  0.74505805969E-08  0.10566000000E+00  0.10566000000E+00 0. -1.
     999900   -1    0    0    0    0 -0.00000000000E+00 -0.00000000000E+00 -0.74505805969E-08  0.93827000000E+00  0.93827000000E+00 0. -1.
     999902    2    1    2    0    0  0.21791607662E-01  0.80147878569E-02  0.53531956216E-02  0.10201021236E+01  0.10198237960E+01 0.  0.
     999903    2    3    3    0    0  0.32572216013E-01 -0.11495854779E+00  0.48762329715E-01  0.13042633115E+00  0.18890370411E-01 0.  0.
         14    1    1    2    0    0 -0.21791607662E-01 -0.80147878569E-02 -0.53531956216E-02  0.23827876369E-01  0.00000000000E+00 0. -1.
     999901    1    3    3    0    0 -0.10780608350E-01  0.12297333564E+00 -0.43409134094E-01  0.88967579248E+00  0.88000000000E+00 0. -1.
        -11    1    4    4    0    0  0.87335944909E-02 -0.63767563393E-01  0.29002482754E-01  0.70597329558E-01  0.51100000000E-03 0.  1.
         11    1    4    4    0    0  0.23838621522E-01 -0.51190984393E-01  0.19759846961E-01  0.59829001597E-01  0.51100000000E-03 0. -1.
</event>
<event>
 8    1  0.1106905E+005  0.1043930E+01  0.7957747E-01            NaN
         13   -1    0    0    0    0  0.00000000000E+00  0.00000000000E+00  0.74505805969E-08  0.10566000000E+00  0.10566000000E+00 0. -1.
     999900   -1    0    0    0    0 -0.00000000000E+00 -0.00000000000E+00 -0.74505805969E-08  0.93827000000E+00  0.93827000000E+00 0.  1.
     999902    2    1    2    0    0 -0.17227887311E-01  0.73187441370E-02  0.16070447118E-01  0.10192597064E+01  0.10189611011E+01 0.  0.
     999903    2    3    3    0    0 -0.10656924945E+00  0.68459139157E-01  0.32997750166E-01  0.13246403629E+00  0.20352167773E-01 0.  0.
         14    1    1    2    0    0  0.17227887311E-01 -0.73187441370E-02 -0.16070447118E-01  0.24670293625E-01  0.00000000000E+00 0.  1.
     999901    1    3    3    0    0  0.89341362134E-01 -0.61140395020E-01 -0.16927303048E-01  0.88679567008E+00  0.88000000000E+00 0.  1.
        -11    1    4    4    0    0 -0.54758015911E-01  0.47057638358E-01  0.19911816514E-01  0.74897284278E-01  0.51100000000E-03 0. -1.
         11    1    4    4    0    0 -0.51811233535E-01  0.21401500800E-01  0.13085933651E-01  0.57566752013E-01  0.51100000000E-03 0.  1.
</event>
<event>
 8    1  0.1106905E+005  0.1043930E+01  0.7957747E-01            NaN
         13   -1    0    0    0    0  0.00000000000E+00  0.00000000000E+00  0.74505805969E-08  0.10566000000E+00  0.10566000000E+00 0.  1.
     999900   -1    0    0    0    0 -0.00000000000E+00 -0.00000000000E+00 -0.74505805969E-08  0.93827000000E+00  0.93827000000E+00 0.  1.
     999902    2    1    2    0    0 -0.14992518163E-01 -0.16989641562E-01 -0.57173242383E-02  0.10205609753E+01  0.10202933857E+01 0.  0.
     999903    2    3    3    0    0 -0.72216997163E-01 -0.81528221346E-01  0.73317442333E-01  0.13281869080E+00  0.20080132472E-01 0.  0.
         14    1    1    2    0    0  0.14992518163E-01  0.16989641562E-01  0.57173242383E-02  0.23369024749E-01  0.00000000000E+00 0. -1.
     999901    1    3    3    0    0  0.57224479000E-01  0.64538579784E-01 -0.79034766571E-01  0.88774228445E+00  0.88000000000E+00 0.  1.
        -11    1    4    4    0    0 -0.40417948118E-01 -0.31278966892E-01  0.37575694523E-01  0.63436410994E-01  0.51100000000E-03 0.  1.
         11    1    4    4    0    0 -0.31799049045E-01 -0.50249254454E-01  0.35741747809E-01  0.69382279804E-01  0.51100000000E-03 0. -1.
</event>
<event>
 8    1  0.1106905E+005  0.1043930E+01  0.7957747E-01            NaN
         13   -1    0    0    0    0  0.00000000000E+00  0.00000000000E+00  0.74505805969E-08  0.10566000000E+00  0.10566000000E+00 0. -1.
     999900   -1    0    0    0    0 -0.00000000000E+00 -0.00000000000E+00 -0.74505805969E-08  0.93827000000E+00  0.93827000000E+00 0.  1.
     999902    2    1    2    0    0  0.64165769261E-02 -0.19644361822E-01 -0.86854880413E-02  0.10215132403E+01  0.10212672467E+01 0.  0.
     999903    2    3    3    0    0  0.55253016693E-01  0.60524500437E-02 -0.11906906955E+00  0.13290204356E+00  0.19899292782E-01 0.  0.
         14    1    1    2    0    0 -0.64165769261E-02  0.19644361822E-01  0.86854880413E-02  0.22416759653E-01  0.00000000000E+00 0. -1.
     999901    1    3    3    0    0 -0.48836439767E-01 -0.25696811866E-01  0.11038358151E+00  0.88861119679E+00  0.88000000000E+00 0. -1.
        -11    1    4    4    0    0  0.24743247689E-01  0.63650090581E-02 -0.75515596217E-01  0.79722067456E-01  0.51100000000E-03 0.  1.
         11    1    4    4    0    0  0.30509769005E-01 -0.31255901438E-03 -0.43553473334E-01  0.53179976103E-01  0.51100000000E-03 0. -1.
</event>
<event>
 8    1  0.1106905E+005  0.1043930E+01  0.7957747E-01            NaN
         13   -1    0    0    0    0  0.00000000000E+00  0.00000000000E+00  0.74505805969E-08  0.10566000000E+00  0.10566000000E+00 0. -1.
     999900   -1    0    0    0    0 -0.00000000000E+00 -0.00000000000E+00 -0.74505805969E-08  0.93827000000E+00  0.93827000000E+00 0. -1.
     999902    2    1    2    0    0  0.20184610505E-01 -0.37421497612E-02  0.11479789058E-01  0.10204096313E+01  0.10201385239E+01 0.  0.
     999903    2    3    3    0    0 -0.10004558950E+00 -0.21139960079E-01  0.76609422899E-01  0.12967967561E+00  0.22176489754E-01 0.  0.
         14    1    1    2    0    0 -0.20184610505E-01  0.37421497612E-02 -0.11479789058E-01  0.23520368681E-01  0.00000000000E+00 0.  1.
     999901    1    3    3    0    0  0.12023020001E+00  0.17397810317E-01 -0.65129633841E-01  0.89072995571E+00  0.88000000000E+00 0.  1.
        -11    1    4    4    0    0 -0.61821992487E-02  0.22968483148E-02  0.10825410468E-01  0.12686438923E-01  0.51100000000E-03 0.  1.
         11    1    4    4    0    0 -0.93863390253E-01 -0.23436808393E-01  0.65784012431E-01  0.11699323668E+00  0.51100000000E-03 0. -1.
</event>
<event>
 8    1  0.1106905E+005  0.1043930E+01  0.7957747E-01            NaN
         13   -1    0    0    0    0  0.00000000000E+00  0.00000000000E+00  0.74505805969E-08  0.10566000000E+00  0.10566000000E+00 0. -1.
     999900   -1    0    0    0    0 -0.00000000000E+00 -0.00000000000E+00 -0.74505805969E-08  0.93827000000E+00  0.93827000000E+00 0.  1.
     999902    2    1    2    0    0  0.26203738895E-02 -0.23202821946E-01  0.13126219979E-01  0.10171431570E+01  0.10167903751E+01 0.  0.
     999903    2    3    3    0    0  0.52153721650E-01  0.10121047886E+00 -0.47435545175E-01  0.12495486448E+00  0.20000387465E-01 0.  0.
         14    1    1    2    0    0 -0.26203738895E-02  0.23202821946E-01 -0.13126219979E-01  0.26786842974E-01  0.00000000000E+00 0.  1.
     999901    1    3    3    0    0 -0.49533347761E-01 -0.12441330080E+00  0.60561765154E-01  0.89218829255E+00  0.88000000000E+00 0. -1.
        -11    1    4    4    0    0  0.13066542513E-01  0.22265598562E-01 -0.20086566500E-01  0.32714258165E-01  0.51100000000E-03 0. -1.
         11    1    4    4    0    0  0.39087179138E-01  0.78944880295E-01 -0.27348978675E-01  0.92240606315E-01  0.51100000000E-03 0.  1.
</event>
<event>
 8    1  0.1106905E+005  0.1043930E+01  0.7957747E-01            NaN
         13   -1    0    0    0    0  0.00000000000E+00  0.00000000000E+00  0.74505805969E-08  0.10566000000E+00  0.10566000000E+00 0.  1.
     999900   -1    0    0    0    0 -0.00000000000E+00 -0.00000000000E+00 -0.74505805969E-08  0.93827000000E+00  0.93827000000E+00 0.  1.
     999902    2    1    2    0    0 -0.37015353705E-02  0.57220026796E-02  0.21262986976E-01  0.10216016034E+01  0.10213575666E+01 0.  0.
     999903    2    3    3    0    0 -0.91418673492E-01  0.90566955761E-01  0.27771938169E-01  0.13315614711E+00  0.19988287210E-01 0.  0.
         14    1    1    2    0    0  0.37015353705E-02 -0.57220026796E-02 -0.21262986976E-01  0.22328396581E-01  0.00000000000E+00 0. -1.
     999901    1    3    3    0    0  0.87717138121E-01 -0.84844953082E-01 -0.65089511933E-02  0.88844545631E+00  0.88000000000E+00 0.  1.
        -11    1    4    4    0    0 -0.61047969669E-01  0.72250286510E-01  0.17171463574E-01  0.96135731046E-01  0.51100000000E-03 0.  1.
         11    1    4    4    0    0 -0.30370703823E-01  0.18316669251E-01  0.10600474595E-01  0.37020416067E-01  0.51100000000E-03 0. -1.
</event>
<event>
 8    1  0.1106905E+005  0.1043930E+01  0.7957747E-01            NaN
         13   -1    0    0    0    0  0.00000000000E+00  0.00000000000E+00  0.74505805969E-08  0.10566000000E+00  0.10566000000E+00 0.  1.
     999900   -1    0    0    0    0 -0.00000000000E+00 -0.00000000000E+00 -0.74505805969E-08  0.93827000000E+00  0.93827000000E+00 0. -1.
     999902    2    1    2    0    0  0.17527866122E-01 -0.10147310408E-02  0.16842591950E-01  0.10196004157E+01  0.10193100995E+01 0.  0.
     999903    2    3    3    0    0  0.10137326943E+00  0.58388723867E-01 -0.54939953414E-01  0.13071822105E+00  0.19572225288E-01 0.  0.
         14    1    1    2    0    0 -0.17527866122E-01  0.10147310408E-02 -0.16842591950E-01  0.24329584325E-01  0.00000000000E+00 0. -1.
     999901    1    3    3    0    0 -0.83845403306E-01 -0.59403454908E-01  0.71782545364E-01  0.88888219463E+00  0.88000000000E+00 0.  1.
        -11    1    4    4    0    0  0.39739907263E-01  0.34064175758E-01 -0.23565984568E-01  0.57404225011E-01  0.51100000000E-03 0. -1.
         11    1    4    4    0    0  0.61633362165E-01  0.24324548109E-01 -0.31373968846E-01  0.73313996034E-01  0.51100000000E-03 0.  1.
</event>
<event>
 8    1  0.1106905E+005  0.1043930E+01  0.7957747E-01            NaN
         13   -1    0    0    0    0  0.00000000000E+00  0.00000000000E+00  0.74505805969E-08  0.10566000000E+00  0.10566000000E+00 0. -1.
     999900   -1    0    0    0    0 -0.00000000000E+00 -0.00000000000E+00 -0.74505805969E-08  0.93827000000E+00  0.93827000000E+00 0. -1.
     999902    2    1    2    0    0  0.91825208243E-02 -0.15086556979E-01  0.16080743833E-01  0.10200445816E+01  0.10197648921E+01 0.  0.
     999903    2    3    3    0    0  0.97276288091E-01  0.58857111637E-01 -0.58744700862E-01  0.12941164647E+00  0.19224945957E-01 0.  0.
         14    1    1    2    0    0 -0.91825208243E-02  0.15086556979E-01 -0.16080743833E-01  0.23885418405E-01  0.00000000000E+00 0.  1.
     999901    1    3    3    0    0 -0.88093767266E-01 -0.73943668616E-01  0.74825444695E-01  0.89063293513E+00  0.88000000000E+00 0.  1.
        -11    1    4    4    0    0  0.31606286251E-01  0.23961203312E-01 -0.11472715716E-01  0.41291414624E-01  0.51100000000E-03 0.  1.
         11    1    4    4    0    0  0.65670001839E-01  0.34895908325E-01 -0.47271985147E-01  0.88120231843E-01  0.51100000000E-03 0. -1.
</event>
<event>
 8    1  0.1106905E+005  0.1043930E+01  0.7957747E-01            NaN
         13   -1    0    0    0    0  0.00000000000E+00  0.00000000000E+00  0.74505805969E-08  0.10566000000E+00  0.10566000000E+00 0.  1.
     999900   -1    0    0    0    0 -0.00000000000E+00 -0.00000000000E+00 -0.74505805969E-08  0.93827000000E+00  0.93827000000E+00 0.  1.
     999902    2    1    2    0    0 -0.22615126716E-01 -0.89667583270E-02 -0.68630294097E-02  0.10186525815E+01  0.10183389092E+01 0.  0.
     999903    2    3    3    0    0 -0.98647125242E-01 -0.84714141801E-01  0.10563125599E-01  0.13196086410E+00  0.19858219749E-01 0.  0.
         14    1    1    2    0    0  0.22615126716E-01  0.89667583270E-02  0.68630294097E-02  0.25277418459E-01  0.00000000000E+00 0. -1.
     999901    1    3    3    0    0  0.76031998526E-01  0.75747383474E-01 -0.17426155009E-01  0.88669171744E+00  0.88000000000E+00 0. -1.
        -11    1    4    4    0    0 -0.39918091713E-01 -0.27336526121E-01 -0.40907095218E-02  0.48556510704E-01  0.51100000000E-03 0. -1.
         11    1    4    4    0    0 -0.58729033529E-01 -0.57377615680E-01  0.14653835121E-01  0.83404353395E-01  0.51100000000E-03 0.  1.
</event>
<event>
 8    1  0.1106905E+005  0.1043930E+01  0.7957747E-01            NaN
         13   -1    0    0    0    0  0.00000000000E+00  0.00000000000E+00  0.74505805969E-08  0.10566000000E+00  0.10566000000E+00 0. -1.
     999900   -1    0    0    0    0 -0.00000000000E+00 -0.00000000000E+00 -0.74505805969E-08  0.93827000000E+00  0.93827000000E+00 0. -1.
     999902    2    1    2    0    0  0.18685375843E-01  0.14338356011E-01 -0.41317453647E-03  0.10203736328E+01  0.10201016851E+01 0.  0.
     999903    2    3    3    0    0  0.87758440238E-01  0.49604588710E-01  0.84199354607E-01  0.13291992949E+00  0.20396501781E-01 0.  0.
         14    1    1    2    0    0 -0.18685375843E-01 -0.14338356011E-01  0.41317453647E-03  0.23556367222E-01  0.00000000000E+00 0.  1.
     999901    1    3    3    0    0 -0.69073064396E-01 -0.35266232699E-01 -0.84612529144E-01  0.88745370329E+00  0.88000000000E+00 0.  1.
        -11    1    4    4    0    0  0.53891672997E-01  0.25456409555E-01  0.37681745688E-01  0.70516071111E-01  0.51100000000E-03 0. -1.
         11    1    4    4    0    0  0.33866767242E-01  0.24148179155E-01  0.46517608919E-01  0.62403858378E-01  0.51100000000E-03 0.  1.
</event>
<event>
 8    1  0.1106905E+005  0.1043930E+01  0.7957747E-01            NaN
         13   -1    0    0    0    0  0.00000000000E+00  0.00000000000E+00  0.74505805969E-08  0.10566000000E+00  0.10566000000E+00 0.  1.
     999900   -1    0    0    0    0 -0.00000000000E+00 -0.00000000000E+00 -0.74505805969E-08  0.93827000000E+00  0.93827000000E+00 0.  1.
     999902    2    1    2    0    0  0.37895251923E-02 -0.18155411162E-01  0.16601684105E-01  0.10190383273E+01  0.10187342721E+01 0.  0.
     999903    2    3    3    0    0 -0.62830940046E-01  0.10616044674E+00  0.26536741420E-01  0.12775193993E+00  0.19964769742E-01 0.  0.
         14    1    1    2    0    0 -0.37895251923E-02  0.18155411162E-01 -0.16601684105E-01  0.24891672719E-01  0.00000000000E+00 0. -1.
     999901    1    3    3    0    0  0.66620465238E-01 -0.12431585790E+00 -0.99350573149E-02  0.89128638735E+00  0.88000000000E+00 0.  1.
        -11    1    4    4    0    0 -0.10328015138E-01  0.20624195828E-01  0.12987921122E-01  0.26475886507E-01  0.51100000000E-03 0. -1.
         11    1    4    4    0    0 -0.52502924908E-01  0.85536250914E-01  0.13548820298E-01  0.10127605342E+00  0.51100000000E-03 0.  1.
</event>
<event>
 7    1  0.1106905E+005  0.1043930E+01  0.7957747E-01            NaN
         13   -1    0    0    0    0  0.00000000000E+00  0.00000000000E+00  0.74505805969E-08  0.10566000000E+00  0.10566000000E+00 0.  1.
     999900   -1    0    0    0    0 -0.00000000000E+00 -0.00000000000E+00 -0.74505805969E-08  0.93827000000E+00  0.93827000000E+00 0. -1.
     999903    2    1    2    0    0 -0.66929002734E-01  0.46803257754E-01 -0.73975247378E-01  0.11171344229E+00  0.18371707081E-01 0.  0.
         14    1    1    2    0    0  0.10650982012E-01  0.23013810262E-01  0.39559843411E-01  0.46989999908E-01  0.00000000000E+00 0.  1.
     999901    1    1    2    0    0  0.56278020722E-01 -0.69817068016E-01  0.34415403966E-01  0.88522655780E+00  0.88000000000E+00 0. -1.
        -11    1    3    3    0    0 -0.42067417035E-01  0.25721903906E-01 -0.32922938320E-01  0.59291356075E-01  0.51100000000E-03 0. -1.
         11    1    3    3    0    0 -0.24861585698E-01  0.21081353848E-01 -0.41052309058E-01  0.52422086218E-01  0.51100000000E-03 0.  1.
</event>
<event>
 8    1  0.1106905E+005  0.1043930E+01  0.7957747E-01            NaN
         13   -1    0    0    0    0  0.00000000000E+00  0.00000000000E+00  0.74505805969E-08  0.10566000000E+00  0.10566000000E+00 0. -1.
     999900   -1    0    0    0    0 -0.00000000000E+00 -0.00000000000E+00 -0.74505805969E-08  0.93827000000E+00  0.93827000000E+00 0. -1.
     999902    2    1    2    0    0  0.12208565370E-01 -0.23760550551E-02  0.14569952029E-01  0.10247733247E+01  0.10245942557E+01 0.  0.
     999903    2    3    3    0    0  0.94473223369E-01  0.56690970659E-01 -0.74401124020E-01  0.13450806095E+00  0.20441015574E-01 0.  0.
         14    1    1    2    0    0 -0.12208565370E-01  0.23760550551E-02 -0.14569952029E-01  0.19156675289E-01  0.00000000000E+00 0. -1.
     999901    1    3    3    0    0 -0.82264657999E-01 -0.59067025714E-01  0.88971076048E-01  0.89026526376E+00  0.88000000000E+00 0.  1.
        -11    1    4    4    0    0  0.24523902254E-01  0.10055687928E-01 -0.27676844748E-01  0.38325024432E-01  0.51100000000E-03 0. -1.
         11    1    4    4    0    0  0.69949321115E-01  0.46635282731E-01 -0.46724279272E-01  0.96183036520E-01  0.51100000000E-03 0.  1.
</event>
<event>
 8    1  0.1106905E+005  0.1043930E+01  0.7957747E-01            NaN
         13   -1    0    0    0    0  0.00000000000E+00  0.00000000000E+00  0.74505805969E-08  0.10566000000E+00  0.10566000000E+00 0.  1.
     999900   -1    0    0    0    0 -0.00000000000E+00 -0.00000000000E+00 -0.74505805969E-08  0.93827000000E+00  0.93827000000E+00 0. -1.
     999902    2    1    2    0    0 -0.21553217280E-01  0.19464058887E-01  0.42548644884E-02  0.10145787711E+01  0.10141541245E+01 0.  0.
     999903    2    3    3    0    0 -0.73927399168E-01 -0.75177407669E-01  0.65494853885E-01  0.12584349086E+00  0.20738981053E-01 0.  0.
         14    1    1    2    0    0  0.21553217280E-01 -0.19464058887E-01 -0.42548644884E-02  0.29351228855E-01  0.00000000000E+00 0. -1.
     999901    1    3    3    0    0  0.52374181887E-01  0.94641466556E-01 -0.61239989397E-01  0.88873528028E+00  0.88000000000E+00 0.  1.
        -11    1    4    4    0    0 -0.33048345459E-01 -0.25206376675E-01  0.16198368111E-01  0.44611689198E-01  0.51100000000E-03 0.  1.
         11    1    4    4    0    0 -0.40879053709E-01 -0.49971030994E-01  0.49296485774E-01  0.81231801663E-01  0.51100000000E-03 0. -1.
</event>
<event>
 8    1  0.1106905E+005  0.1043930E+01  0.7957747E-01            NaN
         13   -1    0    0    0    0  0.00000000000E+00  0.00000000000E+00  0.74505805969E-08  0.10566000000E+00  0.10566000000E+00 0. -1.
     999900   -1    0    0    0    0 -0.00000000000E+00 -0.00000000000E+00 -0.74505805969E-08  0.93827000000E+00  0.93827000000E+00 0.  1.
     999902    2    1    2    0    0  0.69869600987E-02  0.19878803984E-01 -0.10714591190E-01  0.10202913257E+01  0.10200174520E+01 0.  0.
     999903    2    3    3    0    0  0.11681480517E+00 -0.53672073687E-01 -0.78539786770E-02  0.13041489029E+00  0.20493131191E-01 0.  0.
         14    1    1    2    0    0 -0.69869600987E-02 -0.19878803984E-01  0.10714591190E-01  0.23638674320E-01  0.00000000000E+00 0. -1.
     999901    1    3    3    0    0 -0.10982784508E+00  0.73550877671E-01 -0.28606125131E-02  0.88987643539E+00  0.88000000000E+00 0.  1.
        -11    1    4    4    0    0  0.68307264173E-01 -0.32020789947E-01 -0.14675524171E-01  0.76856004699E-01  0.51100000000E-03 0.  1.
         11    1    4    4    0    0  0.48507541002E-01 -0.21651283740E-01  0.68215454945E-02  0.53558885589E-01  0.51100000000E-03 0. -1.
</event>
<event>
 8    1  0.1106905E+005  0.1043930E+01  0.7957747E-01            NaN
         13   -1    0    0    0    0  0.00000000000E+00  0.00000000000E+00  0.74505805969E-08  0.10566000000E+00  0.10566000000E+00 0. -1.
     999900   -1    0    0    0    0 -0.00000000000E+00 -0.00000000000E+00 -0.74505805969E-08  0.93827000000E+00  0.93827000000E+00 0. -1.
     999902    2    1    2    0    0  0.59944349887E-02 -0.20437045413E-01  0.80031234735E-02  0.10211779438E+01  0.10209244521E+01 0.  0.
     999903    2    3    3    0    0 -0.63418613089E-01  0.69648055558E-01 -0.85543316518E-01  0.12894230615E+00  0.20873121099E-01 0.  0.
         14    1    1    2    0    0 -0.59944349887E-02  0.20437045413E-01 -0.80031234735E-02  0.22752056201E-01  0.00000000000E+00 0.  1.
     999901    1    3    3    0    0  0.69413048078E-01 -0.90085100971E-01  0.93546439992E-01  0.89223563765E+00  0.88000000000E+00 0.  1.
        -11    1    4    4    0    0 -0.51320377141E-01  0.45560707758E-01 -0.53182379567E-01  0.86822726396E-01  0.51100000000E-03 0.  1.
         11    1    4    4    0    0 -0.12098235947E-01  0.24087347800E-01 -0.32360936951E-01  0.42119579751E-01  0.51100000000E-03 0. -1.
</event>
<event>
 8    1  0.1106905E+005  0.1043930E+01  0.7957747E-01            NaN
         13   -1    0    0    0    0  0.00000000000E+00  0.00000000000E+00  0.74505805969E-08  0.10566000000E+00  0.10566000000E+00 0. -1.
     999900   -1    0    0    0    0 -0.00000000000E+00 -0.00000000000E+00 -0.74505805969E-08  0.93827000000E+00  0.93827000000E+00 0.  1.
     999902    2    1    2    0    0 -0.75766891326E-02  0.15103338902E-01 -0.20663459016E-01  0.10172373867E+01  0.10168871154E+01 0.  0.
     999903    2    3    3    0    0 -0.66896470390E-01 -0.10455712139E+00 -0.19717107198E-01  0.12715966104E+00  0.19325777996E-01 0.  0.
         14    1    1    2    0    0  0.75766891326E-02 -0.15103338902E-01  0.20663459016E-01  0.26692613261E-01  0.00000000000E+00 0. -1.
     999901    1    3    3    0    0  0.59319781258E-01  0.11966046029E+00 -0.94635181774E-03  0.89007772570E+00  0.88000000000E+00 0. -1.
        -11    1    4    4    0    0 -0.33688179354E-01 -0.35367111172E-01 -0.89497200370E-02  0.49659687782E-01  0.51100000000E-03 0.  1.
         11    1    4    4    0    0 -0.33208291036E-01 -0.69190010218E-01 -0.10767387161E-01  0.77499973257E-01  0.51100000000E-03 0. -1.
</event>
<event>
 8    1  0.1106905E+005  0.1043930E+01  0.7957747E-01            NaN
         13   -1    0    0    0    0  0.00000000000E+00  0.00000000000E+00  0.74505805969E-08  0.10566000000E+00  0.10566000000E+00 0.  1.
     999900   -1    0    0    0    0 -0.00000000000E+00 -0.00000000000E+00 -0.74505805969E-08  0.93827000000E+00  0.93827000000E+00 0. -1.
     999902    2    1    2    0    0 -0.12581441231E-01  0.18085220860E-01 -0.66976667457E-02  0.10209033499E+01  0.10206436318E+01 0.  0.
     999903    2    3    3    0    0  0.96027484235E-01 -0.74774337814E-01  0.35895883893E-01  0.12836034984E+00  0.19374870473E-01 0.  0.
         14    1    1    2    0    0  0.12581441231E-01 -0.18085220860E-01  0.66976667457E-02  0.23026650144E-01  0.00000000000E+00 0.  1.
     999901    1    3    3    0    0 -0.10860892547E+00  0.92859558674E-01 -0.42593550639E-01  0.89254300002E+00  0.88000000000E+00 0. -1.
        -11    1    4    4    0    0  0.62918272262E-01 -0.38837285536E-01  0.16335279537E-01  0.75724145494E-01  0.51100000000E-03 0. -1.
         11    1    4    4    0    0  0.33109211973E-01 -0.35937052277E-01  0.19560604356E-01  0.52636204343E-01  0.51100000000E-03 0.  1.
</event>
<event>
 8    1  0.1106905E+005  0.1043930E+01  0.7957747E-01            NaN
         13   -1    0    0    0    0  0.00000000000E+00  0.00000000000E+00  0.74505805969E-08  0.10566000000E+00  0.10566000000E+00 0. -1.
     999900   -1    0    0    0    0 -0.00000000000E+00 -0.00000000000E+00 -0.74505805969E-08  0.93827000000E+00  0.93827000000E+00 0.  1.
     999902    2    1    2    0    0 -0.75263376907E-02  0.19738214482E-01 -0.11953896768E-01  0.10196578242E+01  0.10193688930E+01 0.  0.
     999903    2    3    3    0    0 -0.39489882200E-01  0.12240764174E+00  0.24318379924E-01  0.13237074691E+00  0.19686276543E-01 0.  0.
         14    1    1    2    0    0  0.75263376907E-02 -0.19738214482E-01  0.11953896768E-01  0.24272175797E-01  0.00000000000E+00 0. -1.
     999901    1    3    3    0    0  0.31963544510E-01 -0.10266942726E+00 -0.36272276692E-01  0.88728707729E+00  0.88000000000E+00 0.  1.
        -11    1    4    4    0    0 -0.15584457908E-01  0.31178932733E-01 -0.44576316454E-03  0.34863462256E-01  0.51100000000E-03 0. -1.
         11    1    4    4    0    0 -0.23905424292E-01  0.91228709004E-01  0.24764143088E-01  0.97507284656E-01  0.51100000000E-03 0.  1.
</event>
<event>
 8    1  0.1106905E+005  0.1043930E+01  0.7957747E-01            NaN
         13   -1    0    0    0    0  0.00000000000E+00  0.00000000000E+00  0.74505805969E-08  0.10566000000E+00  0.10566000000E+00 0. -1.
     999900   -1    0    0    0    0 -0.00000000000E+00 -0.00000000000E+00 -0.74505805969E-08  0.93827000000E+00  0.93827000000E+00 0. -1.
     999902    2    1    2    0    0 -0.13951518169E-02  0.12755528617E-01 -0.19901443243E-01  0.10202505278E+01  0.10199756968E+01 0.  0.
     999903    2    3    3    0    0 -0.75878756938E-01  0.20840171660E-02 -0.10767689631E+00  0.13268857577E+00  0.15811870805E-01 0.  0.
         14    1    1    2    0    0  0.13951518169E-02 -0.12755528617E-01  0.19901443243E-01  0.23679472166E-01  0.00000000000E+00 0. -1.
     999901    1    3    3    0    0  0.74483605121E-01  0.10671511451E-01  0.87775453071E-01  0.88756195206E+00  0.88000000000E+00 0.  1.
        -11    1    4    4    0    0 -0.20089047322E-01 -0.44882337096E-02 -0.21095989911E-01  0.29479076910E-01  0.51100000000E-03 0.  1.
         11    1    4    4    0    0 -0.55789709616E-01  0.65722508756E-02 -0.86580906403E-01  0.10320949886E+00  0.51100000000E-03 0. -1.
</event>
<event>
 8    1  0.1106905E+005  0.1043930E+01  0.7957747E-01            NaN
         13   -1    0    0    0    0  0.00000000000E+00  0.00000000000E+00  0.74505805969E-08  0.10566000000E+00  0.10566000000E+00 0. -1.
     999900   -1    0    0    0    0 -0.00000000000E+00 -0.00000000000E+00 -0.74505805969E-08  0.93827000000E+00  0.93827000000E+00 0.  1.
     999902    2    1    2    0    0 -0.27270503062E-01  0.45868287475E-02  0.63689143051E-02  0.10155525018E+01  0.10151559493E+01 0.  0.
     999903    2    3    3    0    0 -0.99068014612E-01  0.26474364894E-02  0.81960774614E-01  0.12939632298E+00  0.14295432311E-01 0.  0.
         14    1    1    2    0    0  0.27270503062E-01 -0.45868287475E-02 -0.63689143051E-02  0.28377498210E-01  0.00000000000E+00 0. -1.
     999901    1    3    3    0    0  0.71797511550E-01  0.19393922581E-02 -0.75591860309E-01  0.88615617882E+00  0.88000000000E+00 0.  1.
        -11    1    4    4    0    0 -0.46936342807E-01  0.81638554814E-02  0.36785553273E-01  0.60192249194E-01  0.51100000000E-03 0. -1.
         11    1    4    4    0    0 -0.52131671806E-01 -0.55164189921E-02  0.45175221341E-01  0.69204073782E-01  0.51100000000E-03 0.  1.
</event>
<event>
 8    1  0.1106905E+005  0.1043930E+01  0.7957747E-01            NaN
         13   -1    0    0    0    0  0.00000000000E+00  0.00000000000E+00  0.74505805969E-08  0.10566000000E+00  0.10566000000E+00 0.  1.
     999900   -1    0    0    0    0 -0.00000000000E+00 -0.00000000000E+00 -0.74505805969E-08  0.93827000000E+00  0.93827000000E+00 0.  1.
     999902    2    1    2    0    0 -0.34879586034E-02  0.46513605437E-02  0.22426014323E-01  0.10207626279E+01  0.10204996891E+01 0.  0.
     999903    2    3    3    0    0  0.11485881150E+00 -0.29665467336E-01  0.53288405455E-01  0.13164166324E+00  0.20427599319E-01 0.  0.
         14    1    1    2    0    0  0.34879586034E-02 -0.46513605437E-02 -0.22426014323E-01  0.23167372068E-01  0.00000000000E+00 0. -1.
     999901    1    3    3    0    0 -0.11834677010E+00  0.34316827880E-01 -0.30862391132E-01  0.88912096469E+00  0.88000000000E+00 0. -1.
        -11    1    4    4    0    0  0.32128124033E-01 -0.15653600765E-01  0.94533095283E-02  0.36971309861E-01  0.51100000000E-03 0. -1.
         11    1    4    4    0    0  0.82730687463E-01 -0.14011866571E-01  0.43835095927E-01  0.94670353379E-01  0.51100000000E-03 0.  1.
</event>
<event>
 8    1  0.1106905E+005  0.1043930E+01  0.7957747E-01            NaN
         13   -1    0    0    0    0  0.00000000000E+00  0.00000000000E+00  0.74505805969E-08  0.10566000000E+00  0.10566000000E+00 0.  1.
     999900   -1    0    0    0    0 -0.00000000000E+00 -0.00000000000E+00 -0.74505805969E-08  0.93827000000E+00  0.93827000000E+00 0.  1.
     999902    2    1    2    0    0  0.17953582585E-01  0.13241713334E-01  0.85203052008E-02  0.10200496796E+01  0.10197701110E+01 0.  0.
     999903    2    3    3    0    0 -0.36497957981E-01 -0.88797876913E-01  0.84255966457E-01  0.12925624756E+00  0.19772348614E-01 0.  0.
         14    1    1    2    0    0 -0.17953582585E-01 -0.13241713334E-01 -0.85203052008E-02  0.23880320358E-01  0.00000000000E+00 0.  1.
     999901    1    3    3    0    0  0.54451540566E-01  0.10203959025E+00 -0.75735661256E-01  0.89079343208E+00  0.88000000000E+00 0.  1.
        -11    1    4    4    0    0 -0.54700509823E-02 -0.22978296965E-02  0.70723353494E-02  0.92455679846E-02  0.51100000000E-03 0. -1.
         11    1    4    4    0    0 -0.31027906998E-01 -0.86500047217E-01  0.77183631108E-01  0.12001067958E+00  0.51100000000E-03 0.  1.
</event>
<event>
 8    1  0.1106905E+005  0.1043930E+01  0.7957747E-01            NaN
         13   -1    0    0    0    0  0.00000000000E+00  0.00000000000E+00  0.74505805969E-08  0.10566000000E+00  0.10566000000E+00 0. -1.
     999900   -1    0    0    0    0 -0.00000000000E+00 -0.00000000000E+00 -0.74505805969E-08  0.93827000000E+00  0.93827000000E+00 0. -1.
     999902    2    1    2    0    0  0.21865168448E-01 -0.42566284825E-02  0.80782966049E-02  0.10202347821E+01  0.10199595811E+01 0.  0.
     999903    2    3    3    0    0 -0.65651866921E-01  0.58924021402E-01 -0.90784632912E-01  0.12814459333E+00  0.19924339313E-01 0.  0.
         14    1    1    2    0    0 -0.21865168448E-01  0.42566284825E-02 -0.80782966049E-02  0.23695217942E-01  0.00000000000E+00 0.  1.
     999901    1    3    3    0    0  0.87517035369E-01 -0.63180649885E-01  0.98862929517E-01  0.89209018873E+00  0.88000000000E+00 0.  1.
        -11    1    4    4    0    0 -0.32140929596E-01  0.31043087065E-01 -0.59831712915E-01  0.74678026227E-01  0.51100000000E-03 0. -1.
         11    1    4    4    0    0 -0.33510937325E-01  0.27880934338E-01 -0.30952919998E-01  0.53466567099E-01  0.51100000000E-03 0.  1.
</event>
<event>
 8    1  0.1106905E+005  0.1043930E+01  0.7957747E-01            NaN
         13   -1    0    0    0    0  0.00000000000E+00  0.00000000000E+00  0.74505805969E-08  0.10566000000E+00  0.10566000000E+00 0. -1.
     999900   -1    0    0    0    0 -0.00000000000E+00 -0.00000000000E+00 -0.74505805969E-08  0.93827000000E+00  0.93827000000E+00 0. -1.
     999902    2    1    2    0    0  0.96697535053E-02 -0.19013334459E-01 -0.12132453997E-01  0.10193900844E+01  0.10190946652E+01 0.  0.
     999903    2    3    3    0    0 -0.11971428330E+00  0.14524627158E-01  0.37545997446E-01  0.12791211357E+00  0.20231966115E-01 0.  0.
         14    1    1    2    0    0 -0.96697535053E-02  0.19013334459E-01  0.12132453997E-01  0.24539915650E-01  0.00000000000E+00 0. -1.
     999901    1    3    3    0    0  0.12938403681E+00 -0.33537961617E-01 -0.49678451443E-01  0.89147797078E+00  0.88000000000E+00 0. -1.
        -11    1    4    4    0    0 -0.10478632373E+00  0.86457786357E-02  0.38144593009E-01  0.11184897955E+00  0.51100000000E-03 0.  1.
         11    1    4    4    0    0 -0.14927959572E-01  0.58788485219E-02 -0.59859556358E-03  0.16063134021E-01  0.51100000000E-03 0. -1.
</event>
<event>
 8    1  0.1106905E+005  0.1043930E+01  0.7957747E-01            NaN
         13   -1    0    0    0    0  0.00000000000E+00  0.00000000000E+00  0.74505805969E-08  0.10566000000E+00  0.10566000000E+00 0. -1.
     999900   -1    0    0    0    0 -0.00000000000E+00 -0.00000000000E+00 -0.74505805969E-08  0.93827000000E+00  0.93827000000E+00 0.  1.
     999902    2    1    2    0    0  0.10547903228E-01  0.19245797067E-01 -0.78417765613E-02  0.10206243692E+01  0.10203582462E+01 0.  0.
     999903    2    3    3    0    0 -0.32260952525E-01  0.35342105200E-01 -0.12156359308E+00  0.13212882007E+00  0.19760679976E-01 0.  0.
         14    1    1    2    0    0 -0.10547903228E-01 -0.19245797067E-01  0.78417765613E-02  0.23305630798E-01  0.00000000000E+00 0. -1.
     999901    1    3    3    0    0  0.42808855753E-01 -0.16096308133E-01  0.11372181652E+00  0.88849554913E+00  0.88000000000E+00 0. -1.
        -11    1    4    4    0    0 -0.26442957299E-01  0.32293938385E-01 -0.81921467706E-01  0.91943006472E-01  0.51100000000E-03 0.  1.
         11    1    4    4    0    0 -0.58179952258E-02  0.30481668150E-02 -0.39642125378E-01  0.40185813602E-01  0.51100000000E-03 0. -1.
</event>
<event>
 8    1  0.1106905E+005  0.1043930E+01  0.7957747E-01            NaN
         13   -1    0    0    0    0  0.00000000000E+00  0.00000000000E+00  0.74505805969E-08  0.10566000000E+00  0.10566000000E+00 0. -1.
     999900   -1    0    0    0    0 -0.00000000000E+00 -0.00000000000E+00 -0.74505805969E-08  0.93827000000E+00  0.93827000000E+00 0.  1.
     999902    2    1    2    0    0  0.17149651801E-01  0.12796812211E-01 -0.10232432913E-01  0.10202114072E+01  0.10199356567E+01 0.  0.
     999903    2    3    3    0    0 -0.34596267482E-01 -0.69073733173E-01  0.10022487889E+00  0.12803359755E+00  0.19480590678E-01 0.  0.
         14    1    1    2    0    0 -0.17149651801E-01 -0.12796812211E-01  0.10232432913E-01  0.23718592770E-01  0.00000000000E+00 0. -1.
     999901    1    3    3    0    0  0.51745919283E-01  0.81870545384E-01 -0.11045731181E+00  0.89217780969E+00  0.88000000000E+00 0. -1.
        -11    1    4    4    0    0 -0.29504605031E-01 -0.46884807313E-01  0.81534525855E-01  0.98574068102E-01  0.51100000000E-03 0.  1.
         11    1    4    4    0    0 -0.50916624513E-02 -0.22188925860E-01  0.18690353038E-01  0.29459529443E-01  0.51100000000E-03 0. -1.
</event>
<event>
 8    1  0.1106905E+005  0.1043930E+01  0.7957747E-01            NaN
         13   -1    0    0    0    0  0.00000000000E+00  0.00000000000E+00  0.74505805969E-08  0.10566000000E+00  0.10566000000E+00 0.  1.
     999900   -1    0    0    0    0 -0.00000000000E+00 -0.00000000000E+00 -0.74505805969E-08  0.93827000000E+00  0.93827000000E+00 0.  1.
     999902    2    1    2    0    0  0.98228755446E-02 -0.21338736151E-01 -0.18404243880E-02  0.10203669419E+01  0.10200948380E+01 0.  0.
     999903    2    3    3    0    0 -0.22986470198E-02  0.62490998826E-01 -0.11151600416E+00  0.12952291035E+00  0.20735390233E-01 0.  0.
         14    1    1    2    0    0 -0.98228755446E-02  0.21338736151E-01  0.18404243880E-02  0.23563058088E-01  0.00000000000E+00 0.  1.
     999901    1    3    3    0    0  0.12121522564E-01 -0.83829734977E-01  0.10967557978E+00  0.89084403156E+00  0.88000000000E+00 0. -1.
        -11    1    4    4    0    0 -0.96588879886E-02  0.51847446357E-01 -0.85433122205E-01  0.10040184909E+00  0.51100000000E-03 0. -1.
         11    1    4    4    0    0  0.73602409688E-02  0.10643552469E-01 -0.26082881958E-01  0.29121061253E-01  0.51100000000E-03 0.  1.
</event>
<event>
 8    1  0.1106905E+005  0.1043930E+01  0.7957747E-01            NaN
         13   -1    0    0    0    0  0.00000000000E+00  0.00000000000E+00  0.74505805969E-08  0.10566000000E+00  0.10566000000E+00 0.  1.
     999900   -1    0    0    0    0 -0.00000000000E+00 -0.00000000000E+00 -0.74505805969E-08  0.93827000000E+00  0.93827000000E+00 0.  1.
     999902    2    1    2    0    0 -0.21181465944E-01  0.61913817837E-02  0.10713132402E-01  0.10193992252E+01  0.10191040287E+01 0.  0.
     999903    2    3    3    0    0 -0.10931770264E+00  0.14516298883E-01 -0.68671095845E-01  0.13140195256E+00  0.19740078230E-01 0.  0.
         14    1    1    2    0    0  0.21181465944E-01 -0.61913817837E-02 -0.10713132402E-01  0.24530774831E-01  0.00000000000E+00 0. -1.
     999901    1    3    3    0    0  0.88136236696E-01 -0.83249170996E-02  0.79384228247E-01  0.88799727261E+00  0.88000000000E+00 0. -1.
        -11    1    4    4    0    0 -0.20675606337E-01 -0.46457815162E-02 -0.15655703026E-01  0.26351966559E-01  0.51100000000E-03 0. -1.
         11    1    4    4    0    0 -0.88642096304E-01  0.19162080399E-01 -0.53015392820E-01  0.10504998600E+00  0.51100000000E-03 0.  1.
</event>
<event>
 8    1  0.1106905E+005  0.1043930E+01  0.7957747E-01            NaN
         13   -1    0    0    0    0  0.00000000000E+00  0.00000000000E+00  0.74505805969E-08  0.10566000000E+00  0.10566000000E+00 0. -1.
     999900   -1    0    0    0    0 -0.00000000000E+00 -0.00000000000E+00 -0.74505805969E-08  0.93827000000E+00  0.93827000000E+00 0. -1.
     999902    2    1    2    0    0 -0.76241350252E-02 -0.17136006405E-01 -0.15073543840E-01  0.10198679578E+01  0.10195840669E+01 0.  0.
     999903    2    3    3    0    0  0.58590450844E-01  0.89336614452E-01 -0.69881518372E-01  0.12929246722E+00  0.20475445225E-01 0.  0.
         14    1    1    2    0    0  0.76241350252E-02  0.17136006405E-01  0.15073543840E-01  0.24062042189E-01  0.00000000000E+00 0. -1.
     999901    1    3    3    0    0 -0.66214585869E-01 -0.10647262086E+00  0.54807974532E-01  0.89057549059E+00  0.88000000000E+00 0.  1.
        -11    1    4    4    0    0  0.47015933857E-01  0.58142073623E-01 -0.55086708955E-01  0.92875214057E-01  0.51100000000E-03 0. -1.
         11    1    4    4    0    0  0.11574516987E-01  0.31194540829E-01 -0.14794809417E-01  0.36417253160E-01  0.51100000000E-03 0.  1.
</event>
<event>
 8    1  0.1106905E+005  0.1043930E+01  0.7957747E-01            NaN
         13   -1    0    0    0    0  0.00000000000E+00  0.00000000000E+00  0.74505805969E-08  0.10566000000E+00  0.10566000000E+00 0.  1.
     999900   -1    0    0    0    0 -0.00000000000E+00 -0.00000000000E+00 -0.74505805969E-08  0.93827000000E+00  0.93827000000E+00 0.  1.
     999902    2    1    2    0    0  0.20510916638E-01  0.25089364773E-02  0.11370179144E-01  0.10203445503E+01  0.10200719229E+01 0.  0.
     999903    2    3    3    0    0  0.23605412801E-01 -0.10035953412E+00  0.79711353884E-01  0.13171526072E+00  0.19124810226E-01 0.  0.
         14    1    1    2    0    0 -0.20510916638E-01 -0.25089364773E-02 -0.11370179144E-01  0.23585449695E-01  0.00000000000E+00 0. -1.
     999901    1    3    3    0    0 -0.30944961631E-02  0.10286847059E+00 -0.68341174740E-01  0.88862928959E+00  0.88000000000E+00 0. -1.
        -11    1    4    4    0    0  0.63172468167E-02 -0.38489426420E-01  0.41560133021E-01  0.56998678329E-01  0.51100000000E-03 0. -1.
         11    1    4    4    0    0  0.17288165984E-01 -0.61870107696E-01  0.38151220862E-01  0.74716582388E-01  0.51100000000E-03 0.  1.
</event>
<event>
 8    1  0.1106905E+005  0.1043930E+01  0.7957747E-01            NaN
         13   -1    0    0    0    0  0.00000000000E+00  0.00000000000E+00  0.74505805969E-08  0.10566000000E+00  0.10566000000E+00 0. -1.
     999900   -1    0    0    0    0 -0.00000000000E+00 -0.00000000000E+00 -0.74505805969E-08  0.93827000000E+00  0.93827000000E+00 0.  1.
     999902    2    1    2    0    0 -0.20573529582E-01  0.10038222603E-01  0.42568229993E-02  0.10206457441E+01  0.10203801146E+01 0.  0.
     999903    2    3    3    0    0 -0.52136324176E-01 -0.90261397930E-01  0.77237450600E-01  0.13138627918E+00  0.20770515794E-01 0.  0.
         14    1    1    2    0    0  0.20573529582E-01 -0.10038222603E-01 -0.42568229993E-02  0.23284255937E-01  0.00000000000E+00 0.  1.
     999901    1    3    3    0    0  0.31562794594E-01  0.10029962053E+00 -0.72980627600E-01  0.88925946488E+00  0.88000000000E+00 0.  1.
        -11    1    4    4    0    0 -0.45918730559E-01 -0.88083764194E-01  0.69625547704E-01  0.12130646044E+00  0.51100000000E-03 0.  1.
         11    1    4    4    0    0 -0.62175936172E-02 -0.21776337358E-02  0.76119028958E-02  0.10079818737E-01  0.51100000000E-03 0. -1.
</event>
<event>
 8    1  0.1106905E+005  0.1043930E+01  0.7957747E-01            NaN
         13   -1    0    0    0    0  0.00000000000E+00  0.00000000000E+00  0.74505805969E-08  0.10566000000E+00  0.10566000000E+00 0.  1.
     999900   -1    0    0    0    0 -0.00000000000E+00 -0.00000000000E+00 -0.74505805969E-08  0.93827000000E+00  0.93827000000E+00 0.  1.
     999902    2    1    2    0    0  0.10853769983E-01  0.16674267578E-01 -0.13058234483E-01  0.10201318276E+01  0.10198542017E+01 0.  0.
     999903    2    3    3    0    0  0.13834365732E-01  0.99977936310E-01  0.81261199185E-01  0.13117483159E+00  0.20407756502E-01 0.  0.
         14    1    1    2    0    0 -0.10853769983E-01 -0.16674267578E-01  0.13058234483E-01  0.23798172408E-01  0.00000000000E+00 0.  1.
     999901    1    3    3    0    0 -0.29805957488E-02 -0.83303668732E-01 -0.94319433668E-01  0.88895699600E+00  0.88000000000E+00 0.  1.
        -11    1    4    4    0    0 -0.38244980778E-02  0.40101066781E-01  0.27382909469E-01  0.48711468819E-01  0.51100000000E-03 0. -1.
         11    1    4    4    0    0  0.17658863810E-01  0.59876869529E-01  0.53878289715E-01  0.82463362770E-01  0.51100000000E-03 0.  1.
</event>
<event>
 8    1  0.1106905E+005  0.1043930E+01  0.7957747E-01            NaN
         13   -1    0    0    0    0  0.00000000000E+00  0.00000000000E+00  0.74505805969E-08  0.10566000000E+00  0.10566000000E+00 0.  1.
     999900   -1    0    0    0    0 -0.00000000000E+00 -0.00000000000E+00 -0.74505805969E-08  0.93827000000E+00  0.93827000000E+00 0.  1.
     999902    2    1    2    0    0  0.10526666830E-01 -0.21748196102E-01 -0.10209233325E-02  0.10197465959E+01  0.10194597995E+01 0.  0.
     999903    2    3    3    0    0 -0.29390277857E-01 -0.11916702217E+00 -0.45190698493E-01  0.13237138826E+00  0.20381795639E-01 0.  0.
         14    1    1    2    0    0 -0.10526666830E-01  0.21748196102E-01  0.10209233325E-02  0.24183404076E-01  0.00000000000E+00 0. -1.
     999901    1    3    3    0    0  0.39916944687E-01  0.97418826067E-01  0.44169775161E-01  0.88737520767E+00  0.88000000000E+00 0. -1.
        -11    1    4    4    0    0 -0.23488672370E-02 -0.90453038836E-02 -0.98733290432E-02  0.13604353974E-01  0.51100000000E-03 0.  1.
         11    1    4    4    0    0 -0.27041410620E-01 -0.11012171829E+00 -0.35317369450E-01  0.11876703428E+00  0.51100000000E-03 0. -1.
</event>
<event>
 8    1  0.1106905E+005  0.1043930E+01  0.7957747E-01            NaN
         13   -1    0    0    0    0  0.00000000000E+00  0.00000000000E+00  0.74505805969E-08  0.10566000000E+00  0.10566000000E+00 0.  1.
     999900   -1    0    0    0    0 -0.00000000000E+00 -0.00000000000E+00 -0.74505805969E-08  0.93827000000E+00  0.93827000000E+00 0. -1.
     999902    2    1    2    0    0  0.12716139117E-01  0.14469921905E-01  0.10093194550E-01  0.10221825539E+01  0.10219511838E+01 0.  0.
     999903    2    3    3    0    0 -0.10972052901E+00 -0.52145163718E-01  0.43496423798E-01  0.13058618615E+00  0.20077363948E-01 0.  0.
         14    1    1    2    0    0 -0.12716139117E-01 -0.14469921905E-01 -0.10093194550E-01  0.21747446062E-01  0.00000000000E+00 0. -1.
     999901    1    3    3    0    0  0.12243666813E+00  0.66615085623E-01 -0.33403229247E-01  0.89159636779E+00  0.88000000000E+00 0.  1.
        -11    1    4    4    0    0 -0.84745293855E-01 -0.48448904856E-01  0.31081597405E-01  0.10244700108E+00  0.51100000000E-03 0.  1.
         11    1    4    4    0    0 -0.24975235157E-01 -0.36962588613E-02  0.12414826393E-01  0.28139185065E-01  0.51100000000E-03 0. -1.
</event>
<event>
 8    1  0.1106905E+005  0.1043930E+01  0.7957747E-01            NaN
         13   -1    0    0    0    0  0.00000000000E+00  0.00000000000E+00  0.74505805969E-08  0.10566000000E+00  0.10566000000E+00 0. -1.
     999900   -1    0    0    0    0 -0.00000000000E+00 -0.00000000000E+00 -0.74505805969E-08  0.93827000000E+00  0.93827000000E+00 0. -1.
     999902    2    1    2    0    0  0.20323060327E-01  0.62171706941E-02 -0.11995747968E-01  0.10195255340E+01  0.10192334063E+01 0.  0.
     999903    2    3    3    0    0 -0.83348929242E-01  0.31980805847E-01  0.88483307755E-01  0.12738894861E+00  0.20708271963E-01 0.  0.
         14    1    1    2    0    0 -0.20323060327E-01 -0.62171706941E-02  0.11995747968E-01  0.24404466022E-01  0.00000000000E+00 0. -1.
     999901    1    3    3    0    0  0.10367198957E+00 -0.25763635153E-01 -0.10047905572E+00  0.89213658537E+00  0.88000000000E+00 0. -1.
        -11    1    4    4    0    0 -0.50330689295E-01  0.12942130037E-01  0.62369549866E-01  0.81184351240E-01  0.51100000000E-03 0.  1.
         11    1    4    4    0    0 -0.33018239947E-01  0.19038675810E-01  0.26113757889E-01  0.46204597367E-01  0.51100000000E-03 0. -1.
</event>
<event>
 8    1  0.1106905E+005  0.1043930E+01  0.7957747E-01            NaN
         13   -1    0    0    0    0  0.00000000000E+00  0.00000000000E+00  0.74505805969E-08  0.10566000000E+00  0.10566000000E+00 0.  1.
     999900   -1    0    0    0    0 -0.00000000000E+00 -0.00000000000E+00 -0.74505805969E-08  0.93827000000E+00  0.93827000000E+00 0. -1.
     999902    2    1    2    0    0 -0.98018586263E-02 -0.15151815377E-01  0.15986027904E-01  0.10198217643E+01  0.10195367693E+01 0.  0.
     999903    2    3    3    0    0 -0.36538353235E-01  0.31411788858E-01  0.12122276105E+00  0.13192662441E+00  0.19695804041E-01 0.  0.
         14    1    1    2    0    0  0.98018586263E-02  0.15151815377E-01 -0.15986027904E-01  0.24108235727E-01  0.00000000000E+00 0. -1.
     999901    1    3    3    0    0  0.26736494609E-01 -0.46563604235E-01 -0.10523673314E+00  0.88789513986E+00  0.88000000000E+00 0. -1.
        -11    1    4    4    0    0 -0.51528470340E-02  0.10182342974E-01  0.49582507102E-01  0.50881411857E-01  0.51100000000E-03 0.  1.
         11    1    4    4    0    0 -0.31385506201E-01  0.21229445885E-01  0.71640253945E-01  0.81045212556E-01  0.51100000000E-03 0. -1.
</event>
<event>
 8    1  0.1106905E+005  0.1043930E+01  0.7957747E-01            NaN
         13   -1    0    0    0    0  0.00000000000E+00  0.00000000000E+00  0.74505805969E-08  0.10566000000E+00  0.10566000000E+00 0. -1.
     999900   -1    0    0    0    0 -0.00000000000E+00 -0.00000000000E+00 -0.74505805969E-08  0.93827000000E+00  0.93827000000E+00 0.  1.
     999902    2    1    2    0    0  0.16986252605E-01 -0.12487445600E-01 -0.87628639051E-02  0.10210989497E+01  0.10208436747E+01 0.  0.
     999903    2    3    3    0    0  0.87843189989E-01  0.92919478736E-01  0.23304238839E-01  0.13140258329E+00  0.19315687723E-01 0.  0.
         14    1    1    2    0    0 -0.16986252605E-01  0.12487445600E-01  0.87628639051E-02  0.22831050326E-01  0.00000000000E+00 0.  1.
     999901    1    3    3    0    0 -0.70856937384E-01 -0.10540692434E+00 -0.32067102744E-01  0.88969636638E+00  0.88000000000E+00 0. -1.
        -11    1    4    4    0    0  0.50068427032E-01  0.39732197168E-01  0.82561035245E-02  0.64450905685E-01  0.51100000000E-03 0. -1.
         11    1    4    4    0    0  0.37774762957E-01  0.53187281568E-01  0.15048135314E-01  0.66951677607E-01  0.51100000000E-03 0.  1.
</event>
<event>
 8    1  0.1106905E+005  0.1043930E+01  0.7957747E-01            NaN
         13   -1    0    0    0    0  0.00000000000E+00  0.00000000000E+00  0.74505805969E-08  0.10566000000E+00  0.10566000000E+00 0. -1.
     999900   -1    0    0    0    0 -0.00000000000E+00 -0.00000000000E+00 -0.74505805969E-08  0.93827000000E+00  0.93827000000E+00 0.  1.
     999902    2    1    2    0    0  0.14027458430E-01  0.17832707284E-01  0.55348723772E-02  0.10205759885E+01  0.10203087467E+01 0.  0.
     999903    2    3    3    0    0 -0.56051093520E-01  0.87751350031E-01  0.78533535815E-01  0.13202186812E+00  0.20499582865E-01 0.  0.
         14    1    1    2    0    0 -0.14027458430E-01 -0.17832707284E-01 -0.55348723772E-02  0.23354011461E-01  0.00000000000E+00 0.  1.
     999901    1    3    3    0    0  0.70078551950E-01 -0.69918642747E-01 -0.72998663438E-01  0.88855412042E+00  0.88000000000E+00 0.  1.
        -11    1    4    4    0    0 -0.24825194156E-01  0.49801250225E-01  0.52030992381E-01  0.76183594546E-01  0.51100000000E-03 0. -1.
         11    1    4    4    0    0 -0.31225899364E-01  0.37950099806E-01  0.26502543434E-01  0.55838273575E-01  0.51100000000E-03 0.  1.
</event>
<event>
 8    1  0.1106905E+005  0.1043930E+01  0.7957747E-01            NaN
         13   -1    0    0    0    0  0.00000000000E+00  0.00000000000E+00  0.74505805969E-08  0.10566000000E+00  0.10566000000E+00 0. -1.
     999900   -1    0    0    0    0 -0.00000000000E+00 -0.00000000000E+00 -0.74505805969E-08  0.93827000000E+00  0.93827000000E+00 0. -1.
     999902    2    1    2    0    0  0.14214209672E-01 -0.15116759917E-02  0.19241766431E-01  0.10199597164E+01  0.10196780122E+01 0.  0.
     999903    2    3    3    0    0 -0.47860143420E-01 -0.97112496633E-01 -0.66462780225E-01  0.12847891933E+00  0.19185964283E-01 0.  0.
         14    1    1    2    0    0 -0.14214209672E-01  0.15116759917E-02 -0.19241766431E-01  0.23970283609E-01  0.00000000000E+00 0.  1.
     999901    1    3    3    0    0  0.62074353092E-01  0.95600820641E-01  0.85704546656E-01  0.89148079707E+00  0.88000000000E+00 0.  1.
        -11    1    4    4    0    0 -0.33571373086E-01 -0.47238367232E-01 -0.32138673435E-01  0.66269569795E-01  0.51100000000E-03 0. -1.
         11    1    4    4    0    0 -0.14288770334E-01 -0.49874129401E-01 -0.34324106790E-01  0.62209349531E-01  0.51100000000E-03 0.  1.
</event>
<event>
 8    1  0.1106905E+005  0.1043930E+01  0.7957747E-01            NaN
         13   -1    0    0    0    0  0.00000000000E+00  0.00000000000E+00  0.74505805969E-08  0.10566000000E+00  0.10566000000E+00 0.  1.
     999900   -1    0    0    0    0 -0.00000000000E+00 -0.00000000000E+00 -0.74505805969E-08  0.93827000000E+00  0.93827000000E+00 0. -1.
     999902    2    1    2    0    0 -0.12085585935E-01 -0.10901234537E-01  0.16944603489E-01  0.10204349390E+01  0.10201644215E+01 0.  0.
     999903    2    3    3    0    0  0.67569481931E-01 -0.10233844278E+00 -0.39360526854E-01  0.13033609027E+00  0.19986335174E-01 0.  0.
         14    1    1    2    0    0  0.12085585935E-01  0.10901234537E-01 -0.16944603489E-01  0.23495060954E-01  0.00000000000E+00 0. -1.
     999901    1    3    3    0    0 -0.79655067866E-01  0.91437208244E-01  0.56305130343E-01  0.89009884878E+00  0.88000000000E+00 0.  1.
        -11    1    4    4    0    0  0.19249106047E-01 -0.18476842337E-01 -0.14650766108E-01  0.30443847571E-01  0.51100000000E-03 0. -1.
         11    1    4    4    0    0  0.48320375884E-01 -0.83861600444E-01 -0.24709760746E-01  0.99892242700E-01  0.51100000000E-03 0.  1.
</event>
<event>
 8    1  0.1106905E+005  0.1043930E+01  0.7957747E-01            NaN
         13   -1    0    0    0    0  0.00000000000E+00  0.00000000000E+00  0.74505805969E-08  0.10566000000E+00  0.10566000000E+00 0. -1.
     999900   -1    0    0    0    0 -0.00000000000E+00 -0.00000000000E+00 -0.74505805969E-08  0.93827000000E+00  0.93827000000E+00 0. -1.
     999902    2    1    2    0    0  0.22875463744E-01 -0.89024080388E-02  0.18548953591E-02  0.10193133319E+01  0.10190160393E+01 0.  0.
     999903    2    3    3    0    0 -0.11261691286E+00  0.30732778564E-01 -0.45873404443E-01  0.12678483225E+00  0.18518955474E-01 0.  0.
         14    1    1    2    0    0 -0.22875463744E-01  0.89024080388E-02 -0.18548953591E-02  0.24616668077E-01  0.00000000000E+00 0.  1.
     999901    1    3    3    0    0  0.13549237660E+00 -0.39635186603E-01  0.47728299802E-01  0.89252849968E+00  0.88000000000E+00 0.  1.
        -11    1    4    4    0    0 -0.56639904483E-01  0.74577979756E-02 -0.27715030737E-01  0.63498673846E-01  0.51100000000E-03 0.  1.
         11    1    4    4    0    0 -0.55977008377E-01  0.23274980588E-01 -0.18158373706E-01  0.63286158399E-01  0.51100000000E-03 0. -1.
</event>
<event>
 8    1  0.1106905E+005  0.1043930E+01  0.7957747E-01            NaN
         13   -1    0    0    0    0  0.00000000000E+00  0.00000000000E+00  0.74505805969E-08  0.10566000000E+00  0.10566000000E+00 0. -1.
     999900   -1    0    0    0    0 -0.00000000000E+00 -0.00000000000E+00 -0.74505805969E-08  0.93827000000E+00  0.93827000000E+00 0.  1.
     999902    2    1    2    0    0 -0.17605964178E-01 -0.87231560637E-02  0.11331887873E-01  0.10212479562E+01  0.10209960397E+01 0.  0.
     999903    2    3    3    0    0 -0.37547123997E-01  0.62254835358E-01 -0.10628325161E+00  0.13036701798E+00  0.20346467933E-01 0.  0.
         14    1    1    2    0    0  0.17605964178E-01  0.87231560637E-02 -0.11331887873E-01  0.22682043760E-01  0.00000000000E+00 0.  1.
     999901    1    3    3    0    0  0.19941159818E-01 -0.70977991422E-01  0.11761513949E+00  0.89088093826E+00  0.88000000000E+00 0. -1.
        -11    1    4    4    0    0 -0.61355108919E-02  0.26824387477E-01 -0.47341919335E-01  0.54760484884E-01  0.51100000000E-03 0.  1.
         11    1    4    4    0    0 -0.31411613105E-01  0.35430447882E-01 -0.58941332278E-01  0.75606533095E-01  0.51100000000E-03 0. -1.
</event>
<event>
 8    1  0.1106905E+005  0.1043930E+01  0.7957747E-01            NaN
         13   -1    0    0    0    0  0.00000000000E+00  0.00000000000E+00  0.74505805969E-08  0.10566000000E+00  0.10566000000E+00 0. -1.
     999900   -1    0    0    0    0 -0.00000000000E+00 -0.00000000000E+00 -0.74505805969E-08  0.93827000000E+00  0.93827000000E+00 0.  1.
     999902    2    1    2    0    0  0.65401547974E-02 -0.15588853524E-01 -0.16802813270E-01  0.10200947213E+01  0.10198162187E+01 0.  0.
     999903    2    3    3    0    0  0.70298718094E-01 -0.29453391497E-01  0.10312051531E+00  0.12956735809E+00  0.18559298715E-01 0.  0.
         14    1    1    2    0    0 -0.65401547974E-02  0.15588853524E-01  0.16802813270E-01  0.23835278743E-01  0.00000000000E+00 0.  1.
     999901    1    3    3    0    0 -0.63758563297E-01  0.13864537973E-01 -0.11992332858E+00  0.89052736316E+00  0.88000000000E+00 0.  1.
        -11    1    4    4    0    0  0.63632285636E-01 -0.19712220108E-01  0.88450316505E-01  0.11073102098E+00  0.51100000000E-03 0. -1.
         11    1    4    4    0    0  0.66664324588E-02 -0.97411713893E-02  0.14670198805E-01  0.18836337111E-01  0.51100000000E-03 0.  1.
</event>
<event>
 8    1  0.1106905E+005  0.1043930E+01  0.7957747E-01            NaN
         13   -1    0    0    0    0  0.00000000000E+00  0.00000000000E+00  0.74505805969E-08  0.10566000000E+00  0.10566000000E+00 0. -1.
     999900   -1    0    0    0    0 -0.00000000000E+00 -0.00000000000E+00 -0.74505805969E-08  0.93827000000E+00  0.93827000000E+00 0.  1.
     999902    2    1    2    0    0 -0.19936856654E-01 -0.79603315660E-02  0.79930692340E-02  0.10210229206E+01  0.10207659232E+01 0.  0.
     999903    2    3    3    0    0 -0.10970207699E+00  0.30945342457E-01  0.66838996583E-01  0.13364797760E+00  0.20054190027E-01 0.  0.
         14    1    1    2    0    0  0.19936856654E-01  0.79603315660E-02 -0.79930692340E-02  0.22907079422E-01  0.00000000000E+00 0. -1.
     999901    1    3    3    0    0  0.89765220336E-01 -0.38905674023E-01 -0.58845927349E-01  0.88737494297E+00  0.88000000000E+00 0. -1.
        -11    1    4    4    0    0 -0.79575176457E-01  0.31100541330E-01  0.52490082165E-01  0.10027423510E+00  0.51100000000E-03 0. -1.
         11    1    4    4    0    0 -0.30126900533E-01 -0.15519887218E-03  0.14348914418E-01  0.33373742499E-01  0.51100000000E-03 0.  1.
</event>
<event>
 8    1  0.1106905E+005  0.1043930E+01  0.7957747E-01            NaN
         13   -1    0    0    0    0  0.00000000000E+00  0.00000000000E+00  0.74505805969E-08  0.10566000000E+00  0.10566000000E+00 0.  1.
     999900   -1    0    0    0    0 -0.00000000000E+00 -0.00000000000E+00 -0.74505805969E-08  0.93827000000E+00  0.93827000000E+00 0. -1.
     999902    2    1    2    0    0 -0.18681041101E-01  0.93812733628E-02  0.12843597125E-01  0.10193953801E+01  0.10191000900E+01 0.  0.
     999903    2    3    3    0    0 -0.68932354139E-01  0.45519864192E-01 -0.98637276177E-01  0.13020519947E+00  0.20008853926E-01 0.  0.
         14    1    1    2    0    0  0.18681041101E-01 -0.93812733628E-02 -0.12843597125E-01  0.24534619900E-01  0.00000000000E+00 0.  1.
     999901    1    3    3    0    0  0.50251313038E-01 -0.36138590829E-01  0.11148087330E+00  0.88919018063E+00  0.88000000000E+00 0.  1.
        -11    1    4    4    0    0 -0.53161050130E-01  0.39807123539E-01 -0.66697617240E-01  0.94125116743E-01  0.51100000000E-03 0. -1.
         11    1    4    4    0    0 -0.15771304009E-01  0.57127406523E-02 -0.31939658937E-01  0.36080082731E-01  0.51100000000E-03 0.  1.
</event>
<event>
 8    1  0.1106905E+005  0.1043930E+01  0.7957747E-01            NaN
         13   -1    0    0    0    0  0.00000000000E+00  0.00000000000E+00  0.74505805969E-08  0.10566000000E+00  0.10566000000E+00 0. -1.
     999900   -1    0    0    0    0 -0.00000000000E+00 -0.00000000000E+00 -0.74505805969E-08  0.93827000000E+00  0.93827000000E+00 0.  1.
     999902    2    1    2    0    0  0.39671522758E-02 -0.70838805437E-02 -0.23298546097E-01  0.10192573043E+01  0.10189586403E+01 0.  0.
     999903    2    3    3    0    0 -0.51597443017E-01  0.11589143446E+00 -0.11562517562E-01  0.12889328513E+00  0.19663835615E-01 0.  0.
         14    1    1    2    0    0 -0.39671522758E-02  0.70838805437E-02  0.23298546097E-01  0.24672695657E-01  0.00000000000E+00 0. -1.
     999901    1    3    3    0    0  0.55564595293E-01 -0.12297531500E+00 -0.11736028534E-01  0.89036401922E+00  0.88000000000E+00 0.  1.
        -11    1    4    4    0    0 -0.20039284904E-01  0.64092664736E-01 -0.55780846610E-04  0.67154350901E-01  0.51100000000E-03 0. -1.
         11    1    4    4    0    0 -0.31558158113E-01  0.51798769725E-01 -0.11506736716E-01  0.61738934226E-01  0.51100000000E-03 0.  1.
</event>
<event>
 8    1  0.1106905E+005  0.1043930E+01  0.7957747E-01            NaN
         13   -1    0    0    0    0  0.00000000000E+00  0.00000000000E+00  0.74505805969E-08  0.10566000000E+00  0.10566000000E+00 0. -1.
     999900   -1    0    0    0    0 -0.00000000000E+00 -0.00000000000E+00 -0.74505805969E-08  0.93827000000E+00  0.93827000000E+00 0.  1.
     999902    2    1    2    0    0  0.17505976817E-01  0.15287603989E-01 -0.18287437870E-02  0.10206166055E+01  0.10203503031E+01 0.  0.
     999903    2    3    3    0    0  0.11230543204E+00  0.69480074715E-01  0.10191618209E-01  0.13378615399E+00  0.18838128094E-01 0.  0.
         14    1    1    2    0    0 -0.17505976817E-01 -0.15287603989E-01  0.18287437870E-02  0.23313394516E-01  0.00000000000E+00 0.  1.
     999901    1    3    3    0    0 -0.94799455221E-01 -0.54192470726E-01 -0.12020361996E-01  0.88683045149E+00  0.88000000000E+00 0.  1.
        -11    1    4    4    0    0  0.36360045268E-01  0.31792377478E-01  0.81003674408E-02  0.48976374215E-01  0.51100000000E-03 0.  1.
         11    1    4    4    0    0  0.75945386770E-01  0.37687697237E-01  0.20912507681E-02  0.84809779775E-01  0.51100000000E-03 0. -1.
</event>
<event>
 8    1  0.1106905E+005  0.1043930E+01  0.7957747E-01            NaN
         13   -1    0    0    0    0  0.00000000000E+00  0.00000000000E+00  0.74505805969E-08  0.10566000000E+00  0.10566000000E+00 0.  1.
     999900   -1    0    0    0    0 -0.00000000000E+00 -0.00000000000E+00 -0.74505805969E-08  0.93827000000E+00  0.93827000000E+00 0.  1.
     999902    2    1    2    0    0 -0.24966379881E-02  0.70677696240E-02 -0.22203787261E-01  0.10204950957E+01  0.10202259778E+01 0.  0.
     999903    2    3    3    0    0  0.16684819570E-01  0.82974573706E-01  0.95307828658E-01  0.12923825785E+00  0.21349051561E-01 0.  0.
         14    1    1    2    0    0  0.24966379881E-02 -0.70677696240E-02  0.22203787261E-01  0.23434904255E-01  0.00000000000E+00 0.  1.
     999901    1    3    3    0    0 -0.19181457558E-01 -0.75906804082E-01 -0.11751161592E+00  0.89125683790E+00  0.88000000000E+00 0.  1.
        -11    1    4    4    0    0  0.12810680922E-01  0.56840101208E-01  0.79079328216E-01  0.98227857165E-01  0.51100000000E-03 0. -1.
         11    1    4    4    0    0  0.38741386481E-02  0.26134472498E-01  0.16228500442E-01  0.31010400685E-01  0.51100000000E-03 0.  1.
</event>
<event>
 8    1  0.1106905E+005  0.1043930E+01  0.7957747E-01            NaN
         13   -1    0    0    0    0  0.00000000000E+00  0.00000000000E+00  0.74505805969E-08  0.10566000000E+00  0.10566000000E+00 0. -1.
     999900   -1    0    0    0    0 -0.00000000000E+00 -0.00000000000E+00 -0.74505805969E-08  0.93827000000E+00  0.93827000000E+00 0. -1.
     999902    2    1    2    0    0  0.41522966848E-02 -0.69702027045E-03 -0.23861412584E-01  0.10196999687E+01  0.10194120520E+01 0.  0.
     999903    2    3    3    0    0 -0.20545593136E-01 -0.11934356506E+00  0.39314577720E-01  0.12915059104E+00  0.21661745663E-01 0.  0.
         14    1    1    2    0    0 -0.41522966848E-02  0.69702027045E-03  0.23861412584E-01  0.24230031273E-01  0.00000000000E+00 0. -1.
     999901    1    3    3    0    0  0.24697889820E-01  0.11864654479E+00 -0.63175990304E-01  0.89054937769E+00  0.88000000000E+00 0. -1.
        -11    1    4    4    0    0 -0.45646637082E-02 -0.65211885970E-01  0.12080983214E-01  0.66480354263E-01  0.51100000000E-03 0. -1.
         11    1    4    4    0    0 -0.15980929427E-01 -0.54131679091E-01  0.27233594506E-01  0.62670236774E-01  0.51100000000E-03 0.  1.
</event>
<event>
 8    1  0.1106905E+005  0.1043930E+01  0.7957747E-01            NaN
         13   -1    0    0    0    0  0.00000000000E+00  0.00000000000E+00  0.74505805969E-08  0.10566000000E+00  0.10566000000E+00 0. -1.
     999900   -1    0    0    0    0 -0.00000000000E+00 -0.00000000000E+00 -0.74505805969E-08  0.93827000000E+00  0.93827000000E+00 0.  1.
     999902    2    1    2    0    0 -0.22803490586E-01  0.44154369294E-02 -0.38820073781E-02  0.10203807909E+01  0.10201090105E+01 0.  0.
     999903    2    3    3    0    0 -0.12368229524E+00 -0.25518846413E-01  0.36692746696E-01  0.13318357204E+00  0.21047197507E-01 0.  0.
         14    1    1    2    0    0  0.22803490586E-01 -0.44154369294E-02  0.38820073781E-02  0.23549209062E-01  0.00000000000E+00 0.  1.
     999901    1    3    3    0    0  0.10087880466E+00  0.29934283342E-01 -0.40574754074E-01  0.88719721890E+00  0.88000000000E+00 0.  1.
        -11    1    4    4    0    0 -0.55546593999E-01 -0.10771626714E-02  0.18286778783E-01  0.58491467613E-01  0.51100000000E-03 0. -1.
         11    1    4    4    0    0 -0.68135701244E-01 -0.24441683741E-01  0.18405967914E-01  0.74692104429E-01  0.51100000000E-03 0.  1.
</event>
<event>
 8    1  0.1106905E+005  0.1043930E+01  0.7957747E-01            NaN
         13   -1    0    0    0    0  0.00000000000E+00  0.00000000000E+00  0.74505805969E-08  0.10566000000E+00  0.10566000000E+00 0. -1.
     999900   -1    0    0    0    0 -0.00000000000E+00 -0.00000000000E+00 -0.74505805969E-08  0.93827000000E+00  0.93827000000E+00 0. -1.
     999902    2    1    2    0    0  0.15071726632E-01 -0.17380990228E-01  0.55417832940E-02  0.10202663754E+01  0.10199919165E+01 0.  0.
     999903    2    3    3    0    0 -0.75398610049E-01  0.62352560161E-01 -0.80576698934E-01  0.12787704681E+00  0.16945280597E-01 0.  0.
         14    1    1    2    0    0 -0.15071726632E-01  0.17380990228E-01 -0.55417832940E-02  0.23663624554E-01  0.00000000000E+00 0. -1.
     999901    1    3    3    0    0  0.90470336680E-01 -0.79733550390E-01  0.86118482228E-01  0.89238932863E+00  0.88000000000E+00 0. -1.
        -11    1    4    4    0    0 -0.22338747715E-01  0.18183510155E-01 -0.14253665252E-01  0.32141682986E-01  0.51100000000E-03 0.  1.
         11    1    4    4    0    0 -0.53059862334E-01  0.44169050006E-01 -0.66323033682E-01  0.95735363827E-01  0.51100000000E-03 0. -1.
</event>
<event>
 8    1  0.1106905E+005  0.1043930E+01  0.7957747E-01            NaN
         13   -1    0    0    0    0  0.00000000000E+00  0.00000000000E+00  0.74505805969E-08  0.10566000000E+00  0.10566000000E+00 0. -1.
     999900   -1    0    0    0    0 -0.00000000000E+00 -0.00000000000E+00 -0.74505805969E-08  0.93827000000E+00  0.93827000000E+00 0.  1.
     999902    2    1    2    0    0 -0.17406407017E-02  0.13486145719E-01 -0.12456389615E-01  0.10254890782E+01  0.10253232572E+01 0.  0.
     999903    2    3    3    0    0  0.10485448560E+00  0.51259771375E-01 -0.67763899604E-01  0.13652997425E+00  0.20650919304E-01 0.  0.
         14    1    1    2    0    0  0.17406407017E-02 -0.13486145719E-01  0.12456389615E-01  0.18440921850E-01  0.00000000000E+00 0. -1.
     999901    1    3    3    0    0 -0.10659512630E+00 -0.37773625656E-01  0.55307509989E-01  0.88895910390E+00  0.88000000000E+00 0. -1.
        -11    1    4    4    0    0  0.69672576909E-01  0.41765457262E-01 -0.54143963026E-01  0.97624030068E-01  0.51100000000E-03 0.  1.
         11    1    4    4    0    0  0.35181908687E-01  0.94943141136E-02 -0.13619936578E-01  0.38905944183E-01  0.51100000000E-03 0. -1.
</event>
<event>
 8    1  0.1106905E+005  0.1043930E+01  0.7957747E-01            NaN
         13   -1    0    0    0    0  0.00000000000E+00  0.00000000000E+00  0.74505805969E-08  0.10566000000E+00  0.10566000000E+00 0. -1.
     999900   -1    0    0    0    0 -0.00000000000E+00 -0.00000000000E+00 -0.74505805969E-08  0.93827000000E+00  0.93827000000E+00 0. -1.
     999902    2    1    2    0    0  0.16830895335E-01  0.40137496056E-03  0.19708065997E-01  0.10180099690E+01  0.10176799345E+01 0.  0.
     999903    2    3    3    0    0  0.37366646013E-01  0.42466878279E-01 -0.11194674611E+00  0.12698571955E+00  0.19839279712E-01 0.  0.
         14    1    1    2    0    0 -0.16830895335E-01 -0.40137496056E-03 -0.19708065997E-01  0.25920030961E-01  0.00000000000E+00 0. -1.
     999901    1    3    3    0    0 -0.20535750678E-01 -0.42065503318E-01  0.13165481211E+00  0.89102424949E+00  0.88000000000E+00 0.  1.
        -11    1    4    4    0    0  0.13924586571E-01  0.30627972177E-01 -0.60915941090E-01  0.69591520968E-01  0.51100000000E-03 0.  1.
         11    1    4    4    0    0  0.23442059443E-01  0.11838906102E-01 -0.51030805023E-01  0.57394198582E-01  0.51100000000E-03 0. -1.
</event>
<event>
 8    1  0.1106905E+005  0.1043930E+01  0.7957747E-01            NaN
         13   -1    0    0    0    0  0.00000000000E+00  0.00000000000E+00  0.74505805969E-08  0.10566000000E+00  0.10566000000E+00 0.  1.
     999900   -1    0    0    0    0 -0.00000000000E+00 -0.00000000000E+00 -0.74505805969E-08  0.93827000000E+00  0.93827000000E+00 0. -1.
     999902    2    1    2    0    0 -0.70206762938E-02  0.16213040605E-01 -0.15859598396E-01  0.10201880657E+01  0.10199117658E+01 0.  0.
     999903    2    3    3    0    0  0.29995242554E-01  0.24518716668E-01  0.12096635173E+00  0.12880683241E+00  0.21388309458E-01 0.  0.
         14    1    1    2    0    0  0.70206762938E-02 -0.16213040605E-01  0.15859598396E-01  0.23741934263E-01  0.00000000000E+00 0.  1.
     999901    1    3    3    0    0 -0.37015918848E-01 -0.83056760632E-02 -0.13682595012E+00  0.89138123333E+00  0.88000000000E+00 0. -1.
        -11    1    4    4    0    0  0.14377451745E-01  0.76764914437E-03  0.26602670556E-01  0.30253323877E-01  0.51100000000E-03 0. -1.
         11    1    4    4    0    0  0.15617790809E-01  0.23751067524E-01  0.94363681173E-01  0.98553508531E-01  0.51100000000E-03 0.  1.
</event>
<event>
 8    1  0.1106905E+005  0.1043930E+01  0.7957747E-01            NaN
         13   -1    0    0    0    0  0.00000000000E+00  0.00000000000E+00  0.74505805969E-08  0.10566000000E+00  0.10566000000E+00 0. -1.
     999900   -1    0    0    0    0 -0.00000000000E+00 -0.00000000000E+00 -0.74505805969E-08  0.93827000000E+00  0.93827000000E+00 0.  1.
     999902    2    1    2    0    0 -0.14037426957E-01 -0.22235636292E-01  0.14011122166E-01  0.10141342885E+01  0.10136964885E+01 0.  0.
     999903    2    3    3    0    0  0.53833961356E-01 -0.23693314352E-02 -0.10858162429E+00  0.12282616174E+00  0.19813827203E-01 0.  0.
         14    1    1    2    0    0  0.14037426957E-01  0.22235636292E-01 -0.14011122166E-01  0.29795711457E-01  0.00000000000E+00 0. -1.
     999901    1    3    3    0    0 -0.67871388312E-01 -0.19866304856E-01  0.12259274645E+00  0.89130812680E+00  0.88000000000E+00 0.  1.
        -11    1    4    4    0    0  0.20872230719E-01 -0.87049542368E-02 -0.56539898549E-01  0.60897023674E-01  0.51100000000E-03 0.  1.
         11    1    4    4    0    0  0.32961730637E-01  0.63356228017E-02 -0.52041725739E-01  0.61929138067E-01  0.51100000000E-03 0. -1.
</event>
<event>
 8    1  0.1106905E+005  0.1043930E+01  0.7957747E-01            NaN
         13   -1    0    0    0    0  0.00000000000E+00  0.00000000000E+00  0.74505805969E-08  0.10566000000E+00  0.10566000000E+00 0.  1.
     999900   -1    0    0    0    0 -0.00000000000E+00 -0.00000000000E+00 -0.74505805969E-08  0.93827000000E+00  0.93827000000E+00 0. -1.
     999902    2    1    2    0    0 -0.21841810646E-01 -0.56704788529E-02 -0.92145199987E-02  0.10195552918E+01  0.10192638847E+01 0.  0.
     999903    2    3    3    0    0  0.12366655236E-01 -0.56013099963E-01 -0.11609694957E+00  0.13100115589E+00  0.19809079082E-01 0.  0.
         14    1    1    2    0    0  0.21841810646E-01  0.56704788529E-02  0.92145199987E-02  0.24374708235E-01  0.00000000000E+00 0.  1.
     999901    1    3    3    0    0 -0.34208465882E-01  0.50342621110E-01  0.10688242957E+00  0.88855413588E+00  0.88000000000E+00 0.  1.
        -11    1    4    4    0    0 -0.36710741396E-02 -0.35883152772E-02 -0.16797432712E-01  0.17571785868E-01  0.51100000000E-03 0.  1.
         11    1    4    4    0    0  0.16037729375E-01 -0.52424784686E-01 -0.99299516860E-01  0.11342937002E+00  0.51100000000E-03 0. -1.
</event>
<event>
 8    1  0.1106905E+005  0.1043930E+01  0.7957747E-01            NaN
         13   -1    0    0    0    0  0.00000000000E+00  0.00000000000E+00  0.74505805969E-08  0.10566000000E+00  0.10566000000E+00 0.  1.
     999900   -1    0    0    0    0 -0.00000000000E+00 -0.00000000000E+00 -0.74505805969E-08  0.93827000000E+00  0.93827000000E+00 0.  1.
     999902    2    1    2    0    0 -0.13447202158E-01  0.19963143074E-01  0.28694565015E-02  0.10196897833E+01  0.10194016215E+01 0.  0.
     999903    2    3    3    0    0  0.85768385088E-01 -0.83398721299E-01 -0.38443323370E-01  0.12714614088E+00  0.19408488719E-01 0.  0.
         14    1    1    2    0    0  0.13447202158E-01 -0.19963143074E-01 -0.28694565015E-02  0.24240216746E-01  0.00000000000E+00 0.  1.
     999901    1    3    3    0    0 -0.99215587246E-01  0.10336186437E+00  0.41312779872E-01  0.89254364237E+00  0.88000000000E+00 0.  1.
        -11    1    4    4    0    0  0.79366177979E-01 -0.68213727862E-01 -0.34502863818E-01  0.11019442639E+00  0.51100000000E-03 0. -1.
         11    1    4    4    0    0  0.64022071090E-02 -0.15184993437E-01 -0.39404595525E-02  0.16951714487E-01  0.51100000000E-03 0.  1.
</event>
<event>
 8    1  0.1106905E+005  0.1043930E+01  0.7957747E-01            NaN
         13   -1    0    0    0    0  0.00000000000E+00  0.00000000000E+00  0.74505805969E-08  0.10566000000E+00  0.10566000000E+00 0. -1.
     999900   -1    0    0    0    0 -0.00000000000E+00 -0.00000000000E+00 -0.74505805969E-08  0.93827000000E+00  0.93827000000E+00 0.  1.
     999902    2    1    2    0    0  0.23561167194E-01 -0.15216408588E-02 -0.53389492529E-02  0.10197236296E+01  0.10194362816E+01 0.  0.
     999903    2    3    3    0    0  0.81452351132E-02 -0.10434317905E+00 -0.76099409376E-01  0.13078214533E+00  0.18947442030E-01 0.  0.
         14    1    1    2    0    0 -0.23561167194E-01  0.15216408588E-02  0.53389492529E-02  0.24206370434E-01  0.00000000000E+00 0. -1.
     999901    1    3    3    0    0  0.15415932081E-01  0.10282153820E+00  0.70760460123E-01  0.88894148424E+00  0.88000000000E+00 0. -1.
        -11    1    4    4    0    0  0.80163760493E-02 -0.70485475839E-01 -0.40667250216E-01  0.81771333305E-01  0.51100000000E-03 0.  1.
         11    1    4    4    0    0  0.12885906397E-03 -0.33857703215E-01 -0.35432159160E-01  0.49010812026E-01  0.51100000000E-03 0. -1.
</event>
<event>
 8    1  0.1106905E+005  0.1043930E+01  0.7957747E-01            NaN
         13   -1    0    0    0    0  0.00000000000E+00  0.00000000000E+00  0.74505805969E-08  0.10566000000E+00  0.10566000000E+00 0.  1.
     999900   -1    0    0    0    0 -0.00000000000E+00 -0.00000000000E+00 -0.74505805969E-08  0.93827000000E+00  0.93827000000E+00 0. -1.
     999902    2    1    2    0    0  0.15330653939E-01  0.22915110466E-02  0.18090933377E-01  0.10201064435E+01  0.10198282180E+01 0.  0.
     999903    2    3    3    0    0  0.59540435655E-01  0.10422732400E+00 -0.47804129162E-01  0.13067540401E+00  0.19555763922E-01 0.  0.
         14    1    1    2    0    0 -0.15330653939E-01 -0.22915110466E-02 -0.18090933377E-01  0.23823556484E-01  0.00000000000E+00 0. -1.
     999901    1    3    3    0    0 -0.44209781716E-01 -0.10193581296E+00  0.65895062539E-01  0.88943103950E+00  0.88000000000E+00 0.  1.
        -11    1    4    4    0    0  0.37186008604E-01  0.56191054370E-01 -0.35976291919E-01  0.76385787476E-01  0.51100000000E-03 0.  1.
         11    1    4    4    0    0  0.22354427050E-01  0.48036269633E-01 -0.11827837244E-01  0.54289616538E-01  0.51100000000E-03 0. -1.
</event>
<event>
 8    1  0.1106905E+005  0.1043930E+01  0.7957747E-01            NaN
         13   -1    0    0    0    0  0.00000000000E+00  0.00000000000E+00  0.74505805969E-08  0.10566000000E+00  0.10566000000E+00 0. -1.
     999900   -1    0    0    0    0 -0.00000000000E+00 -0.00000000000E+00 -0.74505805969E-08  0.93827000000E+00  0.93827000000E+00 0. -1.
     999902    2    1    2    0    0 -0.14150808463E-01 -0.76605757100E-02  0.17371073737E-01  0.10202512331E+01  0.10199764186E+01 0.  0.
     999903    2    3    3    0    0  0.65280650440E-01 -0.17396537399E-01  0.11118740499E+00  0.13165365845E+00  0.20145568226E-01 0.  0.
         14    1    1    2    0    0  0.14150808463E-01  0.76605757100E-02 -0.17371073737E-01  0.23678766926E-01  0.00000000000E+00 0.  1.
     999901    1    3    3    0    0 -0.79431458903E-01  0.97359616888E-02 -0.93816331257E-01  0.88859757462E+00  0.88000000000E+00 0. -1.
        -11    1    4    4    0    0  0.53128699329E-01 -0.21900415946E-01  0.88530944812E-01  0.10554750694E+00  0.51100000000E-03 0. -1.
         11    1    4    4    0    0  0.12151951112E-01  0.45038785475E-02  0.22656460181E-01  0.26106151511E-01  0.51100000000E-03 0.  1.
</event>
<event>
 8    1  0.1106905E+005  0.1043930E+01  0.7957747E-01            NaN
         13   -1    0    0    0    0  0.00000000000E+00  0.00000000000E+00  0.74505805969E-08  0.10566000000E+00  0.10566000000E+00 0. -1.
     999900   -1    0    0    0    0 -0.00000000000E+00 -0.00000000000E+00 -0.74505805969E-08  0.93827000000E+00  0.93827000000E+00 0.  1.
     999902    2    1    2    0    0 -0.29004043526E-02  0.18613199248E-01  0.13811333264E-01  0.10205715656E+01  0.10203042213E+01 0.  0.
     999903    2    3    3    0    0 -0.95308814382E-01 -0.75342579846E-01 -0.38800009921E-01  0.12920466240E+00  0.20691292347E-01 0.  0.
         14    1    1    2    0    0  0.29004043526E-02 -0.18613199248E-01 -0.13811333264E-01  0.23358434412E-01  0.00000000000E+00 0.  1.
     999901    1    3    3    0    0  0.92408410030E-01  0.93955779094E-01  0.52611343184E-01  0.89136690319E+00  0.88000000000E+00 0.  1.
        -11    1    4    4    0    0 -0.87555048289E-01 -0.69034900834E-01 -0.29024937502E-01  0.11521463506E+00  0.51100000000E-03 0.  1.
         11    1    4    4    0    0 -0.77537660930E-02 -0.63076790128E-02 -0.97750724191E-02  0.13990027339E-01  0.51100000000E-03 0. -1.
</event>
<event>
 8    1  0.1106905E+005  0.1043930E+01  0.7957747E-01            NaN
         13   -1    0    0    0    0  0.00000000000E+00  0.00000000000E+00  0.74505805969E-08  0.10566000000E+00  0.10566000000E+00 0.  1.
     999900   -1    0    0    0    0 -0.00000000000E+00 -0.00000000000E+00 -0.74505805969E-08  0.93827000000E+00  0.93827000000E+00 0. -1.
     999902    2    1    2    0    0 -0.93387444968E-02  0.17008877531E-01 -0.13682819987E-01  0.10201869247E+01  0.10199105979E+01 0.  0.
     999903    2    3    3    0    0  0.49448325973E-01 -0.34193162601E-02 -0.11958345258E+00  0.13165545379E+00  0.24002660575E-01 0.  0.
         14    1    1    2    0    0  0.93387444968E-02 -0.17008877531E-01  0.13682819987E-01  0.23743075337E-01  0.00000000000E+00 0. -1.
     999901    1    3    3    0    0 -0.58787070470E-01  0.20428193792E-01  0.10590063259E+00  0.88853147088E+00  0.88000000000E+00 0.  1.
        -11    1    4    4    0    0  0.12886401576E-01 -0.66620614934E-03 -0.10723929572E-01  0.16785915604E-01  0.51100000000E-03 0. -1.
         11    1    4    4    0    0  0.36561924398E-01 -0.27531101107E-02 -0.10885952301E+00  0.11486953818E+00  0.51100000000E-03 0.  1.
</event>
<event>
 8    1  0.1106905E+005  0.1043930E+01  0.7957747E-01            NaN
         13   -1    0    0    0    0  0.00000000000E+00  0.00000000000E+00  0.74505805969E-08  0.10566000000E+00  0.10566000000E+00 0. -1.
     999900   -1    0    0    0    0 -0.00000000000E+00 -0.00000000000E+00 -0.74505805969E-08  0.93827000000E+00  0.93827000000E+00 0. -1.
     999902    2    1    2    0    0 -0.98017831090E-02 -0.34350761230E-03 -0.22247443508E-01  0.10196165944E+01  0.10193266689E+01 0.  0.
     999903    2    3    3    0    0 -0.37401313816E-01  0.57579541262E-01 -0.11195389034E+00  0.13273212599E+00  0.19232312964E-01 0.  0.
         14    1    1    2    0    0  0.98017831090E-02  0.34350761230E-03  0.22247443508E-01  0.24313405607E-01  0.00000000000E+00 0. -1.
     999901    1    3    3    0    0  0.27599530707E-01 -0.57923048874E-01  0.89706446829E-01  0.88688446840E+00  0.88000000000E+00 0.  1.
        -11    1    4    4    0    0 -0.21550450175E-02  0.74879611616E-02 -0.44081640373E-02  0.89669845860E-02  0.51100000000E-03 0.  1.
         11    1    4    4    0    0 -0.35246268799E-01  0.50091580100E-01 -0.10754572630E+00  0.12376514141E+00  0.51100000000E-03 0. -1.
</event>
<event>
 8    1  0.1106905E+005  0.1043930E+01  0.7957747E-01            NaN
         13   -1    0    0    0    0  0.00000000000E+00  0.00000000000E+00  0.74505805969E-08  0.10566000000E+00  0.10566000000E+00 0. -1.
     999900   -1    0    0    0    0 -0.00000000000E+00 -0.00000000000E+00 -0.74505805969E-08  0.93827000000E+00  0.93827000000E+00 0.  1.
     999902    2    1    2    0    0  0.16124792624E-01  0.40716226194E-02 -0.18046148649E-01  0.10193892068E+01  0.10190937663E+01 0.  0.
     999903    2    3    3    0    0  0.35411782025E-01  0.12221917858E+00 -0.25537862466E-01  0.13125241630E+00  0.19582963124E-01 0.  0.
         14    1    1    2    0    0 -0.16124792624E-01 -0.40716226194E-02  0.18046148649E-01  0.24540793161E-01  0.00000000000E+00 0.  1.
     999901    1    3    3    0    0 -0.19286989400E-01 -0.11814755596E+00  0.74917138175E-02  0.88813679054E+00  0.88000000000E+00 0.  1.
        -11    1    4    4    0    0  0.12198983120E-01  0.55861445370E-01 -0.23643798278E-02  0.57229080727E-01  0.51100000000E-03 0. -1.
         11    1    4    4    0    0  0.23212798905E-01  0.66357733212E-01 -0.23173482638E-01  0.74023335568E-01  0.51100000000E-03 0.  1.
</event>
<event>
 8    1  0.1106905E+005  0.1043930E+01  0.7957747E-01            NaN
         13   -1    0    0    0    0  0.00000000000E+00  0.00000000000E+00  0.74505805969E-08  0.10566000000E+00  0.10566000000E+00 0.  1.
     999900   -1    0    0    0    0 -0.00000000000E+00 -0.00000000000E+00 -0.74505805969E-08  0.93827000000E+00  0.93827000000E+00 0.  1.
     999902    2    1    2    0    0  0.24590765345E-01 -0.84973098713E-02  0.30225514487E-02  0.10177375234E+01  0.10174004230E+01 0.  0.
     999903    2    3    3    0    0 -0.10775453103E+00 -0.31684248636E-01 -0.52932687333E-01  0.12578242340E+00  0.20110148614E-01 0.  0.
         14    1    1    2    0    0 -0.24590765345E-01  0.84973098713E-02 -0.30225514487E-02  0.26192476641E-01  0.00000000000E+00 0. -1.
     999901    1    3    3    0    0  0.13234529638E+00  0.23186938765E-01  0.55955238782E-01  0.89195509996E+00  0.88000000000E+00 0.  1.
        -11    1    4    4    0    0 -0.37329991251E-01 -0.16244690457E-01 -0.28331223936E-01  0.49601790144E-01  0.51100000000E-03 0.  1.
         11    1    4    4    0    0 -0.70424539783E-01 -0.15439558180E-01 -0.24601463397E-01  0.76180633252E-01  0.51100000000E-03 0. -1.
</event>
<event>
 8    1  0.1106905E+005  0.1043930E+01  0.7957747E-01            NaN
         13   -1    0    0    0    0  0.00000000000E+00  0.00000000000E+00  0.74505805969E-08  0.10566000000E+00  0.10566000000E+00 0. -1.
     999900   -1    0    0    0    0 -0.00000000000E+00 -0.00000000000E+00 -0.74505805969E-08  0.93827000000E+00  0.93827000000E+00 0.  1.
     999902    2    1    2    0    0 -0.75295821333E-02 -0.21184619300E-01 -0.67884013785E-02  0.10204445770E+01  0.10201742839E+01 0.  0.
     999903    2    3    3    0    0  0.80466646461E-01  0.30014672760E-01 -0.95643332795E-01  0.13013008051E+00  0.20259046673E-01 0.  0.
         14    1    1    2    0    0  0.75295821333E-02  0.21184619300E-01  0.67884013785E-02  0.23485423038E-01  0.00000000000E+00 0. -1.
     999901    1    3    3    0    0 -0.87996228594E-01 -0.51199292060E-01  0.88854931416E-01  0.89031449645E+00  0.88000000000E+00 0. -1.
        -11    1    4    4    0    0  0.26453295853E-01  0.25946936124E-02 -0.38978728527E-01  0.47181688132E-01  0.51100000000E-03 0.  1.
         11    1    4    4    0    0  0.54013350608E-01  0.27419979148E-01 -0.56664604268E-01  0.82948392379E-01  0.51100000000E-03 0. -1.
</event>
<event>
 8    1  0.1106905E+005  0.1043930E+01  0.7957747E-01            NaN
         13   -1    0    0    0    0  0.00000000000E+00  0.00000000000E+00  0.74505805969E-08  0.10566000000E+00  0.10566000000E+00 0. -1.
     999900   -1    0    0    0    0 -0.00000000000E+00 -0.00000000000E+00 -0.74505805969E-08  0.93827000000E+00  0.93827000000E+00 0. -1.
     999902    2    1    2    0    0 -0.26045423847E-03  0.23813320099E-02  0.22711340589E-01  0.10210926716E+01  0.10208372546E+01 0.  0.
     999903    2    3    3    0    0  0.26351488509E-01  0.12110259450E+00  0.42529131364E-01  0.13250070756E+00  0.19684286876E-01 0.  0.
         14    1    1    2    0    0  0.26045423847E-03 -0.23813320099E-02 -0.22711340589E-01  0.22837328432E-01  0.00000000000E+00 0.  1.
     999901    1    3    3    0    0 -0.26611942748E-01 -0.11872126249E+00 -0.19817790775E-01  0.88859196401E+00  0.88000000000E+00 0.  1.
        -11    1    4    4    0    0  0.55830654113E-02  0.34741529590E-01  0.21436768732E-01  0.41206075672E-01  0.51100000000E-03 0. -1.
         11    1    4    4    0    0  0.20768423098E-01  0.86361064906E-01  0.21092362632E-01  0.91294631891E-01  0.51100000000E-03 0.  1.
</event>
<event>
 8    1  0.1106905E+005  0.1043930E+01  0.7957747E-01            NaN
         13   -1    0    0    0    0  0.00000000000E+00  0.00000000000E+00  0.74505805969E-08  0.10566000000E+00  0.10566000000E+00 0. -1.
     999900   -1    0    0    0    0 -0.00000000000E+00 -0.00000000000E+00 -0.74505805969E-08  0.93827000000E+00  0.93827000000E+00 0. -1.
     999902    2    1    2    0    0 -0.98662999618E-02 -0.16910885674E-02 -0.19430027108E-01  0.10220729735E+01  0.10218392405E+01 0.  0.
     999903    2    3    3    0    0  0.15863598719E-01  0.10561201050E+00 -0.77227625531E-01  0.13330048000E+00  0.19984026049E-01 0.  0.
         14    1    1    2    0    0  0.98662999618E-02  0.16910885674E-02  0.19430027108E-01  0.21857026533E-01  0.00000000000E+00 0. -1.
     999901    1    3    3    0    0 -0.25729898680E-01 -0.10730309907E+00  0.57797598424E-01  0.88877249346E+00  0.88000000000E+00 0.  1.
        -11    1    4    4    0    0  0.98507095412E-02  0.16426075178E-01 -0.11492457691E-01  0.22342563170E-01  0.51100000000E-03 0. -1.
         11    1    4    4    0    0  0.60128891774E-02  0.89185935323E-01 -0.65735167841E-01  0.11095791683E+00  0.51100000000E-03 0.  1.
</event>
<event>
 8    1  0.1106905E+005  0.1043930E+01  0.7957747E-01            NaN
         13   -1    0    0    0    0  0.00000000000E+00  0.00000000000E+00  0.74505805969E-08  0.10566000000E+00  0.10566000000E+00 0. -1.
     999900   -1    0    0    0    0 -0.00000000000E+00 -0.00000000000E+00 -0.74505805969E-08  0.93827000000E+00  0.93827000000E+00 0. -1.
     999902    2    1    2    0    0 -0.10698993269E-01 -0.95067878540E-02  0.14991696676E-01  0.10232032433E+01  0.10229932936E+01 0.  0.
     999903    2    3    3    0    0 -0.57619318935E-01  0.10653966236E+00  0.52724855104E-01  0.13354483316E+00  0.19586386766E-01 0.  0.
         14    1    1    2    0    0  0.10698993269E-01  0.95067878540E-02 -0.14991696676E-01  0.20726756656E-01  0.00000000000E+00 0.  1.
     999901    1    3    3    0    0  0.46920325666E-01 -0.11604645022E+00 -0.37733158428E-01  0.88965841019E+00  0.88000000000E+00 0. -1.
        -11    1    4    4    0    0 -0.40408896255E-01  0.68542973566E-01  0.44006500439E-01  0.90927725825E-01  0.51100000000E-03 0. -1.
         11    1    4    4    0    0 -0.17210422680E-01  0.37996688798E-01  0.87183546646E-02  0.42617107333E-01  0.51100000000E-03 0.  1.
</event>
<event>
 8    1  0.1106905E+005  0.1043930E+01  0.7957747E-01            NaN
         13   -1    0    0    0    0  0.00000000000E+00  0.00000000000E+00  0.74505805969E-08  0.10566000000E+00  0.10566000000E+00 0.  1.
     999900   -1    0    0    0    0 -0.00000000000E+00 -0.00000000000E+00 -0.74505805969E-08  0.93827000000E+00  0.93827000000E+00 0. -1.
     999902    2    1    2    0    0 -0.17176401139E-01  0.15744590838E-02  0.74166262982E-02  0.10251546432E+01  0.10249826967E+01 0.  0.
     999903    2    3    3    0    0  0.91791104392E-01  0.11815272821E-01  0.95141067002E-01  0.13404613744E+00  0.18743980787E-01 0.  0.
         14    1    1    2    0    0  0.17176401139E-01 -0.15744590838E-02 -0.74166262982E-02  0.18775356804E-01  0.00000000000E+00 0. -1.
     999901    1    3    3    0    0 -0.10896750553E+00 -0.10240813737E-01 -0.87724440704E-01  0.89110850575E+00  0.88000000000E+00 0. -1.
        -11    1    4    4    0    0  0.87100263695E-01  0.15462526795E-01  0.89117139090E-01  0.12556938827E+00  0.51100000000E-03 0. -1.
         11    1    4    4    0    0  0.46908406976E-02 -0.36472539749E-02  0.60239279129E-02  0.84767491710E-02  0.51100000000E-03 0.  1.
</event>
<event>
 8    1  0.1106905E+005  0.1043930E+01  0.7957747E-01            NaN
         13   -1    0    0    0    0  0.00000000000E+00  0.00000000000E+00  0.74505805969E-08  0.10566000000E+00  0.10566000000E+00 0.  1.
     999900   -1    0    0    0    0 -0.00000000000E+00 -0.00000000000E+00 -0.74505805969E-08  0.93827000000E+00  0.93827000000E+00 0.  1.
     999902    2    1    2    0    0  0.24250489557E-01 -0.44580817953E-02  0.79037020034E-03  0.10192604758E+01  0.10189618895E+01 0.  0.
     999903    2    3    3    0    0 -0.18669107212E-01  0.20264418655E-01 -0.12475389481E+00  0.12897139004E+00  0.17632440314E-01 0.  0.
         14    1    1    2    0    0 -0.24250489557E-01  0.44580817953E-02 -0.79037020034E-03  0.24669524156E-01  0.00000000000E+00 0.  1.
     999901    1    3    3    0    0  0.42919596768E-01 -0.24722500451E-01  0.12554426501E+00  0.89028908580E+00  0.88000000000E+00 0. -1.
        -11    1    4    4    0    0 -0.16405997387E-01  0.10608333496E-01 -0.10562925089E+00  0.10742203337E+00  0.51100000000E-03 0.  1.
         11    1    4    4    0    0 -0.22631098244E-02  0.96560851595E-02 -0.19124643924E-01  0.21549356671E-01  0.51100000000E-03 0. -1.
</event>
<event>
 8    1  0.1106905E+005  0.1043930E+01  0.7957747E-01            NaN
         13   -1    0    0    0    0  0.00000000000E+00  0.00000000000E+00  0.74505805969E-08  0.10566000000E+00  0.10566000000E+00 0.  1.
     999900   -1    0    0    0    0 -0.00000000000E+00 -0.00000000000E+00 -0.74505805969E-08  0.93827000000E+00  0.93827000000E+00 0.  1.
     999902    2    1    2    0    0 -0.20909093999E-01  0.87677135782E-02 -0.25917607110E-02  0.10211093901E+01  0.10208543512E+01 0.  0.
     999903    2    3    3    0    0 -0.91942308343E-01 -0.70351628772E-01 -0.61572056983E-01  0.13274895466E+00  0.20698478905E-01 0.  0.
         14    1    1    2    0    0  0.20909093999E-01 -0.87677135782E-02  0.25917607110E-02  0.22820609914E-01  0.00000000000E+00 0. -1.
     999901    1    3    3    0    0  0.71033214344E-01  0.79119342351E-01  0.58980296272E-01  0.88836043542E+00  0.88000000000E+00 0. -1.
        -11    1    4    4    0    0 -0.30145817751E-01 -0.35767872202E-01 -0.25277383504E-01  0.53172532830E-01  0.51100000000E-03 0. -1.
         11    1    4    4    0    0 -0.61796490593E-01 -0.34583756570E-01 -0.36294673479E-01  0.79576421835E-01  0.51100000000E-03 0.  1.
</event>
<event>
 8    1  0.1106905E+005  0.1043930E+01  0.7957747E-01            NaN
         13   -1    0    0    0    0  0.00000000000E+00  0.00000000000E+00  0.74505805969E-08  0.10566000000E+00  0.10566000000E+00 0. -1.
     999900   -1    0    0    0    0 -0.00000000000E+00 -0.00000000000E+00 -0.74505805969E-08  0.93827000000E+00  0.93827000000E+00 0.  1.
     999902    2    1    2    0    0 -0.11269381818E-01 -0.18507218890E-01  0.89046140778E-02  0.10205033428E+01  0.10202344164E+01 0.  0.
     999903    2    3    3    0    0  0.30867139777E-01  0.15256246248E-01  0.12511250411E+00  0.13122288546E+00  0.19513421411E-01 0.  0.
         14    1    1    2    0    0  0.11269381818E-01  0.18507218890E-01 -0.89046140778E-02  0.23426657241E-01  0.00000000000E+00 0. -1.
     999901    1    3    3    0    0 -0.42136521595E-01 -0.33763465137E-01 -0.11620789004E+00  0.88928045730E+00  0.88000000000E+00 0.  1.
        -11    1    4    4    0    0  0.13462022143E-02 -0.31090205792E-02  0.42554033797E-02  0.54633184318E-02  0.51100000000E-03 0.  1.
         11    1    4    4    0    0  0.29520937563E-01  0.18365266827E-01  0.12085710073E+00  0.12575956703E+00  0.51100000000E-03 0. -1.
</event>
<event>
 8    1  0.1106905E+005  0.1043930E+01  0.7957747E-01            NaN
         13   -1    0    0    0    0  0.00000000000E+00  0.00000000000E+00  0.74505805969E-08  0.10566000000E+00  0.10566000000E+00 0.  1.
     999900   -1    0    0    0    0 -0.00000000000E+00 -0.00000000000E+00 -0.74505805969E-08  0.93827000000E+00  0.93827000000E+00 0. -1.
     999902    2    1    2    0    0  0.19112416189E-01 -0.13656000474E-01 -0.86780646305E-02  0.10188884424E+01  0.10185806686E+01 0.  0.
     999903    2    3    3    0    0 -0.17863086784E-01  0.34603493936E-01  0.11989232497E+00  0.12747018383E+00  0.18920531635E-01 0.  0.
         14    1    1    2    0    0 -0.19112416189E-01  0.13656000474E-01  0.86780646305E-02  0.25041557605E-01  0.00000000000E+00 0.  1.
     999901    1    3    3    0    0  0.36975502973E-01 -0.48259494410E-01 -0.12857038960E+00  0.89141825856E+00  0.88000000000E+00 0. -1.
        -11    1    4    4    0    0 -0.87014431760E-02  0.32478568194E-01  0.87618330481E-01  0.93849909230E-01  0.51100000000E-03 0. -1.
         11    1    4    4    0    0 -0.91616436079E-02  0.21249257427E-02  0.32273994488E-01  0.33620274601E-01  0.51100000000E-03 0.  1.
</event>
<event>
 8    1  0.1106905E+005  0.1043930E+01  0.7957747E-01            NaN
         13   -1    0    0    0    0  0.00000000000E+00  0.00000000000E+00  0.74505805969E-08  0.10566000000E+00  0.10566000000E+00 0. -1.
     999900   -1    0    0    0    0 -0.00000000000E+00 -0.00000000000E+00 -0.74505805969E-08  0.93827000000E+00  0.93827000000E+00 0.  1.
     999902    2    1    2    0    0 -0.97972778859E-02  0.18816740494E-01  0.84322752917E-02  0.10211010788E+01  0.10208458520E+01 0.  0.
     999903    2    3    3    0    0 -0.20387311841E-01  0.11818479389E+00 -0.54431037841E-01  0.13321710271E+00  0.20019255310E-01 0.  0.
         14    1    1    2    0    0  0.97972778859E-02 -0.18816740494E-01 -0.84322752917E-02  0.22828921205E-01  0.00000000000E+00 0.  1.
     999901    1    3    3    0    0  0.10590033955E-01 -0.99368053393E-01  0.62863313133E-01  0.88788397609E+00  0.88000000000E+00 0. -1.
        -11    1    4    4    0    0 -0.19972458921E-01  0.58207716628E-01 -0.25337494531E-01  0.66552889798E-01  0.51100000000E-03 0. -1.
         11    1    4    4    0    0 -0.41485291966E-03  0.59977077259E-01 -0.29093543310E-01  0.66664212910E-01  0.51100000000E-03 0.  1.
</event>
<event>
 8    1  0.1106905E+005  0.1043930E+01  0.7957747E-01            NaN
         13   -1    0    0    0    0  0.00000000000E+00  0.00000000000E+00  0.74505805969E-08  0.10566000000E+00  0.10566000000E+00 0.  1.
     999900   -1    0    0    0    0 -0.00000000000E+00 -0.00000000000E+00 -0.74505805969E-08  0.93827000000E+00  0.93827000000E+00 0.  1.
     999902    2    1    2    0    0 -0.81242549087E-02 -0.92172235102E-02 -0.18852925250E-01  0.10214268109E+01  0.10211788955E+01 0.  0.
     999903    2    3    3    0    0 -0.11534864711E+00 -0.43936109691E-01  0.42597236991E-01  0.13211325894E+00  0.20092199112E-01 0.  0.
         14    1    1    2    0    0  0.81242549087E-02  0.92172235102E-02  0.18852925250E-01  0.22503189053E-01  0.00000000000E+00 0.  1.
     999901    1    3    3    0    0  0.10722439220E+00  0.34718886181E-01 -0.61450162241E-01  0.88931355200E+00  0.88000000000E+00 0.  1.
        -11    1    4    4    0    0 -0.57082367629E-01 -0.13652697867E-01  0.13174821600E-01  0.60155048818E-01  0.51100000000E-03 0. -1.
         11    1    4    4    0    0 -0.58266279478E-01 -0.30283411824E-01  0.29422415391E-01  0.71958210124E-01  0.51100000000E-03 0.  1.
</event>
<event>
 8    1  0.1106905E+005  0.1043930E+01  0.7957747E-01            NaN
         13   -1    0    0    0    0  0.00000000000E+00  0.00000000000E+00  0.74505805969E-08  0.10566000000E+00  0.10566000000E+00 0.  1.
     999900   -1    0    0    0    0 -0.00000000000E+00 -0.00000000000E+00 -0.74505805969E-08  0.93827000000E+00  0.93827000000E+00 0. -1.
     999902    2    1    2    0    0  0.87813414382E-02  0.22208024290E-01  0.17694510452E-02  0.10199834082E+01  0.10197022672E+01 0.  0.
     999903    2    3    3    0    0  0.10638206855E+00 -0.67344650384E-01  0.23857518694E-01  0.12979608738E+00  0.20625146194E-01 0.  0.
         14    1    1    2    0    0 -0.87813414382E-02 -0.22208024290E-01 -0.17694510452E-02  0.23946591768E-01  0.00000000000E+00 0.  1.
     999901    1    3    3    0    0 -0.97600727116E-01  0.89552674674E-01 -0.22088067649E-01  0.89018732085E+00  0.88000000000E+00 0.  1.
        -11    1    4    4    0    0  0.93082171044E-01 -0.50676687486E-01  0.22985856100E-01  0.10844827303E+00  0.51100000000E-03 0. -1.
         11    1    4    4    0    0  0.13299897510E-01 -0.16667962898E-01  0.87166259384E-03  0.21347814352E-01  0.51100000000E-03 0.  1.
</event>
<event>
 8    1  0.1106905E+005  0.1043930E+01  0.7957747E-01            NaN
         13   -1    0    0    0    0  0.00000000000E+00  0.00000000000E+00  0.74505805969E-08  0.10566000000E+00  0.10566000000E+00 0.  1.
     999900   -1    0    0    0    0 -0.00000000000E+00 -0.00000000000E+00 -0.74505805969E-08  0.93827000000E+00  0.93827000000E+00 0.  1.
     999902    2    1    2    0    0  0.62687020508E-02 -0.10734896257E-01  0.19879485539E-01  0.10204837089E+01  0.10202143262E+01 0.  0.
     999903    2    3    3    0    0  0.83325589317E-01  0.93899281608E-01  0.30951178155E-01  0.13087218834E+00  0.20231790113E-01 0.  0.
         14    1    1    2    0    0 -0.62687020508E-02  0.10734896257E-01 -0.19879485539E-01  0.23446291142E-01  0.00000000000E+00 0. -1.
     999901    1    3    3    0    0 -0.77056887267E-01 -0.10463417787E+00 -0.11071692617E-01  0.88961152051E+00  0.88000000000E+00 0.  1.
        -11    1    4    4    0    0  0.41134564535E-01  0.59821073525E-01  0.13102433518E-01  0.73773627552E-01  0.51100000000E-03 0. -1.
         11    1    4    4    0    0  0.42191024783E-01  0.34078208084E-01  0.17848744638E-01  0.57098560792E-01  0.51100000000E-03 0.  1.
</event>
<event>
 8    1  0.1106905E+005  0.1043930E+01  0.7957747E-01            NaN
         13   -1    0    0    0    0  0.00000000000E+00  0.00000000000E+00  0.74505805969E-08  0.10566000000E+00  0.10566000000E+00 0. -1.
     999900   -1    0    0    0    0 -0.00000000000E+00 -0.00000000000E+00 -0.74505805969E-08  0.93827000000E+00  0.93827000000E+00 0.  1.
     999902    2    1    2    0    0 -0.21656498285E-02  0.13204891918E-01 -0.19085397273E-01  0.10206209546E+01  0.10203547527E+01 0.  0.
     999903    2    3    3    0    0 -0.12879806067E+00  0.16040709787E-01 -0.78248382224E-02  0.13148057784E+00  0.19485108512E-01 0.  0.
         14    1    1    2    0    0  0.21656498285E-02 -0.13204891918E-01  0.19085397273E-01  0.23309045429E-01  0.00000000000E+00 0. -1.
     999901    1    3    3    0    0  0.12663241084E+00 -0.28358178690E-02 -0.11260559051E-01  0.88914037673E+00  0.88000000000E+00 0. -1.
        -11    1    4    4    0    0 -0.77961090446E-01  0.18883009950E-01 -0.21425027130E-02  0.80245567648E-01  0.51100000000E-03 0.  1.
         11    1    4    4    0    0 -0.50836970225E-01 -0.28423001626E-02 -0.56823355094E-02  0.51235010195E-01  0.51100000000E-03 0. -1.
</event>
<event>
 8    1  0.1106905E+005  0.1043930E+01  0.7957747E-01            NaN
         13   -1    0    0    0    0  0.00000000000E+00  0.00000000000E+00  0.74505805969E-08  0.10566000000E+00  0.10566000000E+00 0.  1.
     999900   -1    0    0    0    0 -0.00000000000E+00 -0.00000000000E+00 -0.74505805969E-08  0.93827000000E+00  0.93827000000E+00 0.  1.
     999902    2    1    2    0    0 -0.11786920667E-01  0.70887451206E-02 -0.22159121866E-01  0.10178491931E+01  0.10175149981E+01 0.  0.
     999903    2    3    3    0    0 -0.16175396202E-01  0.91577228197E-01  0.84552143347E-01  0.12737468106E+00  0.20669113754E-01 0.  0.
         14    1    1    2    0    0  0.11786920667E-01 -0.70887451206E-02  0.22159121866E-01  0.26080806891E-01  0.00000000000E+00 0.  1.
     999901    1    3    3    0    0  0.43884755348E-02 -0.84488483076E-01 -0.10671126521E+00  0.89047451205E+00  0.88000000000E+00 0.  1.
        -11    1    4    4    0    0 -0.70091801895E-02  0.61934092733E-01  0.43934238941E-01  0.76259025183E-01  0.51100000000E-03 0.  1.
         11    1    4    4    0    0 -0.91662160127E-02  0.29643135464E-01  0.40617904406E-01  0.51115655874E-01  0.51100000000E-03 0. -1.
</event>
<event>
 8    1  0.1106905E+005  0.1043930E+01  0.7957747E-01            NaN
         13   -1    0    0    0    0  0.00000000000E+00  0.00000000000E+00  0.74505805969E-08  0.10566000000E+00  0.10566000000E+00 0.  1.
     999900   -1    0    0    0    0 -0.00000000000E+00 -0.00000000000E+00 -0.74505805969E-08  0.93827000000E+00  0.93827000000E+00 0. -1.
     999902    2    1    2    0    0 -0.15050120757E-01 -0.13827821957E-01  0.13819320494E-01  0.10192583885E+01  0.10189597510E+01 0.  0.
     999903    2    3    3    0    0 -0.71586562670E-01 -0.70597318696E-01 -0.80653407992E-01  0.13058283384E+00  0.20935303006E-01 0.  0.
         14    1    1    2    0    0  0.15050120757E-01  0.13827821957E-01 -0.13819320494E-01  0.24671611495E-01  0.00000000000E+00 0. -1.
     999901    1    3    3    0    0  0.56536441914E-01  0.56769496739E-01  0.94472728485E-01  0.88867555466E+00  0.88000000000E+00 0.  1.
        -11    1    4    4    0    0 -0.41128576880E-01 -0.54244501122E-01 -0.51579421212E-01  0.85409153793E-01  0.51100000000E-03 0. -1.
         11    1    4    4    0    0 -0.30457985790E-01 -0.16352817574E-01 -0.29073986780E-01  0.45173680050E-01  0.51100000000E-03 0.  1.
</event>
<event>
 8    1  0.1106905E+005  0.1043930E+01  0.7957747E-01            NaN
         13   -1    0    0    0    0  0.00000000000E+00  0.00000000000E+00  0.74505805969E-08  0.10566000000E+00  0.10566000000E+00 0.  1.
     999900   -1    0    0    0    0 -0.00000000000E+00 -0.00000000000E+00 -0.74505805969E-08  0.93827000000E+00  0.93827000000E+00 0.  1.
     999902    2    1    2    0    0  0.22976950246E-01 -0.62084177845E-02  0.56437208745E-02  0.10194690867E+01  0.10191755896E+01 0.  0.
     999903    2    3    3    0    0 -0.38922420979E-01  0.11608071892E+00  0.33301723883E-01  0.12842973278E+00  0.19887264471E-01 0.  0.
         14    1    1    2    0    0 -0.22976950246E-01  0.62084177845E-02 -0.56437208745E-02  0.24460913297E-01  0.00000000000E+00 0. -1.
     999901    1    3    3    0    0  0.61899371226E-01 -0.12228913670E+00 -0.27658003009E-01  0.89103935393E+00  0.88000000000E+00 0.  1.
        -11    1    4    4    0    0 -0.22915580991E-01  0.39561007968E-01  0.15220123681E-01  0.48188281661E-01  0.51100000000E-03 0.  1.
         11    1    4    4    0    0 -0.16006839989E-01  0.76519710951E-01  0.18081600203E-01  0.80241451117E-01  0.51100000000E-03 0. -1.
</event>
<event>
 8    1  0.1106905E+005  0.1043930E+01  0.7957747E-01            NaN
         13   -1    0    0    0    0  0.00000000000E+00  0.00000000000E+00  0.74505805969E-08  0.10566000000E+00  0.10566000000E+00 0.  1.
     999900   -1    0    0    0    0 -0.00000000000E+00 -0.00000000000E+00 -0.74505805969E-08  0.93827000000E+00  0.93827000000E+00 0.  1.
     999902    2    1    2    0    0  0.16011949011E-01 -0.14420155579E-01 -0.11290999393E-01  0.10196028533E+01  0.10193125960E+01 0.  0.
     999903    2    3    3    0    0 -0.72156858194E-01 -0.62996477961E-01  0.83910171297E-01  0.12876242959E+00  0.19070343643E-01 0.  0.
         14    1    1    2    0    0 -0.16011949011E-01  0.14420155579E-01  0.11290999393E-01  0.24327146676E-01  0.00000000000E+00 0.  1.
     999901    1    3    3    0    0  0.88168807206E-01  0.48576322381E-01 -0.95201170690E-01  0.89084042374E+00  0.88000000000E+00 0.  1.
        -11    1    4    4    0    0 -0.69975285849E-01 -0.55542074711E-01  0.80523682217E-01  0.12027380102E+00  0.51100000000E-03 0. -1.
         11    1    4    4    0    0 -0.21815723459E-02 -0.74544032498E-02  0.33864890795E-02  0.84886285698E-02  0.51100000000E-03 0.  1.
</event>
<event>
 8    1  0.1106905E+005  0.1043930E+01  0.7957747E-01            NaN
         13   -1    0    0    0    0  0.00000000000E+00  0.00000000000E+00  0.74505805969E-08  0.10566000000E+00  0.10566000000E+00 0. -1.
     999900   -1    0    0    0    0 -0.00000000000E+00 -0.00000000000E+00 -0.74505805969E-08  0.93827000000E+00  0.93827000000E+00 0.  1.
     999902    2    1    2    0    0 -0.22649812112E-01 -0.72168722105E-02 -0.60918061518E-02  0.10193900869E+01  0.10190946678E+01 0.  0.
     999903    2    3    3    0    0 -0.81718664457E-01  0.75415305295E-01  0.65759296687E-01  0.13063827280E+00  0.19407854727E-01 0.  0.
         14    1    1    2    0    0  0.22649812112E-01  0.72168722105E-02  0.60918061518E-02  0.24539913109E-01  0.00000000000E+00 0.  1.
     999901    1    3    3    0    0  0.59068852346E-01 -0.82632177506E-01 -0.71851102839E-01  0.88875181409E+00  0.88000000000E+00 0. -1.
        -11    1    4    4    0    0 -0.17039517633E-02  0.54081578616E-02  0.74614628828E-02  0.93854234011E-02  0.51100000000E-03 0.  1.
         11    1    4    4    0    0 -0.80014712694E-01  0.70007147434E-01  0.58297833804E-01  0.12125284940E+00  0.51100000000E-03 0. -1.
</event>
<event>
 7    1  0.1106905E+005  0.1043930E+01  0.7957747E-01            NaN
         13   -1    0    0    0    0  0.00000000000E+00  0.00000000000E+00  0.74505805969E-08  0.10566000000E+00  0.10566000000E+00 0.  1.
     999900   -1    0    0    0    0 -0.00000000000E+00 -0.00000000000E+00 -0.74505805969E-08  0.93827000000E+00  0.93827000000E+00 0.  1.
     999903    2    1    2    0    0  0.18311773442E-01  0.52703973762E-01 -0.96636514151E-01  0.11404170400E+00  0.23534325740E-01 0.  0.
         14    1    1    2    0    0 -0.20901592956E-01 -0.34217593959E-01  0.23925789151E-01  0.46692223239E-01  0.00000000000E+00 0. -1.
     999901    1    1    2    0    0  0.25898195148E-02 -0.18486379803E-01  0.72710725000E-01  0.88319607276E+00  0.88000000000E+00 0. -1.
        -11    1    3    3    0    0  0.22537516752E-01  0.42931262137E-01 -0.87340169002E-01  0.99897943784E-01  0.51100000000E-03 0.  1.
         11    1    3    3    0    0 -0.42257433101E-02  0.97727116253E-02 -0.92963451492E-02  0.14143760220E-01  0.51100000000E-03 0. -1.
</event>
<event>
 8    1  0.1106905E+005  0.1043930E+01  0.7957747E-01            NaN
         13   -1    0    0    0    0  0.00000000000E+00  0.00000000000E+00  0.74505805969E-08  0.10566000000E+00  0.10566000000E+00 0.  1.
     999900   -1    0    0    0    0 -0.00000000000E+00 -0.00000000000E+00 -0.74505805969E-08  0.93827000000E+00  0.93827000000E+00 0.  1.
     999902    2    1    2    0    0  0.29824899872E-02  0.23253480806E-01 -0.29595340189E-02  0.10202999670E+01  0.10200262959E+01 0.  0.
     999903    2    3    3    0    0  0.92489799318E-01  0.84405785317E-01 -0.38012866283E-01  0.13295567147E+00  0.23527282053E-01 0.  0.
         14    1    1    2    0    0 -0.29824899872E-02 -0.23253480806E-01  0.29595340189E-02  0.23630032961E-01  0.00000000000E+00 0. -1.
     999901    1    3    3    0    0 -0.89507309331E-01 -0.61152304511E-01  0.35053332264E-01  0.88734429557E+00  0.88000000000E+00 0. -1.
        -11    1    4    4    0    0  0.53343968412E-01  0.34428991132E-01 -0.24459163650E-01  0.68040033831E-01  0.51100000000E-03 0.  1.
         11    1    4    4    0    0  0.39145830906E-01  0.49976794185E-01 -0.13553702633E-01  0.64915637641E-01  0.51100000000E-03 0. -1.
</event>
<event>
 8    1  0.1106905E+005  0.1043930E+01  0.7957747E-01            NaN
         13   -1    0    0    0    0  0.00000000000E+00  0.00000000000E+00  0.74505805969E-08  0.10566000000E+00  0.10566000000E+00 0. -1.
     999900   -1    0    0    0    0 -0.00000000000E+00 -0.00000000000E+00 -0.74505805969E-08  0.93827000000E+00  0.93827000000E+00 0.  1.
     999902    2    1    2    0    0 -0.10157031595E-01 -0.21686014510E-01  0.41701299895E-02  0.10196228303E+01  0.10193330552E+01 0.  0.
     999903    2    3    3    0    0 -0.89693705424E-01 -0.61753762071E-01 -0.71583596855E-01  0.13188968680E+00  0.20302468416E-01 0.  0.
         14    1    1    2    0    0  0.10157031595E-01  0.21686014510E-01 -0.41701299895E-02  0.24307169730E-01  0.00000000000E+00 0.  1.
     999901    1    3    3    0    0  0.79536673829E-01  0.40067747561E-01  0.75753726844E-01  0.88773314347E+00  0.88000000000E+00 0.  1.
        -11    1    4    4    0    0 -0.37380106984E-01 -0.19270179347E-01 -0.17814936411E-01  0.45675434213E-01  0.51100000000E-03 0. -1.
         11    1    4    4    0    0 -0.52313598440E-01 -0.42483582724E-01 -0.53768660444E-01  0.86214252591E-01  0.51100000000E-03 0.  1.
</event>
<event>
 8    1  0.1106905E+005  0.1043930E+01  0.7957747E-01            NaN
         13   -1    0    0    0    0  0.00000000000E+00  0.00000000000E+00  0.74505805969E-08  0.10566000000E+00  0.10566000000E+00 0. -1.
     999900   -1    0    0    0    0 -0.00000000000E+00 -0.00000000000E+00 -0.74505805969E-08  0.93827000000E+00  0.93827000000E+00 0.  1.
     999902    2    1    2    0    0 -0.64722706770E-02  0.99593141044E-02  0.21141539594E-01  0.10196804037E+01  0.10193920162E+01 0.  0.
     999903    2    3    3    0    0  0.73140371234E-02 -0.11512118148E+00 -0.50454596517E-01  0.12785015113E+00  0.22217409146E-01 0.  0.
         14    1    1    2    0    0  0.64722706770E-02 -0.99593141044E-02 -0.21141539594E-01  0.24249596318E-01  0.00000000000E+00 0.  1.
     999901    1    3    3    0    0 -0.13786307800E-01  0.12508049559E+00  0.71596136112E-01  0.89183025255E+00  0.88000000000E+00 0. -1.
        -11    1    4    4    0    0 -0.67160140462E-03 -0.20875665365E-01 -0.53274311719E-03  0.20899506911E-01  0.51100000000E-03 0.  1.
         11    1    4    4    0    0  0.79856385280E-02 -0.94245516119E-01 -0.49921853400E-01  0.10695064422E+00  0.51100000000E-03 0. -1.
</event>
<event>
 8    1  0.1106905E+005  0.1043930E+01  0.7957747E-01            NaN
         13   -1    0    0    0    0  0.00000000000E+00  0.00000000000E+00  0.74505805969E-08  0.10566000000E+00  0.10566000000E+00 0. -1.
     999900   -1    0    0    0    0 -0.00000000000E+00 -0.00000000000E+00 -0.74505805969E-08  0.93827000000E+00  0.93827000000E+00 0. -1.
     999902    2    1    2    0    0 -0.10699683892E-01 -0.20048855953E-01  0.89460513862E-02  0.10195072300E+01  0.10192146586E+01 0.  0.
     999903    2    3    3    0    0 -0.95365006869E-01 -0.55255454618E-02  0.88430100572E-01  0.13175903508E+00  0.20384907406E-01 0.  0.
         14    1    1    2    0    0  0.10699683892E-01  0.20048855953E-01 -0.89460513862E-02  0.24422770028E-01  0.00000000000E+00 0. -1.
     999901    1    3    3    0    0  0.84665322977E-01 -0.14523310492E-01 -0.79484049186E-01  0.88774819489E+00  0.88000000000E+00 0. -1.
        -11    1    4    4    0    0 -0.29625435116E-01 -0.65969730868E-02  0.39415664513E-01  0.49749795877E-01  0.51100000000E-03 0.  1.
         11    1    4    4    0    0 -0.65739571752E-01  0.10714276250E-02  0.49014436059E-01  0.82009239202E-01  0.51100000000E-03 0. -1.
</event>
<event>
 8    1  0.1106905E+005  0.1043930E+01  0.7957747E-01            NaN
         13   -1    0    0    0    0  0.00000000000E+00  0.00000000000E+00  0.74505805969E-08  0.10566000000E+00  0.10566000000E+00 0.  1.
     999900   -1    0    0    0    0 -0.00000000000E+00 -0.00000000000E+00 -0.74505805969E-08  0.93827000000E+00  0.93827000000E+00 0. -1.
     999902    2    1    2    0    0 -0.56864472154E-02  0.18767571978E-01  0.11537929667E-01  0.10211773900E+01  0.10209238858E+01 0.  0.
     999903    2    3    3    0    0  0.74315389342E-01  0.92221630903E-01 -0.54825435998E-01  0.13202054844E+00  0.19899509509E-01 0.  0.
         14    1    1    2    0    0  0.56864472154E-02 -0.18767571978E-01 -0.11537929667E-01  0.22752609980E-01  0.00000000000E+00 0. -1.
     999901    1    3    3    0    0 -0.80001836557E-01 -0.73454058925E-01  0.66363365665E-01  0.88915684158E+00  0.88000000000E+00 0.  1.
        -11    1    4    4    0    0  0.10752214217E-01  0.20285020060E-01 -0.37065210353E-02  0.23261375037E-01  0.51100000000E-03 0. -1.
         11    1    4    4    0    0  0.63563175125E-01  0.71936610843E-01 -0.51118914963E-01  0.10875917340E+00  0.51100000000E-03 0.  1.
</event>
<event>
 8    1  0.1106905E+005  0.1043930E+01  0.7957747E-01            NaN
         13   -1    0    0    0    0  0.00000000000E+00  0.00000000000E+00  0.74505805969E-08  0.10566000000E+00  0.10566000000E+00 0.  1.
     999900   -1    0    0    0    0 -0.00000000000E+00 -0.00000000000E+00 -0.74505805969E-08  0.93827000000E+00  0.93827000000E+00 0.  1.
     999902    2    1    2    0    0 -0.19443027246E-01 -0.12320965975E-01 -0.24683162436E-03  0.10209104770E+01  0.10206509216E+01 0.  0.
     999903    2    3    3    0    0 -0.55264997110E-01 -0.38304991826E-01  0.11231489759E+00  0.13263770025E+00  0.21368926094E-01 0.  0.
         14    1    1    2    0    0  0.19443027246E-01  0.12320965975E-01  0.24683162436E-03  0.23019522951E-01  0.00000000000E+00 0. -1.
     999901    1    3    3    0    0  0.35821969864E-01  0.25984025851E-01 -0.11256172921E+00  0.88827277680E+00  0.88000000000E+00 0.  1.
        -11    1    4    4    0    0 -0.30212395221E-01 -0.18474000931E-01  0.78460527081E-01  0.86083639364E-01  0.51100000000E-03 0.  1.
         11    1    4    4    0    0 -0.25052601889E-01 -0.19830990895E-01  0.33854370506E-01  0.46554060883E-01  0.51100000000E-03 0. -1.
</event>
<event>
 8    1  0.1106905E+005  0.1043930E+01  0.7957747E-01            NaN
         13   -1    0    0    0    0  0.00000000000E+00  0.00000000000E+00  0.74505805969E-08  0.10566000000E+00  0.10566000000E+00 0. -1.
     999900   -1    0    0    0    0 -0.00000000000E+00 -0.00000000000E+00 -0.74505805969E-08  0.93827000000E+00  0.93827000000E+00 0. -1.
     999902    2    1    2    0    0  0.22626981471E-01  0.72569407832E-02  0.47827985915E-02  0.10196912162E+01  0.10194030889E+01 0.  0.
     999903    2    3    3    0    0 -0.54984959463E-01  0.85758501190E-01  0.78264289503E-01  0.12975546686E+00  0.18256940468E-01 0.  0.
         14    1    1    2    0    0 -0.22626981471E-01 -0.72569407832E-02 -0.47827985915E-02  0.24238783847E-01  0.00000000000E+00 0.  1.
     999901    1    3    3    0    0  0.77611940934E-01 -0.78501560407E-01 -0.73481490911E-01  0.88993574929E+00  0.88000000000E+00 0. -1.
        -11    1    4    4    0    0 -0.43273199465E-01  0.55308275562E-01  0.46554303261E-01  0.84256390919E-01  0.51100000000E-03 0. -1.
         11    1    4    4    0    0 -0.11711759997E-01  0.30450225629E-01  0.31709986242E-01  0.45499075942E-01  0.51100000000E-03 0.  1.
</event>
<event>
 8    1  0.1106905E+005  0.1043930E+01  0.7957747E-01            NaN
         13   -1    0    0    0    0  0.00000000000E+00  0.00000000000E+00  0.74505805969E-08  0.10566000000E+00  0.10566000000E+00 0.  1.
     999900   -1    0    0    0    0 -0.00000000000E+00 -0.00000000000E+00 -0.74505805969E-08  0.93827000000E+00  0.93827000000E+00 0.  1.
     999902    2    1    2    0    0  0.12812938268E-01  0.37273363048E-02 -0.19961105639E-01  0.10199193740E+01  0.10196367095E+01 0.  0.
     999903    2    3    3    0    0  0.11476948543E+00  0.35460780699E-01  0.48002837847E-01  0.13086299411E+00  0.19782543617E-01 0.  0.
         14    1    1    2    0    0 -0.12812938268E-01 -0.37273363048E-02  0.19961105639E-01  0.24010626009E-01  0.00000000000E+00 0. -1.
     999901    1    3    3    0    0 -0.10195654716E+00 -0.31733444394E-01 -0.67963943486E-01  0.88905637989E+00  0.88000000000E+00 0.  1.
        -11    1    4    4    0    0  0.30399999427E-01  0.16790149558E-01  0.19719903155E-01  0.39940014882E-01  0.51100000000E-03 0. -1.
         11    1    4    4    0    0  0.84369486000E-01  0.18670631141E-01  0.28282934692E-01  0.90922979223E-01  0.51100000000E-03 0.  1.
</event>
<event>
 8    1  0.1106905E+005  0.1043930E+01  0.7957747E-01            NaN
         13   -1    0    0    0    0  0.00000000000E+00  0.00000000000E+00  0.74505805969E-08  0.10566000000E+00  0.10566000000E+00 0. -1.
     999900   -1    0    0    0    0 -0.00000000000E+00 -0.00000000000E+00 -0.74505805969E-08  0.93827000000E+00  0.93827000000E+00 0.  1.
     999902    2    1    2    0    0 -0.12100552232E-01  0.19237199452E-01  0.73852806464E-02  0.10200336493E+01  0.10197537007E+01 0.  0.
     999903    2    3    3    0    0  0.21946089393E-01  0.53198278885E-01  0.11704326179E+00  0.13192475870E+00  0.19832526559E-01 0.  0.
         14    1    1    2    0    0  0.12100552232E-01 -0.19237199452E-01 -0.73852806464E-02  0.23896350711E-01  0.00000000000E+00 0.  1.
     999901    1    3    3    0    0 -0.34046641626E-01 -0.33961079432E-01 -0.10965798115E+00  0.88810889059E+00  0.88000000000E+00 0.  1.
        -11    1    4    4    0    0  0.18089310584E-01  0.40294677461E-01  0.10475192702E+00  0.11368426243E+00  0.51100000000E-03 0.  1.
         11    1    4    4    0    0  0.38567788097E-02  0.12903601424E-01  0.12291334775E-01  0.18240496267E-01  0.51100000000E-03 0. -1.
</event>
<event>
 8    1  0.1106905E+005  0.1043930E+01  0.7957747E-01            NaN
         13   -1    0    0    0    0  0.00000000000E+00  0.00000000000E+00  0.74505805969E-08  0.10566000000E+00  0.10566000000E+00 0. -1.
     999900   -1    0    0    0    0 -0.00000000000E+00 -0.00000000000E+00 -0.74505805969E-08  0.93827000000E+00  0.93827000000E+00 0.  1.
     999902    2    1    2    0    0  0.12657915969E-01 -0.71081045883E-02 -0.18995052201E-01  0.10200226790E+01  0.10197424703E+01 0.  0.
     999903    2    3    3    0    0  0.11618007681E+00  0.35410840902E-01 -0.49029467644E-01  0.13242661966E+00  0.19523908294E-01 0.  0.
         14    1    1    2    0    0 -0.12657915969E-01  0.71081045883E-02  0.18995052201E-01  0.23907320963E-01  0.00000000000E+00 0. -1.
     999901    1    3    3    0    0 -0.10352216085E+00 -0.42518945490E-01  0.30034415444E-01  0.88759605938E+00  0.88000000000E+00 0. -1.
        -11    1    4    4    0    0  0.64630527553E-01  0.24616018320E-01 -0.36852299844E-01  0.78367126874E-01  0.51100000000E-03 0.  1.
         11    1    4    4    0    0  0.51549549261E-01  0.10794822583E-01 -0.12177167800E-01  0.54059492786E-01  0.51100000000E-03 0. -1.
</event>
<event>
 8    1  0.1106905E+005  0.1043930E+01  0.7957747E-01            NaN
         13   -1    0    0    0    0  0.00000000000E+00  0.00000000000E+00  0.74505805969E-08  0.10566000000E+00  0.10566000000E+00 0.  1.
     999900   -1    0    0    0    0 -0.00000000000E+00 -0.00000000000E+00 -0.74505805969E-08  0.93827000000E+00  0.93827000000E+00 0.  1.
     999902    2    1    2    0    0 -0.17797715108E-01 -0.80494505737E-03 -0.15878918389E-01  0.10200648235E+01  0.10197856135E+01 0.  0.
     999903    2    3    3    0    0 -0.35458853213E-01 -0.12220995001E+00 -0.21591212926E-01  0.13153585869E+00  0.25355462760E-01 0.  0.
         14    1    1    2    0    0  0.17797715108E-01  0.80494505737E-03  0.15878918389E-01  0.23865176488E-01  0.00000000000E+00 0.  1.
     999901    1    3    3    0    0  0.17661138105E-01  0.12140500495E+00  0.57122945369E-02  0.88852896483E+00  0.88000000000E+00 0.  1.
        -11    1    4    4    0    0 -0.28754054241E-01 -0.55759619429E-01 -0.14310922975E-01  0.64350558906E-01  0.51100000000E-03 0. -1.
         11    1    4    4    0    0 -0.67047989715E-02 -0.66450330581E-01 -0.72802899511E-02  0.67185299779E-01  0.51100000000E-03 0.  1.
</event>
<event>
 8    1  0.1106905E+005  0.1043930E+01  0.7957747E-01            NaN
         13   -1    0    0    0    0  0.00000000000E+00  0.00000000000E+00  0.74505805969E-08  0.10566000000E+00  0.10566000000E+00 0. -1.
     999900   -1    0    0    0    0 -0.00000000000E+00 -0.00000000000E+00 -0.74505805969E-08  0.93827000000E+00  0.93827000000E+00 0.  1.
     999902    2    1    2    0    0  0.42896584052E-02 -0.78985619479E-03 -0.23478707241E-01  0.10200495742E+01  0.10197700030E+01 0.  0.
     999903    2    3    3    0    0 -0.33703232476E-01  0.12372715710E+00  0.54142227251E-02  0.13000308792E+00  0.20668134354E-01 0.  0.
         14    1    1    2    0    0 -0.42896584052E-02  0.78985619479E-03  0.23478707241E-01  0.23880425787E-01  0.00000000000E+00 0. -1.
     999901    1    3    3    0    0  0.37992890881E-01 -0.12451701330E+00 -0.28892929966E-01  0.89004648629E+00  0.88000000000E+00 0.  1.
        -11    1    4    4    0    0 -0.26383910188E-01  0.92887011887E-01  0.12926725044E-01  0.97424170694E-01  0.51100000000E-03 0. -1.
         11    1    4    4    0    0 -0.73193222882E-02  0.30840145215E-01 -0.75125023190E-02  0.32578917228E-01  0.51100000000E-03 0.  1.
</event>
<event>
 8    1  0.1106905E+005  0.1043930E+01  0.7957747E-01            NaN
         13   -1    0    0    0    0  0.00000000000E+00  0.00000000000E+00  0.74505805969E-08  0.10566000000E+00  0.10566000000E+00 0. -1.
     999900   -1    0    0    0    0 -0.00000000000E+00 -0.00000000000E+00 -0.74505805969E-08  0.93827000000E+00  0.93827000000E+00 0. -1.
     999902    2    1    2    0    0 -0.55267782328E-02  0.48286468650E-02  0.21872447641E-01  0.10208591293E+01  0.10205984014E+01 0.  0.
     999903    2    3    3    0    0  0.77464904358E-01  0.46939668563E-01  0.95014970754E-01  0.13293414025E+00  0.20964185756E-01 0.  0.
         14    1    1    2    0    0  0.55267782328E-02 -0.48286468650E-02 -0.21872447641E-01  0.23070870681E-01  0.00000000000E+00 0.  1.
     999901    1    3    3    0    0 -0.82991682590E-01 -0.42111021698E-01 -0.73142523112E-01  0.88792498907E+00  0.88000000000E+00 0. -1.
        -11    1    4    4    0    0  0.74409986612E-02  0.10141314944E-01  0.63153206402E-02  0.14084002473E-01  0.51100000000E-03 0. -1.
         11    1    4    4    0    0  0.70023905696E-01  0.36798353619E-01  0.88699650113E-01  0.11885013778E+00  0.51100000000E-03 0.  1.
</event>
<event>
 8    1  0.1106905E+005  0.1043930E+01  0.7957747E-01            NaN
         13   -1    0    0    0    0  0.00000000000E+00  0.00000000000E+00  0.74505805969E-08  0.10566000000E+00  0.10566000000E+00 0. -1.
     999900   -1    0    0    0    0 -0.00000000000E+00 -0.00000000000E+00 -0.74505805969E-08  0.93827000000E+00  0.93827000000E+00 0.  1.
     999902    2    1    2    0    0 -0.21769575270E-01  0.18037802294E-02  0.23081632133E-01  0.10121506077E+01  0.10116515818E+01 0.  0.
     999903    2    3    3    0    0  0.97992892386E-01  0.19835334620E-01 -0.62806498152E-01  0.11971295920E+00  0.19760792792E-01 0.  0.
         14    1    1    2    0    0  0.21769575270E-01 -0.18037802294E-02 -0.23081632133E-01  0.31779392261E-01  0.00000000000E+00 0.  1.
     999901    1    3    3    0    0 -0.11976246766E+00 -0.18031554391E-01  0.85888130285E-01  0.89243764854E+00  0.88000000000E+00 0. -1.
        -11    1    4    4    0    0  0.76007586667E-01  0.11838343418E-01 -0.38680888775E-01  0.86103262907E-01  0.51100000000E-03 0. -1.
         11    1    4    4    0    0  0.21985305719E-01  0.79969912019E-02 -0.24125609377E-01  0.33609696289E-01  0.51100000000E-03 0.  1.
</event>
<event>
 8    1  0.1106905E+005  0.1043930E+01  0.7957747E-01            NaN
         13   -1    0    0    0    0  0.00000000000E+00  0.00000000000E+00  0.74505805969E-08  0.10566000000E+00  0.10566000000E+00 0.  1.
     999900   -1    0    0    0    0 -0.00000000000E+00 -0.00000000000E+00 -0.74505805969E-08  0.93827000000E+00  0.93827000000E+00 0. -1.
     999902    2    1    2    0    0 -0.91573865795E-02 -0.15202501504E-01 -0.16711530637E-01  0.10195527763E+01  0.10192613083E+01 0.  0.
     999903    2    3    3    0    0 -0.19134671804E-01 -0.12622571081E+00  0.20364633461E-01  0.13174629894E+00  0.25363423574E-01 0.  0.
         14    1    1    2    0    0  0.91573865795E-02  0.15202501504E-01  0.16711530637E-01  0.24377223738E-01  0.00000000000E+00 0. -1.
     999901    1    3    3    0    0  0.99772852246E-02  0.11102320930E+00 -0.37076164098E-01  0.88780647732E+00  0.88000000000E+00 0. -1.
        -11    1    4    4    0    0 -0.10845788402E-01 -0.21174002861E-01  0.10160196309E-01  0.25873929606E-01  0.51100000000E-03 0.  1.
         11    1    4    4    0    0 -0.82888834019E-02 -0.10505170795E+00  0.10204437153E-01  0.10587236934E+00  0.51100000000E-03 0. -1.
</event>
<event>
 8    1  0.1106905E+005  0.1043930E+01  0.7957747E-01            NaN
         13   -1    0    0    0    0  0.00000000000E+00  0.00000000000E+00  0.74505805969E-08  0.10566000000E+00  0.10566000000E+00 0. -1.
     999900   -1    0    0    0    0 -0.00000000000E+00 -0.00000000000E+00 -0.74505805969E-08  0.93827000000E+00  0.93827000000E+00 0.  1.
     999902    2    1    2    0    0 -0.27164047460E-02 -0.13815975925E-01 -0.20355520724E-01  0.10191790956E+01  0.10188785117E+01 0.  0.
     999903    2    3    3    0    0  0.38068616527E-01  0.67603174698E-01 -0.10314863531E+00  0.13061441259E+00  0.20026857354E-01 0.  0.
         14    1    1    2    0    0  0.27164047460E-02  0.13815975925E-01  0.20355520724E-01  0.24750904417E-01  0.00000000000E+00 0. -1.
     999901    1    3    3    0    0 -0.40785021273E-01 -0.81419150622E-01  0.82793114585E-01  0.88856468300E+00  0.88000000000E+00 0. -1.
        -11    1    4    4    0    0  0.35351496605E-01  0.48374682237E-01 -0.85246730504E-01  0.10419742980E+00  0.51100000000E-03 0.  1.
         11    1    4    4    0    0  0.27171199216E-02  0.19228492461E-01 -0.17901904805E-01  0.26416982788E-01  0.51100000000E-03 0. -1.
</event>
<event>
 8    1  0.1106905E+005  0.1043930E+01  0.7957747E-01            NaN
         13   -1    0    0    0    0  0.00000000000E+00  0.00000000000E+00  0.74505805969E-08  0.10566000000E+00  0.10566000000E+00 0. -1.
     999900   -1    0    0    0    0 -0.00000000000E+00 -0.00000000000E+00 -0.74505805969E-08  0.93827000000E+00  0.93827000000E+00 0. -1.
     999902    2    1    2    0    0  0.47441819521E-02  0.20622681768E-01  0.10449678111E-01  0.10203291941E+01  0.10200562074E+01 0.  0.
     999903    2    3    3    0    0  0.84500969604E-01 -0.81460967724E-01 -0.49210905449E-01  0.12884638335E+00  0.20084176844E-01 0.  0.
         14    1    1    2    0    0 -0.47441819521E-02 -0.20622681768E-01 -0.10449678111E-01  0.23600805883E-01  0.00000000000E+00 0.  1.
     999901    1    3    3    0    0 -0.79756787652E-01  0.10208364949E+00  0.59660583560E-01  0.89148281077E+00  0.88000000000E+00 0.  1.
        -11    1    4    4    0    0  0.58159357747E-01 -0.60953668199E-01 -0.44023279684E-01  0.95058775689E-01  0.51100000000E-03 0.  1.
         11    1    4    4    0    0  0.26341611857E-01 -0.20507299525E-01 -0.51876257653E-02  0.33787607656E-01  0.51100000000E-03 0. -1.
</event>
<event>
 8    1  0.1106905E+005  0.1043930E+01  0.7957747E-01            NaN
         13   -1    0    0    0    0  0.00000000000E+00  0.00000000000E+00  0.74505805969E-08  0.10566000000E+00  0.10566000000E+00 0.  1.
     999900   -1    0    0    0    0 -0.00000000000E+00 -0.00000000000E+00 -0.74505805969E-08  0.93827000000E+00  0.93827000000E+00 0.  1.
     999902    2    1    2    0    0  0.22411634341E-01 -0.55960912385E-02  0.26198664488E-02  0.10206821766E+01  0.10204173874E+01 0.  0.
     999903    2    3    3    0    0  0.96593752179E-01 -0.37762037446E-01  0.82192518373E-01  0.13340012360E+00  0.16842163411E-01 0.  0.
         14    1    1    2    0    0 -0.22411634341E-01  0.55960912385E-02 -0.26198664488E-02  0.23247823364E-01  0.00000000000E+00 0.  1.
     999901    1    3    3    0    0 -0.74182117839E-01  0.32165946207E-01 -0.79572651924E-01  0.88728205303E+00  0.88000000000E+00 0.  1.
        -11    1    4    4    0    0  0.14795852563E-01 -0.25092496950E-02  0.59446148377E-02  0.16149710637E-01  0.51100000000E-03 0.  1.
         11    1    4    4    0    0  0.81797899616E-01 -0.35252787751E-01  0.76247903535E-01  0.11725041296E+00  0.51100000000E-03 0. -1.
</event>
<event>
 8    1  0.1106905E+005  0.1043930E+01  0.7957747E-01            NaN
         13   -1    0    0    0    0  0.00000000000E+00  0.00000000000E+00  0.74505805969E-08  0.10566000000E+00  0.10566000000E+00 0. -1.
     999900   -1    0    0    0    0 -0.00000000000E+00 -0.00000000000E+00 -0.74505805969E-08  0.93827000000E+00  0.93827000000E+00 0. -1.
     999902    2    1    2    0    0  0.73099765893E-02  0.13195727020E-01  0.18246352448E-01  0.10202552804E+01  0.10199805610E+01 0.  0.
     999903    2    3    3    0    0  0.83353476776E-01  0.99707928355E-02 -0.96692822118E-01  0.12952298171E+00  0.19480301374E-01 0.  0.
         14    1    1    2    0    0 -0.73099765893E-02 -0.13195727020E-01 -0.18246352448E-01  0.23674719576E-01  0.00000000000E+00 0.  1.
     999901    1    3    3    0    0 -0.76043500187E-01  0.32249341847E-02  0.11493917457E+00  0.89073229871E+00  0.88000000000E+00 0.  1.
        -11    1    4    4    0    0  0.48948001078E-01  0.95571557602E-02 -0.70106341710E-01  0.86037237896E-01  0.51100000000E-03 0.  1.
         11    1    4    4    0    0  0.34405475699E-01  0.41363707528E-03 -0.26586480408E-01  0.43485743815E-01  0.51100000000E-03 0. -1.
</event>
<event>
 8    1  0.1106905E+005  0.1043930E+01  0.7957747E-01            NaN
         13   -1    0    0    0    0  0.00000000000E+00  0.00000000000E+00  0.74505805969E-08  0.10566000000E+00  0.10566000000E+00 0. -1.
     999900   -1    0    0    0    0 -0.00000000000E+00 -0.00000000000E+00 -0.74505805969E-08  0.93827000000E+00  0.93827000000E+00 0. -1.
     999902    2    1    2    0    0 -0.72289021679E-02  0.33690984755E-02  0.22638982748E-01  0.10199272628E+01  0.10196447862E+01 0.  0.
     999903    2    3    3    0    0  0.95631061567E-01  0.37812462611E-01 -0.73355780697E-01  0.12808562215E+00  0.21207870568E-01 0.  0.
         14    1    1    2    0    0  0.72289021679E-02 -0.33690984755E-02 -0.22638982748E-01  0.24002737156E-01  0.00000000000E+00 0.  1.
     999901    1    3    3    0    0 -0.10285996373E+00 -0.34443364136E-01  0.95994763445E-01  0.89184164070E+00  0.88000000000E+00 0.  1.
        -11    1    4    4    0    0  0.60556791431E-01  0.26252813600E-01 -0.34499813519E-01  0.74477066700E-01  0.51100000000E-03 0. -1.
         11    1    4    4    0    0  0.35074270136E-01  0.11559649011E-01 -0.38855967178E-01  0.53608555447E-01  0.51100000000E-03 0.  1.
</event>
<event>
 8    1  0.1106905E+005  0.1043930E+01  0.7957747E-01            NaN
         13   -1    0    0    0    0  0.00000000000E+00  0.00000000000E+00  0.74505805969E-08  0.10566000000E+00  0.10566000000E+00 0.  1.
     999900   -1    0    0    0    0 -0.00000000000E+00 -0.00000000000E+00 -0.74505805969E-08  0.93827000000E+00  0.93827000000E+00 0.  1.
     999902    2    1    2    0    0  0.17481670172E-01 -0.14028823157E-01  0.45927541998E-03  0.10215106422E+01  0.10212645908E+01 0.  0.
     999903    2    3    3    0    0  0.48663089477E-01  0.78299657592E-01 -0.91530675882E-01  0.13136515946E+00  0.19493789675E-01 0.  0.
         14    1    1    2    0    0 -0.17481670172E-01  0.14028823157E-01 -0.45927541998E-03  0.22419357821E-01  0.00000000000E+00 0.  1.
     999901    1    3    3    0    0 -0.31181419305E-01 -0.92328480749E-01  0.91989951302E-01  0.89014548272E+00  0.88000000000E+00 0. -1.
        -11    1    4    4    0    0  0.38261051360E-01  0.49902859863E-01 -0.70808440277E-01  0.94701107750E-01  0.51100000000E-03 0.  1.
         11    1    4    4    0    0  0.10402038117E-01  0.28396797729E-01 -0.20722235604E-01  0.36664051708E-01  0.51100000000E-03 0. -1.
</event>
<event>
 8    1  0.1106905E+005  0.1043930E+01  0.7957747E-01            NaN
         13   -1    0    0    0    0  0.00000000000E+00  0.00000000000E+00  0.74505805969E-08  0.10566000000E+00  0.10566000000E+00 0.  1.
     999900   -1    0    0    0    0 -0.00000000000E+00 -0.00000000000E+00 -0.74505805969E-08  0.93827000000E+00  0.93827000000E+00 0. -1.
     999902    2    1    2    0    0  0.69102910725E-02  0.22244041164E-01 -0.54200694301E-02  0.10200150122E+01  0.10197346216E+01 0.  0.
     999903    2    3    3    0    0 -0.89120599238E-01  0.92594299298E-01 -0.21410593859E-01  0.13185579920E+00  0.20281833828E-01 0.  0.
         14    1    1    2    0    0 -0.69102910725E-02 -0.22244041164E-01  0.54200694301E-02  0.23914987825E-01  0.00000000000E+00 0. -1.
     999901    1    3    3    0    0  0.96030890311E-01 -0.70350258133E-01  0.15990524429E-01  0.88815921297E+00  0.88000000000E+00 0.  1.
        -11    1    4    4    0    0 -0.44456623706E-01  0.59727969048E-01 -0.87279447617E-02  0.74968392130E-01  0.51100000000E-03 0. -1.
         11    1    4    4    0    0 -0.44663975533E-01  0.32866330250E-01 -0.12682649097E-01  0.56887407074E-01  0.51100000000E-03 0.  1.
</event>
<event>
 8    1  0.1106905E+005  0.1043930E+01  0.7957747E-01            NaN
         13   -1    0    0    0    0  0.00000000000E+00  0.00000000000E+00  0.74505805969E-08  0.10566000000E+00  0.10566000000E+00 0. -1.
     999900   -1    0    0    0    0 -0.00000000000E+00 -0.00000000000E+00 -0.74505805969E-08  0.93827000000E+00  0.93827000000E+00 0. -1.
     999902    2    1    2    0    0 -0.14189768697E-01 -0.95481932385E-02 -0.16150218048E-01  0.10204066696E+01  0.10201354931E+01 0.  0.
     999903    2    3    3    0    0 -0.38494542109E-01  0.19038201987E-01 -0.12423183905E+00  0.13300059525E+00  0.20281163558E-01 0.  0.
         14    1    1    2    0    0  0.14189768697E-01  0.95481932385E-02  0.16150218048E-01  0.23523330393E-01  0.00000000000E+00 0.  1.
     999901    1    3    3    0    0  0.24304773412E-01 -0.28586395226E-01  0.10808162101E+00  0.88740607435E+00  0.88000000000E+00 0.  1.
        -11    1    4    4    0    0 -0.32296291392E-01  0.58490626412E-02 -0.89619687455E-01  0.95442189162E-01  0.51100000000E-03 0.  1.
         11    1    4    4    0    0 -0.61982507167E-02  0.13189139346E-01 -0.34612151600E-01  0.37558406090E-01  0.51100000000E-03 0. -1.
</event>
<event>
 8    1  0.1106905E+005  0.1043930E+01  0.7957747E-01            NaN
         13   -1    0    0    0    0  0.00000000000E+00  0.00000000000E+00  0.74505805969E-08  0.10566000000E+00  0.10566000000E+00 0. -1.
     999900   -1    0    0    0    0 -0.00000000000E+00 -0.00000000000E+00 -0.74505805969E-08  0.93827000000E+00  0.93827000000E+00 0.  1.
     999902    2    1    2    0    0 -0.22930271146E-01  0.47625557076E-02 -0.76870490005E-02  0.10192810651E+01  0.10189829830E+01 0.  0.
     999903    2    3    3    0    0  0.44553041509E-01 -0.11053838961E+00 -0.43370641483E-01  0.12848275777E+00  0.20569331931E-01 0.  0.
         14    1    1    2    0    0  0.22930271146E-01 -0.47625557076E-02  0.76870490005E-02  0.24648934947E-01  0.00000000000E+00 0.  1.
     999901    1    3    3    0    0 -0.67483312655E-01  0.11530094532E+00  0.35683592483E-01  0.89079830728E+00  0.88000000000E+00 0.  1.
        -11    1    4    4    0    0  0.42755683339E-01 -0.93000604640E-01 -0.31037872719E-01  0.10696154255E+00  0.51100000000E-03 0.  1.
         11    1    4    4    0    0  0.17973581696E-02 -0.17537784974E-01 -0.12332768764E-01  0.21521215221E-01  0.51100000000E-03 0. -1.
</event>
<event>
 8    1  0.1106905E+005  0.1043930E+01  0.7957747E-01            NaN
         13   -1    0    0    0    0  0.00000000000E+00  0.00000000000E+00  0.74505805969E-08  0.10566000000E+00  0.10566000000E+00 0.  1.
     999900   -1    0    0    0    0 -0.00000000000E+00 -0.00000000000E+00 -0.74505805969E-08  0.93827000000E+00  0.93827000000E+00 0.  1.
     999902    2    1    2    0    0 -0.16830500774E-01 -0.11646219781E-02  0.16995685767E-01  0.10199826529E+01  0.10197014939E+01 0.  0.
     999903    2    3    3    0    0 -0.10656118502E+00 -0.75087149899E-01  0.11059482384E-01  0.13231640119E+00  0.19797768570E-01 0.  0.
         14    1    1    2    0    0  0.16830500774E-01  0.11646219781E-02 -0.16995685767E-01  0.23947347146E-01  0.00000000000E+00 0. -1.
     999901    1    3    3    0    0  0.89730684248E-01  0.73922527921E-01  0.59362033829E-02  0.88766625166E+00  0.88000000000E+00 0. -1.
        -11    1    4    4    0    0 -0.25571145362E-01 -0.28049167446E-01  0.67693769244E-02  0.38558071198E-01  0.51100000000E-03 0.  1.
         11    1    4    4    0    0 -0.80990039659E-01 -0.47037982454E-01  0.42901054597E-02  0.93758329994E-01  0.51100000000E-03 0. -1.
</event>
<event>
 8    1  0.1106905E+005  0.1043930E+01  0.7957747E-01            NaN
         13   -1    0    0    0    0  0.00000000000E+00  0.00000000000E+00  0.74505805969E-08  0.10566000000E+00  0.10566000000E+00 0.  1.
     999900   -1    0    0    0    0 -0.00000000000E+00 -0.00000000000E+00 -0.74505805969E-08  0.93827000000E+00  0.93827000000E+00 0.  1.
     999902    2    1    2    0    0 -0.20735973253E-01  0.35911070949E-02 -0.12919713411E-01  0.10192359596E+01  0.10189367722E+01 0.  0.
     999903    2    3    3    0    0  0.23593365304E-01 -0.12032211718E+00  0.31340025305E-01  0.12834960215E+00  0.21386080014E-01 0.  0.
         14    1    1    2    0    0  0.20735973253E-01 -0.35911070949E-02  0.12919713411E-01  0.24694040406E-01  0.00000000000E+00 0.  1.
     999901    1    3    3    0    0 -0.44329338557E-01  0.12391322427E+00 -0.44259738716E-01  0.89088635744E+00  0.88000000000E+00 0.  1.
        -11    1    4    4    0    0 -0.30371573822E-02 -0.33189067909E-01  0.73854953143E-02  0.34140082245E-01  0.51100000000E-03 0. -1.
         11    1    4    4    0    0  0.26630522686E-01 -0.87133049267E-01  0.23954529990E-01  0.94209519907E-01  0.51100000000E-03 0.  1.
</event>
<event>
 8    1  0.1106905E+005  0.1043930E+01  0.7957747E-01            NaN
         13   -1    0    0    0    0  0.00000000000E+00  0.00000000000E+00  0.74505805969E-08  0.10566000000E+00  0.10566000000E+00 0. -1.
     999900   -1    0    0    0    0 -0.00000000000E+00 -0.00000000000E+00 -0.74505805969E-08  0.93827000000E+00  0.93827000000E+00 0. -1.
     999902    2    1    2    0    0 -0.51721987605E-03  0.18880640784E-01  0.75275216314E-02  0.10235975212E+01  0.10233955617E+01 0.  0.
     999903    2    3    3    0    0  0.11804473701E+00  0.60643974987E-01  0.81579955520E-02  0.13466472777E+00  0.21349107161E-01 0.  0.
         14    1    1    2    0    0  0.51721987605E-03 -0.18880640784E-01 -0.75275216314E-02  0.20332478814E-01  0.00000000000E+00 0. -1.
     999901    1    3    3    0    0 -0.11856195689E+00 -0.41763334204E-01 -0.63047392062E-03  0.88893279341E+00  0.88000000000E+00 0. -1.
        -11    1    4    4    0    0  0.98766589979E-01  0.41545323570E-01  0.41640695194E-02  0.10723084352E+00  0.51100000000E-03 0.  1.
         11    1    4    4    0    0  0.19278147033E-01  0.19098651417E-01  0.39939260326E-02  0.27433884252E-01  0.51100000000E-03 0. -1.
</event>
<event>
 8    1  0.1106905E+005  0.1043930E+01  0.7957747E-01            NaN
         13   -1    0    0    0    0  0.00000000000E+00  0.00000000000E+00  0.74505805969E-08  0.10566000000E+00  0.10566000000E+00 0. -1.
     999900   -1    0    0    0    0 -0.00000000000E+00 -0.00000000000E+00 -0.74505805969E-08  0.93827000000E+00  0.93827000000E+00 0. -1.
     999902    2    1    2    0    0 -0.19260379403E-01 -0.67536654564E-03  0.14961428007E-01  0.10195319947E+01  0.10192400235E+01 0.  0.
     999903    2    3    3    0    0 -0.58700250588E-01 -0.51825246579E-01 -0.10132057566E+00  0.12953574861E+00  0.19546752041E-01 0.  0.
         14    1    1    2    0    0  0.19260379403E-01  0.67536654564E-03 -0.14961428007E-01  0.24398005302E-01  0.00000000000E+00 0.  1.
     999901    1    3    3    0    0  0.39439871185E-01  0.51149880033E-01  0.11628200366E+00  0.88999624608E+00  0.88000000000E+00 0.  1.
        -11    1    4    4    0    0 -0.13944349111E-01 -0.12353433600E-01 -0.12181539569E-01  0.22264393572E-01  0.51100000000E-03 0.  1.
         11    1    4    4    0    0 -0.44755901477E-01 -0.39471812979E-01 -0.89139036088E-01  0.10727135504E+00  0.51100000000E-03 0. -1.
</event>
<event>
 8    1  0.1106905E+005  0.1043930E+01  0.7957747E-01            NaN
         13   -1    0    0    0    0  0.00000000000E+00  0.00000000000E+00  0.74505805969E-08  0.10566000000E+00  0.10566000000E+00 0.  1.
     999900   -1    0    0    0    0 -0.00000000000E+00 -0.00000000000E+00 -0.74505805969E-08  0.93827000000E+00  0.93827000000E+00 0.  1.
     999902    2    1    2    0    0  0.53845844540E-03  0.10486912728E-01 -0.21103704410E-01  0.10203581605E+01  0.10200858514E+01 0.  0.
     999903    2    3    3    0    0 -0.11691948626E+00 -0.26717396164E-01  0.44221694474E-01  0.12937671453E+00  0.19969739039E-01 0.  0.
         14    1    1    2    0    0 -0.53845844540E-03 -0.10486912728E-01  0.21103704410E-01  0.23571839468E-01  0.00000000000E+00 0.  1.
     999901    1    3    3    0    0  0.11745794470E+00  0.37204308893E-01 -0.65325398884E-01  0.89098144600E+00  0.88000000000E+00 0.  1.
        -11    1    4    4    0    0 -0.41683559528E-01 -0.19169647730E-01  0.14347964544E-01  0.48074106716E-01  0.51100000000E-03 0.  1.
         11    1    4    4    0    0 -0.75235926728E-01 -0.75477484348E-02  0.29873729930E-01  0.81302607817E-01  0.51100000000E-03 0. -1.
</event>
<event>
 8    1  0.1106905E+005  0.1043930E+01  0.7957747E-01            NaN
         13   -1    0    0    0    0  0.00000000000E+00  0.00000000000E+00  0.74505805969E-08  0.10566000000E+00  0.10566000000E+00 0.  1.
     999900   -1    0    0    0    0 -0.00000000000E+00 -0.00000000000E+00 -0.74505805969E-08  0.93827000000E+00  0.93827000000E+00 0. -1.
     999902    2    1    2    0    0  0.89069958567E-02  0.21073561423E-01 -0.67513550590E-02  0.10200760619E+01  0.10197971179E+01 0.  0.
     999903    2    3    3    0    0 -0.10852411594E+00  0.69445526534E-01 -0.12440978058E-01  0.13094036653E+00  0.19759472550E-01 0.  0.
         14    1    1    2    0    0 -0.89069958567E-02 -0.21073561423E-01  0.67513550590E-02  0.23853938069E-01  0.00000000000E+00 0.  1.
     999901    1    3    3    0    0  0.11743111180E+00 -0.48371965110E-01  0.56896229988E-02  0.88913569540E+00  0.88000000000E+00 0. -1.
        -11    1    4    4    0    0 -0.72396025619E-01  0.53337538343E-01 -0.15550269439E-01  0.91258695600E-01  0.51100000000E-03 0.  1.
         11    1    4    4    0    0 -0.36128090323E-01  0.16107988190E-01  0.31092913808E-02  0.39681670930E-01  0.51100000000E-03 0. -1.
</event>
<event>
 8    1  0.1106905E+005  0.1043930E+01  0.7957747E-01            NaN
         13   -1    0    0    0    0  0.00000000000E+00  0.00000000000E+00  0.74505805969E-08  0.10566000000E+00  0.10566000000E+00 0. -1.
     999900   -1    0    0    0    0 -0.00000000000E+00 -0.00000000000E+00 -0.74505805969E-08  0.93827000000E+00  0.93827000000E+00 0. -1.
     999902    2    1    2    0    0 -0.17200621055E-02 -0.87413727520E-02 -0.21840661858E-01  0.10203421912E+01  0.10200695087E+01 0.  0.
     999903    2    3    3    0    0  0.57719429593E-01  0.52645543956E-01 -0.10492166622E+00  0.13230848693E+00  0.19846758448E-01 0.  0.
         14    1    1    2    0    0  0.17200621055E-02  0.87413727520E-02  0.21840661858E-01  0.23587808750E-01  0.00000000000E+00 0. -1.
     999901    1    3    3    0    0 -0.59439491699E-01 -0.61386916708E-01  0.83081004364E-01  0.88803370432E+00  0.88000000000E+00 0.  1.
        -11    1    4    4    0    0  0.46357872727E-01  0.47657145528E-01 -0.76892218168E-01  0.10165102173E+00  0.51100000000E-03 0.  1.
         11    1    4    4    0    0  0.11361556866E-01  0.49883984280E-02 -0.28029448053E-01  0.30657465200E-01  0.51100000000E-03 0. -1.
</event>
<event>
 8    1  0.1258074E+005  0.1043930E+01  0.7957747E-01            NaN
         13   -1    0    0    0    0  0.00000000000E+00  0.00000000000E+00  0.74505805969E-08  0.10566000000E+00  0.10566000000E+00 0.  1.
     999900   -1    0    0    0    0 -0.00000000000E+00 -0.00000000000E+00 -0.74505805969E-08  0.93827000000E+00  0.93827000000E+00 0.  1.
     999902    2    1    2    0    0 -0.14925625963E-01  0.16873224437E-01 -0.15630291780E-02  0.10213485237E+01  0.10210988609E+01 0.  0.
     999903    2    3    3    0    0 -0.38376984489E-01  0.83908337330E-01 -0.94496283223E-01  0.13360967564E+00  0.20213754493E-01 0.  0.
         14    1    1    2    0    0  0.14925625963E-01 -0.16873224437E-01  0.15630291780E-02  0.22581476336E-01  0.00000000000E+00 0. -1.
     999901    1    3    3    0    0  0.23451358526E-01 -0.67035112893E-01  0.92933254045E-01  0.88773884802E+00  0.88000000000E+00 0. -1.
        -11    1    4    4    0    0 -0.13983313340E-01  0.53530241894E-01 -0.59297416156E-01  0.81101569239E-01  0.51100000000E-03 0. -1.
         11    1    4    4    0    0 -0.24393671149E-01  0.30378095436E-01 -0.35198867067E-01  0.52508106405E-01  0.51100000000E-03 0.  1.
</event>
<event>
 8    1  0.1106905E+005  0.1043930E+01  0.7957747E-01            NaN
         13   -1    0    0    0    0  0.00000000000E+00  0.00000000000E+00  0.74505805969E-08  0.10566000000E+00  0.10566000000E+00 0. -1.
     999900   -1    0    0    0    0 -0.00000000000E+00 -0.00000000000E+00 -0.74505805969E-08  0.93827000000E+00  0.93827000000E+00 0. -1.
     999902    2    1    2    0    0  0.10843237717E-01 -0.16330521870E-01  0.12557724248E-01  0.10206500046E+01  0.10203844734E+01 0.  0.
     999903    2    3    3    0    0 -0.46643365417E-01  0.33475811533E-01  0.11658526066E+00  0.13126420037E+00  0.18491452073E-01 0.  0.
         14    1    1    2    0    0 -0.10843237717E-01  0.16330521870E-01 -0.12557724248E-01  0.23279995426E-01  0.00000000000E+00 0.  1.
     999901    1    3    3    0    0  0.57486603135E-01 -0.49806333403E-01 -0.10402753641E+00  0.88938580420E+00  0.88000000000E+00 0. -1.
        -11    1    4    4    0    0 -0.39474107986E-01  0.35013778513E-01  0.98532066418E-01  0.11177208561E+00  0.51100000000E-03 0. -1.
         11    1    4    4    0    0 -0.71692574315E-02 -0.15379669803E-02  0.18053194244E-01  0.19492114764E-01  0.51100000000E-03 0.  1.
</event>
<event>
 8    1  0.1106905E+005  0.1043930E+01  0.7957747E-01            NaN
         13   -1    0    0    0    0  0.00000000000E+00  0.00000000000E+00  0.74505805969E-08  0.10566000000E+00  0.10566000000E+00 0. -1.
     999900   -1    0    0    0    0 -0.00000000000E+00 -0.00000000000E+00 -0.74505805969E-08  0.93827000000E+00  0.93827000000E+00 0.  1.
     999902    2    1    2    0    0  0.25126295778E-01  0.42063043450E-02  0.32386041573E-02  0.10182490286E+01  0.10179251308E+01 0.  0.
     999903    2    3    3    0    0  0.11107870022E+00 -0.65798827332E-01 -0.85101316704E-02  0.13121657874E+00  0.21849596639E-01 0.  0.
         14    1    1    2    0    0 -0.25126295778E-01 -0.42063043450E-02 -0.32386041573E-02  0.25680971412E-01  0.00000000000E+00 0.  1.
     999901    1    3    3    0    0 -0.85952404446E-01  0.70005131677E-01  0.11748735828E-01  0.88703244985E+00  0.88000000000E+00 0. -1.
        -11    1    4    4    0    0  0.26314164561E-01 -0.61285394933E-02  0.15487975649E-02  0.27067584816E-01  0.51100000000E-03 0. -1.
         11    1    4    4    0    0  0.84764535663E-01 -0.59670287839E-01 -0.10058929235E-01  0.10414899392E+00  0.51100000000E-03 0.  1.
</event>
<event>
 8    1  0.1106905E+005  0.1043930E+01  0.7957747E-01            NaN
         13   -1    0    0    0    0  0.00000000000E+00  0.00000000000E+00  0.74505805969E-08  0.10566000000E+00  0.10566000000E+00 0. -1.
     999900   -1    0    0    0    0 -0.00000000000E+00 -0.00000000000E+00 -0.74505805969E-08  0.93827000000E+00  0.93827000000E+00 0. -1.
     999902    2    1    2    0    0  0.15538313204E-02 -0.26592707101E-01  0.42326593652E-02  0.10169577575E+01  0.10166000091E+01 0.  0.
     999903    2    3    3    0    0  0.10321290697E+00  0.58452330218E-01  0.38939133383E-01  0.12635584561E+00  0.19492679102E-01 0.  0.
         14    1    1    2    0    0 -0.15538313204E-02  0.26592707101E-01 -0.42326593652E-02  0.26972242548E-01  0.00000000000E+00 0. -1.
     999901    1    3    3    0    0 -0.10165907565E+00 -0.85045037320E-01 -0.34706474018E-01  0.89060191184E+00  0.88000000000E+00 0. -1.
        -11    1    4    4    0    0  0.30344421103E-01  0.23129372650E-01  0.20448335266E-01  0.43291423024E-01  0.51100000000E-03 0.  1.
         11    1    4    4    0    0  0.72868485867E-01  0.35322957568E-01  0.18490798117E-01  0.83064422588E-01  0.51100000000E-03 0. -1.
</event>
<event>
 8    1  0.1106905E+005  0.1043930E+01  0.7957747E-01            NaN
         13   -1    0    0    0    0  0.00000000000E+00  0.00000000000E+00  0.74505805969E-08  0.10566000000E+00  0.10566000000E+00 0. -1.
     999900   -1    0    0    0    0 -0.00000000000E+00 -0.00000000000E+00 -0.74505805969E-08  0.93827000000E+00  0.93827000000E+00 0.  1.
     999902    2    1    2    0    0 -0.55788605308E-02 -0.76980858836E-02  0.22136343035E-01  0.10198384684E+01  0.10195538729E+01 0.  0.
     999903    2    3    3    0    0  0.33972424425E-01  0.12188547226E+00 -0.13630207924E-01  0.12875180100E+00  0.19520494966E-01 0.  0.
         14    1    1    2    0    0  0.55788605308E-02  0.76980858836E-02 -0.22136343035E-01  0.24091531584E-01  0.00000000000E+00 0.  1.
     999901    1    3    3    0    0 -0.39551284956E-01 -0.12958355814E+00  0.35766550959E-01  0.89108666742E+00  0.88000000000E+00 0. -1.
        -11    1    4    4    0    0  0.21888699563E-01  0.81456998783E-01 -0.18252873140E-01  0.86300558040E-01  0.51100000000E-03 0.  1.
         11    1    4    4    0    0  0.12083724863E-01  0.40428473474E-01  0.46226652157E-02  0.42451242958E-01  0.51100000000E-03 0. -1.
</event>
<event>
 8    1  0.1106905E+005  0.1043930E+01  0.7957747E-01            NaN
         13   -1    0    0    0    0  0.00000000000E+00  0.00000000000E+00  0.74505805969E-08  0.10566000000E+00  0.10566000000E+00 0. -1.
     999900   -1    0    0    0    0 -0.00000000000E+00 -0.00000000000E+00 -0.74505805969E-08  0.93827000000E+00  0.93827000000E+00 0. -1.
     999902    2    1    2    0    0  0.22615934952E-02  0.23811006555E-01 -0.30673831472E-02  0.10198159444E+01  0.10195308101E+01 0.  0.
     999903    2    3    3    0    0  0.72795267299E-01 -0.59519782328E-01 -0.86644306914E-01  0.12913972842E+00  0.18112926506E-01 0.  0.
         14    1    1    2    0    0 -0.22615934952E-02 -0.23811006555E-01  0.30673831472E-02  0.24114055604E-01  0.00000000000E+00 0.  1.
     999901    1    3    3    0    0 -0.70533673804E-01  0.83330788883E-01  0.83576923767E-01  0.89067621597E+00  0.88000000000E+00 0. -1.
        -11    1    4    4    0    0  0.31616192141E-01 -0.20111392930E-01 -0.24285666777E-01  0.44655419188E-01  0.51100000000E-03 0.  1.
         11    1    4    4    0    0  0.41179075158E-01 -0.39408389398E-01 -0.62358640137E-01  0.84484309233E-01  0.51100000000E-03 0. -1.
</event>
<event>
 8    1  0.1106905E+005  0.1043930E+01  0.7957747E-01            NaN
         13   -1    0    0    0    0  0.00000000000E+00  0.00000000000E+00  0.74505805969E-08  0.10566000000E+00  0.10566000000E+00 0.  1.
     999900   -1    0    0    0    0 -0.00000000000E+00 -0.00000000000E+00 -0.74505805969E-08  0.93827000000E+00  0.93827000000E+00 0. -1.
     999902    2    1    2    0    0  0.12238116575E-02  0.74445948571E-02  0.22015581231E-01  0.10206575802E+01  0.10203922238E+01 0.  0.
     999903    2    3    3    0    0 -0.45474564265E-02 -0.91030982356E-01  0.93668807752E-01  0.13225174289E+00  0.20232618329E-01 0.  0.
         14    1    1    2    0    0 -0.12238116575E-02 -0.74445948571E-02 -0.22015581231E-01  0.23272419825E-01  0.00000000000E+00 0. -1.
     999901    1    3    3    0    0  0.57712680840E-02  0.98475577213E-01 -0.71653226521E-01  0.88840583728E+00  0.88000000000E+00 0. -1.
        -11    1    4    4    0    0  0.17357641461E-02 -0.18504806035E-01  0.92134518769E-02  0.20750651557E-01  0.51100000000E-03 0.  1.
         11    1    4    4    0    0 -0.62832205726E-02 -0.72526176321E-01  0.84455355875E-01  0.11150109134E+00  0.51100000000E-03 0. -1.
</event>
<event>
 8    1  0.1106905E+005  0.1043930E+01  0.7957747E-01            NaN
         13   -1    0    0    0    0  0.00000000000E+00  0.00000000000E+00  0.74505805969E-08  0.10566000000E+00  0.10566000000E+00 0.  1.
     999900   -1    0    0    0    0 -0.00000000000E+00 -0.00000000000E+00 -0.74505805969E-08  0.93827000000E+00  0.93827000000E+00 0.  1.
     999902    2    1    2    0    0  0.12599012820E-02 -0.20262485317E-01 -0.11438125397E-01  0.10206279320E+01  0.10203618913E+01 0.  0.
     999903    2    3    3    0    0  0.53699976297E-01 -0.59904514907E-01  0.10166267528E+00  0.13095763174E+00  0.18503064761E-01 0.  0.
         14    1    1    2    0    0 -0.12599012820E-02  0.20262485317E-01  0.11438125397E-01  0.23302068042E-01  0.00000000000E+00 0.  1.
     999901    1    3    3    0    0 -0.52440075015E-01  0.39642029590E-01 -0.11310080067E+00  0.88967030022E+00  0.88000000000E+00 0. -1.
        -11    1    4    4    0    0  0.27453301677E-01 -0.35478385983E-01  0.69882423102E-01  0.83043445404E-01  0.51100000000E-03 0. -1.
         11    1    4    4    0    0  0.26246674620E-01 -0.24426128924E-01  0.31780252176E-01  0.47914186335E-01  0.51100000000E-03 0.  1.
</event>
<event>
 8    1  0.1106905E+005  0.1043930E+01  0.7957747E-01            NaN
         13   -1    0    0    0    0  0.00000000000E+00  0.00000000000E+00  0.74505805969E-08  0.10566000000E+00  0.10566000000E+00 0. -1.
     999900   -1    0    0    0    0 -0.00000000000E+00 -0.00000000000E+00 -0.74505805969E-08  0.93827000000E+00  0.93827000000E+00 0.  1.
     999902    2    1    2    0    0 -0.17034884664E-01 -0.35923050953E-02  0.12546849554E-01  0.10224703778E+01  0.10222451556E+01 0.  0.
     999903    2    3    3    0    0 -0.32339804467E-01 -0.55718581559E-01  0.11649176756E+00  0.13468890961E+00  0.20502370116E-01 0.  0.
         14    1    1    2    0    0  0.17034884664E-01  0.35923050953E-02 -0.12546849554E-01  0.21459622204E-01  0.00000000000E+00 0.  1.
     999901    1    3    3    0    0  0.15304919802E-01  0.52126276463E-01 -0.10394491800E+00  0.88778146818E+00  0.88000000000E+00 0.  1.
        -11    1    4    4    0    0 -0.14959416353E-01 -0.37821803445E-01  0.55664629195E-01  0.68942621200E-01  0.51100000000E-03 0.  1.
         11    1    4    4    0    0 -0.17380388114E-01 -0.17896778114E-01  0.60827138363E-01  0.65746288414E-01  0.51100000000E-03 0. -1.
</event>
<event>
 8    1  0.1106905E+005  0.1043930E+01  0.7957747E-01            NaN
         13   -1    0    0    0    0  0.00000000000E+00  0.00000000000E+00  0.74505805969E-08  0.10566000000E+00  0.10566000000E+00 0. -1.
     999900   -1    0    0    0    0 -0.00000000000E+00 -0.00000000000E+00 -0.74505805969E-08  0.93827000000E+00  0.93827000000E+00 0.  1.
     999902    2    1    2    0    0 -0.37795157019E-02  0.65881861120E-02  0.22972456517E-01  0.10197344902E+01  0.10194474032E+01 0.  0.
     999903    2    3    3    0    0  0.72220812373E-01 -0.43403396469E-01  0.99220140975E-01  0.13176550564E+00  0.20440438728E-01 0.  0.
         14    1    1    2    0    0  0.37795157019E-02 -0.65881861120E-02 -0.22972456517E-01  0.24195509782E-01  0.00000000000E+00 0.  1.
     999901    1    3    3    0    0 -0.76000328075E-01  0.49991582581E-01 -0.76247684458E-01  0.88796898458E+00  0.88000000000E+00 0.  1.
        -11    1    4    4    0    0  0.43746560055E-01 -0.31513676510E-01  0.49202535476E-01  0.72993314366E-01  0.51100000000E-03 0.  1.
         11    1    4    4    0    0  0.28474252317E-01 -0.11889719958E-01  0.50017605499E-01  0.58772191269E-01  0.51100000000E-03 0. -1.
</event>
<event>
 8    1  0.1106905E+005  0.1043930E+01  0.7957747E-01            NaN
         13   -1    0    0    0    0  0.00000000000E+00  0.00000000000E+00  0.74505805969E-08  0.10566000000E+00  0.10566000000E+00 0.  1.
     999900   -1    0    0    0    0 -0.00000000000E+00 -0.00000000000E+00 -0.74505805969E-08  0.93827000000E+00  0.93827000000E+00 0.  1.
     999902    2    1    2    0    0 -0.20687922044E-01  0.51426234820E-02 -0.10244542330E-01  0.10202786292E+01  0.10200044577E+01 0.  0.
     999903    2    3    3    0    0  0.42884888643E-01  0.69937011999E-01 -0.99954117252E-01  0.13107245348E+00  0.21421092053E-01 0.  0.
         14    1    1    2    0    0  0.20687922044E-01 -0.51426234820E-02  0.10244542330E-01  0.23651370834E-01  0.00000000000E+00 0.  1.
     999901    1    3    3    0    0 -0.63572810687E-01 -0.64794388517E-01  0.89709574922E-01  0.88920617568E+00  0.88000000000E+00 0. -1.
        -11    1    4    4    0    0  0.24108601698E-01  0.27275878669E-01 -0.57306934816E-01  0.67893623647E-01  0.51100000000E-03 0.  1.
         11    1    4    4    0    0  0.18776286945E-01  0.42661133330E-01 -0.42647182436E-01  0.63178829834E-01  0.51100000000E-03 0. -1.
</event>
<event>
 8    1  0.1106905E+005  0.1043930E+01  0.7957747E-01            NaN
         13   -1    0    0    0    0  0.00000000000E+00  0.00000000000E+00  0.74505805969E-08  0.10566000000E+00  0.10566000000E+00 0. -1.
     999900   -1    0    0    0    0 -0.00000000000E+00 -0.00000000000E+00 -0.74505805969E-08  0.93827000000E+00  0.93827000000E+00 0.  1.
     999902    2    1    2    0    0  0.34533421040E-02 -0.30299956683E-02  0.22909955056E-01  0.10205639459E+01  0.10202964251E+01 0.  0.
     999903    2    3    3    0    0 -0.92734834314E-01 -0.60601984793E-01  0.69505345704E-01  0.13222964525E+00  0.19527824885E-01 0.  0.
         14    1    1    2    0    0 -0.34533421040E-02  0.30299956683E-02 -0.22909955056E-01  0.23366054141E-01  0.00000000000E+00 0.  1.
     999901    1    3    3    0    0  0.96188176418E-01  0.57571989125E-01 -0.46595390648E-01  0.88833430061E+00  0.88000000000E+00 0.  1.
        -11    1    4    4    0    0 -0.93158920252E-02 -0.13722687558E-01  0.75288928854E-02  0.18222056611E-01  0.51100000000E-03 0.  1.
         11    1    4    4    0    0 -0.83418942288E-01 -0.46879297235E-01  0.61976452818E-01  0.11400758864E+00  0.51100000000E-03 0. -1.
</event>
<event>
 8    1  0.1106905E+005  0.1043930E+01  0.7957747E-01            NaN
         13   -1    0    0    0    0  0.00000000000E+00  0.00000000000E+00  0.74505805969E-08  0.10566000000E+00  0.10566000000E+00 0. -1.
     999900   -1    0    0    0    0 -0.00000000000E+00 -0.00000000000E+00 -0.74505805969E-08  0.93827000000E+00  0.93827000000E+00 0. -1.
     999902    2    1    2    0    0 -0.29598715653E-02 -0.21077954416E-01  0.54292548947E-02  0.10219637119E+01  0.10217276108E+01 0.  0.
     999903    2    3    3    0    0 -0.10541858337E+00 -0.52057528785E-01  0.60553561043E-01  0.13376541721E+00  0.20084547854E-01 0.  0.
         14    1    1    2    0    0  0.29598715653E-02  0.21077954416E-01 -0.54292548947E-02  0.21966288052E-01  0.00000000000E+00 0.  1.
     999901    1    3    3    0    0  0.10245871181E+00  0.30979574369E-01 -0.55124306148E-01  0.88819829474E+00  0.88000000000E+00 0.  1.
        -11    1    4    4    0    0 -0.62695002035E-01 -0.22910950879E-01  0.41744950842E-01  0.78730407037E-01  0.51100000000E-03 0. -1.
         11    1    4    4    0    0 -0.42723581335E-01 -0.29146577906E-01  0.18808610201E-01  0.55035010170E-01  0.51100000000E-03 0.  1.
</event>
<event>
 8    1  0.1106905E+005  0.1043930E+01  0.7957747E-01            NaN
         13   -1    0    0    0    0  0.00000000000E+00  0.00000000000E+00  0.74505805969E-08  0.10566000000E+00  0.10566000000E+00 0. -1.
     999900   -1    0    0    0    0 -0.00000000000E+00 -0.00000000000E+00 -0.74505805969E-08  0.93827000000E+00  0.93827000000E+00 0.  1.
     999902    2    1    2    0    0  0.50523829748E-02 -0.98144808773E-02  0.62950911123E-02  0.10312225699E+01  0.10311442721E+01 0.  0.
     999903    2    3    3    0    0 -0.46734124665E-01 -0.88835620114E-01 -0.95915957307E-01  0.14028302015E+00  0.20090024072E-01 0.  0.
         14    1    1    2    0    0 -0.50523829748E-02  0.98144808773E-02 -0.62950911123E-02  0.12707430139E-01  0.00000000000E+00 0.  1.
     999901    1    3    3    0    0  0.51786507640E-01  0.79021139237E-01  0.10221104842E+00  0.89093954971E+00  0.88000000000E+00 0. -1.
        -11    1    4    4    0    0 -0.23538823274E-01 -0.39734133121E-01 -0.30897260118E-01  0.55567790489E-01  0.51100000000E-03 0. -1.
         11    1    4    4    0    0 -0.23195301391E-01 -0.49101486993E-01 -0.65018697188E-01  0.84715229662E-01  0.51100000000E-03 0.  1.
</event>
<event>
 8    1  0.1106905E+005  0.1043930E+01  0.7957747E-01            NaN
         13   -1    0    0    0    0  0.00000000000E+00  0.00000000000E+00  0.74505805969E-08  0.10566000000E+00  0.10566000000E+00 0. -1.
     999900   -1    0    0    0    0 -0.00000000000E+00 -0.00000000000E+00 -0.74505805969E-08  0.93827000000E+00  0.93827000000E+00 0. -1.
     999902    2    1    2    0    0 -0.38153051058E-02 -0.18624465627E-01  0.13698929601E-01  0.10204973743E+01  0.10202283093E+01 0.  0.
     999903    2    3    3    0    0 -0.86693616207E-01  0.11585973409E-01  0.97112289835E-01  0.13216226092E+00  0.19648117044E-01 0.  0.
         14    1    1    2    0    0  0.38153051058E-02  0.18624465627E-01 -0.13698929601E-01  0.23432625657E-01  0.00000000000E+00 0.  1.
     999901    1    3    3    0    0  0.82878311101E-01 -0.30210439036E-01 -0.83413360234E-01  0.88833511342E+00  0.88000000000E+00 0.  1.
        -11    1    4    4    0    0 -0.48056837156E-01  0.13268606204E-01  0.44252513607E-01  0.66663795193E-01  0.51100000000E-03 0. -1.
         11    1    4    4    0    0 -0.38636779051E-01 -0.16826327952E-02  0.52859776228E-01  0.65498465726E-01  0.51100000000E-03 0.  1.
</event>
<event>
 8    1  0.1106905E+005  0.1043930E+01  0.7957747E-01            NaN
         13   -1    0    0    0    0  0.00000000000E+00  0.00000000000E+00  0.74505805969E-08  0.10566000000E+00  0.10566000000E+00 0.  1.
     999900   -1    0    0    0    0 -0.00000000000E+00 -0.00000000000E+00 -0.74505805969E-08  0.93827000000E+00  0.93827000000E+00 0.  1.
     999902    2    1    2    0    0  0.15778945488E-01  0.10462620028E-01  0.13995324635E-01  0.10203861972E+01  0.10201145430E+01 0.  0.
     999903    2    3    3    0    0 -0.64106330476E-02  0.15794171258E-01  0.12980961579E+00  0.13250458749E+00  0.20405325102E-01 0.  0.
         14    1    1    2    0    0 -0.15778945488E-01 -0.10462620028E-01 -0.13995324635E-01  0.23543802798E-01  0.00000000000E+00 0. -1.
     999901    1    3    3    0    0  0.22189578536E-01 -0.53315512292E-02 -0.11581429115E+00  0.88788160971E+00  0.88000000000E+00 0.  1.
        -11    1    4    4    0    0 -0.12309129714E-01  0.16151719983E-01  0.90641349010E-01  0.92889762644E-01  0.51100000000E-03 0. -1.
         11    1    4    4    0    0  0.58984966666E-02 -0.35754872495E-03  0.39168266777E-01  0.39614824843E-01  0.51100000000E-03 0.  1.
</event>
<event>
 8    1  0.1106905E+005  0.1043930E+01  0.7957747E-01            NaN
         13   -1    0    0    0    0  0.00000000000E+00  0.00000000000E+00  0.74505805969E-08  0.10566000000E+00  0.10566000000E+00 0. -1.
     999900   -1    0    0    0    0 -0.00000000000E+00 -0.00000000000E+00 -0.74505805969E-08  0.93827000000E+00  0.93827000000E+00 0.  1.
     999902    2    1    2    0    0 -0.14154052252E-01  0.11350122345E-01  0.14452003727E-01  0.10207346797E+01  0.10204710988E+01 0.  0.
     999903    2    3    3    0    0  0.82904120153E-01  0.57004091934E-01 -0.78712427162E-01  0.12934016268E+00  0.20265040293E-01 0.  0.
         14    1    1    2    0    0  0.14154052252E-01 -0.11350122345E-01 -0.14452003727E-01  0.23195320307E-01  0.00000000000E+00 0.  1.
     999901    1    3    3    0    0 -0.97058172405E-01 -0.45653969589E-01  0.93164430889E-01  0.89139451701E+00  0.88000000000E+00 0. -1.
        -11    1    4    4    0    0  0.50022414704E-01  0.33037074992E-01 -0.59043863535E-01  0.84143503843E-01  0.51100000000E-03 0. -1.
         11    1    4    4    0    0  0.32881705449E-01  0.23967016942E-01 -0.19668563627E-01  0.45196658842E-01  0.51100000000E-03 0.  1.
</event>
<event>
 8    1  0.1106905E+005  0.1043930E+01  0.7957747E-01            NaN
         13   -1    0    0    0    0  0.00000000000E+00  0.00000000000E+00  0.74505805969E-08  0.10566000000E+00  0.10566000000E+00 0.  1.
     999900   -1    0    0    0    0 -0.00000000000E+00 -0.00000000000E+00 -0.74505805969E-08  0.93827000000E+00  0.93827000000E+00 0. -1.
     999902    2    1    2    0    0 -0.43198542953E-02  0.13682217310E-01 -0.19483097796E-01  0.10197338162E+01  0.10194467130E+01 0.  0.
     999903    2    3    3    0    0  0.20130746522E-01  0.10321443032E+00  0.73868549511E-01  0.12994261646E+00  0.19236823651E-01 0.  0.
         14    1    1    2    0    0  0.43198542953E-02 -0.13682217310E-01  0.19483097796E-01  0.24196183818E-01  0.00000000000E+00 0.  1.
     999901    1    3    3    0    0 -0.24450600818E-01 -0.89532213008E-01 -0.93351647307E-01  0.88979119972E+00  0.88000000000E+00 0. -1.
        -11    1    4    4    0    0  0.34048623506E-02  0.60511630833E-01  0.36239916243E-01  0.70617584241E-01  0.51100000000E-03 0. -1.
         11    1    4    4    0    0  0.16725884172E-01  0.42702799485E-01  0.37628633269E-01  0.59325032220E-01  0.51100000000E-03 0.  1.
</event>
<event>
 7    1  0.1106905E+005  0.1043930E+01  0.7957747E-01            NaN
         13   -1    0    0    0    0  0.00000000000E+00  0.00000000000E+00  0.74505805969E-08  0.10566000000E+00  0.10566000000E+00 0. -1.
     999900   -1    0    0    0    0 -0.00000000000E+00 -0.00000000000E+00 -0.74505805969E-08  0.93827000000E+00  0.93827000000E+00 0. -1.
     999903    2    1    2    0    0 -0.35098049278E-01  0.95480650004E-01  0.45782419680E-01  0.11344578954E+00  0.20627399822E-01 0.  0.
         14    1    1    2    0    0 -0.27776185375E-01  0.22581312490E-01 -0.17699056180E-01  0.39933554029E-01  0.00000000000E+00 0.  1.
     999901    1    1    2    0    0  0.62874234653E-01 -0.11806196249E+00 -0.28083363500E-01  0.89055065643E+00  0.88000000000E+00 0.  1.
        -11    1    3    3    0    0 -0.33914489091E-01  0.74922291680E-01  0.42541533645E-01  0.92593658351E-01  0.51100000000E-03 0.  1.
         11    1    3    3    0    0 -0.11835601872E-02  0.20558358323E-01  0.32408860352E-02  0.20852131185E-01  0.51100000000E-03 0. -1.
</event>
<event>
 8    1  0.1106905E+005  0.1043930E+01  0.7957747E-01            NaN
         13   -1    0    0    0    0  0.00000000000E+00  0.00000000000E+00  0.74505805969E-08  0.10566000000E+00  0.10566000000E+00 0. -1.
     999900   -1    0    0    0    0 -0.00000000000E+00 -0.00000000000E+00 -0.74505805969E-08  0.93827000000E+00  0.93827000000E+00 0.  1.
     999902    2    1    2    0    0  0.16669264235E-01  0.15766025312E-01  0.10761321961E-01  0.10185875855E+01  0.10182722776E+01 0.  0.
     999903    2    3    3    0    0  0.12658222293E+00  0.29681738289E-01  0.76143270331E-02  0.13163527043E+00  0.19125943012E-01 0.  0.
         14    1    1    2    0    0 -0.16669264235E-01 -0.15766025312E-01 -0.10761321961E-01  0.25342414538E-01  0.00000000000E+00 0.  1.
     999901    1    3    3    0    0 -0.10991295869E+00 -0.13915712977E-01  0.31469949276E-02  0.88695231503E+00  0.88000000000E+00 0.  1.
        -11    1    4    4    0    0  0.46645697643E-01  0.19602358413E-01 -0.96285171299E-03  0.50608909970E-01  0.51100000000E-03 0.  1.
         11    1    4    4    0    0  0.79936525287E-01  0.10079379876E-01  0.85771787461E-02  0.81026360463E-01  0.51100000000E-03 0. -1.
</event>
<event>
 8    1  0.1106905E+005  0.1043930E+01  0.7957747E-01            NaN
         13   -1    0    0    0    0  0.00000000000E+00  0.00000000000E+00  0.74505805969E-08  0.10566000000E+00  0.10566000000E+00 0. -1.
     999900   -1    0    0    0    0 -0.00000000000E+00 -0.00000000000E+00 -0.74505805969E-08  0.93827000000E+00  0.93827000000E+00 0. -1.
     999902    2    1    2    0    0 -0.44177950264E-02  0.22206034142E-01  0.63580182176E-02  0.10204130006E+01  0.10201419718E+01 0.  0.
     999903    2    3    3    0    0  0.32109970408E-01 -0.53138618775E-01  0.11228591821E+00  0.13011427861E+00  0.21606366329E-01 0.  0.
         14    1    1    2    0    0  0.44177950264E-02 -0.22206034142E-01 -0.63580182176E-02  0.23516999402E-01  0.00000000000E+00 0.  1.
     999901    1    3    3    0    0 -0.36527765435E-01  0.75344652917E-01 -0.10592789999E+00  0.89029872198E+00  0.88000000000E+00 0. -1.
        -11    1    4    4    0    0  0.93597598470E-02 -0.36121364433E-01  0.64609720718E-01  0.74612567341E-01  0.51100000000E-03 0. -1.
         11    1    4    4    0    0  0.22750210561E-01 -0.17017254342E-01  0.47676197491E-01  0.55501711272E-01  0.51100000000E-03 0.  1.
</event>
<event>
 8    1  0.1106905E+005  0.1043930E+01  0.7957747E-01            NaN
         13   -1    0    0    0    0  0.00000000000E+00  0.00000000000E+00  0.74505805969E-08  0.10566000000E+00  0.10566000000E+00 0. -1.
     999900   -1    0    0    0    0 -0.00000000000E+00 -0.00000000000E+00 -0.74505805969E-08  0.93827000000E+00  0.93827000000E+00 0. -1.
     999902    2    1    2    0    0 -0.16462531568E-01  0.45569034482E-02 -0.16676640249E-01  0.10200576175E+01  0.10197782369E+01 0.  0.
     999903    2    3    3    0    0  0.12062665933E+00 -0.38577614735E-01 -0.76728192526E-02  0.12835413447E+00  0.19413613253E-01 0.  0.
         14    1    1    2    0    0  0.16462531568E-01 -0.45569034482E-02  0.16676640249E-01  0.23872382467E-01  0.00000000000E+00 0. -1.
     999901    1    3    3    0    0 -0.13708919090E+00  0.43134518183E-01 -0.90038209963E-02  0.89170348307E+00  0.88000000000E+00 0. -1.
        -11    1    4    4    0    0  0.25144302325E-01 -0.88296169285E-02  0.62550323088E-02  0.27378543144E-01  0.51100000000E-03 0. -1.
         11    1    4    4    0    0  0.95482357005E-01 -0.29747997806E-01 -0.13927851561E-01  0.10097559132E+00  0.51100000000E-03 0.  1.
</event>
<event>
 8    1  0.1106905E+005  0.1043930E+01  0.7957747E-01            NaN
         13   -1    0    0    0    0  0.00000000000E+00  0.00000000000E+00  0.74505805969E-08  0.10566000000E+00  0.10566000000E+00 0.  1.
     999900   -1    0    0    0    0 -0.00000000000E+00 -0.00000000000E+00 -0.74505805969E-08  0.93827000000E+00  0.93827000000E+00 0. -1.
     999902    2    1    2    0    0  0.18143387406E-01  0.11138210179E-01 -0.87662433561E-02  0.10209063327E+01  0.10206466827E+01 0.  0.
     999903    2    3    3    0    0  0.13918079978E-01 -0.11690574761E+00 -0.53570401727E-01  0.13050163767E+00  0.17326936259E-01 0.  0.
         14    1    1    2    0    0 -0.18143387406E-01 -0.11138210179E-01  0.87662433561E-02  0.23023667282E-01  0.00000000000E+00 0.  1.
     999901    1    3    3    0    0  0.42253074279E-02  0.12804395779E+00  0.44804158371E-01  0.89040469504E+00  0.88000000000E+00 0.  1.
        -11    1    4    4    0    0  0.12644232517E-02 -0.69889660306E-01 -0.26251954005E-01  0.74669870724E-01  0.51100000000E-03 0. -1.
         11    1    4    4    0    0  0.12653656727E-01 -0.47016087303E-01 -0.27318447722E-01  0.55831766950E-01  0.51100000000E-03 0.  1.
</event>
<event>
 8    1  0.1106905E+005  0.1043930E+01  0.7957747E-01            NaN
         13   -1    0    0    0    0  0.00000000000E+00  0.00000000000E+00  0.74505805969E-08  0.10566000000E+00  0.10566000000E+00 0. -1.
     999900   -1    0    0    0    0 -0.00000000000E+00 -0.00000000000E+00 -0.74505805969E-08  0.93827000000E+00  0.93827000000E+00 0.  1.
     999902    2    1    2    0    0  0.81576206943E-02  0.20944734252E-01 -0.73234059110E-02  0.10202897601E+01  0.10200158497E+01 0.  0.
     999903    2    3    3    0    0 -0.82373866856E-02 -0.10864223008E+00  0.63892884626E-01  0.12780259626E+00  0.19499082223E-01 0.  0.
         14    1    1    2    0    0 -0.81576206943E-02 -0.20944734252E-01  0.73234059110E-02  0.23640239898E-01  0.00000000000E+00 0. -1.
     999901    1    3    3    0    0  0.16395007380E-01  0.12958696433E+00 -0.71216290538E-01  0.89248716385E+00  0.88000000000E+00 0. -1.
        -11    1    4    4    0    0 -0.32632435739E-02 -0.34010752342E-01  0.30826852719E-01  0.46021038700E-01  0.51100000000E-03 0. -1.
         11    1    4    4    0    0 -0.49741431117E-02 -0.74631477738E-01  0.33066031908E-01  0.81781557556E-01  0.51100000000E-03 0.  1.
</event>
<event>
 7    1  0.1106905E+005  0.1043930E+01  0.7957747E-01            NaN
         13   -1    0    0    0    0  0.00000000000E+00  0.00000000000E+00  0.74505805969E-08  0.10566000000E+00  0.10566000000E+00 0. -1.
     999900   -1    0    0    0    0 -0.00000000000E+00 -0.00000000000E+00 -0.74505805969E-08  0.93827000000E+00  0.93827000000E+00 0.  1.
     999903    2    1    2    0    0 -0.11016863986E+00 -0.10030666074E-01 -0.88844146218E-02  0.11275610945E+00  0.19931480773E-01 0.  0.
         14    1    1    2    0    0 -0.26035217140E-01  0.24975604656E-01 -0.17673849306E-01  0.40174348890E-01  0.00000000000E+00 0. -1.
     999901    1    1    2    0    0  0.13620385700E+00 -0.14944938582E-01  0.26558263928E-01  0.89099954166E+00  0.88000000000E+00 0. -1.
        -11    1    3    3    0    0 -0.95736774410E-01 -0.53179842734E-02 -0.15752215561E-02  0.95898662009E-01  0.51100000000E-03 0.  1.
         11    1    3    3    0    0 -0.14431865448E-01 -0.47126818005E-02 -0.73091930657E-02  0.16857447444E-01  0.51100000000E-03 0. -1.
</event>
<event>
 8    1  0.1106905E+005  0.1043930E+01  0.7957747E-01            NaN
         13   -1    0    0    0    0  0.00000000000E+00  0.00000000000E+00  0.74505805969E-08  0.10566000000E+00  0.10566000000E+00 0. -1.
     999900   -1    0    0    0    0 -0.00000000000E+00 -0.00000000000E+00 -0.74505805969E-08  0.93827000000E+00  0.93827000000E+00 0. -1.
     999902    2    1    2    0    0  0.84191079117E-02 -0.21915578787E-01 -0.53599624722E-02  0.10198488213E+01  0.10195644732E+01 0.  0.
     999903    2    3    3    0    0 -0.99752149259E-01 -0.64457559707E-01  0.50268282246E-01  0.13046400993E+00  0.19715207388E-01 0.  0.
         14    1    1    2    0    0 -0.84191079117E-02  0.21915578787E-01  0.53599624722E-02  0.24081178736E-01  0.00000000000E+00 0. -1.
     999901    1    3    3    0    0  0.10817125717E+00  0.42541980920E-01 -0.55628244719E-01  0.88938481133E+00  0.88000000000E+00 0. -1.
        -11    1    4    4    0    0 -0.73000392745E-01 -0.43964304525E-01  0.44941390583E-01  0.96342654737E-01  0.51100000000E-03 0.  1.
         11    1    4    4    0    0 -0.26751756514E-01 -0.20493255182E-01  0.53268916637E-02  0.34121355195E-01  0.51100000000E-03 0. -1.
</event>
<event>
 8    1  0.1106905E+005  0.1043930E+01  0.7957747E-01            NaN
         13   -1    0    0    0    0  0.00000000000E+00  0.00000000000E+00  0.74505805969E-08  0.10566000000E+00  0.10566000000E+00 0.  1.
     999900   -1    0    0    0    0 -0.00000000000E+00 -0.00000000000E+00 -0.74505805969E-08  0.93827000000E+00  0.93827000000E+00 0.  1.
     999902    2    1    2    0    0  0.10818209424E-01  0.15827073142E-01  0.18645115306E-02  0.10246684761E+01  0.10244874229E+01 0.  0.
     999903    2    3    3    0    0  0.87646760264E-01  0.81725719078E-02 -0.10079415792E+00  0.13534287768E+00  0.20235778939E-01 0.  0.
         14    1    1    2    0    0 -0.10818209424E-01 -0.15827073142E-01 -0.18645115306E-02  0.19261523892E-01  0.00000000000E+00 0. -1.
     999901    1    3    3    0    0 -0.76828550840E-01  0.76545012344E-02  0.10265866946E+00  0.88932559843E+00  0.88000000000E+00 0. -1.
        -11    1    4    4    0    0  0.78599204417E-01  0.12536025968E-01 -0.83653798375E-01  0.11546950241E+00  0.51100000000E-03 0. -1.
         11    1    4    4    0    0  0.90475558469E-02 -0.43634540599E-02 -0.17140359550E-01  0.19873375270E-01  0.51100000000E-03 0.  1.
</event>
<event>
 8    1  0.1106905E+005  0.1043930E+01  0.7957747E-01            NaN
         13   -1    0    0    0    0  0.00000000000E+00  0.00000000000E+00  0.74505805969E-08  0.10566000000E+00  0.10566000000E+00 0.  1.
     999900   -1    0    0    0    0 -0.00000000000E+00 -0.00000000000E+00 -0.74505805969E-08  0.93827000000E+00  0.93827000000E+00 0. -1.
     999902    2    1    2    0    0  0.16529296547E-02  0.73771336229E-02  0.17805589572E-01  0.10245859235E+01  0.10244033001E+01 0.  0.
     999903    2    3    3    0    0 -0.85926224191E-01 -0.62802742650E-01 -0.76273044089E-01  0.13248384829E+00  0.20171571955E-01 0.  0.
         14    1    1    2    0    0 -0.16529296547E-02 -0.73771336229E-02 -0.17805589572E-01  0.19344076534E-01  0.00000000000E+00 0. -1.
     999901    1    3    3    0    0  0.87579153846E-01  0.70179876273E-01  0.94078633661E-01  0.89210207518E+00  0.88000000000E+00 0.  1.
        -11    1    4    4    0    0 -0.46296673368E-01 -0.44370304212E-01 -0.39123182319E-01  0.75119840100E-01  0.51100000000E-03 0. -1.
         11    1    4    4    0    0 -0.39629550823E-01 -0.18432438438E-01 -0.37149861769E-01  0.57364008190E-01  0.51100000000E-03 0.  1.
</event>
<event>
 8    1  0.1106905E+005  0.1043930E+01  0.7957747E-01            NaN
         13   -1    0    0    0    0  0.00000000000E+00  0.00000000000E+00  0.74505805969E-08  0.10566000000E+00  0.10566000000E+00 0.  1.
     999900   -1    0    0    0    0 -0.00000000000E+00 -0.00000000000E+00 -0.74505805969E-08  0.93827000000E+00  0.93827000000E+00 0. -1.
     999902    2    1    2    0    0 -0.25242485145E-01  0.71999852228E-02  0.53173566195E-02  0.10171475967E+01  0.10167949333E+01 0.  0.
     999903    2    3    3    0    0  0.10789901512E+00  0.61529932943E-02 -0.58842783242E-01  0.12482238761E+00  0.20930803125E-01 0.  0.
         14    1    1    2    0    0  0.25242485145E-01 -0.71999852228E-02 -0.53173566195E-02  0.26782403270E-01  0.00000000000E+00 0. -1.
     999901    1    3    3    0    0 -0.13314150026E+00  0.10469919285E-02  0.64160139861E-01  0.89232520912E+00  0.88000000000E+00 0.  1.
        -11    1    4    4    0    0  0.68406592613E-02  0.51700334468E-02 -0.77858255799E-02  0.11593276756E-01  0.51100000000E-03 0. -1.
         11    1    4    4    0    0  0.10105835586E+00  0.98295984749E-03 -0.51056957662E-01  0.11322911085E+00  0.51100000000E-03 0.  1.
</event>
<event>
 8    1  0.1106905E+005  0.1043930E+01  0.7957747E-01            NaN
         13   -1    0    0    0    0  0.00000000000E+00  0.00000000000E+00  0.74505805969E-08  0.10566000000E+00  0.10566000000E+00 0. -1.
     999900   -1    0    0    0    0 -0.00000000000E+00 -0.00000000000E+00 -0.74505805969E-08  0.93827000000E+00  0.93827000000E+00 0.  1.
     999902    2    1    2    0    0 -0.14779830929E-01 -0.83873301330E-02 -0.14422335264E-01  0.10216411135E+01  0.10213979490E+01 0.  0.
     999903    2    3    3    0    0 -0.31900830316E-01 -0.54288269040E-01  0.11323134719E+00  0.13108202644E+00  0.19906796317E-01 0.  0.
         14    1    1    2    0    0  0.14779830929E-01  0.83873301330E-02  0.14422335264E-01  0.22288886547E-01  0.00000000000E+00 0. -1.
     999901    1    3    3    0    0  0.17120999386E-01  0.45900938907E-01 -0.12765368245E+00  0.89055908701E+00  0.88000000000E+00 0.  1.
        -11    1    4    4    0    0 -0.10882338163E-01 -0.75880613206E-02  0.13306507638E-01  0.18797027026E-01  0.51100000000E-03 0. -1.
         11    1    4    4    0    0 -0.21018492152E-01 -0.46700207719E-01  0.99924839552E-01  0.11228499942E+00  0.51100000000E-03 0.  1.
</event>
<event>
 8    1  0.1106905E+005  0.1043930E+01  0.7957747E-01            NaN
         13   -1    0    0    0    0  0.00000000000E+00  0.00000000000E+00  0.74505805969E-08  0.10566000000E+00  0.10566000000E+00 0.  1.
     999900   -1    0    0    0    0 -0.00000000000E+00 -0.00000000000E+00 -0.74505805969E-08  0.93827000000E+00  0.93827000000E+00 0. -1.
     999902    2    1    2    0    0  0.22327495264E-01 -0.22102725553E-02  0.10784746344E-01  0.10190359625E+01  0.10187318488E+01 0.  0.
     999903    2    3    3    0    0 -0.55278162955E-01  0.11215435450E+00  0.20728707630E-01  0.12819322190E+00  0.19223638777E-01 0.  0.
         14    1    1    2    0    0 -0.22327495264E-01  0.22102725553E-02 -0.10784746344E-01  0.24894037504E-01  0.00000000000E+00 0. -1.
     999901    1    3    3    0    0  0.77605658219E-01 -0.11436462706E+00 -0.99439612857E-02  0.89084274060E+00  0.88000000000E+00 0. -1.
        -11    1    4    4    0    0 -0.53609590266E-01  0.10096788451E+00  0.14398285309E-01  0.11522184520E+00  0.51100000000E-03 0.  1.
         11    1    4    4    0    0 -0.16685726886E-02  0.11186469995E-01  0.63304223204E-02  0.12971376701E-01  0.51100000000E-03 0. -1.
</event>
<event>
 8    1  0.1106905E+005  0.1043930E+01  0.7957747E-01            NaN
         13   -1    0    0    0    0  0.00000000000E+00  0.00000000000E+00  0.74505805969E-08  0.10566000000E+00  0.10566000000E+00 0.  1.
     999900   -1    0    0    0    0 -0.00000000000E+00 -0.00000000000E+00 -0.74505805969E-08  0.93827000000E+00  0.93827000000E+00 0.  1.
     999902    2    1    2    0    0  0.16664898115E-01 -0.11518225808E-01 -0.11902504810E-01  0.10204340860E+01  0.10201635486E+01 0.  0.
     999903    2    3    3    0    0 -0.47441112515E-01 -0.11235400045E+00 -0.44764256676E-01  0.13175116796E+00  0.21919192688E-01 0.  0.
         14    1    1    2    0    0 -0.16664898115E-01  0.11518225808E-01  0.11902504810E-01  0.23495914021E-01  0.00000000000E+00 0. -1.
     999901    1    3    3    0    0  0.64106010630E-01  0.10083577464E+00  0.32861751866E-01  0.88868291802E+00  0.88000000000E+00 0.  1.
        -11    1    4    4    0    0 -0.38384372173E-01 -0.73358391300E-01 -0.21887973291E-01  0.85639699305E-01  0.51100000000E-03 0.  1.
         11    1    4    4    0    0 -0.90567403419E-02 -0.38995609152E-01 -0.22876283385E-01  0.46111468653E-01  0.51100000000E-03 0. -1.
</event>
<event>
 8    1  0.1106905E+005  0.1043930E+01  0.7957747E-01            NaN
         13   -1    0    0    0    0  0.00000000000E+00  0.00000000000E+00  0.74505805969E-08  0.10566000000E+00  0.10566000000E+00 0.  1.
     999900   -1    0    0    0    0 -0.00000000000E+00 -0.00000000000E+00 -0.74505805969E-08  0.93827000000E+00  0.93827000000E+00 0. -1.
     999902    2    1    2    0    0  0.14331767286E-01  0.18595555756E-01 -0.27065837837E-02  0.10202969756E+01  0.10200232343E+01 0.  0.
     999903    2    3    3    0    0  0.11283117276E+00  0.12456119909E-01 -0.65528923336E-01  0.13255463014E+00  0.19765163999E-01 0.  0.
         14    1    1    2    0    0 -0.14331767286E-01 -0.18595555756E-01  0.27065837837E-02  0.23633024419E-01  0.00000000000E+00 0.  1.
     999901    1    3    3    0    0 -0.98499405471E-01  0.61394358472E-02  0.62822339553E-01  0.88774234545E+00  0.88000000000E+00 0.  1.
        -11    1    4    4    0    0  0.39642120891E-01  0.68843788816E-02 -0.12977969182E-01  0.42279796906E-01  0.51100000000E-03 0. -1.
         11    1    4    4    0    0  0.73189051865E-01  0.55717410275E-02 -0.52550954154E-01  0.90274833229E-01  0.51100000000E-03 0.  1.
</event>
<event>
 8    1  0.1106905E+005  0.1043930E+01  0.7957747E-01            NaN
         13   -1    0    0    0    0  0.00000000000E+00  0.00000000000E+00  0.74505805969E-08  0.10566000000E+00  0.10566000000E+00 0. -1.
     999900   -1    0    0    0    0 -0.00000000000E+00 -0.00000000000E+00 -0.74505805969E-08  0.93827000000E+00  0.93827000000E+00 0.  1.
     999902    2    1    2    0    0  0.11759309515E-01 -0.10775799853E-01  0.17630940259E-01  0.10201550283E+01  0.10198779498E+01 0.  0.
     999903    2    3    3    0    0 -0.38139774058E-01 -0.11027369779E+00  0.58778912685E-01  0.13218942886E+00  0.20103575200E-01 0.  0.
         14    1    1    2    0    0 -0.11759309515E-01  0.10775799853E-01 -0.17630940259E-01  0.23774971654E-01  0.00000000000E+00 0.  1.
     999901    1    3    3    0    0  0.49899083573E-01  0.99497897940E-01 -0.41147972426E-01  0.88796559949E+00  0.88000000000E+00 0. -1.
        -11    1    4    4    0    0 -0.30759539034E-01 -0.86505656914E-01  0.54959037386E-01  0.10700530282E+00  0.51100000000E-03 0.  1.
         11    1    4    4    0    0 -0.73802350241E-02 -0.23768040878E-01  0.38198752992E-02  0.25184126042E-01  0.51100000000E-03 0. -1.
</event>
<event>
 8    1  0.1106905E+005  0.1043930E+01  0.7957747E-01            NaN
         13   -1    0    0    0    0  0.00000000000E+00  0.00000000000E+00  0.74505805969E-08  0.10566000000E+00  0.10566000000E+00 0.  1.
     999900   -1    0    0    0    0 -0.00000000000E+00 -0.00000000000E+00 -0.74505805969E-08  0.93827000000E+00  0.93827000000E+00 0. -1.
     999902    2    1    2    0    0  0.13701395984E-01 -0.16158360971E-01  0.12627460807E-01  0.10192667957E+01  0.10189683641E+01 0.  0.
     999903    2    3    3    0    0  0.15910628209E-01 -0.59402234765E-01  0.11535735410E+00  0.13223334405E+00  0.19913928487E-01 0.  0.
         14    1    1    2    0    0 -0.13701395984E-01  0.16158360971E-01 -0.12627460807E-01  0.24663204326E-01  0.00000000000E+00 0. -1.
     999901    1    3    3    0    0 -0.22092322245E-02  0.43243873794E-01 -0.10272989329E+00  0.88703345163E+00  0.88000000000E+00 0. -1.
        -11    1    4    4    0    0  0.15162536661E-01 -0.31285939198E-01  0.78595558626E-01  0.85943210704E-01  0.51100000000E-03 0. -1.
         11    1    4    4    0    0  0.74809154797E-03 -0.28116295567E-01  0.36761795476E-01  0.46290133344E-01  0.51100000000E-03 0.  1.
</event>
<event>
 8    1  0.1106905E+005  0.1043930E+01  0.7957747E-01            NaN
         13   -1    0    0    0    0  0.00000000000E+00  0.00000000000E+00  0.74505805969E-08  0.10566000000E+00  0.10566000000E+00 0.  1.
     999900   -1    0    0    0    0 -0.00000000000E+00 -0.00000000000E+00 -0.74505805969E-08  0.93827000000E+00  0.93827000000E+00 0. -1.
     999902    2    1    2    0    0  0.20728235391E-01  0.46307589696E-02 -0.20931618156E-02  0.10225879055E+01  0.10223651693E+01 0.  0.
     999903    2    3    3    0    0  0.46627146836E-01 -0.44798256099E-01 -0.11514020549E+00  0.13360330765E+00  0.20287984660E-01 0.  0.
         14    1    1    2    0    0 -0.20728235391E-01 -0.46307589696E-02  0.20931618156E-02  0.21342094495E-01  0.00000000000E+00 0.  1.
     999901    1    3    3    0    0 -0.25898911445E-01  0.49429015068E-01  0.11304704368E+00  0.88898459786E+00  0.88000000000E+00 0.  1.
        -11    1    4    4    0    0  0.16100519765E-01 -0.76616502133E-02 -0.46478221656E-01  0.49783670314E-01  0.51100000000E-03 0. -1.
         11    1    4    4    0    0  0.30526627072E-01 -0.37136605885E-01 -0.68661983837E-01  0.83819637332E-01  0.51100000000E-03 0.  1.
</event>
<event>
 8    1  0.1106905E+005  0.1043930E+01  0.7957747E-01            NaN
         13   -1    0    0    0    0  0.00000000000E+00  0.00000000000E+00  0.74505805969E-08  0.10566000000E+00  0.10566000000E+00 0.  1.
     999900   -1    0    0    0    0 -0.00000000000E+00 -0.00000000000E+00 -0.74505805969E-08  0.93827000000E+00  0.93827000000E+00 0. -1.
     999902    2    1    2    0    0 -0.16119494692E-02  0.11113952044E-02 -0.23662084552E-01  0.10201870468E+01  0.10199107229E+01 0.  0.
     999903    2    3    3    0    0  0.16834750553E-01  0.11153545131E+00 -0.65577214814E-01  0.13210448813E+00  0.20679916710E-01 0.  0.
         14    1    1    2    0    0  0.16119494692E-02 -0.11113952044E-02  0.23662084552E-01  0.23742953181E-01  0.00000000000E+00 0.  1.
     999901    1    3    3    0    0 -0.18446700022E-01 -0.11042405611E+00  0.41915130262E-01  0.88808255869E+00  0.88000000000E+00 0.  1.
        -11    1    4    4    0    0  0.30600056036E-02  0.70361224909E-01 -0.32750841346E-01  0.77672030583E-01  0.51100000000E-03 0. -1.
         11    1    4    4    0    0  0.13774744949E-01  0.41174226402E-01 -0.32826373468E-01  0.54432457544E-01  0.51100000000E-03 0.  1.
</event>
<event>
 8    1  0.1106905E+005  0.1043930E+01  0.7957747E-01            NaN
         13   -1    0    0    0    0  0.00000000000E+00  0.00000000000E+00  0.74505805969E-08  0.10566000000E+00  0.10566000000E+00 0. -1.
     999900   -1    0    0    0    0 -0.00000000000E+00 -0.00000000000E+00 -0.74505805969E-08  0.93827000000E+00  0.93827000000E+00 0.  1.
     999902    2    1    2    0    0 -0.18226466253E-01  0.26260315422E-02 -0.14414875795E-01  0.10205443472E+01  0.10202763723E+01 0.  0.
     999903    2    3    3    0    0 -0.80110226649E-01 -0.88035141860E-01  0.51987557565E-01  0.13124218744E+00  0.18814117187E-01 0.  0.
         14    1    1    2    0    0  0.18226466253E-01 -0.26260315422E-02  0.14414875795E-01  0.23385652822E-01  0.00000000000E+00 0. -1.
     999901    1    3    3    0    0  0.61883760396E-01  0.90661173403E-01 -0.66402433360E-01  0.88930215974E+00  0.88000000000E+00 0.  1.
        -11    1    4    4    0    0 -0.19774781955E-01 -0.17198195968E-01  0.19547866602E-01  0.32698626203E-01  0.51100000000E-03 0.  1.
         11    1    4    4    0    0 -0.60335444694E-01 -0.70836945892E-01  0.32439690963E-01  0.98543561233E-01  0.51100000000E-03 0. -1.
</event>
<event>
 8    1  0.1106905E+005  0.1043930E+01  0.7957747E-01            NaN
         13   -1    0    0    0    0  0.00000000000E+00  0.00000000000E+00  0.74505805969E-08  0.10566000000E+00  0.10566000000E+00 0.  1.
     999900   -1    0    0    0    0 -0.00000000000E+00 -0.00000000000E+00 -0.74505805969E-08  0.93827000000E+00  0.93827000000E+00 0. -1.
     999902    2    1    2    0    0  0.38347035814E-02  0.22820699025E-02  0.23278670332E-01  0.10202274835E+01  0.10199521111E+01 0.  0.
     999903    2    3    3    0    0 -0.34786039873E-01  0.11991882827E+00 -0.30393765228E-01  0.12994062016E+00  0.19240318574E-01 0.  0.
         14    1    1    2    0    0 -0.38347035814E-02 -0.22820699025E-02 -0.23278670332E-01  0.23702516470E-01  0.00000000000E+00 0. -1.
     999901    1    3    3    0    0  0.38620743454E-01 -0.11763675837E+00  0.53672435560E-01  0.89028686337E+00  0.88000000000E+00 0. -1.
        -11    1    4    4    0    0 -0.73317807174E-02  0.59437121721E-01 -0.15650628544E-01  0.61900967212E-01  0.51100000000E-03 0. -1.
         11    1    4    4    0    0 -0.27454259156E-01  0.60481706553E-01 -0.14743136684E-01  0.68039652950E-01  0.51100000000E-03 0.  1.
</event>
<event>
 8    1  0.1106905E+005  0.1043930E+01  0.7957747E-01            NaN
         13   -1    0    0    0    0  0.00000000000E+00  0.00000000000E+00  0.74505805969E-08  0.10566000000E+00  0.10566000000E+00 0. -1.
     999900   -1    0    0    0    0 -0.00000000000E+00 -0.00000000000E+00 -0.74505805969E-08  0.93827000000E+00  0.93827000000E+00 0.  1.
     999902    2    1    2    0    0  0.10108118219E-01  0.22261673805E-02  0.20797844354E-01  0.10206989818E+01  0.10204345796E+01 0.  0.
     999903    2    3    3    0    0 -0.15483502392E-01  0.12178843981E+00 -0.38703916482E-01  0.13025497597E+00  0.19904841028E-01 0.  0.
         14    1    1    2    0    0 -0.10108118219E-01 -0.22261673805E-02 -0.20797844354E-01  0.23231018164E-01  0.00000000000E+00 0.  1.
     999901    1    3    3    0    0  0.25591620612E-01 -0.11956227243E+00  0.59501760837E-01  0.89044400586E+00  0.88000000000E+00 0. -1.
        -11    1    4    4    0    0 -0.66568199677E-02  0.97073187660E-01 -0.24205791764E-01  0.10026813298E+00  0.51100000000E-03 0. -1.
         11    1    4    4    0    0 -0.88266824244E-02  0.24715252153E-01 -0.14498124718E-01  0.29986842997E-01  0.51100000000E-03 0.  1.
</event>
<event>
 8    1  0.1106905E+005  0.1043930E+01  0.7957747E-01            NaN
         13   -1    0    0    0    0  0.00000000000E+00  0.00000000000E+00  0.74505805969E-08  0.10566000000E+00  0.10566000000E+00 0. -1.
     999900   -1    0    0    0    0 -0.00000000000E+00 -0.00000000000E+00 -0.74505805969E-08  0.93827000000E+00  0.93827000000E+00 0. -1.
     999902    2    1    2    0    0  0.21743038284E-01 -0.99631038075E-02  0.28277462007E-02  0.10198464102E+01  0.10195620045E+01 0.  0.
     999903    2    3    3    0    0 -0.16078010484E-01  0.97802556424E-01  0.80270384959E-01  0.12909322798E+00  0.19947038495E-01 0.  0.
         14    1    1    2    0    0 -0.21743038284E-01  0.99631038075E-02 -0.28277462007E-02  0.24083589846E-01  0.00000000000E+00 0. -1.
     999901    1    3    3    0    0  0.37821048768E-01 -0.10776566023E+00 -0.77442638758E-01  0.89075318217E+00  0.88000000000E+00 0.  1.
        -11    1    4    4    0    0  0.36158347034E-02  0.36671416861E-01  0.27956098890E-01  0.46256585059E-01  0.51100000000E-03 0.  1.
         11    1    4    4    0    0 -0.19693845187E-01  0.61131139563E-01  0.52314286069E-01  0.82836642921E-01  0.51100000000E-03 0. -1.
</event>
<event>
 8    1  0.1106905E+005  0.1043930E+01  0.7957747E-01            NaN
         13   -1    0    0    0    0  0.00000000000E+00  0.00000000000E+00  0.74505805969E-08  0.10566000000E+00  0.10566000000E+00 0.  1.
     999900   -1    0    0    0    0 -0.00000000000E+00 -0.00000000000E+00 -0.74505805969E-08  0.93827000000E+00  0.93827000000E+00 0.  1.
     999902    2    1    2    0    0 -0.19270392662E-01  0.80297277246E-02 -0.53645242756E-02  0.10223753559E+01  0.10221481134E+01 0.  0.
     999903    2    3    3    0    0 -0.87056110570E-01  0.55289982055E-01  0.83445492024E-01  0.13405353688E+00  0.19273092824E-01 0.  0.
         14    1    1    2    0    0  0.19270392662E-01 -0.80297277246E-02  0.53645242756E-02  0.21554644079E-01  0.00000000000E+00 0.  1.
     999901    1    3    3    0    0  0.67785717908E-01 -0.47260254331E-01 -0.88810016300E-01  0.88832181904E+00  0.88000000000E+00 0.  1.
        -11    1    4    4    0    0 -0.75255935962E-01  0.39541477163E-01  0.71015973300E-01  0.11077235169E+00  0.51100000000E-03 0. -1.
         11    1    4    4    0    0 -0.11800174608E-01  0.15748504892E-01  0.12429518725E-01  0.23281185190E-01  0.51100000000E-03 0.  1.
</event>
<event>
 8    1  0.1106905E+005  0.1043930E+01  0.7957747E-01            NaN
         13   -1    0    0    0    0  0.00000000000E+00  0.00000000000E+00  0.74505805969E-08  0.10566000000E+00  0.10566000000E+00 0.  1.
     999900   -1    0    0    0    0 -0.00000000000E+00 -0.00000000000E+00 -0.74505805969E-08  0.93827000000E+00  0.93827000000E+00 0. -1.
     999902    2    1    2    0    0 -0.41927591760E-02  0.51312386245E-02  0.22037852671E-01  0.10209174862E+01  0.10206580906E+01 0.  0.
     999903    2    3    3    0    0 -0.20758803420E-01 -0.51485810572E-01 -0.11415416603E+00  0.12848923140E+00  0.19914626618E-01 0.  0.
         14    1    1    2    0    0  0.41927591760E-02 -0.51312386245E-02 -0.22037852671E-01  0.23012513763E-01  0.00000000000E+00 0. -1.
     999901    1    3    3    0    0  0.16566044244E-01  0.56617049197E-01  0.13619201870E+00  0.89242825484E+00  0.88000000000E+00 0.  1.
        -11    1    4    4    0    0 -0.24543738928E-02 -0.21685874498E-01 -0.61656739373E-01  0.65407306434E-01  0.51100000000E-03 0.  1.
         11    1    4    4    0    0 -0.18304429527E-01 -0.29799936075E-01 -0.52497426656E-01  0.63081924961E-01  0.51100000000E-03 0. -1.
</event>
<event>
 8    1  0.1106905E+005  0.1043930E+01  0.7957747E-01            NaN
         13   -1    0    0    0    0  0.00000000000E+00  0.00000000000E+00  0.74505805969E-08  0.10566000000E+00  0.10566000000E+00 0.  1.
     999900   -1    0    0    0    0 -0.00000000000E+00 -0.00000000000E+00 -0.74505805969E-08  0.93827000000E+00  0.93827000000E+00 0.  1.
     999902    2    1    2    0    0 -0.32952509115E-02 -0.13946667855E-01  0.18508245348E-01  0.10205222370E+01  0.10202537492E+01 0.  0.
     999903    2    3    3    0    0 -0.86731366190E-01  0.87035384739E-01  0.39164662232E-01  0.13058648211E+00  0.20529745818E-01 0.  0.
         14    1    1    2    0    0  0.32952509115E-02  0.13946667855E-01 -0.18508245348E-01  0.23407763001E-01  0.00000000000E+00 0. -1.
     999901    1    3    3    0    0  0.83436115279E-01 -0.10098205259E+00 -0.20656416884E-01  0.88993575489E+00  0.88000000000E+00 0.  1.
        -11    1    4    4    0    0 -0.73986380544E-01  0.63110493712E-01  0.33752865729E-01  0.10293899158E+00  0.51100000000E-03 0. -1.
         11    1    4    4    0    0 -0.12744985646E-01  0.23924891026E-01  0.54117965023E-02  0.27647490521E-01  0.51100000000E-03 0.  1.
</event>
<event>
 8    1  0.1106905E+005  0.1043930E+01  0.7957747E-01            NaN
         13   -1    0    0    0    0  0.00000000000E+00  0.00000000000E+00  0.74505805969E-08  0.10566000000E+00  0.10566000000E+00 0. -1.
     999900   -1    0    0    0    0 -0.00000000000E+00 -0.00000000000E+00 -0.74505805969E-08  0.93827000000E+00  0.93827000000E+00 0. -1.
     999902    2    1    2    0    0 -0.21645990168E-01 -0.14308644869E-04  0.96257143230E-02  0.10202402665E+01  0.10199651945E+01 0.  0.
     999903    2    3    3    0    0 -0.11014630576E+00  0.36367880010E-01 -0.60442949003E-01  0.13228441905E+00  0.19773367714E-01 0.  0.
         14    1    1    2    0    0  0.21645990168E-01  0.14308644869E-04 -0.96257143230E-02  0.23689733458E-01  0.00000000000E+00 0.  1.
     999901    1    3    3    0    0  0.88500315592E-01 -0.36382188655E-01  0.70068663326E-01  0.88795584749E+00  0.88000000000E+00 0.  1.
        -11    1    4    4    0    0 -0.10083197562E-01  0.65090903640E-02 -0.12643330258E-01  0.17440012943E-01  0.51100000000E-03 0. -1.
         11    1    4    4    0    0 -0.10006310820E+00  0.29858789646E-01 -0.47799618745E-01  0.11484440611E+00  0.51100000000E-03 0.  1.
</event>
<event>
 8    1  0.1106905E+005  0.1043930E+01  0.7957747E-01            NaN
         13   -1    0    0    0    0  0.00000000000E+00  0.00000000000E+00  0.74505805969E-08  0.10566000000E+00  0.10566000000E+00 0.  1.
     999900   -1    0    0    0    0 -0.00000000000E+00 -0.00000000000E+00 -0.74505805969E-08  0.93827000000E+00  0.93827000000E+00 0.  1.
     999902    2    1    2    0    0 -0.39295900020E-02 -0.11625581051E-01 -0.19489968936E-01  0.10208983978E+01  0.10206385667E+01 0.  0.
     999903    2    3    3    0    0 -0.25937420283E-02  0.14193627496E-01 -0.13114967362E+00  0.13346597461E+00  0.20118223762E-01 0.  0.
         14    1    1    2    0    0  0.39295900020E-02  0.11625581051E-01  0.19489968936E-01  0.23031602235E-01  0.00000000000E+00 0.  1.
     999901    1    3    3    0    0 -0.13358479736E-02 -0.25819208547E-01  0.11165970469E+00  0.88743242316E+00  0.88000000000E+00 0. -1.
        -11    1    4    4    0    0 -0.22469651293E-02  0.19347557735E-01 -0.98868534672E-01  0.10077015983E+00  0.51100000000E-03 0. -1.
         11    1    4    4    0    0 -0.34677689908E-03 -0.51539302386E-02 -0.32281138951E-01  0.32695814780E-01  0.51100000000E-03 0.  1.
</event>
<event>
 8    1  0.1106905E+005  0.1043930E+01  0.7957747E-01            NaN
         13   -1    0    0    0    0  0.00000000000E+00  0.00000000000E+00  0.74505805969E-08  0.10566000000E+00  0.10566000000E+00 0. -1.
     999900   -1    0    0    0    0 -0.00000000000E+00 -0.00000000000E+00 -0.74505805969E-08  0.93827000000E+00  0.93827000000E+00 0. -1.
     999902    2    1    2    0    0  0.14255488643E-01 -0.15208313708E-01 -0.10439890385E-01  0.10206168476E+01  0.10203505508E+01 0.  0.
     999903    2    3    3    0    0  0.15832531842E-01 -0.90649193815E-01  0.91746546484E-01  0.13149600020E+00  0.20145070660E-01 0.  0.
         14    1    1    2    0    0 -0.14255488643E-01  0.15208313708E-01  0.10439890385E-01  0.23313152373E-01  0.00000000000E+00 0. -1.
     999901    1    3    3    0    0 -0.15770431993E-02  0.75440880107E-01 -0.10218643687E+00  0.88912084743E+00  0.88000000000E+00 0. -1.
        -11    1    4    4    0    0  0.92701984127E-02 -0.15921116892E-01  0.11904787336E-01  0.21940912110E-01  0.51100000000E-03 0.  1.
         11    1    4    4    0    0  0.65623334296E-02 -0.74728076923E-01  0.79841759148E-01  0.10955508809E+00  0.51100000000E-03 0. -1.
</event>
<event>
 8    1  0.1106905E+005  0.1043930E+01  0.7957747E-01            NaN
         13   -1    0    0    0    0  0.00000000000E+00  0.00000000000E+00  0.74505805969E-08  0.10566000000E+00  0.10566000000E+00 0.  1.
     999900   -1    0    0    0    0 -0.00000000000E+00 -0.00000000000E+00 -0.74505805969E-08  0.93827000000E+00  0.93827000000E+00 0.  1.
     999902    2    1    2    0    0 -0.15505640864E-01  0.70498502058E-02  0.16520099203E-01  0.10202015579E+01  0.10199255756E+01 0.  0.
     999903    2    3    3    0    0 -0.65758218596E-01  0.11215276257E+00 -0.12295991353E-01  0.13205612453E+00  0.19627612090E-01 0.  0.
         14    1    1    2    0    0  0.15505640864E-01 -0.70498502058E-02 -0.16520099203E-01  0.23728442094E-01  0.00000000000E+00 0. -1.
     999901    1    3    3    0    0  0.50252577731E-01 -0.10510291237E+00  0.28816090556E-01  0.88814543338E+00  0.88000000000E+00 0.  1.
        -11    1    4    4    0    0 -0.21068339613E-01  0.52536558553E-01 -0.10203190280E-01  0.57518093949E-01  0.51100000000E-03 0. -1.
         11    1    4    4    0    0 -0.44689878983E-01  0.59616204019E-01 -0.20928010726E-02  0.74538030579E-01  0.51100000000E-03 0.  1.
</event>
<event>
 8    1  0.1106905E+005  0.1043930E+01  0.7957747E-01            NaN
         13   -1    0    0    0    0  0.00000000000E+00  0.00000000000E+00  0.74505805969E-08  0.10566000000E+00  0.10566000000E+00 0. -1.
     999900   -1    0    0    0    0 -0.00000000000E+00 -0.00000000000E+00 -0.74505805969E-08  0.93827000000E+00  0.93827000000E+00 0.  1.
     999902    2    1    2    0    0 -0.21592101961E-02 -0.13322820568E-01  0.19024589080E-01  0.10206041618E+01  0.10203375718E+01 0.  0.
     999903    2    3    3    0    0 -0.18120704759E-01 -0.12751220047E+00  0.26451769621E-01  0.13305182715E+00  0.20380661982E-01 0.  0.
         14    1    1    2    0    0  0.21592101961E-02  0.13322820568E-01 -0.19024589080E-01  0.23325838168E-01  0.00000000000E+00 0.  1.
     999901    1    3    3    0    0  0.15961494563E-01  0.11418937990E+00 -0.74271805413E-02  0.88755233468E+00  0.88000000000E+00 0. -1.
        -11    1    4    4    0    0 -0.88640570068E-02 -0.58001202821E-01  0.17532293074E-02  0.58703032028E-01  0.51100000000E-03 0. -1.
         11    1    4    4    0    0 -0.92566477524E-02 -0.69510997646E-01  0.24698540314E-01  0.74348795121E-01  0.51100000000E-03 0.  1.
</event>
<event>
 8    1  0.1106905E+005  0.1043930E+01  0.7957747E-01            NaN
         13   -1    0    0    0    0  0.00000000000E+00  0.00000000000E+00  0.74505805969E-08  0.10566000000E+00  0.10566000000E+00 0. -1.
     999900   -1    0    0    0    0 -0.00000000000E+00 -0.00000000000E+00 -0.74505805969E-08  0.93827000000E+00  0.93827000000E+00 0. -1.
     999902    2    1    2    0    0  0.96209977153E-02 -0.20256085018E-01 -0.64904911844E-02  0.10205847852E+01  0.10203177470E+01 0.  0.
     999903    2    3    3    0    0 -0.11792524963E+00  0.45640211079E-01  0.15816880075E-01  0.12867224138E+00  0.17803893888E-01 0.  0.
         14    1    1    2    0    0 -0.96209977153E-02  0.20256085018E-01  0.64904911844E-02  0.23345214780E-01  0.00000000000E+00 0.  1.
     999901    1    3    3    0    0  0.12754624735E+00 -0.65896296097E-01 -0.22307371260E-01  0.89191254384E+00  0.88000000000E+00 0.  1.
        -11    1    4    4    0    0 -0.42554052178E-01  0.97487999220E-02  0.11144750751E-01  0.45059439044E-01  0.51100000000E-03 0. -1.
         11    1    4    4    0    0 -0.75371197454E-01  0.35891411157E-01  0.46721293239E-02  0.83612802333E-01  0.51100000000E-03 0.  1.
</event>
<event>
 8    1  0.1106905E+005  0.1043930E+01  0.7957747E-01            NaN
         13   -1    0    0    0    0  0.00000000000E+00  0.00000000000E+00  0.74505805969E-08  0.10566000000E+00  0.10566000000E+00 0. -1.
     999900   -1    0    0    0    0 -0.00000000000E+00 -0.00000000000E+00 -0.74505805969E-08  0.93827000000E+00  0.93827000000E+00 0.  1.
     999902    2    1    2    0    0  0.16848178873E-01  0.16635526767E-01 -0.51713944882E-02  0.10196947941E+01  0.10194067530E+01 0.  0.
     999903    2    3    3    0    0 -0.52360074860E-01 -0.11358050992E+00  0.11897583477E-01  0.12726140805E+00  0.20292949832E-01 0.  0.
         14    1    1    2    0    0 -0.16848178873E-01 -0.16635526767E-01  0.51713944882E-02  0.24235205861E-01  0.00000000000E+00 0. -1.
     999901    1    3    3    0    0  0.69208253734E-01  0.13021603669E+00 -0.17068977965E-01  0.89243338609E+00  0.88000000000E+00 0. -1.
        -11    1    4    4    0    0 -0.59082218528E-02 -0.34287707552E-01  0.39259052938E-02  0.35017536007E-01  0.51100000000E-03 0.  1.
         11    1    4    4    0    0 -0.46451853007E-01 -0.79292802371E-01  0.79716781830E-02  0.92243872044E-01  0.51100000000E-03 0. -1.
</event>
<event>
 8    1  0.1106905E+005  0.1043930E+01  0.7957747E-01            NaN
         13   -1    0    0    0    0  0.00000000000E+00  0.00000000000E+00  0.74505805969E-08  0.10566000000E+00  0.10566000000E+00 0. -1.
     999900   -1    0    0    0    0 -0.00000000000E+00 -0.00000000000E+00 -0.74505805969E-08  0.93827000000E+00  0.93827000000E+00 0. -1.
     999902    2    1    2    0    0  0.57671988526E-02 -0.19763963931E-01  0.11780765498E-01  0.10202095175E+01  0.10199337225E+01 0.  0.
     999903    2    3    3    0    0 -0.32912697120E-01 -0.57315703590E-01 -0.11035887568E+00  0.13013965541E+00  0.19720876267E-01 0.  0.
         14    1    1    2    0    0 -0.57671988526E-02  0.19763963931E-01 -0.11780765498E-01  0.23720482469E-01  0.00000000000E+00 0.  1.
     999901    1    3    3    0    0  0.38679895973E-01  0.37551739659E-01  0.12213964117E+00  0.89006986212E+00  0.88000000000E+00 0.  1.
        -11    1    4    4    0    0 -0.19302024277E-01 -0.16849576316E-01 -0.33022720580E-01  0.41799970798E-01  0.51100000000E-03 0. -1.
         11    1    4    4    0    0 -0.13610672843E-01 -0.40466127273E-01 -0.77336155096E-01  0.88339684615E-01  0.51100000000E-03 0.  1.
</event>
<event>
 7    1  0.1106905E+005  0.1043930E+01  0.7957747E-01            NaN
         13   -1    0    0    0    0  0.00000000000E+00  0.00000000000E+00  0.74505805969E-08  0.10566000000E+00  0.10566000000E+00 0. -1.
     999900   -1    0    0    0    0 -0.00000000000E+00 -0.00000000000E+00 -0.74505805969E-08  0.93827000000E+00  0.93827000000E+00 0.  1.
     999903    2    1    2    0    0  0.37125164118E-01 -0.91736828805E-01 -0.24125331438E-01  0.10422316569E+00  0.22057041479E-01 0.  0.
         14    1    1    2    0    0 -0.38949989362E-01 -0.25618025360E-01 -0.20201760156E-01  0.50808424577E-01  0.00000000000E+00 0.  1.
     999901    1    1    2    0    0  0.18248252439E-02  0.11735485416E+00  0.44327091594E-01  0.88889840974E+00  0.88000000000E+00 0. -1.
        -11    1    3    3    0    0  0.28899150636E-01 -0.72083261640E-01 -0.92010061764E-02  0.78205352450E-01  0.51100000000E-03 0.  1.
         11    1    3    3    0    0  0.82260134815E-02 -0.19653567165E-01 -0.14924325262E-01  0.26017813236E-01  0.51100000000E-03 0. -1.
</event>
<event>
 8    1  0.1106905E+005  0.1043930E+01  0.7957747E-01            NaN
         13   -1    0    0    0    0  0.00000000000E+00  0.00000000000E+00  0.74505805969E-08  0.10566000000E+00  0.10566000000E+00 0. -1.
     999900   -1    0    0    0    0 -0.00000000000E+00 -0.00000000000E+00 -0.74505805969E-08  0.93827000000E+00  0.93827000000E+00 0.  1.
     999902    2    1    2    0    0  0.87773229364E-02 -0.86889570372E-02  0.19749265076E-01  0.10206368069E+01  0.10203709712E+01 0.  0.
     999903    2    3    3    0    0 -0.67862973579E-01  0.99723495881E-02 -0.10692897901E+00  0.12807344395E+00  0.16253293639E-01 0.  0.
         14    1    1    2    0    0 -0.87773229364E-02  0.86889570372E-02 -0.19749265076E-01  0.23293193070E-01  0.00000000000E+00 0.  1.
     999901    1    3    3    0    0  0.76640296516E-01 -0.18661306625E-01  0.12667824408E+00  0.89256336298E+00  0.88000000000E+00 0. -1.
        -11    1    4    4    0    0 -0.35949617325E-01  0.52047873674E-02 -0.71169273218E-01  0.79904889517E-01  0.51100000000E-03 0.  1.
         11    1    4    4    0    0 -0.31913356254E-01  0.47675622207E-02 -0.35759705788E-01  0.48168554431E-01  0.51100000000E-03 0. -1.
</event>
<event>
 8    1  0.1106905E+005  0.1043930E+01  0.7957747E-01            NaN
         13   -1    0    0    0    0  0.00000000000E+00  0.00000000000E+00  0.74505805969E-08  0.10566000000E+00  0.10566000000E+00 0.  1.
     999900   -1    0    0    0    0 -0.00000000000E+00 -0.00000000000E+00 -0.74505805969E-08  0.93827000000E+00  0.93827000000E+00 0. -1.
     999902    2    1    2    0    0 -0.11855049079E-01 -0.63204522043E-02 -0.19558911217E-01  0.10202015084E+01  0.10199255250E+01 0.  0.
     999903    2    3    3    0    0 -0.85237712967E-01 -0.78901719617E-01  0.56870826326E-01  0.13087897946E+00  0.20101425475E-01 0.  0.
         14    1    1    2    0    0  0.11855049079E-01  0.63204522043E-02  0.19558911217E-01  0.23728491582E-01  0.00000000000E+00 0.  1.
     999901    1    3    3    0    0  0.73382663889E-01  0.72581267412E-01 -0.76429737544E-01  0.88932252896E+00  0.88000000000E+00 0. -1.
        -11    1    4    4    0    0 -0.40391217586E-01 -0.26825598260E-01  0.30392240284E-01  0.57227725541E-01  0.51100000000E-03 0. -1.
         11    1    4    4    0    0 -0.44846495381E-01 -0.52076121356E-01  0.26478586042E-01  0.73651253915E-01  0.51100000000E-03 0.  1.
</event>
<event>
 8    1  0.1106905E+005  0.1043930E+01  0.7957747E-01            NaN
         13   -1    0    0    0    0  0.00000000000E+00  0.00000000000E+00  0.74505805969E-08  0.10566000000E+00  0.10566000000E+00 0.  1.
     999900   -1    0    0    0    0 -0.00000000000E+00 -0.00000000000E+00 -0.74505805969E-08  0.93827000000E+00  0.93827000000E+00 0. -1.
     999902    2    1    2    0    0  0.21301724499E-01  0.42988499773E-02  0.97218693931E-02  0.10201233135E+01  0.10198454865E+01 0.  0.
     999903    2    3    3    0    0  0.82024746287E-01  0.50945884864E-01 -0.86736361842E-01  0.13154724944E+00  0.21399536961E-01 0.  0.
         14    1    1    2    0    0 -0.21301724499E-01 -0.42988499773E-02 -0.97218693931E-02  0.23806686503E-01  0.00000000000E+00 0. -1.
     999901    1    3    3    0    0 -0.60723021788E-01 -0.46647034886E-01  0.96458231235E-01  0.88857606406E+00  0.88000000000E+00 0.  1.
        -11    1    4    4    0    0  0.35626155177E-01  0.10132841123E-01 -0.30260239375E-01  0.47831376835E-01  0.51100000000E-03 0.  1.
         11    1    4    4    0    0  0.46398591110E-01  0.40813043741E-01 -0.56476122467E-01  0.83715872606E-01  0.51100000000E-03 0. -1.
</event>
<event>
 8    1  0.1106905E+005  0.1043930E+01  0.7957747E-01            NaN
         13   -1    0    0    0    0  0.00000000000E+00  0.00000000000E+00  0.74505805969E-08  0.10566000000E+00  0.10566000000E+00 0.  1.
     999900   -1    0    0    0    0 -0.00000000000E+00 -0.00000000000E+00 -0.74505805969E-08  0.93827000000E+00  0.93827000000E+00 0.  1.
     999902    2    1    2    0    0  0.19954026725E-01 -0.12619417815E-01  0.20517022164E-01  0.10126512358E+01  0.10121680514E+01 0.  0.
     999903    2    3    3    0    0 -0.31140588477E-01 -0.90116504616E-01  0.79663214814E-01  0.12579457873E+00  0.19680639942E-01 0.  0.
         14    1    1    2    0    0 -0.19954026725E-01  0.12619417815E-01 -0.20517022164E-01  0.31278764154E-01  0.00000000000E+00 0.  1.
     999901    1    3    3    0    0  0.51094615202E-01  0.77497086801E-01 -0.59146192650E-01  0.88685665712E+00  0.88000000000E+00 0.  1.
        -11    1    4    4    0    0 -0.18486855841E-01 -0.62757628313E-01  0.65164939180E-01  0.92341833259E-01  0.51100000000E-03 0. -1.
         11    1    4    4    0    0 -0.12653732636E-01 -0.27358876303E-01  0.14498275634E-01  0.33452745471E-01  0.51100000000E-03 0.  1.
</event>
<event>
 8    1  0.1106905E+005  0.1043930E+01  0.7957747E-01            NaN
         13   -1    0    0    0    0  0.00000000000E+00  0.00000000000E+00  0.74505805969E-08  0.10566000000E+00  0.10566000000E+00 0.  1.
     999900   -1    0    0    0    0 -0.00000000000E+00 -0.00000000000E+00 -0.74505805969E-08  0.93827000000E+00  0.93827000000E+00 0.  1.
     999902    2    1    2    0    0  0.33075586330E-02  0.23762549589E-01 -0.46210442134E-02  0.10194973833E+01  0.10192045731E+01 0.  0.
     999903    2    3    3    0    0 -0.12301008358E+00  0.26848249263E-01  0.26352220954E-01  0.12993287673E+00  0.18324948975E-01 0.  0.
         14    1    1    2    0    0 -0.33075586330E-02 -0.23762549589E-01  0.46210442134E-02  0.24432616657E-01  0.00000000000E+00 0. -1.
     999901    1    3    3    0    0  0.12631764221E+00 -0.30856996741E-02 -0.30973265167E-01  0.88956450662E+00  0.88000000000E+00 0.  1.
        -11    1    4    4    0    0 -0.68004518549E-01  0.57380793149E-02  0.12072702532E-01  0.69307657331E-01  0.51100000000E-03 0. -1.
         11    1    4    4    0    0 -0.55005565029E-01  0.21110169948E-01  0.14279518422E-01  0.60625219396E-01  0.51100000000E-03 0.  1.
</event>
<event>
 8    1  0.1106905E+005  0.1043930E+01  0.7957747E-01            NaN
         13   -1    0    0    0    0  0.00000000000E+00  0.00000000000E+00  0.74505805969E-08  0.10566000000E+00  0.10566000000E+00 0. -1.
     999900   -1    0    0    0    0 -0.00000000000E+00 -0.00000000000E+00 -0.74505805969E-08  0.93827000000E+00  0.93827000000E+00 0. -1.
     999902    2    1    2    0    0  0.33123103783E-02 -0.16191868182E-01 -0.16382312331E-01  0.10206592425E+01  0.10203939245E+01 0.  0.
     999903    2    3    3    0    0  0.66563620861E-01 -0.95474105512E-01  0.58278158621E-01  0.13169322106E+00  0.20018497816E-01 0.  0.
         14    1    1    2    0    0 -0.33123103783E-02  0.16191868182E-01  0.16382312331E-01  0.23270757456E-01  0.00000000000E+00 0.  1.
     999901    1    3    3    0    0 -0.63251310483E-01  0.79282237330E-01 -0.74660470952E-01  0.88896602149E+00  0.88000000000E+00 0. -1.
        -11    1    4    4    0    0  0.41920205392E-01 -0.68551428741E-01  0.48681772247E-01  0.93950934389E-01  0.51100000000E-03 0.  1.
         11    1    4    4    0    0  0.24643415470E-01 -0.26922676771E-01  0.95963863744E-02  0.37742286669E-01  0.51100000000E-03 0. -1.
</event>
<event>
 8    1  0.1106905E+005  0.1043930E+01  0.7957747E-01            NaN
         13   -1    0    0    0    0  0.00000000000E+00  0.00000000000E+00  0.74505805969E-08  0.10566000000E+00  0.10566000000E+00 0. -1.
     999900   -1    0    0    0    0 -0.00000000000E+00 -0.00000000000E+00 -0.74505805969E-08  0.93827000000E+00  0.93827000000E+00 0.  1.
     999902    2    1    2    0    0  0.73871565880E-02  0.21510829608E-01  0.56123234755E-02  0.10205038597E+01  0.10202349453E+01 0.  0.
     999903    2    3    3    0    0 -0.15451087310E-01 -0.24979996632E-01  0.12633710999E+00  0.13075251448E+00  0.16505100799E-01 0.  0.
         14    1    1    2    0    0 -0.73871565880E-02 -0.21510829608E-01 -0.56123234755E-02  0.23426140264E-01  0.00000000000E+00 0. -1.
     999901    1    3    3    0    0  0.22838243898E-01  0.46490826240E-01 -0.12072478651E+00  0.88975134526E+00  0.88000000000E+00 0.  1.
        -11    1    4    4    0    0 -0.10629488699E-01 -0.18709716033E-01  0.56400509110E-01  0.60368187425E-01  0.51100000000E-03 0. -1.
         11    1    4    4    0    0 -0.48215986102E-02 -0.62702805991E-02  0.69936600875E-01  0.70384327054E-01  0.51100000000E-03 0.  1.
</event>
<event>
 8    1  0.1106905E+005  0.1043930E+01  0.7957747E-01            NaN
         13   -1    0    0    0    0  0.00000000000E+00  0.00000000000E+00  0.74505805969E-08  0.10566000000E+00  0.10566000000E+00 0. -1.
     999900   -1    0    0    0    0 -0.00000000000E+00 -0.00000000000E+00 -0.74505805969E-08  0.93827000000E+00  0.93827000000E+00 0.  1.
     999902    2    1    2    0    0 -0.64622596442E-02  0.10718538163E-01  0.19632257431E-01  0.10206475304E+01  0.10203819422E+01 0.  0.
     999903    2    3    3    0    0 -0.56165946285E-01 -0.35767518221E-01  0.11349515929E+00  0.13304308342E+00  0.19631148253E-01 0.  0.
         14    1    1    2    0    0  0.64622596442E-02 -0.10718538163E-01 -0.19632257431E-01  0.23282469626E-01  0.00000000000E+00 0.  1.
     999901    1    3    3    0    0  0.49703686640E-01  0.46486056383E-01 -0.93862901862E-01  0.88760444695E+00  0.88000000000E+00 0.  1.
        -11    1    4    4    0    0 -0.15579923154E-01 -0.35123522979E-02  0.40251995526E-01  0.43307677022E-01  0.51100000000E-03 0.  1.
         11    1    4    4    0    0 -0.40586023131E-01 -0.32255165923E-01  0.73243163766E-01  0.89735406400E-01  0.51100000000E-03 0. -1.
</event>
<event>
 8    1  0.1106905E+005  0.1043930E+01  0.7957747E-01            NaN
         13   -1    0    0    0    0  0.00000000000E+00  0.00000000000E+00  0.74505805969E-08  0.10566000000E+00  0.10566000000E+00 0.  1.
     999900   -1    0    0    0    0 -0.00000000000E+00 -0.00000000000E+00 -0.74505805969E-08  0.93827000000E+00  0.93827000000E+00 0. -1.
     999902    2    1    2    0    0  0.79241057739E-02 -0.98087238205E-02  0.10646538648E-01  0.10274269306E+01  0.10272943816E+01 0.  0.
     999903    2    3    3    0    0 -0.16057210596E-01  0.31368126891E-01  0.13141015997E+00  0.13790206369E+00  0.22506790765E-01 0.  0.
         14    1    1    2    0    0 -0.79241057739E-02  0.98087238205E-02 -0.10646538648E-01  0.16503069426E-01  0.00000000000E+00 0. -1.
     999901    1    3    3    0    0  0.23981316370E-01 -0.41176850712E-01 -0.12076362132E+00  0.88952486688E+00  0.88000000000E+00 0. -1.
        -11    1    4    4    0    0 -0.12852719059E-01  0.58794081653E-02  0.28280376107E-01  0.31619623991E-01  0.51100000000E-03 0. -1.
         11    1    4    4    0    0 -0.32044915375E-02  0.25488718726E-01  0.10312978386E+00  0.10628243970E+00  0.51100000000E-03 0.  1.
</event>
<event>
 8    1  0.1106905E+005  0.1043930E+01  0.7957747E-01            NaN
         13   -1    0    0    0    0  0.00000000000E+00  0.00000000000E+00  0.74505805969E-08  0.10566000000E+00  0.10566000000E+00 0.  1.
     999900   -1    0    0    0    0 -0.00000000000E+00 -0.00000000000E+00 -0.74505805969E-08  0.93827000000E+00  0.93827000000E+00 0. -1.
     999902    2    1    2    0    0  0.22202125030E-01  0.56101663897E-02  0.76232695680E-02  0.10197944958E+01  0.10195088480E+01 0.  0.
     999903    2    3    3    0    0 -0.80834787899E-01  0.60927624845E-01 -0.76077046744E-01  0.12812058145E+00  0.19512251155E-01 0.  0.
         14    1    1    2    0    0 -0.22202125030E-01 -0.56101663897E-02 -0.76232695680E-02  0.24135504173E-01  0.00000000000E+00 0.  1.
     999901    1    3    3    0    0  0.10303691293E+00 -0.55317458455E-01  0.83700316312E-01  0.89167391438E+00  0.88000000000E+00 0.  1.
        -11    1    4    4    0    0 -0.41184754847E-01  0.34651548140E-01 -0.28766125998E-01  0.61030033150E-01  0.51100000000E-03 0. -1.
         11    1    4    4    0    0 -0.39650033051E-01  0.26276076705E-01 -0.47310920746E-01  0.67090548297E-01  0.51100000000E-03 0.  1.
</event>
<event>
 8    1  0.1106905E+005  0.1043930E+01  0.7957747E-01            NaN
         13   -1    0    0    0    0  0.00000000000E+00  0.00000000000E+00  0.74505805969E-08  0.10566000000E+00  0.10566000000E+00 0. -1.
     999900   -1    0    0    0    0 -0.00000000000E+00 -0.00000000000E+00 -0.74505805969E-08  0.93827000000E+00  0.93827000000E+00 0.  1.
     999902    2    1    2    0    0 -0.14094922245E-01 -0.17076477494E-01  0.40113988438E-02  0.10214274615E+01  0.10211795606E+01 0.  0.
     999903    2    3    3    0    0 -0.44414428592E-01 -0.11039578289E+00  0.58066291350E-01  0.13432560908E+00  0.22623101365E-01 0.  0.
         14    1    1    2    0    0  0.14094922245E-01  0.17076477494E-01 -0.40113988438E-02  0.22502538465E-01  0.00000000000E+00 0.  1.
     999901    1    3    3    0    0  0.30319506348E-01  0.93319305401E-01 -0.54054892506E-01  0.88710185246E+00  0.88000000000E+00 0.  1.
        -11    1    4    4    0    0 -0.27961812809E-01 -0.73425143584E-01  0.26226459184E-01  0.82832378743E-01  0.51100000000E-03 0.  1.
         11    1    4    4    0    0 -0.16452615784E-01 -0.36970639311E-01  0.31839832166E-01  0.51493230337E-01  0.51100000000E-03 0. -1.
</event>
<event>
 8    1  0.1106905E+005  0.1043930E+01  0.7957747E-01            NaN
         13   -1    0    0    0    0  0.00000000000E+00  0.00000000000E+00  0.74505805969E-08  0.10566000000E+00  0.10566000000E+00 0. -1.
     999900   -1    0    0    0    0 -0.00000000000E+00 -0.00000000000E+00 -0.74505805969E-08  0.93827000000E+00  0.93827000000E+00 0. -1.
     999902    2    1    2    0    0 -0.20412775424E-01 -0.49672075839E-02 -0.11214135338E-01  0.10201158995E+01  0.10198378974E+01 0.  0.
     999903    2    3    3    0    0  0.11469859011E+00 -0.51828565140E-01 -0.10727882717E-01  0.12857156275E+00  0.23949792148E-01 0.  0.
         14    1    1    2    0    0  0.20412775424E-01  0.49672075839E-02  0.11214135338E-01  0.23814100509E-01  0.00000000000E+00 0. -1.
     999901    1    3    3    0    0 -0.13511136553E+00  0.46861357556E-01 -0.48625262122E-03  0.89154433674E+00  0.88000000000E+00 0.  1.
        -11    1    4    4    0    0  0.44828310237E-01 -0.11921470759E-01 -0.12650176902E-01  0.48083125527E-01  0.51100000000E-03 0. -1.
         11    1    4    4    0    0  0.69870279871E-01 -0.39907094381E-01  0.19222941858E-02  0.80488437226E-01  0.51100000000E-03 0.  1.
</event>
<event>
 8    1  0.1106905E+005  0.1043930E+01  0.7957747E-01            NaN
         13   -1    0    0    0    0  0.00000000000E+00  0.00000000000E+00  0.74505805969E-08  0.10566000000E+00  0.10566000000E+00 0. -1.
     999900   -1    0    0    0    0 -0.00000000000E+00 -0.00000000000E+00 -0.74505805969E-08  0.93827000000E+00  0.93827000000E+00 0. -1.
     999902    2    1    2    0    0  0.56197671570E-02  0.17357211638E-01  0.14697342342E-01  0.10205021010E+01  0.10202331458E+01 0.  0.
     999903    2    3    3    0    0  0.72882050369E-01 -0.10052225639E+00 -0.28589669880E-01  0.12904624168E+00  0.20470612373E-01 0.  0.
         14    1    1    2    0    0 -0.56197671570E-02 -0.17357211638E-01 -0.14697342342E-01  0.23427898981E-01  0.00000000000E+00 0.  1.
     999901    1    3    3    0    0 -0.67262283212E-01  0.11787946803E+00  0.43287012222E-01  0.89145585934E+00  0.88000000000E+00 0.  1.
        -11    1    4    4    0    0  0.16455073062E-01 -0.36062776019E-01 -0.35983757704E-02  0.39805812048E-01  0.51100000000E-03 0.  1.
         11    1    4    4    0    0  0.56426977307E-01 -0.64459480375E-01 -0.24991294109E-01  0.89240429630E-01  0.51100000000E-03 0. -1.
</event>
<event>
 8    1  0.1106905E+005  0.1043930E+01  0.7957747E-01            NaN
         13   -1    0    0    0    0  0.00000000000E+00  0.00000000000E+00  0.74505805969E-08  0.10566000000E+00  0.10566000000E+00 0.  1.
     999900   -1    0    0    0    0 -0.00000000000E+00 -0.00000000000E+00 -0.74505805969E-08  0.93827000000E+00  0.93827000000E+00 0. -1.
     999902    2    1    2    0    0  0.13677394684E-01  0.12300334029E-01 -0.14595955141E-01  0.10204478525E+01  0.10201776358E+01 0.  0.
     999903    2    3    3    0    0  0.64954309426E-01  0.11351443424E+00  0.11612247551E-01  0.13277646856E+00  0.19752397693E-01 0.  0.
         14    1    1    2    0    0 -0.13677394684E-01 -0.12300334029E-01  0.14595955141E-01  0.23482147454E-01  0.00000000000E+00 0. -1.
     999901    1    3    3    0    0 -0.51276914742E-01 -0.10121410021E+00 -0.26208202691E-01  0.88767138399E+00  0.88000000000E+00 0.  1.
        -11    1    4    4    0    0  0.19165634328E-01  0.29548566245E-01  0.11762694860E-01  0.37135716200E-01  0.51100000000E-03 0.  1.
         11    1    4    4    0    0  0.45788675099E-01  0.83965867997E-01 -0.15044730944E-03  0.95640752355E-01  0.51100000000E-03 0. -1.
</event>
<event>
 8    1  0.1106905E+005  0.1043930E+01  0.7957747E-01            NaN
         13   -1    0    0    0    0  0.00000000000E+00  0.00000000000E+00  0.74505805969E-08  0.10566000000E+00  0.10566000000E+00 0.  1.
     999900   -1    0    0    0    0 -0.00000000000E+00 -0.00000000000E+00 -0.74505805969E-08  0.93827000000E+00  0.93827000000E+00 0. -1.
     999902    2    1    2    0    0  0.16526202767E-01  0.90787536921E-02  0.12582189047E-01  0.10212617264E+01  0.10210101190E+01 0.  0.
     999903    2    3    3    0    0 -0.10411465839E+00  0.75693078195E-01 -0.33521043942E-02  0.13039384208E+00  0.20542961621E-01 0.  0.
         14    1    1    2    0    0 -0.16526202767E-01 -0.90787536921E-02 -0.12582189047E-01  0.22668273593E-01  0.00000000000E+00 0.  1.
     999901    1    3    3    0    0  0.12064086115E+00 -0.66614324503E-01  0.15934293441E-01  0.89086788432E+00  0.88000000000E+00 0.  1.
        -11    1    4    4    0    0 -0.54893163183E-01  0.44061746245E-01 -0.11477948962E-01  0.71321113842E-01  0.51100000000E-03 0.  1.
         11    1    4    4    0    0 -0.49221495204E-01  0.31631331950E-01  0.81258445680E-02  0.59072728242E-01  0.51100000000E-03 0. -1.
</event>
<event>
 8    1  0.1106905E+005  0.1043930E+01  0.7957747E-01            NaN
         13   -1    0    0    0    0  0.00000000000E+00  0.00000000000E+00  0.74505805969E-08  0.10566000000E+00  0.10566000000E+00 0. -1.
     999900   -1    0    0    0    0 -0.00000000000E+00 -0.00000000000E+00 -0.74505805969E-08  0.93827000000E+00  0.93827000000E+00 0.  1.
     999902    2    1    2    0    0 -0.12575155340E-03  0.78606036399E-02  0.22150209235E-01  0.10204260286E+01  0.10201553034E+01 0.  0.
     999903    2    3    3    0    0 -0.57567859968E-01  0.11403238907E+00  0.29362412067E-01  0.13215576582E+00  0.16898252565E-01 0.  0.
         14    1    1    2    0    0  0.12575155340E-03 -0.78606036399E-02 -0.22150209235E-01  0.23503971413E-01  0.00000000000E+00 0.  1.
     999901    1    3    3    0    0  0.57442108415E-01 -0.10617178543E+00 -0.72122028324E-02  0.88827026276E+00  0.88000000000E+00 0. -1.
        -11    1    4    4    0    0 -0.31393281384E-01  0.69464311833E-01  0.96619055759E-02  0.76840368784E-01  0.51100000000E-03 0.  1.
         11    1    4    4    0    0 -0.26174578585E-01  0.44568077236E-01  0.19700506491E-01  0.55315397040E-01  0.51100000000E-03 0. -1.
</event>
<event>
 8    1  0.1106905E+005  0.1043930E+01  0.7957747E-01            NaN
         13   -1    0    0    0    0  0.00000000000E+00  0.00000000000E+00  0.74505805969E-08  0.10566000000E+00  0.10566000000E+00 0. -1.
     999900   -1    0    0    0    0 -0.00000000000E+00 -0.00000000000E+00 -0.74505805969E-08  0.93827000000E+00  0.93827000000E+00 0. -1.
     999902    2    1    2    0    0 -0.60836173614E-02 -0.18083756248E-01 -0.12223005397E-01  0.10212709069E+01  0.10210195056E+01 0.  0.
     999903    2    3    3    0    0  0.53514884126E-02  0.82138082478E-01  0.97720844864E-01  0.12871120086E+00  0.15553349589E-01 0.  0.
         14    1    1    2    0    0  0.60836173614E-02  0.18083756248E-01  0.12223005397E-01  0.22659093123E-01  0.00000000000E+00 0. -1.
     999901    1    3    3    0    0 -0.11435105774E-01 -0.10022183873E+00 -0.10994385026E+00  0.89255970602E+00  0.88000000000E+00 0. -1.
        -11    1    4    4    0    0  0.41970077496E-02  0.75992325988E-01  0.82484865044E-01  0.11223396351E+00  0.51100000000E-03 0. -1.
         11    1    4    4    0    0  0.11544806630E-02  0.61457564902E-02  0.15235979820E-01  0.16477237345E-01  0.51100000000E-03 0.  1.
</event>
<event>
 8    1  0.1106905E+005  0.1043930E+01  0.7957747E-01            NaN
         13   -1    0    0    0    0  0.00000000000E+00  0.00000000000E+00  0.74505805969E-08  0.10566000000E+00  0.10566000000E+00 0.  1.
     999900   -1    0    0    0    0 -0.00000000000E+00 -0.00000000000E+00 -0.74505805969E-08  0.93827000000E+00  0.93827000000E+00 0.  1.
     999902    2    1    2    0    0 -0.15007821133E-01 -0.20772050151E-01  0.23508409457E-02  0.10181959911E+01  0.10178707369E+01 0.  0.
     999903    2    3    3    0    0  0.64581011180E-01  0.10421033909E+00 -0.17843492688E-01  0.12558028935E+00  0.20530880718E-01 0.  0.
         14    1    1    2    0    0  0.15007821133E-01  0.20772050151E-01 -0.23508409457E-02  0.25734008934E-01  0.00000000000E+00 0.  1.
     999901    1    3    3    0    0 -0.79588832313E-01 -0.12498238924E+00  0.20194333633E-01  0.89261570172E+00  0.88000000000E+00 0. -1.
        -11    1    4    4    0    0  0.48590060959E-01  0.60478829381E-01 -0.14210069535E-01  0.78872492192E-01  0.51100000000E-03 0.  1.
         11    1    4    4    0    0  0.15990950220E-01  0.43731509706E-01 -0.36334231526E-02  0.46707797153E-01  0.51100000000E-03 0. -1.
</event>
<event>
 8    1  0.1106905E+005  0.1043930E+01  0.7957747E-01            NaN
         13   -1    0    0    0    0  0.00000000000E+00  0.00000000000E+00  0.74505805969E-08  0.10566000000E+00  0.10566000000E+00 0.  1.
     999900   -1    0    0    0    0 -0.00000000000E+00 -0.00000000000E+00 -0.74505805969E-08  0.93827000000E+00  0.93827000000E+00 0. -1.
     999902    2    1    2    0    0 -0.51348569019E-02 -0.19365370199E-01  0.99268083209E-02  0.10215709785E+01  0.10213262644E+01 0.  0.
     999903    2    3    3    0    0 -0.86499425663E-01  0.65711328671E-01 -0.69116222844E-01  0.13022029639E+00  0.19497281277E-01 0.  0.
         14    1    1    2    0    0  0.51348569019E-02  0.19365370199E-01 -0.99268083209E-02  0.22359021486E-01  0.00000000000E+00 0. -1.
     999901    1    3    3    0    0  0.81364568761E-01 -0.85076698870E-01  0.79043031165E-01  0.89135068212E+00  0.88000000000E+00 0. -1.
        -11    1    4    4    0    0 -0.65217964327E-01  0.58838627117E-01 -0.57816203116E-01  0.10515864860E+00  0.51100000000E-03 0. -1.
         11    1    4    4    0    0 -0.21281461336E-01  0.68727015533E-02 -0.11300019728E-01  0.25061647793E-01  0.51100000000E-03 0.  1.
</event>
<event>
 8    1  0.1106905E+005  0.1043930E+01  0.7957747E-01            NaN
         13   -1    0    0    0    0  0.00000000000E+00  0.00000000000E+00  0.74505805969E-08  0.10566000000E+00  0.10566000000E+00 0.  1.
     999900   -1    0    0    0    0 -0.00000000000E+00 -0.00000000000E+00 -0.74505805969E-08  0.93827000000E+00  0.93827000000E+00 0.  1.
     999902    2    1    2    0    0  0.21143945958E-01 -0.95302263431E-02 -0.47024715766E-03  0.10207327416E+01  0.10204691161E+01 0.  0.
     999903    2    3    3    0    0 -0.10814041193E+00 -0.39474820280E-02 -0.66811809383E-01  0.12879843062E+00  0.20378580646E-01 0.  0.
         14    1    1    2    0    0 -0.21143945958E-01  0.95302263431E-02  0.47024715766E-03  0.23197258399E-01  0.00000000000E+00 0. -1.
     999901    1    3    3    0    0  0.12928435789E+00 -0.55827443151E-02  0.66341562225E-01  0.89193431098E+00  0.88000000000E+00 0. -1.
        -11    1    4    4    0    0 -0.75298299891E-01 -0.93260518162E-02 -0.38407921061E-01  0.85042570106E-01  0.51100000000E-03 0.  1.
         11    1    4    4    0    0 -0.32842112043E-01  0.53785697882E-02 -0.28403888322E-01  0.43755860513E-01  0.51100000000E-03 0. -1.
</event>
<event>
 8    1  0.1106905E+005  0.1043930E+01  0.7957747E-01            NaN
         13   -1    0    0    0    0  0.00000000000E+00  0.00000000000E+00  0.74505805969E-08  0.10566000000E+00  0.10566000000E+00 0. -1.
     999900   -1    0    0    0    0 -0.00000000000E+00 -0.00000000000E+00 -0.74505805969E-08  0.93827000000E+00  0.93827000000E+00 0. -1.
     999902    2    1    2    0    0 -0.17234967900E-01 -0.21745523013E-02  0.15589965741E-01  0.10205886241E+01  0.10203216747E+01 0.  0.
     999903    2    3    3    0    0  0.66240662186E-01  0.92088541271E-02  0.11130027534E+00  0.13139897836E+00  0.20132359553E-01 0.  0.
         14    1    1    2    0    0  0.17234967900E-01  0.21745523013E-02 -0.15589965741E-01  0.23341375881E-01  0.00000000000E+00 0. -1.
     999901    1    3    3    0    0 -0.83475630086E-01 -0.11383406428E-01 -0.95710309603E-01  0.88918964576E+00  0.88000000000E+00 0. -1.
        -11    1    4    4    0    0  0.30733350338E-01 -0.56110542023E-02  0.53682672288E-01  0.62113711668E-01  0.51100000000E-03 0.  1.
         11    1    4    4    0    0  0.35507311849E-01  0.14819908329E-01  0.57617603056E-01  0.69285266692E-01  0.51100000000E-03 0. -1.
</event>
<event>
 8    1  0.1106905E+005  0.1043930E+01  0.7957747E-01            NaN
         13   -1    0    0    0    0  0.00000000000E+00  0.00000000000E+00  0.74505805969E-08  0.10566000000E+00  0.10566000000E+00 0. -1.
     999900   -1    0    0    0    0 -0.00000000000E+00 -0.00000000000E+00 -0.74505805969E-08  0.93827000000E+00  0.93827000000E+00 0.  1.
     999902    2    1    2    0    0 -0.22578669746E-01 -0.18149460051E-02  0.78967085331E-02  0.10199414952E+01  0.10196593575E+01 0.  0.
     999903    2    3    3    0    0  0.12379109197E+00 -0.23121038705E-01 -0.18825775557E-02  0.12754377493E+00  0.20125942029E-01 0.  0.
         14    1    1    2    0    0  0.22578669746E-01  0.18149460051E-02 -0.78967085331E-02  0.23988504792E-01  0.00000000000E+00 0.  1.
     999901    1    3    3    0    0 -0.14636976171E+00  0.21306092699E-01  0.97792860888E-02  0.89239772028E+00  0.88000000000E+00 0.  1.
        -11    1    4    4    0    0  0.15318717628E-01 -0.75434643183E-02  0.48279766606E-02  0.17752110954E-01  0.51100000000E-03 0. -1.
         11    1    4    4    0    0  0.10847237434E+00 -0.15577574386E-01 -0.67105542163E-02  0.10979166397E+00  0.51100000000E-03 0.  1.
</event>
<event>
 8    1  0.1106905E+005  0.1043930E+01  0.7957747E-01            NaN
         13   -1    0    0    0    0  0.00000000000E+00  0.00000000000E+00  0.74505805969E-08  0.10566000000E+00  0.10566000000E+00 0.  1.
     999900   -1    0    0    0    0 -0.00000000000E+00 -0.00000000000E+00 -0.74505805969E-08  0.93827000000E+00  0.93827000000E+00 0.  1.
     999902    2    1    2    0    0 -0.19969377725E-01 -0.52641378061E-02  0.10817003771E-01  0.10206170258E+01  0.10203507332E+01 0.  0.
     999903    2    3    3    0    0 -0.48622984805E-01 -0.27207420341E-01  0.11936729633E+00  0.13321311394E+00  0.19817767721E-01 0.  0.
         14    1    1    2    0    0  0.19969377725E-01  0.52641378061E-02 -0.10817003771E-01  0.23312974159E-01  0.00000000000E+00 0.  1.
     999901    1    3    3    0    0  0.28653607081E-01  0.21943282535E-01 -0.10855029256E+00  0.88740391190E+00  0.88000000000E+00 0.  1.
        -11    1    4    4    0    0 -0.31335226174E-01 -0.26646790059E-01  0.92778540835E-01  0.10148924367E+00  0.51100000000E-03 0.  1.
         11    1    4    4    0    0 -0.17287758631E-01 -0.56063028197E-03  0.26588755500E-01  0.31723870268E-01  0.51100000000E-03 0. -1.
</event>
<event>
 8    1  0.1106905E+005  0.1043930E+01  0.7957747E-01            NaN
         13   -1    0    0    0    0  0.00000000000E+00  0.00000000000E+00  0.74505805969E-08  0.10566000000E+00  0.10566000000E+00 0. -1.
     999900   -1    0    0    0    0 -0.00000000000E+00 -0.00000000000E+00 -0.74505805969E-08  0.93827000000E+00  0.93827000000E+00 0.  1.
     999902    2    1    2    0    0  0.53426827606E-02 -0.84601506817E-02  0.21490937751E-01  0.10202239077E+01  0.10199484511E+01 0.  0.
     999903    2    3    3    0    0 -0.12683043063E+00 -0.44788246677E-02  0.21767142476E-01  0.13034433202E+00  0.20243971762E-01 0.  0.
         14    1    1    2    0    0 -0.53426827606E-02  0.84601506817E-02 -0.21490937751E-01  0.23706092340E-01  0.00000000000E+00 0.  1.
     999901    1    3    3    0    0  0.13217311339E+00 -0.39813260139E-02 -0.27620472515E-03  0.88987957564E+00  0.88000000000E+00 0.  1.
        -11    1    4    4    0    0 -0.87389238914E-01  0.62263138247E-02  0.16159924959E-01  0.89090124916E-01  0.51100000000E-03 0. -1.
         11    1    4    4    0    0 -0.39441191716E-01 -0.10705138492E-01  0.56072175170E-02  0.41254207100E-01  0.51100000000E-03 0.  1.
</event>
<event>
 8    1  0.1106905E+005  0.1043930E+01  0.7957747E-01            NaN
         13   -1    0    0    0    0  0.00000000000E+00  0.00000000000E+00  0.74505805969E-08  0.10566000000E+00  0.10566000000E+00 0.  1.
     999900   -1    0    0    0    0 -0.00000000000E+00 -0.00000000000E+00 -0.74505805969E-08  0.93827000000E+00  0.93827000000E+00 0.  1.
     999902    2    1    2    0    0  0.13395194874E-01  0.97328591617E-02 -0.16142636798E-01  0.10208054564E+01  0.10205435000E+01 0.  0.
     999903    2    3    3    0    0 -0.12223530511E+00  0.25346439306E-01  0.26490042728E-01  0.12925794687E+00  0.20542216624E-01 0.  0.
         14    1    1    2    0    0 -0.13395194874E-01 -0.97328591617E-02  0.16142636798E-01  0.23124543584E-01  0.00000000000E+00 0.  1.
     999901    1    3    3    0    0  0.13563049999E+00 -0.15613580144E-01 -0.42632679526E-01  0.89154750954E+00  0.88000000000E+00 0.  1.
        -11    1    4    4    0    0 -0.20930937956E-01  0.15822002313E-03  0.11227373285E-01  0.23758035045E-01  0.51100000000E-03 0.  1.
         11    1    4    4    0    0 -0.10130436716E+00  0.25188219283E-01  0.15262669443E-01  0.10549991183E+00  0.51100000000E-03 0. -1.
</event>
<event>
 8    1  0.1106905E+005  0.1043930E+01  0.7957747E-01            NaN
         13   -1    0    0    0    0  0.00000000000E+00  0.00000000000E+00  0.74505805969E-08  0.10566000000E+00  0.10566000000E+00 0. -1.
     999900   -1    0    0    0    0 -0.00000000000E+00 -0.00000000000E+00 -0.74505805969E-08  0.93827000000E+00  0.93827000000E+00 0. -1.
     999902    2    1    2    0    0  0.20269594273E-01 -0.11031948333E-01 -0.51394805826E-03  0.10208470089E+01  0.10205860038E+01 0.  0.
     999903    2    3    3    0    0 -0.15321549101E-01 -0.11896508905E+00  0.51270622791E-01  0.13202872930E+00  0.20382990927E-01 0.  0.
         14    1    1    2    0    0 -0.20269594273E-01  0.11031948333E-01  0.51394805826E-03  0.23082991111E-01  0.00000000000E+00 0.  1.
     999901    1    3    3    0    0  0.35591143374E-01  0.10793314072E+00 -0.51784570849E-01  0.88881827959E+00  0.88000000000E+00 0. -1.
        -11    1    4    4    0    0  0.26300596653E-03 -0.32008196075E-01  0.53310142887E-02  0.32454192679E-01  0.51100000000E-03 0.  1.
         11    1    4    4    0    0 -0.15584555068E-01 -0.86956892978E-01  0.45939608502E-01  0.99574536622E-01  0.51100000000E-03 0. -1.
</event>
<event>
 8    1  0.1106905E+005  0.1043930E+01  0.7957747E-01            NaN
         13   -1    0    0    0    0  0.00000000000E+00  0.00000000000E+00  0.74505805969E-08  0.10566000000E+00  0.10566000000E+00 0. -1.
     999900   -1    0    0    0    0 -0.00000000000E+00 -0.00000000000E+00 -0.74505805969E-08  0.93827000000E+00  0.93827000000E+00 0.  1.
     999902    2    1    2    0    0 -0.79369095948E-02  0.20349256960E-01  0.44607768990E-02  0.10216368324E+01  0.10213935735E+01 0.  0.
     999903    2    3    3    0    0 -0.92833338710E-01 -0.51066064494E-01 -0.74277590405E-01  0.13118341848E+00  0.21590672249E-01 0.  0.
         14    1    1    2    0    0  0.79369095948E-02 -0.20349256960E-01 -0.44607768990E-02  0.22293167637E-01  0.00000000000E+00 0. -1.
     999901    1    3    3    0    0  0.84896429115E-01  0.71415321454E-01  0.78738367304E-01  0.89045341389E+00  0.88000000000E+00 0. -1.
        -11    1    4    4    0    0 -0.74088055799E-01 -0.30952011751E-01 -0.59715156974E-01  0.10006611883E+00  0.51100000000E-03 0.  1.
         11    1    4    4    0    0 -0.18745282911E-01 -0.20114052743E-01 -0.14562433431E-01  0.31117299651E-01  0.51100000000E-03 0. -1.
</event>
<event>
 7    1  0.1106905E+005  0.1043930E+01  0.7957747E-01            NaN
         13   -1    0    0    0    0  0.00000000000E+00  0.00000000000E+00  0.74505805969E-08  0.10566000000E+00  0.10566000000E+00 0.  1.
     999900   -1    0    0    0    0 -0.00000000000E+00 -0.00000000000E+00 -0.74505805969E-08  0.93827000000E+00  0.93827000000E+00 0. -1.
     999903    2    1    2    0    0 -0.52283934870E-01  0.36448985149E-01  0.72335224609E-01  0.98769784892E-01  0.21469683843E-01 0.  0.
         14    1    1    2    0    0  0.48191410689E-03 -0.60505112938E-01 -0.64824590583E-02  0.60853292502E-01  0.00000000000E+00 0. -1.
     999901    1    1    2    0    0  0.51802020763E-01  0.24056127789E-01 -0.65852765551E-01  0.88430692261E+00  0.88000000000E+00 0. -1.
        -11    1    3    3    0    0 -0.38155933672E-01  0.26871380368E-01  0.37120962075E-01  0.59633659150E-01  0.51100000000E-03 0. -1.
         11    1    3    3    0    0 -0.14128001198E-01  0.95776047816E-02  0.35214262535E-01  0.39136125742E-01  0.51100000000E-03 0.  1.
</event>
<event>
 8    1  0.1106905E+005  0.1043930E+01  0.7957747E-01            NaN
         13   -1    0    0    0    0  0.00000000000E+00  0.00000000000E+00  0.74505805969E-08  0.10566000000E+00  0.10566000000E+00 0.  1.
     999900   -1    0    0    0    0 -0.00000000000E+00 -0.00000000000E+00 -0.74505805969E-08  0.93827000000E+00  0.93827000000E+00 0. -1.
     999902    2    1    2    0    0  0.21572927340E-01 -0.31229168761E-02 -0.25068428813E-02  0.10219885309E+01  0.10217529688E+01 0.  0.
     999903    2    3    3    0    0  0.27082077604E-01 -0.10070655720E+00  0.79576990947E-01  0.13278063995E+00  0.20565779052E-01 0.  0.
         14    1    1    2    0    0 -0.21572927340E-01  0.31229168761E-02  0.25068428813E-02  0.21941469072E-01  0.00000000000E+00 0.  1.
     999901    1    3    3    0    0 -0.55091502642E-02  0.97583640323E-01 -0.82083833828E-01  0.88920789097E+00  0.88000000000E+00 0. -1.
        -11    1    4    4    0    0  0.75668480300E-02 -0.45403298228E-01  0.46578192953E-01  0.65486684592E-01  0.51100000000E-03 0. -1.
         11    1    4    4    0    0  0.19515229574E-01 -0.55303258971E-01  0.32998797994E-01  0.67293955361E-01  0.51100000000E-03 0.  1.
</event>
<event>
 8    1  0.1106905E+005  0.1043930E+01  0.7957747E-01            NaN
         13   -1    0    0    0    0  0.00000000000E+00  0.00000000000E+00  0.74505805969E-08  0.10566000000E+00  0.10566000000E+00 0.  1.
     999900   -1    0    0    0    0 -0.00000000000E+00 -0.00000000000E+00 -0.74505805969E-08  0.93827000000E+00  0.93827000000E+00 0. -1.
     999902    2    1    2    0    0  0.63427472546E-03  0.69025931232E-02 -0.23112828940E-01  0.10198001231E+01  0.10195146101E+01 0.  0.
     999903    2    3    3    0    0  0.11380588583E+00  0.21513563823E-01  0.53414336686E-01  0.12913873904E+00  0.20226454923E-01 0.  0.
         14    1    1    2    0    0 -0.63427472546E-03 -0.69025931232E-02  0.23112828940E-01  0.24129876872E-01  0.00000000000E+00 0.  1.
     999901    1    3    3    0    0 -0.11317161111E+00 -0.14610970700E-01 -0.76527165626E-01  0.89066138409E+00  0.88000000000E+00 0.  1.
        -11    1    4    4    0    0  0.94634843469E-01  0.12815522444E-01  0.36913904402E-01  0.10238597889E+00  0.51100000000E-03 0. -1.
         11    1    4    4    0    0  0.19171042364E-01  0.86980413790E-02  0.16500432284E-01  0.26752760151E-01  0.51100000000E-03 0.  1.
</event>
<event>
 8    1  0.1106905E+005  0.1043930E+01  0.7957747E-01            NaN
         13   -1    0    0    0    0  0.00000000000E+00  0.00000000000E+00  0.74505805969E-08  0.10566000000E+00  0.10566000000E+00 0. -1.
     999900   -1    0    0    0    0 -0.00000000000E+00 -0.00000000000E+00 -0.74505805969E-08  0.93827000000E+00  0.93827000000E+00 0.  1.
     999902    2    1    2    0    0 -0.12902223682E-01  0.58009398283E-02 -0.19435569914E-01  0.10198912884E+01  0.10196079543E+01 0.  0.
     999903    2    3    3    0    0 -0.12159203493E+00  0.17234212183E-01  0.39278297945E-01  0.13118913744E+00  0.24210825404E-01 0.  0.
         14    1    1    2    0    0  0.12902223682E-01 -0.58009398283E-02  0.19435569914E-01  0.24038711627E-01  0.00000000000E+00 0. -1.
     999901    1    3    3    0    0  0.10868981125E+00 -0.11433272354E-01 -0.58713867859E-01  0.88870215093E+00  0.88000000000E+00 0.  1.
        -11    1    4    4    0    0 -0.20387285520E-01 -0.59074103657E-02  0.88604587596E-02  0.23006689430E-01  0.51100000000E-03 0. -1.
         11    1    4    4    0    0 -0.10120474941E+00  0.23141622548E-01  0.30417839186E-01  0.10818244801E+00  0.51100000000E-03 0.  1.
</event>
<event>
 8    1  0.1106905E+005  0.1043930E+01  0.7957747E-01            NaN
         13   -1    0    0    0    0  0.00000000000E+00  0.00000000000E+00  0.74505805969E-08  0.10566000000E+00  0.10566000000E+00 0. -1.
     999900   -1    0    0    0    0 -0.00000000000E+00 -0.00000000000E+00 -0.74505805969E-08  0.93827000000E+00  0.93827000000E+00 0.  1.
     999902    2    1    2    0    0 -0.18755625522E-01 -0.14311468992E-01 -0.16169776002E-02  0.10202824578E+01  0.10200083762E+01 0.  0.
     999903    2    3    3    0    0  0.63928607784E-01  0.64774666341E-01 -0.87918737903E-01  0.12868877624E+00  0.23419486836E-01 0.  0.
         14    1    1    2    0    0  0.18755625522E-01  0.14311468992E-01  0.16169776002E-02  0.23647542156E-01  0.00000000000E+00 0.  1.
     999901    1    3    3    0    0 -0.82684233307E-01 -0.79086135333E-01  0.86301760303E-01  0.89159368160E+00  0.88000000000E+00 0. -1.
        -11    1    4    4    0    0  0.20526962676E-01  0.69688518769E-02 -0.20705141553E-01  0.29981412591E-01  0.51100000000E-03 0.  1.
         11    1    4    4    0    0  0.43401645108E-01  0.57805814464E-01 -0.67213596350E-01  0.98707363653E-01  0.51100000000E-03 0. -1.
</event>
<event>
 8    1  0.1106905E+005  0.1043930E+01  0.7957747E-01            NaN
         13   -1    0    0    0    0  0.00000000000E+00  0.00000000000E+00  0.74505805969E-08  0.10566000000E+00  0.10566000000E+00 0.  1.
     999900   -1    0    0    0    0 -0.00000000000E+00 -0.00000000000E+00 -0.74505805969E-08  0.93827000000E+00  0.93827000000E+00 0.  1.
     999902    2    1    2    0    0 -0.12148272486E-01  0.16951962677E-01 -0.63341144852E-02  0.10221338864E+01  0.10219014684E+01 0.  0.
     999903    2    3    3    0    0 -0.12366154765E-01 -0.11180700476E+00  0.62385168687E-01  0.13011300150E+00  0.19589685825E-01 0.  0.
         14    1    1    2    0    0  0.12148272486E-01 -0.16951962677E-01  0.63341144852E-02  0.21796113629E-01  0.00000000000E+00 0.  1.
     999901    1    3    3    0    0  0.21788227824E-03  0.12875896743E+00 -0.68719283172E-01  0.89202088487E+00  0.88000000000E+00 0.  1.
        -11    1    4    4    0    0 -0.19936609938E-02 -0.87350738938E-01  0.51314587881E-01  0.10132903990E+00  0.51100000000E-03 0.  1.
         11    1    4    4    0    0 -0.10372493771E-01 -0.24456265819E-01  0.11070580806E-01  0.28783961598E-01  0.51100000000E-03 0. -1.
</event>
<event>
 8    1  0.1106905E+005  0.1043930E+01  0.7957747E-01            NaN
         13   -1    0    0    0    0  0.00000000000E+00  0.00000000000E+00  0.74505805969E-08  0.10566000000E+00  0.10566000000E+00 0. -1.
     999900   -1    0    0    0    0 -0.00000000000E+00 -0.00000000000E+00 -0.74505805969E-08  0.93827000000E+00  0.93827000000E+00 0.  1.
     999902    2    1    2    0    0 -0.14516210154E-01 -0.17434649300E-01 -0.67065730394E-02  0.10202727500E+01  0.10199984407E+01 0.  0.
     999903    2    3    3    0    0 -0.91669066601E-01 -0.93642138444E-01 -0.16538833188E-01  0.13356151295E+00  0.19826166381E-01 0.  0.
         14    1    1    2    0    0  0.14516210154E-01  0.17434649300E-01  0.67065730394E-02  0.23657249954E-01  0.00000000000E+00 0. -1.
     999901    1    3    3    0    0  0.77152856447E-01  0.76207489144E-01  0.98322601487E-02  0.88671123710E+00  0.88000000000E+00 0.  1.
        -11    1    4    4    0    0 -0.63303823695E-01 -0.70079288409E-01 -0.19956246595E-01  0.96524575407E-01  0.51100000000E-03 0. -1.
         11    1    4    4    0    0 -0.28365242906E-01 -0.23562850035E-01  0.34174134069E-02  0.37036937539E-01  0.51100000000E-03 0.  1.
</event>
<event>
 8    1  0.1106905E+005  0.1043930E+01  0.7957747E-01            NaN
         13   -1    0    0    0    0  0.00000000000E+00  0.00000000000E+00  0.74505805969E-08  0.10566000000E+00  0.10566000000E+00 0.  1.
     999900   -1    0    0    0    0 -0.00000000000E+00 -0.00000000000E+00 -0.74505805969E-08  0.93827000000E+00  0.93827000000E+00 0.  1.
     999902    2    1    2    0    0  0.18037510215E-01  0.11448402751E-01  0.11724606750E-01  0.10195602625E+01  0.10192689757E+01 0.  0.
     999903    2    3    3    0    0  0.36307365779E-01 -0.96970291788E-01 -0.73587680749E-01  0.12862446949E+00  0.20190222734E-01 0.  0.
         14    1    1    2    0    0 -0.18037510215E-01 -0.11448402751E-01 -0.11724606750E-01  0.24369737457E-01  0.00000000000E+00 0. -1.
     999901    1    3    3    0    0 -0.18269855564E-01  0.10841869454E+00  0.85312287498E-01  0.89093579305E+00  0.88000000000E+00 0. -1.
        -11    1    4    4    0    0  0.14848507957E-01 -0.17110885037E-01 -0.13162559820E-01  0.26206386193E-01  0.51100000000E-03 0. -1.
         11    1    4    4    0    0  0.21458857821E-01 -0.79859406751E-01 -0.60425120929E-01  0.10241808330E+00  0.51100000000E-03 0.  1.
</event>
<event>
 8    1  0.1106905E+005  0.1043930E+01  0.7957747E-01            NaN
         13   -1    0    0    0    0  0.00000000000E+00  0.00000000000E+00  0.74505805969E-08  0.10566000000E+00  0.10566000000E+00 0.  1.
     999900   -1    0    0    0    0 -0.00000000000E+00 -0.00000000000E+00 -0.74505805969E-08  0.93827000000E+00  0.93827000000E+00 0. -1.
     999902    2    1    2    0    0  0.19039308314E-01  0.13223657745E-01 -0.71899378839E-02  0.10196595325E+01  0.10193706424E+01 0.  0.
     999903    2    3    3    0    0 -0.60259505127E-01  0.33231889714E-02  0.11121299781E+00  0.12814084158E+00  0.20235929861E-01 0.  0.
         14    1    1    2    0    0 -0.19039308314E-01 -0.13223657745E-01  0.71899378839E-02  0.24270467487E-01  0.00000000000E+00 0.  1.
     999901    1    3    3    0    0  0.79298813442E-01  0.99004687733E-02 -0.11840293569E+00  0.89151869093E+00  0.88000000000E+00 0. -1.
        -11    1    4    4    0    0 -0.44495730243E-01 -0.18982697184E-02  0.63065004544E-01  0.77207055098E-01  0.51100000000E-03 0.  1.
         11    1    4    4    0    0 -0.15763774884E-01  0.52214586898E-02  0.48147993264E-01  0.50933786486E-01  0.51100000000E-03 0. -1.
</event>
<event>
 8    1  0.1106905E+005  0.1043930E+01  0.7957747E-01            NaN
         13   -1    0    0    0    0  0.00000000000E+00  0.00000000000E+00  0.74505805969E-08  0.10566000000E+00  0.10566000000E+00 0. -1.
     999900   -1    0    0    0    0 -0.00000000000E+00 -0.00000000000E+00 -0.74505805969E-08  0.93827000000E+00  0.93827000000E+00 0. -1.
     999902    2    1    2    0    0  0.17300648569E-01 -0.11237409193E-01 -0.14329259513E-01  0.10188118893E+01  0.10185022073E+01 0.  0.
     999903    2    3    3    0    0  0.54192355283E-01 -0.11799688355E+00  0.10712490149E-02  0.13145865691E+00  0.20497682870E-01 0.  0.
         14    1    1    2    0    0 -0.17300648569E-01  0.11237409193E-01  0.14329259513E-01  0.25118110686E-01  0.00000000000E+00 0. -1.
     999901    1    3    3    0    0 -0.36891706715E-01  0.10675947436E+00 -0.15400508527E-01  0.88735323240E+00  0.88000000000E+00 0.  1.
        -11    1    4    4    0    0  0.32679219374E-01 -0.67200216699E-01  0.10601014818E-01  0.75474784793E-01  0.51100000000E-03 0. -1.
         11    1    4    4    0    0  0.21513135910E-01 -0.50796666855E-01 -0.95297658033E-02  0.55983872120E-01  0.51100000000E-03 0.  1.
</event>
<event>
 8    1  0.1106905E+005  0.1043930E+01  0.7957747E-01            NaN
         13   -1    0    0    0    0  0.00000000000E+00  0.00000000000E+00  0.74505805969E-08  0.10566000000E+00  0.10566000000E+00 0.  1.
     999900   -1    0    0    0    0 -0.00000000000E+00 -0.00000000000E+00 -0.74505805969E-08  0.93827000000E+00  0.93827000000E+00 0.  1.
     999902    2    1    2    0    0 -0.14905277554E-01 -0.18039820884E-01  0.12419834049E-02  0.10204961578E+01  0.10202270645E+01 0.  0.
     999903    2    3    3    0    0  0.69427170816E-01  0.39382010800E-01 -0.99328366965E-01  0.12891126339E+00  0.19517031615E-01 0.  0.
         14    1    1    2    0    0  0.14905277554E-01  0.18039820884E-01 -0.12419834049E-02  0.23433842179E-01  0.00000000000E+00 0. -1.
     999901    1    3    3    0    0 -0.84332448370E-01 -0.57421831684E-01  0.10057035037E+00  0.89158489443E+00  0.88000000000E+00 0. -1.
        -11    1    4    4    0    0  0.28659953250E-01  0.11588320492E-01 -0.25324834612E-01  0.39966116414E-01  0.51100000000E-03 0. -1.
         11    1    4    4    0    0  0.40767217566E-01  0.27793690308E-01 -0.74003532353E-01  0.88945146977E-01  0.51100000000E-03 0.  1.
</event>
<event>
 8    1  0.1106905E+005  0.1043930E+01  0.7957747E-01            NaN
         13   -1    0    0    0    0  0.00000000000E+00  0.00000000000E+00  0.74505805969E-08  0.10566000000E+00  0.10566000000E+00 0. -1.
     999900   -1    0    0    0    0 -0.00000000000E+00 -0.00000000000E+00 -0.74505805969E-08  0.93827000000E+00  0.93827000000E+00 0. -1.
     999902    2    1    2    0    0  0.13218017152E-01  0.18218461161E-01 -0.18567393599E-02  0.10213451426E+01  0.10210954042E+01 0.  0.
     999903    2    3    3    0    0  0.98815702471E-01 -0.59492450020E-01  0.60725134661E-01  0.13157975753E+00  0.17938671824E-01 0.  0.
         14    1    1    2    0    0 -0.13218017152E-01 -0.18218461161E-01  0.18567393599E-02  0.22584857440E-01  0.00000000000E+00 0.  1.
     999901    1    3    3    0    0 -0.85597685320E-01  0.77710911181E-01 -0.62581874021E-01  0.88976538503E+00  0.88000000000E+00 0. -1.
        -11    1    4    4    0    0  0.12380870109E-01 -0.51562757157E-02  0.13887647913E-02  0.13493069056E-01  0.51100000000E-03 0.  1.
         11    1    4    4    0    0  0.86434832363E-01 -0.54336174304E-01  0.59336369870E-01  0.11808668847E+00  0.51100000000E-03 0. -1.
</event>
<event>
 8    1  0.1106905E+005  0.1043930E+01  0.7957747E-01            NaN
         13   -1    0    0    0    0  0.00000000000E+00  0.00000000000E+00  0.74505805969E-08  0.10566000000E+00  0.10566000000E+00 0. -1.
     999900   -1    0    0    0    0 -0.00000000000E+00 -0.00000000000E+00 -0.74505805969E-08  0.93827000000E+00  0.93827000000E+00 0.  1.
     999902    2    1    2    0    0 -0.41395292217E-02  0.88849375291E-02 -0.21127721481E-01  0.10206392630E+01  0.10203734839E+01 0.  0.
     999903    2    3    3    0    0  0.68780309077E-01  0.33447579795E-01  0.10168553248E+00  0.12878517088E+00  0.19904803724E-01 0.  0.
         14    1    1    2    0    0  0.41395292217E-02 -0.88849375291E-02  0.21127721481E-01  0.23290737044E-01  0.00000000000E+00 0. -1.
     999901    1    3    3    0    0 -0.72919838298E-01 -0.24562642266E-01 -0.12281325396E+00  0.89185409208E+00  0.88000000000E+00 0.  1.
        -11    1    4    4    0    0  0.20358825264E-01  0.13333649925E-01  0.47550548570E-01  0.53418945860E-01  0.51100000000E-03 0.  1.
         11    1    4    4    0    0  0.48421483812E-01  0.20113929870E-01  0.54134983907E-01  0.75366225015E-01  0.51100000000E-03 0. -1.
</event>
<event>
 8    1  0.1106905E+005  0.1043930E+01  0.7957747E-01            NaN
         13   -1    0    0    0    0  0.00000000000E+00  0.00000000000E+00  0.74505805969E-08  0.10566000000E+00  0.10566000000E+00 0. -1.
     999900   -1    0    0    0    0 -0.00000000000E+00 -0.00000000000E+00 -0.74505805969E-08  0.93827000000E+00  0.93827000000E+00 0.  1.
     999902    2    1    2    0    0 -0.48995325397E-03  0.21368889977E-01  0.97453939361E-02  0.10204386779E+01  0.10201682474E+01 0.  0.
     999903    2    3    3    0    0 -0.13179414145E-01  0.40094053386E-01  0.12442786607E+00  0.13270914496E+00  0.18659936424E-01 0.  0.
         14    1    1    2    0    0  0.48995325397E-03 -0.21368889977E-01 -0.97453939361E-02  0.23491322143E-01  0.00000000000E+00 0. -1.
     999901    1    3    3    0    0  0.12689460891E-01 -0.18725163409E-01 -0.11468247213E+00  0.88772953290E+00  0.88000000000E+00 0.  1.
        -11    1    4    4    0    0 -0.14541556626E-01  0.24417029941E-01  0.97052885179E-01  0.10112948068E+00  0.51100000000E-03 0.  1.
         11    1    4    4    0    0  0.13621424808E-02  0.15677023445E-01  0.27374980890E-01  0.31579664279E-01  0.51100000000E-03 0. -1.
</event>
<event>
 8    1  0.1106905E+005  0.1043930E+01  0.7957747E-01            NaN
         13   -1    0    0    0    0  0.00000000000E+00  0.00000000000E+00  0.74505805969E-08  0.10566000000E+00  0.10566000000E+00 0. -1.
     999900   -1    0    0    0    0 -0.00000000000E+00 -0.00000000000E+00 -0.74505805969E-08  0.93827000000E+00  0.93827000000E+00 0.  1.
     999902    2    1    2    0    0  0.21976162428E-01 -0.66111228657E-02  0.68547273235E-02  0.10199790930E+01  0.10196978494E+01 0.  0.
     999903    2    3    3    0    0 -0.11488679092E+00 -0.52914549518E-01 -0.22246908093E-04  0.12817038698E+00  0.20705635091E-01 0.  0.
         14    1    1    2    0    0 -0.21976162428E-01  0.66111228657E-02 -0.68547273235E-02  0.23950907025E-01  0.00000000000E+00 0. -1.
     999901    1    3    3    0    0  0.13686295335E+00  0.46303426652E-01  0.68769742316E-02  0.89180870600E+00  0.88000000000E+00 0. -1.
        -11    1    4    4    0    0 -0.19512515777E-01 -0.92769677681E-03  0.41446067178E-03  0.19545633576E-01  0.51100000000E-03 0.  1.
         11    1    4    4    0    0 -0.95374275143E-01 -0.51986852741E-01 -0.43670757988E-03  0.10862475340E+00  0.51100000000E-03 0. -1.
</event>
<event>
 8    1  0.1106905E+005  0.1043930E+01  0.7957747E-01            NaN
         13   -1    0    0    0    0  0.00000000000E+00  0.00000000000E+00  0.74505805969E-08  0.10566000000E+00  0.10566000000E+00 0. -1.
     999900   -1    0    0    0    0 -0.00000000000E+00 -0.00000000000E+00 -0.74505805969E-08  0.93827000000E+00  0.93827000000E+00 0.  1.
     999902    2    1    2    0    0 -0.10575691432E-01 -0.17646314252E-01 -0.11884670984E-01  0.10201711477E+01  0.10198944493E+01 0.  0.
     999903    2    3    3    0    0  0.44387457969E-01 -0.78560784049E-01 -0.94769170837E-01  0.13247674045E+00  0.20660295375E-01 0.  0.
         14    1    1    2    0    0  0.10575691432E-01  0.17646314252E-01  0.11884670984E-01  0.23758852253E-01  0.00000000000E+00 0. -1.
     999901    1    3    3    0    0 -0.54963149401E-01  0.60914469797E-01  0.82884499853E-01  0.88769440729E+00  0.88000000000E+00 0. -1.
        -11    1    4    4    0    0  0.45487834279E-01 -0.67570763986E-01 -0.84878652689E-01  0.11764182086E+00  0.51100000000E-03 0.  1.
         11    1    4    4    0    0 -0.11003763097E-02 -0.10990020063E-01 -0.98905181482E-02  0.14834919590E-01  0.51100000000E-03 0. -1.
</event>
<event>
 8    1  0.1106905E+005  0.1043930E+01  0.7957747E-01            NaN
         13   -1    0    0    0    0  0.00000000000E+00  0.00000000000E+00  0.74505805969E-08  0.10566000000E+00  0.10566000000E+00 0. -1.
     999900   -1    0    0    0    0 -0.00000000000E+00 -0.00000000000E+00 -0.74505805969E-08  0.93827000000E+00  0.93827000000E+00 0.  1.
     999902    2    1    2    0    0 -0.11606720273E-01 -0.48323040095E-02 -0.19774213985E-01  0.10204974018E+01  0.10202283374E+01 0.  0.
     999903    2    3    3    0    0 -0.12800128811E+00 -0.11081221990E-01 -0.27839868354E-01  0.13277458521E+00  0.18625492450E-01 0.  0.
         14    1    1    2    0    0  0.11606720273E-01  0.48323040095E-02  0.19774213985E-01  0.23432598155E-01  0.00000000000E+00 0. -1.
     999901    1    3    3    0    0  0.11639456784E+00  0.62489179804E-02  0.80656543686E-02  0.88772281664E+00  0.88000000000E+00 0.  1.
        -11    1    4    4    0    0 -0.82478931295E-01 -0.14958268149E-01 -0.22361842237E-01  0.86757345526E-01  0.51100000000E-03 0. -1.
         11    1    4    4    0    0 -0.45522356814E-01  0.38770461589E-02 -0.54780261170E-02  0.46017239682E-01  0.51100000000E-03 0.  1.
</event>
<event>
 8    1  0.1106905E+005  0.1043930E+01  0.7957747E-01            NaN
         13   -1    0    0    0    0  0.00000000000E+00  0.00000000000E+00  0.74505805969E-08  0.10566000000E+00  0.10566000000E+00 0.  1.
     999900   -1    0    0    0    0 -0.00000000000E+00 -0.00000000000E+00 -0.74505805969E-08  0.93827000000E+00  0.93827000000E+00 0. -1.
     999902    2    1    2    0    0  0.17209104007E-01 -0.16106849480E-01 -0.28610244058E-02  0.10201861730E+01  0.10199098285E+01 0.  0.
     999903    2    3    3    0    0  0.94723139557E-01  0.24396404144E-01 -0.86421979914E-01  0.13191179389E+00  0.19086776895E-01 0.  0.
         14    1    1    2    0    0 -0.17209104007E-01  0.16106849480E-01  0.28610244058E-02  0.23743827020E-01  0.00000000000E+00 0. -1.
     999901    1    3    3    0    0 -0.77514035550E-01 -0.40503253624E-01  0.83560955509E-01  0.88827437909E+00  0.88000000000E+00 0.  1.
        -11    1    4    4    0    0  0.28004302428E-01  0.13296537476E-01 -0.36228253333E-01  0.47684235591E-01  0.51100000000E-03 0. -1.
         11    1    4    4    0    0  0.66718837129E-01  0.11099866668E-01 -0.50193726581E-01  0.84227558299E-01  0.51100000000E-03 0.  1.
</event>
<event>
 8    1  0.1106905E+005  0.1043930E+01  0.7957747E-01            NaN
         13   -1    0    0    0    0  0.00000000000E+00  0.00000000000E+00  0.74505805969E-08  0.10566000000E+00  0.10566000000E+00 0.  1.
     999900   -1    0    0    0    0 -0.00000000000E+00 -0.00000000000E+00 -0.74505805969E-08  0.93827000000E+00  0.93827000000E+00 0.  1.
     999902    2    1    2    0    0 -0.61425156178E-02 -0.23241868762E-01  0.15036156727E-02  0.10198431608E+01  0.10195586775E+01 0.  0.
     999903    2    3    3    0    0  0.54754586606E-01  0.94779919484E-01  0.62756133439E-01  0.12777283260E+00  0.20156055519E-01 0.  0.
         14    1    1    2    0    0  0.61425156178E-02  0.23241868762E-01 -0.15036156727E-02  0.24086839181E-01  0.00000000000E+00 0.  1.
     999901    1    3    3    0    0 -0.60897102224E-01 -0.11802178825E+00 -0.61252517766E-01  0.89207032822E+00  0.88000000000E+00 0. -1.
        -11    1    4    4    0    0  0.43945739255E-01  0.76179240407E-01  0.40533572958E-01  0.96838712948E-01  0.51100000000E-03 0. -1.
         11    1    4    4    0    0  0.10808847351E-01  0.18600679077E-01  0.22222560481E-01  0.30934119650E-01  0.51100000000E-03 0.  1.
</event>
<event>
 8    1  0.1106905E+005  0.1043930E+01  0.7957747E-01            NaN
         13   -1    0    0    0    0  0.00000000000E+00  0.00000000000E+00  0.74505805969E-08  0.10566000000E+00  0.10566000000E+00 0. -1.
     999900   -1    0    0    0    0 -0.00000000000E+00 -0.00000000000E+00 -0.74505805969E-08  0.93827000000E+00  0.93827000000E+00 0.  1.
     999902    2    1    2    0    0  0.12573076929E-01  0.20227600160E-01  0.83949274973E-03  0.10200984491E+01  0.10198200346E+01 0.  0.
     999903    2    3    3    0    0  0.61762434473E-01 -0.59428619734E-01  0.95856783712E-01  0.13004620799E+00  0.19419940121E-01 0.  0.
         14    1    1    2    0    0 -0.12573076929E-01 -0.20227600160E-01 -0.83949274973E-03  0.23831550930E-01  0.00000000000E+00 0.  1.
     999901    1    3    3    0    0 -0.49189357545E-01  0.79656219893E-01 -0.95017290962E-01  0.89005224108E+00  0.88000000000E+00 0. -1.
        -11    1    4    4    0    0  0.34592066520E-01 -0.36950830861E-01  0.42535593053E-01  0.66117416501E-01  0.51100000000E-03 0.  1.
         11    1    4    4    0    0  0.27170367954E-01 -0.22477788872E-01  0.53321190659E-01  0.63928791492E-01  0.51100000000E-03 0. -1.
</event>
<event>
 8    1  0.1106905E+005  0.1043930E+01  0.7957747E-01            NaN
         13   -1    0    0    0    0  0.00000000000E+00  0.00000000000E+00  0.74505805969E-08  0.10566000000E+00  0.10566000000E+00 0.  1.
     999900   -1    0    0    0    0 -0.00000000000E+00 -0.00000000000E+00 -0.74505805969E-08  0.93827000000E+00  0.93827000000E+00 0.  1.
     999902    2    1    2    0    0 -0.18993994190E-01  0.36899483373E-02  0.68533438110E-02  0.10234030456E+01  0.10231971648E+01 0.  0.
     999903    2    3    3    0    0 -0.13172940443E+00  0.16967955578E-01 -0.20047087354E-01  0.13570421642E+00  0.19318414355E-01 0.  0.
         14    1    1    2    0    0  0.18993994190E-01 -0.36899483373E-02 -0.68533438110E-02  0.20526954363E-01  0.00000000000E+00 0. -1.
     999901    1    3    3    0    0  0.11273541024E+00 -0.13278007241E-01  0.26900431165E-01  0.88769882922E+00  0.88000000000E+00 0.  1.
        -11    1    4    4    0    0 -0.61277854148E-01  0.14347085428E-01 -0.16736542798E-01  0.65124398309E-01  0.51100000000E-03 0.  1.
         11    1    4    4    0    0 -0.70451550286E-01  0.26208701498E-02 -0.33105445560E-02  0.70579818109E-01  0.51100000000E-03 0. -1.
</event>
<event>
 8    1  0.1106905E+005  0.1043930E+01  0.7957747E-01            NaN
         13   -1    0    0    0    0  0.00000000000E+00  0.00000000000E+00  0.74505805969E-08  0.10566000000E+00  0.10566000000E+00 0.  1.
     999900   -1    0    0    0    0 -0.00000000000E+00 -0.00000000000E+00 -0.74505805969E-08  0.93827000000E+00  0.93827000000E+00 0.  1.
     999902    2    1    2    0    0  0.24129115965E-02  0.11869798360E-01  0.19957465029E-01  0.10205844508E+01  0.10203174048E+01 0.  0.
     999903    2    3    3    0    0 -0.63723286432E-01  0.73990502236E-01  0.88413129139E-01  0.13327438300E+00  0.20246681304E-01 0.  0.
         14    1    1    2    0    0 -0.24129115965E-02 -0.11869798360E-01 -0.19957465029E-01  0.23345549166E-01  0.00000000000E+00 0. -1.
     999901    1    3    3    0    0  0.66136198029E-01 -0.62120703875E-01 -0.68455664110E-01  0.88731006784E+00  0.88000000000E+00 0.  1.
        -11    1    4    4    0    0 -0.34976808574E-01  0.50024459500E-01  0.44306735181E-01  0.75426597362E-01  0.51100000000E-03 0.  1.
         11    1    4    4    0    0 -0.28746477859E-01  0.23966042736E-01  0.44106393958E-01  0.57847785633E-01  0.51100000000E-03 0. -1.
</event>
<event>
 8    1  0.1106905E+005  0.1043930E+01  0.7957747E-01            NaN
         13   -1    0    0    0    0  0.00000000000E+00  0.00000000000E+00  0.74505805969E-08  0.10566000000E+00  0.10566000000E+00 0. -1.
     999900   -1    0    0    0    0 -0.00000000000E+00 -0.00000000000E+00 -0.74505805969E-08  0.93827000000E+00  0.93827000000E+00 0.  1.
     999902    2    1    2    0    0  0.11901122826E-02 -0.21989253524E-01 -0.85155155700E-02  0.10203194591E+01  0.10200462445E+01 0.  0.
     999903    2    3    3    0    0 -0.18131334118E-01 -0.12044554397E+00 -0.52628936619E-01  0.13352018452E+00  0.14898334331E-01 0.  0.
         14    1    1    2    0    0 -0.11901122826E-02  0.21989253524E-01  0.85155155700E-02  0.23610540934E-01  0.00000000000E+00 0. -1.
     999901    1    3    3    0    0  0.19321446401E-01  0.98456290444E-01  0.44113421049E-01  0.88679927455E+00  0.88000000000E+00 0.  1.
        -11    1    4    4    0    0 -0.19623499290E-01 -0.87360403939E-01 -0.36733607017E-01  0.96780891224E-01  0.51100000000E-03 0.  1.
         11    1    4    4    0    0  0.14921651722E-02 -0.33085140030E-01 -0.15895329602E-01  0.36739293295E-01  0.51100000000E-03 0. -1.
</event>
<event>
 8    1  0.1106905E+005  0.1043930E+01  0.7957747E-01            NaN
         13   -1    0    0    0    0  0.00000000000E+00  0.00000000000E+00  0.74505805969E-08  0.10566000000E+00  0.10566000000E+00 0.  1.
     999900   -1    0    0    0    0 -0.00000000000E+00 -0.00000000000E+00 -0.74505805969E-08  0.93827000000E+00  0.93827000000E+00 0.  1.
     999902    2    1    2    0    0  0.15609558089E-01  0.12030667172E-01 -0.12831214237E-01  0.10204132971E+01  0.10201422752E+01 0.  0.
     999903    2    3    3    0    0 -0.76749542884E-01  0.45149430696E-01  0.91165611522E-01  0.12887395653E+00  0.19192824734E-01 0.  0.
         14    1    1    2    0    0 -0.15609558089E-01 -0.12030667172E-01  0.12831214237E-01  0.23516702896E-01  0.00000000000E+00 0.  1.
     999901    1    3    3    0    0  0.92359100973E-01 -0.33118763524E-01 -0.10399682576E+00  0.89153934058E+00  0.88000000000E+00 0.  1.
        -11    1    4    4    0    0 -0.44243463080E-01  0.16177399869E-01  0.41093060480E-01  0.62514742521E-01  0.51100000000E-03 0. -1.
         11    1    4    4    0    0 -0.32506079804E-01  0.28972030827E-01  0.50072551042E-01  0.66359214005E-01  0.51100000000E-03 0.  1.
</event>
<event>
 8    1  0.1106905E+005  0.1043930E+01  0.7957747E-01            NaN
         13   -1    0    0    0    0  0.00000000000E+00  0.00000000000E+00  0.74505805969E-08  0.10566000000E+00  0.10566000000E+00 0. -1.
     999900   -1    0    0    0    0 -0.00000000000E+00 -0.00000000000E+00 -0.74505805969E-08  0.93827000000E+00  0.93827000000E+00 0. -1.
     999902    2    1    2    0    0  0.20376158419E-01  0.13990825718E-02 -0.50519165057E-02  0.10228903440E+01  0.10226739406E+01 0.  0.
     999903    2    3    3    0    0  0.84112866818E-01  0.67156292366E-01 -0.79127595355E-01  0.13504261785E+00  0.19758297533E-01 0.  0.
         14    1    1    2    0    0 -0.20376158419E-01 -0.13990825718E-02  0.50519165057E-02  0.21039655994E-01  0.00000000000E+00 0. -1.
     999901    1    3    3    0    0 -0.63736708399E-01 -0.65757209795E-01  0.74075678849E-01  0.88784772615E+00  0.88000000000E+00 0.  1.
        -11    1    4    4    0    0  0.66659262157E-01  0.62351720547E-01 -0.64565394637E-01  0.11180404998E+00  0.51100000000E-03 0. -1.
         11    1    4    4    0    0  0.17453604662E-01  0.48045718194E-02 -0.14562200717E-01  0.23238567873E-01  0.51100000000E-03 0.  1.
</event>
<event>
 8    1  0.1106905E+005  0.1043930E+01  0.7957747E-01            NaN
         13   -1    0    0    0    0  0.00000000000E+00  0.00000000000E+00  0.74505805969E-08  0.10566000000E+00  0.10566000000E+00 0. -1.
     999900   -1    0    0    0    0 -0.00000000000E+00 -0.00000000000E+00 -0.74505805969E-08  0.93827000000E+00  0.93827000000E+00 0.  1.
     999902    2    1    2    0    0 -0.18272285135E-01 -0.90054013456E-03  0.31465100826E-01  0.10075330228E+01  0.10068753906E+01 0.  0.
     999903    2    3    3    0    0  0.45156933139E-01  0.30586639572E-01  0.10671624189E+00  0.12148706328E+00  0.19901234392E-01 0.  0.
         14    1    1    2    0    0  0.18272285135E-01  0.90054013456E-03 -0.31465100826E-01  0.36396977163E-01  0.00000000000E+00 0.  1.
     999901    1    3    3    0    0 -0.63429218274E-01 -0.31487179707E-01 -0.75251141064E-01  0.88604595956E+00  0.88000000000E+00 0.  1.
        -11    1    4    4    0    0  0.25731660534E-01  0.13588809063E-01  0.75880850201E-01  0.81270773553E-01  0.51100000000E-03 0. -1.
         11    1    4    4    0    0  0.19425272605E-01  0.16997830509E-01  0.30835391689E-01  0.40216289727E-01  0.51100000000E-03 0.  1.
</event>
<event>
 8    1  0.1106905E+005  0.1043930E+01  0.7957747E-01            NaN
         13   -1    0    0    0    0  0.00000000000E+00  0.00000000000E+00  0.74505805969E-08  0.10566000000E+00  0.10566000000E+00 0. -1.
     999900   -1    0    0    0    0 -0.00000000000E+00 -0.00000000000E+00 -0.74505805969E-08  0.93827000000E+00  0.93827000000E+00 0. -1.
     999902    2    1    2    0    0 -0.74126375745E-02 -0.88311586818E-02 -0.19996666058E-01  0.10208474695E+01  0.10205864749E+01 0.  0.
     999903    2    3    3    0    0 -0.11577015308E+00  0.23058507237E-01  0.52756756353E-01  0.13065009679E+00  0.18754982048E-01 0.  0.
         14    1    1    2    0    0  0.74126375745E-02  0.88311586818E-02  0.19996666058E-01  0.23082530470E-01  0.00000000000E+00 0. -1.
     999901    1    3    3    0    0  0.10835751550E+00 -0.31889665919E-01 -0.72753422411E-01  0.89019737274E+00  0.88000000000E+00 0. -1.
        -11    1    4    4    0    0 -0.56304765171E-01  0.14415594004E-01  0.16307336570E-01  0.60367427297E-01  0.51100000000E-03 0. -1.
         11    1    4    4    0    0 -0.59465387905E-01  0.86429132331E-02  0.36449419782E-01  0.70282669495E-01  0.51100000000E-03 0.  1.
</event>
<event>
 8    1  0.1106905E+005  0.1043930E+01  0.7957747E-01            NaN
         13   -1    0    0    0    0  0.00000000000E+00  0.00000000000E+00  0.74505805969E-08  0.10566000000E+00  0.10566000000E+00 0.  1.
     999900   -1    0    0    0    0 -0.00000000000E+00 -0.00000000000E+00 -0.74505805969E-08  0.93827000000E+00  0.93827000000E+00 0.  1.
     999902    2    1    2    0    0 -0.23915314831E-01 -0.15513398532E-02  0.82575387171E-03  0.10199502000E+01  0.10196682694E+01 0.  0.
     999903    2    3    3    0    0  0.67211692862E-01 -0.13158318062E-01 -0.10601303742E+00  0.12874125659E+00  0.25396733129E-01 0.  0.
         14    1    1    2    0    0  0.23915314831E-01  0.15513398532E-02 -0.82575387171E-03  0.23979800004E-01  0.00000000000E+00 0. -1.
     999901    1    3    3    0    0 -0.91127007693E-01  0.11606978209E-01  0.10683879130E+00  0.89120894340E+00  0.88000000000E+00 0. -1.
        -11    1    4    4    0    0  0.26760628009E-01 -0.16116594826E-01 -0.34647821750E-01  0.46654137150E-01  0.51100000000E-03 0. -1.
         11    1    4    4    0    0  0.40451064853E-01  0.29582767640E-02 -0.71365215675E-01  0.82087119443E-01  0.51100000000E-03 0.  1.
</event>
<event>
 8    1  0.1106905E+005  0.1043930E+01  0.7957747E-01            NaN
         13   -1    0    0    0    0  0.00000000000E+00  0.00000000000E+00  0.74505805969E-08  0.10566000000E+00  0.10566000000E+00 0. -1.
     999900   -1    0    0    0    0 -0.00000000000E+00 -0.00000000000E+00 -0.74505805969E-08  0.93827000000E+00  0.93827000000E+00 0. -1.
     999902    2    1    2    0    0  0.12176402575E-01  0.16787845305E-01  0.54507945734E-02  0.10224868731E+01  0.10222620007E+01 0.  0.
     999903    2    3    3    0    0 -0.10566176191E+00  0.10836947285E-01  0.75800356346E-01  0.13182963991E+00  0.18748668787E-01 0.  0.
         14    1    1    2    0    0 -0.12176402575E-01 -0.16787845305E-01 -0.54507945734E-02  0.21443126897E-01  0.00000000000E+00 0.  1.
     999901    1    3    3    0    0  0.11783816448E+00  0.59508980201E-02 -0.70349561773E-01  0.89065723319E+00  0.88000000000E+00 0. -1.
        -11    1    4    4    0    0 -0.33091417338E-01 -0.41361542357E-02  0.18354542060E-01  0.38069673081E-01  0.51100000000E-03 0.  1.
         11    1    4    4    0    0 -0.72570344569E-01  0.14973101520E-01  0.57445814286E-01  0.93759966830E-01  0.51100000000E-03 0. -1.
</event>
<event>
 8    1  0.1106905E+005  0.1043930E+01  0.7957747E-01            NaN
         13   -1    0    0    0    0  0.00000000000E+00  0.00000000000E+00  0.74505805969E-08  0.10566000000E+00  0.10566000000E+00 0. -1.
     999900   -1    0    0    0    0 -0.00000000000E+00 -0.00000000000E+00 -0.74505805969E-08  0.93827000000E+00  0.93827000000E+00 0.  1.
     999902    2    1    2    0    0  0.59934664872E-02  0.11234370737E-01  0.18278593315E-01  0.10216535618E+01  0.10214106719E+01 0.  0.
     999903    2    3    3    0    0 -0.10095432378E+00 -0.68984931633E-01 -0.38587623152E-01  0.12974172034E+00  0.19829600446E-01 0.  0.
         14    1    1    2    0    0 -0.59934664872E-02 -0.11234370737E-01 -0.18278593315E-01  0.22276438224E-01  0.00000000000E+00 0.  1.
     999901    1    3    3    0    0  0.10694779027E+00  0.80219302369E-01  0.56866216466E-01  0.89191184143E+00  0.88000000000E+00 0. -1.
        -11    1    4    4    0    0 -0.24547421615E-01 -0.81530136402E-02 -0.42688725846E-02  0.26220830145E-01  0.51100000000E-03 0. -1.
         11    1    4    4    0    0 -0.76406902168E-01 -0.60831917992E-01 -0.34318750567E-01  0.10352089020E+00  0.51100000000E-03 0.  1.
</event>
<event>
 8    1  0.1106905E+005  0.1043930E+01  0.7957747E-01            NaN
         13   -1    0    0    0    0  0.00000000000E+00  0.00000000000E+00  0.74505805969E-08  0.10566000000E+00  0.10566000000E+00 0. -1.
     999900   -1    0    0    0    0 -0.00000000000E+00 -0.00000000000E+00 -0.74505805969E-08  0.93827000000E+00  0.93827000000E+00 0. -1.
     999902    2    1    2    0    0  0.44581528980E-02  0.18736504798E-01 -0.13007581107E-01  0.10206893265E+01  0.10204247019E+01 0.  0.
     999903    2    3    3    0    0 -0.10230301371E+00  0.79770233970E-01  0.10991625961E-01  0.13181418073E+00  0.20614692794E-01 0.  0.
         14    1    1    2    0    0 -0.44581528980E-02 -0.18736504798E-01  0.13007581107E-01  0.23240673518E-01  0.00000000000E+00 0. -1.
     999901    1    3    3    0    0  0.10676116661E+00 -0.61033729172E-01 -0.23999207068E-01  0.88887514575E+00  0.88000000000E+00 0. -1.
        -11    1    4    4    0    0 -0.76758901543E-01  0.48349261475E-01  0.47916988977E-02  0.90844931343E-01  0.51100000000E-03 0. -1.
         11    1    4    4    0    0 -0.25544112166E-01  0.31420972496E-01  0.61999270633E-02  0.40969249389E-01  0.51100000000E-03 0.  1.
</event>
<event>
 8    1  0.1106905E+005  0.1043930E+01  0.7957747E-01            NaN
         13   -1    0    0    0    0  0.00000000000E+00  0.00000000000E+00  0.74505805969E-08  0.10566000000E+00  0.10566000000E+00 0.  1.
     999900   -1    0    0    0    0 -0.00000000000E+00 -0.00000000000E+00 -0.74505805969E-08  0.93827000000E+00  0.93827000000E+00 0. -1.
     999902    2    1    2    0    0 -0.15825460439E-01 -0.81120284131E-02  0.15958496153E-01  0.10200359881E+01  0.10197560950E+01 0.  0.
     999903    2    3    3    0    0  0.69722566524E-02  0.70269411341E-01 -0.10492203878E+00  0.12802954774E+00  0.19913019359E-01 0.  0.
         14    1    1    2    0    0  0.15825460439E-01  0.81120284131E-02 -0.15958496153E-01  0.23894011855E-01  0.00000000000E+00 0.  1.
     999901    1    3    3    0    0 -0.22797717091E-01 -0.78381439754E-01  0.12088053493E+00  0.89200644041E+00  0.88000000000E+00 0.  1.
        -11    1    4    4    0    0  0.98408477563E-02  0.37608222789E-01 -0.43060187634E-01  0.58014322249E-01  0.51100000000E-03 0. -1.
         11    1    4    4    0    0 -0.28685911039E-02  0.32661188552E-01 -0.61861851143E-01  0.70015225489E-01  0.51100000000E-03 0.  1.
</event>
<event>
 8    1  0.1106905E+005  0.1043930E+01  0.7957747E-01            NaN
         13   -1    0    0    0    0  0.00000000000E+00  0.00000000000E+00  0.74505805969E-08  0.10566000000E+00  0.10566000000E+00 0.  1.
     999900   -1    0    0    0    0 -0.00000000000E+00 -0.00000000000E+00 -0.74505805969E-08  0.93827000000E+00  0.93827000000E+00 0.  1.
     999902    2    1    2    0    0 -0.11870842328E-01  0.70632789865E-02 -0.18920097089E-01  0.10205040127E+01  0.10202351018E+01 0.  0.
     999903    2    3    3    0    0 -0.84673744438E-01 -0.41039638709E-01  0.87235468254E-01  0.12983956561E+00  0.19859278252E-01 0.  0.
         14    1    1    2    0    0  0.11870842328E-01 -0.70632789865E-02  0.18920097089E-01  0.23425987310E-01  0.00000000000E+00 0.  1.
     999901    1    3    3    0    0  0.72802902110E-01  0.48102917695E-01 -0.10615556534E+00  0.89066444708E+00  0.88000000000E+00 0.  1.
        -11    1    4    4    0    0 -0.47529961642E-01 -0.12689937382E-01  0.40140618772E-01  0.63495371177E-01  0.51100000000E-03 0. -1.
         11    1    4    4    0    0 -0.37143782796E-01 -0.28349701326E-01  0.47094849482E-01  0.66344194429E-01  0.51100000000E-03 0.  1.
</event>
<event>
 8    1  0.1106905E+005  0.1043930E+01  0.7957747E-01            NaN
         13   -1    0    0    0    0  0.00000000000E+00  0.00000000000E+00  0.74505805969E-08  0.10566000000E+00  0.10566000000E+00 0.  1.
     999900   -1    0    0    0    0 -0.00000000000E+00 -0.00000000000E+00 -0.74505805969E-08  0.93827000000E+00  0.93827000000E+00 0. -1.
     999902    2    1    2    0    0  0.16041490651E-01  0.59036320373E-02 -0.17674199544E-01  0.10193422058E+01  0.10190456187E+01 0.  0.
     999903    2    3    3    0    0 -0.31908842672E-01  0.19298243882E-01  0.11999905056E+00  0.12724771873E+00  0.20040292649E-01 0.  0.
         14    1    1    2    0    0 -0.16041490651E-01 -0.59036320373E-02  0.17674199544E-01  0.24587794189E-01  0.00000000000E+00 0.  1.
     999901    1    3    3    0    0  0.47950333323E-01 -0.13394611845E-01 -0.13767325010E+00  0.89209448708E+00  0.88000000000E+00 0. -1.
        -11    1    4    4    0    0 -0.12249536698E-01  0.10166348179E-01  0.81689913686E-01  0.83228053585E-01  0.51100000000E-03 0. -1.
         11    1    4    4    0    0 -0.19659305974E-01  0.91318957027E-02  0.38309136870E-01  0.44019665142E-01  0.51100000000E-03 0.  1.
</event>
<event>
 8    1  0.1106905E+005  0.1043930E+01  0.7957747E-01            NaN
         13   -1    0    0    0    0  0.00000000000E+00  0.00000000000E+00  0.74505805969E-08  0.10566000000E+00  0.10566000000E+00 0.  1.
     999900   -1    0    0    0    0 -0.00000000000E+00 -0.00000000000E+00 -0.74505805969E-08  0.93827000000E+00  0.93827000000E+00 0. -1.
     999902    2    1    2    0    0 -0.11505422428E-01 -0.80685263826E-02  0.21738549616E-01  0.10180448614E+01  0.10177157262E+01 0.  0.
     999903    2    3    3    0    0 -0.20527419702E-01 -0.11165117838E+00  0.62243173010E-01  0.13099842134E+00  0.19975315128E-01 0.  0.
         14    1    1    2    0    0  0.11505422428E-01  0.80685263826E-02 -0.21738549616E-01  0.25885138644E-01  0.00000000000E+00 0. -1.
     999901    1    3    3    0    0  0.90219972740E-02  0.10358265199E+00 -0.40504623394E-01  0.88704644002E+00  0.88000000000E+00 0. -1.
        -11    1    4    4    0    0 -0.12072056742E-01 -0.23142119744E-01  0.17789900507E-01  0.31591675190E-01  0.51100000000E-03 0.  1.
         11    1    4    4    0    0 -0.84553629605E-02 -0.88509058633E-01  0.44453272503E-01  0.99406746150E-01  0.51100000000E-03 0. -1.
</event>
<event>
 8    1  0.1106905E+005  0.1043930E+01  0.7957747E-01            NaN
         13   -1    0    0    0    0  0.00000000000E+00  0.00000000000E+00  0.74505805969E-08  0.10566000000E+00  0.10566000000E+00 0.  1.
     999900   -1    0    0    0    0 -0.00000000000E+00 -0.00000000000E+00 -0.74505805969E-08  0.93827000000E+00  0.93827000000E+00 0.  1.
     999902    2    1    2    0    0 -0.22316173721E-01 -0.31475816751E-02  0.16665352801E-01  0.10159005001E+01  0.10155137484E+01 0.  0.
     999903    2    3    3    0    0  0.83057870085E-02  0.12065884125E+00  0.31409945655E-01  0.12658439329E+00  0.20235658320E-01 0.  0.
         14    1    1    2    0    0  0.22316173721E-01  0.31475816751E-02 -0.16665352801E-01  0.28029499887E-01  0.00000000000E+00 0. -1.
     999901    1    3    3    0    0 -0.30621960730E-01 -0.12380642293E+00 -0.14744592854E-01  0.88931610682E+00  0.88000000000E+00 0. -1.
        -11    1    4    4    0    0  0.42056668433E-02  0.10163818542E+00  0.33276564201E-01  0.10703083301E+00  0.51100000000E-03 0.  1.
         11    1    4    4    0    0  0.41001201652E-02  0.19020655837E-01 -0.18666185462E-02  0.19553560280E-01  0.51100000000E-03 0. -1.
</event>
<event>
 8    1  0.1106905E+005  0.1043930E+01  0.7957747E-01            NaN
         13   -1    0    0    0    0  0.00000000000E+00  0.00000000000E+00  0.74505805969E-08  0.10566000000E+00  0.10566000000E+00 0.  1.
     999900   -1    0    0    0    0 -0.00000000000E+00 -0.00000000000E+00 -0.74505805969E-08  0.93827000000E+00  0.93827000000E+00 0. -1.
     999902    2    1    2    0    0 -0.96930729977E-02 -0.19037908899E-01  0.10562231902E-01  0.10200981226E+01  0.10198197004E+01 0.  0.
     999903    2    3    3    0    0 -0.25003428366E-01 -0.94863511265E-01  0.88056145238E-01  0.13331222080E+00  0.19849591983E-01 0.  0.
         14    1    1    2    0    0  0.96930729977E-02  0.19037908899E-01 -0.10562231902E-01  0.23831877436E-01  0.00000000000E+00 0. -1.
     999901    1    3    3    0    0  0.15310355368E-01  0.75825602366E-01 -0.77493913336E-01  0.88678590176E+00  0.88000000000E+00 0. -1.
        -11    1    4    4    0    0 -0.12686104241E-01 -0.66876100927E-01  0.70721705173E-01  0.98158905962E-01  0.51100000000E-03 0.  1.
         11    1    4    4    0    0 -0.12317324125E-01 -0.27987410338E-01  0.17334440065E-01  0.35153314842E-01  0.51100000000E-03 0. -1.
</event>
<event>
 8    1  0.1106905E+005  0.1043930E+01  0.7957747E-01            NaN
         13   -1    0    0    0    0  0.00000000000E+00  0.00000000000E+00  0.74505805969E-08  0.10566000000E+00  0.10566000000E+00 0. -1.
     999900   -1    0    0    0    0 -0.00000000000E+00 -0.00000000000E+00 -0.74505805969E-08  0.93827000000E+00  0.93827000000E+00 0. -1.
     999902    2    1    2    0    0  0.16964627553E-01 -0.12133670651E-01 -0.78155945929E-02  0.10216565164E+01  0.10214136917E+01 0.  0.
     999903    2    3    3    0    0 -0.44562191832E-01 -0.12142837705E+00 -0.22075279268E-01  0.13264908060E+00  0.19437616502E-01 0.  0.
         14    1    1    2    0    0 -0.16964627553E-01  0.12133670651E-01  0.78155945929E-02  0.22273483570E-01  0.00000000000E+00 0.  1.
     999901    1    3    3    0    0  0.61526819386E-01  0.10929470640E+00  0.14259684675E-01  0.88900743583E+00  0.88000000000E+00 0. -1.
        -11    1    4    4    0    0 -0.32279896247E-01 -0.62189415331E-01 -0.15752081860E-01  0.71818551119E-01  0.51100000000E-03 0. -1.
         11    1    4    4    0    0 -0.12282295585E-01 -0.59238961721E-01 -0.63231974075E-02  0.60830529483E-01  0.51100000000E-03 0.  1.
</event>
<event>
 8    1  0.1106905E+005  0.1043930E+01  0.7957747E-01            NaN
         13   -1    0    0    0    0  0.00000000000E+00  0.00000000000E+00  0.74505805969E-08  0.10566000000E+00  0.10566000000E+00 0.  1.
     999900   -1    0    0    0    0 -0.00000000000E+00 -0.00000000000E+00 -0.74505805969E-08  0.93827000000E+00  0.93827000000E+00 0. -1.
     999902    2    1    2    0    0  0.64391651370E-02 -0.85227919815E-02  0.12093131540E-01  0.10277948006E+01  0.10276681407E+01 0.  0.
     999903    2    3    3    0    0  0.59932468788E-01 -0.11058144469E+00 -0.52505054929E-01  0.13793502068E+00  0.21192744365E-01 0.  0.
         14    1    1    2    0    0 -0.64391651370E-02  0.85227919815E-02 -0.12093131540E-01  0.16135199449E-01  0.00000000000E+00 0. -1.
     999901    1    3    3    0    0 -0.53493303651E-01  0.10205865271E+00  0.64598186470E-01  0.88985977987E+00  0.88000000000E+00 0.  1.
        -11    1    4    4    0    0  0.51119850541E-01 -0.93962000896E-01 -0.52405796412E-01  0.11911643610E+00  0.51100000000E-03 0. -1.
         11    1    4    4    0    0  0.88126182471E-02 -0.16619443793E-01 -0.99258517580E-04  0.18818584580E-01  0.51100000000E-03 0.  1.
</event>
<event>
 8    1  0.1106905E+005  0.1043930E+01  0.7957747E-01            NaN
         13   -1    0    0    0    0  0.00000000000E+00  0.00000000000E+00  0.74505805969E-08  0.10566000000E+00  0.10566000000E+00 0.  1.
     999900   -1    0    0    0    0 -0.00000000000E+00 -0.00000000000E+00 -0.74505805969E-08  0.93827000000E+00  0.93827000000E+00 0. -1.
     999902    2    1    2    0    0  0.13752690538E-01  0.75092829564E-02 -0.17620795535E-01  0.10203499605E+01  0.10200774596E+01 0.  0.
     999903    2    3    3    0    0  0.10811725937E+00 -0.55419562090E-01  0.44272494902E-01  0.13091447055E+00  0.20441994964E-01 0.  0.
         14    1    1    2    0    0 -0.13752690538E-01 -0.75092829564E-02  0.17620795535E-01  0.23580039501E-01  0.00000000000E+00 0.  1.
     999901    1    3    3    0    0 -0.94364568828E-01  0.62928845046E-01 -0.61893290437E-01  0.88943548995E+00  0.88000000000E+00 0. -1.
        -11    1    4    4    0    0  0.18347319101E-01 -0.23068698741E-02  0.10530370041E-01  0.21286041929E-01  0.51100000000E-03 0. -1.
         11    1    4    4    0    0  0.89769940266E-01 -0.53112692216E-01  0.33742124861E-01  0.10962842862E+00  0.51100000000E-03 0.  1.
</event>
<event>
 8    1  0.1106905E+005  0.1043930E+01  0.7957747E-01            NaN
         13   -1    0    0    0    0  0.00000000000E+00  0.00000000000E+00  0.74505805969E-08  0.10566000000E+00  0.10566000000E+00 0. -1.
     999900   -1    0    0    0    0 -0.00000000000E+00 -0.00000000000E+00 -0.74505805969E-08  0.93827000000E+00  0.93827000000E+00 0.  1.
     999902    2    1    2    0    0 -0.13297129598E-01 -0.51927927460E-02 -0.18880813521E-01  0.10202601062E+01  0.10199855001E+01 0.  0.
     999903    2    3    3    0    0  0.26523872056E-01  0.99882048204E-01  0.73385720613E-01  0.12832986921E+00  0.20078645389E-01 0.  0.
         14    1    1    2    0    0  0.13297129598E-01  0.51927927460E-02  0.18880813521E-01  0.23669893774E-01  0.00000000000E+00 0. -1.
     999901    1    3    3    0    0 -0.39821001654E-01 -0.10507484095E+00 -0.92266534134E-01  0.89193023701E+00  0.88000000000E+00 0.  1.
        -11    1    4    4    0    0  0.69988547769E-02  0.71544693819E-02  0.36174562093E-02  0.10654459665E-01  0.51100000000E-03 0. -1.
         11    1    4    4    0    0  0.19525017279E-01  0.92727578822E-01  0.69768264404E-01  0.11767540955E+00  0.51100000000E-03 0.  1.
</event>
<event>
 8    1  0.1106905E+005  0.1043930E+01  0.7957747E-01            NaN
         13   -1    0    0    0    0  0.00000000000E+00  0.00000000000E+00  0.74505805969E-08  0.10566000000E+00  0.10566000000E+00 0. -1.
     999900   -1    0    0    0    0 -0.00000000000E+00 -0.00000000000E+00 -0.74505805969E-08  0.93827000000E+00  0.93827000000E+00 0. -1.
     999902    2    1    2    0    0  0.22958073785E-01  0.28963139017E-02  0.44382741358E-02  0.10203681651E+01  0.10200960897E+01 0.  0.
     999903    2    3    3    0    0 -0.73580614642E-01 -0.89205291214E-01  0.53484725037E-01  0.12896030202E+00  0.19961283864E-01 0.  0.
         14    1    1    2    0    0 -0.22958073785E-01 -0.28963139017E-02 -0.44382741358E-02  0.23561834891E-01  0.00000000000E+00 0.  1.
     999901    1    3    3    0    0  0.96538688427E-01  0.92101605116E-01 -0.49046450901E-01  0.89140786309E+00  0.88000000000E+00 0. -1.
        -11    1    4    4    0    0 -0.27372670040E-01 -0.29750718432E-01  0.29082439791E-01  0.49803792401E-01  0.51100000000E-03 0. -1.
         11    1    4    4    0    0 -0.46207944602E-01 -0.59454572782E-01  0.24402285246E-01  0.79156509620E-01  0.51100000000E-03 0.  1.
</event>
<event>
 8    1  0.1106905E+005  0.1043930E+01  0.7957747E-01            NaN
         13   -1    0    0    0    0  0.00000000000E+00  0.00000000000E+00  0.74505805969E-08  0.10566000000E+00  0.10566000000E+00 0. -1.
     999900   -1    0    0    0    0 -0.00000000000E+00 -0.00000000000E+00 -0.74505805969E-08  0.93827000000E+00  0.93827000000E+00 0.  1.
     999902    2    1    2    0    0  0.13245705072E-01  0.87724945842E-02 -0.16027831624E-01  0.10213623960E+01  0.10211130433E+01 0.  0.
     999903    2    3    3    0    0 -0.27703666225E-01 -0.42698177653E-01  0.11671932837E+00  0.12897913214E+00  0.20532594002E-01 0.  0.
         14    1    1    2    0    0 -0.13245705072E-01 -0.87724945842E-02  0.16027831624E-01  0.22567604008E-01  0.00000000000E+00 0. -1.
     999901    1    3    3    0    0  0.40949371297E-01  0.51470672238E-01 -0.13274715999E+00  0.89238326385E+00  0.88000000000E+00 0.  1.
        -11    1    4    4    0    0 -0.28611522117E-01 -0.43150211710E-01  0.10367016233E+00  0.11588064397E+00  0.51100000000E-03 0.  1.
         11    1    4    4    0    0  0.90785589235E-03  0.45203405709E-03  0.13049166040E-01  0.13098488174E-01  0.51100000000E-03 0. -1.
</event>
<event>
 8    1  0.1106905E+005  0.1043930E+01  0.7957747E-01            NaN
         13   -1    0    0    0    0  0.00000000000E+00  0.00000000000E+00  0.74505805969E-08  0.10566000000E+00  0.10566000000E+00 0. -1.
     999900   -1    0    0    0    0 -0.00000000000E+00 -0.00000000000E+00 -0.74505805969E-08  0.93827000000E+00  0.93827000000E+00 0. -1.
     999902    2    1    2    0    0 -0.16311704711E-02  0.63121023741E-02  0.25277819252E-01  0.10178249909E+01  0.10174901673E+01 0.  0.
     999903    2    3    3    0    0 -0.77151886039E-01  0.26260194389E-01  0.10017510726E+00  0.13119603322E+00  0.23137322453E-01 0.  0.
         14    1    1    2    0    0  0.16311704711E-02 -0.63121023741E-02 -0.25277819252E-01  0.26105009090E-01  0.00000000000E+00 0.  1.
     999901    1    3    3    0    0  0.75520715568E-01 -0.19948092015E-01 -0.74897288009E-01  0.88662895769E+00  0.88000000000E+00 0. -1.
        -11    1    4    4    0    0 -0.53351155155E-01  0.27934685993E-01  0.78636134941E-01  0.99048449142E-01  0.51100000000E-03 0.  1.
         11    1    4    4    0    0 -0.23800730885E-01 -0.16744916035E-02  0.21538972320E-01  0.32147584083E-01  0.51100000000E-03 0. -1.
</event>
<event>
 8    1  0.1106905E+005  0.1043930E+01  0.7957747E-01            NaN
         13   -1    0    0    0    0  0.00000000000E+00  0.00000000000E+00  0.74505805969E-08  0.10566000000E+00  0.10566000000E+00 0. -1.
     999900   -1    0    0    0    0 -0.00000000000E+00 -0.00000000000E+00 -0.74505805969E-08  0.93827000000E+00  0.93827000000E+00 0. -1.
     999902    2    1    2    0    0  0.17615085724E-01  0.25053624255E-02  0.15388210042E-01  0.10204062866E+01  0.10201351011E+01 0.  0.
     999903    2    3    3    0    0  0.23270228615E-01  0.50733468745E-01 -0.11494459850E+00  0.12948284884E+00  0.20932248538E-01 0.  0.
         14    1    1    2    0    0 -0.17615085724E-01 -0.25053624255E-02 -0.15388210042E-01  0.23523713445E-01  0.00000000000E+00 0.  1.
     999901    1    3    3    0    0 -0.56551428908E-02 -0.48228106319E-01  0.13033280855E+00  0.89092343771E+00  0.88000000000E+00 0.  1.
        -11    1    4    4    0    0  0.80862089661E-02  0.16277952734E-01 -0.61307518681E-01  0.63947099140E-01  0.51100000000E-03 0.  1.
         11    1    4    4    0    0  0.15184019648E-01  0.34455516011E-01 -0.53637079822E-01  0.65535749703E-01  0.51100000000E-03 0. -1.
</event>
<event>
 8    1  0.1106905E+005  0.1043930E+01  0.7957747E-01            NaN
         13   -1    0    0    0    0  0.00000000000E+00  0.00000000000E+00  0.74505805969E-08  0.10566000000E+00  0.10566000000E+00 0. -1.
     999900   -1    0    0    0    0 -0.00000000000E+00 -0.00000000000E+00 -0.74505805969E-08  0.93827000000E+00  0.93827000000E+00 0.  1.
     999902    2    1    2    0    0  0.18835938179E-02  0.76927148446E-02  0.22244917990E-01  0.10203172457E+01  0.10200439793E+01 0.  0.
     999903    2    3    3    0    0 -0.10457320550E+00  0.18065902555E-01 -0.70311979490E-01  0.12902187808E+00  0.20998533718E-01 0.  0.
         14    1    1    2    0    0 -0.18835938179E-02 -0.76927148446E-02 -0.22244917990E-01  0.23612754260E-01  0.00000000000E+00 0.  1.
     999901    1    3    3    0    0  0.10645679932E+00 -0.10373187711E-01  0.92556897480E-01  0.89129536766E+00  0.88000000000E+00 0. -1.
        -11    1    4    4    0    0 -0.10027523598E+00  0.15426766496E-01 -0.60898081711E-01  0.11832981684E+00  0.51100000000E-03 0. -1.
         11    1    4    4    0    0 -0.42979695208E-02  0.26391360593E-02 -0.94138977786E-02  0.10692061238E-01  0.51100000000E-03 0.  1.
</event>
<event>
 8    1  0.1106905E+005  0.1043930E+01  0.7957747E-01            NaN
         13   -1    0    0    0    0  0.00000000000E+00  0.00000000000E+00  0.74505805969E-08  0.10566000000E+00  0.10566000000E+00 0.  1.
     999900   -1    0    0    0    0 -0.00000000000E+00 -0.00000000000E+00 -0.74505805969E-08  0.93827000000E+00  0.93827000000E+00 0.  1.
     999902    2    1    2    0    0  0.10380628970E-02 -0.12294919534E-01 -0.19598438901E-01  0.10207709536E+01  0.10205082059E+01 0.  0.
     999903    2    3    3    0    0 -0.71619369811E-01 -0.26922131009E-01 -0.10734865878E+00  0.13330649862E+00  0.19817990845E-01 0.  0.
         14    1    1    2    0    0 -0.10380628970E-02  0.12294919534E-01  0.19598438901E-01  0.23159046360E-01  0.00000000000E+00 0.  1.
     999901    1    3    3    0    0  0.72657432708E-01  0.14627211476E-01  0.87750219879E-01  0.88746445502E+00  0.88000000000E+00 0. -1.
        -11    1    4    4    0    0 -0.33887478187E-01 -0.19915355690E-01 -0.42040948281E-01  0.57555929525E-01  0.51100000000E-03 0.  1.
         11    1    4    4    0    0 -0.37731891624E-01 -0.70067753187E-02 -0.65307710500E-01  0.75750569091E-01  0.51100000000E-03 0. -1.
</event>
<event>
 8    1  0.1106905E+005  0.1043930E+01  0.7957747E-01            NaN
         13   -1    0    0    0    0  0.00000000000E+00  0.00000000000E+00  0.74505805969E-08  0.10566000000E+00  0.10566000000E+00 0.  1.
     999900   -1    0    0    0    0 -0.00000000000E+00 -0.00000000000E+00 -0.74505805969E-08  0.93827000000E+00  0.93827000000E+00 0.  1.
     999902    2    1    2    0    0 -0.90111107638E-02  0.54366353569E-02  0.20839610700E-01  0.10205837691E+01  0.10203167074E+01 0.  0.
     999903    2    3    3    0    0  0.63555206711E-02 -0.10808726016E+00 -0.64727104879E-01  0.12904270389E+00  0.27187733811E-01 0.  0.
         14    1    1    2    0    0  0.90111107638E-02 -0.54366353569E-02 -0.20839610700E-01  0.23346230859E-01  0.00000000000E+00 0. -1.
     999901    1    3    3    0    0 -0.15366631435E-01  0.11352389551E+00  0.85566715579E-01  0.89154106525E+00  0.88000000000E+00 0. -1.
        -11    1    4    4    0    0  0.15509077587E-01 -0.62042808652E-01 -0.44556893777E-01  0.77944977370E-01  0.51100000000E-03 0.  1.
         11    1    4    4    0    0 -0.91535569160E-02 -0.46044451505E-01 -0.20170211101E-01  0.51097726520E-01  0.51100000000E-03 0. -1.
</event>
<event>
 8    1  0.1106905E+005  0.1043930E+01  0.7957747E-01            NaN
         13   -1    0    0    0    0  0.00000000000E+00  0.00000000000E+00  0.74505805969E-08  0.10566000000E+00  0.10566000000E+00 0. -1.
     999900   -1    0    0    0    0 -0.00000000000E+00 -0.00000000000E+00 -0.74505805969E-08  0.93827000000E+00  0.93827000000E+00 0.  1.
     999902    2    1    2    0    0 -0.84549859803E-04  0.16005295520E-01 -0.19754362874E-01  0.10185053764E+01  0.10181879936E+01 0.  0.
     999903    2    3    3    0    0 -0.70863413203E-01 -0.69938687776E-01  0.75228840839E-01  0.12641915592E+00  0.20233168572E-01 0.  0.
         14    1    1    2    0    0  0.84549859803E-04 -0.16005295520E-01  0.19754362874E-01  0.25424623614E-01  0.00000000000E+00 0. -1.
     999901    1    3    3    0    0  0.70778863343E-01  0.85943983296E-01 -0.94983203713E-01  0.89208622047E+00  0.88000000000E+00 0.  1.
        -11    1    4    4    0    0 -0.21772272063E-01 -0.10117183774E-01  0.14533480516E-01  0.28069065094E-01  0.51100000000E-03 0.  1.
         11    1    4    4    0    0 -0.49091141140E-01 -0.59821504002E-01  0.60695360322E-01  0.98350090824E-01  0.51100000000E-03 0. -1.
</event>
<event>
 8    1  0.1106905E+005  0.1043930E+01  0.7957747E-01            NaN
         13   -1    0    0    0    0  0.00000000000E+00  0.00000000000E+00  0.74505805969E-08  0.10566000000E+00  0.10566000000E+00 0. -1.
     999900   -1    0    0    0    0 -0.00000000000E+00 -0.00000000000E+00 -0.74505805969E-08  0.93827000000E+00  0.93827000000E+00 0. -1.
     999902    2    1    2    0    0  0.11314474749E-01  0.10955038986E-01 -0.18720854869E-01  0.10194657276E+01  0.10191721489E+01 0.  0.
     999903    2    3    3    0    0  0.36595116735E-01 -0.26980216573E-01  0.11774659935E+00  0.12778105207E+00  0.19914842604E-01 0.  0.
         14    1    1    2    0    0 -0.11314474749E-01 -0.10955038986E-01  0.18720854869E-01  0.24464272420E-01  0.00000000000E+00 0. -1.
     999901    1    3    3    0    0 -0.25280641987E-01  0.37935255558E-01 -0.13646745422E+00  0.89168467551E+00  0.88000000000E+00 0. -1.
        -11    1    4    4    0    0  0.15661690082E-01 -0.20571089655E-01  0.80745864336E-01  0.84785694514E-01  0.51100000000E-03 0.  1.
         11    1    4    4    0    0  0.20933426653E-01 -0.64091269176E-02  0.37000735011E-01  0.42995357559E-01  0.51100000000E-03 0. -1.
</event>
<event>
 8    1  0.1106905E+005  0.1043930E+01  0.7957747E-01            NaN
         13   -1    0    0    0    0  0.00000000000E+00  0.00000000000E+00  0.74505805969E-08  0.10566000000E+00  0.10566000000E+00 0. -1.
     999900   -1    0    0    0    0 -0.00000000000E+00 -0.00000000000E+00 -0.74505805969E-08  0.93827000000E+00  0.93827000000E+00 0. -1.
     999902    2    1    2    0    0 -0.11856097353E-02 -0.14070233168E-01 -0.17931720742E-01  0.10211062461E+01  0.10208511361E+01 0.  0.
     999903    2    3    3    0    0 -0.86368518899E-01  0.63433324875E-01  0.69612957293E-01  0.12929516739E+00  0.19696921703E-01 0.  0.
         14    1    1    2    0    0  0.11856097353E-02  0.14070233168E-01  0.17931720742E-01  0.22823753868E-01  0.00000000000E+00 0. -1.
     999901    1    3    3    0    0  0.85182909164E-01 -0.77503558043E-01 -0.87544678035E-01  0.89181107875E+00  0.88000000000E+00 0.  1.
        -11    1    4    4    0    0 -0.42871191720E-01  0.19401947278E-01  0.30139150959E-01  0.55883845423E-01  0.51100000000E-03 0.  1.
         11    1    4    4    0    0 -0.43497327179E-01  0.44031377597E-01  0.39473806334E-01  0.73411321962E-01  0.51100000000E-03 0. -1.
</event>
<event>
 8    1  0.1106905E+005  0.1043930E+01  0.7957747E-01            NaN
         13   -1    0    0    0    0  0.00000000000E+00  0.00000000000E+00  0.74505805969E-08  0.10566000000E+00  0.10566000000E+00 0.  1.
     999900   -1    0    0    0    0 -0.00000000000E+00 -0.00000000000E+00 -0.74505805969E-08  0.93827000000E+00  0.93827000000E+00 0. -1.
     999902    2    1    2    0    0 -0.99969540026E-02 -0.12162904369E-01 -0.18402970463E-01  0.10197113160E+01  0.10194236722E+01 0.  0.
     999903    2    3    3    0    0  0.10667146675E+00 -0.33497880930E-01 -0.64125706417E-01  0.13057844056E+00  0.20921593397E-01 0.  0.
         14    1    1    2    0    0  0.99969540026E-02  0.12162904369E-01  0.18402970463E-01  0.24218683983E-01  0.00000000000E+00 0.  1.
     999901    1    3    3    0    0 -0.11666842076E+00  0.21334976561E-01  0.45722735954E-01  0.88913287545E+00  0.88000000000E+00 0. -1.
        -11    1    4    4    0    0  0.26751622053E-01 -0.13776687595E-01 -0.26373130736E-01  0.40015616319E-01  0.51100000000E-03 0. -1.
         11    1    4    4    0    0  0.79919844702E-01 -0.19721193335E-01 -0.37752575680E-01  0.90562824245E-01  0.51100000000E-03 0.  1.
</event>
<event>
 8    1  0.1106905E+005  0.1043930E+01  0.7957747E-01            NaN
         13   -1    0    0    0    0  0.00000000000E+00  0.00000000000E+00  0.74505805969E-08  0.10566000000E+00  0.10566000000E+00 0.  1.
     999900   -1    0    0    0    0 -0.00000000000E+00 -0.00000000000E+00 -0.74505805969E-08  0.93827000000E+00  0.93827000000E+00 0.  1.
     999902    2    1    2    0    0 -0.10748837139E-01  0.92700497242E-02 -0.19339199404E-01  0.10199409201E+01  0.10196587687E+01 0.  0.
     999903    2    3    3    0    0  0.12490771074E-01  0.93016990311E-02 -0.13025060907E+00  0.13267465724E+00  0.19869638694E-01 0.  0.
         14    1    1    2    0    0  0.10748837139E-01 -0.92700497242E-02  0.19339199404E-01  0.23989079918E-01  0.00000000000E+00 0.  1.
     999901    1    3    3    0    0 -0.23239608213E-01 -0.31649306916E-04  0.11091140967E+00  0.88726626285E+00  0.88000000000E+00 0. -1.
        -11    1    4    4    0    0 -0.38962618299E-02  0.70059932841E-02 -0.29551309908E-01  0.30623615666E-01  0.51100000000E-03 0. -1.
         11    1    4    4    0    0  0.16387032904E-01  0.22957057470E-02 -0.10069929916E+00  0.10205104157E+00  0.51100000000E-03 0.  1.
</event>
<event>
 8    1  0.1106905E+005  0.1043930E+01  0.7957747E-01            NaN
         13   -1    0    0    0    0  0.00000000000E+00  0.00000000000E+00  0.74505805969E-08  0.10566000000E+00  0.10566000000E+00 0. -1.
     999900   -1    0    0    0    0 -0.00000000000E+00 -0.00000000000E+00 -0.74505805969E-08  0.93827000000E+00  0.93827000000E+00 0.  1.
     999902    2    1    2    0    0 -0.14385891698E-01  0.10067620943E-01  0.18763719166E-01  0.10182319840E+01  0.10179076506E+01 0.  0.
     999903    2    3    3    0    0 -0.84721382528E-01  0.53327028560E-01 -0.79083562380E-01  0.12896681084E+00  0.18887663362E-01 0.  0.
         14    1    1    2    0    0  0.14385891698E-01 -0.10067620943E-01 -0.18763719166E-01  0.25698016039E-01  0.00000000000E+00 0. -1.
     999901    1    3    3    0    0  0.70335490830E-01 -0.43259407617E-01  0.97847281546E-01  0.88926517312E+00  0.88000000000E+00 0. -1.
        -11    1    4    4    0    0 -0.33329169372E-01  0.15311867614E-01 -0.19334727927E-01  0.41465402999E-01  0.51100000000E-03 0.  1.
         11    1    4    4    0    0 -0.51392213156E-01  0.38015160946E-01 -0.59748834454E-01  0.87501407842E-01  0.51100000000E-03 0. -1.
</event>
<event>
 8    1  0.1106905E+005  0.1043930E+01  0.7957747E-01            NaN
         13   -1    0    0    0    0  0.00000000000E+00  0.00000000000E+00  0.74505805969E-08  0.10566000000E+00  0.10566000000E+00 0.  1.
     999900   -1    0    0    0    0 -0.00000000000E+00 -0.00000000000E+00 -0.74505805969E-08  0.93827000000E+00  0.93827000000E+00 0. -1.
     999902    2    1    2    0    0  0.94967184019E-02 -0.19779961840E-01 -0.11471433149E-01  0.10191705911E+01  0.10188697981E+01 0.  0.
     999903    2    3    3    0    0  0.65975708615E-01 -0.75563838225E-01 -0.84214107438E-01  0.13260800793E+00  0.20740783546E-01 0.  0.
         14    1    1    2    0    0 -0.94967184019E-02  0.19779961840E-01  0.11471433149E-01  0.24759408904E-01  0.00000000000E+00 0.  1.
     999901    1    3    3    0    0 -0.56478990213E-01  0.55783876385E-01  0.72742674289E-01  0.88656258316E+00  0.88000000000E+00 0.  1.
        -11    1    4    4    0    0  0.81856477928E-02 -0.17888171273E-01 -0.24652389166E-01  0.31543508268E-01  0.51100000000E-03 0.  1.
         11    1    4    4    0    0  0.57790060822E-01 -0.57675666951E-01 -0.59561718272E-01  0.10106449967E+00  0.51100000000E-03 0. -1.
</event>
<event>
 8    1  0.1106905E+005  0.1043930E+01  0.7957747E-01            NaN
         13   -1    0    0    0    0  0.00000000000E+00  0.00000000000E+00  0.74505805969E-08  0.10566000000E+00  0.10566000000E+00 0. -1.
     999900   -1    0    0    0    0 -0.00000000000E+00 -0.00000000000E+00 -0.74505805969E-08  0.93827000000E+00  0.93827000000E+00 0. -1.
     999902    2    1    2    0    0  0.26826780158E-02 -0.78924389378E-02  0.23007536489E-01  0.10194589132E+01  0.10191651690E+01 0.  0.
     999903    2    3    3    0    0  0.95769700172E-01  0.60421473372E-01 -0.56889638710E-01  0.12832730513E+00  0.20220690713E-01 0.  0.
         14    1    1    2    0    0 -0.26826780158E-02  0.78924389378E-02 -0.23007536489E-01  0.24471086797E-01  0.00000000000E+00 0.  1.
     999901    1    3    3    0    0 -0.93087022157E-01 -0.68313912310E-01  0.79897175199E-01  0.89113160808E+00  0.88000000000E+00 0.  1.
        -11    1    4    4    0    0  0.55596822637E-02  0.89839655391E-02 -0.16557701128E-02  0.10706278501E-01  0.51100000000E-03 0. -1.
         11    1    4    4    0    0  0.90210017909E-01  0.51437507833E-01 -0.55233868597E-01  0.11762102662E+00  0.51100000000E-03 0.  1.
</event>
<event>
 8    1  0.1106905E+005  0.1043930E+01  0.7957747E-01            NaN
         13   -1    0    0    0    0  0.00000000000E+00  0.00000000000E+00  0.74505805969E-08  0.10566000000E+00  0.10566000000E+00 0. -1.
     999900   -1    0    0    0    0 -0.00000000000E+00 -0.00000000000E+00 -0.74505805969E-08  0.93827000000E+00  0.93827000000E+00 0. -1.
     999902    2    1    2    0    0  0.59721020003E-02  0.20093970658E-01  0.81861768475E-02  0.10214256193E+01  0.10211776773E+01 0.  0.
     999903    2    3    3    0    0  0.44250077970E-01  0.11967522626E+00 -0.35693419122E-01  0.13389700069E+00  0.19343149849E-01 0.  0.
         14    1    1    2    0    0 -0.59721020003E-02 -0.20093970658E-01 -0.81861768475E-02  0.22504380696E-01  0.00000000000E+00 0. -1.
     999901    1    3    3    0    0 -0.38277975970E-01 -0.99581255598E-01  0.43879595969E-01  0.88752861861E+00  0.88000000000E+00 0. -1.
        -11    1    4    4    0    0  0.21417864593E-01  0.38570100908E-01 -0.18809417419E-01  0.47962828445E-01  0.51100000000E-03 0. -1.
         11    1    4    4    0    0  0.22832213377E-01  0.81105125348E-01 -0.16884001702E-01  0.85934172248E-01  0.51100000000E-03 0.  1.
</event>
<event>
 8    1  0.1106905E+005  0.1043930E+01  0.7957747E-01            NaN
         13   -1    0    0    0    0  0.00000000000E+00  0.00000000000E+00  0.74505805969E-08  0.10566000000E+00  0.10566000000E+00 0.  1.
     999900   -1    0    0    0    0 -0.00000000000E+00 -0.00000000000E+00 -0.74505805969E-08  0.93827000000E+00  0.93827000000E+00 0. -1.
     999902    2    1    2    0    0  0.37522887158E-02  0.38221429921E-02 -0.18717930466E-01  0.10244608098E+01  0.10242757936E+01 0.  0.
     999903    2    3    3    0    0  0.12474937483E+00  0.21636784507E-01  0.39873960523E-01  0.13407287970E+00  0.18842700982E-01 0.  0.
         14    1    1    2    0    0 -0.37522887158E-02 -0.38221429921E-02  0.18717930466E-01  0.19469190240E-01  0.00000000000E+00 0.  1.
     999901    1    3    3    0    0 -0.12099708611E+00 -0.17814641515E-01 -0.58591890989E-01  0.89038793006E+00  0.88000000000E+00 0.  1.
        -11    1    4    4    0    0  0.96584573713E-01  0.92631809948E-02  0.33523754083E-01  0.10265714593E+00  0.51100000000E-03 0. -1.
         11    1    4    4    0    0  0.28164801116E-01  0.12373603513E-01  0.63502064398E-02  0.31415733775E-01  0.51100000000E-03 0.  1.
</event>
<event>
 8    1  0.1106905E+005  0.1043930E+01  0.7957747E-01            NaN
         13   -1    0    0    0    0  0.00000000000E+00  0.00000000000E+00  0.74505805969E-08  0.10566000000E+00  0.10566000000E+00 0.  1.
     999900   -1    0    0    0    0 -0.00000000000E+00 -0.00000000000E+00 -0.74505805969E-08  0.93827000000E+00  0.93827000000E+00 0. -1.
     999902    2    1    2    0    0 -0.20479301844E-01 -0.29581696763E-02 -0.78477672455E-02  0.10217999294E+01  0.10215602556E+01 0.  0.
     999903    2    3    3    0    0  0.11588633019E+00  0.22739553370E-02  0.52412061461E-01  0.12924505288E+00  0.22857101920E-01 0.  0.
         14    1    1    2    0    0  0.20479301844E-01  0.29581696763E-02  0.78477672455E-02  0.22130070551E-01  0.00000000000E+00 0. -1.
     999901    1    3    3    0    0 -0.13636563204E+00 -0.52321250134E-02 -0.60259828707E-01  0.89255487657E+00  0.88000000000E+00 0. -1.
        -11    1    4    4    0    0  0.64643335033E-01  0.11854329989E-01  0.24763275120E-01  0.70233658736E-01  0.51100000000E-03 0.  1.
         11    1    4    4    0    0  0.51242995161E-01 -0.95803746524E-02  0.27648786341E-01  0.59011394143E-01  0.51100000000E-03 0. -1.
</event>
<event>
 8    1  0.1106905E+005  0.1043930E+01  0.7957747E-01            NaN
         13   -1    0    0    0    0  0.00000000000E+00  0.00000000000E+00  0.74505805969E-08  0.10566000000E+00  0.10566000000E+00 0. -1.
     999900   -1    0    0    0    0 -0.00000000000E+00 -0.00000000000E+00 -0.74505805969E-08  0.93827000000E+00  0.93827000000E+00 0.  1.
     999902    2    1    2    0    0  0.12011463541E-01 -0.20510275941E-03  0.19187926213E-01  0.10212916733E+01  0.10210407377E+01 0.  0.
     999903    2    3    3    0    0 -0.56487073964E-01 -0.80374225561E-01  0.86593185492E-01  0.13243701315E+00  0.19757960888E-01 0.  0.
         14    1    1    2    0    0 -0.12011463541E-01  0.20510275941E-03 -0.19187926213E-01  0.22638326703E-01  0.00000000000E+00 0.  1.
     999901    1    3    3    0    0  0.68498537505E-01  0.80169122801E-01 -0.67405259279E-01  0.88885466015E+00  0.88000000000E+00 0.  1.
        -11    1    4    4    0    0 -0.28512229421E-01 -0.26552121494E-01  0.27025028326E-01  0.47419148657E-01  0.51100000000E-03 0. -1.
         11    1    4    4    0    0 -0.27974844543E-01 -0.53822104067E-01  0.59568157166E-01  0.85017864491E-01  0.51100000000E-03 0.  1.
</event>
<event>
 8    1  0.1106905E+005  0.1043930E+01  0.7957747E-01            NaN
         13   -1    0    0    0    0  0.00000000000E+00  0.00000000000E+00  0.74505805969E-08  0.10566000000E+00  0.10566000000E+00 0.  1.
     999900   -1    0    0    0    0 -0.00000000000E+00 -0.00000000000E+00 -0.74505805969E-08  0.93827000000E+00  0.93827000000E+00 0. -1.
     999902    2    1    2    0    0 -0.20511339136E-01  0.79839392769E-02  0.86214677836E-02  0.10202913024E+01  0.10200174281E+01 0.  0.
     999903    2    3    3    0    0 -0.28657973122E-01  0.11224867013E+00 -0.58989146640E-01  0.13152322410E+00  0.19939801573E-01 0.  0.
         14    1    1    2    0    0  0.20511339136E-01 -0.79839392769E-02 -0.86214677836E-02  0.23638697643E-01  0.00000000000E+00 0. -1.
     999901    1    3    3    0    0  0.81466339862E-02 -0.10426473085E+00  0.67610614424E-01  0.88876807826E+00  0.88000000000E+00 0. -1.
        -11    1    4    4    0    0 -0.16661343130E-01  0.36348275423E-01 -0.13402267403E-01  0.42174392392E-01  0.51100000000E-03 0.  1.
         11    1    4    4    0    0 -0.11996629992E-01  0.75900394708E-01 -0.45586879237E-01  0.89348831708E-01  0.51100000000E-03 0. -1.
</event>
<event>
 8    1  0.1106905E+005  0.1043930E+01  0.7957747E-01            NaN
         13   -1    0    0    0    0  0.00000000000E+00  0.00000000000E+00  0.74505805969E-08  0.10566000000E+00  0.10566000000E+00 0. -1.
     999900   -1    0    0    0    0 -0.00000000000E+00 -0.00000000000E+00 -0.74505805969E-08  0.93827000000E+00  0.93827000000E+00 0.  1.
     999902    2    1    2    0    0  0.23457571949E-01  0.34237230273E-02 -0.36761217796E-02  0.10199405558E+01  0.10196583957E+01 0.  0.
     999903    2    3    3    0    0  0.24185000452E-01 -0.64996424381E-01  0.10849228136E+00  0.13018576016E+00  0.19191341924E-01 0.  0.
         14    1    1    2    0    0 -0.23457571949E-01 -0.34237230273E-02  0.36761217796E-02  0.23989444188E-01  0.00000000000E+00 0.  1.
     999901    1    3    3    0    0 -0.72742850353E-03  0.68420147408E-01 -0.11216840314E+00  0.88975479565E+00  0.88000000000E+00 0.  1.
        -11    1    4    4    0    0 -0.38099659027E-03 -0.23338663060E-01  0.40481056831E-01  0.46731311078E-01  0.51100000000E-03 0.  1.
         11    1    4    4    0    0  0.24565997043E-01 -0.41657761321E-01  0.68011224527E-01  0.83454449082E-01  0.51100000000E-03 0. -1.
</event>
<event>
 8    1  0.1106905E+005  0.1043930E+01  0.7957747E-01            NaN
         13   -1    0    0    0    0  0.00000000000E+00  0.00000000000E+00  0.74505805969E-08  0.10566000000E+00  0.10566000000E+00 0. -1.
     999900   -1    0    0    0    0 -0.00000000000E+00 -0.00000000000E+00 -0.74505805969E-08  0.93827000000E+00  0.93827000000E+00 0. -1.
     999902    2    1    2    0    0 -0.67023419663E-02 -0.18634394131E-01 -0.14396221328E-01  0.10194470831E+01  0.10191530513E+01 0.  0.
     999903    2    3    3    0    0 -0.40201012536E-01  0.75676282780E-01 -0.94758392249E-01  0.13013569598E+00  0.24761366722E-01 0.  0.
         14    1    1    2    0    0  0.67023419663E-02  0.18634394131E-01  0.14396221328E-01  0.24482916922E-01  0.00000000000E+00 0. -1.
     999901    1    3    3    0    0  0.33498670569E-01 -0.94310676912E-01  0.80362170921E-01  0.88931138710E+00  0.88000000000E+00 0.  1.
        -11    1    4    4    0    0 -0.29787094245E-01  0.29809373801E-01 -0.46011797028E-01  0.62395643572E-01  0.51100000000E-03 0.  1.
         11    1    4    4    0    0 -0.10413918290E-01  0.45866908979E-01 -0.48746595221E-01  0.67740052407E-01  0.51100000000E-03 0. -1.
</event>
<event>
 8    1  0.1106905E+005  0.1043930E+01  0.7957747E-01            NaN
         13   -1    0    0    0    0  0.00000000000E+00  0.00000000000E+00  0.74505805969E-08  0.10566000000E+00  0.10566000000E+00 0.  1.
     999900   -1    0    0    0    0 -0.00000000000E+00 -0.00000000000E+00 -0.74505805969E-08  0.93827000000E+00  0.93827000000E+00 0. -1.
     999902    2    1    2    0    0 -0.17996288742E-01  0.13842486922E-01 -0.37089481192E-02  0.10209248452E+01  0.10206656173E+01 0.  0.
     999903    2    3    3    0    0 -0.93237729782E-01  0.80191374953E-01 -0.49416076092E-01  0.13404684288E+00  0.20066804390E-01 0.  0.
         14    1    1    2    0    0  0.17996288742E-01 -0.13842486922E-01  0.37089481192E-02  0.23005154831E-01  0.00000000000E+00 0.  1.
     999901    1    3    3    0    0  0.75241441040E-01 -0.66348888031E-01  0.45707127973E-01  0.88687800229E+00  0.88000000000E+00 0.  1.
        -11    1    4    4    0    0 -0.13615169717E-01  0.11914294647E-01  0.11433101783E-05  0.18099292408E-01  0.51100000000E-03 0. -1.
         11    1    4    4    0    0 -0.79622560065E-01  0.68277080306E-01 -0.49417219402E-01  0.11594755047E+00  0.51100000000E-03 0.  1.
</event>
<event>
 8    1  0.1106905E+005  0.1043930E+01  0.7957747E-01            NaN
         13   -1    0    0    0    0  0.00000000000E+00  0.00000000000E+00  0.74505805969E-08  0.10566000000E+00  0.10566000000E+00 0. -1.
     999900   -1    0    0    0    0 -0.00000000000E+00 -0.00000000000E+00 -0.74505805969E-08  0.93827000000E+00  0.93827000000E+00 0. -1.
     999902    2    1    2    0    0 -0.15191606009E-02  0.19604010934E-01  0.13216021131E-01  0.10202384760E+01  0.10199633619E+01 0.  0.
     999903    2    3    3    0    0 -0.45736456266E-04  0.12990683988E+00  0.18043715219E-01  0.13333814810E+00  0.24035326922E-01 0.  0.
         14    1    1    2    0    0  0.15191606009E-02 -0.19604010934E-01 -0.13216021131E-01  0.23691523973E-01  0.00000000000E+00 0.  1.
     999901    1    3    3    0    0 -0.14734241446E-02 -0.11030282894E+00 -0.48276940886E-02  0.88690032793E+00  0.88000000000E+00 0. -1.
        -11    1    4    4    0    0 -0.29091246493E-02  0.54098071553E-01  0.19155997143E-01  0.57465447876E-01  0.51100000000E-03 0. -1.
         11    1    4    4    0    0  0.28633881931E-02  0.75808768325E-01 -0.11122819242E-02  0.75872700222E-01  0.51100000000E-03 0.  1.
</event>
<event>
 8    1  0.1106905E+005  0.1043930E+01  0.7957747E-01            NaN
         13   -1    0    0    0    0  0.00000000000E+00  0.00000000000E+00  0.74505805969E-08  0.10566000000E+00  0.10566000000E+00 0.  1.
     999900   -1    0    0    0    0 -0.00000000000E+00 -0.00000000000E+00 -0.74505805969E-08  0.93827000000E+00  0.93827000000E+00 0. -1.
     999902    2    1    2    0    0  0.20388914872E-01  0.11610205464E-01  0.93382560514E-03  0.10204485871E+01  0.10201783874E+01 0.  0.
     999903    2    3    3    0    0 -0.18447786388E-01 -0.12163354719E+00  0.33296517435E-01  0.12898376403E+00  0.19827069501E-01 0.  0.
         14    1    1    2    0    0 -0.20388914872E-01 -0.11610205464E-01 -0.93382560514E-03  0.23481412880E-01  0.00000000000E+00 0.  1.
     999901    1    3    3    0    0  0.38836701260E-01  0.13324375265E+00 -0.32362691830E-01  0.89146482309E+00  0.88000000000E+00 0. -1.
        -11    1    4    4    0    0 -0.17176708468E-02 -0.52557342686E-01  0.22053151251E-01  0.57024795172E-01  0.51100000000E-03 0. -1.
         11    1    4    4    0    0 -0.16730115541E-01 -0.69076204505E-01  0.11243366185E-01  0.71958968857E-01  0.51100000000E-03 0.  1.
</event>
<event>
 8    1  0.1106905E+005  0.1043930E+01  0.7957747E-01            NaN
         13   -1    0    0    0    0  0.00000000000E+00  0.00000000000E+00  0.74505805969E-08  0.10566000000E+00  0.10566000000E+00 0.  1.
     999900   -1    0    0    0    0 -0.00000000000E+00 -0.00000000000E+00 -0.74505805969E-08  0.93827000000E+00  0.93827000000E+00 0.  1.
     999902    2    1    2    0    0  0.13546353622E-01  0.84660329654E-02  0.18954523915E-01  0.10191418700E+01  0.10188403702E+01 0.  0.
     999903    2    3    3    0    0 -0.52501663742E-01 -0.99596296973E-01  0.59573621714E-01  0.12914764597E+00  0.21313164701E-01 0.  0.
         14    1    1    2    0    0 -0.13546353622E-01 -0.84660329654E-02 -0.18954523915E-01  0.24788129971E-01  0.00000000000E+00 0. -1.
     999901    1    3    3    0    0  0.66048017364E-01  0.10806232994E+00 -0.40619097800E-01  0.88999422406E+00  0.88000000000E+00 0.  1.
        -11    1    4    4    0    0 -0.30744609253E-01 -0.36121671323E-01  0.26514465367E-01  0.54344126932E-01  0.51100000000E-03 0.  1.
         11    1    4    4    0    0 -0.21757054490E-01 -0.63474625649E-01  0.33059156347E-01  0.74803519040E-01  0.51100000000E-03 0. -1.
</event>
<event>
 8    1  0.1106905E+005  0.1043930E+01  0.7957747E-01            NaN
         13   -1    0    0    0    0  0.00000000000E+00  0.00000000000E+00  0.74505805969E-08  0.10566000000E+00  0.10566000000E+00 0. -1.
     999900   -1    0    0    0    0 -0.00000000000E+00 -0.00000000000E+00 -0.74505805969E-08  0.93827000000E+00  0.93827000000E+00 0.  1.
     999902    2    1    2    0    0  0.61896514983E-02  0.15121645996E-01 -0.18121455714E-01  0.10195299361E+01  0.10192379150E+01 0.  0.
     999903    2    3    3    0    0 -0.25120548589E-01  0.98603834499E-01  0.77744429995E-01  0.12984467009E+00  0.21486828923E-01 0.  0.
         14    1    1    2    0    0 -0.61896514983E-02 -0.15121645996E-01  0.18121455714E-01  0.24400063945E-01  0.00000000000E+00 0. -1.
     999901    1    3    3    0    0  0.31310200087E-01 -0.83482188503E-01 -0.95865885709E-01  0.88968526596E+00  0.88000000000E+00 0.  1.
        -11    1    4    4    0    0 -0.18058225147E-01  0.45765898218E-01  0.26436448422E-01  0.55854846355E-01  0.51100000000E-03 0.  1.
         11    1    4    4    0    0 -0.70623234420E-02  0.52837936281E-01  0.51307981572E-01  0.73989823739E-01  0.51100000000E-03 0. -1.
</event>
<event>
 8    1  0.1106905E+005  0.1043930E+01  0.7957747E-01            NaN
         13   -1    0    0    0    0  0.00000000000E+00  0.00000000000E+00  0.74505805969E-08  0.10566000000E+00  0.10566000000E+00 0.  1.
     999900   -1    0    0    0    0 -0.00000000000E+00 -0.00000000000E+00 -0.74505805969E-08  0.93827000000E+00  0.93827000000E+00 0. -1.
     999902    2    1    2    0    0  0.11756453771E-01 -0.63514353737E-02 -0.20165579247E-01  0.10197389785E+01  0.10194519992E+01 0.  0.
     999903    2    3    3    0    0  0.27735142663E-01 -0.81930012143E-01  0.93604982709E-01  0.12905879987E+00  0.20310490115E-01 0.  0.
         14    1    1    2    0    0 -0.11756453771E-01  0.63514353737E-02  0.20165579247E-01  0.24191021536E-01  0.00000000000E+00 0.  1.
     999901    1    3    3    0    0 -0.15978688893E-01  0.75578576769E-01 -0.11377056196E+00  0.89068017859E+00  0.88000000000E+00 0. -1.
        -11    1    4    4    0    0  0.25305344459E-01 -0.50886860796E-01  0.51561833372E-01  0.76737975224E-01  0.51100000000E-03 0. -1.
         11    1    4    4    0    0  0.24297982046E-02 -0.31043151347E-01  0.42043149338E-01  0.52320824651E-01  0.51100000000E-03 0.  1.
</event>
<event>
 8    1  0.1106905E+005  0.1043930E+01  0.7957747E-01            NaN
         13   -1    0    0    0    0  0.00000000000E+00  0.00000000000E+00  0.74505805969E-08  0.10566000000E+00  0.10566000000E+00 0.  1.
     999900   -1    0    0    0    0 -0.00000000000E+00 -0.00000000000E+00 -0.74505805969E-08  0.93827000000E+00  0.93827000000E+00 0.  1.
     999902    2    1    2    0    0 -0.13812176085E-01 -0.18496790809E-01  0.45484920299E-02  0.10204013736E+01  0.10201300736E+01 0.  0.
     999903    2    3    3    0    0 -0.83092749129E-01  0.97231438967E-01 -0.10855662553E-01  0.12999129455E+00  0.20531282689E-01 0.  0.
         14    1    1    2    0    0  0.13812176085E-01  0.18496790809E-01 -0.45484920299E-02  0.23528626356E-01  0.00000000000E+00 0. -1.
     999901    1    3    3    0    0  0.69280573044E-01 -0.11572822978E+00  0.15404154583E-01  0.89041007909E+00  0.88000000000E+00 0.  1.
        -11    1    4    4    0    0 -0.31820891620E-01  0.44352644061E-01 -0.13693271176E-01  0.56280484852E-01  0.51100000000E-03 0. -1.
         11    1    4    4    0    0 -0.51271857509E-01  0.52878794906E-01  0.28376086236E-02  0.73710809701E-01  0.51100000000E-03 0.  1.
</event>
<event>
 8    1  0.1106905E+005  0.1043930E+01  0.7957747E-01            NaN
         13   -1    0    0    0    0  0.00000000000E+00  0.00000000000E+00  0.74505805969E-08  0.10566000000E+00  0.10566000000E+00 0.  1.
     999900   -1    0    0    0    0 -0.00000000000E+00 -0.00000000000E+00 -0.74505805969E-08  0.93827000000E+00  0.93827000000E+00 0. -1.
     999902    2    1    2    0    0 -0.12174808584E-01 -0.13431554783E-03 -0.19953100029E-01  0.10205554368E+01  0.10202877189E+01 0.  0.
     999903    2    3    3    0    0  0.69869810928E-01 -0.96558082307E-02 -0.10991160866E+00  0.13212169604E+00  0.20013888533E-01 0.  0.
         14    1    1    2    0    0  0.12174808584E-01  0.13431554783E-03  0.19953100029E-01  0.23374563215E-01  0.00000000000E+00 0.  1.
     999901    1    3    3    0    0 -0.82044619512E-01  0.95214926828E-02  0.89958508636E-01  0.88843374074E+00  0.88000000000E+00 0.  1.
        -11    1    4    4    0    0  0.21231456544E-01  0.11652315431E-02 -0.19341786023E-01  0.28748883789E-01  0.51100000000E-03 0. -1.
         11    1    4    4    0    0  0.48638354384E-01 -0.10821039774E-01 -0.90569822642E-01  0.10337281225E+00  0.51100000000E-03 0.  1.
</event>
<event>
 8    1  0.1106905E+005  0.1043930E+01  0.7957747E-01            NaN
         13   -1    0    0    0    0  0.00000000000E+00  0.00000000000E+00  0.74505805969E-08  0.10566000000E+00  0.10566000000E+00 0. -1.
     999900   -1    0    0    0    0 -0.00000000000E+00 -0.00000000000E+00 -0.74505805969E-08  0.93827000000E+00  0.93827000000E+00 0.  1.
     999902    2    1    2    0    0 -0.84410929044E-02 -0.15504707482E-01  0.15118294563E-01  0.10206875639E+01  0.10204228988E+01 0.  0.
     999903    2    3    3    0    0  0.23317413637E-01  0.84296978218E-01  0.95551898963E-01  0.13083446150E+00  0.18379570311E-01 0.  0.
         14    1    1    2    0    0  0.84410929044E-02  0.15504707482E-01 -0.15118294563E-01  0.23242436061E-01  0.00000000000E+00 0. -1.
     999901    1    3    3    0    0 -0.31758506541E-01 -0.99801685701E-01 -0.80433604400E-01  0.88985310244E+00  0.88000000000E+00 0.  1.
        -11    1    4    4    0    0  0.99285478756E-02  0.62636807227E-01  0.74100597788E-01  0.97535149541E-01  0.51100000000E-03 0. -1.
         11    1    4    4    0    0  0.13388865761E-01  0.21660170991E-01  0.21451301175E-01  0.33299311958E-01  0.51100000000E-03 0.  1.
</event>
<event>
 8    1  0.1106905E+005  0.1043930E+01  0.7957747E-01            NaN
         13   -1    0    0    0    0  0.00000000000E+00  0.00000000000E+00  0.74505805969E-08  0.10566000000E+00  0.10566000000E+00 0.  1.
     999900   -1    0    0    0    0 -0.00000000000E+00 -0.00000000000E+00 -0.74505805969E-08  0.93827000000E+00  0.93827000000E+00 0. -1.
     999902    2    1    2    0    0 -0.86319496521E-02  0.15714036400E-01 -0.14809841154E-01  0.10206754759E+01  0.10204105322E+01 0.  0.
     999903    2    3    3    0    0  0.12013807948E+00 -0.40123609871E-01 -0.18879965689E-01  0.12954353898E+00  0.19545157326E-01 0.  0.
         14    1    1    2    0    0  0.86319496521E-02 -0.15714036400E-01  0.14809841154E-01  0.23254524071E-01  0.00000000000E+00 0.  1.
     999901    1    3    3    0    0 -0.12877002914E+00  0.55837646271E-01  0.40701245352E-02  0.89113193695E+00  0.88000000000E+00 0.  1.
        -11    1    4    4    0    0  0.78185366859E-01 -0.29276188389E-01 -0.21227034107E-01  0.86144616172E-01  0.51100000000E-03 0. -1.
         11    1    4    4    0    0  0.41952712624E-01 -0.10847421482E-01  0.23470684176E-02  0.43398922803E-01  0.51100000000E-03 0.  1.
</event>
<event>
 8    1  0.1106905E+005  0.1043930E+01  0.7957747E-01            NaN
         13   -1    0    0    0    0  0.00000000000E+00  0.00000000000E+00  0.74505805969E-08  0.10566000000E+00  0.10566000000E+00 0. -1.
     999900   -1    0    0    0    0 -0.00000000000E+00 -0.00000000000E+00 -0.74505805969E-08  0.93827000000E+00  0.93827000000E+00 0.  1.
     999902    2    1    2    0    0  0.21016850124E-02  0.20479816469E-01  0.12626654936E-01  0.10197789674E+01  0.10194929475E+01 0.  0.
     999903    2    3    3    0    0 -0.10271088863E+00  0.42057922884E-01 -0.62663013125E-01  0.13010496843E+00  0.26119993781E-01 0.  0.
         14    1    1    2    0    0 -0.21016850124E-02 -0.20479816469E-01 -0.12626654936E-01  0.24151032636E-01  0.00000000000E+00 0. -1.
     999901    1    3    3    0    0  0.10481257364E+00 -0.21578106414E-01  0.75289668061E-01  0.88967399894E+00  0.88000000000E+00 0. -1.
        -11    1    4    4    0    0 -0.92839219300E-01  0.42253938046E-01 -0.63546470449E-01  0.12017874582E+00  0.51100000000E-03 0.  1.
         11    1    4    4    0    0 -0.98716693288E-02 -0.19601516206E-03  0.88345732432E-03  0.99262226010E-02  0.51100000000E-03 0. -1.
</event>
<event>
 8    1  0.1106905E+005  0.1043930E+01  0.7957747E-01            NaN
         13   -1    0    0    0    0  0.00000000000E+00  0.00000000000E+00  0.74505805969E-08  0.10566000000E+00  0.10566000000E+00 0.  1.
     999900   -1    0    0    0    0 -0.00000000000E+00 -0.00000000000E+00 -0.74505805969E-08  0.93827000000E+00  0.93827000000E+00 0. -1.
     999902    2    1    2    0    0  0.71023002386E-02  0.80698914094E-02  0.21151344337E-01  0.10202035341E+01  0.10199275983E+01 0.  0.
     999903    2    3    3    0    0 -0.78707915719E-02 -0.12236587025E+00 -0.34000320818E-01  0.12875561777E+00  0.19662953233E-01 0.  0.
         14    1    1    2    0    0 -0.71023002386E-02 -0.80698914094E-02 -0.21151344337E-01  0.23726465883E-01  0.00000000000E+00 0. -1.
     999901    1    3    3    0    0  0.14973091811E-01  0.13043576165E+00  0.55151665154E-01  0.89144791635E+00  0.88000000000E+00 0.  1.
        -11    1    4    4    0    0 -0.85413411001E-03 -0.90408553466E-01 -0.17437791931E-01  0.92080257348E-01  0.51100000000E-03 0. -1.
         11    1    4    4    0    0 -0.70166574619E-02 -0.31957316779E-01 -0.16562528887E-01  0.36675360418E-01  0.51100000000E-03 0.  1.
</event>
<event>
 8    1  0.1106905E+005  0.1043930E+01  0.7957747E-01            NaN
         13   -1    0    0    0    0  0.00000000000E+00  0.00000000000E+00  0.74505805969E-08  0.10566000000E+00  0.10566000000E+00 0. -1.
     999900   -1    0    0    0    0 -0.00000000000E+00 -0.00000000000E+00 -0.74505805969E-08  0.93827000000E+00  0.93827000000E+00 0. -1.
     999902    2    1    2    0    0 -0.49612121469E-02 -0.18338347900E-01 -0.18706835695E-01  0.10172681484E+01  0.10169186946E+01 0.  0.
     999903    2    3    3    0    0  0.25187155574E-01  0.12135731963E+00 -0.44909055613E-02  0.12562590159E+00  0.19992675740E-01 0.  0.
         14    1    1    2    0    0  0.49612121469E-02  0.18338347900E-01  0.18706835695E-01  0.26661851612E-01  0.00000000000E+00 0. -1.
     999901    1    3    3    0    0 -0.30148367721E-01 -0.13969566753E+00 -0.14215930133E-01  0.89164224680E+00  0.88000000000E+00 0. -1.
        -11    1    4    4    0    0  0.46996841458E-02  0.42761777687E-01 -0.10157020916E-01  0.44205009409E-01  0.51100000000E-03 0.  1.
         11    1    4    4    0    0  0.20487471428E-01  0.78595541947E-01  0.56661153547E-02  0.81420892181E-01  0.51100000000E-03 0. -1.
</event>
<event>
 8    1  0.1106905E+005  0.1043930E+01  0.7957747E-01            NaN
         13   -1    0    0    0    0  0.00000000000E+00  0.00000000000E+00  0.74505805969E-08  0.10566000000E+00  0.10566000000E+00 0.  1.
     999900   -1    0    0    0    0 -0.00000000000E+00 -0.00000000000E+00 -0.74505805969E-08  0.93827000000E+00  0.93827000000E+00 0. -1.
     999902    2    1    2    0    0  0.16179085880E-01 -0.16873349603E-01 -0.58368166539E-02  0.10198355779E+01  0.10195509133E+01 0.  0.
     999903    2    3    3    0    0 -0.55117441012E-01  0.59467307898E-01 -0.98378109892E-01  0.12883895520E+00  0.18626080104E-01 0.  0.
         14    1    1    2    0    0 -0.16179085880E-01  0.16873349603E-01  0.58368166539E-02  0.24094422081E-01  0.00000000000E+00 0. -1.
     999901    1    3    3    0    0  0.71296526892E-01 -0.76340657501E-01  0.92541293238E-01  0.89099662271E+00  0.88000000000E+00 0.  1.
        -11    1    4    4    0    0 -0.39910645361E-01  0.40617856003E-01 -0.55084372443E-01  0.79228902856E-01  0.51100000000E-03 0. -1.
         11    1    4    4    0    0 -0.15206795651E-01  0.18849451895E-01 -0.43293737449E-01  0.49610052349E-01  0.51100000000E-03 0.  1.
</event>
<event>
 8    1  0.1106905E+005  0.1043930E+01  0.7957747E-01            NaN
         13   -1    0    0    0    0  0.00000000000E+00  0.00000000000E+00  0.74505805969E-08  0.10566000000E+00  0.10566000000E+00 0. -1.
     999900   -1    0    0    0    0 -0.00000000000E+00 -0.00000000000E+00 -0.74505805969E-08  0.93827000000E+00  0.93827000000E+00 0. -1.
     999902    2    1    2    0    0  0.22872264772E-01  0.17823586844E-02  0.36868583311E-02  0.10206940317E+01  0.10204295155E+01 0.  0.
     999903    2    3    3    0    0  0.17528996037E-02  0.10459679551E+00  0.77162108949E-01  0.13141598269E+00  0.19303035038E-01 0.  0.
         14    1    1    2    0    0 -0.22872264772E-01 -0.17823586844E-02 -0.36868583311E-02  0.23235968296E-01  0.00000000000E+00 0. -1.
     999901    1    3    3    0    0  0.21119365168E-01 -0.10281443682E+00 -0.73475250618E-01  0.88927804901E+00  0.88000000000E+00 0. -1.
        -11    1    4    4    0    0 -0.60318228587E-02  0.11973794201E-01  0.10321893176E-01  0.16928001486E-01  0.51100000000E-03 0.  1.
         11    1    4    4    0    0  0.77847224624E-02  0.92623001306E-01  0.66840215773E-01  0.11448798120E+00  0.51100000000E-03 0. -1.
</event>
<event>
 8    1  0.1106905E+005  0.1043930E+01  0.7957747E-01            NaN
         13   -1    0    0    0    0  0.00000000000E+00  0.00000000000E+00  0.74505805969E-08  0.10566000000E+00  0.10566000000E+00 0.  1.
     999900   -1    0    0    0    0 -0.00000000000E+00 -0.00000000000E+00 -0.74505805969E-08  0.93827000000E+00  0.93827000000E+00 0. -1.
     999902    2    1    2    0    0  0.13193023710E-01 -0.19171537743E-01 -0.41985830352E-02  0.10202819169E+01  0.10200078226E+01 0.  0.
     999903    2    3    3    0    0  0.40637079865E-01 -0.12000260610E+00 -0.36827495774E-01  0.13349855752E+00  0.20337224062E-01 0.  0.
         14    1    1    2    0    0 -0.13193023710E-01  0.19171537743E-01  0.41985830352E-02  0.23648083084E-01  0.00000000000E+00 0.  1.
     999901    1    3    3    0    0 -0.27444056155E-01  0.10083106836E+00  0.32628912739E-01  0.88678335940E+00  0.88000000000E+00 0.  1.
        -11    1    4    4    0    0  0.23239327552E-01 -0.94300586150E-01 -0.30689461718E-01  0.10185662018E+00  0.51100000000E-03 0.  1.
         11    1    4    4    0    0  0.17397752314E-01 -0.25702019952E-01 -0.61380340560E-02  0.31641937334E-01  0.51100000000E-03 0. -1.
</event>
<event>
 8    1  0.1106905E+005  0.1043930E+01  0.7957747E-01            NaN
         13   -1    0    0    0    0  0.00000000000E+00  0.00000000000E+00  0.74505805969E-08  0.10566000000E+00  0.10566000000E+00 0. -1.
     999900   -1    0    0    0    0 -0.00000000000E+00 -0.00000000000E+00 -0.74505805969E-08  0.93827000000E+00  0.93827000000E+00 0. -1.
     999902    2    1    2    0    0 -0.11434650678E-01 -0.10338692093E-01  0.22910433602E-01  0.10163160948E+01  0.10159408826E+01 0.  0.
     999903    2    3    3    0    0 -0.17924921746E-01 -0.11898521187E+00 -0.37168262115E-01  0.12757786591E+00  0.20392368626E-01 0.  0.
         14    1    1    2    0    0  0.11434650678E-01  0.10338692093E-01 -0.22910433602E-01  0.27613905159E-01  0.00000000000E+00 0.  1.
     999901    1    3    3    0    0  0.64902710679E-02  0.10864651978E+00  0.60078695717E-01  0.88873822893E+00  0.88000000000E+00 0.  1.
        -11    1    4    4    0    0 -0.11177727453E-01 -0.10384087445E+00 -0.26154337179E-01  0.10766698320E+00  0.51100000000E-03 0. -1.
         11    1    4    4    0    0 -0.67471942929E-02 -0.15144337421E-01 -0.11013924936E-01  0.19910882709E-01  0.51100000000E-03 0.  1.
</event>
<event>
 7    1  0.1106905E+005  0.1043930E+01  0.7957747E-01            NaN
         13   -1    0    0    0    0  0.00000000000E+00  0.00000000000E+00  0.74505805969E-08  0.10566000000E+00  0.10566000000E+00 0. -1.
     999900   -1    0    0    0    0 -0.00000000000E+00 -0.00000000000E+00 -0.74505805969E-08  0.93827000000E+00  0.93827000000E+00 0.  1.
     999903    2    1    2    0    0 -0.10795058387E-01  0.80544806891E-01  0.77769316548E-01  0.11438565097E+00  0.20784882713E-01 0.  0.
         14    1    1    2    0    0  0.28719338309E-01  0.60497638070E-02  0.25789121048E-01  0.39070177879E-01  0.00000000000E+00 0. -1.
     999901    1    1    2    0    0 -0.17924279922E-01 -0.86594570698E-01 -0.10355843760E+00  0.89047417115E+00  0.88000000000E+00 0. -1.
        -11    1    3    3    0    0 -0.68644387282E-02  0.47871453042E-01  0.31926247017E-01  0.57951211419E-01  0.51100000000E-03 0. -1.
         11    1    3    3    0    0 -0.39306196585E-02  0.32673353849E-01  0.45843069531E-01  0.56434439553E-01  0.51100000000E-03 0.  1.
</event>
<event>
 8    1  0.1106905E+005  0.1043930E+01  0.7957747E-01            NaN
         13   -1    0    0    0    0  0.00000000000E+00  0.00000000000E+00  0.74505805969E-08  0.10566000000E+00  0.10566000000E+00 0.  1.
     999900   -1    0    0    0    0 -0.00000000000E+00 -0.00000000000E+00 -0.74505805969E-08  0.93827000000E+00  0.93827000000E+00 0.  1.
     999902    2    1    2    0    0 -0.21599572835E-01 -0.14985390499E-01  0.28480980485E-02  0.10174873236E+01  0.10171436666E+01 0.  0.
     999903    2    3    3    0    0  0.26396277179E-01 -0.12444880187E+00 -0.11679587776E-01  0.12928864437E+00  0.19871413037E-01 0.  0.
         14    1    1    2    0    0  0.21599572835E-01  0.14985390499E-01 -0.28480980485E-02  0.26442676445E-01  0.00000000000E+00 0. -1.
     999901    1    3    3    0    0 -0.47995850014E-01  0.10946341137E+00  0.14527685825E-01  0.88819867918E+00  0.88000000000E+00 0. -1.
        -11    1    4    4    0    0  0.16728153745E-01 -0.35279752777E-01 -0.25270541663E-02  0.39129773926E-01  0.51100000000E-03 0.  1.
         11    1    4    4    0    0  0.96681234334E-02 -0.89169049096E-01 -0.91525336098E-02  0.90158870445E-01  0.51100000000E-03 0. -1.
</event>
<event>
 8    1  0.1106905E+005  0.1043930E+01  0.7957747E-01            NaN
         13   -1    0    0    0    0  0.00000000000E+00  0.00000000000E+00  0.74505805969E-08  0.10566000000E+00  0.10566000000E+00 0. -1.
     999900   -1    0    0    0    0 -0.00000000000E+00 -0.00000000000E+00 -0.74505805969E-08  0.93827000000E+00  0.93827000000E+00 0. -1.
     999902    2    1    2    0    0  0.11860125729E-01  0.14462249631E-01 -0.15776049887E-01  0.10194615919E+01  0.10191679127E+01 0.  0.
     999903    2    3    3    0    0 -0.12637923850E+00  0.11786559685E-01 -0.58143221796E-02  0.12861002333E+00  0.19902181932E-01 0.  0.
         14    1    1    2    0    0 -0.11860125729E-01 -0.14462249631E-01  0.15776049887E-01  0.24468408137E-01  0.00000000000E+00 0. -1.
     999901    1    3    3    0    0  0.13823936423E+00  0.26756899462E-02 -0.99617277079E-02  0.89085156853E+00  0.88000000000E+00 0.  1.
        -11    1    4    4    0    0 -0.56824839639E-01  0.13350721130E-02 -0.11674186614E-01  0.58029238937E-01  0.51100000000E-03 0.  1.
         11    1    4    4    0    0 -0.69554398860E-01  0.10451487572E-01  0.58598644349E-02  0.70580784393E-01  0.51100000000E-03 0. -1.
</event>
<event>
 8    1  0.1106905E+005  0.1043930E+01  0.7957747E-01            NaN
         13   -1    0    0    0    0  0.00000000000E+00  0.00000000000E+00  0.74505805969E-08  0.10566000000E+00  0.10566000000E+00 0.  1.
     999900   -1    0    0    0    0 -0.00000000000E+00 -0.00000000000E+00 -0.74505805969E-08  0.93827000000E+00  0.93827000000E+00 0.  1.
     999902    2    1    2    0    0 -0.15535492688E-01 -0.12282207797E-01 -0.12368545253E-01  0.10205808014E+01  0.10203136710E+01 0.  0.
     999903    2    3    3    0    0 -0.47321320272E-01 -0.93714692252E-01  0.77047507433E-01  0.13174064774E+00  0.19938128535E-01 0.  0.
         14    1    1    2    0    0  0.15535492688E-01  0.12282207797E-01  0.12368545253E-01  0.23349198554E-01  0.00000000000E+00 0.  1.
     999901    1    3    3    0    0  0.31785827584E-01  0.81432484455E-01 -0.89416052686E-01  0.88884015370E+00  0.88000000000E+00 0.  1.
        -11    1    4    4    0    0 -0.52822044218E-02 -0.26293871759E-01  0.25627576711E-01  0.37098560413E-01  0.51100000000E-03 0.  1.
         11    1    4    4    0    0 -0.42039115850E-01 -0.67420820493E-01  0.51419930723E-01  0.94642087329E-01  0.51100000000E-03 0. -1.
</event>
<event>
 8    1  0.1106905E+005  0.1043930E+01  0.7957747E-01            NaN
         13   -1    0    0    0    0  0.00000000000E+00  0.00000000000E+00  0.74505805969E-08  0.10566000000E+00  0.10566000000E+00 0. -1.
     999900   -1    0    0    0    0 -0.00000000000E+00 -0.00000000000E+00 -0.74505805969E-08  0.93827000000E+00  0.93827000000E+00 0.  1.
     999902    2    1    2    0    0  0.16733226344E-01  0.18501440793E-01 -0.11324440568E-01  0.10165338848E+01  0.10161646480E+01 0.  0.
     999903    2    3    3    0    0 -0.97670991229E-01  0.66892992673E-01 -0.40638977978E-01  0.12732670453E+00  0.23372380261E-01 0.  0.
         14    1    1    2    0    0 -0.16733226344E-01 -0.18501440793E-01  0.11324440568E-01  0.27396115226E-01  0.00000000000E+00 0.  1.
     999901    1    3    3    0    0  0.11440421757E+00 -0.48391551880E-01  0.29314537411E-01  0.88920718024E+00  0.88000000000E+00 0. -1.
        -11    1    4    4    0    0 -0.47753084407E-01  0.18732798131E-01 -0.17786753202E-01  0.54294608449E-01  0.51100000000E-03 0. -1.
         11    1    4    4    0    0 -0.49917906823E-01  0.48160194542E-01 -0.22852224776E-01  0.73032096082E-01  0.51100000000E-03 0.  1.
</event>
<event>
 8    1  0.1106905E+005  0.1043930E+01  0.7957747E-01            NaN
         13   -1    0    0    0    0  0.00000000000E+00  0.00000000000E+00  0.74505805969E-08  0.10566000000E+00  0.10566000000E+00 0. -1.
     999900   -1    0    0    0    0 -0.00000000000E+00 -0.00000000000E+00 -0.74505805969E-08  0.93827000000E+00  0.93827000000E+00 0. -1.
     999902    2    1    2    0    0 -0.99462010807E-02 -0.15868609184E-01 -0.19288512201E-01  0.10170453133E+01  0.10166899149E+01 0.  0.
     999903    2    3    3    0    0  0.10054495762E+00 -0.72583416859E-01 -0.19178542598E-01  0.12832439109E+00  0.26864324798E-01 0.  0.
         14    1    1    2    0    0  0.99462010807E-02  0.15868609184E-01  0.19288512201E-01  0.26884686651E-01  0.00000000000E+00 0. -1.
     999901    1    3    3    0    0 -0.11049115871E+00  0.56714807674E-01 -0.10996960303E-03  0.88872092226E+00  0.88000000000E+00 0. -1.
        -11    1    4    4    0    0  0.29349249927E-01 -0.14521457459E-01  0.54732796522E-02  0.33203450260E-01  0.51100000000E-03 0.  1.
         11    1    4    4    0    0  0.71195707697E-01 -0.58061959400E-01 -0.24651822250E-01  0.95120940834E-01  0.51100000000E-03 0. -1.
</event>
<event>
 8    1  0.1106905E+005  0.1043930E+01  0.7957747E-01            NaN
         13   -1    0    0    0    0  0.00000000000E+00  0.00000000000E+00  0.74505805969E-08  0.10566000000E+00  0.10566000000E+00 0.  1.
     999900   -1    0    0    0    0 -0.00000000000E+00 -0.00000000000E+00 -0.74505805969E-08  0.93827000000E+00  0.93827000000E+00 0.  1.
     999902    2    1    2    0    0  0.64108119412E-02 -0.13583535773E-01 -0.18436434073E-01  0.10201494816E+01  0.10198722723E+01 0.  0.
     999903    2    3    3    0    0  0.31461808220E-01  0.82454497548E-01 -0.94833359766E-01  0.13128090498E+00  0.21277225968E-01 0.  0.
         14    1    1    2    0    0 -0.64108119412E-02  0.13583535773E-01  0.18436434073E-01  0.23780518396E-01  0.00000000000E+00 0.  1.
     999901    1    3    3    0    0 -0.25050996279E-01 -0.96038033321E-01  0.76396925693E-01  0.88886857663E+00  0.88000000000E+00 0. -1.
        -11    1    4    4    0    0  0.46821480624E-02  0.37854311053E-01 -0.32705466758E-01  0.50247189500E-01  0.51100000000E-03 0. -1.
         11    1    4    4    0    0  0.26779660158E-01  0.44600186495E-01 -0.62127893008E-01  0.81033715478E-01  0.51100000000E-03 0.  1.
</event>
<event>
 8    1  0.1106905E+005  0.1043930E+01  0.7957747E-01            NaN
         13   -1    0    0    0    0  0.00000000000E+00  0.00000000000E+00  0.74505805969E-08  0.10566000000E+00  0.10566000000E+00 0. -1.
     999900   -1    0    0    0    0 -0.00000000000E+00 -0.00000000000E+00 -0.74505805969E-08  0.93827000000E+00  0.93827000000E+00 0. -1.
     999902    2    1    2    0    0 -0.96969754795E-03 -0.11255082389E-01  0.21159934436E-01  0.10199433367E+01  0.10196612428E+01 0.  0.
     999903    2    3    3    0    0  0.95124167007E-01  0.78280559045E-01 -0.31278194965E-01  0.12865190323E+00  0.19913152707E-01 0.  0.
         14    1    1    2    0    0  0.96969754795E-03  0.11255082389E-01 -0.21159934436E-01  0.23986663341E-01  0.00000000000E+00 0.  1.
     999901    1    3    3    0    0 -0.96093864555E-01 -0.89535641433E-01  0.52438129401E-01  0.89129143343E+00  0.88000000000E+00 0. -1.
        -11    1    4    4    0    0  0.59254529787E-01  0.36314078381E-01 -0.19768076798E-01  0.72255446648E-01  0.51100000000E-03 0.  1.
         11    1    4    4    0    0  0.35869637220E-01  0.41966480664E-01 -0.11510118167E-01  0.56396456580E-01  0.51100000000E-03 0. -1.
</event>
<event>
 8    1  0.1106905E+005  0.1043930E+01  0.7957747E-01            NaN
         13   -1    0    0    0    0  0.00000000000E+00  0.00000000000E+00  0.74505805969E-08  0.10566000000E+00  0.10566000000E+00 0. -1.
     999900   -1    0    0    0    0 -0.00000000000E+00 -0.00000000000E+00 -0.74505805969E-08  0.93827000000E+00  0.93827000000E+00 0.  1.
     999902    2    1    2    0    0 -0.22222385974E-01 -0.59745726498E-03  0.74372633189E-02  0.10204884924E+01  0.10202192210E+01 0.  0.
     999903    2    3    3    0    0  0.58543994598E-01 -0.11280480942E+00 -0.12533450803E-01  0.12947080034E+00  0.21290289335E-01 0.  0.
         14    1    1    2    0    0  0.22222385974E-01  0.59745726498E-03 -0.74372633189E-02  0.23441507614E-01  0.00000000000E+00 0. -1.
     999901    1    3    3    0    0 -0.80766380572E-01  0.11220735216E+00  0.19970714122E-01  0.89101769204E+00  0.88000000000E+00 0. -1.
        -11    1    4    4    0    0  0.21685669184E-01 -0.64209866839E-01 -0.41295443775E-02  0.67900585456E-01  0.51100000000E-03 0.  1.
         11    1    4    4    0    0  0.36858325414E-01 -0.48594942584E-01 -0.84039064252E-02  0.61570214888E-01  0.51100000000E-03 0. -1.
</event>
<event>
 8    1  0.1106905E+005  0.1043930E+01  0.7957747E-01            NaN
         13   -1    0    0    0    0  0.00000000000E+00  0.00000000000E+00  0.74505805969E-08  0.10566000000E+00  0.10566000000E+00 0. -1.
     999900   -1    0    0    0    0 -0.00000000000E+00 -0.00000000000E+00 -0.74505805969E-08  0.93827000000E+00  0.93827000000E+00 0.  1.
     999902    2    1    2    0    0 -0.21010959581E-01 -0.92972914541E-03  0.10848428013E-01  0.10202654018E+01  0.10199909200E+01 0.  0.
     999903    2    3    3    0    0  0.10719829148E+00  0.54492950884E-01  0.40962554289E-01  0.12874078287E+00  0.20863914465E-01 0.  0.
         14    1    1    2    0    0  0.21010959581E-01  0.92972914541E-03 -0.10848428013E-01  0.23664598225E-01  0.00000000000E+00 0.  1.
     999901    1    3    3    0    0 -0.12820925106E+00 -0.55422680029E-01 -0.30114126276E-01  0.89152461891E+00  0.88000000000E+00 0.  1.
        -11    1    4    4    0    0  0.30375356081E-01  0.22781070091E-01  0.20473862167E-01  0.43140231392E-01  0.51100000000E-03 0. -1.
         11    1    4    4    0    0  0.76822935399E-01  0.31711880793E-01  0.20488692122E-01  0.85600551473E-01  0.51100000000E-03 0.  1.
</event>
<event>
 8    1  0.1106905E+005  0.1043930E+01  0.7957747E-01            NaN
         13   -1    0    0    0    0  0.00000000000E+00  0.00000000000E+00  0.74505805969E-08  0.10566000000E+00  0.10566000000E+00 0. -1.
     999900   -1    0    0    0    0 -0.00000000000E+00 -0.00000000000E+00 -0.74505805969E-08  0.93827000000E+00  0.93827000000E+00 0. -1.
     999902    2    1    2    0    0  0.14716810792E-01  0.87125103768E-02  0.15395041073E-01  0.10209191407E+01  0.10206597828E+01 0.  0.
     999903    2    3    3    0    0  0.39308850761E-01 -0.11049287252E+00  0.56102440378E-01  0.13160941730E+00  0.20486441357E-01 0.  0.
         14    1    1    2    0    0 -0.14716810792E-01 -0.87125103768E-02 -0.15395041073E-01  0.23010859319E-01  0.00000000000E+00 0.  1.
     999901    1    3    3    0    0 -0.24592039970E-01  0.11920538290E+00 -0.40707399304E-01  0.88930972338E+00  0.88000000000E+00 0. -1.
        -11    1    4    4    0    0  0.90076828294E-03 -0.16535666419E-01  0.23015683442E-02  0.16727163097E-01  0.51100000000E-03 0. -1.
         11    1    4    4    0    0  0.38408082478E-01 -0.93957206102E-01  0.53800872034E-01  0.11488225420E+00  0.51100000000E-03 0.  1.
</event>
<event>
 8    1  0.1106905E+005  0.1043930E+01  0.7957747E-01            NaN
         13   -1    0    0    0    0  0.00000000000E+00  0.00000000000E+00  0.74505805969E-08  0.10566000000E+00  0.10566000000E+00 0.  1.
     999900   -1    0    0    0    0 -0.00000000000E+00 -0.00000000000E+00 -0.74505805969E-08  0.93827000000E+00  0.93827000000E+00 0.  1.
     999902    2    1    2    0    0 -0.35184836590E-02 -0.23054057843E-01 -0.17833014660E-02  0.10205409112E+01  0.10202728566E+01 0.  0.
     999903    2    3    3    0    0 -0.65198813306E-01 -0.90942450912E-01 -0.69226150050E-01  0.13320679443E+00  0.20745495826E-01 0.  0.
         14    1    1    2    0    0  0.35184836590E-02  0.23054057843E-01  0.17833014660E-02  0.23389088789E-01  0.00000000000E+00 0. -1.
     999901    1    3    3    0    0  0.61680329647E-01  0.67888393069E-01  0.67442848584E-01  0.88733411678E+00  0.88000000000E+00 0.  1.
        -11    1    4    4    0    0 -0.14811099392E-01 -0.12090930601E-01 -0.19181964478E-01  0.27088155165E-01  0.51100000000E-03 0.  1.
         11    1    4    4    0    0 -0.50387713914E-01 -0.78851520311E-01 -0.50044185571E-01  0.10611863926E+00  0.51100000000E-03 0. -1.
</event>
<event>
 8    1  0.1106905E+005  0.1043930E+01  0.7957747E-01            NaN
         13   -1    0    0    0    0  0.00000000000E+00  0.00000000000E+00  0.74505805969E-08  0.10566000000E+00  0.10566000000E+00 0. -1.
     999900   -1    0    0    0    0 -0.00000000000E+00 -0.00000000000E+00 -0.74505805969E-08  0.93827000000E+00  0.93827000000E+00 0.  1.
     999902    2    1    2    0    0 -0.18115599274E-01 -0.33120867424E-02  0.15508279184E-01  0.10198540456E+01  0.10195698224E+01 0.  0.
     999903    2    3    3    0    0 -0.28315403774E-01 -0.86518926746E-01  0.94097941434E-01  0.13238362401E+00  0.19588633124E-01 0.  0.
         14    1    1    2    0    0  0.18115599274E-01  0.33120867424E-02 -0.15508279184E-01  0.24075954372E-01  0.00000000000E+00 0.  1.
     999901    1    3    3    0    0  0.10199804500E-01  0.83206840004E-01 -0.78589662250E-01  0.88747042162E+00  0.88000000000E+00 0.  1.
        -11    1    4    4    0    0 -0.52312849398E-02 -0.18254299660E-01  0.94555741246E-02  0.21219208308E-01  0.51100000000E-03 0.  1.
         11    1    4    4    0    0 -0.23084118834E-01 -0.68264627086E-01  0.84642367309E-01  0.11116441570E+00  0.51100000000E-03 0. -1.
</event>
<event>
 8    1  0.1106905E+005  0.1043930E+01  0.7957747E-01            NaN
         13   -1    0    0    0    0  0.00000000000E+00  0.00000000000E+00  0.74505805969E-08  0.10566000000E+00  0.10566000000E+00 0.  1.
     999900   -1    0    0    0    0 -0.00000000000E+00 -0.00000000000E+00 -0.74505805969E-08  0.93827000000E+00  0.93827000000E+00 0. -1.
     999902    2    1    2    0    0  0.15319675218E-02  0.27266555160E-01 -0.62327160147E-02  0.10159182399E+01  0.10155319845E+01 0.  0.
     999903    2    3    3    0    0 -0.49298547564E-01 -0.77895612625E-01 -0.82063974195E-01  0.12496751034E+00  0.19603813942E-01 0.  0.
         14    1    1    2    0    0 -0.15319675218E-02 -0.27266555160E-01  0.62327160147E-02  0.28011760097E-01  0.00000000000E+00 0.  1.
     999901    1    3    3    0    0  0.50830515086E-01  0.10516216779E+00  0.75831258180E-01  0.89095072957E+00  0.88000000000E+00 0.  1.
        -11    1    4    4    0    0 -0.24218340858E-01 -0.25521972652E-01 -0.22421576033E-01  0.41723941745E-01  0.51100000000E-03 0.  1.
         11    1    4    4    0    0 -0.25080206707E-01 -0.52373639974E-01 -0.59642398161E-01  0.83243568592E-01  0.51100000000E-03 0. -1.
</event>
<event>
 8    1  0.1106905E+005  0.1043930E+01  0.7957747E-01            NaN
         13   -1    0    0    0    0  0.00000000000E+00  0.00000000000E+00  0.74505805969E-08  0.10566000000E+00  0.10566000000E+00 0. -1.
     999900   -1    0    0    0    0 -0.00000000000E+00 -0.00000000000E+00 -0.74505805969E-08  0.93827000000E+00  0.93827000000E+00 0.  1.
     999902    2    1    2    0    0  0.21973147714E-01  0.41687201038E-02 -0.69056831995E-02  0.10205230372E+01  0.10202545680E+01 0.  0.
     999903    2    3    3    0    0  0.11640218941E+00 -0.61661873447E-01  0.25057433223E-02  0.13297637029E+00  0.18021652814E-01 0.  0.
         14    1    1    2    0    0 -0.21973147714E-01 -0.41687201038E-02  0.69056831995E-02  0.23406962815E-01  0.00000000000E+00 0. -1.
     999901    1    3    3    0    0 -0.94429041696E-01  0.65830593551E-01 -0.94114265218E-02  0.88754666689E+00  0.88000000000E+00 0.  1.
        -11    1    4    4    0    0  0.17375442057E-01 -0.11978607195E-01  0.65702014057E-02  0.22109312167E-01  0.51100000000E-03 0. -1.
         11    1    4    4    0    0  0.99026747353E-01 -0.49683266253E-01 -0.40644580835E-02  0.11086705813E+00  0.51100000000E-03 0.  1.
</event>
<event>
 8    1  0.1106905E+005  0.1043930E+01  0.7957747E-01            NaN
         13   -1    0    0    0    0  0.00000000000E+00  0.00000000000E+00  0.74505805969E-08  0.10566000000E+00  0.10566000000E+00 0. -1.
     999900   -1    0    0    0    0 -0.00000000000E+00 -0.00000000000E+00 -0.74505805969E-08  0.93827000000E+00  0.93827000000E+00 0. -1.
     999902    2    1    2    0    0 -0.12199457996E-01  0.13129322185E-01 -0.16036531982E-01  0.10198805461E+01  0.10195969557E+01 0.  0.
     999903    2    3    3    0    0 -0.27991446349E-01 -0.73048092292E-01  0.99307213621E-01  0.12803968957E+00  0.20314885498E-01 0.  0.
         14    1    1    2    0    0  0.12199457996E-01 -0.13129322185E-01  0.16036531982E-01  0.24049453932E-01  0.00000000000E+00 0. -1.
     999901    1    3    3    0    0  0.15791988353E-01  0.86177414477E-01 -0.11534374560E+00  0.89184085649E+00  0.88000000000E+00 0. -1.
        -11    1    4    4    0    0 -0.17396123680E-01 -0.44013159523E-01  0.75133022368E-01  0.88797609774E-01  0.51100000000E-03 0.  1.
         11    1    4    4    0    0 -0.10595322669E-01 -0.29034932768E-01  0.24174191253E-01  0.39242079800E-01  0.51100000000E-03 0. -1.
</event>
<event>
 8    1  0.1106905E+005  0.1043930E+01  0.7957747E-01            NaN
         13   -1    0    0    0    0  0.00000000000E+00  0.00000000000E+00  0.74505805969E-08  0.10566000000E+00  0.10566000000E+00 0.  1.
     999900   -1    0    0    0    0 -0.00000000000E+00 -0.00000000000E+00 -0.74505805969E-08  0.93827000000E+00  0.93827000000E+00 0. -1.
     999902    2    1    2    0    0 -0.91617193940E-03 -0.18379202501E-01  0.14694350514E-01  0.10203809365E+01  0.10201091594E+01 0.  0.
     999903    2    3    3    0    0  0.51147426072E-01  0.24744322667E-01  0.11735544220E+00  0.13183743366E+00  0.19505599207E-01 0.  0.
         14    1    1    2    0    0  0.91617193940E-03  0.18379202501E-01 -0.14694350514E-01  0.23549063519E-01  0.00000000000E+00 0. -1.
     999901    1    3    3    0    0 -0.52063598012E-01 -0.43123525168E-01 -0.10266109169E+00  0.88854350282E+00  0.88000000000E+00 0. -1.
        -11    1    4    4    0    0  0.12515261562E-01  0.73400744188E-03  0.41828768063E-01  0.43670098438E-01  0.51100000000E-03 0.  1.
         11    1    4    4    0    0  0.38632164510E-01  0.24010315225E-01  0.75526674142E-01  0.88167335221E-01  0.51100000000E-03 0. -1.
</event>
<event>
 8    1  0.1106905E+005  0.1043930E+01  0.7957747E-01            NaN
         13   -1    0    0    0    0  0.00000000000E+00  0.00000000000E+00  0.74505805969E-08  0.10566000000E+00  0.10566000000E+00 0. -1.
     999900   -1    0    0    0    0 -0.00000000000E+00 -0.00000000000E+00 -0.74505805969E-08  0.93827000000E+00  0.93827000000E+00 0.  1.
     999902    2    1    2    0    0 -0.10564087315E-01 -0.20289716122E-01  0.71645765305E-02  0.10199591077E+01  0.10196773890E+01 0.  0.
     999903    2    3    3    0    0  0.98695506573E-01 -0.61243892595E-01  0.55328019332E-01  0.13095144707E+00  0.24402343502E-01 0.  0.
         14    1    1    2    0    0  0.10564087315E-01  0.20289716122E-01 -0.71645765305E-02  0.23970892306E-01  0.00000000000E+00 0. -1.
     999901    1    3    3    0    0 -0.10925959389E+00  0.40954176473E-01 -0.48163442801E-01  0.88900766062E+00  0.88000000000E+00 0.  1.
        -11    1    4    4    0    0  0.91314987611E-01 -0.49256109220E-01  0.43294255723E-01  0.11242439663E+00  0.51100000000E-03 0.  1.
         11    1    4    4    0    0  0.73805189616E-02 -0.11987783376E-01  0.12033763608E-01  0.18527050439E-01  0.51100000000E-03 0. -1.
</event>
<event>
 8    1  0.1106905E+005  0.1043930E+01  0.7957747E-01            NaN
         13   -1    0    0    0    0  0.00000000000E+00  0.00000000000E+00  0.74505805969E-08  0.10566000000E+00  0.10566000000E+00 0. -1.
     999900   -1    0    0    0    0 -0.00000000000E+00 -0.00000000000E+00 -0.74505805969E-08  0.93827000000E+00  0.93827000000E+00 0.  1.
     999902    2    1    2    0    0 -0.12924229090E-01 -0.15455181706E-01  0.12891104043E-01  0.10200118290E+01  0.10197313629E+01 0.  0.
     999903    2    3    3    0    0 -0.59965177498E-01 -0.11507338554E+00  0.22005432173E-01  0.13309598841E+00  0.19814048433E-01 0.  0.
         14    1    1    2    0    0  0.12924229090E-01  0.15455181706E-01 -0.12891104043E-01  0.23918170970E-01  0.00000000000E+00 0.  1.
     999901    1    3    3    0    0  0.47040948408E-01  0.99618203829E-01 -0.91143281306E-02  0.88691584062E+00  0.88000000000E+00 0. -1.
        -11    1    4    4    0    0 -0.37071613986E-01 -0.52679432679E-01  0.15909703230E-01  0.66353650757E-01  0.51100000000E-03 0.  1.
         11    1    4    4    0    0 -0.22893563512E-01 -0.62393952856E-01  0.60957289432E-02  0.66742337655E-01  0.51100000000E-03 0. -1.
</event>
<event>
 8    1  0.1106905E+005  0.1043930E+01  0.7957747E-01            NaN
         13   -1    0    0    0    0  0.00000000000E+00  0.00000000000E+00  0.74505805969E-08  0.10566000000E+00  0.10566000000E+00 0. -1.
     999900   -1    0    0    0    0 -0.00000000000E+00 -0.00000000000E+00 -0.74505805969E-08  0.93827000000E+00  0.93827000000E+00 0.  1.
     999902    2    1    2    0    0 -0.33860058903E-02 -0.21032381774E-01 -0.68942327455E-02  0.10215390071E+01  0.10212935848E+01 0.  0.
     999903    2    3    3    0    0 -0.48465586877E-01 -0.24090589090E-02 -0.12179886543E+00  0.13272965103E+00  0.20675588690E-01 0.  0.
         14    1    1    2    0    0  0.33860058903E-02  0.21032381774E-01  0.68942327455E-02  0.22390992924E-01  0.00000000000E+00 0.  1.
     999901    1    3    3    0    0  0.45079580986E-01 -0.18623322865E-01  0.11490463268E+00  0.88880935604E+00  0.88000000000E+00 0. -1.
        -11    1    4    4    0    0 -0.56789802427E-02  0.37319826207E-02 -0.36187767544E-01  0.36823825870E-01  0.51100000000E-03 0. -1.
         11    1    4    4    0    0 -0.42786606634E-01 -0.61410415297E-02 -0.85611097884E-01  0.95905825164E-01  0.51100000000E-03 0.  1.
</event>
<event>
 8    1  0.1106905E+005  0.1043930E+01  0.7957747E-01            NaN
         13   -1    0    0    0    0  0.00000000000E+00  0.00000000000E+00  0.74505805969E-08  0.10566000000E+00  0.10566000000E+00 0.  1.
     999900   -1    0    0    0    0 -0.00000000000E+00 -0.00000000000E+00 -0.74505805969E-08  0.93827000000E+00  0.93827000000E+00 0. -1.
     999902    2    1    2    0    0 -0.14345139632E-01  0.20298845657E-03  0.20287745484E-01  0.10190821258E+01  0.10187791528E+01 0.  0.
     999903    2    3    3    0    0  0.10266943531E+00  0.73257087645E-01  0.14062390328E-01  0.12831388029E+00  0.18949596770E-01 0.  0.
         14    1    1    2    0    0  0.14345139632E-01 -0.20298845657E-03 -0.20287745484E-01  0.24847874199E-01  0.00000000000E+00 0. -1.
     999901    1    3    3    0    0 -0.11701457494E+00 -0.73054099189E-01  0.62253551558E-02  0.89076824551E+00  0.88000000000E+00 0.  1.
        -11    1    4    4    0    0  0.13635064545E-01  0.10019527782E-01 -0.45550221310E-02  0.17530409856E-01  0.51100000000E-03 0.  1.
         11    1    4    4    0    0  0.89034370763E-01  0.63237559863E-01  0.18617412459E-01  0.11078347044E+00  0.51100000000E-03 0. -1.
</event>
<event>
 8    1  0.1106905E+005  0.1043930E+01  0.7957747E-01            NaN
         13   -1    0    0    0    0  0.00000000000E+00  0.00000000000E+00  0.74505805969E-08  0.10566000000E+00  0.10566000000E+00 0.  1.
     999900   -1    0    0    0    0 -0.00000000000E+00 -0.00000000000E+00 -0.74505805969E-08  0.93827000000E+00  0.93827000000E+00 0. -1.
     999902    2    1    2    0    0 -0.13476876811E-01 -0.53244313673E-02 -0.15334916005E-01  0.10228317672E+01  0.10226141445E+01 0.  0.
     999903    2    3    3    0    0  0.11042061275E-01 -0.13136233475E+00  0.20261670278E-02  0.13334419640E+00  0.19964449766E-01 0.  0.
         14    1    1    2    0    0  0.13476876811E-01  0.53244313673E-02  0.15334916005E-01  0.21098232790E-01  0.00000000000E+00 0.  1.
     999901    1    3    3    0    0 -0.24518938087E-01  0.12603790338E+00 -0.17361083033E-01  0.88948757081E+00  0.88000000000E+00 0. -1.
        -11    1    4    4    0    0 -0.54512610576E-02 -0.39225542610E-01 -0.19848925234E-02  0.39655521173E-01  0.51100000000E-03 0. -1.
         11    1    4    4    0    0  0.16493322333E-01 -0.92136792137E-01  0.40110595512E-02  0.93688675231E-01  0.51100000000E-03 0.  1.
</event>
<event>
 8    1  0.1106905E+005  0.1043930E+01  0.7957747E-01            NaN
         13   -1    0    0    0    0  0.00000000000E+00  0.00000000000E+00  0.74505805969E-08  0.10566000000E+00  0.10566000000E+00 0.  1.
     999900   -1    0    0    0    0 -0.00000000000E+00 -0.00000000000E+00 -0.74505805969E-08  0.93827000000E+00  0.93827000000E+00 0.  1.
     999902    2    1    2    0    0  0.16841382017E-01 -0.13251292970E-01  0.95272264432E-02  0.10204779861E+01  0.10202084704E+01 0.  0.
     999903    2    3    3    0    0  0.19302545712E-01 -0.42645803820E-01  0.12251393273E+00  0.13276401728E+00  0.20624444640E-01 0.  0.
         14    1    1    2    0    0 -0.16841382017E-01  0.13251292970E-01 -0.95272264432E-02  0.23452013929E-01  0.00000000000E+00 0. -1.
     999901    1    3    3    0    0 -0.24611636947E-02  0.29394510850E-01 -0.11298670628E+00  0.88771396879E+00  0.88000000000E+00 0.  1.
        -11    1    4    4    0    0  0.13573631140E-01 -0.20260695633E-01  0.38069282766E-01  0.45213611459E-01  0.51100000000E-03 0. -1.
         11    1    4    4    0    0  0.57289145713E-02 -0.22385108187E-01  0.84444649962E-01  0.87550405819E-01  0.51100000000E-03 0.  1.
</event>
<event>
 8    1  0.1106905E+005  0.1043930E+01  0.7957747E-01            NaN
         13   -1    0    0    0    0  0.00000000000E+00  0.00000000000E+00  0.74505805969E-08  0.10566000000E+00  0.10566000000E+00 0. -1.
     999900   -1    0    0    0    0 -0.00000000000E+00 -0.00000000000E+00 -0.74505805969E-08  0.93827000000E+00  0.93827000000E+00 0. -1.
     999902    2    1    2    0    0  0.23057540664E-01 -0.31851919994E-02  0.37535613988E-02  0.10203527895E+01  0.10200803548E+01 0.  0.
     999903    2    3    3    0    0  0.70759555631E-01  0.86645774591E-01 -0.66630441311E-01  0.13170269383E+00  0.19788352228E-01 0.  0.
         14    1    1    2    0    0 -0.23057540664E-01  0.31851919994E-02 -0.37535613988E-02  0.23577210452E-01  0.00000000000E+00 0.  1.
     999901    1    3    3    0    0 -0.47702014967E-01 -0.89830966590E-01  0.70384002710E-01  0.88865009572E+00  0.88000000000E+00 0.  1.
        -11    1    4    4    0    0  0.16834202656E-01  0.91089086247E-02 -0.11903488593E-01  0.22545881156E-01  0.51100000000E-03 0.  1.
         11    1    4    4    0    0  0.53925352975E-01  0.77536865966E-01 -0.54726952718E-01  0.10915681267E+00  0.51100000000E-03 0. -1.
</event>
<event>
 8    1  0.1106905E+005  0.1043930E+01  0.7957747E-01            NaN
         13   -1    0    0    0    0  0.00000000000E+00  0.00000000000E+00  0.74505805969E-08  0.10566000000E+00  0.10566000000E+00 0. -1.
     999900   -1    0    0    0    0 -0.00000000000E+00 -0.00000000000E+00 -0.74505805969E-08  0.93827000000E+00  0.93827000000E+00 0. -1.
     999902    2    1    2    0    0 -0.27221699563E-02  0.18852048440E-01 -0.11252595140E-01  0.10218069162E+01  0.10215673953E+01 0.  0.
     999903    2    3    3    0    0 -0.96462415672E-01  0.70278331301E-01  0.53962791438E-01  0.13293969164E+00  0.22736254458E-01 0.  0.
         14    1    1    2    0    0  0.27221699563E-02 -0.18852048440E-01  0.11252595140E-01  0.22123083805E-01  0.00000000000E+00 0. -1.
     999901    1    3    3    0    0  0.93740245716E-01 -0.51426282861E-01 -0.65215386578E-01  0.88886722455E+00  0.88000000000E+00 0. -1.
        -11    1    4    4    0    0 -0.28317607903E-01  0.29167628982E-01  0.94084742007E-02  0.41730300808E-01  0.51100000000E-03 0. -1.
         11    1    4    4    0    0 -0.68144807769E-01  0.41110702319E-01  0.44554317238E-01  0.91209390835E-01  0.51100000000E-03 0.  1.
</event>
<event>
 8    1  0.1106905E+005  0.1043930E+01  0.7957747E-01            NaN
         13   -1    0    0    0    0  0.00000000000E+00  0.00000000000E+00  0.74505805969E-08  0.10566000000E+00  0.10566000000E+00 0. -1.
     999900   -1    0    0    0    0 -0.00000000000E+00 -0.00000000000E+00 -0.74505805969E-08  0.93827000000E+00  0.93827000000E+00 0. -1.
     999902    2    1    2    0    0 -0.38139064821E-02 -0.13107935026E-01  0.59572324804E-02  0.10290352874E+01  0.10289274855E+01 0.  0.
     999903    2    3    3    0    0 -0.40117734871E-01  0.29018916876E-01  0.12770009069E+00  0.13891509155E+00  0.23206880676E-01 0.  0.
         14    1    1    2    0    0  0.38139064821E-02  0.13107935026E-01 -0.59572324804E-02  0.14894712556E-01  0.00000000000E+00 0.  1.
     999901    1    3    3    0    0  0.36303828389E-01 -0.42126851902E-01 -0.12174285821E+00  0.89012019589E+00  0.88000000000E+00 0. -1.
        -11    1    4    4    0    0 -0.17967785936E-01  0.30534867410E-02  0.65204736738E-01  0.67705863312E-01  0.51100000000E-03 0.  1.
         11    1    4    4    0    0 -0.22149948935E-01  0.25965430135E-01  0.62495353954E-01  0.71209228241E-01  0.51100000000E-03 0. -1.
</event>
<event>
 8    1  0.1106905E+005  0.1043930E+01  0.7957747E-01            NaN
         13   -1    0    0    0    0  0.00000000000E+00  0.00000000000E+00  0.74505805969E-08  0.10566000000E+00  0.10566000000E+00 0. -1.
     999900   -1    0    0    0    0 -0.00000000000E+00 -0.00000000000E+00 -0.74505805969E-08  0.93827000000E+00  0.93827000000E+00 0. -1.
     999902    2    1    2    0    0  0.21526197469E-01  0.76810187484E-02 -0.53207835259E-02  0.10204633010E+01  0.10201934437E+01 0.  0.
     999903    2    3    3    0    0 -0.10008784510E+00 -0.44326148364E-01  0.63413121267E-01  0.12792810813E+00  0.19026106652E-01 0.  0.
         14    1    1    2    0    0 -0.21526197469E-01 -0.76810187484E-02  0.53207835259E-02  0.23466699039E-01  0.00000000000E+00 0. -1.
     999901    1    3    3    0    0  0.12161404257E+00  0.52007167112E-01 -0.68733904793E-01  0.89253519283E+00  0.88000000000E+00 0. -1.
        -11    1    4    4    0    0 -0.20914346965E-01 -0.17912167911E-02  0.88571673229E-02  0.22788788922E-01  0.51100000000E-03 0. -1.
         11    1    4    4    0    0 -0.79173498135E-01 -0.42534931573E-01  0.54555953944E-01  0.10513931920E+00  0.51100000000E-03 0.  1.
</event>
<event>
 8    1  0.1106905E+005  0.1043930E+01  0.7957747E-01            NaN
         13   -1    0    0    0    0  0.00000000000E+00  0.00000000000E+00  0.74505805969E-08  0.10566000000E+00  0.10566000000E+00 0. -1.
     999900   -1    0    0    0    0 -0.00000000000E+00 -0.00000000000E+00 -0.74505805969E-08  0.93827000000E+00  0.93827000000E+00 0.  1.
     999902    2    1    2    0    0  0.20034281347E-01 -0.93454755891E-02  0.81636032477E-02  0.10203640338E+01  0.10200918619E+01 0.  0.
     999903    2    3    3    0    0 -0.78348797885E-01  0.84296103083E-01  0.53856299848E-01  0.12877231222E+00  0.20915071996E-01 0.  0.
         14    1    1    2    0    0 -0.20034281347E-01  0.93454755891E-02 -0.81636032477E-02  0.23565966160E-01  0.00000000000E+00 0. -1.
     999901    1    3    3    0    0  0.98383079232E-01 -0.93641578672E-01 -0.45692696600E-01  0.89159172162E+00  0.88000000000E+00 0.  1.
        -11    1    4    4    0    0 -0.66498403026E-01  0.61621527461E-01  0.47736221311E-01  0.10246100818E+00  0.51100000000E-03 0. -1.
         11    1    4    4    0    0 -0.11850394858E-01  0.22674575622E-01  0.61200785368E-02  0.26311304039E-01  0.51100000000E-03 0.  1.
</event>
<event>
 8    1  0.1106905E+005  0.1043930E+01  0.7957747E-01            NaN
         13   -1    0    0    0    0  0.00000000000E+00  0.00000000000E+00  0.74505805969E-08  0.10566000000E+00  0.10566000000E+00 0. -1.
     999900   -1    0    0    0    0 -0.00000000000E+00 -0.00000000000E+00 -0.74505805969E-08  0.93827000000E+00  0.93827000000E+00 0. -1.
     999902    2    1    2    0    0 -0.15093785220E-01 -0.88386263299E-02  0.12875677794E-01  0.10222107287E+01  0.10219799641E+01 0.  0.
     999903    2    3    3    0    0 -0.23206661318E-01 -0.11851533744E+00  0.55390759823E-01  0.13434681349E+00  0.19912199344E-01 0.  0.
         14    1    1    2    0    0  0.15093785220E-01  0.88386263299E-02 -0.12875677794E-01  0.21719271312E-01  0.00000000000E+00 0.  1.
     999901    1    3    3    0    0  0.81128760981E-02  0.10967671111E+00 -0.42515082029E-01  0.88786391520E+00  0.88000000000E+00 0. -1.
        -11    1    4    4    0    0 -0.17384805737E-03 -0.50524948368E-01  0.20479596795E-01  0.54520414861E-01  0.51100000000E-03 0.  1.
         11    1    4    4    0    0 -0.23032813261E-01 -0.67990389069E-01  0.34911163028E-01  0.79826398625E-01  0.51100000000E-03 0. -1.
</event>
<event>
 8    1  0.1106905E+005  0.1043930E+01  0.7957747E-01            NaN
         13   -1    0    0    0    0  0.00000000000E+00  0.00000000000E+00  0.74505805969E-08  0.10566000000E+00  0.10566000000E+00 0.  1.
     999900   -1    0    0    0    0 -0.00000000000E+00 -0.00000000000E+00 -0.74505805969E-08  0.93827000000E+00  0.93827000000E+00 0. -1.
     999902    2    1    2    0    0  0.61305887286E-02 -0.12258129476E-01  0.18174557717E-01  0.10211668630E+01  0.10209131215E+01 0.  0.
     999903    2    3    3    0    0 -0.11754237945E-01  0.85197600894E-01 -0.92687035473E-01  0.12869401793E+00  0.23968112098E-01 0.  0.
         14    1    1    2    0    0 -0.61305887286E-02  0.12258129476E-01 -0.18174557717E-01  0.22763136968E-01  0.00000000000E+00 0. -1.
     999901    1    3    3    0    0  0.17884826673E-01 -0.97455730370E-01  0.11086159319E+00  0.89247284511E+00  0.88000000000E+00 0. -1.
        -11    1    4    4    0    0  0.29910839245E-02  0.52555425715E-01 -0.46464131578E-01  0.70215354442E-01  0.51100000000E-03 0.  1.
         11    1    4    4    0    0 -0.14745321869E-01  0.32642175179E-01 -0.46222903895E-01  0.58478663484E-01  0.51100000000E-03 0. -1.
</event>
<event>
 8    1  0.1106905E+005  0.1043930E+01  0.7957747E-01            NaN
         13   -1    0    0    0    0  0.00000000000E+00  0.00000000000E+00  0.74505805969E-08  0.10566000000E+00  0.10566000000E+00 0. -1.
     999900   -1    0    0    0    0 -0.00000000000E+00 -0.00000000000E+00 -0.74505805969E-08  0.93827000000E+00  0.93827000000E+00 0.  1.
     999902    2    1    2    0    0  0.23996430197E-01 -0.18060337127E-02  0.47173846667E-02  0.10194076808E+01  0.10191126903E+01 0.  0.
     999903    2    3    3    0    0 -0.10545822437E+00  0.66444463422E-01 -0.14771140911E-01  0.12710927749E+00  0.20056869472E-01 0.  0.
         14    1    1    2    0    0 -0.23996430197E-01  0.18060337127E-02 -0.47173846667E-02  0.24522319182E-01  0.00000000000E+00 0. -1.
     999901    1    3    3    0    0  0.12945465457E+00 -0.68250497135E-01  0.19488525578E-01  0.89229840333E+00  0.88000000000E+00 0.  1.
        -11    1    4    4    0    0 -0.19442814622E-01  0.11815231816E-01 -0.10654843385E-01  0.25127864052E-01  0.51100000000E-03 0.  1.
         11    1    4    4    0    0 -0.86015409752E-01  0.54629231606E-01 -0.41162975262E-02  0.10198141344E+00  0.51100000000E-03 0. -1.
</event>
<event>
 8    1  0.1106905E+005  0.1043930E+01  0.7957747E-01            NaN
         13   -1    0    0    0    0  0.00000000000E+00  0.00000000000E+00  0.74505805969E-08  0.10566000000E+00  0.10566000000E+00 0.  1.
     999900   -1    0    0    0    0 -0.00000000000E+00 -0.00000000000E+00 -0.74505805969E-08  0.93827000000E+00  0.93827000000E+00 0.  1.
     999902    2    1    2    0    0 -0.23413379303E-03  0.24026358239E-01  0.15401870472E-02  0.10198531878E+01  0.10195689441E+01 0.  0.
     999903    2    3    3    0    0  0.12013099471E+00 -0.42281830008E-01  0.74918230013E-02  0.12916807962E+00  0.20225141370E-01 0.  0.
         14    1    1    2    0    0  0.23413379303E-03 -0.24026358239E-01 -0.15401870472E-02  0.24076812185E-01  0.00000000000E+00 0. -1.
     999901    1    3    3    0    0 -0.12036512850E+00  0.66308188246E-01 -0.59516359541E-02  0.89068510819E+00  0.88000000000E+00 0.  1.
        -11    1    4    4    0    0  0.27919986543E-01 -0.19195336111E-01  0.25324651229E-02  0.33980304260E-01  0.51100000000E-03 0. -1.
         11    1    4    4    0    0  0.92211008163E-01 -0.23086493897E-01  0.49593578784E-02  0.95187775362E-01  0.51100000000E-03 0.  1.
</event>
<event>
 8    1  0.1106905E+005  0.1043930E+01  0.7957747E-01            NaN
         13   -1    0    0    0    0  0.00000000000E+00  0.00000000000E+00  0.74505805969E-08  0.10566000000E+00  0.10566000000E+00 0.  1.
     999900   -1    0    0    0    0 -0.00000000000E+00 -0.00000000000E+00 -0.74505805969E-08  0.93827000000E+00  0.93827000000E+00 0. -1.
     999902    2    1    2    0    0  0.18433975204E-01 -0.39223737742E-02  0.15061199900E-01  0.10198045736E+01  0.10195191671E+01 0.  0.
     999903    2    3    3    0    0 -0.23565635825E-01  0.12063544228E+00  0.36447797878E-01  0.12978434715E+00  0.20181319821E-01 0.  0.
         14    1    1    2    0    0 -0.18433975204E-01  0.39223737742E-02 -0.15061199900E-01  0.24125426427E-01  0.00000000000E+00 0. -1.
     999901    1    3    3    0    0  0.41999611029E-01 -0.12455781605E+00 -0.21386597978E-01  0.89002022642E+00  0.88000000000E+00 0.  1.
        -11    1    4    4    0    0 -0.24243155376E-01  0.88191057589E-01  0.21018129703E-01  0.93847834916E-01  0.51100000000E-03 0.  1.
         11    1    4    4    0    0  0.67751955039E-03  0.32444384690E-01  0.15429668176E-01  0.35936512235E-01  0.51100000000E-03 0. -1.
</event>
<event>
 8    1  0.1106905E+005  0.1043930E+01  0.7957747E-01            NaN
         13   -1    0    0    0    0  0.00000000000E+00  0.00000000000E+00  0.74505805969E-08  0.10566000000E+00  0.10566000000E+00 0.  1.
     999900   -1    0    0    0    0 -0.00000000000E+00 -0.00000000000E+00 -0.74505805969E-08  0.93827000000E+00  0.93827000000E+00 0. -1.
     999902    2    1    2    0    0  0.28060143920E-02  0.20189440305E-01  0.12735807890E-01  0.10198948587E+01  0.10196116097E+01 0.  0.
     999903    2    3    3    0    0  0.10841023081E+00 -0.35125016073E-01 -0.57270555691E-01  0.12910148725E+00  0.20018305692E-01 0.  0.
         14    1    1    2    0    0 -0.28060143920E-02 -0.20189440305E-01 -0.12735807890E-01  0.24035141339E-01  0.00000000000E+00 0. -1.
     999901    1    3    3    0    0 -0.10560421642E+00  0.55314456378E-01  0.70006363581E-01  0.89079337141E+00  0.88000000000E+00 0. -1.
        -11    1    4    4    0    0  0.19596257481E-01 -0.14390200498E-01 -0.91549325497E-02  0.25983939051E-01  0.51100000000E-03 0. -1.
         11    1    4    4    0    0  0.88813973326E-01 -0.20734815575E-01 -0.48115623142E-01  0.10311754820E+00  0.51100000000E-03 0.  1.
</event>
<event>
 8    1  0.1106905E+005  0.1043930E+01  0.7957747E-01            NaN
         13   -1    0    0    0    0  0.00000000000E+00  0.00000000000E+00  0.74505805969E-08  0.10566000000E+00  0.10566000000E+00 0. -1.
     999900   -1    0    0    0    0 -0.00000000000E+00 -0.00000000000E+00 -0.74505805969E-08  0.93827000000E+00  0.93827000000E+00 0. -1.
     999902    2    1    2    0    0 -0.25871885371E-02  0.36777556401E-02  0.23258189163E-01  0.10202411251E+01  0.10199660732E+01 0.  0.
     999903    2    3    3    0    0  0.10019037936E+00  0.32932446451E-01  0.76959213159E-01  0.13215167838E+00  0.20461853799E-01 0.  0.
         14    1    1    2    0    0  0.25871885371E-02 -0.36777556401E-02 -0.23258189163E-01  0.23688874904E-01  0.00000000000E+00 0.  1.
     999901    1    3    3    0    0 -0.10277756790E+00 -0.29254690811E-01 -0.53701023995E-01  0.88808944672E+00  0.88000000000E+00 0.  1.
        -11    1    4    4    0    0  0.38364716822E-01  0.13189970621E-01  0.17700015428E-01  0.44264867434E-01  0.51100000000E-03 0.  1.
         11    1    4    4    0    0  0.61825662543E-01  0.19742475830E-01  0.59259197730E-01  0.87886810941E-01  0.51100000000E-03 0. -1.
</event>
<event>
 8    1  0.1148437E+005  0.1043930E+01  0.7957747E-01            NaN
         13   -1    0    0    0    0  0.00000000000E+00  0.00000000000E+00  0.74505805969E-08  0.10566000000E+00  0.10566000000E+00 0.  1.
     999900   -1    0    0    0    0 -0.00000000000E+00 -0.00000000000E+00 -0.74505805969E-08  0.93827000000E+00  0.93827000000E+00 0. -1.
     999902    2    1    2    0    0 -0.85296737462E-02 -0.17359786204E-01  0.13880736645E-01  0.10201225986E+01  0.10198447548E+01 0.  0.
     999903    2    3    3    0    0  0.74967382226E-03  0.10575735354E+00 -0.68348901229E-01  0.12770697249E+00  0.21267785155E-01 0.  0.
         14    1    1    2    0    0  0.85296737462E-02  0.17359786204E-01 -0.13880736645E-01  0.23807401393E-01  0.00000000000E+00 0. -1.
     999901    1    3    3    0    0 -0.92793475685E-02 -0.12311713974E+00  0.82229637874E-01  0.89241562612E+00  0.88000000000E+00 0.  1.
        -11    1    4    4    0    0 -0.85971344627E-02  0.55117028724E-01 -0.28843492443E-01  0.62801319681E-01  0.51100000000E-03 0.  1.
         11    1    4    4    0    0  0.93468082849E-02  0.50640324815E-01 -0.39505408787E-01  0.64905652811E-01  0.51100000000E-03 0. -1.
</event>
<event>
 8    1  0.1106905E+005  0.1043930E+01  0.7957747E-01            NaN
         13   -1    0    0    0    0  0.00000000000E+00  0.00000000000E+00  0.74505805969E-08  0.10566000000E+00  0.10566000000E+00 0.  1.
     999900   -1    0    0    0    0 -0.00000000000E+00 -0.00000000000E+00 -0.74505805969E-08  0.93827000000E+00  0.93827000000E+00 0. -1.
     999902    2    1    2    0    0  0.11747878827E-01 -0.10135489846E-01  0.17481114160E-01  0.10205562933E+01  0.10202885953E+01 0.  0.
     999903    2    3    3    0    0 -0.98375356966E-02 -0.10863746082E+00  0.73427536388E-01  0.13303245108E+00  0.20178080626E-01 0.  0.
         14    1    1    2    0    0 -0.11747878827E-01  0.10135489846E-01 -0.17481114160E-01  0.23373706673E-01  0.00000000000E+00 0. -1.
     999901    1    3    3    0    0  0.21585414524E-01  0.98501970971E-01 -0.55946422228E-01  0.88752384225E+00  0.88000000000E+00 0. -1.
        -11    1    4    4    0    0 -0.31333670786E-02 -0.94891143504E-01  0.68049220846E-01  0.11681226256E+00  0.51100000000E-03 0. -1.
         11    1    4    4    0    0 -0.67041686181E-02 -0.13746317313E-01  0.53783155421E-02  0.16220188519E-01  0.51100000000E-03 0.  1.
</event>
<event>
 8    1  0.1106905E+005  0.1043930E+01  0.7957747E-01            NaN
         13   -1    0    0    0    0  0.00000000000E+00  0.00000000000E+00  0.74505805969E-08  0.10566000000E+00  0.10566000000E+00 0. -1.
     999900   -1    0    0    0    0 -0.00000000000E+00 -0.00000000000E+00 -0.74505805969E-08  0.93827000000E+00  0.93827000000E+00 0.  1.
     999902    2    1    2    0    0  0.39949684309E-03 -0.20527815503E-01 -0.15125509275E-01  0.10184283954E+01  0.10181090633E+01 0.  0.
     999903    2    3    3    0    0 -0.12207387455E+00  0.11541383579E-01  0.31279956718E-01  0.12815785926E+00  0.20267383026E-01 0.  0.
         14    1    1    2    0    0 -0.39949684309E-03  0.20527815503E-01  0.15125509275E-01  0.25501604614E-01  0.00000000000E+00 0. -1.
     999901    1    3    3    0    0  0.12247337139E+00 -0.32069199082E-01 -0.46405465994E-01  0.89027053613E+00  0.88000000000E+00 0.  1.
        -11    1    4    4    0    0 -0.57765448492E-01  0.14432435575E-01  0.19925603258E-01  0.62788796949E-01  0.51100000000E-03 0. -1.
         11    1    4    4    0    0 -0.64308426055E-01 -0.28910519954E-02  0.11354353461E-01  0.65369062306E-01  0.51100000000E-03 0.  1.
</event>
<event>
 8    1  0.1106905E+005  0.1043930E+01  0.7957747E-01            NaN
         13   -1    0    0    0    0  0.00000000000E+00  0.00000000000E+00  0.74505805969E-08  0.10566000000E+00  0.10566000000E+00 0.  1.
     999900   -1    0    0    0    0 -0.00000000000E+00 -0.00000000000E+00 -0.74505805969E-08  0.93827000000E+00  0.93827000000E+00 0.  1.
     999902    2    1    2    0    0  0.46738718242E-02  0.15209070875E-01  0.17817705143E-01  0.10200421049E+01  0.10197623568E+01 0.  0.
     999903    2    3    3    0    0 -0.10766351795E+00 -0.16524997677E-01 -0.64532435587E-01  0.12852189431E+00  0.22111839093E-01 0.  0.
         14    1    1    2    0    0 -0.46738718242E-02 -0.15209070875E-01 -0.17817705143E-01  0.23887895078E-01  0.00000000000E+00 0. -1.
     999901    1    3    3    0    0  0.11233738978E+00  0.31734068552E-01  0.82350140730E-01  0.89152021061E+00  0.88000000000E+00 0. -1.
        -11    1    4    4    0    0 -0.47357391831E-01 -0.17008609894E-01 -0.35528385269E-01  0.61599859191E-01  0.51100000000E-03 0. -1.
         11    1    4    4    0    0 -0.60306126123E-01  0.48361221684E-03 -0.29004050318E-01  0.66922035120E-01  0.51100000000E-03 0.  1.
</event>
<event>
 8    1  0.1106905E+005  0.1043930E+01  0.7957747E-01            NaN
         13   -1    0    0    0    0  0.00000000000E+00  0.00000000000E+00  0.74505805969E-08  0.10566000000E+00  0.10566000000E+00 0. -1.
     999900   -1    0    0    0    0 -0.00000000000E+00 -0.00000000000E+00 -0.74505805969E-08  0.93827000000E+00  0.93827000000E+00 0. -1.
     999902    2    1    2    0    0 -0.24530875944E-01  0.12672065494E-01  0.76334490192E-02  0.10152836274E+01  0.10148794162E+01 0.  0.
     999903    2    3    3    0    0 -0.87418187921E-01  0.87677793931E-01  0.32148224751E-01  0.12951749150E+00  0.20296234159E-01 0.  0.
         14    1    1    2    0    0  0.24530875944E-01 -0.12672065494E-01 -0.76334490192E-02  0.28646372587E-01  0.00000000000E+00 0. -1.
     999901    1    3    3    0    0  0.62887311977E-01 -0.75005728436E-01 -0.24514775732E-01  0.88576613592E+00  0.88000000000E+00 0.  1.
        -11    1    4    4    0    0 -0.45396216140E-02 -0.15153264041E-04  0.27292257736E-02  0.53214836599E-02  0.51100000000E-03 0.  1.
         11    1    4    4    0    0 -0.82878566307E-01  0.87692947195E-01  0.29418998977E-01  0.12419600784E+00  0.51100000000E-03 0. -1.
</event>
<event>
 8    1  0.1106905E+005  0.1043930E+01  0.7957747E-01            NaN
         13   -1    0    0    0    0  0.00000000000E+00  0.00000000000E+00  0.74505805969E-08  0.10566000000E+00  0.10566000000E+00 0. -1.
     999900   -1    0    0    0    0 -0.00000000000E+00 -0.00000000000E+00 -0.74505805969E-08  0.93827000000E+00  0.93827000000E+00 0.  1.
     999902    2    1    2    0    0 -0.19282372083E-01 -0.86084358924E-02 -0.10464103767E-01  0.10203628086E+01  0.10200906081E+01 0.  0.
     999903    2    3    3    0    0  0.30207042354E-02 -0.42625783356E-01  0.12078595247E+00  0.12969946908E+00  0.20164917676E-01 0.  0.
         14    1    1    2    0    0  0.19282372083E-01  0.86084358924E-02  0.10464103767E-01  0.23567191375E-01  0.00000000000E+00 0. -1.
     999901    1    3    3    0    0 -0.22303076318E-01  0.34017347464E-01 -0.13125005624E+00  0.89066333954E+00  0.88000000000E+00 0.  1.
        -11    1    4    4    0    0  0.91765788559E-02 -0.34593163842E-01  0.79463988607E-01  0.87153216753E-01  0.51100000000E-03 0.  1.
         11    1    4    4    0    0 -0.61558746205E-02 -0.80326195146E-02  0.41321963866E-01  0.42546252330E-01  0.51100000000E-03 0. -1.
</event>
<event>
 7    1  0.1128077E+005  0.1043930E+01  0.7957747E-01            NaN
         13   -1    0    0    0    0  0.00000000000E+00  0.00000000000E+00  0.74505805969E-08  0.10566000000E+00  0.10566000000E+00 0.  1.
     999900   -1    0    0    0    0 -0.00000000000E+00 -0.00000000000E+00 -0.74505805969E-08  0.93827000000E+00  0.93827000000E+00 0.  1.
     999903    2    1    2    0    0  0.47455547951E-01 -0.54435991594E-01  0.90373213308E-01  0.11731933331E+00  0.19524396885E-01 0.  0.
         14    1    1    2    0    0 -0.32329957313E-01  0.25538678064E-01  0.14958349531E-02  0.41227269365E-01  0.00000000000E+00 0.  1.
     999901    1    1    2    0    0 -0.15125590638E-01  0.28897313530E-01 -0.91869048261E-01  0.88538339732E+00  0.88000000000E+00 0.  1.
        -11    1    3    3    0    0  0.36385256960E-01 -0.27803850201E-01  0.59236520906E-01  0.74874345006E-01  0.51100000000E-03 0. -1.
         11    1    3    3    0    0  0.11070290991E-01 -0.26632141393E-01  0.31136692401E-01  0.42444988308E-01  0.51100000000E-03 0.  1.
</event>
<event>
 8    1  0.1106905E+005  0.1043930E+01  0.7957747E-01            NaN
         13   -1    0    0    0    0  0.00000000000E+00  0.00000000000E+00  0.74505805969E-08  0.10566000000E+00  0.10566000000E+00 0.  1.
     999900   -1    0    0    0    0 -0.00000000000E+00 -0.00000000000E+00 -0.74505805969E-08  0.93827000000E+00  0.93827000000E+00 0. -1.
     999902    2    1    2    0    0 -0.17989749355E-01  0.12810141964E-01 -0.38660118289E-02  0.10215095436E+01  0.10212634678E+01 0.  0.
     999903    2    3    3    0    0  0.21093683048E-01 -0.97015258888E-01 -0.81273496157E-01  0.13045339944E+00  0.23575502680E-01 0.  0.
         14    1    1    2    0    0  0.17989749355E-01 -0.12810141964E-01  0.38660118289E-02  0.22420456429E-01  0.00000000000E+00 0.  1.
     999901    1    3    3    0    0 -0.39083432404E-01  0.10982540085E+00  0.77407484328E-01  0.89105614413E+00  0.88000000000E+00 0.  1.
        -11    1    4    4    0    0  0.29103853695E-02 -0.52511295429E-01 -0.31768088928E-01  0.61444113516E-01  0.51100000000E-03 0.  1.
         11    1    4    4    0    0  0.18183297679E-01 -0.44503963459E-01 -0.49505407229E-01  0.69009285926E-01  0.51100000000E-03 0. -1.
</event>
<event>
 8    1  0.1106905E+005  0.1043930E+01  0.7957747E-01            NaN
         13   -1    0    0    0    0  0.00000000000E+00  0.00000000000E+00  0.74505805969E-08  0.10566000000E+00  0.10566000000E+00 0.  1.
     999900   -1    0    0    0    0 -0.00000000000E+00 -0.00000000000E+00 -0.74505805969E-08  0.93827000000E+00  0.93827000000E+00 0.  1.
     999902    2    1    2    0    0  0.12575921887E-01  0.92523887565E-02  0.17212093255E-01  0.10206917414E+01  0.10204271725E+01 0.  0.
     999903    2    3    3    0    0  0.10395582803E+00  0.60050054299E-01  0.55190270189E-01  0.13368946857E+00  0.20349075631E-01 0.  0.
         14    1    1    2    0    0 -0.12575921887E-01 -0.92523887565E-02 -0.17212093255E-01  0.23238258610E-01  0.00000000000E+00 0. -1.
     999901    1    3    3    0    0 -0.91379906144E-01 -0.50797665542E-01 -0.37978176934E-01  0.88700227282E+00  0.88000000000E+00 0.  1.
        -11    1    4    4    0    0  0.21820577178E-01  0.99527650517E-02  0.20047873982E-01  0.31262973192E-01  0.51100000000E-03 0. -1.
         11    1    4    4    0    0  0.82135250853E-01  0.50097289247E-01  0.35142396207E-01  0.10242649537E+00  0.51100000000E-03 0.  1.
</event>
<event>
 8    1  0.1106905E+005  0.1043930E+01  0.7957747E-01            NaN
         13   -1    0    0    0    0  0.00000000000E+00  0.00000000000E+00  0.74505805969E-08  0.10566000000E+00  0.10566000000E+00 0. -1.
     999900   -1    0    0    0    0 -0.00000000000E+00 -0.00000000000E+00 -0.74505805969E-08  0.93827000000E+00  0.93827000000E+00 0.  1.
     999902    2    1    2    0    0  0.81423222828E-02  0.20810145395E-01  0.54468300044E-02  0.10209294017E+01  0.10206702777E+01 0.  0.
     999903    2    3    3    0    0  0.26474662507E-01 -0.96292077863E-01  0.80280841131E-01  0.12983505510E+00  0.20953664710E-01 0.  0.
         14    1    1    2    0    0 -0.81423222828E-02 -0.20810145395E-01 -0.54468300044E-02  0.23000598266E-01  0.00000000000E+00 0. -1.
     999901    1    3    3    0    0 -0.18332340225E-01  0.11710222326E+00 -0.74834011126E-01  0.89109434664E+00  0.88000000000E+00 0. -1.
        -11    1    4    4    0    0 -0.47566948331E-03 -0.19664196814E-01  0.23888021072E-01  0.30948434040E-01  0.51100000000E-03 0. -1.
         11    1    4    4    0    0  0.26950331991E-01 -0.76627881050E-01  0.56392820059E-01  0.98886621055E-01  0.51100000000E-03 0.  1.
</event>
<event>
 8    1  0.1106905E+005  0.1043930E+01  0.7957747E-01            NaN
         13   -1    0    0    0    0  0.00000000000E+00  0.00000000000E+00  0.74505805969E-08  0.10566000000E+00  0.10566000000E+00 0.  1.
     999900   -1    0    0    0    0 -0.00000000000E+00 -0.00000000000E+00 -0.74505805969E-08  0.93827000000E+00  0.93827000000E+00 0. -1.
     999902    2    1    2    0    0  0.12523577100E-01  0.39544909534E-02 -0.19231509388E-01  0.10206420431E+01  0.10203763283E+01 0.  0.
     999903    2    3    3    0    0  0.67416719499E-01  0.94057577488E-01  0.58414711711E-01  0.13094503912E+00  0.18506290140E-01 0.  0.
         14    1    1    2    0    0 -0.12523577100E-01 -0.39544909534E-02  0.19231509388E-01  0.23287956875E-01  0.00000000000E+00 0.  1.
     999901    1    3    3    0    0 -0.54893142399E-01 -0.90103086535E-01 -0.77646221099E-01  0.88969700401E+00  0.88000000000E+00 0. -1.
        -11    1    4    4    0    0  0.47752333779E-01  0.75454881617E-01  0.38045387360E-01  0.97064087908E-01  0.51100000000E-03 0. -1.
         11    1    4    4    0    0  0.19664385720E-01  0.18602695871E-01  0.20369324351E-01  0.33880951211E-01  0.51100000000E-03 0.  1.
</event>
<event>
 8    1  0.1106905E+005  0.1043930E+01  0.7957747E-01            NaN
         13   -1    0    0    0    0  0.00000000000E+00  0.00000000000E+00  0.74505805969E-08  0.10566000000E+00  0.10566000000E+00 0.  1.
     999900   -1    0    0    0    0 -0.00000000000E+00 -0.00000000000E+00 -0.74505805969E-08  0.93827000000E+00  0.93827000000E+00 0.  1.
     999902    2    1    2    0    0  0.26901281904E-02  0.52673727429E-02  0.23418099106E-01  0.10197765454E+01  0.10194904674E+01 0.  0.
     999903    2    3    3    0    0 -0.18125824551E-02  0.11731637413E+00 -0.50852293306E-01  0.12955671616E+00  0.20798314172E-01 0.  0.
         14    1    1    2    0    0 -0.26901281904E-02 -0.52673727429E-02 -0.23418099106E-01  0.24153454640E-01  0.00000000000E+00 0. -1.
     999901    1    3    3    0    0  0.45027106455E-02 -0.11204900139E+00  0.74270392413E-01  0.89021982920E+00  0.88000000000E+00 0.  1.
        -11    1    4    4    0    0 -0.63788547406E-02  0.18585237760E-01 -0.13733382479E-01  0.23978485476E-01  0.51100000000E-03 0.  1.
         11    1    4    4    0    0  0.45662722855E-02  0.98731136372E-01 -0.37118910827E-01  0.10557823068E+00  0.51100000000E-03 0. -1.
</event>
<event>
 8    1  0.1106905E+005  0.1043930E+01  0.7957747E-01            NaN
         13   -1    0    0    0    0  0.00000000000E+00  0.00000000000E+00  0.74505805969E-08  0.10566000000E+00  0.10566000000E+00 0. -1.
     999900   -1    0    0    0    0 -0.00000000000E+00 -0.00000000000E+00 -0.74505805969E-08  0.93827000000E+00  0.93827000000E+00 0.  1.
     999902    2    1    2    0    0 -0.76214202722E-02  0.11316966309E-01  0.19005363796E-01  0.10205341964E+01  0.10202659861E+01 0.  0.
     999903    2    3    3    0    0 -0.92676686471E-01 -0.57575625899E-01 -0.67096898555E-01  0.12958291425E+00  0.19642223829E-01 0.  0.
         14    1    1    2    0    0  0.76214202722E-02 -0.11316966309E-01 -0.19005363796E-01  0.23395803608E-01  0.00000000000E+00 0.  1.
     999901    1    3    3    0    0  0.85055266199E-01  0.68892592209E-01  0.86102262351E-01  0.89095128214E+00  0.88000000000E+00 0.  1.
        -11    1    4    4    0    0 -0.79025019659E-01 -0.41960636930E-01 -0.48790638102E-01  0.10191386692E+00  0.51100000000E-03 0.  1.
         11    1    4    4    0    0 -0.13651666812E-01 -0.15614988969E-01 -0.18306260453E-01  0.27669047328E-01  0.51100000000E-03 0. -1.
</event>
<event>
 8    1  0.1106905E+005  0.1043930E+01  0.7957747E-01            NaN
         13   -1    0    0    0    0  0.00000000000E+00  0.00000000000E+00  0.74505805969E-08  0.10566000000E+00  0.10566000000E+00 0.  1.
     999900   -1    0    0    0    0 -0.00000000000E+00 -0.00000000000E+00 -0.74505805969E-08  0.93827000000E+00  0.93827000000E+00 0. -1.
     999902    2    1    2    0    0  0.45178769658E-02  0.13986631740E-01  0.19052108896E-01  0.10198671670E+01  0.10195832572E+01 0.  0.
     999903    2    3    3    0    0 -0.12853122072E+00 -0.75672766060E-03  0.13572609077E-02  0.12956803933E+00  0.16284573171E-01 0.  0.
         14    1    1    2    0    0 -0.45178769658E-02 -0.13986631740E-01 -0.19052108896E-01  0.24062833023E-01  0.00000000000E+00 0. -1.
     999901    1    3    3    0    0  0.13304909768E+00  0.14743359400E-01  0.17694847989E-01  0.89029912765E+00  0.88000000000E+00 0.  1.
        -11    1    4    4    0    0 -0.13119482618E-01 -0.39160641019E-02 -0.30164247588E-02  0.14029124048E-01  0.51100000000E-03 0. -1.
         11    1    4    4    0    0 -0.11541173810E+00  0.31593364413E-02  0.43736856665E-02  0.11553891528E+00  0.51100000000E-03 0.  1.
</event>
<event>
 8    1  0.1106905E+005  0.1043930E+01  0.7957747E-01            NaN
         13   -1    0    0    0    0  0.00000000000E+00  0.00000000000E+00  0.74505805969E-08  0.10566000000E+00  0.10566000000E+00 0. -1.
     999900   -1    0    0    0    0 -0.00000000000E+00 -0.00000000000E+00 -0.74505805969E-08  0.93827000000E+00  0.93827000000E+00 0. -1.
     999902    2    1    2    0    0 -0.20364616083E-01  0.61068455668E-02  0.11628267574E-01  0.10196972173E+01  0.10194092344E+01 0.  0.
     999903    2    3    3    0    0  0.66900715432E-01 -0.10704343357E+00  0.87009711204E-02  0.12816662734E+00  0.20419967424E-01 0.  0.
         14    1    1    2    0    0  0.20364616083E-01 -0.61068455668E-02 -0.11628267574E-01  0.24232782708E-01  0.00000000000E+00 0. -1.
     999901    1    3    3    0    0 -0.87265331515E-01  0.11315027914E+00  0.29272964535E-02  0.89153058995E+00  0.88000000000E+00 0. -1.
        -11    1    4    4    0    0  0.83345581996E-02 -0.29019156960E-01  0.43584894726E-02  0.30509570343E-01  0.51100000000E-03 0.  1.
         11    1    4    4    0    0  0.58566157232E-01 -0.78024276611E-01  0.43424816478E-02  0.97657056998E-01  0.51100000000E-03 0. -1.
</event>
<event>
 8    1  0.1106905E+005  0.1043930E+01  0.7957747E-01            NaN
         13   -1    0    0    0    0  0.00000000000E+00  0.00000000000E+00  0.74505805969E-08  0.10566000000E+00  0.10566000000E+00 0. -1.
     999900   -1    0    0    0    0 -0.00000000000E+00 -0.00000000000E+00 -0.74505805969E-08  0.93827000000E+00  0.93827000000E+00 0. -1.
     999902    2    1    2    0    0 -0.72921658355E-02  0.20169867935E-01 -0.90363188824E-02  0.10206565320E+01  0.10203911514E+01 0.  0.
     999903    2    3    3    0    0  0.11355416807E+00  0.44405373250E-01 -0.44465216009E-01  0.13136107888E+00  0.20302496171E-01 0.  0.
         14    1    1    2    0    0  0.72921658355E-02 -0.20169867935E-01  0.90363188824E-02  0.23273468028E-01  0.00000000000E+00 0. -1.
     999901    1    3    3    0    0 -0.12084633390E+00 -0.24235505315E-01  0.35428897127E-01  0.88929545309E+00  0.88000000000E+00 0.  1.
        -11    1    4    4    0    0  0.71632098021E-01  0.34846475425E-01 -0.36519664732E-01  0.87632079454E-01  0.51100000000E-03 0.  1.
         11    1    4    4    0    0  0.41922070049E-01  0.95588978255E-02 -0.79455512771E-02  0.43728999427E-01  0.51100000000E-03 0. -1.
</event>
<event>
 8    1  0.1106905E+005  0.1043930E+01  0.7957747E-01            NaN
         13   -1    0    0    0    0  0.00000000000E+00  0.00000000000E+00  0.74505805969E-08  0.10566000000E+00  0.10566000000E+00 0.  1.
     999900   -1    0    0    0    0 -0.00000000000E+00 -0.00000000000E+00 -0.74505805969E-08  0.93827000000E+00  0.93827000000E+00 0. -1.
     999902    2    1    2    0    0  0.20699918021E-01 -0.69752491533E-02 -0.64537230571E-02  0.10211530106E+01  0.10208989567E+01 0.  0.
     999903    2    3    3    0    0 -0.43309984563E-02  0.88531206179E-01  0.93023130969E-01  0.13006172776E+00  0.20154853444E-01 0.  0.
         14    1    1    2    0    0 -0.20699918021E-01  0.69752491533E-02  0.64537230571E-02  0.22776989444E-01  0.00000000000E+00 0. -1.
     999901    1    3    3    0    0  0.25030916477E-01 -0.95506455332E-01 -0.99476854026E-01  0.89109128280E+00  0.88000000000E+00 0. -1.
        -11    1    4    4    0    0  0.69343829126E-02  0.44543252103E-01  0.52488010368E-01  0.69191324078E-01  0.51100000000E-03 0.  1.
         11    1    4    4    0    0 -0.11265381369E-01  0.43987954076E-01  0.40535120601E-01  0.60870403681E-01  0.51100000000E-03 0. -1.
</event>
<event>
 8    1  0.1106905E+005  0.1043930E+01  0.7957747E-01            NaN
         13   -1    0    0    0    0  0.00000000000E+00  0.00000000000E+00  0.74505805969E-08  0.10566000000E+00  0.10566000000E+00 0. -1.
     999900   -1    0    0    0    0 -0.00000000000E+00 -0.00000000000E+00 -0.74505805969E-08  0.93827000000E+00  0.93827000000E+00 0.  1.
     999902    2    1    2    0    0  0.35499014544E-02 -0.19470933697E-01  0.11165055243E-01  0.10212060585E+01  0.10209531999E+01 0.  0.
     999903    2    3    3    0    0 -0.57915014567E-01  0.86062188965E-01 -0.74068635879E-01  0.12869277680E+00  0.17743131015E-01 0.  0.
         14    1    1    2    0    0 -0.35499014544E-02  0.19470933697E-01 -0.11165055243E-01  0.22723941514E-01  0.00000000000E+00 0. -1.
     999901    1    3    3    0    0  0.61464916022E-01 -0.10553312266E+00  0.85233691122E-01  0.89251328168E+00  0.88000000000E+00 0. -1.
        -11    1    4    4    0    0 -0.45022141858E-01  0.58958704161E-01 -0.44240020836E-01  0.86374548441E-01  0.51100000000E-03 0. -1.
         11    1    4    4    0    0 -0.12892872709E-01  0.27103484804E-01 -0.29828615042E-01  0.42318228360E-01  0.51100000000E-03 0.  1.
</event>
<event>
 8    1  0.1106905E+005  0.1043930E+01  0.7957747E-01            NaN
         13   -1    0    0    0    0  0.00000000000E+00  0.00000000000E+00  0.74505805969E-08  0.10566000000E+00  0.10566000000E+00 0.  1.
     999900   -1    0    0    0    0 -0.00000000000E+00 -0.00000000000E+00 -0.74505805969E-08  0.93827000000E+00  0.93827000000E+00 0.  1.
     999902    2    1    2    0    0 -0.16380031089E-01 -0.50443415511E-02 -0.16301006228E-01  0.10202768056E+01  0.10200025914E+01 0.  0.
     999903    2    3    3    0    0 -0.64926101156E-01  0.27550690178E-01 -0.11125821913E+00  0.13323902216E+00  0.19995163478E-01 0.  0.
         14    1    1    2    0    0  0.16380031089E-01  0.50443415511E-02  0.16301006228E-01  0.23653194376E-01  0.00000000000E+00 0.  1.
     999901    1    3    3    0    0  0.48546070067E-01 -0.32595031729E-01  0.94957212897E-01  0.88703778346E+00  0.88000000000E+00 0. -1.
        -11    1    4    4    0    0 -0.43035309516E-01  0.27251280755E-01 -0.70610203317E-01  0.87067399763E-01  0.51100000000E-03 0.  1.
         11    1    4    4    0    0 -0.21890791640E-01  0.29940942287E-03 -0.40648015808E-01  0.46171622397E-01  0.51100000000E-03 0. -1.
</event>
<event>
 8    1  0.1106905E+005  0.1043930E+01  0.7957747E-01            NaN
         13   -1    0    0    0    0  0.00000000000E+00  0.00000000000E+00  0.74505805969E-08  0.10566000000E+00  0.10566000000E+00 0.  1.
     999900   -1    0    0    0    0 -0.00000000000E+00 -0.00000000000E+00 -0.74505805969E-08  0.93827000000E+00  0.93827000000E+00 0. -1.
     999902    2    1    2    0    0 -0.13734208138E-01 -0.90144606655E-02 -0.12357540573E-01  0.10233728167E+01  0.10231663229E+01 0.  0.
     999903    2    3    3    0    0  0.72549912851E-01  0.10728192149E+00 -0.11626266736E-01  0.13153744360E+00  0.19850150060E-01 0.  0.
         14    1    1    2    0    0  0.13734208138E-01  0.90144606655E-02  0.12357540573E-01  0.20557183252E-01  0.00000000000E+00 0.  1.
     999901    1    3    3    0    0 -0.86284120988E-01 -0.11629638215E+00 -0.73127383678E-03  0.89183537315E+00  0.88000000000E+00 0. -1.
        -11    1    4    4    0    0  0.39091952828E-01  0.40432327961E-01 -0.37598053097E-02  0.56367997811E-01  0.51100000000E-03 0.  1.
         11    1    4    4    0    0  0.33457960023E-01  0.66849593528E-01 -0.78664614265E-02  0.75169445789E-01  0.51100000000E-03 0. -1.
</event>
<event>
 8    1  0.1106905E+005  0.1043930E+01  0.7957747E-01            NaN
         13   -1    0    0    0    0  0.00000000000E+00  0.00000000000E+00  0.74505805969E-08  0.10566000000E+00  0.10566000000E+00 0.  1.
     999900   -1    0    0    0    0 -0.00000000000E+00 -0.00000000000E+00 -0.74505805969E-08  0.93827000000E+00  0.93827000000E+00 0.  1.
     999902    2    1    2    0    0  0.22781463088E-01  0.68474880220E-02 -0.16351453847E-02  0.10200855698E+01  0.10198068507E+01 0.  0.
     999903    2    3    3    0    0  0.81481666184E-01  0.35498799431E-01 -0.96342240187E-01  0.13259695277E+00  0.20017441281E-01 0.  0.
         14    1    1    2    0    0 -0.22781463088E-01 -0.68474880220E-02  0.16351453847E-02  0.23844430232E-01  0.00000000000E+00 0.  1.
     999901    1    3    3    0    0 -0.58700203096E-01 -0.28651311409E-01  0.94707094803E-01  0.88748861699E+00  0.88000000000E+00 0. -1.
        -11    1    4    4    0    0  0.16928562316E-01  0.25029755426E-02 -0.98984659267E-02  0.19775789677E-01  0.51100000000E-03 0. -1.
         11    1    4    4    0    0  0.64553103868E-01  0.32995823888E-01 -0.86443774261E-01  0.11282116310E+00  0.51100000000E-03 0.  1.
</event>
<event>
 8    1  0.1106905E+005  0.1043930E+01  0.7957747E-01            NaN
         13   -1    0    0    0    0  0.00000000000E+00  0.00000000000E+00  0.74505805969E-08  0.10566000000E+00  0.10566000000E+00 0.  1.
     999900   -1    0    0    0    0 -0.00000000000E+00 -0.00000000000E+00 -0.74505805969E-08  0.93827000000E+00  0.93827000000E+00 0. -1.
     999902    2    1    2    0    0 -0.80371843469E-02 -0.59144082952E-02 -0.21723080432E-01  0.10200245868E+01  0.10197444233E+01 0.  0.
     999903    2    3    3    0    0  0.66183565283E-01 -0.52981916947E-01 -0.99390885846E-01  0.13224288048E+00  0.20549535548E-01 0.  0.
         14    1    1    2    0    0  0.80371843469E-02  0.59144082952E-02  0.21723080432E-01  0.23905413219E-01  0.00000000000E+00 0.  1.
     999901    1    3    3    0    0 -0.74220749630E-01  0.47067508652E-01  0.77667805414E-01  0.88778170630E+00  0.88000000000E+00 0.  1.
        -11    1    4    4    0    0  0.62486119094E-02 -0.92370998543E-02 -0.51475048354E-02  0.12293375921E-01  0.51100000000E-03 0. -1.
         11    1    4    4    0    0  0.59934953374E-01 -0.43744817093E-01 -0.94243381011E-01  0.11994950456E+00  0.51100000000E-03 0.  1.
</event>
<event>
 8    1  0.1106905E+005  0.1043930E+01  0.7957747E-01            NaN
         13   -1    0    0    0    0  0.00000000000E+00  0.00000000000E+00  0.74505805969E-08  0.10566000000E+00  0.10566000000E+00 0.  1.
     999900   -1    0    0    0    0 -0.00000000000E+00 -0.00000000000E+00 -0.74505805969E-08  0.93827000000E+00  0.93827000000E+00 0.  1.
     999902    2    1    2    0    0 -0.15466400034E-01 -0.16958453000E-01 -0.61301374542E-02  0.10201733747E+01  0.10198967287E+01 0.  0.
     999903    2    3    3    0    0 -0.22499207164E-01 -0.10207084710E+00 -0.79559095815E-01  0.13299504322E+00  0.20817291954E-01 0.  0.
         14    1    1    2    0    0  0.15466400034E-01  0.16958453000E-01  0.61301374542E-02  0.23756625252E-01  0.00000000000E+00 0.  1.
     999901    1    3    3    0    0  0.70328071297E-02  0.85112394098E-01  0.73428958361E-01  0.88717833153E+00  0.88000000000E+00 0. -1.
        -11    1    4    4    0    0 -0.10086052293E-01 -0.83605991466E-01 -0.65284796013E-01  0.10655541268E+00  0.51100000000E-03 0. -1.
         11    1    4    4    0    0 -0.12413154871E-01 -0.18464855632E-01 -0.14274299802E-01  0.26439630542E-01  0.51100000000E-03 0.  1.
</event>
<event>
 8    1  0.1106905E+005  0.1043930E+01  0.7957747E-01            NaN
         13   -1    0    0    0    0  0.00000000000E+00  0.00000000000E+00  0.74505805969E-08  0.10566000000E+00  0.10566000000E+00 0.  1.
     999900   -1    0    0    0    0 -0.00000000000E+00 -0.00000000000E+00 -0.74505805969E-08  0.93827000000E+00  0.93827000000E+00 0. -1.
     999902    2    1    2    0    0  0.14076874548E-01  0.97655539881E-02 -0.15193932351E-01  0.10210306546E+01  0.10207738327E+01 0.  0.
     999903    2    3    3    0    0  0.12895715581E+00  0.22779420183E-01  0.13128915122E-01  0.13301656490E+00  0.19292177318E-01 0.  0.
         14    1    1    2    0    0 -0.14076874548E-01 -0.97655539881E-02  0.15193932351E-01  0.22899345450E-01  0.00000000000E+00 0.  1.
     999901    1    3    3    0    0 -0.11488028126E+00 -0.13013866195E-01 -0.28322847473E-01  0.88801408965E+00  0.88000000000E+00 0. -1.
        -11    1    4    4    0    0  0.50084012334E-01  0.18092694745E-01  0.78091613335E-02  0.53823768136E-01  0.51100000000E-03 0. -1.
         11    1    4    4    0    0  0.78873143477E-01  0.46867254374E-02  0.53197537889E-02  0.79192796760E-01  0.51100000000E-03 0.  1.
</event>
<event>
 8    1  0.1106905E+005  0.1043930E+01  0.7957747E-01            NaN
         13   -1    0    0    0    0  0.00000000000E+00  0.00000000000E+00  0.74505805969E-08  0.10566000000E+00  0.10566000000E+00 0. -1.
     999900   -1    0    0    0    0 -0.00000000000E+00 -0.00000000000E+00 -0.74505805969E-08  0.93827000000E+00  0.93827000000E+00 0. -1.
     999902    2    1    2    0    0 -0.15435286451E-02 -0.53657718861E-02 -0.22958098839E-01  0.10203027215E+01  0.10200291148E+01 0.  0.
     999903    2    3    3    0    0 -0.31586383583E-01  0.98104394164E-01 -0.79880094204E-01  0.13190598467E+00  0.19904460798E-01 0.  0.
         14    1    1    2    0    0  0.15435286451E-02  0.53657718861E-02  0.22958098839E-01  0.23627278533E-01  0.00000000000E+00 0. -1.
     999901    1    3    3    0    0  0.30042854938E-01 -0.10347016605E+00  0.56921995365E-01  0.88839673680E+00  0.88000000000E+00 0. -1.
        -11    1    4    4    0    0 -0.31415287986E-01  0.77948479996E-01 -0.57771830061E-01  0.10198397581E+00  0.51100000000E-03 0. -1.
         11    1    4    4    0    0 -0.17109559644E-03  0.20155914167E-01 -0.22108264143E-01  0.29922008857E-01  0.51100000000E-03 0.  1.
</event>
<event>
 8    1  0.1106905E+005  0.1043930E+01  0.7957747E-01            NaN
         13   -1    0    0    0    0  0.00000000000E+00  0.00000000000E+00  0.74505805969E-08  0.10566000000E+00  0.10566000000E+00 0.  1.
     999900   -1    0    0    0    0 -0.00000000000E+00 -0.00000000000E+00 -0.74505805969E-08  0.93827000000E+00  0.93827000000E+00 0.  1.
     999902    2    1    2    0    0  0.19717567429E-01 -0.19868850245E-02 -0.10281545523E-01  0.10216042222E+01  0.10213602432E+01 0.  0.
     999903    2    3    3    0    0 -0.54524161118E-01  0.98787226900E-01 -0.64141908707E-01  0.13111660596E+00  0.18589770376E-01 0.  0.
         14    1    1    2    0    0 -0.19717567429E-01  0.19868850245E-02  0.10281545523E-01  0.22325777831E-01  0.00000000000E+00 0.  1.
     999901    1    3    3    0    0  0.74241728547E-01 -0.10077411192E+00  0.53860363184E-01  0.89048761620E+00  0.88000000000E+00 0.  1.
        -11    1    4    4    0    0 -0.37877062248E-02  0.44104344252E-02 -0.86875430726E-02  0.10465809854E-01  0.51100000000E-03 0.  1.
         11    1    4    4    0    0 -0.50736454893E-01  0.94376792475E-01 -0.55454365635E-01  0.12065079611E+00  0.51100000000E-03 0. -1.
</event>
<event>
 8    1  0.1106905E+005  0.1043930E+01  0.7957747E-01            NaN
         13   -1    0    0    0    0  0.00000000000E+00  0.00000000000E+00  0.74505805969E-08  0.10566000000E+00  0.10566000000E+00 0. -1.
     999900   -1    0    0    0    0 -0.00000000000E+00 -0.00000000000E+00 -0.74505805969E-08  0.93827000000E+00  0.93827000000E+00 0. -1.
     999902    2    1    2    0    0 -0.12427264648E-01 -0.21056546550E-01 -0.39773595944E-04  0.10194797108E+01  0.10191864717E+01 0.  0.
     999903    2    3    3    0    0 -0.56133619078E-01  0.67228906384E-01  0.92732631370E-01  0.12913635809E+00  0.20153139107E-01 0.  0.
         14    1    1    2    0    0  0.12427264648E-01  0.21056546550E-01  0.39773595944E-04  0.24450289184E-01  0.00000000000E+00 0. -1.
     999901    1    3    3    0    0  0.43706354430E-01 -0.88285452935E-01 -0.92772404966E-01  0.89034335272E+00  0.88000000000E+00 0. -1.
        -11    1    4    4    0    0 -0.18112395405E-01  0.11707660072E-01  0.14753874397E-01  0.26135533329E-01  0.51100000000E-03 0. -1.
         11    1    4    4    0    0 -0.38021223673E-01  0.55521246313E-01  0.77978756973E-01  0.10300082476E+00  0.51100000000E-03 0.  1.
</event>
<event>
 8    1  0.1106905E+005  0.1043930E+01  0.7957747E-01            NaN
         13   -1    0    0    0    0  0.00000000000E+00  0.00000000000E+00  0.74505805969E-08  0.10566000000E+00  0.10566000000E+00 0.  1.
     999900   -1    0    0    0    0 -0.00000000000E+00 -0.00000000000E+00 -0.74505805969E-08  0.93827000000E+00  0.93827000000E+00 0. -1.
     999902    2    1    2    0    0  0.64877071195E-02  0.17452737101E-01 -0.15800943111E-01  0.10195095541E+01  0.10192170390E+01 0.  0.
     999903    2    3    3    0    0 -0.55018010356E-01 -0.11000054874E+00  0.25481163664E-01  0.12724753780E+00  0.20384896031E-01 0.  0.
         14    1    1    2    0    0 -0.64877071195E-02 -0.17452737101E-01  0.15800943111E-01  0.24420445925E-01  0.00000000000E+00 0.  1.
     999901    1    3    3    0    0  0.61505717475E-01  0.12745328584E+00 -0.41282106776E-01  0.89226201628E+00  0.88000000000E+00 0.  1.
        -11    1    4    4    0    0 -0.56432358551E-02 -0.29416502792E-01  0.92675755575E-02  0.31358026487E-01  0.51100000000E-03 0. -1.
         11    1    4    4    0    0 -0.49374774501E-01 -0.80584045950E-01  0.16213588107E-01  0.95889511309E-01  0.51100000000E-03 0.  1.
</event>
<event>
 8    1  0.1106905E+005  0.1043930E+01  0.7957747E-01            NaN
         13   -1    0    0    0    0  0.00000000000E+00  0.00000000000E+00  0.74505805969E-08  0.10566000000E+00  0.10566000000E+00 0. -1.
     999900   -1    0    0    0    0 -0.00000000000E+00 -0.00000000000E+00 -0.74505805969E-08  0.93827000000E+00  0.93827000000E+00 0.  1.
     999902    2    1    2    0    0 -0.21870858406E-01 -0.70299344010E-02  0.23885850879E-02  0.10208332521E+01  0.10205719322E+01 0.  0.
     999903    2    3    3    0    0 -0.51373732476E-01  0.11430863550E+00  0.34410480819E-01  0.13144083593E+00  0.19669459122E-01 0.  0.
         14    1    1    2    0    0  0.21870858406E-01  0.70299344010E-02 -0.23885850879E-02  0.23096747906E-01  0.00000000000E+00 0.  1.
     999901    1    3    3    0    0  0.29502874070E-01 -0.12133856990E+00 -0.32021895731E-01  0.88939241616E+00  0.88000000000E+00 0.  1.
        -11    1    4    4    0    0 -0.91245923375E-02  0.23591182097E-01  0.15275390100E-01  0.29553353816E-01  0.51100000000E-03 0. -1.
         11    1    4    4    0    0 -0.42249140139E-01  0.90717453400E-01  0.19135090719E-01  0.10188748211E+00  0.51100000000E-03 0.  1.
</event>
<event>
 8    1  0.1106905E+005  0.1043930E+01  0.7957747E-01            NaN
         13   -1    0    0    0    0  0.00000000000E+00  0.00000000000E+00  0.74505805969E-08  0.10566000000E+00  0.10566000000E+00 0.  1.
     999900   -1    0    0    0    0 -0.00000000000E+00 -0.00000000000E+00 -0.74505805969E-08  0.93827000000E+00  0.93827000000E+00 0.  1.
     999902    2    1    2    0    0  0.24237060769E-02  0.23333727213E-01  0.59398545775E-03  0.10204632151E+01  0.10201933558E+01 0.  0.
     999903    2    3    3    0    0  0.94503088930E-01 -0.85095022990E-01  0.76644569513E-02  0.12901192745E+00  0.20330685380E-01 0.  0.
         14    1    1    2    0    0 -0.24237060769E-02 -0.23333727213E-01 -0.59398545775E-03  0.23466784942E-01  0.00000000000E+00 0.  1.
     999901    1    3    3    0    0 -0.92079382854E-01  0.10842875020E+00 -0.70704714935E-02  0.89145128761E+00  0.88000000000E+00 0. -1.
        -11    1    4    4    0    0  0.35834617898E-01 -0.24252565187E-01 -0.49420043751E-02  0.43554463449E-01  0.51100000000E-03 0. -1.
         11    1    4    4    0    0  0.58668471032E-01 -0.60842457802E-01  0.12606461326E-01  0.85457463997E-01  0.51100000000E-03 0.  1.
</event>
<event>
 8    1  0.1244508E+005  0.1043930E+01  0.7957747E-01            NaN
         13   -1    0    0    0    0  0.00000000000E+00  0.00000000000E+00  0.74505805969E-08  0.10566000000E+00  0.10566000000E+00 0. -1.
     999900   -1    0    0    0    0 -0.00000000000E+00 -0.00000000000E+00 -0.74505805969E-08  0.93827000000E+00  0.93827000000E+00 0. -1.
     999902    2    1    2    0    0 -0.14153101519E-01 -0.15981458867E-01  0.76611362407E-02  0.10212493845E+01  0.10209975000E+01 0.  0.
     999903    2    3    3    0    0  0.99870890378E-01  0.35370136390E-01 -0.70830486098E-01  0.12894932745E+00  0.19640010088E-01 0.  0.
         14    1    1    2    0    0  0.14153101519E-01  0.15981458867E-01 -0.76611362407E-02  0.22680615481E-01  0.00000000000E+00 0.  1.
     999901    1    3    3    0    0 -0.11402399190E+00 -0.51351595256E-01  0.78491622339E-01  0.89230005707E+00  0.88000000000E+00 0. -1.
        -11    1    4    4    0    0  0.72448595270E-01  0.16317251979E-01 -0.46349821067E-01  0.87542096746E-01  0.51100000000E-03 0.  1.
         11    1    4    4    0    0  0.27422295108E-01  0.19052884411E-01 -0.24480665031E-01  0.41407230706E-01  0.51100000000E-03 0. -1.
</event>
<event>
 8    1  0.1106905E+005  0.1043930E+01  0.7957747E-01            NaN
         13   -1    0    0    0    0  0.00000000000E+00  0.00000000000E+00  0.74505805969E-08  0.10566000000E+00  0.10566000000E+00 0. -1.
     999900   -1    0    0    0    0 -0.00000000000E+00 -0.00000000000E+00 -0.74505805969E-08  0.93827000000E+00  0.93827000000E+00 0. -1.
     999902    2    1    2    0    0  0.19998759405E-01 -0.75669098302E-02 -0.10308630951E-01  0.10201923427E+01  0.10199161435E+01 0.  0.
     999903    2    3    3    0    0 -0.77856211060E-01  0.91977088968E-01 -0.40256387058E-01  0.12868717107E+00  0.20455727896E-01 0.  0.
         14    1    1    2    0    0 -0.19998759405E-01  0.75669098302E-02  0.10308630951E-01  0.23737657302E-01  0.00000000000E+00 0.  1.
     999901    1    3    3    0    0  0.97854970465E-01 -0.99543998798E-01  0.29947756107E-01  0.89150517163E+00  0.88000000000E+00 0. -1.
        -11    1    4    4    0    0 -0.29935350440E-01  0.21184341032E-01 -0.13996380758E-01  0.39256353706E-01  0.51100000000E-03 0.  1.
         11    1    4    4    0    0 -0.47920860620E-01  0.70792747935E-01 -0.26260006300E-01  0.89430817366E-01  0.51100000000E-03 0. -1.
</event>
<event>
 8    1  0.1106905E+005  0.1043930E+01  0.7957747E-01            NaN
         13   -1    0    0    0    0  0.00000000000E+00  0.00000000000E+00  0.74505805969E-08  0.10566000000E+00  0.10566000000E+00 0. -1.
     999900   -1    0    0    0    0 -0.00000000000E+00 -0.00000000000E+00 -0.74505805969E-08  0.93827000000E+00  0.93827000000E+00 0. -1.
     999902    2    1    2    0    0 -0.11083685101E-02  0.22480485890E-01  0.66395089952E-02  0.10204633469E+01  0.10201934908E+01 0.  0.
     999903    2    3    3    0    0 -0.11839343040E+00  0.43723284990E-01  0.34160143575E-01  0.13200151456E+00  0.18131586360E-01 0.  0.
         14    1    1    2    0    0  0.11083685101E-02 -0.22480485890E-01 -0.66395089952E-02  0.23466653070E-01  0.00000000000E+00 0. -1.
     999901    1    3    3    0    0  0.11728506189E+00 -0.21242799100E-01 -0.27520634580E-01  0.88846183237E+00  0.88000000000E+00 0. -1.
        -11    1    4    4    0    0 -0.23112947650E-01  0.12920246192E-02  0.76035603549E-02  0.24371149496E-01  0.51100000000E-03 0.  1.
         11    1    4    4    0    0 -0.95280482751E-01  0.42431260371E-01  0.26556583220E-01  0.10763036506E+00  0.51100000000E-03 0. -1.
</event>
<event>
 8    1  0.1106905E+005  0.1043930E+01  0.7957747E-01            NaN
         13   -1    0    0    0    0  0.00000000000E+00  0.00000000000E+00  0.74505805969E-08  0.10566000000E+00  0.10566000000E+00 0.  1.
     999900   -1    0    0    0    0 -0.00000000000E+00 -0.00000000000E+00 -0.74505805969E-08  0.93827000000E+00  0.93827000000E+00 0.  1.
     999902    2    1    2    0    0  0.10904435326E-01 -0.22406928324E-01  0.17537883108E-01  0.10134578079E+01  0.10129995923E+01 0.  0.
     999903    2    3    3    0    0  0.81108347576E-01 -0.66773442956E-01  0.70219428070E-01  0.12797922427E+00  0.20264674556E-01 0.  0.
         14    1    1    2    0    0 -0.10904435326E-01  0.22406928324E-01 -0.17537883108E-01  0.30472192087E-01  0.00000000000E+00 0.  1.
     999901    1    3    3    0    0 -0.70203912250E-01  0.44366514632E-01 -0.52681544963E-01  0.88547858365E+00  0.88000000000E+00 0.  1.
        -11    1    4    4    0    0  0.34605536038E-01 -0.16494274424E-01  0.28659703813E-01  0.47866940124E-01  0.51100000000E-03 0. -1.
         11    1    4    4    0    0  0.46502811538E-01 -0.50279168532E-01  0.41559724258E-01  0.80112284143E-01  0.51100000000E-03 0.  1.
</event>
<event>
 8    1  0.1106905E+005  0.1043930E+01  0.7957747E-01            NaN
         13   -1    0    0    0    0  0.00000000000E+00  0.00000000000E+00  0.74505805969E-08  0.10566000000E+00  0.10566000000E+00 0. -1.
     999900   -1    0    0    0    0 -0.00000000000E+00 -0.00000000000E+00 -0.74505805969E-08  0.93827000000E+00  0.93827000000E+00 0.  1.
     999902    2    1    2    0    0  0.13833291630E-01  0.15348122717E-01 -0.12225573814E-01  0.10199218871E+01  0.10196392825E+01 0.  0.
     999903    2    3    3    0    0 -0.49993653680E-01  0.87869031573E-01  0.79341945533E-01  0.12991190305E+00  0.19016469591E-01 0.  0.
         14    1    1    2    0    0 -0.13833291630E-01 -0.15348122717E-01  0.12225573814E-01  0.24008112865E-01  0.00000000000E+00 0. -1.
     999901    1    3    3    0    0  0.63826945310E-01 -0.72520908856E-01 -0.91567519347E-01  0.89000998408E+00  0.88000000000E+00 0.  1.
        -11    1    4    4    0    0 -0.39458423446E-01  0.55182426358E-01  0.59562202339E-01  0.90277264182E-01  0.51100000000E-03 0. -1.
         11    1    4    4    0    0 -0.10535230234E-01  0.32686605214E-01  0.19779743194E-01  0.39634638870E-01  0.51100000000E-03 0.  1.
</event>
<event>
 8    1  0.1106905E+005  0.1043930E+01  0.7957747E-01            NaN
         13   -1    0    0    0    0  0.00000000000E+00  0.00000000000E+00  0.74505805969E-08  0.10566000000E+00  0.10566000000E+00 0. -1.
     999900   -1    0    0    0    0 -0.00000000000E+00 -0.00000000000E+00 -0.74505805969E-08  0.93827000000E+00  0.93827000000E+00 0.  1.
     999902    2    1    2    0    0 -0.71535717779E-02  0.17762953513E-01 -0.11946674772E-01  0.10213596844E+01  0.10211102711E+01 0.  0.
     999903    2    3    3    0    0  0.40992666020E-01  0.83242831939E-01  0.91159799217E-01  0.13162004854E+00  0.20098767345E-01 0.  0.
         14    1    1    2    0    0  0.71535717779E-02 -0.17762953513E-01  0.11946674772E-01  0.22570315567E-01  0.00000000000E+00 0. -1.
     999901    1    3    3    0    0 -0.48146237798E-01 -0.65479878427E-01 -0.10310647399E+00  0.88973963589E+00  0.88000000000E+00 0. -1.
        -11    1    4    4    0    0  0.98405669549E-02  0.19382343062E-01  0.34317782198E-01  0.40626140311E-01  0.51100000000E-03 0. -1.
         11    1    4    4    0    0  0.31152099065E-01  0.63860488878E-01  0.56842017020E-01  0.90993908234E-01  0.51100000000E-03 0.  1.
</event>
<event>
 8    1  0.1106905E+005  0.1043930E+01  0.7957747E-01            NaN
         13   -1    0    0    0    0  0.00000000000E+00  0.00000000000E+00  0.74505805969E-08  0.10566000000E+00  0.10566000000E+00 0. -1.
     999900   -1    0    0    0    0 -0.00000000000E+00 -0.00000000000E+00 -0.74505805969E-08  0.93827000000E+00  0.93827000000E+00 0.  1.
     999902    2    1    2    0    0 -0.13714329683E-01 -0.74548616764E-02  0.31628630179E-01  0.10086592182E+01  0.10080423555E+01 0.  0.
     999903    2    3    3    0    0 -0.60072393314E-01 -0.85995051692E-01  0.61951939254E-01  0.12342640443E+00  0.19803867797E-01 0.  0.
         14    1    1    2    0    0  0.13714329683E-01  0.74548616764E-02 -0.31628630179E-01  0.35270781792E-01  0.00000000000E+00 0.  1.
     999901    1    3    3    0    0  0.46358063631E-01  0.78540190016E-01 -0.30323309075E-01  0.88523281378E+00  0.88000000000E+00 0. -1.
        -11    1    4    4    0    0 -0.20255255165E-01 -0.31469055443E-01  0.33237422131E-01  0.50055610707E-01  0.51100000000E-03 0.  1.
         11    1    4    4    0    0 -0.39817138149E-01 -0.54525996249E-01  0.28714517123E-01  0.73370793726E-01  0.51100000000E-03 0. -1.
</event>
<event>
 8    1  0.1106905E+005  0.1043930E+01  0.7957747E-01            NaN
         13   -1    0    0    0    0  0.00000000000E+00  0.00000000000E+00  0.74505805969E-08  0.10566000000E+00  0.10566000000E+00 0.  1.
     999900   -1    0    0    0    0 -0.00000000000E+00 -0.00000000000E+00 -0.74505805969E-08  0.93827000000E+00  0.93827000000E+00 0. -1.
     999902    2    1    2    0    0 -0.69712320073E-02 -0.21977953268E-01  0.56419039947E-02  0.10201926963E+01  0.10199165054E+01 0.  0.
     999903    2    3    3    0    0 -0.47859138108E-01 -0.12327313679E-01  0.12059942599E+00  0.13172199473E+00  0.19078851768E-01 0.  0.
         14    1    1    2    0    0  0.69712320073E-02  0.21977953268E-01 -0.56419039947E-02  0.23737303685E-01  0.00000000000E+00 0. -1.
     999901    1    3    3    0    0  0.40887906101E-01 -0.96506395891E-02 -0.11495752199E+00  0.88847070158E+00  0.88000000000E+00 0. -1.
        -11    1    4    4    0    0 -0.14554167834E-01  0.45571660330E-02  0.42427082955E-01  0.45087803813E-01  0.51100000000E-03 0.  1.
         11    1    4    4    0    0 -0.33304970275E-01 -0.16884479712E-01  0.78172343031E-01  0.86634190918E-01  0.51100000000E-03 0. -1.
</event>
<event>
 8    1  0.1106905E+005  0.1043930E+01  0.7957747E-01            NaN
         13   -1    0    0    0    0  0.00000000000E+00  0.00000000000E+00  0.74505805969E-08  0.10566000000E+00  0.10566000000E+00 0.  1.
     999900   -1    0    0    0    0 -0.00000000000E+00 -0.00000000000E+00 -0.74505805969E-08  0.93827000000E+00  0.93827000000E+00 0. -1.
     999902    2    1    2    0    0  0.61665063597E-02 -0.23071935411E-01 -0.18326963057E-03  0.10200475045E+01  0.10197678843E+01 0.  0.
     999903    2    3    3    0    0 -0.10059229418E+00 -0.58882405106E-01 -0.55227848361E-01  0.13116633308E+00  0.23844169508E-01 0.  0.
         14    1    1    2    0    0 -0.61665063597E-02  0.23071935411E-01  0.18326963057E-03  0.23882495516E-01  0.00000000000E+00 0. -1.
     999901    1    3    3    0    0  0.10675880054E+00  0.35810469695E-01  0.55044578730E-01  0.88888117141E+00  0.88000000000E+00 0.  1.
        -11    1    4    4    0    0 -0.81452679699E-02 -0.12555471661E-01 -0.11559448485E-01  0.18917379025E-01  0.51100000000E-03 0. -1.
         11    1    4    4    0    0 -0.92447026209E-01 -0.46326933446E-01 -0.43668399876E-01  0.11224895405E+00  0.51100000000E-03 0.  1.
</event>
<event>
 8    1  0.1106905E+005  0.1043930E+01  0.7957747E-01            NaN
         13   -1    0    0    0    0  0.00000000000E+00  0.00000000000E+00  0.74505805969E-08  0.10566000000E+00  0.10566000000E+00 0.  1.
     999900   -1    0    0    0    0 -0.00000000000E+00 -0.00000000000E+00 -0.74505805969E-08  0.93827000000E+00  0.93827000000E+00 0.  1.
     999902    2    1    2    0    0 -0.18276827413E-01 -0.11635382730E-01 -0.94005899587E-02  0.10203123023E+01  0.10200389202E+01 0.  0.
     999903    2    3    3    0    0  0.48569786334E-01 -0.11452792285E+00  0.34691914323E-01  0.13070593235E+00  0.20120700162E-01 0.  0.
         14    1    1    2    0    0  0.18276827413E-01  0.11635382730E-01  0.94005899587E-02  0.23617697668E-01  0.00000000000E+00 0.  1.
     999901    1    3    3    0    0 -0.66846613747E-01  0.10289254012E+00 -0.44092504282E-01  0.88960636998E+00  0.88000000000E+00 0. -1.
        -11    1    4    4    0    0  0.23981023762E-01 -0.32719935850E-01  0.12333354283E-01  0.42403495747E-01  0.51100000000E-03 0.  1.
         11    1    4    4    0    0  0.24588762572E-01 -0.81807986999E-01  0.22358560039E-01  0.88302436601E-01  0.51100000000E-03 0. -1.
</event>
<event>
 8    1  0.1106905E+005  0.1043930E+01  0.7957747E-01            NaN
         13   -1    0    0    0    0  0.00000000000E+00  0.00000000000E+00  0.74505805969E-08  0.10566000000E+00  0.10566000000E+00 0. -1.
     999900   -1    0    0    0    0 -0.00000000000E+00 -0.00000000000E+00 -0.74505805969E-08  0.93827000000E+00  0.93827000000E+00 0. -1.
     999902    2    1    2    0    0 -0.61088742357E-02  0.30198246854E-02  0.22450610852E-01  0.10204679538E+01  0.10201982048E+01 0.  0.
     999903    2    3    3    0    0 -0.17417701371E-01 -0.84400922617E-01  0.99002740266E-01  0.13275713084E+00  0.19900280134E-01 0.  0.
         14    1    1    2    0    0  0.61088742357E-02 -0.30198246854E-02 -0.22450610852E-01  0.23462046228E-01  0.00000000000E+00 0.  1.
     999901    1    3    3    0    0  0.11308827135E-01  0.87420747303E-01 -0.76552129414E-01  0.88771082293E+00  0.88000000000E+00 0. -1.
        -11    1    4    4    0    0  0.98026962577E-03 -0.42107721601E-01  0.42803133521E-01  0.60053230614E-01  0.51100000000E-03 0.  1.
         11    1    4    4    0    0 -0.18397970996E-01 -0.42293201016E-01  0.56199606746E-01  0.72703900228E-01  0.51100000000E-03 0. -1.
</event>
<event>
 8    1  0.1106905E+005  0.1043930E+01  0.7957747E-01            NaN
         13   -1    0    0    0    0  0.00000000000E+00  0.00000000000E+00  0.74505805969E-08  0.10566000000E+00  0.10566000000E+00 0.  1.
     999900   -1    0    0    0    0 -0.00000000000E+00 -0.00000000000E+00 -0.74505805969E-08  0.93827000000E+00  0.93827000000E+00 0.  1.
     999902    2    1    2    0    0 -0.96984659392E-02 -0.90254536532E-04  0.21603284108E-01  0.10202494115E+01  0.10199745543E+01 0.  0.
     999903    2    3    3    0    0 -0.45011710091E-01 -0.12131379589E+00 -0.20194965601E-02  0.13092370741E+00  0.19845595886E-01 0.  0.
         14    1    1    2    0    0  0.96984659392E-02  0.90254536532E-04 -0.21603284108E-01  0.23680588500E-01  0.00000000000E+00 0. -1.
     999901    1    3    3    0    0  0.35313244152E-01  0.12122354136E+00  0.23622780668E-01  0.88932570409E+00  0.88000000000E+00 0.  1.
        -11    1    4    4    0    0  0.20419690513E-02 -0.57077083756E-02  0.21981943436E-03  0.60874472557E-02  0.51100000000E-03 0. -1.
         11    1    4    4    0    0 -0.47053679142E-01 -0.11560608752E+00 -0.22393159944E-02  0.12483626015E+00  0.51100000000E-03 0.  1.
</event>
<event>
 8    1  0.1106905E+005  0.1043930E+01  0.7957747E-01            NaN
         13   -1    0    0    0    0  0.00000000000E+00  0.00000000000E+00  0.74505805969E-08  0.10566000000E+00  0.10566000000E+00 0.  1.
     999900   -1    0    0    0    0 -0.00000000000E+00 -0.00000000000E+00 -0.74505805969E-08  0.93827000000E+00  0.93827000000E+00 0. -1.
     999902    2    1    2    0    0 -0.17549630751E-01  0.10645030887E-01 -0.43889033289E-02  0.10229402717E+01  0.10227249047E+01 0.  0.
     999903    2    3    3    0    0 -0.33166274602E-01 -0.70673609841E-01 -0.10608388441E+00  0.13322207469E+00  0.19989240983E-01 0.  0.
         14    1    1    2    0    0  0.17549630751E-01 -0.10645030887E-01  0.43889033289E-02  0.20989728309E-01  0.00000000000E+00 0. -1.
     999901    1    3    3    0    0  0.15616643852E-01  0.81318640728E-01  0.10169498108E+00  0.88971819700E+00  0.88000000000E+00 0.  1.
        -11    1    4    4    0    0 -0.77116645050E-02 -0.53289956688E-02 -0.20704536608E-01  0.22733387812E-01  0.51100000000E-03 0. -1.
         11    1    4    4    0    0 -0.25454610097E-01 -0.65344614173E-01 -0.85379347800E-01  0.11048868688E+00  0.51100000000E-03 0.  1.
</event>
<event>
 8    1  0.1106905E+005  0.1043930E+01  0.7957747E-01            NaN
         13   -1    0    0    0    0  0.00000000000E+00  0.00000000000E+00  0.74505805969E-08  0.10566000000E+00  0.10566000000E+00 0.  1.
     999900   -1    0    0    0    0 -0.00000000000E+00 -0.00000000000E+00 -0.74505805969E-08  0.93827000000E+00  0.93827000000E+00 0.  1.
     999902    2    1    2    0    0 -0.21775592317E-01  0.80374453859E-02 -0.47296180400E-02  0.10202414746E+01  0.10199664309E+01 0.  0.
     999903    2    3    3    0    0  0.90431428168E-01  0.85912094178E-01 -0.28452803233E-01  0.12938926133E+00  0.19320657548E-01 0.  0.
         14    1    1    2    0    0  0.21775592317E-01 -0.80374453859E-02  0.47296180400E-02  0.23688525405E-01  0.00000000000E+00 0.  1.
     999901    1    3    3    0    0 -0.11220702048E+00 -0.77874648792E-01  0.23723185193E-01  0.89085221327E+00  0.88000000000E+00 0. -1.
        -11    1    4    4    0    0  0.47721765036E-01  0.58342925614E-01 -0.17744124321E-01  0.77436289272E-01  0.51100000000E-03 0. -1.
         11    1    4    4    0    0  0.42709663132E-01  0.27569168564E-01 -0.10708678911E-01  0.51952972054E-01  0.51100000000E-03 0.  1.
</event>
<event>
 8    1  0.1106905E+005  0.1043930E+01  0.7957747E-01            NaN
         13   -1    0    0    0    0  0.00000000000E+00  0.00000000000E+00  0.74505805969E-08  0.10566000000E+00  0.10566000000E+00 0.  1.
     999900   -1    0    0    0    0 -0.00000000000E+00 -0.00000000000E+00 -0.74505805969E-08  0.93827000000E+00  0.93827000000E+00 0.  1.
     999902    2    1    2    0    0  0.76466355095E-02 -0.15837707292E-01 -0.14330697050E-01  0.10212435969E+01  0.10209915824E+01 0.  0.
     999903    2    3    3    0    0 -0.97511172654E-01  0.75499588982E-01 -0.36688935850E-01  0.13000818629E+00  0.18639575116E-01 0.  0.
         14    1    1    2    0    0 -0.76466355095E-02  0.15837707292E-01  0.14330697050E-01  0.22686403083E-01  0.00000000000E+00 0.  1.
     999901    1    3    3    0    0  0.10515780816E+00 -0.91337296274E-01  0.22358238800E-01  0.89123541062E+00  0.88000000000E+00 0. -1.
        -11    1    4    4    0    0 -0.29712992209E-01  0.33836712536E-01 -0.10620451825E-01  0.46269213730E-01  0.51100000000E-03 0. -1.
         11    1    4    4    0    0 -0.67798180446E-01  0.41662876446E-01 -0.26068484026E-01  0.83738972563E-01  0.51100000000E-03 0.  1.
</event>
<event>
 8    1  0.1106905E+005  0.1043930E+01  0.7957747E-01            NaN
         13   -1    0    0    0    0  0.00000000000E+00  0.00000000000E+00  0.74505805969E-08  0.10566000000E+00  0.10566000000E+00 0. -1.
     999900   -1    0    0    0    0 -0.00000000000E+00 -0.00000000000E+00 -0.74505805969E-08  0.93827000000E+00  0.93827000000E+00 0. -1.
     999902    2    1    2    0    0 -0.20341447272E-01  0.11218400048E-01 -0.39953563188E-02  0.10203590465E+01  0.10200867580E+01 0.  0.
     999903    2    3    3    0    0  0.54077516495E-01  0.65507856072E-01 -0.97186769293E-01  0.13065675547E+00  0.20254940836E-01 0.  0.
         14    1    1    2    0    0  0.20341447272E-01 -0.11218400048E-01  0.39953563188E-02  0.23570953500E-01  0.00000000000E+00 0.  1.
     999901    1    3    3    0    0 -0.74418963768E-01 -0.54289456024E-01  0.93191412974E-01  0.88970229103E+00  0.88000000000E+00 0.  1.
        -11    1    4    4    0    0  0.29337107787E-01  0.49935708351E-01 -0.60664315768E-01  0.83872887100E-01  0.51100000000E-03 0.  1.
         11    1    4    4    0    0  0.24740408708E-01  0.15572147720E-01 -0.36522453525E-01  0.46783868375E-01  0.51100000000E-03 0. -1.
</event>
<event>
 8    1  0.1106905E+005  0.1043930E+01  0.7957747E-01            NaN
         13   -1    0    0    0    0  0.00000000000E+00  0.00000000000E+00  0.74505805969E-08  0.10566000000E+00  0.10566000000E+00 0.  1.
     999900   -1    0    0    0    0 -0.00000000000E+00 -0.00000000000E+00 -0.74505805969E-08  0.93827000000E+00  0.93827000000E+00 0.  1.
     999902    2    1    2    0    0 -0.74068389584E-02  0.22516657917E-01  0.30474776555E-02  0.10200312915E+01  0.10197512870E+01 0.  0.
     999903    2    3    3    0    0 -0.61103320840E-01  0.70294722814E-02  0.11379245625E+00  0.13133133351E+00  0.22719303748E-01 0.  0.
         14    1    1    2    0    0  0.74068389584E-02 -0.22516657917E-01 -0.30474776555E-02  0.23898708483E-01  0.00000000000E+00 0. -1.
     999901    1    3    3    0    0  0.53696481881E-01  0.15487185635E-01 -0.11074497859E+00  0.88869995801E+00  0.88000000000E+00 0.  1.
        -11    1    4    4    0    0 -0.41144056578E-01  0.14215956317E-01  0.85721904118E-01  0.96142772855E-01  0.51100000000E-03 0. -1.
         11    1    4    4    0    0 -0.19959264262E-01 -0.71864840351E-02  0.28070552132E-01  0.35188560651E-01  0.51100000000E-03 0.  1.
</event>
<event>
 8    1  0.1106905E+005  0.1043930E+01  0.7957747E-01            NaN
         13   -1    0    0    0    0  0.00000000000E+00  0.00000000000E+00  0.74505805969E-08  0.10566000000E+00  0.10566000000E+00 0.  1.
     999900   -1    0    0    0    0 -0.00000000000E+00 -0.00000000000E+00 -0.74505805969E-08  0.93827000000E+00  0.93827000000E+00 0.  1.
     999902    2    1    2    0    0 -0.89426075046E-02 -0.95891563313E-02  0.19712151034E-01  0.10202553079E+01  0.10199805891E+01 0.  0.
     999903    2    3    3    0    0  0.37084349858E-01 -0.48136608428E-01 -0.11141768042E+00  0.12851576096E+00  0.20248931548E-01 0.  0.
         14    1    1    2    0    0  0.89426075046E-02  0.95891563313E-02 -0.19712151034E-01  0.23674692110E-01  0.00000000000E+00 0. -1.
     999901    1    3    3    0    0 -0.46026957362E-01  0.38547452097E-01  0.13112983145E+00  0.89173954693E+00  0.88000000000E+00 0. -1.
        -11    1    4    4    0    0  0.14399136377E-01 -0.50039314698E-02 -0.24232670474E-01  0.28633160808E-01  0.51100000000E-03 0. -1.
         11    1    4    4    0    0  0.22685213481E-01 -0.43132676958E-01 -0.87185009946E-01  0.99882600149E-01  0.51100000000E-03 0.  1.
</event>
<event>
 8    1  0.1106905E+005  0.1043930E+01  0.7957747E-01            NaN
         13   -1    0    0    0    0  0.00000000000E+00  0.00000000000E+00  0.74505805969E-08  0.10566000000E+00  0.10566000000E+00 0.  1.
     999900   -1    0    0    0    0 -0.00000000000E+00 -0.00000000000E+00 -0.74505805969E-08  0.93827000000E+00  0.93827000000E+00 0. -1.
     999902    2    1    2    0    0 -0.16405784191E-01 -0.56319859647E-02 -0.16356084758E-01  0.10200890577E+01  0.10198104212E+01 0.  0.
     999903    2    3    3    0    0  0.78664978525E-01 -0.66989382601E-01 -0.77635098978E-01  0.13073069482E+00  0.19686283254E-01 0.  0.
         14    1    1    2    0    0  0.16405784191E-01  0.56319859647E-02  0.16356084758E-01  0.23840942293E-01  0.00000000000E+00 0.  1.
     999901    1    3    3    0    0 -0.95070762716E-01  0.61357396637E-01  0.61279014220E-01  0.88935836288E+00  0.88000000000E+00 0.  1.
        -11    1    4    4    0    0  0.48529905821E-01 -0.41251181944E-01 -0.35648533091E-01  0.72992402367E-01  0.51100000000E-03 0.  1.
         11    1    4    4    0    0  0.30135072705E-01 -0.25738200658E-01 -0.41986565886E-01  0.57738292458E-01  0.51100000000E-03 0. -1.
</event>
<event>
 8    1  0.1106905E+005  0.1043930E+01  0.7957747E-01            NaN
         13   -1    0    0    0    0  0.00000000000E+00  0.00000000000E+00  0.74505805969E-08  0.10566000000E+00  0.10566000000E+00 0. -1.
     999900   -1    0    0    0    0 -0.00000000000E+00 -0.00000000000E+00 -0.74505805969E-08  0.93827000000E+00  0.93827000000E+00 0.  1.
     999902    2    1    2    0    0  0.12142473799E-01  0.35039492396E-02 -0.19853924934E-01  0.10203950119E+01  0.10201235634E+01 0.  0.
     999903    2    3    3    0    0  0.60249651970E-02 -0.96091114313E-01  0.83270151092E-01  0.12877223534E+00  0.19456825967E-01 0.  0.
         14    1    1    2    0    0 -0.12142473799E-01 -0.35039492396E-02  0.19853924934E-01  0.23534988113E-01  0.00000000000E+00 0. -1.
     999901    1    3    3    0    0  0.61175086016E-02  0.99595063553E-01 -0.10312407603E+00  0.89162277654E+00  0.88000000000E+00 0.  1.
        -11    1    4    4    0    0 -0.32178115830E-04 -0.55592404923E-01  0.36014168373E-01  0.66240455653E-01  0.51100000000E-03 0. -1.
         11    1    4    4    0    0  0.60571433128E-02 -0.40498709390E-01  0.47255982720E-01  0.62531779689E-01  0.51100000000E-03 0.  1.
</event>
<event>
 8    1  0.1106905E+005  0.1043930E+01  0.7957747E-01            NaN
         13   -1    0    0    0    0  0.00000000000E+00  0.00000000000E+00  0.74505805969E-08  0.10566000000E+00  0.10566000000E+00 0. -1.
     999900   -1    0    0    0    0 -0.00000000000E+00 -0.00000000000E+00 -0.74505805969E-08  0.93827000000E+00  0.93827000000E+00 0. -1.
     999902    2    1    2    0    0  0.12665423978E-01 -0.12605543192E-01 -0.15559661184E-01  0.10202357868E+01  0.10199606095E+01 0.  0.
     999903    2    3    3    0    0  0.36225846777E-01 -0.10297360311E+00  0.69884318561E-01  0.13117889690E+00  0.20204209960E-01 0.  0.
         14    1    1    2    0    0 -0.12665423978E-01  0.12605543192E-01  0.15559661184E-01  0.23694213215E-01  0.00000000000E+00 0. -1.
     999901    1    3    3    0    0 -0.23560422800E-01  0.90368059914E-01 -0.85443979745E-01  0.88905688988E+00  0.88000000000E+00 0.  1.
        -11    1    4    4    0    0  0.13673573581E-01 -0.46244026244E-01  0.19485973101E-01  0.52013852447E-01  0.51100000000E-03 0. -1.
         11    1    4    4    0    0  0.22552273197E-01 -0.56729576862E-01  0.50398345460E-01  0.79165044454E-01  0.51100000000E-03 0.  1.
</event>
<event>
 8    1  0.1106905E+005  0.1043930E+01  0.7957747E-01            NaN
         13   -1    0    0    0    0  0.00000000000E+00  0.00000000000E+00  0.74505805969E-08  0.10566000000E+00  0.10566000000E+00 0.  1.
     999900   -1    0    0    0    0 -0.00000000000E+00 -0.00000000000E+00 -0.74505805969E-08  0.93827000000E+00  0.93827000000E+00 0.  1.
     999902    2    1    2    0    0  0.57581419960E-02  0.22876519260E-01 -0.44569438152E-02  0.10199225911E+01  0.10196400032E+01 0.  0.
     999903    2    3    3    0    0 -0.87621368861E-02 -0.12252938607E+00  0.26878068784E-01  0.12732212125E+00  0.19956615078E-01 0.  0.
         14    1    1    2    0    0 -0.57581419960E-02 -0.22876519260E-01  0.44569438152E-02  0.24007408874E-01  0.00000000000E+00 0.  1.
     999901    1    3    3    0    0  0.14520278882E-01  0.14540590533E+00 -0.31335012600E-01  0.89260046987E+00  0.88000000000E+00 0.  1.
        -11    1    4    4    0    0 -0.66355419196E-02 -0.89310090336E-01  0.10349898859E-01  0.90153780730E-01  0.51100000000E-03 0.  1.
         11    1    4    4    0    0 -0.21265949665E-02 -0.33219295732E-01  0.16528169926E-01  0.37168340523E-01  0.51100000000E-03 0. -1.
</event>
<event>
 8    1  0.1106905E+005  0.1043930E+01  0.7957747E-01            NaN
         13   -1    0    0    0    0  0.00000000000E+00  0.00000000000E+00  0.74505805969E-08  0.10566000000E+00  0.10566000000E+00 0.  1.
     999900   -1    0    0    0    0 -0.00000000000E+00 -0.00000000000E+00 -0.74505805969E-08  0.93827000000E+00  0.93827000000E+00 0. -1.
     999902    2    1    2    0    0 -0.40472565222E-02  0.18248608233E-01 -0.14625480145E-01  0.10201961285E+01  0.10199200184E+01 0.  0.
     999903    2    3    3    0    0 -0.59004685894E-01  0.11131768932E+00  0.34482785584E-01  0.13222439770E+00  0.20519452565E-01 0.  0.
         14    1    1    2    0    0  0.40472565222E-02 -0.18248608233E-01  0.14625480145E-01  0.23733871519E-01  0.00000000000E+00 0. -1.
     999901    1    3    3    0    0  0.54957429371E-01 -0.93069081086E-01 -0.49108265730E-01  0.88797173078E+00  0.88000000000E+00 0. -1.
        -11    1    4    4    0    0 -0.52790015068E-01  0.84204987710E-01  0.31428872153E-01  0.10423675346E+00  0.51100000000E-03 0. -1.
         11    1    4    4    0    0 -0.62146708255E-02  0.27112701609E-01  0.30539134311E-02  0.27987644243E-01  0.51100000000E-03 0.  1.
</event>
<event>
 8    1  0.1106905E+005  0.1043930E+01  0.7957747E-01            NaN
         13   -1    0    0    0    0  0.00000000000E+00  0.00000000000E+00  0.74505805969E-08  0.10566000000E+00  0.10566000000E+00 0.  1.
     999900   -1    0    0    0    0 -0.00000000000E+00 -0.00000000000E+00 -0.74505805969E-08  0.93827000000E+00  0.93827000000E+00 0. -1.
     999902    2    1    2    0    0  0.12207388114E-01 -0.94063739720E-02 -0.17513680359E-01  0.10206012796E+01  0.10203346229E+01 0.  0.
     999903    2    3    3    0    0 -0.83365726838E-01  0.69441413121E-01 -0.69417871418E-01  0.13040734630E+00  0.20378440310E-01 0.  0.
         14    1    1    2    0    0 -0.12207388114E-01  0.94063739720E-02  0.17513680359E-01  0.23328720402E-01  0.00000000000E+00 0.  1.
     999901    1    3    3    0    0  0.95573114952E-01 -0.78847787093E-01  0.51904191059E-01  0.89019393330E+00  0.88000000000E+00 0.  1.
        -11    1    4    4    0    0 -0.60443152623E-01  0.40777876233E-01 -0.38722253212E-01  0.82558366649E-01  0.51100000000E-03 0.  1.
         11    1    4    4    0    0 -0.22922574215E-01  0.28663536889E-01 -0.30695618205E-01  0.47848979651E-01  0.51100000000E-03 0. -1.
</event>
<event>
 8    1  0.1106905E+005  0.1043930E+01  0.7957747E-01            NaN
         13   -1    0    0    0    0  0.00000000000E+00  0.00000000000E+00  0.74505805969E-08  0.10566000000E+00  0.10566000000E+00 0. -1.
     999900   -1    0    0    0    0 -0.00000000000E+00 -0.00000000000E+00 -0.74505805969E-08  0.93827000000E+00  0.93827000000E+00 0. -1.
     999902    2    1    2    0    0 -0.27672967659E-02  0.16818548908E-01  0.15888156031E-01  0.10206286047E+01  0.10203625796E+01 0.  0.
     999903    2    3    3    0    0  0.59565495372E-01 -0.81496892258E-01  0.80425975428E-01  0.13061937273E+00  0.20082114458E-01 0.  0.
         14    1    1    2    0    0  0.27672967659E-02 -0.16818548908E-01 -0.15888156031E-01  0.23301395254E-01  0.00000000000E+00 0.  1.
     999901    1    3    3    0    0 -0.62332792138E-01  0.98315441166E-01 -0.64537819398E-01  0.89000923202E+00  0.88000000000E+00 0. -1.
        -11    1    4    4    0    0  0.21330902422E-01 -0.22679152713E-01  0.35921789903E-01  0.47539325582E-01  0.51100000000E-03 0.  1.
         11    1    4    4    0    0  0.38234592950E-01 -0.58817739545E-01  0.44504185525E-01  0.83080047144E-01  0.51100000000E-03 0. -1.
</event>
<event>
 8    1  0.1106905E+005  0.1043930E+01  0.7957747E-01            NaN
         13   -1    0    0    0    0  0.00000000000E+00  0.00000000000E+00  0.74505805969E-08  0.10566000000E+00  0.10566000000E+00 0. -1.
     999900   -1    0    0    0    0 -0.00000000000E+00 -0.00000000000E+00 -0.74505805969E-08  0.93827000000E+00  0.93827000000E+00 0.  1.
     999902    2    1    2    0    0 -0.42127254921E-02  0.21133467509E-01 -0.12098770712E-01  0.10192166280E+01  0.10189169662E+01 0.  0.
     999903    2    3    3    0    0 -0.73631464342E-01 -0.19572779190E-01  0.10111076403E+00  0.12832249363E+00  0.20942529499E-01 0.  0.
         14    1    1    2    0    0  0.42127254921E-02 -0.21133467509E-01  0.12098770712E-01  0.24713372044E-01  0.00000000000E+00 0. -1.
     999901    1    3    3    0    0  0.69418738850E-01  0.40706246700E-01 -0.11320953474E+00  0.89089413433E+00  0.88000000000E+00 0.  1.
        -11    1    4    4    0    0 -0.37048613406E-01  0.62478951364E-03  0.43386611262E-01  0.57058297162E-01  0.51100000000E-03 0.  1.
         11    1    4    4    0    0 -0.36582850936E-01 -0.20197568704E-01  0.57724152767E-01  0.71264196465E-01  0.51100000000E-03 0. -1.
</event>
<event>
 8    1  0.1106905E+005  0.1043930E+01  0.7957747E-01            NaN
         13   -1    0    0    0    0  0.00000000000E+00  0.00000000000E+00  0.74505805969E-08  0.10566000000E+00  0.10566000000E+00 0.  1.
     999900   -1    0    0    0    0 -0.00000000000E+00 -0.00000000000E+00 -0.74505805969E-08  0.93827000000E+00  0.93827000000E+00 0. -1.
     999902    2    1    2    0    0  0.18148596297E-01  0.89123821687E-02 -0.11083564486E-01  0.10208725174E+01  0.10206120954E+01 0.  0.
     999903    2    3    3    0    0  0.10901213422E+00  0.15840858357E-01 -0.73622759590E-01  0.13395914098E+00  0.19752531995E-01 0.  0.
         14    1    1    2    0    0 -0.18148596297E-01 -0.89123821687E-02  0.11083564486E-01  0.23057482629E-01  0.00000000000E+00 0. -1.
     999901    1    3    3    0    0 -0.90863537924E-01 -0.69284761888E-02  0.62539195104E-01  0.88691337640E+00  0.88000000000E+00 0.  1.
        -11    1    4    4    0    0  0.49167114012E-01  0.14586660548E-01 -0.41810463635E-01  0.66170626086E-01  0.51100000000E-03 0.  1.
         11    1    4    4    0    0  0.59845020209E-01  0.12541978093E-02 -0.31812295955E-01  0.67788514889E-01  0.51100000000E-03 0. -1.
</event>
<event>
 8    1  0.1106905E+005  0.1043930E+01  0.7957747E-01            NaN
         13   -1    0    0    0    0  0.00000000000E+00  0.00000000000E+00  0.74505805969E-08  0.10566000000E+00  0.10566000000E+00 0. -1.
     999900   -1    0    0    0    0 -0.00000000000E+00 -0.00000000000E+00 -0.74505805969E-08  0.93827000000E+00  0.93827000000E+00 0. -1.
     999902    2    1    2    0    0 -0.36165813966E-02  0.18301887725E-01  0.15720281028E-01  0.10195339759E+01  0.10192420527E+01 0.  0.
     999903    2    3    3    0    0  0.10323068593E+00  0.73797156104E-01  0.26829003965E-01  0.13126629832E+00  0.20210167065E-01 0.  0.
         14    1    1    2    0    0  0.36165813966E-02 -0.18301887725E-01 -0.15720281028E-01  0.24396024080E-01  0.00000000000E+00 0.  1.
     999901    1    3    3    0    0 -0.10684726733E+00 -0.55495268379E-01 -0.11108722938E-01  0.88826767760E+00  0.88000000000E+00 0. -1.
        -11    1    4    4    0    0  0.27293373140E-01  0.27665138508E-01  0.15913713969E-02  0.38898350735E-01  0.51100000000E-03 0. -1.
         11    1    4    4    0    0  0.75937312794E-01  0.46132017596E-01  0.25237632568E-01  0.92367947582E-01  0.51100000000E-03 0.  1.
</event>
<event>
 8    1  0.1106905E+005  0.1043930E+01  0.7957747E-01            NaN
         13   -1    0    0    0    0  0.00000000000E+00  0.00000000000E+00  0.74505805969E-08  0.10566000000E+00  0.10566000000E+00 0.  1.
     999900   -1    0    0    0    0 -0.00000000000E+00 -0.00000000000E+00 -0.74505805969E-08  0.93827000000E+00  0.93827000000E+00 0. -1.
     999902    2    1    2    0    0 -0.18415766234E-01 -0.16368753217E-01  0.96373603533E-02  0.10174733327E+01  0.10171293072E+01 0.  0.
     999903    2    3    3    0    0 -0.74554017814E-01  0.75609421493E-01  0.70125065692E-01  0.12883940901E+00  0.20173801930E-01 0.  0.
         14    1    1    2    0    0  0.18415766234E-01  0.16368753217E-01 -0.96373603533E-02  0.26456667259E-01  0.00000000000E+00 0. -1.
     999901    1    3    3    0    0  0.56138251579E-01 -0.91978174710E-01 -0.60487705339E-01  0.88863392373E+00  0.88000000000E+00 0. -1.
        -11    1    4    4    0    0 -0.50951883341E-01  0.43289836876E-01  0.52942500810E-01  0.85283491402E-01  0.51100000000E-03 0. -1.
         11    1    4    4    0    0 -0.23602134473E-01  0.32319584617E-01  0.17182564882E-01  0.43555917605E-01  0.51100000000E-03 0.  1.
</event>
<event>
 8    1  0.1106905E+005  0.1043930E+01  0.7957747E-01            NaN
         13   -1    0    0    0    0  0.00000000000E+00  0.00000000000E+00  0.74505805969E-08  0.10566000000E+00  0.10566000000E+00 0. -1.
     999900   -1    0    0    0    0 -0.00000000000E+00 -0.00000000000E+00 -0.74505805969E-08  0.93827000000E+00  0.93827000000E+00 0.  1.
     999902    2    1    2    0    0  0.38205087389E-02  0.21413801545E-01 -0.71611859527E-02  0.10210295684E+01  0.10207727219E+01 0.  0.
     999903    2    3    3    0    0 -0.10740175305E+00 -0.52339570030E-01  0.45298012086E-01  0.12942319852E+00  0.20588522723E-01 0.  0.
         14    1    1    2    0    0 -0.38205087389E-02 -0.21413801545E-01  0.71611859527E-02  0.22900431609E-01  0.00000000000E+00 0. -1.
     999901    1    3    3    0    0  0.11122226179E+00  0.73753371575E-01 -0.52459198039E-01  0.89160636987E+00  0.88000000000E+00 0.  1.
        -11    1    4    4    0    0 -0.33301342442E-01 -0.27032869303E-01  0.14497244620E-01  0.45278986889E-01  0.51100000000E-03 0. -1.
         11    1    4    4    0    0 -0.74100410604E-01 -0.25306700727E-01  0.30800767466E-01  0.84144211631E-01  0.51100000000E-03 0.  1.
</event>
<event>
 8    1  0.1106905E+005  0.1043930E+01  0.7957747E-01            NaN
         13   -1    0    0    0    0  0.00000000000E+00  0.00000000000E+00  0.74505805969E-08  0.10566000000E+00  0.10566000000E+00 0.  1.
     999900   -1    0    0    0    0 -0.00000000000E+00 -0.00000000000E+00 -0.74505805969E-08  0.93827000000E+00  0.93827000000E+00 0. -1.
     999902    2    1    2    0    0 -0.31452810422E-02 -0.20034787536E-01  0.11416187764E-01  0.10206573799E+01  0.10203920189E+01 0.  0.
     999903    2    3    3    0    0 -0.77081952418E-01  0.91650207620E-01  0.46070476945E-01  0.12984814705E+00  0.19916437991E-01 0.  0.
         14    1    1    2    0    0  0.31452810422E-02  0.20034787536E-01 -0.11416187764E-01  0.23272620126E-01  0.00000000000E+00 0. -1.
     999901    1    3    3    0    0  0.73936671376E-01 -0.11168499516E+00 -0.34654289181E-01  0.89080923282E+00  0.88000000000E+00 0.  1.
        -11    1    4    4    0    0 -0.71648815274E-01  0.88701609010E-01  0.47432675833E-01  0.12349756285E+00  0.51100000000E-03 0.  1.
         11    1    4    4    0    0 -0.54331371445E-02  0.29485986104E-02 -0.13621988876E-02  0.63505842098E-02  0.51100000000E-03 0. -1.
</event>
<event>
 8    1  0.1106905E+005  0.1043930E+01  0.7957747E-01            NaN
         13   -1    0    0    0    0  0.00000000000E+00  0.00000000000E+00  0.74505805969E-08  0.10566000000E+00  0.10566000000E+00 0.  1.
     999900   -1    0    0    0    0 -0.00000000000E+00 -0.00000000000E+00 -0.74505805969E-08  0.93827000000E+00  0.93827000000E+00 0.  1.
     999902    2    1    2    0    0  0.16485713347E-02 -0.23157965768E-01  0.40429087333E-02  0.10203640441E+01  0.10200918724E+01 0.  0.
     999903    2    3    3    0    0 -0.80393641473E-01  0.68608203277E-01 -0.70644251659E-01  0.12866335083E+00  0.19834929016E-01 0.  0.
         14    1    1    2    0    0 -0.16485713347E-02  0.23157965768E-01 -0.40429087333E-02  0.23565955889E-01  0.00000000000E+00 0. -1.
     999901    1    3    3    0    0  0.82042212808E-01 -0.91766169045E-01  0.74687160392E-01  0.89170069328E+00  0.88000000000E+00 0. -1.
        -11    1    4    4    0    0 -0.55860297143E-01  0.36258401484E-01 -0.38927794391E-01  0.77140642805E-01  0.51100000000E-03 0. -1.
         11    1    4    4    0    0 -0.24533344330E-01  0.32349801792E-01 -0.31716457268E-01  0.51522708029E-01  0.51100000000E-03 0.  1.
</event>
<event>
 8    1  0.1106905E+005  0.1043930E+01  0.7957747E-01            NaN
         13   -1    0    0    0    0  0.00000000000E+00  0.00000000000E+00  0.74505805969E-08  0.10566000000E+00  0.10566000000E+00 0. -1.
     999900   -1    0    0    0    0 -0.00000000000E+00 -0.00000000000E+00 -0.74505805969E-08  0.93827000000E+00  0.93827000000E+00 0. -1.
     999902    2    1    2    0    0  0.17001102077E-01  0.12836761912E-01  0.39451730237E-03  0.10226232975E+01  0.10224013072E+01 0.  0.
     999903    2    3    3    0    0  0.12228215910E+00  0.52813350881E-01  0.84494808349E-02  0.13541018268E+00  0.22854920294E-01 0.  0.
         14    1    1    2    0    0 -0.17001102077E-01 -0.12836761912E-01 -0.39451730237E-03  0.21306702516E-01  0.00000000000E+00 0. -1.
     999901    1    3    3    0    0 -0.10528105703E+00 -0.39976588969E-01 -0.80549635326E-02  0.88721311480E+00  0.88000000000E+00 0. -1.
        -11    1    4    4    0    0  0.72948504392E-01  0.20740351854E-01 -0.78197947448E-03  0.75845363082E-01  0.51100000000E-03 0. -1.
         11    1    4    4    0    0  0.49333654713E-01  0.32072999027E-01  0.92314603094E-02  0.59564819603E-01  0.51100000000E-03 0.  1.
</event>
<event>
 8    1  0.1106905E+005  0.1043930E+01  0.7957747E-01            NaN
         13   -1    0    0    0    0  0.00000000000E+00  0.00000000000E+00  0.74505805969E-08  0.10566000000E+00  0.10566000000E+00 0. -1.
     999900   -1    0    0    0    0 -0.00000000000E+00 -0.00000000000E+00 -0.74505805969E-08  0.93827000000E+00  0.93827000000E+00 0.  1.
     999902    2    1    2    0    0 -0.11561639871E-01  0.73258976553E-02  0.19525751242E-01  0.10200847645E+01  0.10198060264E+01 0.  0.
     999903    2    3    3    0    0 -0.38543293108E-01 -0.97718858761E-01  0.76403322831E-01  0.13160433784E+00  0.21158289106E-01 0.  0.
         14    1    1    2    0    0  0.11561639871E-01 -0.73258976553E-02 -0.19525751242E-01  0.23845235469E-01  0.00000000000E+00 0.  1.
     999901    1    3    3    0    0  0.26981653236E-01  0.10504475642E+00 -0.56877571588E-01  0.88848042669E+00  0.88000000000E+00 0.  1.
        -11    1    4    4    0    0 -0.31909830979E-01 -0.52834225374E-01  0.41938030575E-01  0.74624072614E-01  0.51100000000E-03 0.  1.
         11    1    4    4    0    0 -0.66334621288E-02 -0.44884633387E-01  0.34465292256E-01  0.56980265227E-01  0.51100000000E-03 0. -1.
</event>
<event>
 8    1  0.1106905E+005  0.1043930E+01  0.7957747E-01            NaN
         13   -1    0    0    0    0  0.00000000000E+00  0.00000000000E+00  0.74505805969E-08  0.10566000000E+00  0.10566000000E+00 0. -1.
     999900   -1    0    0    0    0 -0.00000000000E+00 -0.00000000000E+00 -0.74505805969E-08  0.93827000000E+00  0.93827000000E+00 0. -1.
     999902    2    1    2    0    0  0.17656186164E-01  0.14519596938E-01 -0.27901958832E-02  0.10209007838E+01  0.10206410072E+01 0.  0.
     999903    2    3    3    0    0  0.72840082916E-01  0.10760233943E+00 -0.26745280981E-01  0.13394897818E+00  0.18522353281E-01 0.  0.
         14    1    1    2    0    0 -0.17656186164E-01 -0.14519596938E-01  0.27901958832E-02  0.23029216187E-01  0.00000000000E+00 0.  1.
     999901    1    3    3    0    0 -0.55183896752E-01 -0.93082742492E-01  0.23955085098E-01  0.88695180563E+00  0.88000000000E+00 0. -1.
        -11    1    4    4    0    0  0.55267989695E-01  0.86214463355E-01 -0.13625172953E-01  0.10331210401E+00  0.51100000000E-03 0.  1.
         11    1    4    4    0    0  0.17572093221E-01  0.21387876076E-01 -0.13120108028E-01  0.30636874169E-01  0.51100000000E-03 0. -1.
</event>
<event>
 8    1  0.1106905E+005  0.1043930E+01  0.7957747E-01            NaN
         13   -1    0    0    0    0  0.00000000000E+00  0.00000000000E+00  0.74505805969E-08  0.10566000000E+00  0.10566000000E+00 0.  1.
     999900   -1    0    0    0    0 -0.00000000000E+00 -0.00000000000E+00 -0.74505805969E-08  0.93827000000E+00  0.93827000000E+00 0.  1.
     999902    2    1    2    0    0  0.72233257560E-02 -0.19579232094E-01  0.12976885764E-01  0.10193551688E+01  0.10190588981E+01 0.  0.
     999903    2    3    3    0    0  0.55592417406E-01 -0.97931691267E-01 -0.64229739544E-01  0.13118877680E+00  0.20097330398E-01 0.  0.
         14    1    1    2    0    0 -0.72233257560E-02  0.19579232094E-01 -0.12976885764E-01  0.24574831200E-01  0.00000000000E+00 0.  1.
     999901    1    3    3    0    0 -0.48369091650E-01  0.78352459174E-01  0.77206625308E-01  0.88816639200E+00  0.88000000000E+00 0. -1.
        -11    1    4    4    0    0  0.37358816970E-01 -0.45842372451E-01 -0.31105431738E-01  0.66820755174E-01  0.51100000000E-03 0.  1.
         11    1    4    4    0    0  0.18233600435E-01 -0.52089318816E-01 -0.33124307807E-01  0.64368021627E-01  0.51100000000E-03 0. -1.
</event>
<event>
 8    1  0.1106905E+005  0.1043930E+01  0.7957747E-01            NaN
         13   -1    0    0    0    0  0.00000000000E+00  0.00000000000E+00  0.74505805969E-08  0.10566000000E+00  0.10566000000E+00 0. -1.
     999900   -1    0    0    0    0 -0.00000000000E+00 -0.00000000000E+00 -0.74505805969E-08  0.93827000000E+00  0.93827000000E+00 0. -1.
     999902    2    1    2    0    0  0.10884132637E-01 -0.14789329676E-01  0.15430178322E-01  0.10199450251E+01  0.10196629714E+01 0.  0.
     999903    2    3    3    0    0  0.48254696558E-02 -0.80915023094E-01 -0.10000108020E+00  0.12992609829E+00  0.17608204243E-01 0.  0.
         14    1    1    2    0    0 -0.10884132637E-01  0.14789329676E-01 -0.15430178322E-01  0.23984974851E-01  0.00000000000E+00 0. -1.
     999901    1    3    3    0    0  0.60586629808E-02  0.66125693418E-01  0.11543125852E+00  0.89001892686E+00  0.88000000000E+00 0.  1.
        -11    1    4    4    0    0 -0.48826874152E-02 -0.25067918460E-01 -0.39296617560E-01  0.46869248394E-01  0.51100000000E-03 0.  1.
         11    1    4    4    0    0  0.97081570710E-02 -0.55847104634E-01 -0.60704462635E-01  0.83056849895E-01  0.51100000000E-03 0. -1.
</event>
<event>
 8    1  0.1106905E+005  0.1043930E+01  0.7957747E-01            NaN
         13   -1    0    0    0    0  0.00000000000E+00  0.00000000000E+00  0.74505805969E-08  0.10566000000E+00  0.10566000000E+00 0.  1.
     999900   -1    0    0    0    0 -0.00000000000E+00 -0.00000000000E+00 -0.74505805969E-08  0.93827000000E+00  0.93827000000E+00 0. -1.
     999902    2    1    2    0    0 -0.11594124073E-01 -0.20811740665E-01 -0.20039290842E-02  0.10200225118E+01  0.10197422991E+01 0.  0.
     999903    2    3    3    0    0  0.94602125851E-01  0.80625916615E-01  0.19757607168E-01  0.12758718845E+00  0.20929093885E-01 0.  0.
         14    1    1    2    0    0  0.11594124073E-01  0.20811740665E-01  0.20039290842E-02  0.23907488247E-01  0.00000000000E+00 0. -1.
     999901    1    3    3    0    0 -0.10619624992E+00 -0.10143765728E+00 -0.21761536252E-01  0.89243532330E+00  0.88000000000E+00 0. -1.
        -11    1    4    4    0    0  0.83336676635E-01  0.60730825181E-01  0.14642722313E-01  0.10415327761E+00  0.51100000000E-03 0. -1.
         11    1    4    4    0    0  0.11265449216E-01  0.19895091434E-01  0.51148848553E-02  0.23433910840E-01  0.51100000000E-03 0.  1.
</event>
<event>
 8    1  0.1106905E+005  0.1043930E+01  0.7957747E-01            NaN
         13   -1    0    0    0    0  0.00000000000E+00  0.00000000000E+00  0.74505805969E-08  0.10566000000E+00  0.10566000000E+00 0.  1.
     999900   -1    0    0    0    0 -0.00000000000E+00 -0.00000000000E+00 -0.74505805969E-08  0.93827000000E+00  0.93827000000E+00 0. -1.
     999902    2    1    2    0    0  0.21319493499E-01 -0.88896769791E-02 -0.22707575158E-02  0.10207200129E+01  0.10204560947E+01 0.  0.
     999903    2    3    3    0    0  0.11881248142E+00  0.55593458775E-01 -0.10165602992E-01  0.13295580659E+00  0.19153814765E-01 0.  0.
         14    1    1    2    0    0 -0.21319493499E-01  0.88896769791E-02  0.22707575158E-02  0.23209987065E-01  0.00000000000E+00 0.  1.
     999901    1    3    3    0    0 -0.97492987924E-01 -0.64483135754E-01  0.78948454762E-02  0.88776420635E+00  0.88000000000E+00 0. -1.
        -11    1    4    4    0    0  0.63730252367E-01  0.30446085296E-01 -0.15011749573E-01  0.72208883960E-01  0.51100000000E-03 0. -1.
         11    1    4    4    0    0  0.55082229057E-01  0.25147373479E-01  0.48461465806E-02  0.60746922625E-01  0.51100000000E-03 0.  1.
</event>
<event>
 8    1  0.1106905E+005  0.1043930E+01  0.7957747E-01            NaN
         13   -1    0    0    0    0  0.00000000000E+00  0.00000000000E+00  0.74505805969E-08  0.10566000000E+00  0.10566000000E+00 0.  1.
     999900   -1    0    0    0    0 -0.00000000000E+00 -0.00000000000E+00 -0.74505805969E-08  0.93827000000E+00  0.93827000000E+00 0.  1.
     999902    2    1    2    0    0  0.49760489203E-02  0.23098381914E-01 -0.72892367825E-02  0.10192029039E+01  0.10189029051E+01 0.  0.
     999903    2    3    3    0    0  0.16171382603E-01 -0.26643931772E-01 -0.12440159503E+00  0.12998136920E+00  0.21165698137E-01 0.  0.
         14    1    1    2    0    0 -0.49760489203E-02 -0.23098381914E-01  0.72892367825E-02  0.24727096125E-01  0.00000000000E+00 0.  1.
     999901    1    3    3    0    0 -0.11195333683E-01  0.49742313686E-01  0.11711235825E+00  0.88922153467E+00  0.88000000000E+00 0. -1.
        -11    1    4    4    0    0 -0.49675587303E-02 -0.82279694048E-02 -0.30518158064E-01  0.31999925201E-01  0.51100000000E-03 0.  1.
         11    1    4    4    0    0  0.21138941334E-01 -0.18415962368E-01 -0.93883436970E-01  0.97981444003E-01  0.51100000000E-03 0. -1.
</event>
<event>
 8    1  0.1106905E+005  0.1043930E+01  0.7957747E-01            NaN
         13   -1    0    0    0    0  0.00000000000E+00  0.00000000000E+00  0.74505805969E-08  0.10566000000E+00  0.10566000000E+00 0.  1.
     999900   -1    0    0    0    0 -0.00000000000E+00 -0.00000000000E+00 -0.74505805969E-08  0.93827000000E+00  0.93827000000E+00 0. -1.
     999902    2    1    2    0    0 -0.16300284694E-01  0.17755012497E-01 -0.39469206624E-02  0.10195062834E+01  0.10192136891E+01 0.  0.
     999903    2    3    3    0    0 -0.24080748489E-02  0.11778825389E+00  0.55307659765E-01  0.13175026501E+00  0.20477390581E-01 0.  0.
         14    1    1    2    0    0  0.16300284694E-01 -0.17755012497E-01  0.39469206624E-02  0.24423716600E-01  0.00000000000E+00 0.  1.
     999901    1    3    3    0    0 -0.13892209845E-01 -0.10003324139E+00 -0.59254580427E-01  0.88775601838E+00  0.88000000000E+00 0. -1.
        -11    1    4    4    0    0 -0.73736263079E-02  0.18554292012E-01  0.61648947648E-02  0.20902133036E-01  0.51100000000E-03 0.  1.
         11    1    4    4    0    0  0.49655514591E-02  0.99233961873E-01  0.49142765000E-01  0.11084813198E+00  0.51100000000E-03 0. -1.
</event>
<event>
 8    1  0.1106905E+005  0.1043930E+01  0.7957747E-01            NaN
         13   -1    0    0    0    0  0.00000000000E+00  0.00000000000E+00  0.74505805969E-08  0.10566000000E+00  0.10566000000E+00 0.  1.
     999900   -1    0    0    0    0 -0.00000000000E+00 -0.00000000000E+00 -0.74505805969E-08  0.93827000000E+00  0.93827000000E+00 0.  1.
     999902    2    1    2    0    0  0.17529499045E-01  0.13377607831E-01  0.80075058781E-02  0.10204701646E+01  0.10202004670E+01 0.  0.
     999903    2    3    3    0    0  0.51586220335E-01 -0.10564520987E+00 -0.50994781559E-01  0.12984815646E+00  0.20929106352E-01 0.  0.
         14    1    1    2    0    0 -0.17529499045E-01 -0.13377607831E-01 -0.80075058781E-02  0.23459835431E-01  0.00000000000E+00 0.  1.
     999901    1    3    3    0    0 -0.34056721290E-01  0.11902281771E+00  0.59002287438E-01  0.89062200811E+00  0.88000000000E+00 0. -1.
        -11    1    4    4    0    0  0.10561528911E-01 -0.44307790408E-01 -0.17319481862E-01  0.48733476756E-01  0.51100000000E-03 0. -1.
         11    1    4    4    0    0  0.41024691424E-01 -0.61337419467E-01 -0.33675299698E-01  0.81114679707E-01  0.51100000000E-03 0.  1.
</event>
<event>
 8    1  0.1106905E+005  0.1043930E+01  0.7957747E-01            NaN
         13   -1    0    0    0    0  0.00000000000E+00  0.00000000000E+00  0.74505805969E-08  0.10566000000E+00  0.10566000000E+00 0. -1.
     999900   -1    0    0    0    0 -0.00000000000E+00 -0.00000000000E+00 -0.74505805969E-08  0.93827000000E+00  0.93827000000E+00 0.  1.
     999902    2    1    2    0    0 -0.10490728111E-02 -0.21898007689E-01 -0.14172554466E-01  0.10178247401E+01  0.10174899100E+01 0.  0.
     999903    2    3    3    0    0  0.10153074844E+00  0.65682840165E-01 -0.33624347273E-01  0.12733532585E+00  0.21469981609E-01 0.  0.
         14    1    1    2    0    0  0.10490728111E-02  0.21898007689E-01  0.14172554466E-01  0.26105259903E-01  0.00000000000E+00 0. -1.
     999901    1    3    3    0    0 -0.10257982125E+00 -0.87580847854E-01  0.19451792806E-01  0.89048941424E+00  0.88000000000E+00 0. -1.
        -11    1    4    4    0    0  0.37982906520E-01  0.36852070174E-01 -0.17136666544E-01  0.55630052355E-01  0.51100000000E-03 0.  1.
         11    1    4    4    0    0  0.63547841917E-01  0.28830769992E-01 -0.16487680728E-01  0.71705273498E-01  0.51100000000E-03 0. -1.
</event>
<event>
 8    1  0.1106905E+005  0.1043930E+01  0.7957747E-01            NaN
         13   -1    0    0    0    0  0.00000000000E+00  0.00000000000E+00  0.74505805969E-08  0.10566000000E+00  0.10566000000E+00 0.  1.
     999900   -1    0    0    0    0 -0.00000000000E+00 -0.00000000000E+00 -0.74505805969E-08  0.93827000000E+00  0.93827000000E+00 0.  1.
     999902    2    1    2    0    0 -0.95002015261E-02  0.22877576076E-01 -0.36593281788E-02  0.10188894729E+01  0.10185817247E+01 0.  0.
     999903    2    3    3    0    0 -0.59865252666E-01 -0.77335104224E-01  0.79826375585E-01  0.12785126808E+00  0.20226954494E-01 0.  0.
         14    1    1    2    0    0  0.95002015261E-02 -0.22877576076E-01  0.36593281788E-02  0.25040527128E-01  0.00000000000E+00 0.  1.
     999901    1    3    3    0    0  0.50365051140E-01  0.10021268030E+00 -0.83485703763E-01  0.89103820479E+00  0.88000000000E+00 0.  1.
        -11    1    4    4    0    0 -0.24422941454E-01 -0.17520507799E-01  0.28563944371E-01  0.41468160097E-01  0.51100000000E-03 0.  1.
         11    1    4    4    0    0 -0.35442311212E-01 -0.59814596425E-01  0.51262431214E-01  0.86383107981E-01  0.51100000000E-03 0. -1.
</event>
<event>
 8    1  0.1106905E+005  0.1043930E+01  0.7957747E-01            NaN
         13   -1    0    0    0    0  0.00000000000E+00  0.00000000000E+00  0.74505805969E-08  0.10566000000E+00  0.10566000000E+00 0. -1.
     999900   -1    0    0    0    0 -0.00000000000E+00 -0.00000000000E+00 -0.74505805969E-08  0.93827000000E+00  0.93827000000E+00 0.  1.
     999902    2    1    2    0    0  0.22172331036E-01 -0.52618055537E-03  0.86512672986E-02  0.10201238337E+01  0.10198460190E+01 0.  0.
     999903    2    3    3    0    0  0.12673658655E+00 -0.35853503127E-01 -0.11193219213E-02  0.13317560087E+00  0.19668546669E-01 0.  0.
         14    1    1    2    0    0 -0.22172331036E-01  0.52618055537E-03 -0.86512672986E-02  0.23806166332E-01  0.00000000000E+00 0.  1.
     999901    1    3    3    0    0 -0.10456425552E+00  0.35327322571E-01  0.97705892199E-02  0.88694823280E+00  0.88000000000E+00 0. -1.
        -11    1    4    4    0    0  0.91877162287E-02 -0.61393672508E-02  0.41473842360E-02  0.11813884913E-01  0.51100000000E-03 0. -1.
         11    1    4    4    0    0  0.11754887032E+00 -0.29714135876E-01 -0.52667061573E-02  0.12136171596E+00  0.51100000000E-03 0.  1.
</event>
<event>
 8    1  0.1106905E+005  0.1043930E+01  0.7957747E-01            NaN
         13   -1    0    0    0    0  0.00000000000E+00  0.00000000000E+00  0.74505805969E-08  0.10566000000E+00  0.10566000000E+00 0.  1.
     999900   -1    0    0    0    0 -0.00000000000E+00 -0.00000000000E+00 -0.74505805969E-08  0.93827000000E+00  0.93827000000E+00 0.  1.
     999902    2    1    2    0    0 -0.21997418283E-01 -0.43308921458E-02  0.67168677565E-02  0.10205257408E+01  0.10202573343E+01 0.  0.
     999903    2    3    3    0    0 -0.24099038858E-01 -0.10135450410E+00  0.78882527364E-01  0.13225445309E+00  0.20378617781E-01 0.  0.
         14    1    1    2    0    0  0.21997418283E-01  0.43308921458E-02 -0.67168677565E-02  0.23404259236E-01  0.00000000000E+00 0.  1.
     999901    1    3    3    0    0  0.21016205746E-02  0.97023611954E-01 -0.72165659608E-01  0.88827128768E+00  0.88000000000E+00 0.  1.
        -11    1    4    4    0    0 -0.52211402876E-02 -0.26197218693E-01  0.98592781135E-02  0.28478431471E-01  0.51100000000E-03 0. -1.
         11    1    4    4    0    0 -0.18877898570E-01 -0.75157285407E-01  0.69023249251E-01  0.10377602162E+00  0.51100000000E-03 0.  1.
</event>
<event>
 8    1  0.1106905E+005  0.1043930E+01  0.7957747E-01            NaN
         13   -1    0    0    0    0  0.00000000000E+00  0.00000000000E+00  0.74505805969E-08  0.10566000000E+00  0.10566000000E+00 0.  1.
     999900   -1    0    0    0    0 -0.00000000000E+00 -0.00000000000E+00 -0.74505805969E-08  0.93827000000E+00  0.93827000000E+00 0. -1.
     999902    2    1    2    0    0 -0.18432827927E-01  0.74754885590E-02  0.12645620372E-01  0.10203595993E+01  0.10200873238E+01 0.  0.
     999903    2    3    3    0    0  0.52137041188E-01 -0.11519833111E+00  0.16016233835E-01  0.12904577494E+00  0.20183303240E-01 0.  0.
         14    1    1    2    0    0  0.18432827927E-01 -0.74754885590E-02 -0.12645620372E-01  0.23570400700E-01  0.00000000000E+00 0.  1.
     999901    1    3    3    0    0 -0.70569869115E-01  0.12267381967E+00 -0.33706134625E-02  0.89131382436E+00  0.88000000000E+00 0.  1.
        -11    1    4    4    0    0  0.21029522359E-01 -0.66220844065E-01  0.14632511863E-01  0.71005721768E-01  0.51100000000E-03 0.  1.
         11    1    4    4    0    0  0.31107518829E-01 -0.48977487043E-01  0.13837219720E-02  0.58040053172E-01  0.51100000000E-03 0. -1.
</event>
<event>
 8    1  0.1106905E+005  0.1043930E+01  0.7957747E-01            NaN
         13   -1    0    0    0    0  0.00000000000E+00  0.00000000000E+00  0.74505805969E-08  0.10566000000E+00  0.10566000000E+00 0. -1.
     999900   -1    0    0    0    0 -0.00000000000E+00 -0.00000000000E+00 -0.74505805969E-08  0.93827000000E+00  0.93827000000E+00 0.  1.
     999902    2    1    2    0    0 -0.13364380146E-01 -0.14344431322E-01  0.24556026518E-02  0.10241714740E+01  0.10239808635E+01 0.  0.
     999903    2    3    3    0    0 -0.20925482368E-01  0.83768540208E-01  0.99732089951E-01  0.13335946213E+00  0.19575807342E-01 0.  0.
         14    1    1    2    0    0  0.13364380146E-01  0.14344431322E-01 -0.24556026518E-02  0.19758526034E-01  0.00000000000E+00 0.  1.
     999901    1    3    3    0    0  0.75611022217E-02 -0.98112971529E-01 -0.97276487299E-01  0.89081201184E+00  0.88000000000E+00 0.  1.
        -11    1    4    4    0    0 -0.16730373482E-01  0.37089045153E-01  0.56255526678E-01  0.69429446706E-01  0.51100000000E-03 0. -1.
         11    1    4    4    0    0 -0.41951088855E-02  0.46679495055E-01  0.43476563273E-01  0.63930015425E-01  0.51100000000E-03 0.  1.
</event>
<event>
 8    1  0.1106905E+005  0.1043930E+01  0.7957747E-01            NaN
         13   -1    0    0    0    0  0.00000000000E+00  0.00000000000E+00  0.74505805969E-08  0.10566000000E+00  0.10566000000E+00 0. -1.
     999900   -1    0    0    0    0 -0.00000000000E+00 -0.00000000000E+00 -0.74505805969E-08  0.93827000000E+00  0.93827000000E+00 0. -1.
     999902    2    1    2    0    0  0.40399229013E-02 -0.11629463591E-01 -0.21400595899E-01  0.10192409153E+01  0.10189418494E+01 0.  0.
     999903    2    3    3    0    0  0.11659829125E+00 -0.47992137533E-01 -0.29705157868E-01  0.13128787816E+00  0.21347219029E-01 0.  0.
         14    1    1    2    0    0 -0.40399229013E-02  0.11629463591E-01  0.21400595899E-01  0.24689084740E-01  0.00000000000E+00 0. -1.
     999901    1    3    3    0    0 -0.11255836835E+00  0.36362673941E-01  0.83045619690E-02  0.88795303710E+00  0.88000000000E+00 0. -1.
        -11    1    4    4    0    0  0.81083956419E-01 -0.40817707782E-01 -0.28050896680E-01  0.95014773497E-01  0.51100000000E-03 0. -1.
         11    1    4    4    0    0  0.35514334834E-01 -0.71744297504E-02 -0.16542611872E-02  0.36273104665E-01  0.51100000000E-03 0.  1.
</event>
<event>
 8    1  0.1106905E+005  0.1043930E+01  0.7957747E-01            NaN
         13   -1    0    0    0    0  0.00000000000E+00  0.00000000000E+00  0.74505805969E-08  0.10566000000E+00  0.10566000000E+00 0. -1.
     999900   -1    0    0    0    0 -0.00000000000E+00 -0.00000000000E+00 -0.74505805969E-08  0.93827000000E+00  0.93827000000E+00 0.  1.
     999902    2    1    2    0    0  0.20950330837E-01 -0.74325103841E-03 -0.11131066259E-01  0.10201945956E+01  0.10199184495E+01 0.  0.
     999903    2    3    3    0    0  0.91909639525E-01 -0.93003839271E-01 -0.72289548143E-02  0.13252209628E+00  0.20316305253E-01 0.  0.
         14    1    1    2    0    0 -0.20950330837E-01  0.74325103841E-03  0.11131066259E-01  0.23735404364E-01  0.00000000000E+00 0.  1.
     999901    1    3    3    0    0 -0.70959308688E-01  0.92260588232E-01 -0.39021114443E-02  0.88767249935E+00  0.88000000000E+00 0.  1.
        -11    1    4    4    0    0  0.49292368536E-01 -0.36558620744E-01 -0.72031945826E-02  0.61793344947E-01  0.51100000000E-03 0. -1.
         11    1    4    4    0    0  0.42617270989E-01 -0.56445218527E-01 -0.25760231718E-04  0.70728751337E-01  0.51100000000E-03 0.  1.
</event>
<event>
 8    1  0.1106905E+005  0.1043930E+01  0.7957747E-01            NaN
         13   -1    0    0    0    0  0.00000000000E+00  0.00000000000E+00  0.74505805969E-08  0.10566000000E+00  0.10566000000E+00 0. -1.
     999900   -1    0    0    0    0 -0.00000000000E+00 -0.00000000000E+00 -0.74505805969E-08  0.93827000000E+00  0.93827000000E+00 0.  1.
     999902    2    1    2    0    0  0.25743210636E-01 -0.23155792965E-02  0.50161655974E-02  0.10176006111E+01  0.10172599309E+01 0.  0.
     999903    2    3    3    0    0  0.95369088963E-01  0.73298046155E-01  0.46616360827E-01  0.13064189758E+00  0.20648331813E-01 0.  0.
         14    1    1    2    0    0 -0.25743210636E-01  0.23155792965E-02 -0.50161655974E-02  0.26329388877E-01  0.00000000000E+00 0. -1.
     999901    1    3    3    0    0 -0.69625878327E-01 -0.75613625452E-01 -0.41600195230E-01  0.88695871354E+00  0.88000000000E+00 0.  1.
        -11    1    4    4    0    0  0.59216477023E-01  0.55400907606E-01  0.37177323399E-01  0.89209115065E-01  0.51100000000E-03 0. -1.
         11    1    4    4    0    0  0.36152611940E-01  0.17897138549E-01  0.94390374289E-02  0.41432782515E-01  0.51100000000E-03 0.  1.
</event>
<event>
 8    1  0.1106905E+005  0.1043930E+01  0.7957747E-01            NaN
         13   -1    0    0    0    0  0.00000000000E+00  0.00000000000E+00  0.74505805969E-08  0.10566000000E+00  0.10566000000E+00 0.  1.
     999900   -1    0    0    0    0 -0.00000000000E+00 -0.00000000000E+00 -0.74505805969E-08  0.93827000000E+00  0.93827000000E+00 0. -1.
     999902    2    1    2    0    0  0.19902966618E-01  0.80052179500E-02  0.76599282620E-02  0.10211509286E+01  0.10208968277E+01 0.  0.
     999903    2    3    3    0    0 -0.11186257859E+00  0.46971254050E-01  0.38169236932E-01  0.12996557815E+00  0.26732483241E-01 0.  0.
         14    1    1    2    0    0 -0.19902966618E-01 -0.80052179500E-02 -0.76599282620E-02  0.22779071438E-01  0.00000000000E+00 0. -1.
     999901    1    3    3    0    0  0.13176554521E+00 -0.38966036100E-01 -0.30509308670E-01  0.89118535041E+00  0.88000000000E+00 0. -1.
        -11    1    4    4    0    0 -0.28261585091E-01  0.26954312091E-02  0.12755208963E-02  0.28423064856E-01  0.51100000000E-03 0. -1.
         11    1    4    4    0    0 -0.83600993499E-01  0.44275822840E-01  0.36893716036E-01  0.10154251329E+00  0.51100000000E-03 0.  1.
</event>
<event>
 8    1  0.1106905E+005  0.1043930E+01  0.7957747E-01            NaN
         13   -1    0    0    0    0  0.00000000000E+00  0.00000000000E+00  0.74505805969E-08  0.10566000000E+00  0.10566000000E+00 0.  1.
     999900   -1    0    0    0    0 -0.00000000000E+00 -0.00000000000E+00 -0.74505805969E-08  0.93827000000E+00  0.93827000000E+00 0.  1.
     999902    2    1    2    0    0  0.69897793701E-02  0.21170580795E-01 -0.35214636341E-02  0.10213589740E+01  0.10211095449E+01 0.  0.
     999903    2    3    3    0    0  0.16234105437E-01 -0.35343660465E-01  0.12299092794E+00  0.13046913671E+00  0.19562892530E-01 0.  0.
         14    1    1    2    0    0 -0.69897793701E-02 -0.21170580795E-01  0.35214636341E-02  0.22571025962E-01  0.00000000000E+00 0.  1.
     999901    1    3    3    0    0 -0.92443260666E-02  0.56514241260E-01 -0.12651239158E+00  0.89088983733E+00  0.88000000000E+00 0.  1.
        -11    1    4    4    0    0  0.94344288736E-02 -0.26058019780E-01  0.10834955370E+00  0.11183879359E+00  0.51100000000E-03 0. -1.
         11    1    4    4    0    0  0.67996765631E-02 -0.92856406846E-02  0.14641374242E-01  0.18630343126E-01  0.51100000000E-03 0.  1.
</event>
<event>
 8    1  0.1106905E+005  0.1043930E+01  0.7957747E-01            NaN
         13   -1    0    0    0    0  0.00000000000E+00  0.00000000000E+00  0.74505805969E-08  0.10566000000E+00  0.10566000000E+00 0.  1.
     999900   -1    0    0    0    0 -0.00000000000E+00 -0.00000000000E+00 -0.74505805969E-08  0.93827000000E+00  0.93827000000E+00 0. -1.
     999902    2    1    2    0    0 -0.13390610662E-02 -0.44014705354E-02  0.20577544550E-01  0.10228444275E+01  0.10226270686E+01 0.  0.
     999903    2    3    3    0    0 -0.70213612290E-01 -0.71203837013E-02  0.11360989483E+00  0.13526000083E+00  0.20184360413E-01 0.  0.
         14    1    1    2    0    0  0.13390610662E-02  0.44014705354E-02 -0.20577544550E-01  0.21085572487E-01  0.00000000000E+00 0. -1.
     999901    1    3    3    0    0  0.68874551224E-01  0.27189131659E-02 -0.93032350282E-01  0.88758442669E+00  0.88000000000E+00 0. -1.
        -11    1    4    4    0    0 -0.48161665807E-01 -0.10897900319E-01  0.64004957065E-01  0.80840620572E-01  0.51100000000E-03 0. -1.
         11    1    4    4    0    0 -0.22051946484E-01  0.37775166174E-02  0.49604937767E-01  0.54419380255E-01  0.51100000000E-03 0.  1.
</event>
<event>
 8    1  0.1106905E+005  0.1043930E+01  0.7957747E-01            NaN
         13   -1    0    0    0    0  0.00000000000E+00  0.00000000000E+00  0.74505805969E-08  0.10566000000E+00  0.10566000000E+00 0. -1.
     999900   -1    0    0    0    0 -0.00000000000E+00 -0.00000000000E+00 -0.74505805969E-08  0.93827000000E+00  0.93827000000E+00 0.  1.
     999902    2    1    2    0    0  0.64743299719E-02  0.57156269415E-02 -0.32904947949E-01  0.10099105800E+01  0.10093374354E+01 0.  0.
     999903    2    3    3    0    0 -0.21572809995E-01  0.11817391512E+00 -0.27001152544E-02  0.12179693827E+00  0.19918413693E-01 0.  0.
         14    1    1    2    0    0 -0.64743299719E-02 -0.57156269415E-02  0.32904947949E-01  0.34019420034E-01  0.00000000000E+00 0. -1.
     999901    1    3    3    0    0  0.28047139967E-01 -0.11245828818E+00 -0.30204832695E-01  0.88811364169E+00  0.88000000000E+00 0.  1.
        -11    1    4    4    0    0 -0.21637423903E-01  0.89612666441E-01  0.46302194797E-02  0.92305515291E-01  0.51100000000E-03 0.  1.
         11    1    4    4    0    0  0.64613907904E-04  0.28561248682E-01 -0.73303347341E-02  0.29491422983E-01  0.51100000000E-03 0. -1.
</event>
<event>
 8    1  0.1106905E+005  0.1043930E+01  0.7957747E-01            NaN
         13   -1    0    0    0    0  0.00000000000E+00  0.00000000000E+00  0.74505805969E-08  0.10566000000E+00  0.10566000000E+00 0. -1.
     999900   -1    0    0    0    0 -0.00000000000E+00 -0.00000000000E+00 -0.74505805969E-08  0.93827000000E+00  0.93827000000E+00 0. -1.
     999902    2    1    2    0    0 -0.93512895591E-02 -0.17428864788E-01 -0.10921641206E-01  0.10213358815E+01  0.10210859360E+01 0.  0.
     999903    2    3    3    0    0 -0.32326986558E-01 -0.64630170860E-01 -0.11129165612E+00  0.13407606282E+00  0.19195438370E-01 0.  0.
         14    1    1    2    0    0  0.93512895591E-02  0.17428864788E-01  0.10921641206E-01  0.22594118502E-01  0.00000000000E+00 0. -1.
     999901    1    3    3    0    0  0.22975696999E-01  0.47201306071E-01  0.10037001491E+00  0.88725981868E+00  0.88000000000E+00 0.  1.
        -11    1    4    4    0    0 -0.21688419529E-01 -0.32586150910E-01 -0.74351893657E-01  0.84028030943E-01  0.51100000000E-03 0.  1.
         11    1    4    4    0    0 -0.10638567029E-01 -0.32044019950E-01 -0.36939762462E-01  0.50048031877E-01  0.51100000000E-03 0. -1.
</event>
<event>
 8    1  0.1106905E+005  0.1043930E+01  0.7957747E-01            NaN
         13   -1    0    0    0    0  0.00000000000E+00  0.00000000000E+00  0.74505805969E-08  0.10566000000E+00  0.10566000000E+00 0. -1.
     999900   -1    0    0    0    0 -0.00000000000E+00 -0.00000000000E+00 -0.74505805969E-08  0.93827000000E+00  0.93827000000E+00 0. -1.
     999902    2    1    2    0    0  0.74405927623E-02 -0.33462589980E-02  0.22935265304E-01  0.10195869052E+01  0.10192962626E+01 0.  0.
     999903    2    3    3    0    0  0.10915948873E+00 -0.62297766856E-01  0.33862297342E-01  0.13170098116E+00  0.20042143686E-01 0.  0.
         14    1    1    2    0    0 -0.74405927623E-02  0.33462589980E-02 -0.22935265304E-01  0.24343094801E-01  0.00000000000E+00 0.  1.
     999901    1    3    3    0    0 -0.10171889596E+00  0.58951507858E-01 -0.10927032038E-01  0.88788592404E+00  0.88000000000E+00 0. -1.
        -11    1    4    4    0    0  0.64128427795E-01 -0.30067356211E-01  0.10531180435E-01  0.71607737315E-01  0.51100000000E-03 0.  1.
         11    1    4    4    0    0  0.45031060931E-01 -0.32230410645E-01  0.23331116907E-01  0.60093243847E-01  0.51100000000E-03 0. -1.
</event>
<event>
 8    1  0.1106905E+005  0.1043930E+01  0.7957747E-01            NaN
         13   -1    0    0    0    0  0.00000000000E+00  0.00000000000E+00  0.74505805969E-08  0.10566000000E+00  0.10566000000E+00 0. -1.
     999900   -1    0    0    0    0 -0.00000000000E+00 -0.00000000000E+00 -0.74505805969E-08  0.93827000000E+00  0.93827000000E+00 0. -1.
     999902    2    1    2    0    0  0.54382882324E-02 -0.14830673483E-01 -0.15881739665E-01  0.10215301449E+01  0.10212845262E+01 0.  0.
     999903    2    3    3    0    0 -0.47880847861E-01 -0.77750785903E-01 -0.96034794534E-01  0.13404697150E+00  0.20202685623E-01 0.  0.
         14    1    1    2    0    0 -0.54382882324E-02  0.14830673483E-01  0.15881739665E-01  0.22399855126E-01  0.00000000000E+00 0. -1.
     999901    1    3    3    0    0  0.53319136093E-01  0.62920112420E-01  0.80153054869E-01  0.88748317338E+00  0.88000000000E+00 0.  1.
        -11    1    4    4    0    0 -0.34523982736E-01 -0.38669184079E-01 -0.47451691476E-01  0.70278982109E-01  0.51100000000E-03 0.  1.
         11    1    4    4    0    0 -0.13356865124E-01 -0.39081601824E-01 -0.48583103058E-01  0.63767989390E-01  0.51100000000E-03 0. -1.
</event>
<event>
 8    1  0.1106905E+005  0.1043930E+01  0.7957747E-01            NaN
         13   -1    0    0    0    0  0.00000000000E+00  0.00000000000E+00  0.74505805969E-08  0.10566000000E+00  0.10566000000E+00 0.  1.
     999900   -1    0    0    0    0 -0.00000000000E+00 -0.00000000000E+00 -0.74505805969E-08  0.93827000000E+00  0.93827000000E+00 0. -1.
     999902    2    1    2    0    0  0.96292686312E-02  0.20211692422E-01 -0.60762688572E-02  0.10207318025E+01  0.10204681554E+01 0.  0.
     999903    2    3    3    0    0  0.60074474863E-01 -0.10823416148E+00 -0.32501896499E-01  0.12958570334E+00  0.20310218897E-01 0.  0.
         14    1    1    2    0    0 -0.96292686312E-02 -0.20211692422E-01  0.60762688572E-02  0.23198197520E-01  0.00000000000E+00 0.  1.
     999901    1    3    3    0    0 -0.50445206232E-01  0.12844585391E+00  0.26425627642E-01  0.89114609914E+00  0.88000000000E+00 0. -1.
        -11    1    4    4    0    0  0.23368492093E-01 -0.60114206311E-01 -0.22066960633E-01  0.68169025926E-01  0.51100000000E-03 0.  1.
         11    1    4    4    0    0  0.36705982769E-01 -0.48119955173E-01 -0.10434935866E-01  0.61416677413E-01  0.51100000000E-03 0. -1.
</event>
<event>
 8    1  0.1106905E+005  0.1043930E+01  0.7957747E-01            NaN
         13   -1    0    0    0    0  0.00000000000E+00  0.00000000000E+00  0.74505805969E-08  0.10566000000E+00  0.10566000000E+00 0. -1.
     999900   -1    0    0    0    0 -0.00000000000E+00 -0.00000000000E+00 -0.74505805969E-08  0.93827000000E+00  0.93827000000E+00 0.  1.
     999902    2    1    2    0    0  0.11697649998E-01  0.12089581910E-01 -0.17327290516E-01  0.10197798861E+01  0.10194938882E+01 0.  0.
     999903    2    3    3    0    0 -0.12309990063E+00  0.30576577735E-01  0.10543069326E-01  0.12888768966E+00  0.20306836154E-01 0.  0.
         14    1    1    2    0    0 -0.11697649998E-01 -0.12089581910E-01  0.17327290516E-01  0.24150113931E-01  0.00000000000E+00 0. -1.
     999901    1    3    3    0    0  0.13479755062E+00 -0.18486995825E-01 -0.27870359842E-01  0.89089219641E+00  0.88000000000E+00 0.  1.
        -11    1    4    4    0    0 -0.40351324983E-01  0.48630252873E-02 -0.46536067841E-02  0.40912047369E-01  0.51100000000E-03 0. -1.
         11    1    4    4    0    0 -0.82748575642E-01  0.25713552448E-01  0.15196676110E-01  0.87975642289E-01  0.51100000000E-03 0.  1.
</event>
<event>
 8    1  0.1282552E+005  0.1043930E+01  0.7957747E-01            NaN
         13   -1    0    0    0    0  0.00000000000E+00  0.00000000000E+00  0.74505805969E-08  0.10566000000E+00  0.10566000000E+00 0.  1.
     999900   -1    0    0    0    0 -0.00000000000E+00 -0.00000000000E+00 -0.74505805969E-08  0.93827000000E+00  0.93827000000E+00 0.  1.
     999902    2    1    2    0    0 -0.10195055854E-01 -0.21182278198E-01 -0.18038333698E-02  0.10203528524E+01  0.10200804192E+01 0.  0.
     999903    2    3    3    0    0  0.12124859865E+00  0.37786609942E-01 -0.35571444639E-02  0.12863662054E+00  0.20141407634E-01 0.  0.
         14    1    1    2    0    0  0.10195055854E-01  0.21182278198E-01  0.18038333698E-02  0.23577147587E-01  0.00000000000E+00 0.  1.
     999901    1    3    3    0    0 -0.13144365451E+00 -0.58968888140E-01  0.17533110942E-02  0.89171623187E+00  0.88000000000E+00 0.  1.
        -11    1    4    4    0    0  0.49824888909E-01  0.19477596937E-01  0.76897403987E-02  0.54048955269E-01  0.51100000000E-03 0. -1.
         11    1    4    4    0    0  0.71423709745E-01  0.18309013006E-01 -0.11246884863E-01  0.74587665275E-01  0.51100000000E-03 0.  1.
</event>
<event>
 8    1  0.1106905E+005  0.1043930E+01  0.7957747E-01            NaN
         13   -1    0    0    0    0  0.00000000000E+00  0.00000000000E+00  0.74505805969E-08  0.10566000000E+00  0.10566000000E+00 0. -1.
     999900   -1    0    0    0    0 -0.00000000000E+00 -0.00000000000E+00 -0.74505805969E-08  0.93827000000E+00  0.93827000000E+00 0.  1.
     999902    2    1    2    0    0  0.88195241604E-03 -0.17547350947E-01 -0.17207882243E-01  0.10193373471E+01  0.10190406413E+01 0.  0.
     999903    2    3    3    0    0  0.10903439132E+00 -0.64486687814E-01 -0.28922885556E-01  0.13139731946E+00  0.19536910085E-01 0.  0.
         14    1    1    2    0    0 -0.88195241604E-03  0.17547350947E-01  0.17207882243E-01  0.24592652899E-01  0.00000000000E+00 0. -1.
     999901    1    3    3    0    0 -0.10815243891E+00  0.46939336867E-01  0.11715003313E-01  0.88794002764E+00  0.88000000000E+00 0. -1.
        -11    1    4    4    0    0  0.53601143205E-01 -0.34810625304E-01 -0.24193434544E-01  0.68340658345E-01  0.51100000000E-03 0.  1.
         11    1    4    4    0    0  0.55433248117E-01 -0.29676062510E-01 -0.47294510122E-02  0.63056661114E-01  0.51100000000E-03 0. -1.
</event>
<event>
 8    1  0.1106905E+005  0.1043930E+01  0.7957747E-01            NaN
         13   -1    0    0    0    0  0.00000000000E+00  0.00000000000E+00  0.74505805969E-08  0.10566000000E+00  0.10566000000E+00 0. -1.
     999900   -1    0    0    0    0 -0.00000000000E+00 -0.00000000000E+00 -0.74505805969E-08  0.93827000000E+00  0.93827000000E+00 0.  1.
     999902    2    1    2    0    0  0.84760913320E-02 -0.19918091457E-01 -0.92568473009E-02  0.10203871940E+01  0.10201155631E+01 0.  0.
     999903    2    3    3    0    0 -0.64638045181E-01 -0.73607994190E-01 -0.87013987832E-01  0.13231374237E+00  0.18419518145E-01 0.  0.
         14    1    1    2    0    0 -0.84760913320E-02  0.19918091457E-01  0.92568473009E-02  0.23542805982E-01  0.00000000000E+00 0. -1.
     999901    1    3    3    0    0  0.73114136513E-01  0.53689902733E-01  0.77757140531E-01  0.88807345165E+00  0.88000000000E+00 0. -1.
        -11    1    4    4    0    0 -0.32468461697E-01 -0.28628369435E-01 -0.28658724790E-01  0.51916935282E-01  0.51100000000E-03 0.  1.
         11    1    4    4    0    0 -0.32169583484E-01 -0.44979624755E-01 -0.58355263043E-01  0.80396807091E-01  0.51100000000E-03 0. -1.
</event>
<event>
 8    1  0.1106905E+005  0.1043930E+01  0.7957747E-01            NaN
         13   -1    0    0    0    0  0.00000000000E+00  0.00000000000E+00  0.74505805969E-08  0.10566000000E+00  0.10566000000E+00 0. -1.
     999900   -1    0    0    0    0 -0.00000000000E+00 -0.00000000000E+00 -0.74505805969E-08  0.93827000000E+00  0.93827000000E+00 0. -1.
     999902    2    1    2    0    0  0.19151777352E-01 -0.87164461451E-02  0.58567900298E-02  0.10220880908E+01  0.10218546845E+01 0.  0.
     999903    2    3    3    0    0  0.32599834138E-01 -0.12271415350E+00 -0.35556352335E-01  0.13366737069E+00  0.21936251741E-01 0.  0.
         14    1    1    2    0    0 -0.19151777352E-01  0.87164461451E-02 -0.58567900298E-02  0.21841909225E-01  0.00000000000E+00 0. -1.
     999901    1    3    3    0    0 -0.13448056786E-01  0.11399770736E+00  0.41413142365E-01  0.88842072008E+00  0.88000000000E+00 0.  1.
        -11    1    4    4    0    0  0.29535419498E-01 -0.74281629290E-01 -0.27071266909E-01  0.84399147318E-01  0.51100000000E-03 0.  1.
         11    1    4    4    0    0  0.30644146401E-02 -0.48432524212E-01 -0.84850854255E-02  0.49268223372E-01  0.51100000000E-03 0. -1.
</event>
<event>
 8    1  0.1106905E+005  0.1043930E+01  0.7957747E-01            NaN
         13   -1    0    0    0    0  0.00000000000E+00  0.00000000000E+00  0.74505805969E-08  0.10566000000E+00  0.10566000000E+00 0. -1.
     999900   -1    0    0    0    0 -0.00000000000E+00 -0.00000000000E+00 -0.74505805969E-08  0.93827000000E+00  0.93827000000E+00 0.  1.
     999902    2    1    2    0    0  0.87050307886E-02 -0.56304094996E-03 -0.15611008986E-01  0.10260470982E+01  0.10258912464E+01 0.  0.
     999903    2    3    3    0    0  0.31887768289E-01  0.12960356859E+00 -0.18046427524E-01  0.13616692825E+00  0.20046048146E-01 0.  0.
         14    1    1    2    0    0 -0.87050307886E-02  0.56304094996E-03  0.15611008986E-01  0.17882901826E-01  0.00000000000E+00 0. -1.
     999901    1    3    3    0    0 -0.23182737501E-01 -0.13016660954E+00  0.24354185373E-02  0.88988016992E+00  0.88000000000E+00 0. -1.
        -11    1    4    4    0    0  0.22940279117E-01  0.54467359393E-01 -0.11534838067E-01  0.60218462745E-01  0.51100000000E-03 0. -1.
         11    1    4    4    0    0  0.89474891725E-02  0.75136209195E-01 -0.65115894567E-02  0.75948465507E-01  0.51100000000E-03 0.  1.
</event>
<event>
 8    1  0.1106905E+005  0.1043930E+01  0.7957747E-01            NaN
         13   -1    0    0    0    0  0.00000000000E+00  0.00000000000E+00  0.74505805969E-08  0.10566000000E+00  0.10566000000E+00 0. -1.
     999900   -1    0    0    0    0 -0.00000000000E+00 -0.00000000000E+00 -0.74505805969E-08  0.93827000000E+00  0.93827000000E+00 0. -1.
     999902    2    1    2    0    0 -0.57705717711E-02 -0.87263730400E-02 -0.21562520695E-01  0.10199635363E+01  0.10196819229E+01 0.  0.
     999903    2    3    3    0    0  0.10804651981E+00 -0.68237956531E-01  0.13881619735E-01  0.12993418507E+00  0.18966389452E-01 0.  0.
         14    1    1    2    0    0  0.57705717711E-02  0.87263730400E-02  0.21562520695E-01  0.23966463730E-01  0.00000000000E+00 0. -1.
     999901    1    3    3    0    0 -0.11381709158E+00  0.59511583491E-01 -0.35444140430E-01  0.89002935120E+00  0.88000000000E+00 0.  1.
        -11    1    4    4    0    0  0.31640499911E-01 -0.10230099169E-01  0.37796299182E-02  0.33471224761E-01  0.51100000000E-03 0.  1.
         11    1    4    4    0    0  0.76406019899E-01 -0.58007857362E-01  0.10101989816E-01  0.96462960310E-01  0.51100000000E-03 0. -1.
</event>
<event>
 8    1  0.1106905E+005  0.1043930E+01  0.7957747E-01            NaN
         13   -1    0    0    0    0  0.00000000000E+00  0.00000000000E+00  0.74505805969E-08  0.10566000000E+00  0.10566000000E+00 0.  1.
     999900   -1    0    0    0    0 -0.00000000000E+00 -0.00000000000E+00 -0.74505805969E-08  0.93827000000E+00  0.93827000000E+00 0.  1.
     999902    2    1    2    0    0  0.13918819249E-01 -0.19120023136E-01  0.28587456985E-02  0.10201081352E+01  0.10198299497E+01 0.  0.
     999903    2    3    3    0    0  0.19785276992E-02  0.38523767385E-01  0.12244804490E+00  0.13007050815E+00  0.20900195299E-01 0.  0.
         14    1    1    2    0    0 -0.13918819249E-01  0.19120023136E-01 -0.28587456985E-02  0.23821864767E-01  0.00000000000E+00 0. -1.
     999901    1    3    3    0    0  0.11940291550E-01 -0.57643790522E-01 -0.11958929920E+00  0.89003762709E+00  0.88000000000E+00 0.  1.
        -11    1    4    4    0    0  0.77313790681E-02  0.20701628422E-01  0.41906591757E-01  0.47378847552E-01  0.51100000000E-03 0.  1.
         11    1    4    4    0    0 -0.57528513689E-02  0.17822138963E-01  0.80541453144E-01  0.82691660593E-01  0.51100000000E-03 0. -1.
</event>
<event>
 8    1  0.1106905E+005  0.1043930E+01  0.7957747E-01            NaN
         13   -1    0    0    0    0  0.00000000000E+00  0.00000000000E+00  0.74505805969E-08  0.10566000000E+00  0.10566000000E+00 0. -1.
     999900   -1    0    0    0    0 -0.00000000000E+00 -0.00000000000E+00 -0.74505805969E-08  0.93827000000E+00  0.93827000000E+00 0.  1.
     999902    2    1    2    0    0  0.63787558034E-02  0.26291153657E-02 -0.20713489969E-01  0.10220976973E+01  0.10218644986E+01 0.  0.
     999903    2    3    3    0    0  0.83953015989E-01 -0.10007708121E+00 -0.11310058933E-01  0.13268510850E+00  0.20344274539E-01 0.  0.
         14    1    1    2    0    0 -0.63787558034E-02 -0.26291153657E-02  0.20713489969E-01  0.21832302670E-01  0.00000000000E+00 0. -1.
     999901    1    3    3    0    0 -0.77574260185E-01  0.10270619658E+00 -0.94034310357E-02  0.88941258883E+00  0.88000000000E+00 0. -1.
        -11    1    4    4    0    0  0.10567002058E-01 -0.14624459254E-01  0.53337642635E-02  0.18821437331E-01  0.51100000000E-03 0.  1.
         11    1    4    4    0    0  0.73386013930E-01 -0.85452621957E-01 -0.16643823196E-01  0.11386367117E+00  0.51100000000E-03 0. -1.
</event>
<event>
 8    1  0.1106905E+005  0.1043930E+01  0.7957747E-01            NaN
         13   -1    0    0    0    0  0.00000000000E+00  0.00000000000E+00  0.74505805969E-08  0.10566000000E+00  0.10566000000E+00 0. -1.
     999900   -1    0    0    0    0 -0.00000000000E+00 -0.00000000000E+00 -0.74505805969E-08  0.93827000000E+00  0.93827000000E+00 0. -1.
     999902    2    1    2    0    0 -0.11825385870E-01 -0.17883958393E-01 -0.94990523421E-02  0.10204798888E+01  0.10202104174E+01 0.  0.
     999903    2    3    3    0    0  0.12107315142E+00 -0.78263221526E-02 -0.41641260227E-01  0.12986420359E+00  0.20267153432E-01 0.  0.
         14    1    1    2    0    0  0.11825385870E-01  0.17883958393E-01  0.94990523421E-02  0.23450111176E-01  0.00000000000E+00 0. -1.
     999901    1    3    3    0    0 -0.13289853729E+00 -0.10057636241E-01  0.32142207885E-01  0.89061568524E+00  0.88000000000E+00 0.  1.
        -11    1    4    4    0    0  0.94938851745E-01 -0.61700256911E-02 -0.23489189444E-01  0.97997234295E-01  0.51100000000E-03 0.  1.
         11    1    4    4    0    0  0.26134299671E-01 -0.16562964615E-02 -0.18152070783E-01  0.31866969294E-01  0.51100000000E-03 0. -1.
</event>
<event>
 8    1  0.1106905E+005  0.1043930E+01  0.7957747E-01            NaN
         13   -1    0    0    0    0  0.00000000000E+00  0.00000000000E+00  0.74505805969E-08  0.10566000000E+00  0.10566000000E+00 0. -1.
     999900   -1    0    0    0    0 -0.00000000000E+00 -0.00000000000E+00 -0.74505805969E-08  0.93827000000E+00  0.93827000000E+00 0. -1.
     999902    2    1    2    0    0 -0.14156932367E-01 -0.82251284829E-02  0.17943999661E-01  0.10196388782E+01  0.10193494903E+01 0.  0.
     999903    2    3    3    0    0  0.61451571651E-01 -0.95729623321E-01 -0.58421920798E-01  0.12879352897E+00  0.15303458315E-01 0.  0.
         14    1    1    2    0    0  0.14156932367E-01  0.82251284829E-02 -0.17943999661E-01  0.24291121762E-01  0.00000000000E+00 0.  1.
     999901    1    3    3    0    0 -0.75608504019E-01  0.87504494838E-01  0.76365920459E-01  0.89084534926E+00  0.88000000000E+00 0.  1.
        -11    1    4    4    0    0  0.21007392274E-01 -0.46260355260E-01 -0.23622412534E-01  0.56032227280E-01  0.51100000000E-03 0. -1.
         11    1    4    4    0    0  0.40444179377E-01 -0.49469268061E-01 -0.34799508264E-01  0.72761301695E-01  0.51100000000E-03 0.  1.
</event>
<event>
 8    1  0.1106905E+005  0.1043930E+01  0.7957747E-01            NaN
         13   -1    0    0    0    0  0.00000000000E+00  0.00000000000E+00  0.74505805969E-08  0.10566000000E+00  0.10566000000E+00 0. -1.
     999900   -1    0    0    0    0 -0.00000000000E+00 -0.00000000000E+00 -0.74505805969E-08  0.93827000000E+00  0.93827000000E+00 0.  1.
     999902    2    1    2    0    0  0.33964176890E-02 -0.18004411458E-01  0.14877498208E-01  0.10203284230E+01  0.10200554182E+01 0.  0.
     999903    2    3    3    0    0 -0.33270282350E-01  0.10416850791E+00  0.66100067509E-01  0.12965765287E+00  0.21997688395E-01 0.  0.
         14    1    1    2    0    0 -0.33964176890E-02  0.18004411458E-01 -0.14877498208E-01  0.23601577024E-01  0.00000000000E+00 0. -1.
     999901    1    3    3    0    0  0.36666700039E-01 -0.12217291937E+00 -0.51222569301E-01  0.89067077011E+00  0.88000000000E+00 0.  1.
        -11    1    4    4    0    0 -0.20374306992E-01  0.88052284546E-01  0.58477497362E-01  0.10764848358E+00  0.51100000000E-03 0.  1.
         11    1    4    4    0    0 -0.12895975358E-01  0.16116223365E-01  0.76225701473E-02  0.22009169285E-01  0.51100000000E-03 0. -1.
</event>
<event>
 8    1  0.1106905E+005  0.1043930E+01  0.7957747E-01            NaN
         13   -1    0    0    0    0  0.00000000000E+00  0.00000000000E+00  0.74505805969E-08  0.10566000000E+00  0.10566000000E+00 0. -1.
     999900   -1    0    0    0    0 -0.00000000000E+00 -0.00000000000E+00 -0.74505805969E-08  0.93827000000E+00  0.93827000000E+00 0. -1.
     999902    2    1    2    0    0 -0.20288115045E-01  0.50024776571E-02  0.12446736366E-01  0.10196081242E+01  0.10193179942E+01 0.  0.
     999903    2    3    3    0    0  0.43141192465E-01  0.16332521434E-01 -0.11746424060E+00  0.12774013575E+00  0.19793451349E-01 0.  0.
         14    1    1    2    0    0  0.20288115045E-01 -0.50024776571E-02 -0.12446736366E-01  0.24321875769E-01  0.00000000000E+00 0.  1.
     999901    1    3    3    0    0 -0.63429307510E-01 -0.11330043777E-01  0.12991097697E+00  0.89186798848E+00  0.88000000000E+00 0.  1.
        -11    1    4    4    0    0  0.62367021915E-02 -0.15071689356E-02 -0.35694740829E-01  0.36270423988E-01  0.51100000000E-03 0. -1.
         11    1    4    4    0    0  0.36904490274E-01  0.17839690370E-01 -0.81769499776E-01  0.91469711760E-01  0.51100000000E-03 0.  1.
</event>
<event>
 8    1  0.1106905E+005  0.1043930E+01  0.7957747E-01            NaN
         13   -1    0    0    0    0  0.00000000000E+00  0.00000000000E+00  0.74505805969E-08  0.10566000000E+00  0.10566000000E+00 0.  1.
     999900   -1    0    0    0    0 -0.00000000000E+00 -0.00000000000E+00 -0.74505805969E-08  0.93827000000E+00  0.93827000000E+00 0.  1.
     999902    2    1    2    0    0  0.19246411989E-01  0.48535674361E-02  0.10604668168E-01  0.10214257675E+01  0.10211778288E+01 0.  0.
     999903    2    3    3    0    0  0.14509534261E-01  0.12213082305E+00  0.46525890170E-01  0.13290636602E+00  0.19312668129E-01 0.  0.
         14    1    1    2    0    0 -0.19246411989E-01 -0.48535674361E-02 -0.10604668168E-01  0.22504232452E-01  0.00000000000E+00 0. -1.
     999901    1    3    3    0    0  0.47368777283E-02 -0.11727725561E+00 -0.35921222002E-01  0.88851940152E+00  0.88000000000E+00 0.  1.
        -11    1    4    4    0    0  0.61143557703E-02  0.44943512495E-01  0.27209768106E-01  0.52895531600E-01  0.51100000000E-03 0.  1.
         11    1    4    4    0    0  0.83951784905E-02  0.77187310555E-01  0.19316122064E-01  0.80010834424E-01  0.51100000000E-03 0. -1.
</event>
<event>
 8    1  0.1106905E+005  0.1043930E+01  0.7957747E-01            NaN
         13   -1    0    0    0    0  0.00000000000E+00  0.00000000000E+00  0.74505805969E-08  0.10566000000E+00  0.10566000000E+00 0.  1.
     999900   -1    0    0    0    0 -0.00000000000E+00 -0.00000000000E+00 -0.74505805969E-08  0.93827000000E+00  0.93827000000E+00 0.  1.
     999902    2    1    2    0    0  0.92025505211E-02 -0.20364233974E-01 -0.80143158960E-02  0.10201893551E+01  0.10199130855E+01 0.  0.
     999903    2    3    3    0    0  0.23744281798E-01 -0.31045890082E-01 -0.12466262592E+00  0.13230851401E+00  0.20907758583E-01 0.  0.
         14    1    1    2    0    0 -0.92025505211E-02  0.20364233974E-01  0.80143158960E-02  0.23740644910E-01  0.00000000000E+00 0.  1.
     999901    1    3    3    0    0 -0.14541731277E-01  0.10681656108E-01  0.11664831002E+00  0.88788084108E+00  0.88000000000E+00 0. -1.
        -11    1    4    4    0    0  0.18342462150E-01 -0.70910153335E-02 -0.51235412017E-01  0.54882210067E-01  0.51100000000E-03 0.  1.
         11    1    4    4    0    0  0.54018196480E-02 -0.23954874749E-01 -0.73427213903E-01  0.77426303943E-01  0.51100000000E-03 0. -1.
</event>
<event>
 8    1  0.1106905E+005  0.1043930E+01  0.7957747E-01            NaN
         13   -1    0    0    0    0  0.00000000000E+00  0.00000000000E+00  0.74505805969E-08  0.10566000000E+00  0.10566000000E+00 0.  1.
     999900   -1    0    0    0    0 -0.00000000000E+00 -0.00000000000E+00 -0.74505805969E-08  0.93827000000E+00  0.93827000000E+00 0. -1.
     999902    2    1    2    0    0 -0.10438085424E-01 -0.19770094010E-01  0.53615081106E-02  0.10209396539E+01  0.10206807635E+01 0.  0.
     999903    2    3    3    0    0 -0.99956843876E-01  0.92782899319E-02 -0.82856035802E-01  0.13153549843E+00  0.18947489957E-01 0.  0.
         14    1    1    2    0    0  0.10438085424E-01  0.19770094010E-01 -0.53615081106E-02  0.22990346098E-01  0.00000000000E+00 0.  1.
     999901    1    3    3    0    0  0.89518758452E-01 -0.29048383942E-01  0.88217543912E-01  0.88940415548E+00  0.88000000000E+00 0.  1.
        -11    1    4    4    0    0 -0.78425916498E-01  0.12158870750E-01 -0.56733817339E-01  0.97557417284E-01  0.51100000000E-03 0. -1.
         11    1    4    4    0    0 -0.21530927378E-01 -0.28805808182E-02 -0.26122218463E-01  0.33978081142E-01  0.51100000000E-03 0.  1.
</event>
<event>
 8    1  0.1106905E+005  0.1043930E+01  0.7957747E-01            NaN
         13   -1    0    0    0    0  0.00000000000E+00  0.00000000000E+00  0.74505805969E-08  0.10566000000E+00  0.10566000000E+00 0. -1.
     999900   -1    0    0    0    0 -0.00000000000E+00 -0.00000000000E+00 -0.74505805969E-08  0.93827000000E+00  0.93827000000E+00 0.  1.
     999902    2    1    2    0    0 -0.17467672915E-02  0.14959743228E-01  0.17742119404E-01  0.10206570991E+01  0.10203917317E+01 0.  0.
     999903    2    3    3    0    0 -0.24800460159E-01  0.78094310104E-01  0.10392942819E+00  0.13389574540E+00  0.20321429538E-01 0.  0.
         14    1    1    2    0    0  0.17467672915E-02 -0.14959743228E-01 -0.17742119404E-01  0.23272900858E-01  0.00000000000E+00 0. -1.
     999901    1    3    3    0    0  0.23053692868E-01 -0.63134566876E-01 -0.86187308785E-01  0.88676135374E+00  0.88000000000E+00 0.  1.
        -11    1    4    4    0    0 -0.19210026358E-01  0.36220840171E-01  0.40106983288E-01  0.57356827012E-01  0.51100000000E-03 0. -1.
         11    1    4    4    0    0 -0.55904338009E-02  0.41873469933E-01  0.63822444901E-01  0.76538918391E-01  0.51100000000E-03 0.  1.
</event>
<event>
 8    1  0.1106905E+005  0.1043930E+01  0.7957747E-01            NaN
         13   -1    0    0    0    0  0.00000000000E+00  0.00000000000E+00  0.74505805969E-08  0.10566000000E+00  0.10566000000E+00 0.  1.
     999900   -1    0    0    0    0 -0.00000000000E+00 -0.00000000000E+00 -0.74505805969E-08  0.93827000000E+00  0.93827000000E+00 0.  1.
     999902    2    1    2    0    0 -0.51564246298E-02  0.10106157216E-01 -0.20768589600E-01  0.10202644672E+01  0.10199899635E+01 0.  0.
     999903    2    3    3    0    0 -0.10956241769E+00  0.54063517249E-02  0.66541956068E-01  0.12978940807E+00  0.19603737410E-01 0.  0.
         14    1    1    2    0    0  0.51564246298E-02 -0.10106157216E-01  0.20768589600E-01  0.23665532798E-01  0.00000000000E+00 0. -1.
     999901    1    3    3    0    0  0.10440599306E+00  0.46998054912E-02 -0.87310545668E-01  0.89047505914E+00  0.88000000000E+00 0.  1.
        -11    1    4    4    0    0 -0.58102026975E-01  0.10669824825E-01  0.42307955402E-01  0.72663023001E-01  0.51100000000E-03 0. -1.
         11    1    4    4    0    0 -0.51460390713E-01 -0.52634730997E-02  0.24234000666E-01  0.57126385066E-01  0.51100000000E-03 0.  1.
</event>
<event>
 8    1  0.1106905E+005  0.1043930E+01  0.7957747E-01            NaN
         13   -1    0    0    0    0  0.00000000000E+00  0.00000000000E+00  0.74505805969E-08  0.10566000000E+00  0.10566000000E+00 0. -1.
     999900   -1    0    0    0    0 -0.00000000000E+00 -0.00000000000E+00 -0.74505805969E-08  0.93827000000E+00  0.93827000000E+00 0.  1.
     999902    2    1    2    0    0  0.19685708391E-01 -0.21508317167E-02 -0.10766551967E-01  0.10213895512E+01  0.10211408049E+01 0.  0.
     999903    2    3    3    0    0 -0.42932586273E-01  0.88317559013E-01 -0.85004533518E-01  0.13143626114E+00  0.20162386486E-01 0.  0.
         14    1    1    2    0    0 -0.19685708391E-01  0.21508317167E-02  0.10766551967E-01  0.22540448824E-01  0.00000000000E+00 0. -1.
     999901    1    3    3    0    0  0.62618294664E-01 -0.90468390730E-01  0.74237981551E-01  0.88995329004E+00  0.88000000000E+00 0. -1.
        -11    1    4    4    0    0 -0.91404952943E-02  0.14290896168E-01 -0.25473247420E-01  0.30609244072E-01  0.51100000000E-03 0.  1.
         11    1    4    4    0    0 -0.33792090979E-01  0.74026662846E-01 -0.59531286097E-01  0.10082701706E+00  0.51100000000E-03 0. -1.
</event>
<event>
 8    1  0.1106905E+005  0.1043930E+01  0.7957747E-01            NaN
         13   -1    0    0    0    0  0.00000000000E+00  0.00000000000E+00  0.74505805969E-08  0.10566000000E+00  0.10566000000E+00 0.  1.
     999900   -1    0    0    0    0 -0.00000000000E+00 -0.00000000000E+00 -0.74505805969E-08  0.93827000000E+00  0.93827000000E+00 0.  1.
     999902    2    1    2    0    0  0.59215507140E-02 -0.19255288089E-01 -0.11782559469E-01  0.10205920569E+01  0.10203251869E+01 0.  0.
     999903    2    3    3    0    0 -0.16737408405E-01 -0.73826853877E-01 -0.10786111941E+00  0.13339277040E+00  0.20713882310E-01 0.  0.
         14    1    1    2    0    0 -0.59215507140E-02  0.19255288089E-01  0.11782559469E-01  0.23337943138E-01  0.00000000000E+00 0.  1.
     999901    1    3    3    0    0  0.22658959119E-01  0.54571565787E-01  0.96078559943E-01  0.88719928646E+00  0.88000000000E+00 0. -1.
        -11    1    4    4    0    0 -0.43620855133E-02 -0.32898763695E-02 -0.15993595825E-01  0.16908793717E-01  0.51100000000E-03 0.  1.
         11    1    4    4    0    0 -0.12375322891E-01 -0.70536977507E-01 -0.91867523586E-01  0.11648397668E+00  0.51100000000E-03 0. -1.
</event>
<event>
 8    1  0.1106905E+005  0.1043930E+01  0.7957747E-01            NaN
         13   -1    0    0    0    0  0.00000000000E+00  0.00000000000E+00  0.74505805969E-08  0.10566000000E+00  0.10566000000E+00 0. -1.
     999900   -1    0    0    0    0 -0.00000000000E+00 -0.00000000000E+00 -0.74505805969E-08  0.93827000000E+00  0.93827000000E+00 0.  1.
     999902    2    1    2    0    0  0.45899838199E-02 -0.82451547433E-02  0.22556303545E-01  0.10194792872E+01  0.10191860378E+01 0.  0.
     999903    2    3    3    0    0 -0.84605700214E-01 -0.55011726056E-01  0.81692857236E-01  0.13176305198E+00  0.22435784609E-01 0.  0.
         14    1    1    2    0    0 -0.45899838199E-02  0.82451547433E-02 -0.22556303545E-01  0.24450712828E-01  0.00000000000E+00 0.  1.
     999901    1    3    3    0    0  0.89195684034E-01  0.46766571313E-01 -0.59136553691E-01  0.88771623519E+00  0.88000000000E+00 0. -1.
        -11    1    4    4    0    0 -0.31181938184E-01 -0.33316490760E-01  0.38726129528E-01  0.59852118214E-01  0.51100000000E-03 0.  1.
         11    1    4    4    0    0 -0.53423762031E-01 -0.21695235296E-01  0.42966727708E-01  0.71910933765E-01  0.51100000000E-03 0. -1.
</event>
<event>
 8    1  0.1106905E+005  0.1043930E+01  0.7957747E-01            NaN
         13   -1    0    0    0    0  0.00000000000E+00  0.00000000000E+00  0.74505805969E-08  0.10566000000E+00  0.10566000000E+00 0. -1.
     999900   -1    0    0    0    0 -0.00000000000E+00 -0.00000000000E+00 -0.74505805969E-08  0.93827000000E+00  0.93827000000E+00 0. -1.
     999902    2    1    2    0    0 -0.90870356466E-02  0.19298098538E-02  0.20996444659E-01  0.10209702728E+01  0.10207120794E+01 0.  0.
     999903    2    3    3    0    0 -0.64790763914E-01  0.42600480922E-01  0.10769519377E+00  0.13402400506E+00  0.18749269557E-01 0.  0.
         14    1    1    2    0    0  0.90870356466E-02 -0.19298098538E-02 -0.20996444659E-01  0.22959727160E-01  0.00000000000E+00 0.  1.
     999901    1    3    3    0    0  0.55703728268E-01 -0.40670671068E-01 -0.86698749109E-01  0.88694626778E+00  0.88000000000E+00 0. -1.
        -11    1    4    4    0    0 -0.17499038459E-01  0.22062400484E-01  0.40334642477E-01  0.49194617255E-01  0.51100000000E-03 0. -1.
         11    1    4    4    0    0 -0.47291725455E-01  0.20538080438E-01  0.67360551291E-01  0.84829387807E-01  0.51100000000E-03 0.  1.
</event>
<event>
 8    1  0.1106905E+005  0.1043930E+01  0.7957747E-01            NaN
         13   -1    0    0    0    0  0.00000000000E+00  0.00000000000E+00  0.74505805969E-08  0.10566000000E+00  0.10566000000E+00 0.  1.
     999900   -1    0    0    0    0 -0.00000000000E+00 -0.00000000000E+00 -0.74505805969E-08  0.93827000000E+00  0.93827000000E+00 0. -1.
     999902    2    1    2    0    0  0.79697928412E-02 -0.15961113329E-01 -0.18035955019E-01  0.10185613104E+01  0.10182453401E+01 0.  0.
     999903    2    3    3    0    0  0.19196806751E-01  0.10340416466E+00  0.66784861283E-01  0.12639053850E+00  0.21293470030E-01 0.  0.
         14    1    1    2    0    0 -0.79697928412E-02  0.15961113329E-01  0.18035955019E-01  0.25368689562E-01  0.00000000000E+00 0.  1.
     999901    1    3    3    0    0 -0.11227013910E-01 -0.11936527799E+00 -0.84820816303E-01  0.89217077194E+00  0.88000000000E+00 0. -1.
        -11    1    4    4    0    0 -0.21446783265E-02  0.44931683228E-01  0.30304045188E-01  0.54240686561E-01  0.51100000000E-03 0.  1.
         11    1    4    4    0    0  0.21341485078E-01  0.58472481432E-01  0.36480816096E-01  0.72149851934E-01  0.51100000000E-03 0. -1.
</event>
<event>
 8    1  0.1106905E+005  0.1043930E+01  0.7957747E-01            NaN
         13   -1    0    0    0    0  0.00000000000E+00  0.00000000000E+00  0.74505805969E-08  0.10566000000E+00  0.10566000000E+00 0. -1.
     999900   -1    0    0    0    0 -0.00000000000E+00 -0.00000000000E+00 -0.74505805969E-08  0.93827000000E+00  0.93827000000E+00 0. -1.
     999902    2    1    2    0    0  0.21776640651E-01 -0.53234328475E-02  0.90824644280E-02  0.10197421482E+01  0.10194552450E+01 0.  0.
     999903    2    3    3    0    0 -0.96494170673E-01 -0.96378010611E-02 -0.80149847268E-01  0.12734705405E+00  0.19729723142E-01 0.  0.
         14    1    1    2    0    0 -0.21776640651E-01  0.53234328475E-02 -0.90824644280E-02  0.24187851815E-01  0.00000000000E+00 0.  1.
     999901    1    3    3    0    0  0.11827081132E+00  0.43143682136E-02  0.89232311696E-01  0.89239509413E+00  0.88000000000E+00 0.  1.
        -11    1    4    4    0    0 -0.77904143638E-01 -0.25893127501E-02 -0.71069915465E-01  0.10548437866E+00  0.51100000000E-03 0.  1.
         11    1    4    4    0    0 -0.18590027034E-01 -0.70484883109E-02 -0.90799318031E-02  0.21862675389E-01  0.51100000000E-03 0. -1.
</event>
<event>
 8    1  0.1106905E+005  0.1043930E+01  0.7957747E-01            NaN
         13   -1    0    0    0    0  0.00000000000E+00  0.00000000000E+00  0.74505805969E-08  0.10566000000E+00  0.10566000000E+00 0. -1.
     999900   -1    0    0    0    0 -0.00000000000E+00 -0.00000000000E+00 -0.74505805969E-08  0.93827000000E+00  0.93827000000E+00 0.  1.
     999902    2    1    2    0    0  0.17332314967E-01  0.76414753928E-02 -0.12852587163E-01  0.10210391659E+01  0.10207825371E+01 0.  0.
     999903    2    3    3    0    0  0.11116796258E+00  0.24983475588E-01  0.64279733498E-01  0.13252621237E+00  0.21185439999E-01 0.  0.
         14    1    1    2    0    0 -0.17332314967E-01 -0.76414753928E-02  0.12852587163E-01  0.22890834084E-01  0.00000000000E+00 0. -1.
     999901    1    3    3    0    0 -0.93835647618E-01 -0.17342000195E-01 -0.77132320662E-01  0.88851295355E+00  0.88000000000E+00 0.  1.
        -11    1    4    4    0    0  0.48442213889E-01  0.90769041979E-03  0.22656666714E-01  0.53488855437E-01  0.51100000000E-03 0.  1.
         11    1    4    4    0    0  0.62725748696E-01  0.24075785168E-01  0.41623066784E-01  0.79037356929E-01  0.51100000000E-03 0. -1.
</event>
<event>
 8    1  0.1106905E+005  0.1043930E+01  0.7957747E-01            NaN
         13   -1    0    0    0    0  0.00000000000E+00  0.00000000000E+00  0.74505805969E-08  0.10566000000E+00  0.10566000000E+00 0. -1.
     999900   -1    0    0    0    0 -0.00000000000E+00 -0.00000000000E+00 -0.74505805969E-08  0.93827000000E+00  0.93827000000E+00 0. -1.
     999902    2    1    2    0    0  0.20415547502E-01 -0.73866466102E-02 -0.95504426575E-02  0.10202114823E+01  0.10199357335E+01 0.  0.
     999903    2    3    3    0    0 -0.10694231867E-01  0.71380978196E-01  0.10491591592E+00  0.12876619269E+00  0.19072816330E-01 0.  0.
         14    1    1    2    0    0 -0.20415547502E-01  0.73866466102E-02  0.95504426575E-02  0.23718517721E-01  0.00000000000E+00 0.  1.
     999901    1    3    3    0    0  0.31109779369E-01 -0.78767624807E-01 -0.11446635857E+00  0.89144528959E+00  0.88000000000E+00 0. -1.
        -11    1    4    4    0    0  0.42239336242E-02  0.52242158983E-02  0.77005727210E-02  0.10232008026E-01  0.51100000000E-03 0.  1.
         11    1    4    4    0    0 -0.14918165491E-01  0.66156762298E-01  0.97215343196E-01  0.11853418466E+00  0.51100000000E-03 0. -1.
</event>
<event>
 8    1  0.1137473E+005  0.1043930E+01  0.7957747E-01            NaN
         13   -1    0    0    0    0  0.00000000000E+00  0.00000000000E+00  0.74505805969E-08  0.10566000000E+00  0.10566000000E+00 0.  1.
     999900   -1    0    0    0    0 -0.00000000000E+00 -0.00000000000E+00 -0.74505805969E-08  0.93827000000E+00  0.93827000000E+00 0.  1.
     999902    2    1    2    0    0 -0.23458996918E-01 -0.37308586325E-02 -0.39872934378E-02  0.10198438556E+01  0.10195593889E+01 0.  0.
     999903    2    3    3    0    0 -0.17427897557E-01  0.12225652368E-02 -0.12831193565E+00  0.13107080965E+00  0.20257789448E-01 0.  0.
         14    1    1    2    0    0  0.23458996918E-01  0.37308586325E-02  0.39872934378E-02  0.24086144388E-01  0.00000000000E+00 0.  1.
     999901    1    3    3    0    0 -0.60310993608E-02 -0.49534238692E-02  0.12432464221E+00  0.88877304596E+00  0.88000000000E+00 0. -1.
        -11    1    4    4    0    0 -0.11567852669E-02  0.63740253685E-02 -0.70259769072E-01  0.70559638764E-01  0.51100000000E-03 0. -1.
         11    1    4    4    0    0 -0.16271112290E-01 -0.51514601317E-02 -0.58052166577E-01  0.60511170886E-01  0.51100000000E-03 0.  1.
</event>
<event>
 8    1  0.1106905E+005  0.1043930E+01  0.7957747E-01            NaN
         13   -1    0    0    0    0  0.00000000000E+00  0.00000000000E+00  0.74505805969E-08  0.10566000000E+00  0.10566000000E+00 0.  1.
     999900   -1    0    0    0    0 -0.00000000000E+00 -0.00000000000E+00 -0.74505805969E-08  0.93827000000E+00  0.93827000000E+00 0.  1.
     999902    2    1    2    0    0  0.89502112792E-02 -0.18867765943E-01  0.23030234149E-02  0.10229204119E+01  0.10227046330E+01 0.  0.
     999903    2    3    3    0    0 -0.16905049054E-01 -0.42449253281E-01  0.12432342132E+00  0.13381211790E+00  0.19017098060E-01 0.  0.
         14    1    1    2    0    0 -0.89502112792E-02  0.18867765943E-01 -0.23030234149E-02  0.21009588061E-01  0.00000000000E+00 0. -1.
     999901    1    3    3    0    0  0.25855260333E-01  0.23581487337E-01 -0.12202039791E+00  0.88910829404E+00  0.88000000000E+00 0.  1.
        -11    1    4    4    0    0 -0.10384422600E-01 -0.16374396509E-01  0.29931001271E-01  0.35666273310E-01  0.51100000000E-03 0. -1.
         11    1    4    4    0    0 -0.65206264536E-02 -0.26074856772E-01  0.94392420052E-01  0.98145844585E-01  0.51100000000E-03 0.  1.
</event>
<event>
 8    1  0.1106905E+005  0.1043930E+01  0.7957747E-01            NaN
         13   -1    0    0    0    0  0.00000000000E+00  0.00000000000E+00  0.74505805969E-08  0.10566000000E+00  0.10566000000E+00 0.  1.
     999900   -1    0    0    0    0 -0.00000000000E+00 -0.00000000000E+00 -0.74505805969E-08  0.93827000000E+00  0.93827000000E+00 0.  1.
     999902    2    1    2    0    0 -0.50410941131E-02  0.23009052134E-01  0.33453656921E-02  0.10201388129E+01  0.10198613519E+01 0.  0.
     999903    2    3    3    0    0  0.71358200934E-01 -0.10471599454E+00  0.60401908170E-03  0.12763780184E+00  0.15284347144E-01 0.  0.
         14    1    1    2    0    0  0.50410941131E-02 -0.23009052134E-01 -0.33453656921E-02  0.23791187057E-01  0.00000000000E+00 0. -1.
     999901    1    3    3    0    0 -0.76399295047E-01  0.12772504667E+00  0.27413466104E-02  0.89250101110E+00  0.88000000000E+00 0.  1.
        -11    1    4    4    0    0  0.27151059760E-01 -0.51302287895E-01  0.42805072657E-02  0.58203854278E-01  0.51100000000E-03 0.  1.
         11    1    4    4    0    0  0.44207141173E-01 -0.53413706645E-01 -0.36764881840E-02  0.69433947566E-01  0.51100000000E-03 0. -1.
</event>
<event>
 8    1  0.1106905E+005  0.1043930E+01  0.7957747E-01            NaN
         13   -1    0    0    0    0  0.00000000000E+00  0.00000000000E+00  0.74505805969E-08  0.10566000000E+00  0.10566000000E+00 0. -1.
     999900   -1    0    0    0    0 -0.00000000000E+00 -0.00000000000E+00 -0.74505805969E-08  0.93827000000E+00  0.93827000000E+00 0.  1.
     999902    2    1    2    0    0  0.87586676920E-02 -0.17478453581E-01  0.98365399706E-02  0.10220446597E+01  0.10218103143E+01 0.  0.
     999903    2    3    3    0    0  0.84602909257E-01 -0.98937433542E-01  0.27928857896E-01  0.13484950288E+00  0.21403254759E-01 0.  0.
         14    1    1    2    0    0 -0.87586676920E-02  0.17478453581E-01 -0.98365399706E-02  0.21885340251E-01  0.00000000000E+00 0.  1.
     999901    1    3    3    0    0 -0.75844241565E-01  0.81458979961E-01 -0.18092317926E-01  0.88719515686E+00  0.88000000000E+00 0.  1.
        -11    1    4    4    0    0  0.63042675716E-01 -0.58490735267E-01  0.15845602849E-01  0.87446494064E-01  0.51100000000E-03 0.  1.
         11    1    4    4    0    0  0.21560233541E-01 -0.40446698275E-01  0.12083255048E-01  0.47403008821E-01  0.51100000000E-03 0. -1.
</event>
<event>
 8    1  0.1106905E+005  0.1043930E+01  0.7957747E-01            NaN
         13   -1    0    0    0    0  0.00000000000E+00  0.00000000000E+00  0.74505805969E-08  0.10566000000E+00  0.10566000000E+00 0.  1.
     999900   -1    0    0    0    0 -0.00000000000E+00 -0.00000000000E+00 -0.74505805969E-08  0.93827000000E+00  0.93827000000E+00 0. -1.
     999902    2    1    2    0    0 -0.11333791522E-01  0.17183742758E-01  0.13734279779E-01  0.10191839642E+01  0.10188835000E+01 0.  0.
     999903    2    3    3    0    0 -0.12419748754E+00  0.35265695811E-01  0.17455833946E-01  0.13178381724E+00  0.19838929816E-01 0.  0.
         14    1    1    2    0    0  0.11333791522E-01 -0.17183742758E-01 -0.13734279779E-01  0.24746035773E-01  0.00000000000E+00 0. -1.
     999901    1    3    3    0    0  0.11286369602E+00 -0.18081953053E-01 -0.37215541668E-02  0.88740014699E+00  0.88000000000E+00 0. -1.
        -11    1    4    4    0    0 -0.79233770829E-01  0.16085471097E-01  0.18271899712E-01  0.82890628302E-01  0.51100000000E-03 0. -1.
         11    1    4    4    0    0 -0.44963716708E-01  0.19180224714E-01 -0.81606576599E-03  0.48893188939E-01  0.51100000000E-03 0.  1.
</event>
<event>
 8    1  0.1106905E+005  0.1043930E+01  0.7957747E-01            NaN
         13   -1    0    0    0    0  0.00000000000E+00  0.00000000000E+00  0.74505805969E-08  0.10566000000E+00  0.10566000000E+00 0. -1.
     999900   -1    0    0    0    0 -0.00000000000E+00 -0.00000000000E+00 -0.74505805969E-08  0.93827000000E+00  0.93827000000E+00 0. -1.
     999902    2    1    2    0    0  0.10316302539E-01  0.19121707627E-01 -0.78261974902E-02  0.10208363825E+01  0.10205751343E+01 0.  0.
     999903    2    3    3    0    0  0.19605830659E-01  0.12933559195E+00 -0.19768074235E-01  0.13383243437E+00  0.20205439593E-01 0.  0.
         14    1    1    2    0    0 -0.10316302539E-01 -0.19121707627E-01  0.78261974902E-02  0.23093617469E-01  0.00000000000E+00 0.  1.
     999901    1    3    3    0    0 -0.92895281204E-02 -0.11021388433E+00  0.11941876745E-01  0.88700394816E+00  0.88000000000E+00 0. -1.
        -11    1    4    4    0    0  0.13864701943E-01  0.11861478824E+00 -0.22067412965E-01  0.12144517193E+00  0.51100000000E-03 0. -1.
         11    1    4    4    0    0  0.57411287164E-02  0.10720803713E-01  0.22993387301E-02  0.12387262441E-01  0.51100000000E-03 0.  1.
</event>
<event>
 8    1  0.1106905E+005  0.1043930E+01  0.7957747E-01            NaN
         13   -1    0    0    0    0  0.00000000000E+00  0.00000000000E+00  0.74505805969E-08  0.10566000000E+00  0.10566000000E+00 0.  1.
     999900   -1    0    0    0    0 -0.00000000000E+00 -0.00000000000E+00 -0.74505805969E-08  0.93827000000E+00  0.93827000000E+00 0.  1.
     999902    2    1    2    0    0  0.14890157636E-01 -0.16585454563E-01  0.94900683832E-02  0.10197048995E+01  0.10194171013E+01 0.  0.
     999903    2    3    3    0    0 -0.87946625531E-01  0.69495953595E-01  0.58833154862E-01  0.12817803337E+00  0.20099045237E-01 0.  0.
         14    1    1    2    0    0 -0.14890157636E-01  0.16585454563E-01 -0.94900683832E-02  0.24225100524E-01  0.00000000000E+00 0. -1.
     999901    1    3    3    0    0  0.10283678317E+00 -0.86081408159E-01 -0.49343086479E-01  0.89152686610E+00  0.88000000000E+00 0. -1.
        -11    1    4    4    0    0 -0.77680293094E-01  0.51892403037E-01  0.46506102297E-01  0.10435577655E+00  0.51100000000E-03 0. -1.
         11    1    4    4    0    0 -0.10266332437E-01  0.17603550558E-01  0.12327052565E-01  0.23822256818E-01  0.51100000000E-03 0.  1.
</event>
<event>
 7    1  0.1106905E+005  0.1043930E+01  0.7957747E-01            NaN
         13   -1    0    0    0    0  0.00000000000E+00  0.00000000000E+00  0.74505805969E-08  0.10566000000E+00  0.10566000000E+00 0.  1.
     999900   -1    0    0    0    0 -0.00000000000E+00 -0.00000000000E+00 -0.74505805969E-08  0.93827000000E+00  0.93827000000E+00 0.  1.
     999903    2    1    2    0    0  0.87149983875E-01 -0.14769666843E-01 -0.78177437457E-01  0.12017524791E+00  0.22740178881E-01 0.  0.
         14    1    1    2    0    0 -0.30295630021E-01 -0.12677348744E-01  0.22357277389E-01  0.39728934315E-01  0.00000000000E+00 0.  1.
     999901    1    1    2    0    0 -0.56854353854E-01  0.27447015588E-01  0.55820160068E-01  0.88402581777E+00  0.88000000000E+00 0. -1.
        -11    1    3    3    0    0  0.46258102657E-01 -0.13526144778E-01 -0.29183475320E-01  0.56344520645E-01  0.51100000000E-03 0.  1.
         11    1    3    3    0    0  0.40891881219E-01 -0.12435220649E-02 -0.48993962137E-01  0.63830727268E-01  0.51100000000E-03 0. -1.
</event>
<event>
 8    1  0.1106905E+005  0.1043930E+01  0.7957747E-01            NaN
         13   -1    0    0    0    0  0.00000000000E+00  0.00000000000E+00  0.74505805969E-08  0.10566000000E+00  0.10566000000E+00 0.  1.
     999900   -1    0    0    0    0 -0.00000000000E+00 -0.00000000000E+00 -0.74505805969E-08  0.93827000000E+00  0.93827000000E+00 0. -1.
     999902    2    1    2    0    0  0.79329919119E-02 -0.19494792925E-01  0.15313329546E-01  0.10179016045E+01  0.10175687687E+01 0.  0.
     999903    2    3    3    0    0  0.44295048068E-01 -0.95772810391E-01  0.76361631032E-01  0.13174844040E+00  0.19800766689E-01 0.  0.
         14    1    1    2    0    0 -0.79329919119E-02  0.19494792925E-01 -0.15313329546E-01  0.26028395526E-01  0.00000000000E+00 0. -1.
     999901    1    3    3    0    0 -0.36362056156E-01  0.76278017466E-01 -0.61048301485E-01  0.88615316407E+00  0.88000000000E+00 0. -1.
        -11    1    4    4    0    0  0.11534699055E-01 -0.40758572069E-01  0.39186701135E-01  0.57707617749E-01  0.51100000000E-03 0. -1.
         11    1    4    4    0    0  0.32760349013E-01 -0.55014238322E-01  0.37174929897E-01  0.74040822655E-01  0.51100000000E-03 0.  1.
</event>
<event>
 8    1  0.1106905E+005  0.1043930E+01  0.7957747E-01            NaN
         13   -1    0    0    0    0  0.00000000000E+00  0.00000000000E+00  0.74505805969E-08  0.10566000000E+00  0.10566000000E+00 0. -1.
     999900   -1    0    0    0    0 -0.00000000000E+00 -0.00000000000E+00 -0.74505805969E-08  0.93827000000E+00  0.93827000000E+00 0.  1.
     999902    2    1    2    0    0  0.86547984625E-02 -0.19326533775E-02 -0.22083148945E-01  0.10201328121E+01  0.10198552094E+01 0.  0.
     999903    2    3    3    0    0 -0.87349316335E-01 -0.92606306972E-01  0.10450460403E-01  0.12968520708E+00  0.22432335092E-01 0.  0.
         14    1    1    2    0    0 -0.86547984625E-02  0.19326533775E-02  0.22083148945E-01  0.23797187919E-01  0.00000000000E+00 0. -1.
     999901    1    3    3    0    0  0.96004114797E-01  0.90673653595E-01 -0.32533609348E-01  0.89044760500E+00  0.88000000000E+00 0.  1.
        -11    1    4    4    0    0 -0.65347379337E-01 -0.79167882042E-01  0.24435011827E-02  0.10268429944E+00  0.51100000000E-03 0. -1.
         11    1    4    4    0    0 -0.22001936998E-01 -0.13438424931E-01  0.80069592198E-02  0.27000907637E-01  0.51100000000E-03 0.  1.
</event>
<event>
 8    1  0.1106905E+005  0.1043930E+01  0.7957747E-01            NaN
         13   -1    0    0    0    0  0.00000000000E+00  0.00000000000E+00  0.74505805969E-08  0.10566000000E+00  0.10566000000E+00 0. -1.
     999900   -1    0    0    0    0 -0.00000000000E+00 -0.00000000000E+00 -0.74505805969E-08  0.93827000000E+00  0.93827000000E+00 0.  1.
     999902    2    1    2    0    0  0.22345048568E-01  0.16450775721E-02  0.85266095695E-02  0.10199568787E+01  0.10196751070E+01 0.  0.
     999903    2    3    3    0    0 -0.12763245746E-01 -0.12126064272E+00 -0.39537346210E-01  0.12942414358E+00  0.17898695001E-01 0.  0.
         14    1    1    2    0    0 -0.22345048568E-01 -0.16450775721E-02 -0.85266095695E-02  0.23973121334E-01  0.00000000000E+00 0.  1.
     999901    1    3    3    0    0  0.35108294314E-01  0.12290572029E+00  0.48063955780E-01  0.89053273508E+00  0.88000000000E+00 0.  1.
        -11    1    4    4    0    0 -0.17202474694E-01 -0.10132798546E+00 -0.34049742609E-01  0.10827248896E+00  0.51100000000E-03 0.  1.
         11    1    4    4    0    0  0.44392289482E-02 -0.19932657261E-01 -0.54876036017E-02  0.21151654626E-01  0.51100000000E-03 0. -1.
</event>
<event>
 8    1  0.1106905E+005  0.1043930E+01  0.7957747E-01            NaN
         13   -1    0    0    0    0  0.00000000000E+00  0.00000000000E+00  0.74505805969E-08  0.10566000000E+00  0.10566000000E+00 0. -1.
     999900   -1    0    0    0    0 -0.00000000000E+00 -0.00000000000E+00 -0.74505805969E-08  0.93827000000E+00  0.93827000000E+00 0.  1.
     999902    2    1    2    0    0 -0.12494066385E-01  0.19580649285E-01 -0.26634264318E-02  0.10205505782E+01  0.10202827478E+01 0.  0.
     999903    2    3    3    0    0 -0.82998797407E-01 -0.74568048873E-01  0.64241439511E-01  0.13020729863E+00  0.19436660806E-01 0.  0.
         14    1    1    2    0    0  0.12494066385E-01 -0.19580649285E-01  0.26634264318E-02  0.23379421756E-01  0.00000000000E+00 0. -1.
     999901    1    3    3    0    0  0.70504731022E-01  0.94148698158E-01 -0.66904865943E-01  0.89034327961E+00  0.88000000000E+00 0.  1.
        -11    1    4    4    0    0 -0.63498236695E-01 -0.51241757208E-01  0.55087890365E-01  0.98451412031E-01  0.51100000000E-03 0. -1.
         11    1    4    4    0    0 -0.19500560712E-01 -0.23326291665E-01  0.91535491465E-02  0.31755886602E-01  0.51100000000E-03 0.  1.
</event>
<event>
 8    1  0.1106905E+005  0.1043930E+01  0.7957747E-01            NaN
         13   -1    0    0    0    0  0.00000000000E+00  0.00000000000E+00  0.74505805969E-08  0.10566000000E+00  0.10566000000E+00 0. -1.
     999900   -1    0    0    0    0 -0.00000000000E+00 -0.00000000000E+00 -0.74505805969E-08  0.93827000000E+00  0.93827000000E+00 0.  1.
     999902    2    1    2    0    0  0.37153448497E-03 -0.17909152500E-01 -0.17306712130E-01  0.10190222087E+01  0.10187177547E+01 0.  0.
     999903    2    3    3    0    0 -0.49937772564E-01 -0.95578278807E-01  0.69647567112E-01  0.12990772441E+00  0.19905897305E-01 0.  0.
         14    1    1    2    0    0 -0.37153448497E-03  0.17909152500E-01  0.17306712130E-01  0.24907791269E-01  0.00000000000E+00 0.  1.
     999901    1    3    3    0    0  0.50309307048E-01  0.77669126308E-01 -0.86954279242E-01  0.88911448432E+00  0.88000000000E+00 0.  1.
        -11    1    4    4    0    0 -0.19498273313E-01 -0.39789985399E-01  0.17301096983E-01  0.47571153844E-01  0.51100000000E-03 0.  1.
         11    1    4    4    0    0 -0.30439499251E-01 -0.55788293408E-01  0.52346470129E-01  0.82336570562E-01  0.51100000000E-03 0. -1.
</event>
<event>
 8    1  0.1106905E+005  0.1043930E+01  0.7957747E-01            NaN
         13   -1    0    0    0    0  0.00000000000E+00  0.00000000000E+00  0.74505805969E-08  0.10566000000E+00  0.10566000000E+00 0. -1.
     999900   -1    0    0    0    0 -0.00000000000E+00 -0.00000000000E+00 -0.74505805969E-08  0.93827000000E+00  0.93827000000E+00 0. -1.
     999902    2    1    2    0    0 -0.17042868870E-01 -0.10825679260E-01 -0.11417049010E-01  0.10207350928E+01  0.10204715214E+01 0.  0.
     999903    2    3    3    0    0 -0.11747165484E-01 -0.32409998853E-01 -0.12678968134E+00  0.13292612034E+00  0.20132716015E-01 0.  0.
         14    1    1    2    0    0  0.17042868870E-01  0.10825679260E-01  0.11417049010E-01  0.23194907175E-01  0.00000000000E+00 0. -1.
     999901    1    3    3    0    0 -0.52957033867E-02  0.21584319593E-01  0.11537263233E+00  0.88780897248E+00  0.88000000000E+00 0.  1.
        -11    1    4    4    0    0 -0.79993529080E-02 -0.29130104262E-01 -0.74439982050E-01  0.80337566990E-01  0.51100000000E-03 0. -1.
         11    1    4    4    0    0 -0.37478125755E-02 -0.32798945906E-02 -0.52349699286E-01  0.52588553355E-01  0.51100000000E-03 0.  1.
</event>
<event>
 8    1  0.1106905E+005  0.1043930E+01  0.7957747E-01            NaN
         13   -1    0    0    0    0  0.00000000000E+00  0.00000000000E+00  0.74505805969E-08  0.10566000000E+00  0.10566000000E+00 0.  1.
     999900   -1    0    0    0    0 -0.00000000000E+00 -0.00000000000E+00 -0.74505805969E-08  0.93827000000E+00  0.93827000000E+00 0. -1.
     999902    2    1    2    0    0 -0.21782018986E-01  0.84680752824E-02  0.37427990726E-02  0.10202620217E+01  0.10199874606E+01 0.  0.
     999903    2    3    3    0    0  0.11514676657E+00 -0.28172347938E-01 -0.43080477147E-01  0.12769021391E+00  0.19909901500E-01 0.  0.
         14    1    1    2    0    0  0.21782018986E-01 -0.84680752824E-02 -0.37427990726E-02  0.23667978262E-01  0.00000000000E+00 0.  1.
     999901    1    3    3    0    0 -0.13692878556E+00  0.36640423221E-01  0.46823276219E-01  0.89257180783E+00  0.88000000000E+00 0. -1.
        -11    1    4    4    0    0  0.74344938610E-01 -0.24494561675E-01 -0.20536469403E-01  0.80926887652E-01  0.51100000000E-03 0.  1.
         11    1    4    4    0    0  0.40801827962E-01 -0.36777862637E-02 -0.22544007744E-01  0.46763326261E-01  0.51100000000E-03 0. -1.
</event>
<event>
 8    1  0.1106905E+005  0.1043930E+01  0.7957747E-01            NaN
         13   -1    0    0    0    0  0.00000000000E+00  0.00000000000E+00  0.74505805969E-08  0.10566000000E+00  0.10566000000E+00 0.  1.
     999900   -1    0    0    0    0 -0.00000000000E+00 -0.00000000000E+00 -0.74505805969E-08  0.93827000000E+00  0.93827000000E+00 0. -1.
     999902    2    1    2    0    0 -0.20108082157E-01  0.65138701335E-04  0.12700636187E-01  0.10201466998E+01  0.10198694248E+01 0.  0.
     999903    2    3    3    0    0  0.57277981314E-01  0.89162159600E-01 -0.70143585317E-01  0.12841240806E+00  0.18411032931E-01 0.  0.
         14    1    1    2    0    0  0.20108082157E-01 -0.65138701335E-04 -0.12700636187E-01  0.23783300247E-01  0.00000000000E+00 0. -1.
     999901    1    3    3    0    0 -0.77386063471E-01 -0.89097020898E-01  0.82844221504E-01  0.89173429170E+00  0.88000000000E+00 0.  1.
        -11    1    4    4    0    0  0.16590142860E-01  0.20796273868E-01 -0.90581940286E-02  0.28107469594E-01  0.51100000000E-03 0.  1.
         11    1    4    4    0    0  0.40687838455E-01  0.68365885731E-01 -0.61085391289E-01  0.10030493846E+00  0.51100000000E-03 0. -1.
</event>
<event>
 8    1  0.1106905E+005  0.1043930E+01  0.7957747E-01            NaN
         13   -1    0    0    0    0  0.00000000000E+00  0.00000000000E+00  0.74505805969E-08  0.10566000000E+00  0.10566000000E+00 0.  1.
     999900   -1    0    0    0    0 -0.00000000000E+00 -0.00000000000E+00 -0.74505805969E-08  0.93827000000E+00  0.93827000000E+00 0. -1.
     999902    2    1    2    0    0  0.62917283646E-02  0.12930268586E-01 -0.18538111164E-01  0.10204685581E+01  0.10201988232E+01 0.  0.
     999903    2    3    3    0    0 -0.40792803014E-01 -0.82872323133E-01 -0.90794217147E-01  0.13107773593E+00  0.20147165286E-01 0.  0.
         14    1    1    2    0    0 -0.62917283646E-02 -0.12930268586E-01  0.18538111164E-01  0.23461441922E-01  0.00000000000E+00 0.  1.
     999901    1    3    3    0    0  0.47084531379E-01  0.95802591719E-01  0.72256105983E-01  0.88939082215E+00  0.88000000000E+00 0.  1.
        -11    1    4    4    0    0 -0.14786922821E-01 -0.38501486169E-01 -0.27739330692E-01  0.49706630463E-01  0.51100000000E-03 0. -1.
         11    1    4    4    0    0 -0.26005880193E-01 -0.44370836964E-01 -0.63054886455E-01  0.81371105463E-01  0.51100000000E-03 0.  1.
</event>
<event>
 8    1  0.1106905E+005  0.1043930E+01  0.7957747E-01            NaN
         13   -1    0    0    0    0  0.00000000000E+00  0.00000000000E+00  0.74505805969E-08  0.10566000000E+00  0.10566000000E+00 0. -1.
     999900   -1    0    0    0    0 -0.00000000000E+00 -0.00000000000E+00 -0.74505805969E-08  0.93827000000E+00  0.93827000000E+00 0.  1.
     999902    2    1    2    0    0  0.12080296865E-02  0.20912931314E-01 -0.12190498230E-01  0.10196932865E+01  0.10194052091E+01 0.  0.
     999903    2    3    3    0    0  0.10688718449E+00  0.74275978932E-01 -0.28638773146E-03  0.13168573790E+00  0.19981498789E-01 0.  0.
         14    1    1    2    0    0 -0.12080296865E-02 -0.20912931314E-01  0.12190498230E-01  0.24236713452E-01  0.00000000000E+00 0. -1.
     999901    1    3    3    0    0 -0.10567915480E+00 -0.53363047618E-01 -0.11904110499E-01  0.88800754865E+00  0.88000000000E+00 0.  1.
        -11    1    4    4    0    0  0.71580904049E-01  0.59285546601E-01 -0.47494154699E-02  0.93066749855E-01  0.51100000000E-03 0.  1.
         11    1    4    4    0    0  0.35306280439E-01  0.14990432331E-01  0.44630277385E-02  0.38618988043E-01  0.51100000000E-03 0. -1.
</event>
<event>
 8    1  0.1106905E+005  0.1043930E+01  0.7957747E-01            NaN
         13   -1    0    0    0    0  0.00000000000E+00  0.00000000000E+00  0.74505805969E-08  0.10566000000E+00  0.10566000000E+00 0. -1.
     999900   -1    0    0    0    0 -0.00000000000E+00 -0.00000000000E+00 -0.74505805969E-08  0.93827000000E+00  0.93827000000E+00 0. -1.
     999902    2    1    2    0    0  0.15169283542E-01  0.92596425611E-02  0.15537000050E-01  0.10203239306E+01  0.10200508207E+01 0.  0.
     999903    2    3    3    0    0  0.12190272736E+00 -0.40130979546E-01  0.24925555343E-01  0.13245028722E+00  0.21237344915E-01 0.  0.
         14    1    1    2    0    0 -0.15169283542E-01 -0.92596425611E-02 -0.15537000050E-01  0.23606069433E-01  0.00000000000E+00 0.  1.
     999901    1    3    3    0    0 -0.10673344381E+00  0.49390622108E-01 -0.93885552926E-02  0.88787364335E+00  0.88000000000E+00 0. -1.
        -11    1    4    4    0    0  0.62752667805E-01 -0.11399858064E-01  0.62392569095E-02  0.64086219488E-01  0.51100000000E-03 0.  1.
         11    1    4    4    0    0  0.59150059551E-01 -0.28731121483E-01  0.18686298433E-01  0.68364067731E-01  0.51100000000E-03 0. -1.
</event>
<event>
 8    1  0.1106905E+005  0.1043930E+01  0.7957747E-01            NaN
         13   -1    0    0    0    0  0.00000000000E+00  0.00000000000E+00  0.74505805969E-08  0.10566000000E+00  0.10566000000E+00 0.  1.
     999900   -1    0    0    0    0 -0.00000000000E+00 -0.00000000000E+00 -0.74505805969E-08  0.93827000000E+00  0.93827000000E+00 0.  1.
     999902    2    1    2    0    0  0.19833940475E-01 -0.12907447533E-01  0.54115429638E-02  0.10196550707E+01  0.10193660731E+01 0.  0.
     999903    2    3    3    0    0 -0.36346050176E-01 -0.11025275603E+00 -0.55823962262E-01  0.13039577916E+00  0.20249416924E-01 0.  0.
         14    1    1    2    0    0 -0.19833940475E-01  0.12907447533E-01 -0.54115429638E-02  0.24274929327E-01  0.00000000000E+00 0. -1.
     999901    1    3    3    0    0  0.56179990651E-01  0.97345308496E-01  0.61235505225E-01  0.88925929151E+00  0.88000000000E+00 0. -1.
        -11    1    4    4    0    0 -0.58264437193E-02 -0.48152083641E-01 -0.26135850584E-01  0.55099132590E-01  0.51100000000E-03 0. -1.
         11    1    4    4    0    0 -0.30519606457E-01 -0.62100672387E-01 -0.29688111677E-01  0.75296646573E-01  0.51100000000E-03 0.  1.
</event>
<event>
 8    1  0.1106905E+005  0.1043930E+01  0.7957747E-01            NaN
         13   -1    0    0    0    0  0.00000000000E+00  0.00000000000E+00  0.74505805969E-08  0.10566000000E+00  0.10566000000E+00 0. -1.
     999900   -1    0    0    0    0 -0.00000000000E+00 -0.00000000000E+00 -0.74505805969E-08  0.93827000000E+00  0.93827000000E+00 0.  1.
     999902    2    1    2    0    0 -0.16914029904E-01  0.18159191918E-01  0.12420322497E-02  0.10190828009E+01  0.10187798446E+01 0.  0.
     999903    2    3    3    0    0  0.85568036304E-02 -0.84290720910E-01 -0.93432798333E-01  0.12773097837E+00  0.20183421664E-01 0.  0.
         14    1    1    2    0    0  0.16914029904E-01 -0.18159191918E-01 -0.12420322497E-02  0.24847199094E-01  0.00000000000E+00 0.  1.
     999901    1    3    3    0    0 -0.25470833535E-01  0.10244991283E+00  0.94674830583E-01  0.89135182254E+00  0.88000000000E+00 0. -1.
        -11    1    4    4    0    0  0.10259343913E-01 -0.17942528457E-01 -0.20413689505E-01  0.29054574600E-01  0.51100000000E-03 0. -1.
         11    1    4    4    0    0 -0.17025402827E-02 -0.66348192452E-01 -0.73019108828E-01  0.98676403766E-01  0.51100000000E-03 0.  1.
</event>
<event>
 8    1  0.1106905E+005  0.1043930E+01  0.7957747E-01            NaN
         13   -1    0    0    0    0  0.00000000000E+00  0.00000000000E+00  0.74505805969E-08  0.10566000000E+00  0.10566000000E+00 0.  1.
     999900   -1    0    0    0    0 -0.00000000000E+00 -0.00000000000E+00 -0.74505805969E-08  0.93827000000E+00  0.93827000000E+00 0. -1.
     999902    2    1    2    0    0  0.12544108763E-01  0.14787071073E-01 -0.11763644416E-01  0.10212497120E+01  0.10209978348E+01 0.  0.
     999903    2    3    3    0    0  0.49637748079E-01 -0.11824753996E+00  0.10814120203E-01  0.13019196901E+00  0.19662575096E-01 0.  0.
         14    1    1    2    0    0 -0.12544108763E-01 -0.14787071073E-01  0.11763644416E-01  0.22680288039E-01  0.00000000000E+00 0.  1.
     999901    1    3    3    0    0 -0.37093639315E-01  0.13303461103E+00 -0.22577764619E-01  0.89105774295E+00  0.88000000000E+00 0.  1.
        -11    1    4    4    0    0  0.27741674002E-01 -0.86530979963E-01  0.33529725287E-02  0.90932472283E-01  0.51100000000E-03 0.  1.
         11    1    4    4    0    0  0.21896074077E-01 -0.31716559996E-01  0.74611476738E-02  0.39259496731E-01  0.51100000000E-03 0. -1.
</event>
<event>
 8    1  0.1390247E+005  0.1043930E+01  0.7957747E-01            NaN
         13   -1    0    0    0    0  0.00000000000E+00  0.00000000000E+00  0.74505805969E-08  0.10566000000E+00  0.10566000000E+00 0.  1.
     999900   -1    0    0    0    0 -0.00000000000E+00 -0.00000000000E+00 -0.74505805969E-08  0.93827000000E+00  0.93827000000E+00 0. -1.
     999902    2    1    2    0    0  0.63004638281E-02  0.11907738571E-01  0.18598490763E-01  0.10209649409E+01  0.10207066261E+01 0.  0.
     999903    2    3    3    0    0  0.10648846079E+00 -0.23869119270E-01 -0.68415305854E-01  0.13029720310E+00  0.19676888081E-01 0.  0.
         14    1    1    2    0    0 -0.63004638281E-02 -0.11907738571E-01 -0.18598490763E-01  0.22965059133E-01  0.00000000000E+00 0. -1.
     999901    1    3    3    0    0 -0.10018799696E+00  0.35776857841E-01  0.87013796616E-01  0.89066773776E+00  0.88000000000E+00 0.  1.
        -11    1    4    4    0    0  0.55196984284E-01 -0.99465753780E-02 -0.23900162284E-01  0.60968191002E-01  0.51100000000E-03 0. -1.
         11    1    4    4    0    0  0.51291476509E-01 -0.13922543892E-01 -0.44515143570E-01  0.69329012101E-01  0.51100000000E-03 0.  1.
</event>
<event>
 8    1  0.1106905E+005  0.1043930E+01  0.7957747E-01            NaN
         13   -1    0    0    0    0  0.00000000000E+00  0.00000000000E+00  0.74505805969E-08  0.10566000000E+00  0.10566000000E+00 0. -1.
     999900   -1    0    0    0    0 -0.00000000000E+00 -0.00000000000E+00 -0.74505805969E-08  0.93827000000E+00  0.93827000000E+00 0. -1.
     999902    2    1    2    0    0 -0.12226995016E-01  0.15050183339E-01 -0.88425139316E-02  0.10226180907E+01  0.10223959908E+01 0.  0.
     999903    2    3    3    0    0 -0.12249620586E+00 -0.16157684063E-01 -0.48769347408E-01  0.13428967064E+00  0.19719918612E-01 0.  0.
         14    1    1    2    0    0  0.12226995016E-01 -0.15050183339E-01  0.88425139316E-02  0.21311909306E-01  0.00000000000E+00 0. -1.
     999901    1    3    3    0    0  0.11026921084E+00  0.31207867402E-01  0.39926833477E-01  0.88832842006E+00  0.88000000000E+00 0. -1.
        -11    1    4    4    0    0 -0.57602578570E-02 -0.50105396480E-02 -0.48918067997E-02  0.90816833742E-02  0.51100000000E-03 0.  1.
         11    1    4    4    0    0 -0.11673594800E+00 -0.11147144415E-01 -0.43877540609E-01  0.12520798726E+00  0.51100000000E-03 0. -1.
</event>
<event>
 8    1  0.1106905E+005  0.1043930E+01  0.7957747E-01            NaN
         13   -1    0    0    0    0  0.00000000000E+00  0.00000000000E+00  0.74505805969E-08  0.10566000000E+00  0.10566000000E+00 0.  1.
     999900   -1    0    0    0    0 -0.00000000000E+00 -0.00000000000E+00 -0.74505805969E-08  0.93827000000E+00  0.93827000000E+00 0.  1.
     999902    2    1    2    0    0  0.14200870458E-01 -0.19136791205E-01 -0.34759317490E-02  0.10198475665E+01  0.10195631885E+01 0.  0.
     999903    2    3    3    0    0  0.48025427906E-01  0.95499036165E-01  0.69006135498E-01  0.12881495004E+00  0.20123046104E-01 0.  0.
         14    1    1    2    0    0 -0.14200870458E-01  0.19136791205E-01  0.34759317490E-02  0.24082433451E-01  0.00000000000E+00 0.  1.
     999901    1    3    3    0    0 -0.33824557448E-01 -0.11463582737E+00 -0.72482067247E-01  0.89103261651E+00  0.88000000000E+00 0.  1.
        -11    1    4    4    0    0  0.21285436483E-01  0.55568457461E-01  0.47600990438E-01  0.76203928262E-01  0.51100000000E-03 0.  1.
         11    1    4    4    0    0  0.26739991422E-01  0.39930578704E-01  0.21405145060E-01  0.52611021782E-01  0.51100000000E-03 0. -1.
</event>
<event>
 8    1  0.1106905E+005  0.1043930E+01  0.7957747E-01            NaN
         13   -1    0    0    0    0  0.00000000000E+00  0.00000000000E+00  0.74505805969E-08  0.10566000000E+00  0.10566000000E+00 0.  1.
     999900   -1    0    0    0    0 -0.00000000000E+00 -0.00000000000E+00 -0.74505805969E-08  0.93827000000E+00  0.93827000000E+00 0.  1.
     999902    2    1    2    0    0 -0.17967400009E-01 -0.10128730265E-01  0.99168197182E-02  0.10210441539E+01  0.10207876381E+01 0.  0.
     999903    2    3    3    0    0  0.42618419133E-03 -0.13044491055E+00  0.65250702621E-02  0.13266033415E+00  0.23240727047E-01 0.  0.
         14    1    1    2    0    0  0.17967400009E-01  0.10128730265E-01 -0.99168197182E-02  0.22885846132E-01  0.00000000000E+00 0.  1.
     999901    1    3    3    0    0 -0.18393584201E-01  0.12031618028E+00  0.33917494561E-02  0.88838381972E+00  0.88000000000E+00 0. -1.
        -11    1    4    4    0    0 -0.94527645526E-02 -0.68520737441E-01 -0.29748805192E-02  0.69235520163E-01  0.51100000000E-03 0.  1.
         11    1    4    4    0    0  0.98789487439E-02 -0.61924173105E-01  0.94999507814E-02  0.63424813984E-01  0.51100000000E-03 0. -1.
</event>
<event>
 7    1  0.1106905E+005  0.1043930E+01  0.7957747E-01            NaN
         13   -1    0    0    0    0  0.00000000000E+00  0.00000000000E+00  0.74505805969E-08  0.10566000000E+00  0.10566000000E+00 0.  1.
     999900   -1    0    0    0    0 -0.00000000000E+00 -0.00000000000E+00 -0.74505805969E-08  0.93827000000E+00  0.93827000000E+00 0.  1.
     999903    2    1    2    0    0 -0.62862250935E-01 -0.37897832966E-02  0.24452943077E-01  0.70131960262E-01  0.18828711452E-01 0.  0.
         14    1    1    2    0    0 -0.71612548975E-01 -0.40273598708E-01 -0.40195882663E-02  0.82258598416E-01  0.00000000000E+00 0. -1.
     999901    1    1    2    0    0  0.13447479991E+00  0.44063382005E-01 -0.20433354811E-01  0.89153944132E+00  0.88000000000E+00 0.  1.
        -11    1    3    3    0    0 -0.78243406906E-02  0.43850905796E-02 -0.81247878890E-03  0.90205636973E-02  0.51100000000E-03 0.  1.
         11    1    3    3    0    0 -0.55037910244E-01 -0.81748738762E-02  0.25265421866E-01  0.61111396564E-01  0.51100000000E-03 0. -1.
</event>
<event>
 8    1  0.1106905E+005  0.1043930E+01  0.7957747E-01            NaN
         13   -1    0    0    0    0  0.00000000000E+00  0.00000000000E+00  0.74505805969E-08  0.10566000000E+00  0.10566000000E+00 0. -1.
     999900   -1    0    0    0    0 -0.00000000000E+00 -0.00000000000E+00 -0.74505805969E-08  0.93827000000E+00  0.93827000000E+00 0.  1.
     999902    2    1    2    0    0 -0.19716085704E-03  0.24309553705E-01  0.67470110042E-02  0.10187007426E+01  0.10183882793E+01 0.  0.
     999903    2    3    3    0    0  0.10804436760E+00 -0.64041756465E-01 -0.10430604925E-01  0.12751206838E+00  0.19380354032E-01 0.  0.
         14    1    1    2    0    0  0.19716085704E-03 -0.24309553705E-01 -0.67470110042E-02  0.25229257446E-01  0.00000000000E+00 0. -1.
     999901    1    3    3    0    0 -0.10824152845E+00  0.88351310171E-01  0.17177615929E-01  0.89118867418E+00  0.88000000000E+00 0.  1.
        -11    1    4    4    0    0  0.27506230861E-01 -0.17710208310E-01 -0.11233285569E-01  0.34593236915E-01  0.51100000000E-03 0.  1.
         11    1    4    4    0    0  0.80538136736E-01 -0.46331548155E-01  0.80268064332E-03  0.92918831464E-01  0.51100000000E-03 0. -1.
</event>
<event>
 8    1  0.1106905E+005  0.1043930E+01  0.7957747E-01            NaN
         13   -1    0    0    0    0  0.00000000000E+00  0.00000000000E+00  0.74505805969E-08  0.10566000000E+00  0.10566000000E+00 0. -1.
     999900   -1    0    0    0    0 -0.00000000000E+00 -0.00000000000E+00 -0.74505805969E-08  0.93827000000E+00  0.93827000000E+00 0. -1.
     999902    2    1    2    0    0 -0.86003849816E-02 -0.12042277859E-02  0.20586107830E-01  0.10215871125E+01  0.10213427553E+01 0.  0.
     999903    2    3    3    0    0 -0.40669900154E-01  0.38026860892E-01 -0.11538828551E+00  0.12970339375E+00  0.20209675604E-01 0.  0.
         14    1    1    2    0    0  0.86003849816E-02  0.12042277859E-02 -0.20586107830E-01  0.22342887504E-01  0.00000000000E+00 0.  1.
     999901    1    3    3    0    0  0.32069515172E-01 -0.39231088677E-01  0.13597439335E+00  0.89188371875E+00  0.88000000000E+00 0.  1.
        -11    1    4    4    0    0 -0.29451299320E-01  0.20053776040E-01 -0.53447499273E-01  0.64237288740E-01  0.51100000000E-03 0. -1.
         11    1    4    4    0    0 -0.11218600834E-01  0.17973084851E-01 -0.61940786242E-01  0.65466105008E-01  0.51100000000E-03 0.  1.
</event>
<event>
 8    1  0.1106905E+005  0.1043930E+01  0.7957747E-01            NaN
         13   -1    0    0    0    0  0.00000000000E+00  0.00000000000E+00  0.74505805969E-08  0.10566000000E+00  0.10566000000E+00 0.  1.
     999900   -1    0    0    0    0 -0.00000000000E+00 -0.00000000000E+00 -0.74505805969E-08  0.93827000000E+00  0.93827000000E+00 0.  1.
     999902    2    1    2    0    0  0.15684650038E-01  0.16199466209E-01 -0.57647297983E-02  0.10206563440E+01  0.10203909592E+01 0.  0.
     999903    2    3    3    0    0 -0.42219111385E-01 -0.10500675786E+00 -0.58608868023E-01  0.12889611994E+00  0.19244161771E-01 0.  0.
         14    1    1    2    0    0 -0.15684650038E-01 -0.16199466209E-01  0.57647297983E-02  0.23273655964E-01  0.00000000000E+00 0.  1.
     999901    1    3    3    0    0  0.57903761422E-01  0.12120622407E+00  0.52844138225E-01  0.89176022410E+00  0.88000000000E+00 0.  1.
        -11    1    4    4    0    0 -0.13558688671E-01 -0.57378843022E-01 -0.25907421692E-01  0.64402059631E-01  0.51100000000E-03 0.  1.
         11    1    4    4    0    0 -0.28660422714E-01 -0.47627914835E-01 -0.32701446331E-01  0.64494060307E-01  0.51100000000E-03 0. -1.
</event>
<event>
 8    1  0.1106905E+005  0.1043930E+01  0.7957747E-01            NaN
         13   -1    0    0    0    0  0.00000000000E+00  0.00000000000E+00  0.74505805969E-08  0.10566000000E+00  0.10566000000E+00 0.  1.
     999900   -1    0    0    0    0 -0.00000000000E+00 -0.00000000000E+00 -0.74505805969E-08  0.93827000000E+00  0.93827000000E+00 0.  1.
     999902    2    1    2    0    0  0.34420596716E-02  0.47899854175E-02  0.22970995854E-01  0.10202137949E+01  0.10199381005E+01 0.  0.
     999903    2    3    3    0    0  0.98375162701E-01 -0.22856675971E-01  0.83523860515E-01  0.13260843135E+00  0.20215353493E-01 0.  0.
         14    1    1    2    0    0 -0.34420596716E-02 -0.47899854175E-02 -0.22970995854E-01  0.23716205127E-01  0.00000000000E+00 0. -1.
     999901    1    3    3    0    0 -0.94933103029E-01  0.27646661388E-01 -0.60552864661E-01  0.88760536352E+00  0.88000000000E+00 0.  1.
        -11    1    4    4    0    0  0.22575333173E-01 -0.75469884576E-02  0.31162597967E-01  0.39216977646E-01  0.51100000000E-03 0.  1.
         11    1    4    4    0    0  0.75799829528E-01 -0.15309687513E-01  0.52361262548E-01  0.93391453704E-01  0.51100000000E-03 0. -1.
</event>
<event>
 8    1  0.1106905E+005  0.1043930E+01  0.7957747E-01            NaN
         13   -1    0    0    0    0  0.00000000000E+00  0.00000000000E+00  0.74505805969E-08  0.10566000000E+00  0.10566000000E+00 0.  1.
     999900   -1    0    0    0    0 -0.00000000000E+00 -0.00000000000E+00 -0.74505805969E-08  0.93827000000E+00  0.93827000000E+00 0.  1.
     999902    2    1    2    0    0 -0.27988179068E-01  0.19742637403E-02  0.59913160037E-03  0.10158658798E+01  0.10154781587E+01 0.  0.
     999903    2    3    3    0    0 -0.11699717026E+00 -0.32257344984E-01  0.41470394921E-01  0.12977058936E+00  0.19792373594E-01 0.  0.
         14    1    1    2    0    0  0.27988179068E-01 -0.19742637403E-02 -0.59913160037E-03  0.28064120217E-01  0.00000000000E+00 0. -1.
     999901    1    3    3    0    0  0.89008991194E-01  0.34231608724E-01 -0.40871263320E-01  0.88609529043E+00  0.88000000000E+00 0.  1.
        -11    1    4    4    0    0 -0.70863645022E-01 -0.12353422906E-01  0.17163476452E-01  0.73953426481E-01  0.51100000000E-03 0. -1.
         11    1    4    4    0    0 -0.46133525240E-01 -0.19903922078E-01  0.24306918469E-01  0.55817162877E-01  0.51100000000E-03 0.  1.
</event>
<event>
 8    1  0.1106905E+005  0.1043930E+01  0.7957747E-01            NaN
         13   -1    0    0    0    0  0.00000000000E+00  0.00000000000E+00  0.74505805969E-08  0.10566000000E+00  0.10566000000E+00 0. -1.
     999900   -1    0    0    0    0 -0.00000000000E+00 -0.00000000000E+00 -0.74505805969E-08  0.93827000000E+00  0.93827000000E+00 0. -1.
     999902    2    1    2    0    0  0.22254974249E-01  0.44517811952E-02 -0.57448855500E-02  0.10205183374E+01  0.10202497592E+01 0.  0.
     999903    2    3    3    0    0  0.43233832497E-02  0.12912508110E+00 -0.14297465677E-01  0.13150870851E+00  0.19953563056E-01 0.  0.
         14    1    1    2    0    0 -0.22254974249E-01 -0.44517811952E-02  0.57448855500E-02  0.23411662577E-01  0.00000000000E+00 0.  1.
     999901    1    3    3    0    0  0.17931590999E-01 -0.12467329991E+00  0.85525801268E-02  0.88900962891E+00  0.88000000000E+00 0.  1.
        -11    1    4    4    0    0 -0.31111445283E-02  0.71840149107E-01  0.36147339693E-03  0.71910208093E-01  0.51100000000E-03 0. -1.
         11    1    4    4    0    0  0.74345277780E-02  0.57284931993E-01 -0.14658939074E-01  0.59598500422E-01  0.51100000000E-03 0.  1.
</event>
<event>
 8    1  0.1106905E+005  0.1043930E+01  0.7957747E-01            NaN
         13   -1    0    0    0    0  0.00000000000E+00  0.00000000000E+00  0.74505805969E-08  0.10566000000E+00  0.10566000000E+00 0. -1.
     999900   -1    0    0    0    0 -0.00000000000E+00 -0.00000000000E+00 -0.74505805969E-08  0.93827000000E+00  0.93827000000E+00 0.  1.
     999902    2    1    2    0    0 -0.14557970378E-01 -0.16736354452E-01 -0.81257825622E-02  0.10203065285E+01  0.10200330111E+01 0.  0.
     999903    2    3    3    0    0  0.94869662355E-01 -0.56697631834E-02 -0.86572348684E-01  0.12999717781E+00  0.19289780520E-01 0.  0.
         14    1    1    2    0    0  0.14557970378E-01  0.16736354452E-01  0.81257825622E-02  0.23623471466E-01  0.00000000000E+00 0.  1.
     999901    1    3    3    0    0 -0.10942763273E+00 -0.11066591268E-01  0.78446566122E-01  0.89030935072E+00  0.88000000000E+00 0. -1.
        -11    1    4    4    0    0  0.29066037365E-01 -0.10703841556E-01 -0.27826491704E-01  0.41641103656E-01  0.51100000000E-03 0. -1.
         11    1    4    4    0    0  0.65803624989E-01  0.50340783730E-02 -0.58745856980E-01  0.88356074155E-01  0.51100000000E-03 0.  1.
</event>
<event>
 8    1  0.1106905E+005  0.1043930E+01  0.7957747E-01            NaN
         13   -1    0    0    0    0  0.00000000000E+00  0.00000000000E+00  0.74505805969E-08  0.10566000000E+00  0.10566000000E+00 0. -1.
     999900   -1    0    0    0    0 -0.00000000000E+00 -0.00000000000E+00 -0.74505805969E-08  0.93827000000E+00  0.93827000000E+00 0. -1.
     999902    2    1    2    0    0  0.19004944890E-01 -0.11370793679E-01  0.68318384525E-02  0.10207533545E+01  0.10204902027E+01 0.  0.
     999903    2    3    3    0    0 -0.50792058210E-01  0.27451687594E-02 -0.11713003621E+00  0.12921679979E+00  0.19752641269E-01 0.  0.
         14    1    1    2    0    0 -0.19004944890E-01  0.11370793679E-01 -0.68318384525E-02  0.23176645482E-01  0.00000000000E+00 0.  1.
     999901    1    3    3    0    0  0.69797003100E-01 -0.14115962438E-01  0.12396187467E+00  0.89153655472E+00  0.88000000000E+00 0.  1.
        -11    1    4    4    0    0 -0.10729811068E-01  0.23255481884E-02 -0.48651006044E-01  0.49877034094E-01  0.51100000000E-03 0.  1.
         11    1    4    4    0    0 -0.40062247141E-01  0.41962057097E-03 -0.68479030169E-01  0.79339765700E-01  0.51100000000E-03 0. -1.
</event>
<event>
 8    1  0.1106905E+005  0.1043930E+01  0.7957747E-01            NaN
         13   -1    0    0    0    0  0.00000000000E+00  0.00000000000E+00  0.74505805969E-08  0.10566000000E+00  0.10566000000E+00 0.  1.
     999900   -1    0    0    0    0 -0.00000000000E+00 -0.00000000000E+00 -0.74505805969E-08  0.93827000000E+00  0.93827000000E+00 0.  1.
     999902    2    1    2    0    0 -0.13305550979E-01  0.18283528621E-01 -0.85078050630E-02  0.10197699534E+01  0.10194837174E+01 0.  0.
     999903    2    3    3    0    0  0.34832036185E-02 -0.90111971508E-01  0.88037335903E-01  0.12772039704E+00  0.20727450149E-01 0.  0.
         14    1    1    2    0    0  0.13305550979E-01 -0.18283528621E-01  0.85078050630E-02  0.24160046620E-01  0.00000000000E+00 0.  1.
     999901    1    3    3    0    0 -0.16788754597E-01  0.10839550013E+00 -0.96545140966E-01  0.89204955634E+00  0.88000000000E+00 0.  1.
        -11    1    4    4    0    0  0.26742211895E-02 -0.46428991491E-01  0.59553684888E-01  0.75562591370E-01  0.51100000000E-03 0. -1.
         11    1    4    4    0    0  0.80898242904E-03 -0.43682980017E-01  0.28483651015E-01  0.52157805666E-01  0.51100000000E-03 0.  1.
</event>
<event>
 8    1  0.1106905E+005  0.1043930E+01  0.7957747E-01            NaN
         13   -1    0    0    0    0  0.00000000000E+00  0.00000000000E+00  0.74505805969E-08  0.10566000000E+00  0.10566000000E+00 0. -1.
     999900   -1    0    0    0    0 -0.00000000000E+00 -0.00000000000E+00 -0.74505805969E-08  0.93827000000E+00  0.93827000000E+00 0. -1.
     999902    2    1    2    0    0 -0.19444543647E-01 -0.10882604265E-01  0.61995500124E-02  0.10208008890E+01  0.10205388279E+01 0.  0.
     999903    2    3    3    0    0  0.64415291406E-01  0.10551971637E+00 -0.24289798177E-01  0.12866212599E+00  0.26080798684E-01 0.  0.
         14    1    1    2    0    0  0.19444543647E-01  0.10882604265E-01 -0.61995500124E-02  0.23129110956E-01  0.00000000000E+00 0. -1.
     999901    1    3    3    0    0 -0.83859835053E-01 -0.11640232064E+00  0.30489348190E-01  0.89213876305E+00  0.88000000000E+00 0.  1.
        -11    1    4    4    0    0  0.30363368714E-01  0.26918933923E-01 -0.10276783005E-01  0.41862113577E-01  0.51100000000E-03 0.  1.
         11    1    4    4    0    0  0.34051922692E-01  0.78600782447E-01 -0.14013015172E-01  0.86800012417E-01  0.51100000000E-03 0. -1.
</event>
<event>
 8    1  0.1106905E+005  0.1043930E+01  0.7957747E-01            NaN
         13   -1    0    0    0    0  0.00000000000E+00  0.00000000000E+00  0.74505805969E-08  0.10566000000E+00  0.10566000000E+00 0. -1.
     999900   -1    0    0    0    0 -0.00000000000E+00 -0.00000000000E+00 -0.74505805969E-08  0.93827000000E+00  0.93827000000E+00 0. -1.
     999902    2    1    2    0    0  0.11788320273E-01  0.20615104666E-01  0.19120621308E-02  0.10201055794E+01  0.10198273335E+01 0.  0.
     999903    2    3    3    0    0 -0.75971359148E-01  0.10304390531E+00  0.23208799638E-01  0.13165196804E+00  0.20097225584E-01 0.  0.
         14    1    1    2    0    0 -0.11788320273E-01 -0.20615104666E-01 -0.19120621308E-02  0.23824420598E-01  0.00000000000E+00 0. -1.
     999901    1    3    3    0    0  0.87759679420E-01 -0.82428800647E-01 -0.21296737508E-01  0.88845361136E+00  0.88000000000E+00 0.  1.
        -11    1    4    4    0    0 -0.37452213033E-02  0.52955377316E-02  0.60937253416E-02  0.89142589157E-02  0.51100000000E-03 0. -1.
         11    1    4    4    0    0 -0.72226137844E-01  0.97748367581E-01  0.17115074297E-01  0.12273770913E+00  0.51100000000E-03 0.  1.
</event>
<event>
 8    1  0.1106905E+005  0.1043930E+01  0.7957747E-01            NaN
         13   -1    0    0    0    0  0.00000000000E+00  0.00000000000E+00  0.74505805969E-08  0.10566000000E+00  0.10566000000E+00 0.  1.
     999900   -1    0    0    0    0 -0.00000000000E+00 -0.00000000000E+00 -0.74505805969E-08  0.93827000000E+00  0.93827000000E+00 0. -1.
     999902    2    1    2    0    0 -0.10325959078E-01  0.20278514140E-01 -0.69061536759E-02  0.10201489461E+01  0.10198717241E+01 0.  0.
     999903    2    3    3    0    0  0.66585164254E-01 -0.10689786142E+00 -0.13339098792E-02  0.12766914167E+00  0.20901998574E-01 0.  0.
         14    1    1    2    0    0  0.10325959078E-01 -0.20278514140E-01  0.69061536759E-02  0.23781053913E-01  0.00000000000E+00 0.  1.
     999901    1    3    3    0    0 -0.76911123332E-01  0.12717637556E+00 -0.55722437968E-02  0.89247980442E+00  0.88000000000E+00 0. -1.
        -11    1    4    4    0    0  0.38208291825E-01 -0.74780422676E-01  0.59741559271E-02  0.84189885615E-01  0.51100000000E-03 0.  1.
         11    1    4    4    0    0  0.28376872429E-01 -0.32117438744E-01 -0.73080658063E-02  0.43479256055E-01  0.51100000000E-03 0. -1.
</event>
<event>
 8    1  0.1106905E+005  0.1043930E+01  0.7957747E-01            NaN
         13   -1    0    0    0    0  0.00000000000E+00  0.00000000000E+00  0.74505805969E-08  0.10566000000E+00  0.10566000000E+00 0.  1.
     999900   -1    0    0    0    0 -0.00000000000E+00 -0.00000000000E+00 -0.74505805969E-08  0.93827000000E+00  0.93827000000E+00 0.  1.
     999902    2    1    2    0    0  0.17300213089E-01 -0.12356883301E-01 -0.13704592251E-01  0.10186356175E+01  0.10183215187E+01 0.  0.
     999903    2    3    3    0    0  0.26293362263E-01  0.10456249534E+00  0.64885539539E-01  0.12738513269E+00  0.19803597132E-01 0.  0.
         14    1    1    2    0    0 -0.17300213089E-01  0.12356883301E-01  0.13704592251E-01  0.25294382511E-01  0.00000000000E+00 0.  1.
     999901    1    3    3    0    0 -0.89931491737E-02 -0.11691937864E+00 -0.78590131790E-01  0.89125048480E+00  0.88000000000E+00 0.  1.
        -11    1    4    4    0    0  0.90350458887E-02  0.50155976923E-01  0.41400529953E-01  0.65662158636E-01  0.51100000000E-03 0.  1.
         11    1    4    4    0    0  0.17258316374E-01  0.54406518416E-01  0.23485009586E-01  0.61722974058E-01  0.51100000000E-03 0. -1.
</event>
<event>
 8    1  0.1106905E+005  0.1043930E+01  0.7957747E-01            NaN
         13   -1    0    0    0    0  0.00000000000E+00  0.00000000000E+00  0.74505805969E-08  0.10566000000E+00  0.10566000000E+00 0.  1.
     999900   -1    0    0    0    0 -0.00000000000E+00 -0.00000000000E+00 -0.74505805969E-08  0.93827000000E+00  0.93827000000E+00 0. -1.
     999902    2    1    2    0    0  0.26653373846E-02  0.19647481224E-01  0.46245107191E-02  0.10235703919E+01  0.10233678877E+01 0.  0.
     999903    2    3    3    0    0 -0.13046796821E+00 -0.10374776099E-01  0.13207010822E-01  0.13300906764E+00  0.19684009577E-01 0.  0.
         14    1    1    2    0    0 -0.26653373846E-02 -0.19647481224E-01 -0.46245107191E-02  0.20359608081E-01  0.00000000000E+00 0. -1.
     999901    1    3    3    0    0  0.13313330559E+00  0.30022257323E-01 -0.85825001032E-02  0.89056132428E+00  0.88000000000E+00 0.  1.
        -11    1    4    4    0    0 -0.92696120028E-01 -0.14115309942E-01  0.15231291658E-01  0.94995084134E-01  0.51100000000E-03 0.  1.
         11    1    4    4    0    0 -0.37771848178E-01  0.37405338428E-02 -0.20242808354E-02  0.38013983507E-01  0.51100000000E-03 0. -1.
</event>
<event>
 8    1  0.1106905E+005  0.1043930E+01  0.7957747E-01            NaN
         13   -1    0    0    0    0  0.00000000000E+00  0.00000000000E+00  0.74505805969E-08  0.10566000000E+00  0.10566000000E+00 0. -1.
     999900   -1    0    0    0    0 -0.00000000000E+00 -0.00000000000E+00 -0.74505805969E-08  0.93827000000E+00  0.93827000000E+00 0. -1.
     999902    2    1    2    0    0 -0.30408633872E-01 -0.17478432950E-01  0.31258476623E-02  0.10087170541E+01  0.10081022487E+01 0.  0.
     999903    2    3    3    0    0 -0.94652786867E-01 -0.26298014032E-01  0.72567282366E-01  0.12360281911E+00  0.18997652963E-01 0.  0.
         14    1    1    2    0    0  0.30408633872E-01  0.17478432950E-01 -0.31258476623E-02  0.35212945858E-01  0.00000000000E+00 0. -1.
     999901    1    3    3    0    0  0.64244152995E-01  0.88195810823E-02 -0.69441434703E-01  0.88511423503E+00  0.88000000000E+00 0.  1.
        -11    1    4    4    0    0 -0.16002295598E-01 -0.56650910318E-02  0.45234045700E-02  0.17575239137E-01  0.51100000000E-03 0. -1.
         11    1    4    4    0    0 -0.78650491269E-01 -0.20632923001E-01  0.68043877796E-01  0.10602757997E+00  0.51100000000E-03 0.  1.
</event>
<event>
 8    1  0.1106905E+005  0.1043930E+01  0.7957747E-01            NaN
         13   -1    0    0    0    0  0.00000000000E+00  0.00000000000E+00  0.74505805969E-08  0.10566000000E+00  0.10566000000E+00 0. -1.
     999900   -1    0    0    0    0 -0.00000000000E+00 -0.00000000000E+00 -0.74505805969E-08  0.93827000000E+00  0.93827000000E+00 0. -1.
     999902    2    1    2    0    0  0.14833391935E-01 -0.19067833107E-01 -0.16109896499E-01  0.10148931176E+01  0.10144776486E+01 0.  0.
     999903    2    3    3    0    0  0.12465327310E+00  0.98587137855E-02 -0.36524499529E-02  0.12750800423E+00  0.24684367912E-01 0.  0.
         14    1    1    2    0    0 -0.14833391935E-01  0.19067833107E-01  0.16109896499E-01  0.29036882424E-01  0.00000000000E+00 0. -1.
     999901    1    3    3    0    0 -0.10981988117E+00 -0.28926546893E-01 -0.12457446547E-01  0.88738511335E+00  0.88000000000E+00 0.  1.
        -11    1    4    4    0    0  0.10903720548E+00  0.10809333486E-01  0.48776146806E-02  0.10968138454E+00  0.51100000000E-03 0.  1.
         11    1    4    4    0    0  0.15616067627E-01 -0.95061970080E-03 -0.85300646335E-02  0.17826619691E-01  0.51100000000E-03 0. -1.
</event>
<event>
 8    1  0.1106905E+005  0.1043930E+01  0.7957747E-01            NaN
         13   -1    0    0    0    0  0.00000000000E+00  0.00000000000E+00  0.74505805969E-08  0.10566000000E+00  0.10566000000E+00 0.  1.
     999900   -1    0    0    0    0 -0.00000000000E+00 -0.00000000000E+00 -0.74505805969E-08  0.93827000000E+00  0.93827000000E+00 0. -1.
     999902    2    1    2    0    0  0.24052291402E-01  0.38244321941E-03 -0.16214957389E-02  0.10198200802E+01  0.10195350449E+01 0.  0.
     999903    2    3    3    0    0 -0.10066705200E-02  0.59032284612E-01 -0.11447340269E+00  0.13032398219E+00  0.19858408737E-01 0.  0.
         14    1    1    2    0    0 -0.24052291402E-01 -0.38244321941E-03  0.16214957389E-02  0.24109919804E-01  0.00000000000E+00 0. -1.
     999901    1    3    3    0    0  0.25058961922E-01 -0.58649841393E-01  0.11285190695E+00  0.88949609801E+00  0.88000000000E+00 0.  1.
        -11    1    4    4    0    0  0.16634741806E-02  0.59478613250E-01 -0.11021583498E+00  0.12525280030E+00  0.51100000000E-03 0. -1.
         11    1    4    4    0    0 -0.26701447006E-02 -0.44632863746E-03 -0.42575677106E-02  0.50711818923E-02  0.51100000000E-03 0.  1.
</event>
<event>
 7    1  0.1106905E+005  0.1043930E+01  0.7957747E-01            NaN
         13   -1    0    0    0    0  0.00000000000E+00  0.00000000000E+00  0.74505805969E-08  0.10566000000E+00  0.10566000000E+00 0. -1.
     999900   -1    0    0    0    0 -0.00000000000E+00 -0.00000000000E+00 -0.74505805969E-08  0.93827000000E+00  0.93827000000E+00 0. -1.
     999902    2    1    2    0    0  0.76639842212E-02  0.22180740067E-01 -0.49342713260E-02  0.10199494054E+01  0.10196674559E+01 0.  0.
         14    1    1    2    0    0 -0.76639842212E-02 -0.22180740067E-01  0.49342713260E-02  0.23980594605E-01  0.00000000000E+00 0. -1.
     999901    1    3    3    0    0  0.12373277893E+00  0.27432325366E-01  0.51894402788E-01  0.89059270270E+00  0.88000000000E+00 0. -1.
        -11    1    3    3    0    0 -0.60972875930E-01 -0.32164537051E-02 -0.30692515207E-01  0.68339803807E-01  0.51100000000E-03 0.  1.
         11    1    3    3    0    0 -0.55095918780E-01 -0.20351315935E-02 -0.26136158907E-01  0.61016898891E-01  0.51100000000E-03 0. -1.
</event>
<event>
 8    1  0.1106905E+005  0.1043930E+01  0.7957747E-01            NaN
         13   -1    0    0    0    0  0.00000000000E+00  0.00000000000E+00  0.74505805969E-08  0.10566000000E+00  0.10566000000E+00 0. -1.
     999900   -1    0    0    0    0 -0.00000000000E+00 -0.00000000000E+00 -0.74505805969E-08  0.93827000000E+00  0.93827000000E+00 0. -1.
     999902    2    1    2    0    0 -0.93921235207E-02 -0.10010456454E-01 -0.19734582452E-01  0.10198909699E+01  0.10196076282E+01 0.  0.
     999903    2    3    3    0    0 -0.48809635646E-01 -0.10766317194E-01 -0.12006229368E+00  0.13331330201E+00  0.29311909050E-01 0.  0.
         14    1    1    2    0    0  0.93921235207E-02  0.10010456454E-01  0.19734582452E-01  0.24039030080E-01  0.00000000000E+00 0. -1.
     999901    1    3    3    0    0  0.39417512126E-01  0.75586073991E-03  0.10032771123E+00  0.88657766791E+00  0.88000000000E+00 0.  1.
        -11    1    4    4    0    0 -0.36249994567E-01 -0.10160897682E-01 -0.52594774833E-01  0.64682125881E-01  0.51100000000E-03 0.  1.
         11    1    4    4    0    0 -0.12559641079E-01 -0.60541951210E-03 -0.67467518849E-01  0.68631176133E-01  0.51100000000E-03 0. -1.
</event>
<event>
 8    1  0.1106905E+005  0.1043930E+01  0.7957747E-01            NaN
         13   -1    0    0    0    0  0.00000000000E+00  0.00000000000E+00  0.74505805969E-08  0.10566000000E+00  0.10566000000E+00 0. -1.
     999900   -1    0    0    0    0 -0.00000000000E+00 -0.00000000000E+00 -0.74505805969E-08  0.93827000000E+00  0.93827000000E+00 0. -1.
     999902    2    1    2    0    0  0.23533494133E-01 -0.58244392423E-02  0.78746113425E-02  0.10184396304E+01  0.10181205831E+01 0.  0.
     999903    2    3    3    0    0  0.73849537508E-01 -0.83904159382E-01  0.66713221598E-01  0.13159684333E+00  0.19323899370E-01 0.  0.
         14    1    1    2    0    0 -0.23533494133E-01  0.58244392423E-02 -0.78746113425E-02  0.25490369601E-01  0.00000000000E+00 0. -1.
     999901    1    3    3    0    0 -0.50316043374E-01  0.78079720140E-01 -0.58838610256E-01  0.88684278707E+00  0.88000000000E+00 0. -1.
        -11    1    4    4    0    0  0.46078111359E-01 -0.52381755161E-01  0.52250774519E-01  0.87163324735E-01  0.51100000000E-03 0. -1.
         11    1    4    4    0    0  0.27771426149E-01 -0.31522404221E-01  0.14462447080E-01  0.44433518595E-01  0.51100000000E-03 0.  1.
</event>
<event>
 8    1  0.1106905E+005  0.1043930E+01  0.7957747E-01            NaN
         13   -1    0    0    0    0  0.00000000000E+00  0.00000000000E+00  0.74505805969E-08  0.10566000000E+00  0.10566000000E+00 0. -1.
     999900   -1    0    0    0    0 -0.00000000000E+00 -0.00000000000E+00 -0.74505805969E-08  0.93827000000E+00  0.93827000000E+00 0.  1.
     999902    2    1    2    0    0 -0.11162069761E-02  0.13459800186E-01 -0.18926850359E-01  0.10206783806E+01  0.10204135039E+01 0.  0.
     999903    2    3    3    0    0  0.39198597429E-01 -0.74230121219E-01  0.94929982473E-01  0.12811007279E+00  0.18810854340E-01 0.  0.
         14    1    1    2    0    0  0.11162069761E-02 -0.13459800186E-01  0.18926850359E-01  0.23251619375E-01  0.00000000000E+00 0. -1.
     999901    1    3    3    0    0 -0.40314804405E-01  0.87689921404E-01 -0.11385683283E+00  0.89256830784E+00  0.88000000000E+00 0.  1.
        -11    1    4    4    0    0  0.35510839610E-01 -0.49041210998E-01  0.65790021986E-01  0.89412796734E-01  0.51100000000E-03 0.  1.
         11    1    4    4    0    0  0.36877578197E-02 -0.25188910220E-01  0.29139960488E-01  0.38697276055E-01  0.51100000000E-03 0. -1.
</event>
<event>
 8    1  0.1106905E+005  0.1043930E+01  0.7957747E-01            NaN
         13   -1    0    0    0    0  0.00000000000E+00  0.00000000000E+00  0.74505805969E-08  0.10566000000E+00  0.10566000000E+00 0. -1.
     999900   -1    0    0    0    0 -0.00000000000E+00 -0.00000000000E+00 -0.74505805969E-08  0.93827000000E+00  0.93827000000E+00 0. -1.
     999902    2    1    2    0    0 -0.11403573682E-01  0.10453559901E-02 -0.21109034318E-01  0.10199148883E+01  0.10196321168E+01 0.  0.
     999903    2    3    3    0    0  0.81035887819E-01 -0.97750616450E-01 -0.84365909253E-02  0.12948449287E+00  0.23938665323E-01 0.  0.
         14    1    1    2    0    0  0.11403573682E-01 -0.10453559901E-02  0.21109034318E-01  0.24015111736E-01  0.00000000000E+00 0. -1.
     999901    1    3    3    0    0 -0.92439461501E-01  0.98795972440E-01 -0.12672443393E-01  0.89043039539E+00  0.88000000000E+00 0. -1.
        -11    1    4    4    0    0  0.18359292888E-01 -0.19923003606E-01 -0.11670547926E-01  0.29503432308E-01  0.51100000000E-03 0. -1.
         11    1    4    4    0    0  0.62676594931E-01 -0.77827612843E-01  0.32339570009E-02  0.99981060566E-01  0.51100000000E-03 0.  1.
</event>
<event>
 8    1  0.1106905E+005  0.1043930E+01  0.7957747E-01            NaN
         13   -1    0    0    0    0  0.00000000000E+00  0.00000000000E+00  0.74505805969E-08  0.10566000000E+00  0.10566000000E+00 0.  1.
     999900   -1    0    0    0    0 -0.00000000000E+00 -0.00000000000E+00 -0.74505805969E-08  0.93827000000E+00  0.93827000000E+00 0.  1.
     999902    2    1    2    0    0 -0.41683955312E-02  0.22944044812E-01 -0.34755765627E-02  0.10203528003E+01  0.10200803658E+01 0.  0.
     999903    2    3    3    0    0  0.12362640018E+00 -0.22674957888E-01  0.23634593011E-01  0.12953993301E+00  0.20599993204E-01 0.  0.
         14    1    1    2    0    0  0.41683955312E-02 -0.22944044812E-01  0.34755765627E-02  0.23577199708E-01  0.00000000000E+00 0. -1.
     999901    1    3    3    0    0 -0.12779479572E+00  0.45619002700E-01 -0.27110169574E-01  0.89081286728E+00  0.88000000000E+00 0.  1.
        -11    1    4    4    0    0  0.10050697752E+00 -0.21337655040E-01  0.11498820124E-01  0.10338970953E+00  0.51100000000E-03 0. -1.
         11    1    4    4    0    0  0.23119422669E-01 -0.13373028486E-02  0.12135772887E-01  0.26150223479E-01  0.51100000000E-03 0.  1.
</event>
<event>
 8    1  0.1106905E+005  0.1043930E+01  0.7957747E-01            NaN
         13   -1    0    0    0    0  0.00000000000E+00  0.00000000000E+00  0.74505805969E-08  0.10566000000E+00  0.10566000000E+00 0. -1.
     999900   -1    0    0    0    0 -0.00000000000E+00 -0.00000000000E+00 -0.74505805969E-08  0.93827000000E+00  0.93827000000E+00 0. -1.
     999902    2    1    2    0    0  0.17983333923E-01  0.11685937091E-01  0.10007806165E-01  0.10202631961E+01  0.10199886625E+01 0.  0.
     999903    2    3    3    0    0 -0.12641411778E+00  0.83698466692E-02  0.96761408267E-02  0.12848871194E+00  0.19108581497E-01 0.  0.
         14    1    1    2    0    0 -0.17983333923E-01 -0.11685937091E-01 -0.10007806165E-01  0.23666803944E-01  0.00000000000E+00 0.  1.
     999901    1    3    3    0    0  0.14439745171E+00  0.33160904221E-02  0.33166533787E-03  0.89177448411E+00  0.88000000000E+00 0. -1.
        -11    1    4    4    0    0 -0.46199820509E-01 -0.51125479796E-02 -0.68999610548E-03  0.46489770676E-01  0.51100000000E-03 0.  1.
         11    1    4    4    0    0 -0.80214297275E-01  0.13482394649E-01  0.10366136932E-01  0.81998941266E-01  0.51100000000E-03 0. -1.
</event>
<event>
 8    1  0.1106905E+005  0.1043930E+01  0.7957747E-01            NaN
         13   -1    0    0    0    0  0.00000000000E+00  0.00000000000E+00  0.74505805969E-08  0.10566000000E+00  0.10566000000E+00 0.  1.
     999900   -1    0    0    0    0 -0.00000000000E+00 -0.00000000000E+00 -0.74505805969E-08  0.93827000000E+00  0.93827000000E+00 0.  1.
     999902    2    1    2    0    0 -0.14337414005E-01 -0.42336613833E-02 -0.18470904313E-01  0.10201674321E+01  0.10198906460E+01 0.  0.
     999903    2    3    3    0    0 -0.12761040023E+00  0.26712110993E-01 -0.12007677214E-01  0.13234414810E+00  0.19309016095E-01 0.  0.
         14    1    1    2    0    0  0.14337414005E-01  0.42336613833E-02  0.18470904313E-01  0.23762567942E-01  0.00000000000E+00 0.  1.
     999901    1    3    3    0    0  0.11327298623E+00 -0.30945772376E-01 -0.64632270990E-02  0.88782328396E+00  0.88000000000E+00 0. -1.
        -11    1    4    4    0    0 -0.52635838592E-01  0.17630401646E-02 -0.21311059147E-02  0.52710933859E-01  0.51100000000E-03 0. -1.
         11    1    4    4    0    0 -0.74974561641E-01  0.24949070828E-01 -0.98765712993E-02  0.79633214239E-01  0.51100000000E-03 0.  1.
</event>
<event>
 8    1  0.1106905E+005  0.1043930E+01  0.7957747E-01            NaN
         13   -1    0    0    0    0  0.00000000000E+00  0.00000000000E+00  0.74505805969E-08  0.10566000000E+00  0.10566000000E+00 0. -1.
     999900   -1    0    0    0    0 -0.00000000000E+00 -0.00000000000E+00 -0.74505805969E-08  0.93827000000E+00  0.93827000000E+00 0.  1.
     999902    2    1    2    0    0  0.22533000929E-01  0.51854557767E-02 -0.18759361554E-02  0.10207320643E+01  0.10204684233E+01 0.  0.
     999903    2    3    3    0    0 -0.12464819772E+00  0.21877059024E-01  0.72165802154E-02  0.12830638749E+00  0.19866331681E-01 0.  0.
         14    1    1    2    0    0 -0.22533000929E-01 -0.51854557767E-02  0.18759361554E-02  0.23197935661E-01  0.00000000000E+00 0.  1.
     999901    1    3    3    0    0  0.14718119864E+00 -0.16691603247E-01 -0.90925163708E-02  0.89242567685E+00  0.88000000000E+00 0.  1.
        -11    1    4    4    0    0 -0.55598397399E-01  0.61397486311E-02  0.12393289170E-01  0.57295139794E-01  0.51100000000E-03 0.  1.
         11    1    4    4    0    0 -0.69049800316E-01  0.15737310393E-01 -0.51767089547E-02  0.71011247692E-01  0.51100000000E-03 0. -1.
</event>
<event>
 8    1  0.1106905E+005  0.1043930E+01  0.7957747E-01            NaN
         13   -1    0    0    0    0  0.00000000000E+00  0.00000000000E+00  0.74505805969E-08  0.10566000000E+00  0.10566000000E+00 0.  1.
     999900   -1    0    0    0    0 -0.00000000000E+00 -0.00000000000E+00 -0.74505805969E-08  0.93827000000E+00  0.93827000000E+00 0. -1.
     999902    2    1    2    0    0  0.65348797434E-02 -0.14008437372E-01 -0.15167461310E-01  0.10222737572E+01  0.10220443443E+01 0.  0.
     999903    2    3    3    0    0 -0.17132675148E-01 -0.12540763860E+00 -0.40959939258E-01  0.13456029715E+00  0.20202786123E-01 0.  0.
         14    1    1    2    0    0 -0.65348797434E-02  0.14008437372E-01  0.15167461310E-01  0.21656242829E-01  0.00000000000E+00 0.  1.
     999901    1    3    3    0    0  0.23667554891E-01  0.11139920123E+00  0.25792477948E-01  0.88771346002E+00  0.88000000000E+00 0. -1.
        -11    1    4    4    0    0 -0.33609134247E-02 -0.16079252347E-01 -0.12784469284E-01  0.20821668304E-01  0.51100000000E-03 0. -1.
         11    1    4    4    0    0 -0.13771761723E-01 -0.10932838625E+00 -0.28175469974E-01  0.11373862884E+00  0.51100000000E-03 0.  1.
</event>
<event>
 8    1  0.1106905E+005  0.1043930E+01  0.7957747E-01            NaN
         13   -1    0    0    0    0  0.00000000000E+00  0.00000000000E+00  0.74505805969E-08  0.10566000000E+00  0.10566000000E+00 0. -1.
     999900   -1    0    0    0    0 -0.00000000000E+00 -0.00000000000E+00 -0.74505805969E-08  0.93827000000E+00  0.93827000000E+00 0. -1.
     999902    2    1    2    0    0  0.14806363196E-01 -0.34311443483E-02 -0.18568791882E-01  0.10199341426E+01  0.10196518298E+01 0.  0.
     999903    2    3    3    0    0 -0.48254328161E-01  0.47754628134E-02  0.11599681755E+00  0.12743657817E+00  0.20821492299E-01 0.  0.
         14    1    1    2    0    0 -0.14806363196E-01  0.34311443483E-02  0.18568791882E-01  0.23995857446E-01  0.00000000000E+00 0. -1.
     999901    1    3    3    0    0  0.63060691357E-01 -0.82066071617E-02 -0.13456560943E+00  0.89249756439E+00  0.88000000000E+00 0. -1.
        -11    1    4    4    0    0 -0.29719748948E-01  0.13043579359E-01  0.70169729432E-01  0.77313973443E-01  0.51100000000E-03 0. -1.
         11    1    4    4    0    0 -0.18534579213E-01 -0.82681165454E-02  0.45827088119E-01  0.50122604723E-01  0.51100000000E-03 0.  1.
</event>
<event>
 8    1  0.1106905E+005  0.1043930E+01  0.7957747E-01            NaN
         13   -1    0    0    0    0  0.00000000000E+00  0.00000000000E+00  0.74505805969E-08  0.10566000000E+00  0.10566000000E+00 0. -1.
     999900   -1    0    0    0    0 -0.00000000000E+00 -0.00000000000E+00 -0.74505805969E-08  0.93827000000E+00  0.93827000000E+00 0. -1.
     999902    2    1    2    0    0  0.18307305750E-01 -0.16013978322E-01  0.65414447402E-02  0.10187427920E+01  0.10184313825E+01 0.  0.
     999903    2    3    3    0    0  0.86265877776E-01  0.45665146026E-01 -0.82594911753E-01  0.12949143728E+00  0.20469627537E-01 0.  0.
         14    1    1    2    0    0 -0.18307305750E-01  0.16013978322E-01 -0.65414447402E-02  0.25187207960E-01  0.00000000000E+00 0.  1.
     999901    1    3    3    0    0 -0.67958572026E-01 -0.61679124348E-01  0.89136356494E-01  0.88925135476E+00  0.88000000000E+00 0.  1.
        -11    1    4    4    0    0  0.44832052070E-01  0.33721753601E-01 -0.40190246905E-01  0.69011496332E-01  0.51100000000E-03 0. -1.
         11    1    4    4    0    0  0.41433825706E-01  0.11943392425E-01 -0.42404664848E-01  0.60479940949E-01  0.51100000000E-03 0.  1.
</event>
<event>
 8    1  0.1106905E+005  0.1043930E+01  0.7957747E-01            NaN
         13   -1    0    0    0    0  0.00000000000E+00  0.00000000000E+00  0.74505805969E-08  0.10566000000E+00  0.10566000000E+00 0. -1.
     999900   -1    0    0    0    0 -0.00000000000E+00 -0.00000000000E+00 -0.74505805969E-08  0.93827000000E+00  0.93827000000E+00 0. -1.
     999902    2    1    2    0    0 -0.32380346756E-02  0.18465688847E-01 -0.15165229763E-01  0.10198167106E+01  0.10195315946E+01 0.  0.
     999903    2    3    3    0    0  0.77444978816E-01  0.19942296776E-01 -0.10324365854E+00  0.13174591461E+00  0.17387151627E-01 0.  0.
         14    1    1    2    0    0  0.32380346756E-02 -0.18465688847E-01  0.15165229763E-01  0.24113289425E-01  0.00000000000E+00 0. -1.
     999901    1    3    3    0    0 -0.80683013492E-01 -0.14766079287E-02  0.88078428779E-01  0.88807079597E+00  0.88000000000E+00 0. -1.
        -11    1    4    4    0    0  0.17163805887E-01  0.16419865446E-02 -0.34039136435E-01  0.38160402024E-01  0.51100000000E-03 0.  1.
         11    1    4    4    0    0  0.60281172930E-01  0.18300310231E-01 -0.69204522106E-01  0.93585512582E-01  0.51100000000E-03 0. -1.
</event>
<event>
 8    1  0.1106905E+005  0.1043930E+01  0.7957747E-01            NaN
         13   -1    0    0    0    0  0.00000000000E+00  0.00000000000E+00  0.74505805969E-08  0.10566000000E+00  0.10566000000E+00 0.  1.
     999900   -1    0    0    0    0 -0.00000000000E+00 -0.00000000000E+00 -0.74505805969E-08  0.93827000000E+00  0.93827000000E+00 0.  1.
     999902    2    1    2    0    0  0.15075086839E-01 -0.93436673215E-02  0.15940503892E-01  0.10200833645E+01  0.10198045933E+01 0.  0.
     999903    2    3    3    0    0 -0.86742793183E-01  0.57121276689E-01  0.76236315155E-01  0.12967893145E+00  0.14747782649E-01 0.  0.
         14    1    1    2    0    0 -0.15075086839E-01  0.93436673215E-02 -0.15940503892E-01  0.23846635539E-01  0.00000000000E+00 0. -1.
     999901    1    3    3    0    0  0.10181788002E+00 -0.66464944011E-01 -0.60295811263E-01  0.89040443301E+00  0.88000000000E+00 0.  1.
        -11    1    4    4    0    0 -0.49914847498E-01  0.38174102663E-01  0.52869322659E-01  0.82122959727E-01  0.51100000000E-03 0.  1.
         11    1    4    4    0    0 -0.36827945685E-01  0.18947174026E-01  0.23366992496E-01  0.47555971720E-01  0.51100000000E-03 0. -1.
</event>
<event>
 8    1  0.1106905E+005  0.1043930E+01  0.7957747E-01            NaN
         13   -1    0    0    0    0  0.00000000000E+00  0.00000000000E+00  0.74505805969E-08  0.10566000000E+00  0.10566000000E+00 0. -1.
     999900   -1    0    0    0    0 -0.00000000000E+00 -0.00000000000E+00 -0.74505805969E-08  0.93827000000E+00  0.93827000000E+00 0.  1.
     999902    2    1    2    0    0 -0.17039217356E-01  0.15415910510E-01 -0.10902967092E-01  0.10184965591E+01  0.10181789533E+01 0.  0.
     999903    2    3    3    0    0  0.10666062743E+00 -0.45192108129E-01  0.45761418236E-01  0.12597998441E+00  0.18921759757E-01 0.  0.
         14    1    1    2    0    0  0.17039217356E-01 -0.15415910510E-01  0.10902967092E-01  0.25433440906E-01  0.00000000000E+00 0. -1.
     999901    1    3    3    0    0 -0.12369984478E+00  0.60608018639E-01 -0.56664385328E-01  0.89251657468E+00  0.88000000000E+00 0. -1.
        -11    1    4    4    0    0  0.61453753694E-01 -0.24822679062E-01  0.16128841023E-01  0.68213853964E-01  0.51100000000E-03 0. -1.
         11    1    4    4    0    0  0.45206873734E-01 -0.20369429067E-01  0.29632577213E-01  0.57766130445E-01  0.51100000000E-03 0.  1.
</event>
<event>
 8    1  0.1106905E+005  0.1043930E+01  0.7957747E-01            NaN
         13   -1    0    0    0    0  0.00000000000E+00  0.00000000000E+00  0.74505805969E-08  0.10566000000E+00  0.10566000000E+00 0. -1.
     999900   -1    0    0    0    0 -0.00000000000E+00 -0.00000000000E+00 -0.74505805969E-08  0.93827000000E+00  0.93827000000E+00 0.  1.
     999902    2    1    2    0    0 -0.69242121169E-02  0.15243418468E-01  0.16531312882E-01  0.10204014891E+01  0.10201301917E+01 0.  0.
     999903    2    3    3    0    0 -0.64756178382E-01  0.11400965808E+00  0.12977615519E-01  0.13298279694E+00  0.18012245924E-01 0.  0.
         14    1    1    2    0    0  0.69242121169E-02 -0.15243418468E-01 -0.16531312882E-01  0.23528510910E-01  0.00000000000E+00 0.  1.
     999901    1    3    3    0    0  0.57831966265E-01 -0.98766239614E-01  0.35536973625E-02  0.88741869215E+00  0.88000000000E+00 0. -1.
        -11    1    4    4    0    0 -0.16928422486E-01  0.20338340974E-01 -0.28599995371E-02  0.26620674668E-01  0.51100000000E-03 0. -1.
         11    1    4    4    0    0 -0.47827755895E-01  0.93671317108E-01  0.15837615057E-01  0.10636212227E+00  0.51100000000E-03 0.  1.
</event>
<event>
 8    1  0.1106905E+005  0.1043930E+01  0.7957747E-01            NaN
         13   -1    0    0    0    0  0.00000000000E+00  0.00000000000E+00  0.74505805969E-08  0.10566000000E+00  0.10566000000E+00 0.  1.
     999900   -1    0    0    0    0 -0.00000000000E+00 -0.00000000000E+00 -0.74505805969E-08  0.93827000000E+00  0.93827000000E+00 0. -1.
     999902    2    1    2    0    0  0.76667082285E-02  0.17452581824E-01  0.12884125827E-01  0.10209219204E+01  0.10206626259E+01 0.  0.
     999903    2    3    3    0    0  0.32580048297E-01 -0.88853624982E-01 -0.84568429331E-01  0.12883521801E+00  0.22141994958E-01 0.  0.
         14    1    1    2    0    0 -0.76667082285E-02 -0.17452581824E-01 -0.12884125827E-01  0.23008079575E-01  0.00000000000E+00 0.  1.
     999901    1    3    3    0    0 -0.24913340068E-01  0.10630620681E+00  0.97452555158E-01  0.89208670242E+00  0.88000000000E+00 0.  1.
        -11    1    4    4    0    0  0.18277999535E-03 -0.17052634916E-01 -0.75170881768E-02  0.18643859626E-01  0.51100000000E-03 0.  1.
         11    1    4    4    0    0  0.32397268302E-01 -0.71800990067E-01 -0.77051341154E-01  0.11019135838E+00  0.51100000000E-03 0. -1.
</event>
<event>
 7    1  0.1106905E+005  0.1043930E+01  0.7957747E-01            NaN
         13   -1    0    0    0    0  0.00000000000E+00  0.00000000000E+00  0.74505805969E-08  0.10566000000E+00  0.10566000000E+00 0.  1.
     999900   -1    0    0    0    0 -0.00000000000E+00 -0.00000000000E+00 -0.74505805969E-08  0.93827000000E+00  0.93827000000E+00 0.  1.
     999902    2    1    2    0    0  0.14243041365E-01 -0.18797042693E-01  0.69904554924E-03  0.10203358968E+01  0.10200630670E+01 0.  0.
         14    1    1    2    0    0 -0.14243041365E-01  0.18797042693E-01 -0.69904554924E-03  0.23594103204E-01  0.00000000000E+00 0. -1.
     999901    1    3    3    0    0 -0.90649679129E-01 -0.11860386209E-01 -0.64521072792E-01  0.88708567902E+00  0.88000000000E+00 0. -1.
        -11    1    3    3    0    0  0.59870115285E-01 -0.28456642617E-01  0.37693464590E-01  0.76257915045E-01  0.51100000000E-03 0. -1.
         11    1    3    3    0    0  0.45022605208E-01  0.21519986133E-01  0.27526653751E-01  0.56992302731E-01  0.51100000000E-03 0.  1.
</event>
<event>
 8    1  0.1106905E+005  0.1043930E+01  0.7957747E-01            NaN
         13   -1    0    0    0    0  0.00000000000E+00  0.00000000000E+00  0.74505805969E-08  0.10566000000E+00  0.10566000000E+00 0. -1.
     999900   -1    0    0    0    0 -0.00000000000E+00 -0.00000000000E+00 -0.74505805969E-08  0.93827000000E+00  0.93827000000E+00 0. -1.
     999902    2    1    2    0    0  0.13018940524E-01 -0.21464296926E-01 -0.30189847537E-02  0.10186451602E+01  0.10183313013E+01 0.  0.
     999903    2    3    3    0    0 -0.11503184486E+00  0.67927814338E-02 -0.47572559713E-01  0.12781381412E+00  0.28191407043E-01 0.  0.
         14    1    1    2    0    0 -0.13018940524E-01  0.21464296926E-01  0.30189847537E-02  0.25284839803E-01  0.00000000000E+00 0. -1.
     999901    1    3    3    0    0  0.12805078538E+00 -0.28257078360E-01  0.44553574959E-01  0.89083134608E+00  0.88000000000E+00 0.  1.
        -11    1    4    4    0    0 -0.49418260346E-01 -0.82467187623E-02 -0.29375517276E-01  0.58080590237E-01  0.51100000000E-03 0.  1.
         11    1    4    4    0    0 -0.65613584511E-01  0.15039500196E-01 -0.18197042437E-01  0.69733223882E-01  0.51100000000E-03 0. -1.
</event>
<event>
 8    1  0.1106905E+005  0.1043930E+01  0.7957747E-01            NaN
         13   -1    0    0    0    0  0.00000000000E+00  0.00000000000E+00  0.74505805969E-08  0.10566000000E+00  0.10566000000E+00 0.  1.
     999900   -1    0    0    0    0 -0.00000000000E+00 -0.00000000000E+00 -0.74505805969E-08  0.93827000000E+00  0.93827000000E+00 0. -1.
     999902    2    1    2    0    0 -0.67186691498E-02  0.22458435600E-01 -0.35318317596E-02  0.10202235519E+01  0.10199480870E+01 0.  0.
     999903    2    3    3    0    0 -0.54593360033E-01  0.11202978189E+00  0.43361495844E-01  0.13314182160E+00  0.17760021034E-01 0.  0.
         14    1    1    2    0    0  0.67186691498E-02 -0.22458435600E-01  0.35318317596E-02  0.23706448075E-01  0.00000000000E+00 0.  1.
     999901    1    3    3    0    0  0.47874690883E-01 -0.89571346290E-01 -0.46893327604E-01  0.88708173033E+00  0.88000000000E+00 0. -1.
        -11    1    4    4    0    0 -0.23803287583E-01  0.55491384305E-01  0.29849955701E-01  0.67358527360E-01  0.51100000000E-03 0. -1.
         11    1    4    4    0    0 -0.30790072449E-01  0.56538397585E-01  0.13511540143E-01  0.65783294240E-01  0.51100000000E-03 0.  1.
</event>
<event>
 8    1  0.1106905E+005  0.1043930E+01  0.7957747E-01            NaN
         13   -1    0    0    0    0  0.00000000000E+00  0.00000000000E+00  0.74505805969E-08  0.10566000000E+00  0.10566000000E+00 0. -1.
     999900   -1    0    0    0    0 -0.00000000000E+00 -0.00000000000E+00 -0.74505805969E-08  0.93827000000E+00  0.93827000000E+00 0. -1.
     999902    2    1    2    0    0  0.16964493927E-02  0.18709101858E-01  0.21517028199E-01  0.10153661954E+01  0.10149643441E+01 0.  0.
     999903    2    3    3    0    0 -0.10384226547E+00 -0.47567481266E-01 -0.41499226828E-01  0.12435438051E+00  0.26380764825E-01 0.  0.
         14    1    1    2    0    0 -0.16964493927E-02 -0.18709101858E-01 -0.21517028199E-01  0.28563804638E-01  0.00000000000E+00 0.  1.
     999901    1    3    3    0    0  0.10553871486E+00  0.66276583124E-01  0.63016255027E-01  0.89101181485E+00  0.88000000000E+00 0.  1.
        -11    1    4    4    0    0 -0.61821383913E-01 -0.23280317924E-01 -0.10840582886E-01  0.66945022741E-01  0.51100000000E-03 0.  1.
         11    1    4    4    0    0 -0.42020881559E-01 -0.24287163341E-01 -0.30658643942E-01  0.57409357770E-01  0.51100000000E-03 0. -1.
</event>
<event>
 8    1  0.1106905E+005  0.1043930E+01  0.7957747E-01            NaN
         13   -1    0    0    0    0  0.00000000000E+00  0.00000000000E+00  0.74505805969E-08  0.10566000000E+00  0.10566000000E+00 0. -1.
     999900   -1    0    0    0    0 -0.00000000000E+00 -0.00000000000E+00 -0.74505805969E-08  0.93827000000E+00  0.93827000000E+00 0.  1.
     999902    2    1    2    0    0 -0.83016131952E-02  0.14148584086E-01  0.17355515637E-01  0.10200487702E+01  0.10197691800E+01 0.  0.
     999903    2    3    3    0    0 -0.92415158399E-01  0.76268667113E-01  0.54309095303E-01  0.13308791411E+00  0.20135639165E-01 0.  0.
         14    1    1    2    0    0  0.83016131952E-02 -0.14148584086E-01 -0.17355515637E-01  0.23881229790E-01  0.00000000000E+00 0.  1.
     999901    1    3    3    0    0  0.84113545204E-01 -0.62120083027E-01 -0.36953579667E-01  0.88696085610E+00  0.88000000000E+00 0. -1.
        -11    1    4    4    0    0 -0.37366665576E-01  0.42877457775E-01  0.21311353219E-01  0.60738611925E-01  0.51100000000E-03 0.  1.
         11    1    4    4    0    0 -0.55048492823E-01  0.33391209337E-01  0.32997742084E-01  0.72349302186E-01  0.51100000000E-03 0. -1.
</event>
<event>
 8    1  0.1106905E+005  0.1043930E+01  0.7957747E-01            NaN
         13   -1    0    0    0    0  0.00000000000E+00  0.00000000000E+00  0.74505805969E-08  0.10566000000E+00  0.10566000000E+00 0. -1.
     999900   -1    0    0    0    0 -0.00000000000E+00 -0.00000000000E+00 -0.74505805969E-08  0.93827000000E+00  0.93827000000E+00 0.  1.
     999902    2    1    2    0    0  0.41941132796E-02 -0.14563182946E-01  0.18358262403E-01  0.10201244821E+01  0.10198466827E+01 0.  0.
     999903    2    3    3    0    0  0.85284908658E-01  0.25532977910E-01  0.94639377443E-01  0.13220431243E+00  0.24411469761E-01 0.  0.
         14    1    1    2    0    0 -0.41941132796E-02  0.14563182946E-01 -0.18358262403E-01  0.23805517893E-01  0.00000000000E+00 0.  1.
     999901    1    3    3    0    0 -0.81090795378E-01 -0.40096160856E-01 -0.76281115041E-01  0.88792016968E+00  0.88000000000E+00 0.  1.
        -11    1    4    4    0    0  0.40619040389E-01  0.26101814729E-02  0.53923228989E-01  0.67562528335E-01  0.51100000000E-03 0.  1.
         11    1    4    4    0    0  0.44665868269E-01  0.22922796437E-01  0.40716148454E-01  0.64641784093E-01  0.51100000000E-03 0. -1.
</event>
<event>
 8    1  0.1106905E+005  0.1043930E+01  0.7957747E-01            NaN
         13   -1    0    0    0    0  0.00000000000E+00  0.00000000000E+00  0.74505805969E-08  0.10566000000E+00  0.10566000000E+00 0. -1.
     999900   -1    0    0    0    0 -0.00000000000E+00 -0.00000000000E+00 -0.74505805969E-08  0.93827000000E+00  0.93827000000E+00 0. -1.
     999902    2    1    2    0    0 -0.11688412690E-01  0.20807485030E-01 -0.28731299781E-02  0.10198920030E+01  0.10196086859E+01 0.  0.
     999903    2    3    3    0    0 -0.76685674583E-01 -0.99150294716E-01  0.22508426316E-01  0.12901673878E+00  0.20669204195E-01 0.  0.
         14    1    1    2    0    0  0.11688412690E-01 -0.20807485030E-01  0.28731299781E-02  0.24037997012E-01  0.00000000000E+00 0. -1.
     999901    1    3    3    0    0  0.64997261893E-01  0.11995777975E+00 -0.25381556295E-01  0.89087526421E+00  0.88000000000E+00 0. -1.
        -11    1    4    4    0    0 -0.30119150648E-01 -0.41170674753E-01  0.19422583138E-01  0.54586496060E-01  0.51100000000E-03 0.  1.
         11    1    4    4    0    0 -0.46566523935E-01 -0.57979619964E-01  0.30858431785E-02  0.74430242722E-01  0.51100000000E-03 0. -1.
</event>
<event>
 8    1  0.1106905E+005  0.1043930E+01  0.7957747E-01            NaN
         13   -1    0    0    0    0  0.00000000000E+00  0.00000000000E+00  0.74505805969E-08  0.10566000000E+00  0.10566000000E+00 0.  1.
     999900   -1    0    0    0    0 -0.00000000000E+00 -0.00000000000E+00 -0.74505805969E-08  0.93827000000E+00  0.93827000000E+00 0.  1.
     999902    2    1    2    0    0  0.13485293007E-01  0.13843968607E-01  0.15094502041E-01  0.10194075086E+01  0.10191125139E+01 0.  0.
     999903    2    3    3    0    0  0.41606868517E-01  0.22536026269E-01 -0.11826796086E+00  0.12887288185E+00  0.19542392942E-01 0.  0.
         14    1    1    2    0    0 -0.13485293007E-01 -0.13843968607E-01 -0.15094502041E-01  0.24522491435E-01  0.00000000000E+00 0. -1.
     999901    1    3    3    0    0 -0.28121575510E-01 -0.86920576618E-02  0.13336246290E+00  0.89053462672E+00  0.88000000000E+00 0. -1.
        -11    1    4    4    0    0  0.22788092990E-01  0.13006556781E-01 -0.89022630000E-01  0.92810330646E-01  0.51100000000E-03 0. -1.
         11    1    4    4    0    0  0.18818775527E-01  0.95294694883E-02 -0.29245330858E-01  0.36062551200E-01  0.51100000000E-03 0.  1.
</event>
<event>
 8    1  0.1597598E+005  0.1043930E+01  0.7957747E-01            NaN
         13   -1    0    0    0    0  0.00000000000E+00  0.00000000000E+00  0.74505805969E-08  0.10566000000E+00  0.10566000000E+00 0.  1.
     999900   -1    0    0    0    0 -0.00000000000E+00 -0.00000000000E+00 -0.74505805969E-08  0.93827000000E+00  0.93827000000E+00 0.  1.
     999902    2    1    2    0    0  0.10054246402E-01 -0.20952741813E-01 -0.20551119776E-02  0.10205991461E+01  0.10203324400E+01 0.  0.
     999903    2    3    3    0    0  0.77511901627E-01  0.77472614477E-01 -0.67311490543E-01  0.13015179728E+00  0.19963784425E-01 0.  0.
         14    1    1    2    0    0 -0.10054246402E-01  0.20952741813E-01  0.20551119776E-02  0.23330853937E-01  0.00000000000E+00 0.  1.
     999901    1    3    3    0    0 -0.67457655224E-01 -0.98425356290E-01  0.65256378566E-01  0.89044734878E+00  0.88000000000E+00 0. -1.
        -11    1    4    4    0    0  0.38627177077E-01  0.35035185098E-01 -0.20793352272E-01  0.56143990092E-01  0.51100000000E-03 0. -1.
         11    1    4    4    0    0  0.38884724550E-01  0.42437429379E-01 -0.46518138272E-01  0.74007807188E-01  0.51100000000E-03 0.  1.
</event>
<event>
 8    1  0.1106905E+005  0.1043930E+01  0.7957747E-01            NaN
         13   -1    0    0    0    0  0.00000000000E+00  0.00000000000E+00  0.74505805969E-08  0.10566000000E+00  0.10566000000E+00 0.  1.
     999900   -1    0    0    0    0 -0.00000000000E+00 -0.00000000000E+00 -0.74505805969E-08  0.93827000000E+00  0.93827000000E+00 0. -1.
     999902    2    1    2    0    0  0.14534193280E-01 -0.10634982187E-01 -0.98032079962E-02  0.10234251589E+01  0.10232197259E+01 0.  0.
     999903    2    3    3    0    0  0.33007916813E-01 -0.94240429785E-01  0.86985199950E-01  0.13398761461E+00  0.20383196020E-01 0.  0.
         14    1    1    2    0    0 -0.14534193280E-01  0.10634982187E-01  0.98032079962E-02  0.20504841073E-01  0.00000000000E+00 0.  1.
     999901    1    3    3    0    0 -0.18473723533E-01  0.83605447598E-01 -0.96788407946E-01  0.88943754432E+00  0.88000000000E+00 0.  1.
        -11    1    4    4    0    0  0.15229629962E-01 -0.20639794835E-01  0.28230435249E-01  0.38146577238E-01  0.51100000000E-03 0. -1.
         11    1    4    4    0    0  0.17778286852E-01 -0.73600634950E-01  0.58754764701E-01  0.95841037372E-01  0.51100000000E-03 0.  1.
</event>
<event>
 8    1  0.1106905E+005  0.1043930E+01  0.7957747E-01            NaN
         13   -1    0    0    0    0  0.00000000000E+00  0.00000000000E+00  0.74505805969E-08  0.10566000000E+00  0.10566000000E+00 0. -1.
     999900   -1    0    0    0    0 -0.00000000000E+00 -0.00000000000E+00 -0.74505805969E-08  0.93827000000E+00  0.93827000000E+00 0. -1.
     999902    2    1    2    0    0  0.19304717333E-01 -0.96124646199E-02  0.43330854097E-02  0.10219334726E+01  0.10216967139E+01 0.  0.
     999903    2    3    3    0    0  0.12284380365E-01  0.17941373839E-01 -0.12769510331E+00  0.13163018623E+00  0.23402299527E-01 0.  0.
         14    1    1    2    0    0 -0.19304717333E-01  0.96124646199E-02 -0.43330854097E-02  0.21996527375E-01  0.00000000000E+00 0. -1.
     999901    1    3    3    0    0  0.70203369680E-02 -0.27553838459E-01  0.13202818872E+00  0.89030328639E+00  0.88000000000E+00 0.  1.
        -11    1    4    4    0    0 -0.23486204468E-02  0.10336715290E-01 -0.19650417219E-01  0.22333018579E-01  0.51100000000E-03 0. -1.
         11    1    4    4    0    0  0.14633000812E-01  0.76046585494E-02 -0.10804468609E+00  0.10929716765E+00  0.51100000000E-03 0.  1.
</event>
<event>
 8    1  0.1106905E+005  0.1043930E+01  0.7957747E-01            NaN
         13   -1    0    0    0    0  0.00000000000E+00  0.00000000000E+00  0.74505805969E-08  0.10566000000E+00  0.10566000000E+00 0.  1.
     999900   -1    0    0    0    0 -0.00000000000E+00 -0.00000000000E+00 -0.74505805969E-08  0.93827000000E+00  0.93827000000E+00 0. -1.
     999902    2    1    2    0    0 -0.18275276972E-01  0.57160551283E-02 -0.13138098769E-01  0.10207078409E+01  0.10204436426E+01 0.  0.
     999903    2    3    3    0    0  0.67984392853E-02  0.94851593806E-01 -0.89700946129E-01  0.13254360771E+00  0.21874747620E-01 0.  0.
         14    1    1    2    0    0  0.18275276972E-01 -0.57160551283E-02  0.13138098769E-01  0.23222159114E-01  0.00000000000E+00 0.  1.
     999901    1    3    3    0    0 -0.25073716257E-01 -0.89135538677E-01  0.76562847360E-01  0.88816423318E+00  0.88000000000E+00 0.  1.
        -11    1    4    4    0    0 -0.28957401812E-02  0.60620606270E-01 -0.66679033300E-01  0.90164282388E-01  0.51100000000E-03 0. -1.
         11    1    4    4    0    0  0.96941794665E-02  0.34230987536E-01 -0.23021912829E-01  0.42379325319E-01  0.51100000000E-03 0.  1.
</event>
<event>
 8    1  0.1106905E+005  0.1043930E+01  0.7957747E-01            NaN
         13   -1    0    0    0    0  0.00000000000E+00  0.00000000000E+00  0.74505805969E-08  0.10566000000E+00  0.10566000000E+00 0. -1.
     999900   -1    0    0    0    0 -0.00000000000E+00 -0.00000000000E+00 -0.74505805969E-08  0.93827000000E+00  0.93827000000E+00 0. -1.
     999902    2    1    2    0    0 -0.13319283011E-01  0.21561742362E-01 -0.53892423117E-03  0.10185803950E+01  0.10182649059E+01 0.  0.
     999903    2    3    3    0    0  0.58525960990E-01  0.11211802855E+00  0.22424315443E-01  0.13072371152E+00  0.24291940917E-01 0.  0.
         14    1    1    2    0    0  0.13319283011E-01 -0.21561742362E-01  0.53892423117E-03  0.25349604985E-01  0.00000000000E+00 0. -1.
     999901    1    3    3    0    0 -0.71845244000E-01 -0.90556286191E-01 -0.22963239674E-01  0.88785668350E+00  0.88000000000E+00 0. -1.
        -11    1    4    4    0    0  0.14211907251E-01  0.52344598347E-01  0.12401437762E-01  0.55641639654E-01  0.51100000000E-03 0. -1.
         11    1    4    4    0    0  0.44314053738E-01  0.59773430206E-01  0.10022877681E-01  0.75082071864E-01  0.51100000000E-03 0.  1.
</event>
<event>
 8    1  0.1106905E+005  0.1043930E+01  0.7957747E-01            NaN
         13   -1    0    0    0    0  0.00000000000E+00  0.00000000000E+00  0.74505805969E-08  0.10566000000E+00  0.10566000000E+00 0. -1.
     999900   -1    0    0    0    0 -0.00000000000E+00 -0.00000000000E+00 -0.74505805969E-08  0.93827000000E+00  0.93827000000E+00 0. -1.
     999902    2    1    2    0    0 -0.41000207895E-02 -0.20545095777E-01 -0.84217252896E-02  0.10213504387E+01  0.10211008188E+01 0.  0.
     999903    2    3    3    0    0  0.11070208228E+00  0.48559406404E-01 -0.44767464110E-01  0.13046550348E+00  0.20103601297E-01 0.  0.
         14    1    1    2    0    0  0.41000207895E-02  0.20545095777E-01  0.84217252896E-02  0.22579561284E-01  0.00000000000E+00 0. -1.
     999901    1    3    3    0    0 -0.11480210307E+00 -0.69104502181E-01  0.36345738821E-01  0.89088493523E+00  0.88000000000E+00 0.  1.
        -11    1    4    4    0    0  0.35708339167E-01  0.57394567997E-02 -0.14152879457E-01  0.38840596910E-01  0.51100000000E-03 0.  1.
         11    1    4    4    0    0  0.74993743114E-01  0.42819949604E-01 -0.30614584653E-01  0.91624906575E-01  0.51100000000E-03 0. -1.
</event>
<event>
 8    1  0.1106905E+005  0.1043930E+01  0.7957747E-01            NaN
         13   -1    0    0    0    0  0.00000000000E+00  0.00000000000E+00  0.74505805969E-08  0.10566000000E+00  0.10566000000E+00 0.  1.
     999900   -1    0    0    0    0 -0.00000000000E+00 -0.00000000000E+00 -0.74505805969E-08  0.93827000000E+00  0.93827000000E+00 0. -1.
     999902    2    1    2    0    0 -0.12630434145E-01 -0.21879403854E-01  0.17000221096E-01  0.10134793235E+01  0.10130217646E+01 0.  0.
     999903    2    3    3    0    0  0.54625192346E-01 -0.86892817094E-01 -0.67264308302E-01  0.12451893403E+00  0.21123552251E-01 0.  0.
         14    1    1    2    0    0  0.12630434145E-01  0.21879403854E-01 -0.17000221096E-01  0.30450676462E-01  0.00000000000E+00 0.  1.
     999901    1    3    3    0    0 -0.67255626491E-01  0.65013413240E-01  0.84264529398E-01  0.88896038951E+00  0.88000000000E+00 0.  1.
        -11    1    4    4    0    0  0.48883639816E-01 -0.85686883916E-01 -0.61346261166E-01  0.11617003571E+00  0.51100000000E-03 0.  1.
         11    1    4    4    0    0  0.57415525298E-02 -0.12059331784E-02 -0.59180471358E-02  0.83488983216E-02  0.51100000000E-03 0. -1.
</event>
<event>
 8    1  0.1106905E+005  0.1043930E+01  0.7957747E-01            NaN
         13   -1    0    0    0    0  0.00000000000E+00  0.00000000000E+00  0.74505805969E-08  0.10566000000E+00  0.10566000000E+00 0.  1.
     999900   -1    0    0    0    0 -0.00000000000E+00 -0.00000000000E+00 -0.74505805969E-08  0.93827000000E+00  0.93827000000E+00 0. -1.
     999902    2    1    2    0    0  0.19479262167E-01  0.51046890742E-02  0.13228874272E-01  0.10198363780E+01  0.10195517325E+01 0.  0.
     999903    2    3    3    0    0 -0.13809382616E-01  0.89674953028E-01  0.93087786875E-01  0.13155843204E+00  0.20248178335E-01 0.  0.
         14    1    1    2    0    0 -0.19479262167E-01 -0.51046890742E-02 -0.13228874272E-01  0.24093621970E-01  0.00000000000E+00 0.  1.
     999901    1    3    3    0    0  0.33288644783E-01 -0.84570263954E-01 -0.79858912603E-01  0.88827794599E+00  0.88000000000E+00 0. -1.
        -11    1    4    4    0    0  0.30858035544E-02  0.13477931425E-01  0.21991711408E-01  0.25982172941E-01  0.51100000000E-03 0.  1.
         11    1    4    4    0    0 -0.16895186171E-01  0.76197021602E-01  0.71096075466E-01  0.10557625910E+00  0.51100000000E-03 0. -1.
</event>
<event>
 8    1  0.1106905E+005  0.1043930E+01  0.7957747E-01            NaN
         13   -1    0    0    0    0  0.00000000000E+00  0.00000000000E+00  0.74505805969E-08  0.10566000000E+00  0.10566000000E+00 0.  1.
     999900   -1    0    0    0    0 -0.00000000000E+00 -0.00000000000E+00 -0.74505805969E-08  0.93827000000E+00  0.93827000000E+00 0.  1.
     999902    2    1    2    0    0 -0.22961770700E-03  0.19513813735E-01 -0.12681245508E-01  0.10206565035E+01  0.10203911223E+01 0.  0.
     999903    2    3    3    0    0 -0.99150293796E-01 -0.48676072164E-01  0.63938972583E-01  0.12919376256E+00  0.20067269582E-01 0.  0.
         14    1    1    2    0    0  0.22961770700E-03 -0.19513813735E-01  0.12681245508E-01  0.23273496481E-01  0.00000000000E+00 0.  1.
     999901    1    3    3    0    0  0.98920676089E-01  0.68189885899E-01 -0.76620218092E-01  0.89146274096E+00  0.88000000000E+00 0.  1.
        -11    1    4    4    0    0 -0.78134921563E-01 -0.46411909670E-01  0.55081434561E-01  0.10627020693E+00  0.51100000000E-03 0.  1.
         11    1    4    4    0    0 -0.21015372233E-01 -0.22641624938E-02  0.88575380218E-02  0.22923555629E-01  0.51100000000E-03 0. -1.
</event>
<event>
 8    1  0.1106905E+005  0.1043930E+01  0.7957747E-01            NaN
         13   -1    0    0    0    0  0.00000000000E+00  0.00000000000E+00  0.74505805969E-08  0.10566000000E+00  0.10566000000E+00 0. -1.
     999900   -1    0    0    0    0 -0.00000000000E+00 -0.00000000000E+00 -0.74505805969E-08  0.93827000000E+00  0.93827000000E+00 0. -1.
     999902    2    1    2    0    0 -0.13105151932E-01  0.44047426605E-02  0.16763837169E-01  0.10222004579E+01  0.10219694727E+01 0.  0.
     999903    2    3    3    0    0  0.94990161422E-01  0.59190230860E-01  0.67912257974E-01  0.13242396489E+00  0.19935332899E-01 0.  0.
         14    1    1    2    0    0  0.13105151932E-01 -0.44047426605E-02 -0.16763837169E-01  0.21729542142E-01  0.00000000000E+00 0.  1.
     999901    1    3    3    0    0 -0.10809531335E+00 -0.54785488200E-01 -0.51148420805E-01  0.88977649297E+00  0.88000000000E+00 0.  1.
        -11    1    4    4    0    0  0.57352488216E-01  0.45860543798E-01  0.39214741381E-01  0.83249951619E-01  0.51100000000E-03 0.  1.
         11    1    4    4    0    0  0.37637673207E-01  0.13329687062E-01  0.28697516593E-01  0.49174013271E-01  0.51100000000E-03 0. -1.
</event>
<event>
 8    1  0.1106905E+005  0.1043930E+01  0.7957747E-01            NaN
         13   -1    0    0    0    0  0.00000000000E+00  0.00000000000E+00  0.74505805969E-08  0.10566000000E+00  0.10566000000E+00 0. -1.
     999900   -1    0    0    0    0 -0.00000000000E+00 -0.00000000000E+00 -0.74505805969E-08  0.93827000000E+00  0.93827000000E+00 0. -1.
     999902    2    1    2    0    0 -0.12132078071E-01 -0.16720511085E-01 -0.14086348927E-01  0.10189262396E+01  0.10186194057E+01 0.  0.
     999903    2    3    3    0    0 -0.78854461369E-01 -0.86840694829E-01 -0.59040155865E-01  0.13247851897E+00  0.17478147179E-01 0.  0.
         14    1    1    2    0    0  0.12132078071E-01  0.16720511085E-01  0.14086348927E-01  0.25003760424E-01  0.00000000000E+00 0. -1.
     999901    1    3    3    0    0  0.66722383298E-01  0.70120183744E-01  0.44953806938E-01  0.88644772060E+00  0.88000000000E+00 0.  1.
        -11    1    4    4    0    0 -0.42054515365E-01 -0.47799874297E-01 -0.41632334641E-01  0.76071825626E-01  0.51100000000E-03 0. -1.
         11    1    4    4    0    0 -0.36799946003E-01 -0.39040820532E-01 -0.17407821224E-01  0.56406693348E-01  0.51100000000E-03 0.  1.
</event>
<event>
 8    1  0.1106905E+005  0.1043930E+01  0.7957747E-01            NaN
         13   -1    0    0    0    0  0.00000000000E+00  0.00000000000E+00  0.74505805969E-08  0.10566000000E+00  0.10566000000E+00 0. -1.
     999900   -1    0    0    0    0 -0.00000000000E+00 -0.00000000000E+00 -0.74505805969E-08  0.93827000000E+00  0.93827000000E+00 0. -1.
     999902    2    1    2    0    0  0.10636878634E-01  0.18951984054E-01  0.88737712971E-02  0.10204552326E+01  0.10201851876E+01 0.  0.
     999903    2    3    3    0    0  0.36097974593E-01 -0.10967705805E+00 -0.52554127748E-01  0.12862168051E+00  0.21200932118E-01 0.  0.
         14    1    1    2    0    0 -0.10636878634E-01 -0.18951984054E-01 -0.88737712971E-02  0.23474767383E-01  0.00000000000E+00 0.  1.
     999901    1    3    3    0    0 -0.25461095959E-01  0.12862904210E+00  0.61427899045E-01  0.89183355211E+00  0.88000000000E+00 0.  1.
        -11    1    4    4    0    0  0.22889989586E-01 -0.62456613333E-01 -0.41340348986E-01  0.78320276733E-01  0.51100000000E-03 0. -1.
         11    1    4    4    0    0  0.13207985007E-01 -0.47220444714E-01 -0.11213778762E-01  0.50301403779E-01  0.51100000000E-03 0.  1.
</event>
<event>
 8    1  0.1106905E+005  0.1043930E+01  0.7957747E-01            NaN
         13   -1    0    0    0    0  0.00000000000E+00  0.00000000000E+00  0.74505805969E-08  0.10566000000E+00  0.10566000000E+00 0. -1.
     999900   -1    0    0    0    0 -0.00000000000E+00 -0.00000000000E+00 -0.74505805969E-08  0.93827000000E+00  0.93827000000E+00 0. -1.
     999902    2    1    2    0    0 -0.26402477923E-02 -0.20917100079E-01 -0.15300703339E-01  0.10178799039E+01  0.10175465057E+01 0.  0.
     999903    2    3    3    0    0 -0.53130115535E-01 -0.22189424696E-01 -0.11564337941E+00  0.13073870984E+00  0.20100728933E-01 0.  0.
         14    1    1    2    0    0  0.26402477923E-02  0.20917100079E-01  0.15300703339E-01  0.26050096099E-01  0.00000000000E+00 0. -1.
     999901    1    3    3    0    0  0.50489867743E-01  0.12723246175E-02  0.10034267608E+00  0.88714119406E+00  0.88000000000E+00 0.  1.
        -11    1    4    4    0    0 -0.41874869591E-01 -0.24521871095E-01 -0.83242645209E-01  0.96355726180E-01  0.51100000000E-03 0.  1.
         11    1    4    4    0    0 -0.11255245944E-01  0.23324463988E-02 -0.32400734205E-01  0.34382983662E-01  0.51100000000E-03 0. -1.
</event>
<event>
 8    1  0.1106905E+005  0.1043930E+01  0.7957747E-01            NaN
         13   -1    0    0    0    0  0.00000000000E+00  0.00000000000E+00  0.74505805969E-08  0.10566000000E+00  0.10566000000E+00 0.  1.
     999900   -1    0    0    0    0 -0.00000000000E+00 -0.00000000000E+00 -0.74505805969E-08  0.93827000000E+00  0.93827000000E+00 0.  1.
     999902    2    1    2    0    0  0.16721258879E-01 -0.10528413788E-01 -0.24063156008E-01  0.10127934704E+01  0.10123147388E+01 0.  0.
     999903    2    3    3    0    0  0.10363221940E+00  0.54100340192E-01  0.35870737892E-01  0.12413016945E+00  0.21333200041E-01 0.  0.
         14    1    1    2    0    0 -0.16721258879E-01  0.10528413788E-01  0.24063156008E-01  0.31136529551E-01  0.00000000000E+00 0.  1.
     999901    1    3    3    0    0 -0.86910960525E-01 -0.64628753980E-01 -0.59933893900E-01  0.88866330100E+00  0.88000000000E+00 0. -1.
        -11    1    4    4    0    0  0.60140243629E-01  0.20186716656E-01  0.23121311487E-01  0.67521911991E-01  0.51100000000E-03 0.  1.
         11    1    4    4    0    0  0.43491975775E-01  0.33913623536E-01  0.12749426405E-01  0.56608257461E-01  0.51100000000E-03 0. -1.
</event>
<event>
 8    1  0.1106905E+005  0.1043930E+01  0.7957747E-01            NaN
         13   -1    0    0    0    0  0.00000000000E+00  0.00000000000E+00  0.74505805969E-08  0.10566000000E+00  0.10566000000E+00 0. -1.
     999900   -1    0    0    0    0 -0.00000000000E+00 -0.00000000000E+00 -0.74505805969E-08  0.93827000000E+00  0.93827000000E+00 0. -1.
     999902    2    1    2    0    0  0.21295370504E-01  0.60449554746E-02 -0.68953404577E-02  0.10207442283E+01  0.10204808668E+01 0.  0.
     999903    2    3    3    0    0 -0.10877273588E+00 -0.40086326383E-01  0.50745868452E-01  0.12812543144E+00  0.20063932385E-01 0.  0.
         14    1    1    2    0    0 -0.21295370504E-01 -0.60449554746E-02  0.68953404577E-02  0.23185771749E-01  0.00000000000E+00 0. -1.
     999901    1    3    3    0    0  0.13006810638E+00  0.46131281858E-01 -0.57641208910E-01  0.89261879682E+00  0.88000000000E+00 0.  1.
        -11    1    4    4    0    0 -0.10230468486E+00 -0.40377348147E-01  0.51752560714E-01  0.12155314660E+00  0.51100000000E-03 0. -1.
         11    1    4    4    0    0 -0.64680510150E-02  0.29102176377E-03 -0.10066922615E-02  0.65722848317E-02  0.51100000000E-03 0.  1.
</event>
<event>
 8    1  0.1106905E+005  0.1043930E+01  0.7957747E-01            NaN
         13   -1    0    0    0    0  0.00000000000E+00  0.00000000000E+00  0.74505805969E-08  0.10566000000E+00  0.10566000000E+00 0.  1.
     999900   -1    0    0    0    0 -0.00000000000E+00 -0.00000000000E+00 -0.74505805969E-08  0.93827000000E+00  0.93827000000E+00 0. -1.
     999902    2    1    2    0    0  0.11927917894E-01  0.16361403765E-01  0.13193468864E-01  0.10197631140E+01  0.10194767140E+01 0.  0.
     999903    2    3    3    0    0 -0.55856905958E-01 -0.11205790067E+00 -0.88403785481E-02  0.12759060235E+00  0.22896341845E-01 0.  0.
         14    1    1    2    0    0 -0.11927917894E-01 -0.16361403765E-01 -0.13193468864E-01  0.24166886003E-01  0.00000000000E+00 0.  1.
     999901    1    3    3    0    0  0.67784823852E-01  0.12841930444E+00  0.22033847412E-01  0.89217251164E+00  0.88000000000E+00 0. -1.
        -11    1    4    4    0    0 -0.34513745109E-01 -0.81111004225E-01 -0.15226315391E-01  0.89455549907E-01  0.51100000000E-03 0.  1.
         11    1    4    4    0    0 -0.21343160850E-01 -0.30946896448E-01  0.63859368427E-02  0.38135052448E-01  0.51100000000E-03 0. -1.
</event>
<event>
 8    1  0.1106905E+005  0.1043930E+01  0.7957747E-01            NaN
         13   -1    0    0    0    0  0.00000000000E+00  0.00000000000E+00  0.74505805969E-08  0.10566000000E+00  0.10566000000E+00 0. -1.
     999900   -1    0    0    0    0 -0.00000000000E+00 -0.00000000000E+00 -0.74505805969E-08  0.93827000000E+00  0.93827000000E+00 0. -1.
     999902    2    1    2    0    0  0.10375683396E-01  0.23811326864E-01  0.60290415990E-02  0.10172657274E+01  0.10169162092E+01 0.  0.
     999903    2    3    3    0    0 -0.40641353418E-01  0.84192363908E-01  0.88092650484E-01  0.12991965982E+00  0.19460965782E-01 0.  0.
         14    1    1    2    0    0 -0.10375683396E-01 -0.23811326864E-01 -0.60290415990E-02  0.26664272643E-01  0.00000000000E+00 0. -1.
     999901    1    3    3    0    0  0.51017036814E-01 -0.60381037044E-01 -0.82063608885E-01  0.88734606754E+00  0.88000000000E+00 0. -1.
        -11    1    4    4    0    0 -0.14162722822E-01  0.48531932857E-01  0.53584255690E-01  0.73671329589E-01  0.51100000000E-03 0.  1.
         11    1    4    4    0    0 -0.26478630596E-01  0.35660431050E-01  0.34508394794E-01  0.56248330226E-01  0.51100000000E-03 0. -1.
</event>
<event>
 8    1  0.1106905E+005  0.1043930E+01  0.7957747E-01            NaN
         13   -1    0    0    0    0  0.00000000000E+00  0.00000000000E+00  0.74505805969E-08  0.10566000000E+00  0.10566000000E+00 0.  1.
     999900   -1    0    0    0    0 -0.00000000000E+00 -0.00000000000E+00 -0.74505805969E-08  0.93827000000E+00  0.93827000000E+00 0. -1.
     999902    2    1    2    0    0 -0.13544724386E-01 -0.19479396567E-01  0.45184906959E-02  0.10197779150E+01  0.10194918699E+01 0.  0.
     999903    2    3    3    0    0 -0.56072463616E-01 -0.52896691171E-01  0.10571156515E+00  0.13232912075E+00  0.19846412278E-01 0.  0.
         14    1    1    2    0    0  0.13544724386E-01  0.19479396567E-01 -0.45184906959E-02  0.24152084951E-01  0.00000000000E+00 0. -1.
     999901    1    3    3    0    0  0.42527739230E-01  0.33417294604E-01 -0.10119307445E+00  0.88744879430E+00  0.88000000000E+00 0. -1.
        -11    1    4    4    0    0 -0.55595610596E-01 -0.52973690854E-01  0.97612640491E-01  0.12419972844E+00  0.51100000000E-03 0. -1.
         11    1    4    4    0    0 -0.47685302000E-03  0.76999683279E-04  0.80989246564E-02  0.81293923109E-02  0.51100000000E-03 0.  1.
</event>
<event>
 8    1  0.1106905E+005  0.1043930E+01  0.7957747E-01            NaN
         13   -1    0    0    0    0  0.00000000000E+00  0.00000000000E+00  0.74505805969E-08  0.10566000000E+00  0.10566000000E+00 0.  1.
     999900   -1    0    0    0    0 -0.00000000000E+00 -0.00000000000E+00 -0.74505805969E-08  0.93827000000E+00  0.93827000000E+00 0. -1.
     999902    2    1    2    0    0 -0.20109679860E-01  0.14648366460E-03 -0.12460782985E-01  0.10202721938E+01  0.10199978714E+01 0.  0.
     999903    2    3    3    0    0 -0.11848941831E+00  0.32357909022E-01  0.44957726267E-01  0.13234593894E+00  0.20185982195E-01 0.  0.
         14    1    1    2    0    0  0.20109679860E-01 -0.14648366460E-03  0.12460782985E-01  0.23657806199E-01  0.00000000000E+00 0. -1.
     999901    1    3    3    0    0  0.98379738446E-01 -0.32211425357E-01 -0.57418509252E-01  0.88792625486E+00  0.88000000000E+00 0. -1.
        -11    1    4    4    0    0 -0.94387855293E-01  0.29667884344E-01  0.28263251019E-01  0.10289957759E+00  0.51100000000E-03 0. -1.
         11    1    4    4    0    0 -0.24101563013E-01  0.26900246784E-02  0.16694475248E-01  0.29446361358E-01  0.51100000000E-03 0.  1.
</event>
<event>
 8    1  0.1106905E+005  0.1043930E+01  0.7957747E-01            NaN
         13   -1    0    0    0    0  0.00000000000E+00  0.00000000000E+00  0.74505805969E-08  0.10566000000E+00  0.10566000000E+00 0. -1.
     999900   -1    0    0    0    0 -0.00000000000E+00 -0.00000000000E+00 -0.74505805969E-08  0.93827000000E+00  0.93827000000E+00 0. -1.
     999902    2    1    2    0    0 -0.16079338056E-01 -0.34260052503E-02  0.17011578022E-01  0.10202725189E+01  0.10199982041E+01 0.  0.
     999903    2    3    3    0    0 -0.17381369930E-01 -0.12641052679E+00  0.25789717584E-01  0.13167590427E+00  0.19791435730E-01 0.  0.
         14    1    1    2    0    0  0.16079338056E-01  0.34260052503E-02 -0.17011578022E-01  0.23657481081E-01  0.00000000000E+00 0.  1.
     999901    1    3    3    0    0  0.13020318738E-02  0.12298452154E+00 -0.87781395625E-02  0.88859661465E+00  0.88000000000E+00 0. -1.
        -11    1    4    4    0    0 -0.23035287200E-02 -0.85260208082E-01  0.16535864659E-01  0.86880983349E-01  0.51100000000E-03 0. -1.
         11    1    4    4    0    0 -0.15077841210E-01 -0.41150318712E-01  0.92538529251E-02  0.44794920924E-01  0.51100000000E-03 0.  1.
</event>
<event>
 8    1  0.1106905E+005  0.1043930E+01  0.7957747E-01            NaN
         13   -1    0    0    0    0  0.00000000000E+00  0.00000000000E+00  0.74505805969E-08  0.10566000000E+00  0.10566000000E+00 0.  1.
     999900   -1    0    0    0    0 -0.00000000000E+00 -0.00000000000E+00 -0.74505805969E-08  0.93827000000E+00  0.93827000000E+00 0.  1.
     999902    2    1    2    0    0 -0.40067771645E-02 -0.23426764432E-01  0.27957897429E-02  0.10199991831E+01  0.10197184168E+01 0.  0.
     999903    2    3    3    0    0 -0.45749772277E-01  0.70948320972E-01 -0.94879717923E-01  0.12860160676E+00  0.20236266367E-01 0.  0.
         14    1    1    2    0    0  0.40067771645E-02  0.23426764432E-01 -0.27957897429E-02  0.23930816854E-01  0.00000000000E+00 0.  1.
     999901    1    3    3    0    0  0.41742995112E-01 -0.94375085404E-01  0.97675507666E-01  0.89139757638E+00  0.88000000000E+00 0. -1.
        -11    1    4    4    0    0 -0.20059945726E-02  0.24614684858E-02  0.54456542498E-03  0.32619800481E-02  0.51100000000E-03 0. -1.
         11    1    4    4    0    0 -0.43743777704E-01  0.68486852486E-01 -0.95424283348E-01  0.12533962671E+00  0.51100000000E-03 0.  1.
</event>
<event>
 8    1  0.1106905E+005  0.1043930E+01  0.7957747E-01            NaN
         13   -1    0    0    0    0  0.00000000000E+00  0.00000000000E+00  0.74505805969E-08  0.10566000000E+00  0.10566000000E+00 0. -1.
     999900   -1    0    0    0    0 -0.00000000000E+00 -0.00000000000E+00 -0.74505805969E-08  0.93827000000E+00  0.93827000000E+00 0. -1.
     999902    2    1    2    0    0 -0.50704278405E-02  0.13486515742E-01 -0.15025709692E-01  0.10231125242E+01  0.10229007136E+01 0.  0.
     999903    2    3    3    0    0  0.36177572596E-01 -0.11418933395E+00 -0.51618406920E-01  0.13219078490E+00  0.21492392409E-01 0.  0.
         14    1    1    2    0    0  0.50704278405E-02 -0.13486515742E-01  0.15025709692E-01  0.20817475762E-01  0.00000000000E+00 0. -1.
     999901    1    3    3    0    0 -0.41248000437E-01  0.12767584970E+00  0.36592697228E-01  0.89092173934E+00  0.88000000000E+00 0.  1.
        -11    1    4    4    0    0  0.30710486823E-01 -0.61780410196E-01 -0.28613874532E-01  0.74692489727E-01  0.51100000000E-03 0.  1.
         11    1    4    4    0    0  0.54670857738E-02 -0.52408923759E-01 -0.23004532387E-01  0.57498295172E-01  0.51100000000E-03 0. -1.
</event>
<event>
 7    1  0.1106905E+005  0.1043930E+01  0.7957747E-01            NaN
         13   -1    0    0    0    0  0.00000000000E+00  0.00000000000E+00  0.74505805969E-08  0.10566000000E+00  0.10566000000E+00 0.  1.
     999900   -1    0    0    0    0 -0.00000000000E+00 -0.00000000000E+00 -0.74505805969E-08  0.93827000000E+00  0.93827000000E+00 0. -1.
     999903    2    1    2    0    0 -0.42353543900E-01  0.49198572491E-01 -0.53781441879E-01  0.86525087785E-01  0.19489102329E-01 0.  0.
         14    1    1    2    0    0  0.80278165478E-02 -0.21880090657E-01 -0.64338507330E-01  0.68429728417E-01  0.00000000000E+00 0. -1.
     999901    1    1    2    0    0  0.34325727352E-01 -0.27318481834E-01  0.11811994921E+00  0.88897518380E+00  0.88000000000E+00 0.  1.
        -11    1    3    3    0    0 -0.24923127308E-01  0.27633929096E-01 -0.42746665945E-01  0.56677463621E-01  0.51100000000E-03 0.  1.
         11    1    3    3    0    0 -0.17430416593E-01  0.21564643395E-01 -0.11034775934E-01  0.29847624164E-01  0.51100000000E-03 0. -1.
</event>
<event>
 8    1  0.1106905E+005  0.1043930E+01  0.7957747E-01            NaN
         13   -1    0    0    0    0  0.00000000000E+00  0.00000000000E+00  0.74505805969E-08  0.10566000000E+00  0.10566000000E+00 0. -1.
     999900   -1    0    0    0    0 -0.00000000000E+00 -0.00000000000E+00 -0.74505805969E-08  0.93827000000E+00  0.93827000000E+00 0. -1.
     999902    2    1    2    0    0 -0.64888058984E-02 -0.92699818091E-02 -0.21400492191E-01  0.10197221866E+01  0.10194348040E+01 0.  0.
     999903    2    3    3    0    0  0.43917974797E-01  0.11076751004E+00  0.43634708123E-01  0.12776959800E+00  0.14928249375E-01 0.  0.
         14    1    1    2    0    0  0.64888058984E-02  0.92699818091E-02  0.21400492191E-01  0.24207813424E-01  0.00000000000E+00 0. -1.
     999901    1    3    3    0    0 -0.50406780696E-01 -0.12003749185E+00 -0.65035200315E-01  0.89195258858E+00  0.88000000000E+00 0. -1.
        -11    1    4    4    0    0  0.38298616106E-01  0.78704057146E-01  0.32162264837E-01  0.93251193061E-01  0.51100000000E-03 0. -1.
         11    1    4    4    0    0  0.56193586911E-02  0.32063452893E-01  0.11472443286E-01  0.34518404938E-01  0.51100000000E-03 0.  1.
</event>
<event>
 8    1  0.1106905E+005  0.1043930E+01  0.7957747E-01            NaN
         13   -1    0    0    0    0  0.00000000000E+00  0.00000000000E+00  0.74505805969E-08  0.10566000000E+00  0.10566000000E+00 0.  1.
     999900   -1    0    0    0    0 -0.00000000000E+00 -0.00000000000E+00 -0.74505805969E-08  0.93827000000E+00  0.93827000000E+00 0.  1.
     999902    2    1    2    0    0  0.11671283888E-01  0.19752328500E-01  0.48740180891E-02  0.10204751625E+01  0.10202055812E+01 0.  0.
     999903    2    3    3    0    0 -0.67932691786E-01 -0.13613742778E-02  0.10936763821E+00  0.13047432093E+00  0.21108391274E-01 0.  0.
         14    1    1    2    0    0 -0.11671283888E-01 -0.19752328500E-01 -0.48740180891E-02  0.23454837477E-01  0.00000000000E+00 0. -1.
     999901    1    3    3    0    0  0.79603975673E-01  0.21113702778E-01 -0.10449362012E+00  0.89000084159E+00  0.88000000000E+00 0. -1.
        -11    1    4    4    0    0 -0.33121055338E-01  0.37765938265E-02  0.70838556621E-01  0.78291948455E-01  0.51100000000E-03 0.  1.
         11    1    4    4    0    0 -0.34811636447E-01 -0.51379681043E-02  0.38529081586E-01  0.52182372476E-01  0.51100000000E-03 0. -1.
</event>
<event>
 8    1  0.1106905E+005  0.1043930E+01  0.7957747E-01            NaN
         13   -1    0    0    0    0  0.00000000000E+00  0.00000000000E+00  0.74505805969E-08  0.10566000000E+00  0.10566000000E+00 0.  1.
     999900   -1    0    0    0    0 -0.00000000000E+00 -0.00000000000E+00 -0.74505805969E-08  0.93827000000E+00  0.93827000000E+00 0.  1.
     999902    2    1    2    0    0 -0.91177693376E-02  0.26615478071E-02  0.22353689640E-01  0.10196420401E+01  0.10193527284E+01 0.  0.
     999903    2    3    3    0    0  0.83715737347E-01 -0.89541422788E-01 -0.32144607228E-01  0.12830062848E+00  0.20044560855E-01 0.  0.
         14    1    1    2    0    0  0.91177693376E-02 -0.26615478071E-02 -0.22353689640E-01  0.24287959877E-01  0.00000000000E+00 0. -1.
     999901    1    3    3    0    0 -0.92833506685E-01  0.92202970595E-01  0.54498296868E-01  0.89134141164E+00  0.88000000000E+00 0. -1.
        -11    1    4    4    0    0  0.24863422015E-01 -0.35886698293E-01 -0.40466582236E-02  0.43848391446E-01  0.51100000000E-03 0. -1.
         11    1    4    4    0    0  0.58852315333E-01 -0.53654724495E-01 -0.28097949004E-01  0.84452237033E-01  0.51100000000E-03 0.  1.
</event>
<event>
 8    1  0.1106905E+005  0.1043930E+01  0.7957747E-01            NaN
         13   -1    0    0    0    0  0.00000000000E+00  0.00000000000E+00  0.74505805969E-08  0.10566000000E+00  0.10566000000E+00 0.  1.
     999900   -1    0    0    0    0 -0.00000000000E+00 -0.00000000000E+00 -0.74505805969E-08  0.93827000000E+00  0.93827000000E+00 0. -1.
     999902    2    1    2    0    0  0.56192197843E-02  0.21246629786E-01 -0.10134283425E-01  0.10197287891E+01  0.10194415651E+01 0.  0.
     999903    2    3    3    0    0  0.91129264826E-01 -0.48746818786E-01 -0.76197830223E-01  0.13036078717E+00  0.22517332256E-01 0.  0.
         14    1    1    2    0    0 -0.56192197843E-02 -0.21246629786E-01  0.10134283425E-01  0.24201210895E-01  0.00000000000E+00 0.  1.
     999901    1    3    3    0    0 -0.85510045042E-01  0.69993448573E-01  0.66063546798E-01  0.88936800193E+00  0.88000000000E+00 0. -1.
        -11    1    4    4    0    0  0.46701947944E-01 -0.35869541611E-01 -0.49642876988E-01  0.77021895028E-01  0.51100000000E-03 0. -1.
         11    1    4    4    0    0  0.44427316883E-01 -0.12877277175E-01 -0.26554953235E-01  0.53338892144E-01  0.51100000000E-03 0.  1.
</event>
<event>
 8    1  0.1106905E+005  0.1043930E+01  0.7957747E-01            NaN
         13   -1    0    0    0    0  0.00000000000E+00  0.00000000000E+00  0.74505805969E-08  0.10566000000E+00  0.10566000000E+00 0.  1.
     999900   -1    0    0    0    0 -0.00000000000E+00 -0.00000000000E+00 -0.74505805969E-08  0.93827000000E+00  0.93827000000E+00 0. -1.
     999902    2    1    2    0    0 -0.22851062045E-01  0.15656594367E-02  0.33788207238E-02  0.10207774892E+01  0.10205148915E+01 0.  0.
     999903    2    3    3    0    0 -0.13012101895E+00 -0.54161407102E-02 -0.23177835637E-01  0.13383845795E+00  0.20364346516E-01 0.  0.
         14    1    1    2    0    0  0.22851062045E-01 -0.15656594367E-02 -0.33788207238E-02  0.23152510783E-01  0.00000000000E+00 0. -1.
     999901    1    3    3    0    0  0.10726995690E+00  0.69818001469E-02  0.26556656361E-01  0.88693903127E+00  0.88000000000E+00 0.  1.
        -11    1    4    4    0    0 -0.79302099767E-01 -0.10095107763E-01 -0.67721138618E-02  0.80230024774E-01  0.51100000000E-03 0.  1.
         11    1    4    4    0    0 -0.50818919183E-01  0.46789670529E-02 -0.16405721775E-01  0.53608433176E-01  0.51100000000E-03 0. -1.
</event>
<event>
 8    1  0.1106905E+005  0.1043930E+01  0.7957747E-01            NaN
         13   -1    0    0    0    0  0.00000000000E+00  0.00000000000E+00  0.74505805969E-08  0.10566000000E+00  0.10566000000E+00 0.  1.
     999900   -1    0    0    0    0 -0.00000000000E+00 -0.00000000000E+00 -0.74505805969E-08  0.93827000000E+00  0.93827000000E+00 0.  1.
     999902    2    1    2    0    0  0.21674750129E-02 -0.17108932280E-01 -0.18417465519E-01  0.10186987387E+01  0.10183862252E+01 0.  0.
     999903    2    3    3    0    0 -0.82217983779E-01  0.90029173093E-01 -0.32181534630E-01  0.12808719099E+00  0.22486183764E-01 0.  0.
         14    1    1    2    0    0 -0.21674750129E-02  0.17108932280E-01  0.18417465519E-01  0.25231261321E-01  0.00000000000E+00 0. -1.
     999901    1    3    3    0    0  0.84385458791E-01 -0.10713810537E+00  0.13764069111E-01  0.89061154769E+00  0.88000000000E+00 0.  1.
        -11    1    4    4    0    0 -0.64721313740E-01  0.68315899935E-01 -0.14906882498E-01  0.95280569388E-01  0.51100000000E-03 0. -1.
         11    1    4    4    0    0 -0.17496670039E-01  0.21713273158E-01 -0.17274652132E-01  0.32806621602E-01  0.51100000000E-03 0.  1.
</event>
<event>
 8    1  0.1106905E+005  0.1043930E+01  0.7957747E-01            NaN
         13   -1    0    0    0    0  0.00000000000E+00  0.00000000000E+00  0.74505805969E-08  0.10566000000E+00  0.10566000000E+00 0. -1.
     999900   -1    0    0    0    0 -0.00000000000E+00 -0.00000000000E+00 -0.74505805969E-08  0.93827000000E+00  0.93827000000E+00 0.  1.
     999902    2    1    2    0    0 -0.71860322719E-03  0.14027592829E-01  0.19164800937E-01  0.10201691215E+01  0.10198923753E+01 0.  0.
     999903    2    3    3    0    0 -0.10131089131E+00  0.79654306618E-01 -0.15300461969E-01  0.13134206954E+00  0.20197272918E-01 0.  0.
         14    1    1    2    0    0  0.71860322719E-03 -0.14027592829E-01 -0.19164800937E-01  0.23760878480E-01  0.00000000000E+00 0.  1.
     999901    1    3    3    0    0  0.10059228808E+00 -0.65626713789E-01  0.34465262906E-01  0.88882705198E+00  0.88000000000E+00 0. -1.
        -11    1    4    4    0    0 -0.36304853818E-01  0.39747470454E-01 -0.10959899477E-01  0.54938914585E-01  0.51100000000E-03 0. -1.
         11    1    4    4    0    0 -0.65006037494E-01  0.39906836164E-01 -0.43405624912E-02  0.76403154955E-01  0.51100000000E-03 0.  1.
</event>
<event>
 8    1  0.1106905E+005  0.1043930E+01  0.7957747E-01            NaN
         13   -1    0    0    0    0  0.00000000000E+00  0.00000000000E+00  0.74505805969E-08  0.10566000000E+00  0.10566000000E+00 0. -1.
     999900   -1    0    0    0    0 -0.00000000000E+00 -0.00000000000E+00 -0.74505805969E-08  0.93827000000E+00  0.93827000000E+00 0.  1.
     999902    2    1    2    0    0 -0.91273290994E-02 -0.85054237163E-02 -0.55486928286E-02  0.10302757567E+01  0.10301852729E+01 0.  0.
     999903    2    3    3    0    0  0.13177986240E+00  0.31051766521E-01 -0.12005625835E-01  0.13816516940E+00  0.24805939707E-01 0.  0.
         14    1    1    2    0    0  0.91273290994E-02  0.85054237163E-02  0.55486928286E-02  0.13654243340E-01  0.00000000000E+00 0.  1.
     999901    1    3    3    0    0 -0.14090719150E+00 -0.39557190238E-01  0.64569330059E-02  0.89211058726E+00  0.88000000000E+00 0.  1.
        -11    1    4    4    0    0  0.34914086144E-01  0.13847887465E-02 -0.11714377653E-01  0.36856462336E-01  0.51100000000E-03 0.  1.
         11    1    4    4    0    0  0.96865776259E-01  0.29666977775E-01 -0.29124818171E-03  0.10130870706E+00  0.51100000000E-03 0. -1.
</event>
<event>
 8    1  0.1106905E+005  0.1043930E+01  0.7957747E-01            NaN
         13   -1    0    0    0    0  0.00000000000E+00  0.00000000000E+00  0.74505805969E-08  0.10566000000E+00  0.10566000000E+00 0. -1.
     999900   -1    0    0    0    0 -0.00000000000E+00 -0.00000000000E+00 -0.74505805969E-08  0.93827000000E+00  0.93827000000E+00 0. -1.
     999902    2    1    2    0    0  0.18765726513E-01 -0.12489603464E-01  0.84649036971E-02  0.10198510199E+01  0.10195667244E+01 0.  0.
     999903    2    3    3    0    0 -0.24004355897E-01 -0.90315104339E-01 -0.88433125730E-01  0.13008963808E+00  0.19231979515E-01 0.  0.
         14    1    1    2    0    0 -0.18765726513E-01  0.12489603464E-01 -0.84649036971E-02  0.24078980062E-01  0.00000000000E+00 0. -1.
     999901    1    3    3    0    0  0.42770082409E-01  0.77825500875E-01  0.96898029427E-01  0.88976138186E+00  0.88000000000E+00 0. -1.
        -11    1    4    4    0    0 -0.13595384514E-01 -0.44407269106E-01 -0.31052143330E-01  0.55868924779E-01  0.51100000000E-03 0.  1.
         11    1    4    4    0    0 -0.10408971383E-01 -0.45907835233E-01 -0.57380982400E-01  0.74220713303E-01  0.51100000000E-03 0. -1.
</event>
<event>
 8    1  0.1106905E+005  0.1043930E+01  0.7957747E-01            NaN
         13   -1    0    0    0    0  0.00000000000E+00  0.00000000000E+00  0.74505805969E-08  0.10566000000E+00  0.10566000000E+00 0.  1.
     999900   -1    0    0    0    0 -0.00000000000E+00 -0.00000000000E+00 -0.74505805969E-08  0.93827000000E+00  0.93827000000E+00 0.  1.
     999902    2    1    2    0    0  0.79446830870E-03  0.65936728858E-03 -0.27209413667E-01  0.10167010056E+01  0.10163363206E+01 0.  0.
     999903    2    3    3    0    0 -0.79006629892E-01  0.44587167160E-01  0.83555326318E-01  0.12509195757E+00  0.20891200279E-01 0.  0.
         14    1    1    2    0    0 -0.79446830870E-03 -0.65936728858E-03  0.27209413667E-01  0.27228994422E-01  0.00000000000E+00 0.  1.
     999901    1    3    3    0    0  0.79801098200E-01 -0.43927799872E-01 -0.11076473999E+00  0.89160904801E+00  0.88000000000E+00 0.  1.
        -11    1    4    4    0    0 -0.29795669478E-01  0.28711277743E-01  0.37567862117E-01  0.55890292308E-01  0.51100000000E-03 0.  1.
         11    1    4    4    0    0 -0.49210960414E-01  0.15875889417E-01  0.45987464201E-01  0.69201665257E-01  0.51100000000E-03 0. -1.
</event>
<event>
 8    1  0.1106905E+005  0.1043930E+01  0.7957747E-01            NaN
         13   -1    0    0    0    0  0.00000000000E+00  0.00000000000E+00  0.74505805969E-08  0.10566000000E+00  0.10566000000E+00 0.  1.
     999900   -1    0    0    0    0 -0.00000000000E+00 -0.00000000000E+00 -0.74505805969E-08  0.93827000000E+00  0.93827000000E+00 0. -1.
     999902    2    1    2    0    0  0.93642337789E-02 -0.21987325579E-01  0.93891981854E-03  0.10200132082E+01  0.10197327748E+01 0.  0.
     999903    2    3    3    0    0 -0.39875947844E-01 -0.19400568100E-01  0.12099166844E+00  0.13049426558E+00  0.20574164812E-01 0.  0.
         14    1    1    2    0    0 -0.93642337789E-02  0.21987325579E-01 -0.93891981854E-03  0.23916791817E-01  0.00000000000E+00 0.  1.
     999901    1    3    3    0    0  0.49240181623E-01 -0.25867574793E-02 -0.12005274862E+00  0.88951894260E+00  0.88000000000E+00 0. -1.
        -11    1    4    4    0    0 -0.97764089514E-02 -0.11443351035E-01  0.21542446902E-01  0.26284341239E-01  0.51100000000E-03 0.  1.
         11    1    4    4    0    0 -0.30099538893E-01 -0.79572170651E-02  0.99449221539E-01  0.10420992434E+00  0.51100000000E-03 0. -1.
</event>
<event>
 7    1  0.1106905E+005  0.1043930E+01  0.7957747E-01            NaN
         13   -1    0    0    0    0  0.00000000000E+00  0.00000000000E+00  0.74505805969E-08  0.10566000000E+00  0.10566000000E+00 0.  1.
     999900   -1    0    0    0    0 -0.00000000000E+00 -0.00000000000E+00 -0.74505805969E-08  0.93827000000E+00  0.93827000000E+00 0.  1.
     999903    2    1    2    0    0 -0.12101418463E+00  0.71037074662E-01 -0.29600594748E-01  0.14480308209E+00  0.20025946048E-01 0.  0.
         14    1    1    2    0    0  0.62561872297E-02 -0.58021970780E-03 -0.52701838796E-02  0.82006933662E-02  0.00000000000E+00 0. -1.
     999901    1    1    2    0    0  0.11475799740E+00 -0.70456854954E-01  0.34870778627E-01  0.89092622454E+00  0.88000000000E+00 0. -1.
        -11    1    3    3    0    0 -0.69562703042E-01  0.29772683544E-01 -0.12832032277E-01  0.76748319286E-01  0.51100000000E-03 0. -1.
         11    1    3    3    0    0 -0.51451481589E-01  0.41264391118E-01 -0.16768562470E-01  0.68054762804E-01  0.51100000000E-03 0.  1.
</event>
<event>
 8    1  0.1106905E+005  0.1043930E+01  0.7957747E-01            NaN
         13   -1    0    0    0    0  0.00000000000E+00  0.00000000000E+00  0.74505805969E-08  0.10566000000E+00  0.10566000000E+00 0. -1.
     999900   -1    0    0    0    0 -0.00000000000E+00 -0.00000000000E+00 -0.74505805969E-08  0.93827000000E+00  0.93827000000E+00 0.  1.
     999902    2    1    2    0    0  0.12443133800E-01  0.33915676984E-02  0.17442668835E-01  0.10222371208E+01  0.10220069228E+01 0.  0.
     999903    2    3    3    0    0 -0.14642379666E-02 -0.11295960705E+00 -0.62905375606E-01  0.13084112629E+00  0.20007429406E-01 0.  0.
         14    1    1    2    0    0 -0.12443133800E-01 -0.33915676984E-02 -0.17442668835E-01  0.21692879161E-01  0.00000000000E+00 0.  1.
     999901    1    3    3    0    0  0.13907371766E-01  0.11635117475E+00  0.80348044441E-01  0.89139599455E+00  0.88000000000E+00 0.  1.
        -11    1    4    4    0    0 -0.65261596664E-02 -0.84210020234E-01 -0.38663800907E-01  0.92892781686E-01  0.51100000000E-03 0. -1.
         11    1    4    4    0    0  0.50619216998E-02 -0.28749586813E-01 -0.24241574700E-01  0.37948344603E-01  0.51100000000E-03 0.  1.
</event>
<event>
 8    1  0.1106905E+005  0.1043930E+01  0.7957747E-01            NaN
         13   -1    0    0    0    0  0.00000000000E+00  0.00000000000E+00  0.74505805969E-08  0.10566000000E+00  0.10566000000E+00 0.  1.
     999900   -1    0    0    0    0 -0.00000000000E+00 -0.00000000000E+00 -0.74505805969E-08  0.93827000000E+00  0.93827000000E+00 0.  1.
     999902    2    1    2    0    0 -0.14188087370E-01 -0.11794308682E-01  0.14783744095E-01  0.10202875249E+01  0.10200135621E+01 0.  0.
     999903    2    3    3    0    0 -0.18193913831E-01  0.80080519797E-01 -0.95664384982E-01  0.12862849813E+00  0.25489366940E-01 0.  0.
         14    1    1    2    0    0  0.14188087370E-01  0.11794308682E-01 -0.14783744095E-01  0.23642475124E-01  0.00000000000E+00 0. -1.
     999901    1    3    3    0    0  0.40058264604E-02 -0.91874828479E-01  0.11044812908E+00  0.89165902674E+00  0.88000000000E+00 0. -1.
        -11    1    4    4    0    0 -0.71680009286E-02  0.11578084953E-01 -0.30650326098E-01  0.33543045470E-01  0.51100000000E-03 0.  1.
         11    1    4    4    0    0 -0.11025912902E-01  0.68502434844E-01 -0.65014058884E-01  0.95085452665E-01  0.51100000000E-03 0. -1.
</event>
<event>
 8    1  0.1106905E+005  0.1043930E+01  0.7957747E-01            NaN
         13   -1    0    0    0    0  0.00000000000E+00  0.00000000000E+00  0.74505805969E-08  0.10566000000E+00  0.10566000000E+00 0.  1.
     999900   -1    0    0    0    0 -0.00000000000E+00 -0.00000000000E+00 -0.74505805969E-08  0.93827000000E+00  0.93827000000E+00 0.  1.
     999902    2    1    2    0    0 -0.19418539159E-01  0.76136351697E-02  0.12725525152E-01  0.10194967011E+01  0.10192038744E+01 0.  0.
     999903    2    3    3    0    0  0.30297568636E-01 -0.66031379923E-01 -0.10265543865E+00  0.12752806578E+00  0.21146694240E-01 0.  0.
         14    1    1    2    0    0  0.19418539159E-01 -0.76136351697E-02 -0.12725525152E-01  0.24433298876E-01  0.00000000000E+00 0.  1.
     999901    1    3    3    0    0 -0.49716107795E-01  0.73645015093E-01  0.11538096381E+00  0.89196863534E+00  0.88000000000E+00 0. -1.
        -11    1    4    4    0    0  0.23307010383E-01 -0.25806855754E-01 -0.44749343979E-01  0.56674292624E-01  0.51100000000E-03 0. -1.
         11    1    4    4    0    0  0.69905582535E-02 -0.40224524170E-01 -0.57906094676E-01  0.70853773160E-01  0.51100000000E-03 0.  1.
</event>
<event>
 8    1  0.1106905E+005  0.1043930E+01  0.7957747E-01            NaN
         13   -1    0    0    0    0  0.00000000000E+00  0.00000000000E+00  0.74505805969E-08  0.10566000000E+00  0.10566000000E+00 0.  1.
     999900   -1    0    0    0    0 -0.00000000000E+00 -0.00000000000E+00 -0.74505805969E-08  0.93827000000E+00  0.93827000000E+00 0.  1.
     999902    2    1    2    0    0  0.84507146088E-02 -0.11756585209E-01 -0.19170238068E-01  0.10199064719E+01  0.10196234999E+01 0.  0.
     999903    2    3    3    0    0  0.62807356235E-01  0.20561155832E-01 -0.11305465616E+00  0.13265601979E+00  0.21183464773E-01 0.  0.
         14    1    1    2    0    0 -0.84507146088E-02  0.11756585209E-01  0.19170238068E-01  0.24023528066E-01  0.00000000000E+00 0.  1.
     999901    1    3    3    0    0 -0.54356641627E-01 -0.32317741040E-01  0.93884418092E-01  0.88725045215E+00  0.88000000000E+00 0. -1.
        -11    1    4    4    0    0  0.50751203479E-01  0.17255146061E-01 -0.10465739876E+00  0.11758765648E+00  0.51100000000E-03 0.  1.
         11    1    4    4    0    0  0.12056152756E-01  0.33060097705E-02 -0.83972573971E-02  0.15068363304E-01  0.51100000000E-03 0. -1.
</event>
<event>
 8    1  0.1106905E+005  0.1043930E+01  0.7957747E-01            NaN
         13   -1    0    0    0    0  0.00000000000E+00  0.00000000000E+00  0.74505805969E-08  0.10566000000E+00  0.10566000000E+00 0.  1.
     999900   -1    0    0    0    0 -0.00000000000E+00 -0.00000000000E+00 -0.74505805969E-08  0.93827000000E+00  0.93827000000E+00 0.  1.
     999902    2    1    2    0    0  0.10795409376E-01  0.18996294936E-01  0.99651866934E-02  0.10199153164E+01  0.10196325551E+01 0.  0.
     999903    2    3    3    0    0 -0.10512102213E+00 -0.64802894470E-01 -0.25690989657E-01  0.12765398347E+00  0.19638434822E-01 0.  0.
         14    1    1    2    0    0 -0.10795409376E-01 -0.18996294936E-01 -0.99651866934E-02  0.24014683648E-01  0.00000000000E+00 0. -1.
     999901    1    3    3    0    0  0.11591643150E+00  0.83799189406E-01  0.35656176350E-01  0.89226133288E+00  0.88000000000E+00 0.  1.
        -11    1    4    4    0    0 -0.10547586732E-01 -0.13916621116E-01 -0.12621212991E-02  0.17515079227E-01  0.51100000000E-03 0.  1.
         11    1    4    4    0    0 -0.94573435396E-01 -0.50886273354E-01 -0.24428868358E-01  0.11013890425E+00  0.51100000000E-03 0. -1.
</event>
<event>
 8    1  0.1106905E+005  0.1043930E+01  0.7957747E-01            NaN
         13   -1    0    0    0    0  0.00000000000E+00  0.00000000000E+00  0.74505805969E-08  0.10566000000E+00  0.10566000000E+00 0.  1.
     999900   -1    0    0    0    0 -0.00000000000E+00 -0.00000000000E+00 -0.74505805969E-08  0.93827000000E+00  0.93827000000E+00 0. -1.
     999902    2    1    2    0    0  0.18303375901E-01 -0.13225683109E-01 -0.95205702234E-02  0.10194233984E+01  0.10191287906E+01 0.  0.
     999903    2    3    3    0    0 -0.61431607562E-01 -0.10677391149E+00  0.35297310306E-01  0.12975066027E+00  0.20367207529E-01 0.  0.
         14    1    1    2    0    0 -0.18303375901E-01  0.13225683109E-01  0.95205702234E-02  0.24506601569E-01  0.00000000000E+00 0. -1.
     999901    1    3    3    0    0  0.79734983464E-01  0.93548228378E-01 -0.44817880530E-01  0.88967273817E+00  0.88000000000E+00 0.  1.
        -11    1    4    4    0    0 -0.36913407516E-01 -0.70826303259E-01  0.13226918724E-01  0.80957874155E-01  0.51100000000E-03 0. -1.
         11    1    4    4    0    0 -0.24518200046E-01 -0.35947608228E-01  0.22070391582E-01  0.48792786110E-01  0.51100000000E-03 0.  1.
</event>
<event>
 8    1  0.1106905E+005  0.1043930E+01  0.7957747E-01            NaN
         13   -1    0    0    0    0  0.00000000000E+00  0.00000000000E+00  0.74505805969E-08  0.10566000000E+00  0.10566000000E+00 0.  1.
     999900   -1    0    0    0    0 -0.00000000000E+00 -0.00000000000E+00 -0.74505805969E-08  0.93827000000E+00  0.93827000000E+00 0. -1.
     999902    2    1    2    0    0  0.78610252928E-02  0.21997029442E-01  0.70799009774E-03  0.10205597995E+01  0.10202921827E+01 0.  0.
     999903    2    3    3    0    0 -0.44008942694E-01 -0.41732856733E-01  0.11285024281E+00  0.12964573132E+00  0.19860009553E-01 0.  0.
         14    1    1    2    0    0 -0.78610252928E-02 -0.21997029442E-01 -0.70799009774E-03  0.23370200532E-01  0.00000000000E+00 0. -1.
     999901    1    3    3    0    0  0.51869967987E-01  0.63729886176E-01 -0.11214225272E+00  0.89091406814E+00  0.88000000000E+00 0. -1.
        -11    1    4    4    0    0 -0.41232295261E-01 -0.30464424080E-01  0.99626710452E-01  0.11204430313E+00  0.51100000000E-03 0.  1.
         11    1    4    4    0    0 -0.27766474330E-02 -0.11268432654E-01  0.13223532362E-01  0.17601428197E-01  0.51100000000E-03 0. -1.
</event>
<event>
 8    1  0.1106905E+005  0.1043930E+01  0.7957747E-01            NaN
         13   -1    0    0    0    0  0.00000000000E+00  0.00000000000E+00  0.74505805969E-08  0.10566000000E+00  0.10566000000E+00 0.  1.
     999900   -1    0    0    0    0 -0.00000000000E+00 -0.00000000000E+00 -0.74505805969E-08  0.93827000000E+00  0.93827000000E+00 0. -1.
     999902    2    1    2    0    0 -0.15222237262E-01 -0.13175413298E-02 -0.18202215239E-01  0.10201650455E+01  0.10198882032E+01 0.  0.
     999903    2    3    3    0    0  0.72825685387E-01 -0.22034306397E-01  0.10051205614E+00  0.12759868984E+00  0.19739835623E-01 0.  0.
         14    1    1    2    0    0  0.15222237262E-01  0.13175413298E-02  0.18202215239E-01  0.23764954492E-01  0.00000000000E+00 0.  1.
     999901    1    3    3    0    0 -0.88047922649E-01  0.20716765067E-01 -0.11871427137E+00  0.89256635567E+00  0.88000000000E+00 0. -1.
        -11    1    4    4    0    0  0.56809040077E-01 -0.13787748471E-01  0.62784957810E-01  0.85788000854E-01  0.51100000000E-03 0.  1.
         11    1    4    4    0    0  0.16016645311E-01 -0.82465579254E-02  0.37727098326E-01  0.41810688989E-01  0.51100000000E-03 0. -1.
</event>
<event>
 8    1  0.1106905E+005  0.1043930E+01  0.7957747E-01            NaN
         13   -1    0    0    0    0  0.00000000000E+00  0.00000000000E+00  0.74505805969E-08  0.10566000000E+00  0.10566000000E+00 0. -1.
     999900   -1    0    0    0    0 -0.00000000000E+00 -0.00000000000E+00 -0.74505805969E-08  0.93827000000E+00  0.93827000000E+00 0. -1.
     999902    2    1    2    0    0  0.16572146957E-01 -0.15609624806E-01 -0.78140394531E-02  0.10198601921E+01  0.10195761157E+01 0.  0.
     999903    2    3    3    0    0  0.86942979805E-01 -0.98824612030E-01 -0.18240731671E-02  0.13311746280E+00  0.19787520784E-01 0.  0.
         14    1    1    2    0    0 -0.16572146957E-01  0.15609624806E-01  0.78140394531E-02  0.24069807933E-01  0.00000000000E+00 0. -1.
     999901    1    3    3    0    0 -0.70370832847E-01  0.83214987224E-01 -0.59899662860E-02  0.88674272927E+00  0.88000000000E+00 0.  1.
        -11    1    4    4    0    0  0.34171705464E-01 -0.46469303372E-01  0.76102062266E-02  0.58183141631E-01  0.51100000000E-03 0.  1.
         11    1    4    4    0    0  0.52771274341E-01 -0.52355308658E-01 -0.94342793936E-02  0.74934321168E-01  0.51100000000E-03 0. -1.
</event>
<event>
 8    1  0.1106905E+005  0.1043930E+01  0.7957747E-01            NaN
         13   -1    0    0    0    0  0.00000000000E+00  0.00000000000E+00  0.74505805969E-08  0.10566000000E+00  0.10566000000E+00 0.  1.
     999900   -1    0    0    0    0 -0.00000000000E+00 -0.00000000000E+00 -0.74505805969E-08  0.93827000000E+00  0.93827000000E+00 0. -1.
     999902    2    1    2    0    0 -0.92455935405E-02 -0.17532493331E-01 -0.12628189250E-01  0.10204280748E+01  0.10201573974E+01 0.  0.
     999903    2    3    3    0    0  0.12065396156E+00 -0.44443560431E-01  0.63581900293E-02  0.13028281560E+00  0.20014418736E-01 0.  0.
         14    1    1    2    0    0  0.92455935405E-02  0.17532493331E-01  0.12628189250E-01  0.23501925156E-01  0.00000000000E+00 0. -1.
     999901    1    3    3    0    0 -0.12989955510E+00  0.26911067100E-01 -0.18986379280E-01  0.89014525924E+00  0.88000000000E+00 0. -1.
        -11    1    4    4    0    0  0.63876570370E-01 -0.26673620039E-01 -0.61164327989E-02  0.69493669635E-01  0.51100000000E-03 0.  1.
         11    1    4    4    0    0  0.56777391191E-01 -0.17769940392E-01  0.12474622828E-01  0.60789145969E-01  0.51100000000E-03 0. -1.
</event>
<event>
 8    1  0.1106905E+005  0.1043930E+01  0.7957747E-01            NaN
         13   -1    0    0    0    0  0.00000000000E+00  0.00000000000E+00  0.74505805969E-08  0.10566000000E+00  0.10566000000E+00 0.  1.
     999900   -1    0    0    0    0 -0.00000000000E+00 -0.00000000000E+00 -0.74505805969E-08  0.93827000000E+00  0.93827000000E+00 0. -1.
     999902    2    1    2    0    0 -0.76195769144E-02 -0.54309411621E-02 -0.21546490912E-01  0.10204394839E+01  0.10201690723E+01 0.  0.
     999903    2    3    3    0    0 -0.27878139717E-01  0.63863969259E-01 -0.11150289926E+00  0.13291238611E+00  0.19416709134E-01 0.  0.
         14    1    1    2    0    0  0.76195769144E-02  0.54309411621E-02  0.21546490912E-01  0.23490516062E-01  0.00000000000E+00 0.  1.
     999901    1    3    3    0    0  0.20258562802E-01 -0.69294910421E-01  0.89956408351E-01  0.88752709783E+00  0.88000000000E+00 0.  1.
        -11    1    4    4    0    0 -0.21290082108E-03  0.22444144438E-01 -0.37491140715E-01  0.43699332940E-01  0.51100000000E-03 0.  1.
         11    1    4    4    0    0 -0.27665238895E-01  0.41419824821E-01 -0.74011758548E-01  0.89213053169E-01  0.51100000000E-03 0. -1.
</event>
<event>
 8    1  0.1106905E+005  0.1043930E+01  0.7957747E-01            NaN
         13   -1    0    0    0    0  0.00000000000E+00  0.00000000000E+00  0.74505805969E-08  0.10566000000E+00  0.10566000000E+00 0.  1.
     999900   -1    0    0    0    0 -0.00000000000E+00 -0.00000000000E+00 -0.74505805969E-08  0.93827000000E+00  0.93827000000E+00 0.  1.
     999902    2    1    2    0    0  0.29017244397E-02  0.23119948493E-01 -0.49764467771E-02  0.10201031864E+01  0.10198248839E+01 0.  0.
     999903    2    3    3    0    0  0.51755683127E-01  0.12136115938E+00 -0.13858664441E-03  0.13327656881E+00  0.18853191922E-01 0.  0.
         14    1    1    2    0    0 -0.29017244397E-02 -0.23119948493E-01  0.49764467771E-02  0.23826813584E-01  0.00000000000E+00 0.  1.
     999901    1    3    3    0    0 -0.48853958687E-01 -0.98241210892E-01 -0.48378601327E-02  0.88682661760E+00  0.88000000000E+00 0. -1.
        -11    1    4    4    0    0  0.15423304736E-01  0.18606416088E-01  0.20939818866E-02  0.24263613287E-01  0.51100000000E-03 0. -1.
         11    1    4    4    0    0  0.36332378390E-01  0.10275474330E+00 -0.22325685310E-02  0.10901295553E+00  0.51100000000E-03 0.  1.
</event>
<event>
 8    1  0.1106905E+005  0.1043930E+01  0.7957747E-01            NaN
         13   -1    0    0    0    0  0.00000000000E+00  0.00000000000E+00  0.74505805969E-08  0.10566000000E+00  0.10566000000E+00 0. -1.
     999900   -1    0    0    0    0 -0.00000000000E+00 -0.00000000000E+00 -0.74505805969E-08  0.93827000000E+00  0.93827000000E+00 0. -1.
     999902    2    1    2    0    0 -0.16278989030E-01  0.77484003317E-02 -0.13839965114E-01  0.10212014315E+01  0.10209484688E+01 0.  0.
     999903    2    3    3    0    0 -0.11275860063E+00 -0.48447248343E-01  0.44921371643E-01  0.13220246577E+00  0.19948043436E-01 0.  0.
         14    1    1    2    0    0  0.16278989030E-01 -0.77484003317E-02  0.13839965114E-01  0.22728568496E-01  0.00000000000E+00 0. -1.
     999901    1    3    3    0    0  0.96479611599E-01  0.56195648675E-01 -0.58761336757E-01  0.88899896574E+00  0.88000000000E+00 0. -1.
        -11    1    4    4    0    0 -0.85752572670E-01 -0.27408064293E-01  0.34529052646E-01  0.96422104859E-01  0.51100000000E-03 0.  1.
         11    1    4    4    0    0 -0.27006027958E-01 -0.21039184050E-01  0.10392318997E-01  0.35780360908E-01  0.51100000000E-03 0. -1.
</event>
<event>
 8    1  0.1106905E+005  0.1043930E+01  0.7957747E-01            NaN
         13   -1    0    0    0    0  0.00000000000E+00  0.00000000000E+00  0.74505805969E-08  0.10566000000E+00  0.10566000000E+00 0.  1.
     999900   -1    0    0    0    0 -0.00000000000E+00 -0.00000000000E+00 -0.74505805969E-08  0.93827000000E+00  0.93827000000E+00 0.  1.
     999902    2    1    2    0    0 -0.40640509314E-03 -0.20964626665E-01 -0.15540335110E-01  0.10178305220E+01  0.10174958421E+01 0.  0.
     999903    2    3    3    0    0 -0.11901077750E+00 -0.35386446107E-01 -0.31573113378E-01  0.12961206013E+00  0.19663644513E-01 0.  0.
         14    1    1    2    0    0  0.40640509314E-03  0.20964626665E-01  0.15540335110E-01  0.26099477995E-01  0.00000000000E+00 0.  1.
     999901    1    3    3    0    0  0.11860437240E+00  0.14421819442E-01  0.16032778268E-01  0.88821846187E+00  0.88000000000E+00 0.  1.
        -11    1    4    4    0    0 -0.40855598668E-01 -0.11001201431E-01 -0.13383909284E-02  0.42335077497E-01  0.51100000000E-03 0.  1.
         11    1    4    4    0    0 -0.78155178828E-01 -0.24385244676E-01 -0.30234722450E-01  0.87276982637E-01  0.51100000000E-03 0. -1.
</event>
<event>
 8    1  0.1106905E+005  0.1043930E+01  0.7957747E-01            NaN
         13   -1    0    0    0    0  0.00000000000E+00  0.00000000000E+00  0.74505805969E-08  0.10566000000E+00  0.10566000000E+00 0. -1.
     999900   -1    0    0    0    0 -0.00000000000E+00 -0.00000000000E+00 -0.74505805969E-08  0.93827000000E+00  0.93827000000E+00 0.  1.
     999902    2    1    2    0    0 -0.42156604893E-02  0.12317355221E-02 -0.23451788955E-01  0.10200705077E+01  0.10197914323E+01 0.  0.
     999903    2    3    3    0    0 -0.71138064623E-01 -0.88413627695E-01  0.58508996887E-01  0.12920998569E+00  0.19857590139E-01 0.  0.
         14    1    1    2    0    0  0.42156604893E-02 -0.12317355221E-02  0.23451788955E-01  0.23859492261E-01  0.00000000000E+00 0. -1.
     999901    1    3    3    0    0  0.66922404134E-01  0.89645363217E-01 -0.81960785842E-01  0.89086052204E+00  0.88000000000E+00 0. -1.
        -11    1    4    4    0    0 -0.54355538326E-01 -0.67031457476E-01  0.53575955991E-01  0.10157945176E+00  0.51100000000E-03 0.  1.
         11    1    4    4    0    0 -0.16782526297E-01 -0.21382170219E-01  0.49330408960E-02  0.27630533937E-01  0.51100000000E-03 0. -1.
</event>
<event>
 8    1  0.1106905E+005  0.1043930E+01  0.7957747E-01            NaN
         13   -1    0    0    0    0  0.00000000000E+00  0.00000000000E+00  0.74505805969E-08  0.10566000000E+00  0.10566000000E+00 0.  1.
     999900   -1    0    0    0    0 -0.00000000000E+00 -0.00000000000E+00 -0.74505805969E-08  0.93827000000E+00  0.93827000000E+00 0. -1.
     999902    2    1    2    0    0 -0.68739963289E-02  0.15776242503E-01  0.16325779723E-01  0.10202092762E+01  0.10199334756E+01 0.  0.
     999903    2    3    3    0    0 -0.18170321198E-01  0.43048929612E-01  0.12329465090E+00  0.13324042343E+00  0.19185113527E-01 0.  0.
         14    1    1    2    0    0  0.68739963289E-02 -0.15776242503E-01 -0.16325779723E-01  0.23720723780E-01  0.00000000000E+00 0. -1.
     999901    1    3    3    0    0  0.11296324869E-01 -0.27272687108E-01 -0.10696887118E+00  0.88696885279E+00  0.88000000000E+00 0. -1.
        -11    1    4    4    0    0 -0.10291672578E-01  0.36170094465E-01  0.11039526476E+00  0.11662576843E+00  0.51100000000E-03 0. -1.
         11    1    4    4    0    0 -0.78786486203E-02  0.68788351469E-02  0.12899386142E-01  0.16614655004E-01  0.51100000000E-03 0.  1.
</event>
<event>
 8    1  0.1106905E+005  0.1043930E+01  0.7957747E-01            NaN
         13   -1    0    0    0    0  0.00000000000E+00  0.00000000000E+00  0.74505805969E-08  0.10566000000E+00  0.10566000000E+00 0. -1.
     999900   -1    0    0    0    0 -0.00000000000E+00 -0.00000000000E+00 -0.74505805969E-08  0.93827000000E+00  0.93827000000E+00 0.  1.
     999902    2    1    2    0    0 -0.10753657209E-01 -0.34008951600E-02  0.20773415312E-01  0.10202922756E+01  0.10200184242E+01 0.  0.
     999903    2    3    3    0    0 -0.55761419972E-01 -0.22202951938E-01  0.11773895637E+00  0.13362349178E+00  0.19760280220E-01 0.  0.
         14    1    1    2    0    0  0.10753657209E-01  0.34008951600E-02 -0.20773415312E-01  0.23637724404E-01  0.00000000000E+00 0.  1.
     999901    1    3    3    0    0  0.45007762762E-01  0.18802056778E-01 -0.96965541062E-01  0.88666878382E+00  0.88000000000E+00 0.  1.
        -11    1    4    4    0    0 -0.16987004524E-01 -0.48822992375E-02  0.55706039963E-01  0.58445009863E-01  0.51100000000E-03 0. -1.
         11    1    4    4    0    0 -0.38774415448E-01 -0.17320652700E-01  0.62032916411E-01  0.75178481913E-01  0.51100000000E-03 0.  1.
</event>
<event>
 8    1  0.1106905E+005  0.1043930E+01  0.7957747E-01            NaN
         13   -1    0    0    0    0  0.00000000000E+00  0.00000000000E+00  0.74505805969E-08  0.10566000000E+00  0.10566000000E+00 0. -1.
     999900   -1    0    0    0    0 -0.00000000000E+00 -0.00000000000E+00 -0.74505805969E-08  0.93827000000E+00  0.93827000000E+00 0.  1.
     999902    2    1    2    0    0  0.16380351711E-01  0.10637903962E-01  0.15487028417E-01  0.10190035287E+01  0.10186986122E+01 0.  0.
     999903    2    3    3    0    0  0.12200179006E+00 -0.39185438190E-01 -0.87116846613E-02  0.13095857973E+00  0.25579695253E-01 0.  0.
         14    1    1    2    0    0 -0.16380351711E-01 -0.10637903962E-01 -0.15487028417E-01  0.24926471312E-01  0.00000000000E+00 0. -1.
     999901    1    3    3    0    0 -0.10562143835E+00  0.49823342151E-01  0.24198713078E-01  0.88804494896E+00  0.88000000000E+00 0. -1.
        -11    1    4    4    0    0  0.66941510028E-01 -0.17240614023E-01  0.74284982549E-02  0.69525881829E-01  0.51100000000E-03 0. -1.
         11    1    4    4    0    0  0.55060280036E-01 -0.21944824167E-01 -0.16140182916E-01  0.61432697897E-01  0.51100000000E-03 0.  1.
</event>
<event>
 8    1  0.1106905E+005  0.1043930E+01  0.7957747E-01            NaN
         13   -1    0    0    0    0  0.00000000000E+00  0.00000000000E+00  0.74505805969E-08  0.10566000000E+00  0.10566000000E+00 0. -1.
     999900   -1    0    0    0    0 -0.00000000000E+00 -0.00000000000E+00 -0.74505805969E-08  0.93827000000E+00  0.93827000000E+00 0.  1.
     999902    2    1    2    0    0  0.82048261791E-02 -0.20543804834E-01  0.95997948651E-02  0.10198152089E+01  0.10195300570E+01 0.  0.
     999903    2    3    3    0    0 -0.12652441762E-01 -0.99228171089E-03  0.12905933352E+00  0.13128391001E+00  0.20447116018E-01 0.  0.
         14    1    1    2    0    0 -0.82048261791E-02  0.20543804834E-01 -0.95997948651E-02  0.24114791128E-01  0.00000000000E+00 0. -1.
     999901    1    3    3    0    0  0.20857267941E-01 -0.19551523123E-01 -0.11945953865E+00  0.88853129886E+00  0.88000000000E+00 0.  1.
        -11    1    4    4    0    0 -0.11910494068E-01  0.50680681666E-02  0.40686035646E-01  0.42698475400E-01  0.51100000000E-03 0.  1.
         11    1    4    4    0    0 -0.74194769396E-03 -0.60603498775E-02  0.88373297873E-01  0.88585434610E-01  0.51100000000E-03 0. -1.
</event>
<event>
 8    1  0.1106905E+005  0.1043930E+01  0.7957747E-01            NaN
         13   -1    0    0    0    0  0.00000000000E+00  0.00000000000E+00  0.74505805969E-08  0.10566000000E+00  0.10566000000E+00 0. -1.
     999900   -1    0    0    0    0 -0.00000000000E+00 -0.00000000000E+00 -0.74505805969E-08  0.93827000000E+00  0.93827000000E+00 0.  1.
     999902    2    1    2    0    0  0.15590124354E-01  0.11978991514E-01  0.16365021202E-01  0.10183494970E+01  0.10180281607E+01 0.  0.
     999903    2    3    3    0    0  0.39935585429E-01  0.11248441530E+00  0.51646220106E-01  0.13159203033E+00  0.20038356417E-01 0.  0.
         14    1    1    2    0    0 -0.15590124354E-01 -0.11978991514E-01 -0.16365021202E-01  0.25580503006E-01  0.00000000000E+00 0.  1.
     999901    1    3    3    0    0 -0.24345461075E-01 -0.10050542378E+00 -0.35281198904E-01  0.88675746666E+00  0.88000000000E+00 0.  1.
        -11    1    4    4    0    0  0.12743954848E-01  0.15152447947E-01  0.59448381136E-02  0.20678667393E-01  0.51100000000E-03 0. -1.
         11    1    4    4    0    0  0.27191630581E-01  0.97331967348E-01  0.45701381993E-01  0.11091336294E+00  0.51100000000E-03 0.  1.
</event>
<event>
 8    1  0.1106905E+005  0.1043930E+01  0.7957747E-01            NaN
         13   -1    0    0    0    0  0.00000000000E+00  0.00000000000E+00  0.74505805969E-08  0.10566000000E+00  0.10566000000E+00 0.  1.
     999900   -1    0    0    0    0 -0.00000000000E+00 -0.00000000000E+00 -0.74505805969E-08  0.93827000000E+00  0.93827000000E+00 0. -1.
     999902    2    1    2    0    0  0.51092106658E-02  0.21931883114E-01  0.62517778408E-02  0.10205591580E+01  0.10202915263E+01 0.  0.
     999903    2    3    3    0    0  0.10276777404E+00  0.78967711606E-01  0.23544612129E-01  0.13315320643E+00  0.19450263845E-01 0.  0.
         14    1    1    2    0    0 -0.51092106658E-02 -0.21931883114E-01 -0.62517778408E-02  0.23370842020E-01  0.00000000000E+00 0. -1.
     999901    1    3    3    0    0 -0.97658563376E-01 -0.57035828492E-01 -0.17292834289E-01  0.88740595155E+00  0.88000000000E+00 0. -1.
        -11    1    4    4    0    0  0.54021469305E-01  0.46672895433E-01  0.21816614571E-01  0.74651886153E-01  0.51100000000E-03 0.  1.
         11    1    4    4    0    0  0.48746304737E-01  0.32294816174E-01  0.17279975586E-02  0.58501320274E-01  0.51100000000E-03 0. -1.
</event>
<event>
 8    1  0.1106905E+005  0.1043930E+01  0.7957747E-01            NaN
         13   -1    0    0    0    0  0.00000000000E+00  0.00000000000E+00  0.74505805969E-08  0.10566000000E+00  0.10566000000E+00 0.  1.
     999900   -1    0    0    0    0 -0.00000000000E+00 -0.00000000000E+00 -0.74505805969E-08  0.93827000000E+00  0.93827000000E+00 0. -1.
     999902    2    1    2    0    0 -0.15518493020E-01  0.69017455475E-02  0.90713336781E-02  0.10246752133E+01  0.10244942879E+01 0.  0.
     999903    2    3    3    0    0 -0.87611217755E-01 -0.84918970547E-01  0.56084009357E-01  0.13572156063E+00  0.19696925653E-01 0.  0.
         14    1    1    2    0    0  0.15518493020E-01 -0.69017455475E-02 -0.90713336781E-02  0.19254786727E-01  0.00000000000E+00 0. -1.
     999901    1    3    3    0    0  0.72092724735E-01  0.91820716095E-01 -0.47012675679E-01  0.88895365264E+00  0.88000000000E+00 0. -1.
        -11    1    4    4    0    0 -0.26479926727E-01 -0.28218325793E-01  0.27892376390E-01  0.47704362607E-01  0.51100000000E-03 0.  1.
         11    1    4    4    0    0 -0.61131291029E-01 -0.56700644754E-01  0.28191632967E-01  0.88017198028E-01  0.51100000000E-03 0. -1.
</event>
<event>
 8    1  0.1106905E+005  0.1043930E+01  0.7957747E-01            NaN
         13   -1    0    0    0    0  0.00000000000E+00  0.00000000000E+00  0.74505805969E-08  0.10566000000E+00  0.10566000000E+00 0.  1.
     999900   -1    0    0    0    0 -0.00000000000E+00 -0.00000000000E+00 -0.74505805969E-08  0.93827000000E+00  0.93827000000E+00 0.  1.
     999902    2    1    2    0    0  0.19858969435E-01  0.13147984738E-01  0.20775152939E-02  0.10200225903E+01  0.10197423794E+01 0.  0.
     999903    2    3    3    0    0 -0.10857230178E+00  0.66462687267E-01  0.82734901010E-02  0.12908182960E+00  0.19708743822E-01 0.  0.
         14    1    1    2    0    0 -0.19858969435E-01 -0.13147984738E-01 -0.20775152939E-02  0.23907409720E-01  0.00000000000E+00 0.  1.
     999901    1    3    3    0    0  0.12843127121E+00 -0.53314702529E-01 -0.61959748071E-02  0.89094076068E+00  0.88000000000E+00 0. -1.
        -11    1    4    4    0    0 -0.82969958974E-01  0.41119992871E-01  0.90719648548E-02  0.93045309249E-01  0.51100000000E-03 0. -1.
         11    1    4    4    0    0 -0.25602342805E-01  0.25342694396E-01 -0.79847475376E-03  0.36036520355E-01  0.51100000000E-03 0.  1.
</event>
<event>
 8    1  0.1106905E+005  0.1043930E+01  0.7957747E-01            NaN
         13   -1    0    0    0    0  0.00000000000E+00  0.00000000000E+00  0.74505805969E-08  0.10566000000E+00  0.10566000000E+00 0.  1.
     999900   -1    0    0    0    0 -0.00000000000E+00 -0.00000000000E+00 -0.74505805969E-08  0.93827000000E+00  0.93827000000E+00 0. -1.
     999902    2    1    2    0    0  0.16477417712E-01 -0.45471205759E-03  0.24816842993E-01  0.10141375890E+01  0.10136998874E+01 0.  0.
     999903    2    3    3    0    0 -0.12204249836E-01  0.67405523389E-01 -0.99138444980E-01  0.12240188654E+00  0.21478879361E-01 0.  0.
         14    1    1    2    0    0 -0.16477417712E-01  0.45471205759E-03 -0.24816842993E-01  0.29792411008E-01  0.00000000000E+00 0. -1.
     999901    1    3    3    0    0  0.28681667548E-01 -0.67860235446E-01  0.12395528797E+00  0.89173570245E+00  0.88000000000E+00 0.  1.
        -11    1    4    4    0    0 -0.19769627821E-02  0.52888985435E-01 -0.82768724923E-01  0.98244980068E-01  0.51100000000E-03 0.  1.
         11    1    4    4    0    0 -0.10227287054E-01  0.14516537954E-01 -0.16369720057E-01  0.24156906474E-01  0.51100000000E-03 0. -1.
</event>
<event>
 8    1  0.1106905E+005  0.1043930E+01  0.7957747E-01            NaN
         13   -1    0    0    0    0  0.00000000000E+00  0.00000000000E+00  0.74505805969E-08  0.10566000000E+00  0.10566000000E+00 0.  1.
     999900   -1    0    0    0    0 -0.00000000000E+00 -0.00000000000E+00 -0.74505805969E-08  0.93827000000E+00  0.93827000000E+00 0.  1.
     999902    2    1    2    0    0  0.10658798533E-01  0.16249203348E-01  0.13793288566E-01  0.10200993180E+01  0.10198209241E+01 0.  0.
     999903    2    3    3    0    0 -0.28064744901E-01  0.22800953163E-01  0.12541873686E+00  0.13217889422E+00  0.20829957971E-01 0.  0.
         14    1    1    2    0    0 -0.10658798533E-01 -0.16249203348E-01 -0.13793288566E-01  0.23830682010E-01  0.00000000000E+00 0.  1.
     999901    1    3    3    0    0  0.38723543434E-01 -0.65517498144E-02 -0.11162544830E+00  0.88792042377E+00  0.88000000000E+00 0.  1.
        -11    1    4    4    0    0 -0.17571657406E-02  0.10058114871E-01  0.54837244597E-01  0.55782056453E-01  0.51100000000E-03 0.  1.
         11    1    4    4    0    0 -0.26307579160E-01  0.12742838291E-01  0.70581492267E-01  0.76396837766E-01  0.51100000000E-03 0. -1.
</event>
<event>
 8    1  0.1106905E+005  0.1043930E+01  0.7957747E-01            NaN
         13   -1    0    0    0    0  0.00000000000E+00  0.00000000000E+00  0.74505805969E-08  0.10566000000E+00  0.10566000000E+00 0.  1.
     999900   -1    0    0    0    0 -0.00000000000E+00 -0.00000000000E+00 -0.74505805969E-08  0.93827000000E+00  0.93827000000E+00 0.  1.
     999902    2    1    2    0    0  0.14060818075E-01 -0.69188088388E-02 -0.16662885839E-01  0.10210558162E+01  0.10207995648E+01 0.  0.
     999903    2    3    3    0    0  0.83868565981E-01 -0.85477508081E-01  0.52122718999E-01  0.13213734392E+00  0.20078821579E-01 0.  0.
         14    1    1    2    0    0 -0.14060818075E-01  0.69188088388E-02  0.16662885839E-01  0.22874183815E-01  0.00000000000E+00 0.  1.
     999901    1    3    3    0    0 -0.69807747906E-01  0.78558699242E-01 -0.68785604838E-01  0.88891847226E+00  0.88000000000E+00 0. -1.
        -11    1    4    4    0    0  0.76675769138E-01 -0.68030612319E-01  0.42808477142E-01  0.11108629358E+00  0.51100000000E-03 0. -1.
         11    1    4    4    0    0  0.71927968429E-02 -0.17446895763E-01  0.93142418569E-02  0.21051050343E-01  0.51100000000E-03 0.  1.
</event>
<event>
 8    1  0.1106905E+005  0.1043930E+01  0.7957747E-01            NaN
         13   -1    0    0    0    0  0.00000000000E+00  0.00000000000E+00  0.74505805969E-08  0.10566000000E+00  0.10566000000E+00 0.  1.
     999900   -1    0    0    0    0 -0.00000000000E+00 -0.00000000000E+00 -0.74505805969E-08  0.93827000000E+00  0.93827000000E+00 0.  1.
     999902    2    1    2    0    0  0.16318981297E-01 -0.11377027453E-01 -0.13542198390E-01  0.10198647337E+01  0.10195807658E+01 0.  0.
     999903    2    3    3    0    0 -0.63855317968E-01  0.10746844750E+00  0.17305319813E-01  0.12773036348E+00  0.19713011437E-01 0.  0.
         14    1    1    2    0    0 -0.16318981297E-01  0.11377027453E-01  0.13542198390E-01  0.24065266287E-01  0.00000000000E+00 0.  1.
     999901    1    3    3    0    0  0.80174299265E-01 -0.11884547495E+00 -0.30847518202E-01  0.89213437024E+00  0.88000000000E+00 0.  1.
        -11    1    4    4    0    0 -0.38768811348E-01  0.52105729087E-01  0.16772126917E-02  0.64970007699E-01  0.51100000000E-03 0. -1.
         11    1    4    4    0    0 -0.25086506620E-01  0.55362718409E-01  0.15628107121E-01  0.62760355777E-01  0.51100000000E-03 0.  1.
</event>
<event>
 8    1  0.1106905E+005  0.1043930E+01  0.7957747E-01            NaN
         13   -1    0    0    0    0  0.00000000000E+00  0.00000000000E+00  0.74505805969E-08  0.10566000000E+00  0.10566000000E+00 0.  1.
     999900   -1    0    0    0    0 -0.00000000000E+00 -0.00000000000E+00 -0.74505805969E-08  0.93827000000E+00  0.93827000000E+00 0.  1.
     999902    2    1    2    0    0 -0.22685700356E-01 -0.29528497736E-02  0.14046898861E-01  0.10170845965E+01  0.10167302497E+01 0.  0.
     999903    2    3    3    0    0  0.89046625979E-01 -0.41327051989E-01 -0.74114731191E-01  0.12482389178E+00  0.21231668681E-01 0.  0.
         14    1    1    2    0    0  0.22685700356E-01  0.29528497736E-02 -0.14046898861E-01  0.26845403518E-01  0.00000000000E+00 0. -1.
     999901    1    3    3    0    0 -0.11173232634E+00  0.38374202216E-01  0.88161630052E-01  0.89226070470E+00  0.88000000000E+00 0. -1.
        -11    1    4    4    0    0  0.32586800171E-01 -0.26213374759E-01 -0.34454626958E-01  0.54188771913E-01  0.51100000000E-03 0.  1.
         11    1    4    4    0    0  0.56459825808E-01 -0.15113677230E-01 -0.39660104233E-01  0.70635119866E-01  0.51100000000E-03 0. -1.
</event>
<event>
 8    1  0.1106905E+005  0.1043930E+01  0.7957747E-01            NaN
         13   -1    0    0    0    0  0.00000000000E+00  0.00000000000E+00  0.74505805969E-08  0.10566000000E+00  0.10566000000E+00 0. -1.
     999900   -1    0    0    0    0 -0.00000000000E+00 -0.00000000000E+00 -0.74505805969E-08  0.93827000000E+00  0.93827000000E+00 0.  1.
     999902    2    1    2    0    0 -0.57557605933E-02 -0.16815287386E-01  0.15770528719E-01  0.10201688501E+01  0.10198920974E+01 0.  0.
     999903    2    3    3    0    0 -0.70888627816E-01 -0.18583943578E-01 -0.10486881529E+00  0.12955149685E+00  0.20385323218E-01 0.  0.
         14    1    1    2    0    0  0.57557605933E-02  0.16815287386E-01 -0.15770528719E-01  0.23761149929E-01  0.00000000000E+00 0.  1.
     999901    1    3    3    0    0  0.65132867223E-01  0.17686561924E-02  0.12063934401E+00  0.89061735322E+00  0.88000000000E+00 0. -1.
        -11    1    4    4    0    0 -0.22033379895E-01 -0.12364289901E-01 -0.23917407864E-01  0.34794381936E-01  0.51100000000E-03 0. -1.
         11    1    4    4    0    0 -0.48855247921E-01 -0.62196536777E-02 -0.80951407427E-01  0.94757114913E-01  0.51100000000E-03 0.  1.
</event>
<event>
 8    1  0.1106905E+005  0.1043930E+01  0.7957747E-01            NaN
         13   -1    0    0    0    0  0.00000000000E+00  0.00000000000E+00  0.74505805969E-08  0.10566000000E+00  0.10566000000E+00 0. -1.
     999900   -1    0    0    0    0 -0.00000000000E+00 -0.00000000000E+00 -0.74505805969E-08  0.93827000000E+00  0.93827000000E+00 0. -1.
     999902    2    1    2    0    0 -0.30248639022E-02  0.21660275314E-02  0.25295838913E-01  0.10183620329E+01  0.10180410154E+01 0.  0.
     999903    2    3    3    0    0 -0.72402817079E-01  0.98730871175E-01  0.39398672556E-01  0.13025339124E+00  0.20584889774E-01 0.  0.
         14    1    1    2    0    0  0.30248639022E-02 -0.21660275314E-02 -0.25295838913E-01  0.25567967131E-01  0.00000000000E+00 0.  1.
     999901    1    3    3    0    0  0.69377953177E-01 -0.96564843644E-01 -0.14102833643E-01  0.88810864163E+00  0.88000000000E+00 0. -1.
        -11    1    4    4    0    0 -0.40334318767E-01  0.51250574784E-01  0.31448267366E-01  0.72406721562E-01  0.51100000000E-03 0.  1.
         11    1    4    4    0    0 -0.32068498312E-01  0.47480296391E-01  0.79504051895E-02  0.57846669680E-01  0.51100000000E-03 0. -1.
</event>
<event>
 8    1  0.1106905E+005  0.1043930E+01  0.7957747E-01            NaN
         13   -1    0    0    0    0  0.00000000000E+00  0.00000000000E+00  0.74505805969E-08  0.10566000000E+00  0.10566000000E+00 0. -1.
     999900   -1    0    0    0    0 -0.00000000000E+00 -0.00000000000E+00 -0.74505805969E-08  0.93827000000E+00  0.93827000000E+00 0.  1.
     999902    2    1    2    0    0  0.68158688903E-02  0.15186360566E-01  0.14772736381E-01  0.10216743186E+01  0.10214318861E+01 0.  0.
     999903    2    3    3    0    0  0.11535372528E+00 -0.48405706748E-01  0.38080807759E-01  0.13242312599E+00  0.20884012925E-01 0.  0.
         14    1    1    2    0    0 -0.68158688903E-02 -0.15186360566E-01 -0.14772736381E-01  0.22255681435E-01  0.00000000000E+00 0.  1.
     999901    1    3    3    0    0 -0.10853785639E+00  0.63592067314E-01 -0.23308071377E-01  0.88925119257E+00  0.88000000000E+00 0. -1.
        -11    1    4    4    0    0  0.80115607004E-01 -0.24956755974E-01  0.31256031884E-01  0.89546361202E-01  0.51100000000E-03 0. -1.
         11    1    4    4    0    0  0.35238118280E-01 -0.23448950774E-01  0.68247758753E-02  0.42876764793E-01  0.51100000000E-03 0.  1.
</event>
<event>
 8    1  0.1106905E+005  0.1043930E+01  0.7957747E-01            NaN
         13   -1    0    0    0    0  0.00000000000E+00  0.00000000000E+00  0.74505805969E-08  0.10566000000E+00  0.10566000000E+00 0.  1.
     999900   -1    0    0    0    0 -0.00000000000E+00 -0.00000000000E+00 -0.74505805969E-08  0.93827000000E+00  0.93827000000E+00 0. -1.
     999902    2    1    2    0    0  0.75274889426E-02 -0.19534235715E-01  0.94112490941E-02  0.10209774170E+01  0.10207193860E+01 0.  0.
     999903    2    3    3    0    0  0.58525699372E-01  0.10931551907E+00 -0.30135428013E-01  0.12925603879E+00  0.20587358868E-01 0.  0.
         14    1    1    2    0    0 -0.75274889426E-02  0.19534235715E-01 -0.94112490941E-02  0.22952582954E-01  0.00000000000E+00 0. -1.
     999901    1    3    3    0    0 -0.50998210429E-01 -0.12884975478E+00  0.39546677107E-01  0.89172137826E+00  0.88000000000E+00 0.  1.
        -11    1    4    4    0    0  0.25790111423E-01  0.43563014190E-01 -0.22519069897E-01  0.55409707475E-01  0.51100000000E-03 0.  1.
         11    1    4    4    0    0  0.32735587949E-01  0.65752504879E-01 -0.76163581166E-02  0.73846331311E-01  0.51100000000E-03 0. -1.
</event>
<event>
 8    1  0.1106905E+005  0.1043930E+01  0.7957747E-01            NaN
         13   -1    0    0    0    0  0.00000000000E+00  0.00000000000E+00  0.74505805969E-08  0.10566000000E+00  0.10566000000E+00 0.  1.
     999900   -1    0    0    0    0 -0.00000000000E+00 -0.00000000000E+00 -0.74505805969E-08  0.93827000000E+00  0.93827000000E+00 0. -1.
     999902    2    1    2    0    0  0.60136334828E-02 -0.51817551980E-03 -0.88269556032E-02  0.10332366638E+01  0.10331813278E+01 0.  0.
     999903    2    3    3    0    0  0.23971706830E-01  0.73982023869E-01  0.11599786869E+00  0.14113016296E+00  0.20352758385E-01 0.  0.
         14    1    1    2    0    0 -0.60136334828E-02  0.51817551980E-03  0.88269556032E-02  0.10693336185E-01  0.00000000000E+00 0.  1.
     999901    1    3    3    0    0 -0.17958073347E-01 -0.74500199389E-01 -0.12482482429E+00  0.89210650085E+00  0.88000000000E+00 0. -1.
        -11    1    4    4    0    0  0.83562875736E-02  0.33725322686E-01  0.69316927915E-01  0.77539167837E-01  0.51100000000E-03 0. -1.
         11    1    4    4    0    0  0.15615419257E-01  0.40256701183E-01  0.46680940770E-01  0.63590995124E-01  0.51100000000E-03 0.  1.
</event>
<event>
 8    1  0.1106905E+005  0.1043930E+01  0.7957747E-01            NaN
         13   -1    0    0    0    0  0.00000000000E+00  0.00000000000E+00  0.74505805969E-08  0.10566000000E+00  0.10566000000E+00 0.  1.
     999900   -1    0    0    0    0 -0.00000000000E+00 -0.00000000000E+00 -0.74505805969E-08  0.93827000000E+00  0.93827000000E+00 0. -1.
     999902    2    1    2    0    0  0.66000681944E-02  0.12933186130E-01 -0.15591854128E-01  0.10226242703E+01  0.10224023005E+01 0.  0.
     999903    2    3    3    0    0 -0.36185576524E-01 -0.10939629259E+00 -0.61238585996E-01  0.13196230473E+00  0.19670807644E-01 0.  0.
         14    1    1    2    0    0 -0.66000681944E-02 -0.12933186130E-01  0.15591854128E-01  0.21305729717E-01  0.00000000000E+00 0.  1.
     999901    1    3    3    0    0  0.42785644718E-01  0.12232947872E+00  0.45646731868E-01  0.89066196556E+00  0.88000000000E+00 0. -1.
        -11    1    4    4    0    0 -0.11821044199E-01 -0.26530799443E-01 -0.24877477455E-01  0.38246181647E-01  0.51100000000E-03 0. -1.
         11    1    4    4    0    0 -0.24364532325E-01 -0.82865493147E-01 -0.36361108541E-01  0.93716123080E-01  0.51100000000E-03 0.  1.
</event>
<event>
 8    1  0.1106905E+005  0.1043930E+01  0.7957747E-01            NaN
         13   -1    0    0    0    0  0.00000000000E+00  0.00000000000E+00  0.74505805969E-08  0.10566000000E+00  0.10566000000E+00 0. -1.
     999900   -1    0    0    0    0 -0.00000000000E+00 -0.00000000000E+00 -0.74505805969E-08  0.93827000000E+00  0.93827000000E+00 0.  1.
     999902    2    1    2    0    0 -0.19619258065E-01  0.54197396533E-02 -0.12325372232E-01  0.10201349655E+01  0.10198574137E+01 0.  0.
     999903    2    3    3    0    0  0.12287049441E+00 -0.26160255301E-01  0.12092331835E-01  0.12778029954E+00  0.20001577632E-01 0.  0.
         14    1    1    2    0    0  0.19619258065E-01 -0.54197396533E-02  0.12325372232E-01  0.23795034473E-01  0.00000000000E+00 0.  1.
     999901    1    3    3    0    0 -0.14248975247E+00  0.31579994955E-01 -0.24417704067E-01  0.89235466599E+00  0.88000000000E+00 0. -1.
        -11    1    4    4    0    0  0.19997271201E-01 -0.64494575317E-03  0.84538962174E-02  0.21726396221E-01  0.51100000000E-03 0.  1.
         11    1    4    4    0    0  0.10287322320E+00 -0.25515309548E-01  0.36384356176E-02  0.10605390332E+00  0.51100000000E-03 0. -1.
</event>
<event>
 8    1  0.1106905E+005  0.1043930E+01  0.7957747E-01            NaN
         13   -1    0    0    0    0  0.00000000000E+00  0.00000000000E+00  0.74505805969E-08  0.10566000000E+00  0.10566000000E+00 0. -1.
     999900   -1    0    0    0    0 -0.00000000000E+00 -0.00000000000E+00 -0.74505805969E-08  0.93827000000E+00  0.93827000000E+00 0.  1.
     999902    2    1    2    0    0  0.76341224772E-02 -0.17303580938E-01  0.27347131509E-01  0.10106800475E+01  0.10101329611E+01 0.  0.
     999903    2    3    3    0    0  0.93834874674E-01  0.50390010575E-01 -0.52233466235E-01  0.12031716443E+00  0.20093486294E-01 0.  0.
         14    1    1    2    0    0 -0.76341224772E-02  0.17303580938E-01 -0.27347131509E-01  0.33249952497E-01  0.00000000000E+00 0.  1.
     999901    1    3    3    0    0 -0.86200752197E-01 -0.67693591513E-01  0.79580597744E-01  0.89036288307E+00  0.88000000000E+00 0. -1.
        -11    1    4    4    0    0  0.53389112847E-03  0.35585691448E-02 -0.11947615363E-03  0.36364611433E-02  0.51100000000E-03 0.  1.
         11    1    4    4    0    0  0.93300983546E-01  0.46831441431E-01 -0.52113990081E-01  0.11668070329E+00  0.51100000000E-03 0. -1.
</event>
<event>
 8    1  0.1106905E+005  0.1043930E+01  0.7957747E-01            NaN
         13   -1    0    0    0    0  0.00000000000E+00  0.00000000000E+00  0.74505805969E-08  0.10566000000E+00  0.10566000000E+00 0.  1.
     999900   -1    0    0    0    0 -0.00000000000E+00 -0.00000000000E+00 -0.74505805969E-08  0.93827000000E+00  0.93827000000E+00 0.  1.
     999902    2    1    2    0    0 -0.60983087240E-02  0.21106218801E-01 -0.84127512688E-02  0.10204047747E+01  0.10201335540E+01 0.  0.
     999903    2    3    3    0    0  0.10395301631E+00 -0.71051803281E-01 -0.18662130229E-01  0.12871567813E+00  0.19101370173E-01 0.  0.
         14    1    1    2    0    0  0.60983087240E-02 -0.21106218801E-01  0.84127512688E-02  0.23525225297E-01  0.00000000000E+00 0. -1.
     999901    1    3    3    0    0 -0.11005132503E+00  0.92158022082E-01  0.10249378960E-01  0.89168909657E+00  0.88000000000E+00 0. -1.
        -11    1    4    4    0    0  0.45922549112E-02  0.28399379691E-03 -0.27045794434E-02  0.53614670205E-02  0.51100000000E-03 0. -1.
         11    1    4    4    0    0  0.99360761400E-01 -0.71335797078E-01 -0.15957550785E-01  0.12335421111E+00  0.51100000000E-03 0.  1.
</event>
<event>
 8    1  0.1106905E+005  0.1043930E+01  0.7957747E-01            NaN
         13   -1    0    0    0    0  0.00000000000E+00  0.00000000000E+00  0.74505805969E-08  0.10566000000E+00  0.10566000000E+00 0. -1.
     999900   -1    0    0    0    0 -0.00000000000E+00 -0.00000000000E+00 -0.74505805969E-08  0.93827000000E+00  0.93827000000E+00 0.  1.
     999902    2    1    2    0    0  0.13834363554E-01 -0.37210752129E-02 -0.18642330591E-01  0.10204188855E+01  0.10201479939E+01 0.  0.
     999903    2    3    3    0    0 -0.99880071477E-01 -0.28651019708E-01  0.72129200876E-01  0.12812300082E+00  0.20395394386E-01 0.  0.
         14    1    1    2    0    0 -0.13834363554E-01  0.37210752129E-02  0.18642330591E-01  0.23511114511E-01  0.00000000000E+00 0. -1.
     999901    1    3    3    0    0  0.11371443503E+00  0.24929944495E-01 -0.90771531468E-01  0.89229588467E+00  0.88000000000E+00 0.  1.
        -11    1    4    4    0    0 -0.52908169429E-01 -0.52116185452E-02  0.32105669064E-01  0.62108537797E-01  0.51100000000E-03 0.  1.
         11    1    4    4    0    0 -0.46971902048E-01 -0.23439401162E-01  0.40023531813E-01  0.66014463026E-01  0.51100000000E-03 0. -1.
</event>
<event>
 8    1  0.1106905E+005  0.1043930E+01  0.7957747E-01            NaN
         13   -1    0    0    0    0  0.00000000000E+00  0.00000000000E+00  0.74505805969E-08  0.10566000000E+00  0.10566000000E+00 0. -1.
     999900   -1    0    0    0    0 -0.00000000000E+00 -0.00000000000E+00 -0.74505805969E-08  0.93827000000E+00  0.93827000000E+00 0.  1.
     999902    2    1    2    0    0  0.70512123117E-02 -0.12770365068E-01 -0.12879814984E-01  0.10244700038E+01  0.10242851640E+01 0.  0.
     999903    2    3    3    0    0 -0.15947436675E-01  0.11116722312E+00 -0.69784494885E-01  0.13366833886E+00  0.19618278610E-01 0.  0.
         14    1    1    2    0    0 -0.70512123117E-02  0.12770365068E-01  0.12879814984E-01  0.19459996225E-01  0.00000000000E+00 0. -1.
     999901    1    3    3    0    0  0.22998648987E-01 -0.12393758818E+00  0.56904679901E-01  0.89080166491E+00  0.88000000000E+00 0. -1.
        -11    1    4    4    0    0  0.40981854541E-02  0.23831874152E-01 -0.11577680933E-01  0.26815241308E-01  0.51100000000E-03 0.  1.
         11    1    4    4    0    0 -0.20045622130E-01  0.87335348964E-01 -0.58206813951E-01  0.10685309755E+00  0.51100000000E-03 0. -1.
</event>
<event>
 8    1  0.1106905E+005  0.1043930E+01  0.7957747E-01            NaN
         13   -1    0    0    0    0  0.00000000000E+00  0.00000000000E+00  0.74505805969E-08  0.10566000000E+00  0.10566000000E+00 0. -1.
     999900   -1    0    0    0    0 -0.00000000000E+00 -0.00000000000E+00 -0.74505805969E-08  0.93827000000E+00  0.93827000000E+00 0. -1.
     999902    2    1    2    0    0  0.23791168886E-01 -0.12431083249E-02  0.23240611432E-02  0.10199932856E+01  0.10197123793E+01 0.  0.
     999903    2    3    3    0    0  0.10150599026E+00 -0.22833474458E-02 -0.83276900127E-01  0.13243021736E+00  0.17147613321E-01 0.  0.
         14    1    1    2    0    0 -0.23791168886E-01  0.12431083249E-02 -0.23240611432E-02  0.23936714383E-01  0.00000000000E+00 0.  1.
     999901    1    3    3    0    0 -0.77714821371E-01  0.10402391210E-02  0.85600961270E-01  0.88756306825E+00  0.88000000000E+00 0.  1.
        -11    1    4    4    0    0  0.85950666513E-01  0.25114415311E-02 -0.75287956074E-01  0.11429069019E+00  0.51100000000E-03 0.  1.
         11    1    4    4    0    0  0.15555323744E-01 -0.47947889769E-02 -0.79889440531E-02  0.18139527176E-01  0.51100000000E-03 0. -1.
</event>
<event>
 7    1  0.1106905E+005  0.1043930E+01  0.7957747E-01            NaN
         13   -1    0    0    0    0  0.00000000000E+00  0.00000000000E+00  0.74505805969E-08  0.10566000000E+00  0.10566000000E+00 0.  1.
     999900   -1    0    0    0    0 -0.00000000000E+00 -0.00000000000E+00 -0.74505805969E-08  0.93827000000E+00  0.93827000000E+00 0.  1.
     999902    2    1    2    0    0  0.13293676899E-01  0.16295196171E-01  0.33357222395E-02  0.10226372241E+01  0.10224155270E+01 0.  0.
         14    1    1    2    0    0 -0.13293676899E-01 -0.16295196171E-01 -0.33357222395E-02  0.21292775925E-01  0.00000000000E+00 0. -1.
     999901    1    3    3    0    0 -0.47043898740E-01  0.41679784026E-01  0.27306907215E-01  0.88266414903E+00  0.88000000000E+00 0. -1.
        -11    1    3    3    0    0  0.63041797465E-01  0.12464776743E-01 -0.59799307400E-01  0.87783011873E-01  0.51100000000E-03 0. -1.
         11    1    3    3    0    0 -0.27042218266E-02 -0.37849364599E-01  0.35828122425E-01  0.52190063170E-01  0.51100000000E-03 0.  1.
</event>
<event>
 8    1  0.1106905E+005  0.1043930E+01  0.7957747E-01            NaN
         13   -1    0    0    0    0  0.00000000000E+00  0.00000000000E+00  0.74505805969E-08  0.10566000000E+00  0.10566000000E+00 0.  1.
     999900   -1    0    0    0    0 -0.00000000000E+00 -0.00000000000E+00 -0.74505805969E-08  0.93827000000E+00  0.93827000000E+00 0. -1.
     999902    2    1    2    0    0  0.11943028240E-01 -0.21051330707E-01  0.24531639490E-02  0.10196028041E+01  0.10193125456E+01 0.  0.
     999903    2    3    3    0    0 -0.30218724043E-01  0.82600631442E-01  0.91016193352E-01  0.12810700892E+00  0.19784405068E-01 0.  0.
         14    1    1    2    0    0 -0.11943028240E-01  0.21051330707E-01 -0.24531639490E-02  0.24327195922E-01  0.00000000000E+00 0. -1.
     999901    1    3    3    0    0  0.42161752283E-01 -0.10365196215E+00 -0.88563029403E-01  0.89149579516E+00  0.88000000000E+00 0. -1.
        -11    1    4    4    0    0 -0.22486886084E-01  0.70908172887E-01  0.84682037961E-01  0.11271618208E+00  0.51100000000E-03 0.  1.
         11    1    4    4    0    0 -0.77318379587E-02  0.11692458555E-01  0.63341553916E-02  0.15390826839E-01  0.51100000000E-03 0. -1.
</event>
<event>
 8    1  0.1106905E+005  0.1043930E+01  0.7957747E-01            NaN
         13   -1    0    0    0    0  0.00000000000E+00  0.00000000000E+00  0.74505805969E-08  0.10566000000E+00  0.10566000000E+00 0.  1.
     999900   -1    0    0    0    0 -0.00000000000E+00 -0.00000000000E+00 -0.74505805969E-08  0.93827000000E+00  0.93827000000E+00 0.  1.
     999902    2    1    2    0    0  0.17747203426E-01  0.69157055172E-02  0.14465686877E-01  0.10200125104E+01  0.10197320604E+01 0.  0.
     999903    2    3    3    0    0  0.94134232561E-01 -0.74042047162E-01  0.54308261043E-01  0.13210679093E+00  0.12622935668E-01 0.  0.
         14    1    1    2    0    0 -0.17747203426E-01 -0.69157055172E-02 -0.14465686877E-01  0.23917489606E-01  0.00000000000E+00 0. -1.
     999901    1    3    3    0    0 -0.76387029135E-01  0.80957752679E-01 -0.39842574166E-01  0.88790571946E+00  0.88000000000E+00 0.  1.
        -11    1    4    4    0    0  0.40346535183E-01 -0.34798859593E-01  0.17839972436E-01  0.56190117172E-01  0.51100000000E-03 0.  1.
         11    1    4    4    0    0  0.53787697378E-01 -0.39243187569E-01  0.36468288607E-01  0.75916673759E-01  0.51100000000E-03 0. -1.
</event>
<event>
 8    1  0.1106905E+005  0.1043930E+01  0.7957747E-01            NaN
         13   -1    0    0    0    0  0.00000000000E+00  0.00000000000E+00  0.74505805969E-08  0.10566000000E+00  0.10566000000E+00 0. -1.
     999900   -1    0    0    0    0 -0.00000000000E+00 -0.00000000000E+00 -0.74505805969E-08  0.93827000000E+00  0.93827000000E+00 0. -1.
     999902    2    1    2    0    0 -0.13485554124E-01  0.10531105429E-01  0.16242855751E-01  0.10203377404E+01  0.10200649537E+01 0.  0.
     999903    2    3    3    0    0  0.27017997261E-02 -0.71626454706E-01  0.10764547960E+00  0.13164975533E+00  0.24626409866E-01 0.  0.
         14    1    1    2    0    0  0.13485554124E-01 -0.10531105429E-01 -0.16242855751E-01  0.23592259632E-01  0.00000000000E+00 0.  1.
     999901    1    3    3    0    0 -0.16187353851E-01  0.82157560135E-01 -0.91402623852E-01  0.88868798504E+00  0.88000000000E+00 0. -1.
        -11    1    4    4    0    0 -0.98388482583E-02 -0.46256044945E-01  0.71795340816E-01  0.85972418327E-01  0.51100000000E-03 0.  1.
         11    1    4    4    0    0  0.12540647984E-01 -0.25370409761E-01  0.35850138786E-01  0.45677336999E-01  0.51100000000E-03 0. -1.
</event>
<event>
 8    1  0.1106905E+005  0.1043930E+01  0.7957747E-01            NaN
         13   -1    0    0    0    0  0.00000000000E+00  0.00000000000E+00  0.74505805969E-08  0.10566000000E+00  0.10566000000E+00 0.  1.
     999900   -1    0    0    0    0 -0.00000000000E+00 -0.00000000000E+00 -0.74505805969E-08  0.93827000000E+00  0.93827000000E+00 0.  1.
     999902    2    1    2    0    0 -0.15049684757E-01  0.18006008961E-01 -0.95290832144E-03  0.10204434633E+01  0.10201731444E+01 0.  0.
     999903    2    3    3    0    0 -0.11290482970E+00  0.20249084012E-01 -0.63497472980E-01  0.13281038411E+00  0.21192995987E-01 0.  0.
         14    1    1    2    0    0  0.15049684757E-01 -0.18006008961E-01  0.95290832144E-03  0.23486536659E-01  0.00000000000E+00 0. -1.
     999901    1    3    3    0    0  0.97855144945E-01 -0.22430750503E-02  0.62544564659E-01  0.88763307923E+00  0.88000000000E+00 0. -1.
        -11    1    4    4    0    0 -0.75823862793E-01  0.20402616488E-01 -0.34654799550E-01  0.85829722015E-01  0.51100000000E-03 0. -1.
         11    1    4    4    0    0 -0.37080966909E-01 -0.15353247644E-03 -0.28842673430E-01  0.46980662093E-01  0.51100000000E-03 0.  1.
</event>
<event>
 8    1  0.1106905E+005  0.1043930E+01  0.7957747E-01            NaN
         13   -1    0    0    0    0  0.00000000000E+00  0.00000000000E+00  0.74505805969E-08  0.10566000000E+00  0.10566000000E+00 0.  1.
     999900   -1    0    0    0    0 -0.00000000000E+00 -0.00000000000E+00 -0.74505805969E-08  0.93827000000E+00  0.93827000000E+00 0. -1.
     999902    2    1    2    0    0 -0.16136908164E-01  0.17876162182E-01 -0.67125488875E-03  0.10198383508E+01  0.10195537525E+01 0.  0.
     999903    2    3    3    0    0 -0.72010078675E-01 -0.37126856288E-01  0.10056439735E+00  0.13057134896E+00  0.19282745316E-01 0.  0.
         14    1    1    2    0    0  0.16136908164E-01 -0.17876162182E-01  0.67125488875E-03  0.24091649229E-01  0.00000000000E+00 0. -1.
     999901    1    3    3    0    0  0.55873170511E-01  0.55003018470E-01 -0.10123565224E+00  0.88926700181E+00  0.88000000000E+00 0. -1.
        -11    1    4    4    0    0 -0.12911873220E-01 -0.48760904132E-02  0.30074174956E-01  0.33093954857E-01  0.51100000000E-03 0. -1.
         11    1    4    4    0    0 -0.59098205455E-01 -0.32250765874E-01  0.70490222392E-01  0.97477394104E-01  0.51100000000E-03 0.  1.
</event>
<event>
 8    1  0.1106905E+005  0.1043930E+01  0.7957747E-01            NaN
         13   -1    0    0    0    0  0.00000000000E+00  0.00000000000E+00  0.74505805969E-08  0.10566000000E+00  0.10566000000E+00 0.  1.
     999900   -1    0    0    0    0 -0.00000000000E+00 -0.00000000000E+00 -0.74505805969E-08  0.93827000000E+00  0.93827000000E+00 0. -1.
     999902    2    1    2    0    0 -0.19089885011E-01  0.97490182020E-02  0.84255416566E-02  0.10208983518E+01  0.10206385197E+01 0.  0.
     999903    2    3    3    0    0  0.35814872948E-01 -0.11491681173E+00  0.44097931573E-01  0.12970329966E+00  0.19741824414E-01 0.  0.
         14    1    1    2    0    0  0.19089885011E-01 -0.97490182020E-02 -0.84255416566E-02  0.23031648179E-01  0.00000000000E+00 0. -1.
     999901    1    3    3    0    0 -0.54904757959E-01  0.12466582993E+00 -0.35672389916E-01  0.89119505216E+00  0.88000000000E+00 0.  1.
        -11    1    4    4    0    0 -0.13934750819E-03 -0.16710480933E-01  0.10982235247E-01  0.20003254804E-01  0.51100000000E-03 0.  1.
         11    1    4    4    0    0  0.35954220456E-01 -0.98206330794E-01  0.33115696326E-01  0.10970004485E+00  0.51100000000E-03 0. -1.
</event>
<event>
 8    1  0.1106905E+005  0.1043930E+01  0.7957747E-01            NaN
         13   -1    0    0    0    0  0.00000000000E+00  0.00000000000E+00  0.74505805969E-08  0.10566000000E+00  0.10566000000E+00 0. -1.
     999900   -1    0    0    0    0 -0.00000000000E+00 -0.00000000000E+00 -0.74505805969E-08  0.93827000000E+00  0.93827000000E+00 0. -1.
     999902    2    1    2    0    0  0.20844493542E-01  0.92758229101E-02  0.66111050151E-02  0.10201762527E+01  0.10198996745E+01 0.  0.
     999903    2    3    3    0    0  0.12070686662E+00 -0.26505139631E-01  0.44943780193E-01  0.13297719677E+00  0.19756553496E-01 0.  0.
         14    1    1    2    0    0 -0.20844493542E-01 -0.92758229101E-02 -0.66111050151E-02  0.23753747309E-01  0.00000000000E+00 0.  1.
     999901    1    3    3    0    0 -0.99862373083E-01  0.35780962541E-01 -0.38332675178E-01  0.88719905592E+00  0.88000000000E+00 0. -1.
        -11    1    4    4    0    0  0.86002258835E-01 -0.27798064212E-01  0.31057602701E-01  0.95571735912E-01  0.51100000000E-03 0. -1.
         11    1    4    4    0    0  0.34704607789E-01  0.12929245811E-02  0.13886177492E-01  0.37405460860E-01  0.51100000000E-03 0.  1.
</event>
<event>
 8    1  0.1106905E+005  0.1043930E+01  0.7957747E-01            NaN
         13   -1    0    0    0    0  0.00000000000E+00  0.00000000000E+00  0.74505805969E-08  0.10566000000E+00  0.10566000000E+00 0. -1.
     999900   -1    0    0    0    0 -0.00000000000E+00 -0.00000000000E+00 -0.74505805969E-08  0.93827000000E+00  0.93827000000E+00 0.  1.
     999902    2    1    2    0    0  0.20040804151E-01  0.72664997732E-02 -0.84706161303E-02  0.10209912296E+01  0.10207335126E+01 0.  0.
     999903    2    3    3    0    0  0.12909804505E+00  0.82466909607E-02  0.26545679912E-01  0.13356766469E+00  0.20033341694E-01 0.  0.
         14    1    1    2    0    0 -0.20040804151E-01 -0.72664997732E-02  0.84706161303E-02  0.22938770403E-01  0.00000000000E+00 0. -1.
     999901    1    3    3    0    0 -0.10905724090E+00 -0.98019118746E-03 -0.35016296042E-01  0.88742356491E+00  0.88000000000E+00 0. -1.
        -11    1    4    4    0    0  0.31784240147E-01  0.10260327182E-01  0.97150416952E-02  0.34787287789E-01  0.51100000000E-03 0.  1.
         11    1    4    4    0    0  0.97313804907E-01 -0.20136362210E-02  0.16830638217E-01  0.98780376898E-01  0.51100000000E-03 0. -1.
</event>
<event>
 8    1  0.1106905E+005  0.1043930E+01  0.7957747E-01            NaN
         13   -1    0    0    0    0  0.00000000000E+00  0.00000000000E+00  0.74505805969E-08  0.10566000000E+00  0.10566000000E+00 0.  1.
     999900   -1    0    0    0    0 -0.00000000000E+00 -0.00000000000E+00 -0.74505805969E-08  0.93827000000E+00  0.93827000000E+00 0. -1.
     999902    2    1    2    0    0 -0.22760667145E-01 -0.36293852629E-02  0.52437792946E-02  0.10202927915E+01  0.10200189521E+01 0.  0.
     999903    2    3    3    0    0 -0.13006497393E+00 -0.43150080996E-02  0.22564804785E-01  0.13360530296E+00  0.20141743354E-01 0.  0.
         14    1    1    2    0    0  0.22760667145E-01  0.36293852629E-02 -0.52437792946E-02  0.23637208540E-01  0.00000000000E+00 0. -1.
     999901    1    3    3    0    0  0.10730430679E+00  0.68562283666E-03 -0.17321025490E-01  0.88668748850E+00  0.88000000000E+00 0.  1.
        -11    1    4    4    0    0 -0.30321020148E-01 -0.95187924543E-02  0.44293494539E-02  0.32091306146E-01  0.51100000000E-03 0.  1.
         11    1    4    4    0    0 -0.99743953786E-01  0.52037843547E-02  0.18135455331E-01  0.10151399682E+00  0.51100000000E-03 0. -1.
</event>
<event>
 8    1  0.1106905E+005  0.1043930E+01  0.7957747E-01            NaN
         13   -1    0    0    0    0  0.00000000000E+00  0.00000000000E+00  0.74505805969E-08  0.10566000000E+00  0.10566000000E+00 0.  1.
     999900   -1    0    0    0    0 -0.00000000000E+00 -0.00000000000E+00 -0.74505805969E-08  0.93827000000E+00  0.93827000000E+00 0.  1.
     999902    2    1    2    0    0  0.11710540471E-01 -0.15228253640E-01  0.14195105063E-01  0.10200440737E+01  0.10197643722E+01 0.  0.
     999903    2    3    3    0    0 -0.91413341623E-01 -0.64272913834E-01  0.65727462844E-01  0.13117091198E+00  0.19957512294E-01 0.  0.
         14    1    1    2    0    0 -0.11710540471E-01  0.15228253640E-01 -0.14195105063E-01  0.23885926291E-01  0.00000000000E+00 0. -1.
     999901    1    3    3    0    0  0.10312388209E+00  0.49044660194E-01 -0.51532357782E-01  0.88887316173E+00  0.88000000000E+00 0.  1.
        -11    1    4    4    0    0 -0.13139614384E-01 -0.15645202563E-01  0.18757781159E-01  0.27740535402E-01  0.51100000000E-03 0.  1.
         11    1    4    4    0    0 -0.78273727239E-01 -0.48627711271E-01  0.46969681686E-01  0.10343037657E+00  0.51100000000E-03 0. -1.
</event>
<event>
 8    1  0.1106905E+005  0.1043930E+01  0.7957747E-01            NaN
         13   -1    0    0    0    0  0.00000000000E+00  0.00000000000E+00  0.74505805969E-08  0.10566000000E+00  0.10566000000E+00 0. -1.
     999900   -1    0    0    0    0 -0.00000000000E+00 -0.00000000000E+00 -0.74505805969E-08  0.93827000000E+00  0.93827000000E+00 0. -1.
     999902    2    1    2    0    0  0.13946499872E-01 -0.15858566936E-01  0.99112566176E-02  0.10206012192E+01  0.10203345612E+01 0.  0.
     999903    2    3    3    0    0  0.98857223229E-02 -0.11214022356E+00  0.68990292601E-01  0.13337127170E+00  0.18843523998E-01 0.  0.
         14    1    1    2    0    0 -0.13946499872E-01  0.15858566936E-01 -0.99112566176E-02  0.23328780759E-01  0.00000000000E+00 0.  1.
     999901    1    3    3    0    0  0.40607775493E-02  0.96281656623E-01 -0.59079035983E-01  0.88722994754E+00  0.88000000000E+00 0. -1.
        -11    1    4    4    0    0  0.18097347302E-02 -0.52409343187E-01  0.42624840668E-01  0.67580711420E-01  0.51100000000E-03 0. -1.
         11    1    4    4    0    0  0.80759875926E-02 -0.59730880373E-01  0.26365451932E-01  0.65790560282E-01  0.51100000000E-03 0.  1.
</event>
<event>
 8    1  0.1106905E+005  0.1043930E+01  0.7957747E-01            NaN
         13   -1    0    0    0    0  0.00000000000E+00  0.00000000000E+00  0.74505805969E-08  0.10566000000E+00  0.10566000000E+00 0.  1.
     999900   -1    0    0    0    0 -0.00000000000E+00 -0.00000000000E+00 -0.74505805969E-08  0.93827000000E+00  0.93827000000E+00 0. -1.
     999902    2    1    2    0    0 -0.34969620758E-02  0.19549438597E-01  0.12775967420E-01  0.10203157112E+01  0.10200424088E+01 0.  0.
     999903    2    3    3    0    0 -0.79314295923E-01 -0.79678624754E-01  0.61262420571E-01  0.13017784949E+00  0.23531841041E-01 0.  0.
         14    1    1    2    0    0  0.34969620758E-02 -0.19549438597E-01 -0.12775967420E-01  0.23614288826E-01  0.00000000000E+00 0.  1.
     999901    1    3    3    0    0  0.75817333847E-01  0.99228063351E-01 -0.48486453150E-01  0.89013786169E+00  0.88000000000E+00 0.  1.
        -11    1    4    4    0    0 -0.36519111611E-01 -0.29877143078E-01  0.37756247778E-01  0.60432479336E-01  0.51100000000E-03 0.  1.
         11    1    4    4    0    0 -0.42795184312E-01 -0.49801481676E-01  0.23506172793E-01  0.69745370153E-01  0.51100000000E-03 0. -1.
</event>
<event>
 8    1  0.1106905E+005  0.1043930E+01  0.7957747E-01            NaN
         13   -1    0    0    0    0  0.00000000000E+00  0.00000000000E+00  0.74505805969E-08  0.10566000000E+00  0.10566000000E+00 0. -1.
     999900   -1    0    0    0    0 -0.00000000000E+00 -0.00000000000E+00 -0.74505805969E-08  0.93827000000E+00  0.93827000000E+00 0.  1.
     999902    2    1    2    0    0 -0.26246570406E-01  0.71668510439E-02  0.23226989282E-01  0.10081565567E+01  0.10075216641E+01 0.  0.
     999903    2    3    3    0    0  0.10650818810E+00 -0.17162249423E-01  0.41961118319E-01  0.11766978051E+00  0.21140124329E-01 0.  0.
         14    1    1    2    0    0  0.26246570406E-01 -0.71668510439E-02 -0.23226989282E-01  0.35773443266E-01  0.00000000000E+00 0.  1.
     999901    1    3    3    0    0 -0.13275475851E+00  0.24329100467E-01 -0.18734129037E-01  0.89048677622E+00  0.88000000000E+00 0. -1.
        -11    1    4    4    0    0  0.19636017100E-01 -0.91015875413E-02  0.21066241534E-02  0.21751116055E-01  0.51100000000E-03 0. -1.
         11    1    4    4    0    0  0.86872171004E-01 -0.80606618820E-02  0.39854494166E-01  0.95918664457E-01  0.51100000000E-03 0.  1.
</event>
<event>
 8    1  0.1106905E+005  0.1043930E+01  0.7957747E-01            NaN
         13   -1    0    0    0    0  0.00000000000E+00  0.00000000000E+00  0.74505805969E-08  0.10566000000E+00  0.10566000000E+00 0.  1.
     999900   -1    0    0    0    0 -0.00000000000E+00 -0.00000000000E+00 -0.74505805969E-08  0.93827000000E+00  0.93827000000E+00 0.  1.
     999902    2    1    2    0    0 -0.17565595740E-01 -0.15882854877E-01 -0.35383427913E-02  0.10199855831E+01  0.10197044937E+01 0.  0.
     999903    2    3    3    0    0 -0.58486856924E-01  0.79613888110E-01  0.81470442504E-01  0.12980544898E+00  0.21282339403E-01 0.  0.
         14    1    1    2    0    0  0.17565595740E-01  0.15882854877E-01  0.35383427913E-02  0.23944416937E-01  0.00000000000E+00 0.  1.
     999901    1    3    3    0    0  0.40921261184E-01 -0.95496742987E-01 -0.85008785295E-01  0.89018013408E+00  0.88000000000E+00 0.  1.
        -11    1    4    4    0    0 -0.20250147052E-01  0.45512056275E-01  0.40451295105E-01  0.64171521088E-01  0.51100000000E-03 0. -1.
         11    1    4    4    0    0 -0.38236709872E-01  0.34101831834E-01  0.41019147399E-01  0.65633927893E-01  0.51100000000E-03 0.  1.
</event>
<event>
 8    1  0.1106905E+005  0.1043930E+01  0.7957747E-01            NaN
         13   -1    0    0    0    0  0.00000000000E+00  0.00000000000E+00  0.74505805969E-08  0.10566000000E+00  0.10566000000E+00 0. -1.
     999900   -1    0    0    0    0 -0.00000000000E+00 -0.00000000000E+00 -0.74505805969E-08  0.93827000000E+00  0.93827000000E+00 0.  1.
     999902    2    1    2    0    0 -0.23151561814E-01 -0.13621280564E-02 -0.54237179315E-02  0.10201126340E+01  0.10198345548E+01 0.  0.
     999903    2    3    3    0    0 -0.85242378132E-01  0.58519083410E-01 -0.81023621703E-01  0.13266890372E+00  0.18586677672E-01 0.  0.
         14    1    1    2    0    0  0.23151561814E-01  0.13621280564E-02  0.54237179315E-02  0.23817366006E-01  0.00000000000E+00 0.  1.
     999901    1    3    3    0    0  0.62090816318E-01 -0.59881211466E-01  0.75599903771E-01  0.88744373028E+00  0.88000000000E+00 0. -1.
        -11    1    4    4    0    0 -0.64433831991E-01  0.36981865366E-01 -0.50039211736E-01  0.89574331720E-01  0.51100000000E-03 0.  1.
         11    1    4    4    0    0 -0.20808546141E-01  0.21537218044E-01 -0.30984409967E-01  0.43094571997E-01  0.51100000000E-03 0. -1.
</event>
<event>
 8    1  0.1106905E+005  0.1043930E+01  0.7957747E-01            NaN
         13   -1    0    0    0    0  0.00000000000E+00  0.00000000000E+00  0.74505805969E-08  0.10566000000E+00  0.10566000000E+00 0.  1.
     999900   -1    0    0    0    0 -0.00000000000E+00 -0.00000000000E+00 -0.74505805969E-08  0.93827000000E+00  0.93827000000E+00 0.  1.
     999902    2    1    2    0    0  0.20480727152E-01 -0.79217375711E-02  0.92068928299E-02  0.10201186375E+01  0.10198407001E+01 0.  0.
     999903    2    3    3    0    0  0.99403234793E-01 -0.13667825438E-01 -0.82945451499E-01  0.13177532864E+00  0.20420009188E-01 0.  0.
         14    1    1    2    0    0 -0.20480727152E-01  0.79217375711E-02 -0.92068928299E-02  0.23811362548E-01  0.00000000000E+00 0.  1.
     999901    1    3    3    0    0 -0.78922507641E-01  0.57460878672E-02  0.92152344329E-01  0.88834330881E+00  0.88000000000E+00 0. -1.
        -11    1    4    4    0    0  0.52189619322E-01 -0.28543800249E-02 -0.31098791205E-01  0.60821869305E-01  0.51100000000E-03 0. -1.
         11    1    4    4    0    0  0.47213615472E-01 -0.10813445413E-01 -0.51846660294E-01  0.70953459339E-01  0.51100000000E-03 0.  1.
</event>
<event>
 8    1  0.1106905E+005  0.1043930E+01  0.7957747E-01            NaN
         13   -1    0    0    0    0  0.00000000000E+00  0.00000000000E+00  0.74505805969E-08  0.10566000000E+00  0.10566000000E+00 0.  1.
     999900   -1    0    0    0    0 -0.00000000000E+00 -0.00000000000E+00 -0.74505805969E-08  0.93827000000E+00  0.93827000000E+00 0.  1.
     999902    2    1    2    0    0  0.91729323673E-03  0.16476437477E-01  0.16356946364E-01  0.10206950239E+01  0.10204305306E+01 0.  0.
     999903    2    3    3    0    0  0.89681405747E-01 -0.10306962570E-01 -0.90368262845E-01  0.12941129331E+00  0.20781527647E-01 0.  0.
         14    1    1    2    0    0 -0.91729323673E-03 -0.16476437477E-01 -0.16356946364E-01  0.23234976074E-01  0.00000000000E+00 0. -1.
     999901    1    3    3    0    0 -0.88764112510E-01  0.26783400046E-01  0.10672520921E+00  0.89128373062E+00  0.88000000000E+00 0.  1.
        -11    1    4    4    0    0  0.60921367809E-02  0.45936173108E-02 -0.89885111085E-02  0.11801267030E-01  0.51100000000E-03 0. -1.
         11    1    4    4    0    0  0.83589268966E-01 -0.14900579880E-01 -0.81379751736E-01  0.11761002628E+00  0.51100000000E-03 0.  1.
</event>
<event>
 8    1  0.1106905E+005  0.1043930E+01  0.7957747E-01            NaN
         13   -1    0    0    0    0  0.00000000000E+00  0.00000000000E+00  0.74505805969E-08  0.10566000000E+00  0.10566000000E+00 0. -1.
     999900   -1    0    0    0    0 -0.00000000000E+00 -0.00000000000E+00 -0.74505805969E-08  0.93827000000E+00  0.93827000000E+00 0. -1.
     999902    2    1    2    0    0  0.53261974559E-02  0.18310681912E-01 -0.14765698613E-01  0.10198120543E+01  0.10195268269E+01 0.  0.
     999903    2    3    3    0    0  0.12142451188E+00 -0.32019333933E-01 -0.29394760579E-01  0.13064056429E+00  0.20826791871E-01 0.  0.
         14    1    1    2    0    0 -0.53261974559E-02 -0.18310681912E-01  0.14765698613E-01  0.24117945745E-01  0.00000000000E+00 0. -1.
     999901    1    3    3    0    0 -0.11609831442E+00  0.50330015845E-01  0.14629061966E-01  0.88917148996E+00  0.88000000000E+00 0. -1.
        -11    1    4    4    0    0  0.38962451852E-01 -0.15570619337E-01 -0.12949565463E-02  0.41981601617E-01  0.51100000000E-03 0.  1.
         11    1    4    4    0    0  0.82462060024E-01 -0.16448714596E-01 -0.28099804032E-01  0.88658962676E-01  0.51100000000E-03 0. -1.
</event>
<event>
 8    1  0.1106905E+005  0.1043930E+01  0.7957747E-01            NaN
         13   -1    0    0    0    0  0.00000000000E+00  0.00000000000E+00  0.74505805969E-08  0.10566000000E+00  0.10566000000E+00 0. -1.
     999900   -1    0    0    0    0 -0.00000000000E+00 -0.00000000000E+00 -0.74505805969E-08  0.93827000000E+00  0.93827000000E+00 0.  1.
     999902    2    1    2    0    0 -0.15139195621E-02  0.21131707453E-01  0.10586028229E-01  0.10202465668E+01  0.10199716428E+01 0.  0.
     999903    2    3    3    0    0  0.50907243111E-02 -0.47440036589E-01  0.12012764894E+00  0.13078320500E+00  0.19927923254E-01 0.  0.
         14    1    1    2    0    0  0.15139195621E-02 -0.21131707453E-01 -0.10586028229E-01  0.23683433155E-01  0.00000000000E+00 0.  1.
     999901    1    3    3    0    0 -0.66046438732E-02  0.68571744042E-01 -0.10954162071E+00  0.88946336185E+00  0.88000000000E+00 0. -1.
        -11    1    4    4    0    0  0.11093783437E-01 -0.20688957273E-01  0.44101420593E-01  0.49963000343E-01  0.51100000000E-03 0. -1.
         11    1    4    4    0    0 -0.60030591256E-02 -0.26751079316E-01  0.76026228342E-01  0.80820204654E-01  0.51100000000E-03 0.  1.
</event>
<event>
 8    1  0.1106905E+005  0.1043930E+01  0.7957747E-01            NaN
         13   -1    0    0    0    0  0.00000000000E+00  0.00000000000E+00  0.74505805969E-08  0.10566000000E+00  0.10566000000E+00 0.  1.
     999900   -1    0    0    0    0 -0.00000000000E+00 -0.00000000000E+00 -0.74505805969E-08  0.93827000000E+00  0.93827000000E+00 0. -1.
     999902    2    1    2    0    0  0.63771020256E-02 -0.20727732249E-01  0.13447450279E-01  0.10184125504E+01  0.10180928163E+01 0.  0.
     999903    2    3    3    0    0 -0.85821991798E-01  0.90595813327E-01 -0.21521099454E-02  0.12648376907E+00  0.20506013586E-01 0.  0.
         14    1    1    2    0    0 -0.63771020256E-02  0.20727732249E-01 -0.13447450279E-01  0.25517449587E-01  0.00000000000E+00 0. -1.
     999901    1    3    3    0    0  0.92199093824E-01 -0.11132354558E+00  0.15599560224E-01  0.89192878134E+00  0.88000000000E+00 0.  1.
        -11    1    4    4    0    0 -0.25140539545E-01  0.15441189879E-01 -0.45577202428E-02  0.29858181598E-01  0.51100000000E-03 0.  1.
         11    1    4    4    0    0 -0.60681452253E-01  0.75154623448E-01  0.24056102974E-02  0.96625587476E-01  0.51100000000E-03 0. -1.
</event>
<event>
 8    1  0.1106905E+005  0.1043930E+01  0.7957747E-01            NaN
         13   -1    0    0    0    0  0.00000000000E+00  0.00000000000E+00  0.74505805969E-08  0.10566000000E+00  0.10566000000E+00 0. -1.
     999900   -1    0    0    0    0 -0.00000000000E+00 -0.00000000000E+00 -0.74505805969E-08  0.93827000000E+00  0.93827000000E+00 0. -1.
     999902    2    1    2    0    0  0.99535499008E-02 -0.44189748122E-02  0.20749887813E-01  0.10204958724E+01  0.10202267724E+01 0.  0.
     999903    2    3    3    0    0 -0.10637821067E+00  0.51241894144E-01  0.52302670637E-01  0.13053700311E+00  0.19033770121E-01 0.  0.
         14    1    1    2    0    0 -0.99535499008E-02  0.44189748122E-02 -0.20749887813E-01  0.23434127641E-01  0.00000000000E+00 0.  1.
     999901    1    3    3    0    0  0.11633176057E+00 -0.55660868956E-01 -0.31552782824E-01  0.88995886925E+00  0.88000000000E+00 0. -1.
        -11    1    4    4    0    0 -0.30469224882E-01  0.72202780325E-02  0.19288111426E-01  0.36780408415E-01  0.51100000000E-03 0.  1.
         11    1    4    4    0    0 -0.75908985786E-01  0.44021616111E-01  0.33014559212E-01  0.93756594696E-01  0.51100000000E-03 0. -1.
</event>
<event>
 8    1  0.1106905E+005  0.1043930E+01  0.7957747E-01            NaN
         13   -1    0    0    0    0  0.00000000000E+00  0.00000000000E+00  0.74505805969E-08  0.10566000000E+00  0.10566000000E+00 0. -1.
     999900   -1    0    0    0    0 -0.00000000000E+00 -0.00000000000E+00 -0.74505805969E-08  0.93827000000E+00  0.93827000000E+00 0. -1.
     999902    2    1    2    0    0 -0.18807642536E-01  0.12635837579E-01 -0.53015847009E-02  0.10206598773E+01  0.10203945740E+01 0.  0.
     999903    2    3    3    0    0 -0.10001416831E+00 -0.27252654569E-01  0.79222305167E-01  0.13199240318E+00  0.20006994250E-01 0.  0.
         14    1    1    2    0    0  0.18807642536E-01 -0.12635837579E-01  0.53015847009E-02  0.23270122677E-01  0.00000000000E+00 0. -1.
     999901    1    3    3    0    0  0.81206525772E-01  0.39888492148E-01 -0.84523889868E-01  0.88866747414E+00  0.88000000000E+00 0. -1.
        -11    1    4    4    0    0 -0.40145693560E-01 -0.12541641017E-01  0.44510325684E-01  0.61240506892E-01  0.51100000000E-03 0. -1.
         11    1    4    4    0    0 -0.59868474748E-01 -0.14711013552E-01  0.34711979483E-01  0.70751896292E-01  0.51100000000E-03 0.  1.
</event>
<event>
 8    1  0.1106905E+005  0.1043930E+01  0.7957747E-01            NaN
         13   -1    0    0    0    0  0.00000000000E+00  0.00000000000E+00  0.74505805969E-08  0.10566000000E+00  0.10566000000E+00 0.  1.
     999900   -1    0    0    0    0 -0.00000000000E+00 -0.00000000000E+00 -0.74505805969E-08  0.93827000000E+00  0.93827000000E+00 0. -1.
     999902    2    1    2    0    0 -0.94565202156E-02  0.19225682341E-01 -0.87953870641E-02  0.10207694415E+01  0.10205066591E+01 0.  0.
     999903    2    3    3    0    0 -0.10503753190E+00  0.29802755711E-01 -0.73591869110E-01  0.13316244043E+00  0.19884289936E-01 0.  0.
         14    1    1    2    0    0  0.94565202156E-02 -0.19225682341E-01  0.87953870641E-02  0.23160558492E-01  0.00000000000E+00 0.  1.
     999901    1    3    3    0    0  0.95581011686E-01 -0.10577073370E-01  0.64796482046E-01  0.88760700108E+00  0.88000000000E+00 0.  1.
        -11    1    4    4    0    0 -0.34893741266E-01  0.80697303611E-02 -0.13513370257E-01  0.38282711821E-01  0.51100000000E-03 0.  1.
         11    1    4    4    0    0 -0.70143790636E-01  0.21733025350E-01 -0.60078498853E-01  0.94879728610E-01  0.51100000000E-03 0. -1.
</event>
<event>
 8    1  0.1106905E+005  0.1043930E+01  0.7957747E-01            NaN
         13   -1    0    0    0    0  0.00000000000E+00  0.00000000000E+00  0.74505805969E-08  0.10566000000E+00  0.10566000000E+00 0.  1.
     999900   -1    0    0    0    0 -0.00000000000E+00 -0.00000000000E+00 -0.74505805969E-08  0.93827000000E+00  0.93827000000E+00 0.  1.
     999902    2    1    2    0    0 -0.14950414825E-01  0.15794221276E-01 -0.49411139332E-02  0.10216278267E+01  0.10213843690E+01 0.  0.
     999903    2    3    3    0    0  0.81997888375E-01  0.55027041964E-01  0.83900294634E-01  0.13099266926E+00  0.19188301489E-01 0.  0.
         14    1    1    2    0    0  0.14950414825E-01 -0.15794221276E-01  0.49411139332E-02  0.22302173349E-01  0.00000000000E+00 0. -1.
     999901    1    3    3    0    0 -0.96948303200E-01 -0.39232820688E-01 -0.88841408567E-01  0.89063515740E+00  0.88000000000E+00 0.  1.
        -11    1    4    4    0    0  0.60540001743E-01  0.37107156841E-01  0.49007507833E-01  0.86278791397E-01  0.51100000000E-03 0. -1.
         11    1    4    4    0    0  0.21457886632E-01  0.17919885123E-01  0.34892786801E-01  0.44713877859E-01  0.51100000000E-03 0.  1.
</event>
<event>
 8    1  0.1106905E+005  0.1043930E+01  0.7957747E-01            NaN
         13   -1    0    0    0    0  0.00000000000E+00  0.00000000000E+00  0.74505805969E-08  0.10566000000E+00  0.10566000000E+00 0.  1.
     999900   -1    0    0    0    0 -0.00000000000E+00 -0.00000000000E+00 -0.74505805969E-08  0.93827000000E+00  0.93827000000E+00 0.  1.
     999902    2    1    2    0    0  0.22198660570E-01 -0.45985629543E-02 -0.70620241784E-02  0.10201855375E+01  0.10199091781E+01 0.  0.
     999903    2    3    3    0    0 -0.64437517337E-01  0.56198758003E-01 -0.95109202969E-01  0.12948107069E+00  0.20226050940E-01 0.  0.
         14    1    1    2    0    0 -0.22198660570E-01  0.45985629543E-02  0.70620241784E-02  0.23744462467E-01  0.00000000000E+00 0.  1.
     999901    1    3    3    0    0  0.86636177907E-01 -0.60797320957E-01  0.88047178791E-01  0.89070446684E+00  0.88000000000E+00 0. -1.
        -11    1    4    4    0    0 -0.24937449688E-01  0.19858437678E-01 -0.21804156725E-01  0.38625332561E-01  0.51100000000E-03 0. -1.
         11    1    4    4    0    0 -0.39500067650E-01  0.36340320324E-01 -0.73305046244E-01  0.90855738131E-01  0.51100000000E-03 0.  1.
</event>
<event>
 8    1  0.1106905E+005  0.1043930E+01  0.7957747E-01            NaN
         13   -1    0    0    0    0  0.00000000000E+00  0.00000000000E+00  0.74505805969E-08  0.10566000000E+00  0.10566000000E+00 0. -1.
     999900   -1    0    0    0    0 -0.00000000000E+00 -0.00000000000E+00 -0.74505805969E-08  0.93827000000E+00  0.93827000000E+00 0. -1.
     999902    2    1    2    0    0 -0.12142572985E-02  0.23433244874E-01 -0.37192082035E-02  0.10201723929E+01  0.10198957237E+01 0.  0.
     999903    2    3    3    0    0 -0.10777916884E+00  0.63540933554E-01 -0.37940862143E-01  0.13217699388E+00  0.19428052311E-01 0.  0.
         14    1    1    2    0    0  0.12142572985E-02 -0.23433244874E-01  0.37192082035E-02  0.23757607114E-01  0.00000000000E+00 0. -1.
     999901    1    3    3    0    0  0.10656491155E+00 -0.40107688680E-01  0.34221653939E-01  0.88799539901E+00  0.88000000000E+00 0. -1.
        -11    1    4    4    0    0 -0.48941599451E-01  0.17890061235E-01 -0.17057886346E-01  0.54832171719E-01  0.51100000000E-03 0.  1.
         11    1    4    4    0    0 -0.58837569394E-01  0.45650872318E-01 -0.20882975797E-01  0.77344822158E-01  0.51100000000E-03 0. -1.
</event>
<event>
 8    1  0.1106905E+005  0.1043930E+01  0.7957747E-01            NaN
         13   -1    0    0    0    0  0.00000000000E+00  0.00000000000E+00  0.74505805969E-08  0.10566000000E+00  0.10566000000E+00 0.  1.
     999900   -1    0    0    0    0 -0.00000000000E+00 -0.00000000000E+00 -0.74505805969E-08  0.93827000000E+00  0.93827000000E+00 0.  1.
     999902    2    1    2    0    0 -0.16320616608E-01  0.16624349228E-01 -0.71917521302E-03  0.10206223033E+01  0.10203561325E+01 0.  0.
     999903    2    3    3    0    0 -0.11998209070E+00 -0.70612509938E-02 -0.52668817428E-01  0.13270030546E+00  0.19743439086E-01 0.  0.
         14    1    1    2    0    0  0.16320616608E-01 -0.16624349228E-01  0.71917521302E-03  0.23307696727E-01  0.00000000000E+00 0.  1.
     999901    1    3    3    0    0  0.10366147409E+00  0.23685600222E-01  0.51949642215E-01  0.88792199781E+00  0.88000000000E+00 0.  1.
        -11    1    4    4    0    0 -0.93396671554E-01 -0.35480641680E-02 -0.49292818427E-01  0.10566726118E+00  0.51100000000E-03 0.  1.
         11    1    4    4    0    0 -0.26585419145E-01 -0.35131868258E-02 -0.33759990009E-02  0.27033044280E-01  0.51100000000E-03 0. -1.
</event>
<event>
 8    1  0.1106905E+005  0.1043930E+01  0.7957747E-01            NaN
         13   -1    0    0    0    0  0.00000000000E+00  0.00000000000E+00  0.74505805969E-08  0.10566000000E+00  0.10566000000E+00 0.  1.
     999900   -1    0    0    0    0 -0.00000000000E+00 -0.00000000000E+00 -0.74505805969E-08  0.93827000000E+00  0.93827000000E+00 0. -1.
     999902    2    1    2    0    0  0.13924056531E-01 -0.84487172124E-02 -0.17664595523E-01  0.10199029713E+01  0.10196199158E+01 0.  0.
     999903    2    3    3    0    0 -0.19189409761E-01  0.46025464270E-01  0.11573502019E+00  0.12756929181E+00  0.19817984429E-01 0.  0.
         14    1    1    2    0    0 -0.13924056531E-01  0.84487172124E-02  0.17664595523E-01  0.24027028693E-01  0.00000000000E+00 0.  1.
     999901    1    3    3    0    0  0.33113466292E-01 -0.54474181483E-01 -0.13339961571E+00  0.89233367950E+00  0.88000000000E+00 0. -1.
        -11    1    4    4    0    0 -0.13977292224E-01  0.14545042284E-01  0.30648634165E-01  0.36694997617E-01  0.51100000000E-03 0.  1.
         11    1    4    4    0    0 -0.52121175375E-02  0.31480421986E-01  0.85086386020E-01  0.90874294191E-01  0.51100000000E-03 0. -1.
</event>
<event>
 8    1  0.1106905E+005  0.1043930E+01  0.7957747E-01            NaN
         13   -1    0    0    0    0  0.00000000000E+00  0.00000000000E+00  0.74505805969E-08  0.10566000000E+00  0.10566000000E+00 0. -1.
     999900   -1    0    0    0    0 -0.00000000000E+00 -0.00000000000E+00 -0.74505805969E-08  0.93827000000E+00  0.93827000000E+00 0.  1.
     999902    2    1    2    0    0  0.33699677487E-02  0.14996434467E-03  0.23380266408E-01  0.10203076371E+01  0.10200341456E+01 0.  0.
     999903    2    3    3    0    0 -0.86661246731E-01 -0.93362748068E-01 -0.15346092596E-01  0.12994255588E+00  0.20561878785E-01 0.  0.
         14    1    1    2    0    0 -0.33699677487E-02 -0.14996434467E-03 -0.23380266408E-01  0.23622362905E-01  0.00000000000E+00 0.  1.
     999901    1    3    3    0    0  0.90031214480E-01  0.93512712412E-01  0.38726359003E-01  0.89036508121E+00  0.88000000000E+00 0. -1.
        -11    1    4    4    0    0 -0.68976607806E-01 -0.66029830611E-01 -0.18385231894E-01  0.97241908803E-01  0.51100000000E-03 0. -1.
         11    1    4    4    0    0 -0.17684638925E-01 -0.27332917457E-01  0.30391392984E-02  0.32700647078E-01  0.51100000000E-03 0.  1.
</event>
<event>
 8    1  0.1106905E+005  0.1043930E+01  0.7957747E-01            NaN
         13   -1    0    0    0    0  0.00000000000E+00  0.00000000000E+00  0.74505805969E-08  0.10566000000E+00  0.10566000000E+00 0.  1.
     999900   -1    0    0    0    0 -0.00000000000E+00 -0.00000000000E+00 -0.74505805969E-08  0.93827000000E+00  0.93827000000E+00 0.  1.
     999902    2    1    2    0    0 -0.21808036502E-01 -0.10514399114E-01  0.11873399968E-01  0.10169648248E+01  0.10166072665E+01 0.  0.
     999903    2    3    3    0    0  0.22522405941E-01 -0.63419596521E-01  0.10820346559E+00  0.12902134151E+00  0.20229004127E-01 0.  0.
         14    1    1    2    0    0  0.21808036502E-01  0.10514399114E-01 -0.11873399968E-01  0.26965175163E-01  0.00000000000E+00 0. -1.
     999901    1    3    3    0    0 -0.44330442443E-01  0.52905197407E-01 -0.96330065618E-01  0.88794348333E+00  0.88000000000E+00 0.  1.
        -11    1    4    4    0    0  0.11021695595E-01 -0.41924096902E-01  0.84722070147E-01  0.95169312101E-01  0.51100000000E-03 0. -1.
         11    1    4    4    0    0  0.11500710346E-01 -0.21495499619E-01  0.23481395439E-01  0.33852029409E-01  0.51100000000E-03 0.  1.
</event>
<event>
 8    1  0.1106905E+005  0.1043930E+01  0.7957747E-01            NaN
         13   -1    0    0    0    0  0.00000000000E+00  0.00000000000E+00  0.74505805969E-08  0.10566000000E+00  0.10566000000E+00 0. -1.
     999900   -1    0    0    0    0 -0.00000000000E+00 -0.00000000000E+00 -0.74505805969E-08  0.93827000000E+00  0.93827000000E+00 0.  1.
     999902    2    1    2    0    0 -0.18347052956E-01 -0.12388050028E-01  0.62351410221E-02  0.10209309757E+01  0.10206718875E+01 0.  0.
     999903    2    3    3    0    0  0.68816217274E-01 -0.46045505568E-02  0.11001908469E+00  0.13052144884E+00  0.13220286109E-01 0.  0.
         14    1    1    2    0    0  0.18347052956E-01  0.12388050028E-01 -0.62351410221E-02  0.22999024310E-01  0.00000000000E+00 0.  1.
     999901    1    3    3    0    0 -0.87163270230E-01 -0.77834994708E-02 -0.10378394367E+00  0.89040952685E+00  0.88000000000E+00 0.  1.
        -11    1    4    4    0    0  0.42738260974E-01 -0.59581506433E-02  0.78568588655E-01  0.89640073373E-01  0.51100000000E-03 0. -1.
         11    1    4    4    0    0  0.26077956300E-01  0.13536000865E-02  0.31450496038E-01  0.40881375467E-01  0.51100000000E-03 0.  1.
</event>
<event>
 8    1  0.1106905E+005  0.1043930E+01  0.7957747E-01            NaN
         13   -1    0    0    0    0  0.00000000000E+00  0.00000000000E+00  0.74505805969E-08  0.10566000000E+00  0.10566000000E+00 0.  1.
     999900   -1    0    0    0    0 -0.00000000000E+00 -0.00000000000E+00 -0.74505805969E-08  0.93827000000E+00  0.93827000000E+00 0.  1.
     999902    2    1    2    0    0  0.50411093023E-02 -0.12055945574E-01 -0.19413012031E-01  0.10205286402E+01  0.10202603010E+01 0.  0.
     999903    2    3    3    0    0  0.12446667160E+00 -0.35068492248E-01  0.14430243915E-01  0.13151941173E+00  0.19166956861E-01 0.  0.
         14    1    1    2    0    0 -0.50411093023E-02  0.12055945574E-01  0.19413012031E-01  0.23401359850E-01  0.00000000000E+00 0.  1.
     999901    1    3    3    0    0 -0.11942556230E+00  0.23012546674E-01 -0.33843255946E-01  0.88900922842E+00  0.88000000000E+00 0. -1.
        -11    1    4    4    0    0  0.73438396830E-01 -0.30178219691E-01  0.10742702201E-01  0.80122342978E-01  0.51100000000E-03 0.  1.
         11    1    4    4    0    0  0.51028274772E-01 -0.48902725570E-02  0.36875417138E-02  0.51397068757E-01  0.51100000000E-03 0. -1.
</event>
<event>
 8    1  0.1106905E+005  0.1043930E+01  0.7957747E-01            NaN
         13   -1    0    0    0    0  0.00000000000E+00  0.00000000000E+00  0.74505805969E-08  0.10566000000E+00  0.10566000000E+00 0. -1.
     999900   -1    0    0    0    0 -0.00000000000E+00 -0.00000000000E+00 -0.74505805969E-08  0.93827000000E+00  0.93827000000E+00 0. -1.
     999902    2    1    2    0    0  0.21451362582E-01 -0.79680007504E-02  0.33623934369E-03  0.10210441299E+01  0.10207876137E+01 0.  0.
     999903    2    3    3    0    0  0.24202295246E-01 -0.10600232540E+00  0.73046018650E-01  0.13261573750E+00  0.20711564567E-01 0.  0.
         14    1    1    2    0    0 -0.21451362582E-01  0.79680007504E-02 -0.33623934369E-03  0.22885870084E-01  0.00000000000E+00 0. -1.
     999901    1    3    3    0    0 -0.27509326635E-02  0.98034324652E-01 -0.72709779307E-01  0.88842839241E+00  0.88000000000E+00 0. -1.
        -11    1    4    4    0    0  0.21179807902E-02 -0.51553289190E-01  0.29089346330E-01  0.59234100481E-01  0.51100000000E-03 0.  1.
         11    1    4    4    0    0  0.22084314455E-01 -0.54449036212E-01  0.43956672321E-01  0.73381637021E-01  0.51100000000E-03 0. -1.
</event>
<event>
 8    1  0.1106905E+005  0.1043930E+01  0.7957747E-01            NaN
         13   -1    0    0    0    0  0.00000000000E+00  0.00000000000E+00  0.74505805969E-08  0.10566000000E+00  0.10566000000E+00 0.  1.
     999900   -1    0    0    0    0 -0.00000000000E+00 -0.00000000000E+00 -0.74505805969E-08  0.93827000000E+00  0.93827000000E+00 0.  1.
     999902    2    1    2    0    0 -0.17032279354E-01 -0.12940893419E-01  0.99953311073E-02  0.10203191570E+01  0.10200459354E+01 0.  0.
     999903    2    3    3    0    0  0.12057864642E+00 -0.23802824499E-01  0.34883922450E-01  0.12921075148E+00  0.19306626492E-01 0.  0.
         14    1    1    2    0    0  0.17032279354E-01  0.12940893419E-01 -0.99953311073E-02  0.23610842984E-01  0.00000000000E+00 0. -1.
     999901    1    3    3    0    0 -0.13761092577E+00  0.10861931080E-01 -0.24888591342E-01  0.89110840554E+00  0.88000000000E+00 0.  1.
        -11    1    4    4    0    0  0.49068637390E-01 -0.11305946343E-01  0.46503156574E-02  0.50571159317E-01  0.51100000000E-03 0.  1.
         11    1    4    4    0    0  0.71510009027E-01 -0.12496878156E-01  0.30233606792E-01  0.78639592162E-01  0.51100000000E-03 0. -1.
</event>
<event>
 8    1  0.1106905E+005  0.1043930E+01  0.7957747E-01            NaN
         13   -1    0    0    0    0  0.00000000000E+00  0.00000000000E+00  0.74505805969E-08  0.10566000000E+00  0.10566000000E+00 0. -1.
     999900   -1    0    0    0    0 -0.00000000000E+00 -0.00000000000E+00 -0.74505805969E-08  0.93827000000E+00  0.93827000000E+00 0.  1.
     999902    2    1    2    0    0  0.22368294789E-01  0.48576331595E-02  0.75365613481E-02  0.10198315152E+01  0.10195467534E+01 0.  0.
     999903    2    3    3    0    0  0.49298252803E-01  0.88987418648E-01 -0.80259148126E-01  0.13106206815E+00  0.19663581635E-01 0.  0.
         14    1    1    2    0    0 -0.22368294789E-01 -0.48576331595E-02 -0.75365613481E-02  0.24098484779E-01  0.00000000000E+00 0. -1.
     999901    1    3    3    0    0 -0.26929958014E-01 -0.84129785489E-01  0.87795709474E-01  0.88876944707E+00  0.88000000000E+00 0. -1.
        -11    1    4    4    0    0  0.43964425477E-01  0.64033690411E-01 -0.55180735536E-01  0.95280422493E-01  0.51100000000E-03 0. -1.
         11    1    4    4    0    0  0.53338273266E-02  0.24953728238E-01 -0.25078412590E-01  0.35781645657E-01  0.51100000000E-03 0.  1.
</event>
<event>
 8    1  0.1106905E+005  0.1043930E+01  0.7957747E-01            NaN
         13   -1    0    0    0    0  0.00000000000E+00  0.00000000000E+00  0.74505805969E-08  0.10566000000E+00  0.10566000000E+00 0. -1.
     999900   -1    0    0    0    0 -0.00000000000E+00 -0.00000000000E+00 -0.74505805969E-08  0.93827000000E+00  0.93827000000E+00 0. -1.
     999902    2    1    2    0    0  0.20707619364E-01  0.89106660644E-02  0.67642211524E-02  0.10203936418E+01  0.10201221613E+01 0.  0.
     999903    2    3    3    0    0 -0.12183756118E-01  0.12262555972E+00 -0.40451626171E-01  0.13121297632E+00  0.19875595207E-01 0.  0.
         14    1    1    2    0    0 -0.20707619364E-01 -0.89106660644E-02 -0.67642211524E-02  0.23536358199E-01  0.00000000000E+00 0.  1.
     999901    1    3    3    0    0  0.32891375482E-01 -0.11371489366E+00  0.47215847324E-01  0.88918066548E+00  0.88000000000E+00 0.  1.
        -11    1    4    4    0    0  0.28702792865E-02  0.34240397599E-01 -0.46823403639E-02  0.34681821798E-01  0.51100000000E-03 0. -1.
         11    1    4    4    0    0 -0.15054035404E-01  0.88385162126E-01 -0.35769285807E-01  0.96531154526E-01  0.51100000000E-03 0.  1.
</event>
<event>
 8    1  0.1106905E+005  0.1043930E+01  0.7957747E-01            NaN
         13   -1    0    0    0    0  0.00000000000E+00  0.00000000000E+00  0.74505805969E-08  0.10566000000E+00  0.10566000000E+00 0. -1.
     999900   -1    0    0    0    0 -0.00000000000E+00 -0.00000000000E+00 -0.74505805969E-08  0.93827000000E+00  0.93827000000E+00 0. -1.
     999902    2    1    2    0    0 -0.18234004934E-01  0.14533722615E-01  0.44217338696E-02  0.10201969058E+01  0.10199208140E+01 0.  0.
     999903    2    3    3    0    0  0.17917957008E-01 -0.88955108440E-01  0.89890703679E-01  0.12928622157E+00  0.20013095201E-01 0.  0.
         14    1    1    2    0    0  0.18234004934E-01 -0.14533722615E-01 -0.44217338696E-02  0.23733094181E-01  0.00000000000E+00 0. -1.
     999901    1    3    3    0    0 -0.36151961942E-01  0.10348883106E+00 -0.85468969809E-01  0.89091068425E+00  0.88000000000E+00 0. -1.
        -11    1    4    4    0    0  0.13239091962E-01 -0.21217042271E-01  0.23491439649E-01  0.34315379882E-01  0.51100000000E-03 0. -1.
         11    1    4    4    0    0  0.46788650457E-02 -0.67738066170E-01  0.66399264030E-01  0.94970841690E-01  0.51100000000E-03 0.  1.
</event>
<event>
 8    1  0.1106905E+005  0.1043930E+01  0.7957747E-01            NaN
         13   -1    0    0    0    0  0.00000000000E+00  0.00000000000E+00  0.74505805969E-08  0.10566000000E+00  0.10566000000E+00 0. -1.
     999900   -1    0    0    0    0 -0.00000000000E+00 -0.00000000000E+00 -0.74505805969E-08  0.93827000000E+00  0.93827000000E+00 0. -1.
     999902    2    1    2    0    0 -0.50559045271E-02 -0.23390323973E-01  0.13964412537E-02  0.10199587782E+01  0.10196770517E+01 0.  0.
     999903    2    3    3    0    0  0.31715591973E-01  0.12167748750E+00  0.21324538408E-02  0.12732371582E+00  0.19886968403E-01 0.  0.
         14    1    1    2    0    0  0.50559045271E-02  0.23390323973E-01 -0.13964412537E-02  0.23971221795E-01  0.00000000000E+00 0. -1.
     999901    1    3    3    0    0 -0.36771496501E-01 -0.14506781148E+00 -0.73601258709E-03  0.89263506238E+00  0.88000000000E+00 0.  1.
        -11    1    4    4    0    0  0.41777108739E-02  0.52212130943E-01  0.43733484296E-02  0.52563743999E-01  0.51100000000E-03 0.  1.
         11    1    4    4    0    0  0.27537881100E-01  0.69465356560E-01 -0.22408945888E-02  0.74759971823E-01  0.51100000000E-03 0. -1.
</event>
<event>
 8    1  0.1106905E+005  0.1043930E+01  0.7957747E-01            NaN
         13   -1    0    0    0    0  0.00000000000E+00  0.00000000000E+00  0.74505805969E-08  0.10566000000E+00  0.10566000000E+00 0. -1.
     999900   -1    0    0    0    0 -0.00000000000E+00 -0.00000000000E+00 -0.74505805969E-08  0.93827000000E+00  0.93827000000E+00 0. -1.
     999902    2    1    2    0    0 -0.39600889514E-02  0.13193823966E-01  0.20574213305E-01  0.10191700010E+01  0.10188691935E+01 0.  0.
     999903    2    3    3    0    0  0.53247925840E-01 -0.87939436368E-01  0.76585709521E-01  0.12976684105E+00  0.20133952845E-01 0.  0.
         14    1    1    2    0    0  0.39600889514E-02 -0.13193823966E-01 -0.20574213305E-01  0.24759998959E-01  0.00000000000E+00 0.  1.
     999901    1    3    3    0    0 -0.57208014792E-01  0.10113326033E+00 -0.56011496216E-01  0.88940316000E+00  0.88000000000E+00 0.  1.
        -11    1    4    4    0    0  0.10151536983E-01 -0.31110972880E-01  0.17296729490E-01  0.37018702148E-01  0.51100000000E-03 0.  1.
         11    1    4    4    0    0  0.43096388857E-01 -0.56828463488E-01  0.59288980031E-01  0.92748138898E-01  0.51100000000E-03 0. -1.
</event>
<event>
 8    1  0.1106905E+005  0.1043930E+01  0.7957747E-01            NaN
         13   -1    0    0    0    0  0.00000000000E+00  0.00000000000E+00  0.74505805969E-08  0.10566000000E+00  0.10566000000E+00 0.  1.
     999900   -1    0    0    0    0 -0.00000000000E+00 -0.00000000000E+00 -0.74505805969E-08  0.93827000000E+00  0.93827000000E+00 0. -1.
     999902    2    1    2    0    0 -0.15963734241E-01  0.14380767329E-03 -0.16259010348E-01  0.10211436684E+01  0.10208894037E+01 0.  0.
     999903    2    3    3    0    0 -0.68343920414E-01 -0.25957392247E-01  0.10670967950E+00  0.13066837100E+00  0.18509181834E-01 0.  0.
         14    1    1    2    0    0  0.15963734241E-01 -0.14380767329E-03  0.16259010348E-01  0.22786331629E-01  0.00000000000E+00 0. -1.
     999901    1    3    3    0    0  0.52380186173E-01  0.26101199920E-01 -0.12296868985E+00  0.89047529737E+00  0.88000000000E+00 0. -1.
        -11    1    4    4    0    0 -0.13791418047E-01 -0.11381287214E-01  0.35807848161E-01  0.40027490819E-01  0.51100000000E-03 0.  1.
         11    1    4    4    0    0 -0.54552502368E-01 -0.14576105033E-01  0.70901831337E-01  0.90640880184E-01  0.51100000000E-03 0. -1.
</event>
<event>
 8    1  0.1106905E+005  0.1043930E+01  0.7957747E-01            NaN
         13   -1    0    0    0    0  0.00000000000E+00  0.00000000000E+00  0.74505805969E-08  0.10566000000E+00  0.10566000000E+00 0.  1.
     999900   -1    0    0    0    0 -0.00000000000E+00 -0.00000000000E+00 -0.74505805969E-08  0.93827000000E+00  0.93827000000E+00 0. -1.
     999902    2    1    2    0    0  0.32469544553E-02  0.11034196410E-01  0.19883988417E-01  0.10209589487E+01  0.10207004975E+01 0.  0.
     999903    2    3    3    0    0  0.49360055574E-02 -0.60084871316E-01 -0.11176487216E+00  0.12832677517E+00  0.18488338597E-01 0.  0.
         14    1    1    2    0    0 -0.32469544553E-02 -0.11034196410E-01 -0.19883988417E-01  0.22971051325E-01  0.00000000000E+00 0. -1.
     999901    1    3    3    0    0 -0.16890511021E-02  0.71119067726E-01  0.13164886058E+00  0.89263217351E+00  0.88000000000E+00 0.  1.
        -11    1    4    4    0    0 -0.54805357858E-02 -0.33384873857E-01 -0.68915602118E-01  0.76773741678E-01  0.51100000000E-03 0. -1.
         11    1    4    4    0    0  0.10416541343E-01 -0.26699997459E-01 -0.42849270042E-01  0.51553033490E-01  0.51100000000E-03 0.  1.
</event>
<event>
 8    1  0.1106905E+005  0.1043930E+01  0.7957747E-01            NaN
         13   -1    0    0    0    0  0.00000000000E+00  0.00000000000E+00  0.74505805969E-08  0.10566000000E+00  0.10566000000E+00 0. -1.
     999900   -1    0    0    0    0 -0.00000000000E+00 -0.00000000000E+00 -0.74505805969E-08  0.93827000000E+00  0.93827000000E+00 0. -1.
     999902    2    1    2    0    0  0.30062124844E-02 -0.20176358213E-01  0.73136669423E-02  0.10222594562E+01  0.10220297370E+01 0.  0.
     999903    2    3    3    0    0  0.10546876563E+00 -0.28292204506E-02 -0.76941806251E-01  0.13214795603E+00  0.20282399302E-01 0.  0.
         14    1    1    2    0    0 -0.30062124844E-02  0.20176358213E-01 -0.73136669423E-02  0.21670543796E-01  0.00000000000E+00 0.  1.
     999901    1    3    3    0    0 -0.10246255314E+00 -0.17347137763E-01  0.84255473194E-01  0.89011150018E+00  0.88000000000E+00 0. -1.
        -11    1    4    4    0    0  0.77000771362E-01  0.63038062106E-02 -0.59640920633E-01  0.97602035317E-01  0.51100000000E-03 0.  1.
         11    1    4    4    0    0  0.28467994266E-01 -0.91330266612E-02 -0.17300885619E-01  0.34545920710E-01  0.51100000000E-03 0. -1.
</event>
<event>
 8    1  0.1106905E+005  0.1043930E+01  0.7957747E-01            NaN
         13   -1    0    0    0    0  0.00000000000E+00  0.00000000000E+00  0.74505805969E-08  0.10566000000E+00  0.10566000000E+00 0. -1.
     999900   -1    0    0    0    0 -0.00000000000E+00 -0.00000000000E+00 -0.74505805969E-08  0.93827000000E+00  0.93827000000E+00 0.  1.
     999902    2    1    2    0    0 -0.55089626533E-03 -0.18143880871E-01  0.14687749828E-01  0.10205797560E+01  0.10203126013E+01 0.  0.
     999903    2    3    3    0    0  0.10200328929E+00 -0.44173434504E-01  0.69137790117E-01  0.13257091285E+00  0.20953509694E-01 0.  0.
         14    1    1    2    0    0  0.55089626533E-03  0.18143880871E-01 -0.14687749828E-01  0.23350243998E-01  0.00000000000E+00 0.  1.
     999901    1    3    3    0    0 -0.10255418556E+00  0.26029553633E-01 -0.54450040288E-01  0.88800884316E+00  0.88000000000E+00 0.  1.
        -11    1    4    4    0    0  0.29081257606E-01 -0.27745871785E-02  0.19453825293E-01  0.35101713883E-01  0.51100000000E-03 0.  1.
         11    1    4    4    0    0  0.72922031684E-01 -0.41398847325E-01  0.49683964824E-01  0.97469198962E-01  0.51100000000E-03 0. -1.
</event>
<event>
 8    1  0.1106905E+005  0.1043930E+01  0.7957747E-01            NaN
         13   -1    0    0    0    0  0.00000000000E+00  0.00000000000E+00  0.74505805969E-08  0.10566000000E+00  0.10566000000E+00 0. -1.
     999900   -1    0    0    0    0 -0.00000000000E+00 -0.00000000000E+00 -0.74505805969E-08  0.93827000000E+00  0.93827000000E+00 0.  1.
     999902    2    1    2    0    0 -0.67298974030E-02 -0.80181619130E-02 -0.21006524288E-01  0.10204596676E+01  0.10201897259E+01 0.  0.
     999903    2    3    3    0    0 -0.48569502501E-01  0.79398255914E-01  0.86673632630E-01  0.12861483871E+00  0.19141016867E-01 0.  0.
         14    1    1    2    0    0  0.67298974030E-02  0.80181619130E-02  0.21006524288E-01  0.23470332383E-01  0.00000000000E+00 0. -1.
     999901    1    3    3    0    0  0.41839605098E-01 -0.87416417827E-01 -0.10768015692E+00  0.89184482891E+00  0.88000000000E+00 0. -1.
        -11    1    4    4    0    0 -0.13188420939E-01  0.37936590734E-01  0.42258010971E-01  0.58301972313E-01  0.51100000000E-03 0. -1.
         11    1    4    4    0    0 -0.35381081563E-01  0.41461665180E-01  0.44415621659E-01  0.70312866393E-01  0.51100000000E-03 0.  1.
</event>
<event>
 8    1  0.1106905E+005  0.1043930E+01  0.7957747E-01            NaN
         13   -1    0    0    0    0  0.00000000000E+00  0.00000000000E+00  0.74505805969E-08  0.10566000000E+00  0.10566000000E+00 0.  1.
     999900   -1    0    0    0    0 -0.00000000000E+00 -0.00000000000E+00 -0.74505805969E-08  0.93827000000E+00  0.93827000000E+00 0. -1.
     999902    2    1    2    0    0 -0.21629819072E-01 -0.17709227344E-02 -0.57126754013E-02  0.10214885228E+01  0.10212419803E+01 0.  0.
     999903    2    3    3    0    0  0.10777195735E+00  0.68130193344E-01  0.55786077624E-02  0.12921139157E+00  0.20197643667E-01 0.  0.
         14    1    1    2    0    0  0.21629819072E-01  0.17709227344E-02  0.57126754013E-02  0.22441477239E-01  0.00000000000E+00 0.  1.
     999901    1    3    3    0    0 -0.12940177643E+00 -0.69901116079E-01 -0.11291283164E-01  0.89227713119E+00  0.88000000000E+00 0.  1.
        -11    1    4    4    0    0  0.70694414442E-01  0.49241049342E-01 -0.49115006744E-02  0.86294641395E-01  0.51100000000E-03 0. -1.
         11    1    4    4    0    0  0.37077542913E-01  0.18889144003E-01  0.10490108437E-01  0.42916750175E-01  0.51100000000E-03 0.  1.
</event>
<event>
 8    1  0.1106905E+005  0.1043930E+01  0.7957747E-01            NaN
         13   -1    0    0    0    0  0.00000000000E+00  0.00000000000E+00  0.74505805969E-08  0.10566000000E+00  0.10566000000E+00 0.  1.
     999900   -1    0    0    0    0 -0.00000000000E+00 -0.00000000000E+00 -0.74505805969E-08  0.93827000000E+00  0.93827000000E+00 0.  1.
     999902    2    1    2    0    0  0.12987223121E-01  0.76759923395E-02  0.17845260682E-01  0.10205624552E+01  0.10202948999E+01 0.  0.
     999903    2    3    3    0    0 -0.82268133926E-01  0.31604372835E-01 -0.90945024198E-01  0.12844055961E+00  0.21426564946E-01 0.  0.
         14    1    1    2    0    0 -0.12987223121E-01 -0.76759923395E-02 -0.17845260682E-01  0.23367544835E-01  0.00000000000E+00 0. -1.
     999901    1    3    3    0    0  0.95255357047E-01 -0.23928380496E-01  0.10879028488E+00  0.89212189555E+00  0.88000000000E+00 0.  1.
        -11    1    4    4    0    0 -0.36767516750E-01  0.22779911684E-01 -0.53861848889E-01  0.69080638033E-01  0.51100000000E-03 0.  1.
         11    1    4    4    0    0 -0.45500617176E-01  0.88244611513E-02 -0.37083175309E-01  0.59359921581E-01  0.51100000000E-03 0. -1.
</event>
<event>
 8    1  0.1106905E+005  0.1043930E+01  0.7957747E-01            NaN
         13   -1    0    0    0    0  0.00000000000E+00  0.00000000000E+00  0.74505805969E-08  0.10566000000E+00  0.10566000000E+00 0.  1.
     999900   -1    0    0    0    0 -0.00000000000E+00 -0.00000000000E+00 -0.74505805969E-08  0.93827000000E+00  0.93827000000E+00 0.  1.
     999902    2    1    2    0    0 -0.18327394819E-01 -0.13887097799E-02 -0.14851335752E-01  0.10202998479E+01  0.10200261739E+01 0.  0.
     999903    2    3    3    0    0 -0.11674845219E+00 -0.78413388467E-02 -0.61432809254E-01  0.13356529085E+00  0.19339317058E-01 0.  0.
         14    1    1    2    0    0  0.18327394819E-01  0.13887097799E-02  0.14851335752E-01  0.23630152122E-01  0.00000000000E+00 0.  1.
     999901    1    3    3    0    0  0.98421057367E-01  0.64526290667E-02  0.46581473502E-01  0.88673455703E+00  0.88000000000E+00 0.  1.
        -11    1    4    4    0    0 -0.94943243365E-01 -0.74384369542E-02 -0.57930932223E-01  0.11147108968E+00  0.51100000000E-03 0. -1.
         11    1    4    4    0    0 -0.21805208820E-01 -0.40290189244E-03 -0.35018770317E-02  0.22094201171E-01  0.51100000000E-03 0.  1.
</event>
<event>
 8    1  0.1106905E+005  0.1043930E+01  0.7957747E-01            NaN
         13   -1    0    0    0    0  0.00000000000E+00  0.00000000000E+00  0.74505805969E-08  0.10566000000E+00  0.10566000000E+00 0.  1.
     999900   -1    0    0    0    0 -0.00000000000E+00 -0.00000000000E+00 -0.74505805969E-08  0.93827000000E+00  0.93827000000E+00 0. -1.
     999902    2    1    2    0    0  0.13715165609E-01  0.17594674700E-01 -0.13427919527E-01  0.10178918094E+01  0.10175587198E+01 0.  0.
     999903    2    3    3    0    0 -0.99501824299E-01  0.81698673196E-02 -0.77920626082E-01  0.12824793517E+00  0.20212598458E-01 0.  0.
         14    1    1    2    0    0 -0.13715165609E-01 -0.17594674700E-01  0.13427919527E-01  0.26038190573E-01  0.00000000000E+00 0.  1.
     999901    1    3    3    0    0  0.11321698991E+00  0.94248073807E-02  0.64492706555E-01  0.88964387425E+00  0.88000000000E+00 0.  1.
        -11    1    4    4    0    0 -0.68046464945E-01 -0.27705361733E-02 -0.46552863271E-01  0.82495014770E-01  0.51100000000E-03 0.  1.
         11    1    4    4    0    0 -0.31455359354E-01  0.10940403493E-01 -0.31367762811E-01  0.45752920403E-01  0.51100000000E-03 0. -1.
</event>
<event>
 8    1  0.1106905E+005  0.1043930E+01  0.7957747E-01            NaN
         13   -1    0    0    0    0  0.00000000000E+00  0.00000000000E+00  0.74505805969E-08  0.10566000000E+00  0.10566000000E+00 0.  1.
     999900   -1    0    0    0    0 -0.00000000000E+00 -0.00000000000E+00 -0.74505805969E-08  0.93827000000E+00  0.93827000000E+00 0. -1.
     999902    2    1    2    0    0  0.10355711685E-01 -0.10149856529E-01  0.18896324006E-01  0.10201112802E+01  0.10198331690E+01 0.  0.
     999903    2    3    3    0    0 -0.10874212183E+00 -0.67313831723E-02  0.69325334198E-01  0.13065129516E+00  0.19839314198E-01 0.  0.
         14    1    1    2    0    0 -0.10355711685E-01  0.10149856529E-01 -0.18896324006E-01  0.23818719802E-01  0.00000000000E+00 0.  1.
     999901    1    3    3    0    0  0.11909783351E+00 -0.34184733570E-02 -0.50429010191E-01  0.88945998503E+00  0.88000000000E+00 0.  1.
        -11    1    4    4    0    0 -0.37352652197E-01 -0.11247333923E-01  0.20794767431E-01  0.44208671322E-01  0.51100000000E-03 0.  1.
         11    1    4    4    0    0 -0.71389469628E-01  0.45159507506E-02  0.48530566767E-01  0.86442623842E-01  0.51100000000E-03 0. -1.
</event>
<event>
 8    1  0.1106905E+005  0.1043930E+01  0.7957747E-01            NaN
         13   -1    0    0    0    0  0.00000000000E+00  0.00000000000E+00  0.74505805969E-08  0.10566000000E+00  0.10566000000E+00 0. -1.
     999900   -1    0    0    0    0 -0.00000000000E+00 -0.00000000000E+00 -0.74505805969E-08  0.93827000000E+00  0.93827000000E+00 0. -1.
     999902    2    1    2    0    0  0.15132374547E-01  0.66465026836E-03 -0.17172022243E-01  0.10210322082E+01  0.10207754216E+01 0.  0.
     999903    2    3    3    0    0  0.84362954852E-01 -0.74435056779E-01  0.64797241276E-01  0.13134023941E+00  0.19846666768E-01 0.  0.
         14    1    1    2    0    0 -0.15132374547E-01 -0.66465026836E-03  0.17172022243E-01  0.22897791756E-01  0.00000000000E+00 0. -1.
     999901    1    3    3    0    0 -0.69230580305E-01  0.75099707048E-01 -0.81969263519E-01  0.88969196884E+00  0.88000000000E+00 0.  1.
        -11    1    4    4    0    0  0.52990984795E-01 -0.56988077708E-01  0.38394288847E-01  0.86775964457E-01  0.51100000000E-03 0.  1.
         11    1    4    4    0    0  0.31371970057E-01 -0.17446979071E-01  0.26402952430E-01  0.44564274951E-01  0.51100000000E-03 0. -1.
</event>
<event>
 8    1  0.1106905E+005  0.1043930E+01  0.7957747E-01            NaN
         13   -1    0    0    0    0  0.00000000000E+00  0.00000000000E+00  0.74505805969E-08  0.10566000000E+00  0.10566000000E+00 0. -1.
     999900   -1    0    0    0    0 -0.00000000000E+00 -0.00000000000E+00 -0.74505805969E-08  0.93827000000E+00  0.93827000000E+00 0.  1.
     999902    2    1    2    0    0  0.12072663009E-01 -0.14567477830E-01  0.14009261013E-01  0.10203881225E+01  0.10201165132E+01 0.  0.
     999903    2    3    3    0    0  0.67479636695E-01  0.10743043052E+00 -0.17609532166E-01  0.12968437238E+00  0.20325895951E-01 0.  0.
         14    1    1    2    0    0 -0.12072663009E-01  0.14567477830E-01 -0.14009261013E-01  0.23541877508E-01  0.00000000000E+00 0.  1.
     999901    1    3    3    0    0 -0.55406973685E-01 -0.12199790835E+00  0.31618793179E-01  0.89070375011E+00  0.88000000000E+00 0. -1.
        -11    1    4    4    0    0  0.12900151027E-01  0.14197817236E-01  0.37642510144E-02  0.19555628793E-01  0.51100000000E-03 0.  1.
         11    1    4    4    0    0  0.54579485667E-01  0.93232613288E-01 -0.21373783181E-01  0.11012874359E+00  0.51100000000E-03 0. -1.
</event>
<event>
 8    1  0.1106905E+005  0.1043930E+01  0.7957747E-01            NaN
         13   -1    0    0    0    0  0.00000000000E+00  0.00000000000E+00  0.74505805969E-08  0.10566000000E+00  0.10566000000E+00 0.  1.
     999900   -1    0    0    0    0 -0.00000000000E+00 -0.00000000000E+00 -0.74505805969E-08  0.93827000000E+00  0.93827000000E+00 0. -1.
     999902    2    1    2    0    0 -0.67448781543E-02 -0.11240766207E-01  0.19533367633E-01  0.10204055307E+01  0.10201343276E+01 0.  0.
     999903    2    3    3    0    0 -0.87732483955E-01 -0.12048347119E-01 -0.92784136062E-01  0.12957733954E+00  0.18418458332E-01 0.  0.
         14    1    1    2    0    0  0.67448781543E-02  0.11240766207E-01 -0.19533367633E-01  0.23524469331E-01  0.00000000000E+00 0. -1.
     999901    1    3    3    0    0  0.80987605801E-01  0.80758091252E-03  0.11231750369E+00  0.89082819113E+00  0.88000000000E+00 0.  1.
        -11    1    4    4    0    0 -0.72354819921E-01 -0.26490603208E-02 -0.73303436893E-01  0.10303345315E+00  0.51100000000E-03 0. -1.
         11    1    4    4    0    0 -0.15377664034E-01 -0.93992867984E-02 -0.19480699169E-01  0.26543886388E-01  0.51100000000E-03 0.  1.
</event>
<event>
 8    1  0.1106905E+005  0.1043930E+01  0.7957747E-01            NaN
         13   -1    0    0    0    0  0.00000000000E+00  0.00000000000E+00  0.74505805969E-08  0.10566000000E+00  0.10566000000E+00 0.  1.
     999900   -1    0    0    0    0 -0.00000000000E+00 -0.00000000000E+00 -0.74505805969E-08  0.93827000000E+00  0.93827000000E+00 0.  1.
     999902    2    1    2    0    0 -0.15997463620E-01  0.14684306216E-01 -0.96766642440E-02  0.10201563692E+01  0.10198793223E+01 0.  0.
     999903    2    3    3    0    0 -0.84186618072E-01 -0.36314007128E-01 -0.92970679201E-01  0.13213132355E+00  0.20224878127E-01 0.  0.
         14    1    1    2    0    0  0.15997463620E-01 -0.14684306216E-01  0.96766642440E-02  0.23773630817E-01  0.00000000000E+00 0. -1.
     999901    1    3    3    0    0  0.68189154452E-01  0.50998313344E-01  0.83294014957E-01  0.88802504564E+00  0.88000000000E+00 0. -1.
        -11    1    4    4    0    0 -0.31463156718E-01 -0.69396234684E-02 -0.43240160837E-01  0.53926442816E-01  0.51100000000E-03 0. -1.
         11    1    4    4    0    0 -0.52723461354E-01 -0.29374383659E-01 -0.49730518364E-01  0.78204880732E-01  0.51100000000E-03 0.  1.
</event>
<event>
 8    1  0.1106905E+005  0.1043930E+01  0.7957747E-01            NaN
         13   -1    0    0    0    0  0.00000000000E+00  0.00000000000E+00  0.74505805969E-08  0.10566000000E+00  0.10566000000E+00 0. -1.
     999900   -1    0    0    0    0 -0.00000000000E+00 -0.00000000000E+00 -0.74505805969E-08  0.93827000000E+00  0.93827000000E+00 0. -1.
     999902    2    1    2    0    0 -0.95716501200E-02 -0.48625135473E-02 -0.21644508810E-01  0.10197691787E+01  0.10194829241E+01 0.  0.
     999903    2    3    3    0    0 -0.94202555563E-01  0.79685027198E-01  0.37144348991E-01  0.12973164770E+00  0.15058974664E-01 0.  0.
         14    1    1    2    0    0  0.95716501200E-02  0.48625135473E-02  0.21644508810E-01  0.24160821295E-01  0.00000000000E+00 0. -1.
     999901    1    3    3    0    0  0.84630905443E-01 -0.84547540745E-01 -0.58788857801E-01  0.89003753101E+00  0.88000000000E+00 0. -1.
        -11    1    4    4    0    0 -0.66004795102E-02  0.11302703728E-01  0.52584156104E-02  0.14114867944E-01  0.51100000000E-03 0.  1.
         11    1    4    4    0    0 -0.87602076053E-01  0.68382323470E-01  0.31885933381E-01  0.11561677975E+00  0.51100000000E-03 0. -1.
</event>
<event>
 8    1  0.1106905E+005  0.1043930E+01  0.7957747E-01            NaN
         13   -1    0    0    0    0  0.00000000000E+00  0.00000000000E+00  0.74505805969E-08  0.10566000000E+00  0.10566000000E+00 0.  1.
     999900   -1    0    0    0    0 -0.00000000000E+00 -0.00000000000E+00 -0.74505805969E-08  0.93827000000E+00  0.93827000000E+00 0. -1.
     999902    2    1    2    0    0 -0.18105627090E-01  0.13708131220E-01  0.10755915202E-01  0.10188020016E+01  0.10184920727E+01 0.  0.
     999903    2    3    3    0    0  0.16619307032E-01 -0.89375522153E-01 -0.86058551887E-01  0.12683501692E+00  0.20417194675E-01 0.  0.
         14    1    1    2    0    0  0.18105627090E-01 -0.13708131220E-01 -0.10755915202E-01  0.25127998442E-01  0.00000000000E+00 0. -1.
     999901    1    3    3    0    0 -0.34724934122E-01  0.10308365337E+00  0.96814467089E-01  0.89196698464E+00  0.88000000000E+00 0.  1.
        -11    1    4    4    0    0  0.14090913083E-01 -0.86240091841E-01 -0.75359944561E-01  0.11539189589E+00  0.51100000000E-03 0.  1.
         11    1    4    4    0    0  0.25283939489E-02 -0.31354303122E-02 -0.10698607326E-01  0.11443121030E-01  0.51100000000E-03 0. -1.
</event>
<event>
 8    1  0.1106905E+005  0.1043930E+01  0.7957747E-01            NaN
         13   -1    0    0    0    0  0.00000000000E+00  0.00000000000E+00  0.74505805969E-08  0.10566000000E+00  0.10566000000E+00 0. -1.
     999900   -1    0    0    0    0 -0.00000000000E+00 -0.00000000000E+00 -0.74505805969E-08  0.93827000000E+00  0.93827000000E+00 0.  1.
     999902    2    1    2    0    0 -0.40526397870E-02 -0.77958171117E-02  0.22394411020E-01  0.10198736433E+01  0.10195898881E+01 0.  0.
     999903    2    3    3    0    0 -0.90721148440E-01  0.20449978553E-01  0.92083338332E-01  0.13242460139E+00  0.20209043954E-01 0.  0.
         14    1    1    2    0    0  0.40526397870E-02  0.77958171117E-02 -0.22394411020E-01  0.24056356720E-01  0.00000000000E+00 0.  1.
     999901    1    3    3    0    0  0.86668508653E-01 -0.28245795664E-01 -0.69688927312E-01  0.88744904189E+00  0.88000000000E+00 0. -1.
        -11    1    4    4    0    0 -0.33877938891E-01  0.92091250419E-02  0.21776860459E-01  0.41316044099E-01  0.51100000000E-03 0.  1.
         11    1    4    4    0    0 -0.56843209548E-01  0.11240853511E-01  0.70306477873E-01  0.91108557289E-01  0.51100000000E-03 0. -1.
</event>
<event>
 8    1  0.1106905E+005  0.1043930E+01  0.7957747E-01            NaN
         13   -1    0    0    0    0  0.00000000000E+00  0.00000000000E+00  0.74505805969E-08  0.10566000000E+00  0.10566000000E+00 0.  1.
     999900   -1    0    0    0    0 -0.00000000000E+00 -0.00000000000E+00 -0.74505805969E-08  0.93827000000E+00  0.93827000000E+00 0. -1.
     999902    2    1    2    0    0 -0.31003928522E-02 -0.91311920375E-03  0.22653396712E-01  0.10210471985E+01  0.10207907518E+01 0.  0.
     999903    2    3    3    0    0  0.86222012870E-01 -0.57635920385E-01  0.80378246424E-01  0.13283093731E+00  0.20670282717E-01 0.  0.
         14    1    1    2    0    0  0.31003928522E-02  0.91311920375E-03 -0.22653396712E-01  0.22882801513E-01  0.00000000000E+00 0. -1.
     999901    1    3    3    0    0 -0.89322405722E-01  0.56722801181E-01 -0.57724849712E-01  0.88821626117E+00  0.88000000000E+00 0. -1.
        -11    1    4    4    0    0  0.20095175737E-01 -0.13628716140E-01  0.30690025213E-01  0.39136897681E-01  0.51100000000E-03 0. -1.
         11    1    4    4    0    0  0.66126837133E-01 -0.44007204245E-01  0.49688221211E-01  0.93694039633E-01  0.51100000000E-03 0.  1.
</event>
<event>
 8    1  0.1106905E+005  0.1043930E+01  0.7957747E-01            NaN
         13   -1    0    0    0    0  0.00000000000E+00  0.00000000000E+00  0.74505805969E-08  0.10566000000E+00  0.10566000000E+00 0.  1.
     999900   -1    0    0    0    0 -0.00000000000E+00 -0.00000000000E+00 -0.74505805969E-08  0.93827000000E+00  0.93827000000E+00 0. -1.
     999902    2    1    2    0    0  0.19453213746E-01 -0.11738133963E-03 -0.14282957295E-01  0.10197961198E+01  0.10195105109E+01 0.  0.
     999903    2    3    3    0    0  0.99141579886E-01 -0.51291260832E-01 -0.69339828836E-01  0.13300400171E+00  0.20547659421E-01 0.  0.
         14    1    1    2    0    0 -0.19453213746E-01  0.11738133963E-03  0.14282957295E-01  0.24133880180E-01  0.00000000000E+00 0. -1.
     999901    1    3    3    0    0 -0.79688366140E-01  0.51173879492E-01  0.55056871541E-01  0.88679211811E+00  0.88000000000E+00 0. -1.
        -11    1    4    4    0    0  0.84807377439E-02 -0.90654109419E-02 -0.13935220773E-01  0.18669656858E-01  0.51100000000E-03 0.  1.
         11    1    4    4    0    0  0.90660842142E-01 -0.42225849890E-01 -0.55404608064E-01  0.11433434485E+00  0.51100000000E-03 0. -1.
</event>
<event>
 8    1  0.1106905E+005  0.1043930E+01  0.7957747E-01            NaN
         13   -1    0    0    0    0  0.00000000000E+00  0.00000000000E+00  0.74505805969E-08  0.10566000000E+00  0.10566000000E+00 0.  1.
     999900   -1    0    0    0    0 -0.00000000000E+00 -0.00000000000E+00 -0.74505805969E-08  0.93827000000E+00  0.93827000000E+00 0. -1.
     999902    2    1    2    0    0  0.16231859397E-01 -0.61846286102E-02  0.15995722835E-01  0.10203167402E+01  0.10200434619E+01 0.  0.
     999903    2    3    3    0    0 -0.59763939632E-01 -0.11380774106E+00  0.91485406408E-02  0.13048249735E+00  0.20446415662E-01 0.  0.
         14    1    1    2    0    0 -0.16231859397E-01  0.61846286102E-02 -0.15995722835E-01  0.23613259824E-01  0.00000000000E+00 0. -1.
     999901    1    3    3    0    0  0.75995799028E-01  0.10762311245E+00  0.68471821941E-02  0.88983424283E+00  0.88000000000E+00 0. -1.
        -11    1    4    4    0    0 -0.47408375921E-01 -0.79790523675E-01  0.14347302002E-01  0.93915855805E-01  0.51100000000E-03 0.  1.
         11    1    4    4    0    0 -0.12355563710E-01 -0.34017217384E-01 -0.51987613611E-02  0.36566641544E-01  0.51100000000E-03 0. -1.
</event>
<event>
 8    1  0.1106905E+005  0.1043930E+01  0.7957747E-01            NaN
         13   -1    0    0    0    0  0.00000000000E+00  0.00000000000E+00  0.74505805969E-08  0.10566000000E+00  0.10566000000E+00 0. -1.
     999900   -1    0    0    0    0 -0.00000000000E+00 -0.00000000000E+00 -0.74505805969E-08  0.93827000000E+00  0.93827000000E+00 0. -1.
     999902    2    1    2    0    0  0.98783661846E-02 -0.14431165710E-01 -0.12894305410E-01  0.10222020509E+01  0.10219710999E+01 0.  0.
     999903    2    3    3    0    0 -0.20804024017E-02  0.12698600135E+00 -0.21817386691E-01  0.13078663217E+00  0.22346636866E-01 0.  0.
         14    1    1    2    0    0 -0.98783661846E-02  0.14431165710E-01  0.12894305410E-01  0.21727949150E-01  0.00000000000E+00 0. -1.
     999901    1    3    3    0    0  0.11958768586E-01 -0.14141716706E+00  0.89230812803E-02  0.89141541868E+00  0.88000000000E+00 0. -1.
        -11    1    4    4    0    0  0.62465360799E-02  0.56941773621E-01 -0.18386210942E-01  0.60163931636E-01  0.51100000000E-03 0.  1.
         11    1    4    4    0    0 -0.83269384816E-02  0.70044227728E-01 -0.34311757486E-02  0.70622700532E-01  0.51100000000E-03 0. -1.
</event>
<event>
 8    1  0.1106905E+005  0.1043930E+01  0.7957747E-01            NaN
         13   -1    0    0    0    0  0.00000000000E+00  0.00000000000E+00  0.74505805969E-08  0.10566000000E+00  0.10566000000E+00 0.  1.
     999900   -1    0    0    0    0 -0.00000000000E+00 -0.00000000000E+00 -0.74505805969E-08  0.93827000000E+00  0.93827000000E+00 0.  1.
     999902    2    1    2    0    0  0.13292532833E-01  0.65045037520E-02  0.12372421038E-01  0.10246407076E+01  0.10244591270E+01 0.  0.
     999903    2    3    3    0    0  0.24858276678E-01  0.91892769803E-01  0.95857766746E-01  0.13649954465E+00  0.19524322859E-01 0.  0.
         14    1    1    2    0    0 -0.13292532833E-01 -0.65045037520E-02 -0.12372421038E-01  0.19289292380E-01  0.00000000000E+00 0. -1.
     999901    1    3    3    0    0 -0.11565743845E-01 -0.85388266051E-01 -0.83485345708E-01  0.88814116297E+00  0.88000000000E+00 0. -1.
        -11    1    4    4    0    0  0.22829600096E-01  0.82994782049E-01  0.76784957013E-01  0.11534953503E+00  0.51100000000E-03 0.  1.
         11    1    4    4    0    0  0.20286765823E-02  0.88979877543E-02  0.19072809733E-01  0.21150009619E-01  0.51100000000E-03 0. -1.
</event>
<event>
 8    1  0.1106905E+005  0.1043930E+01  0.7957747E-01            NaN
         13   -1    0    0    0    0  0.00000000000E+00  0.00000000000E+00  0.74505805969E-08  0.10566000000E+00  0.10566000000E+00 0. -1.
     999900   -1    0    0    0    0 -0.00000000000E+00 -0.00000000000E+00 -0.74505805969E-08  0.93827000000E+00  0.93827000000E+00 0. -1.
     999902    2    1    2    0    0  0.51986814449E-02 -0.23971192636E-01  0.22115699071E-02  0.10193020604E+01  0.10190044922E+01 0.  0.
     999903    2    3    3    0    0  0.10400280101E+00 -0.31805044069E-02  0.76069911010E-01  0.13045473874E+00  0.20127326515E-01 0.  0.
         14    1    1    2    0    0 -0.51986814449E-02  0.23971192636E-01 -0.22115699071E-02  0.24627939553E-01  0.00000000000E+00 0.  1.
     999901    1    3    3    0    0 -0.98804119561E-01 -0.20790688229E-01 -0.73858341103E-01  0.88884732171E+00  0.88000000000E+00 0. -1.
        -11    1    4    4    0    0  0.30267044634E-01 -0.43365981156E-02  0.33265959062E-01  0.45186117640E-01  0.51100000000E-03 0. -1.
         11    1    4    4    0    0  0.73735756373E-01  0.11560937087E-02  0.42803951948E-01  0.85268621098E-01  0.51100000000E-03 0.  1.
</event>
<event>
 8    1  0.1106905E+005  0.1043930E+01  0.7957747E-01            NaN
         13   -1    0    0    0    0  0.00000000000E+00  0.00000000000E+00  0.74505805969E-08  0.10566000000E+00  0.10566000000E+00 0.  1.
     999900   -1    0    0    0    0 -0.00000000000E+00 -0.00000000000E+00 -0.74505805969E-08  0.93827000000E+00  0.93827000000E+00 0. -1.
     999902    2    1    2    0    0  0.66014994501E-02 -0.24245905967E-02  0.24348638929E-01  0.10185860727E+01  0.10182707267E+01 0.  0.
     999903    2    3    3    0    0  0.57035318398E-01  0.11414778493E+00  0.14583748014E-02  0.12917241581E+00  0.20016038580E-01 0.  0.
         14    1    1    2    0    0 -0.66014994501E-02  0.24245905967E-02 -0.24348638929E-01  0.25343927325E-01  0.00000000000E+00 0. -1.
     999901    1    3    3    0    0 -0.50433818947E-01 -0.11657237552E+00  0.22890264128E-01  0.88941365687E+00  0.88000000000E+00 0. -1.
        -11    1    4    4    0    0  0.38272673504E-01  0.69762278579E-01 -0.82961085929E-02  0.80004122321E-01  0.51100000000E-03 0. -1.
         11    1    4    4    0    0  0.18762644894E-01  0.44385506347E-01  0.97544833943E-02  0.49168293487E-01  0.51100000000E-03 0.  1.
</event>
<event>
 8    1  0.1106905E+005  0.1043930E+01  0.7957747E-01            NaN
         13   -1    0    0    0    0  0.00000000000E+00  0.00000000000E+00  0.74505805969E-08  0.10566000000E+00  0.10566000000E+00 0.  1.
     999900   -1    0    0    0    0 -0.00000000000E+00 -0.00000000000E+00 -0.74505805969E-08  0.93827000000E+00  0.93827000000E+00 0.  1.
     999902    2    1    2    0    0  0.89787053389E-02  0.23442893750E-01  0.60005581954E-03  0.10188193153E+01  0.10185098187E+01 0.  0.
     999903    2    3    3    0    0  0.21890032747E-01 -0.17278482243E-03 -0.12632181385E+00  0.12930621052E+00  0.16843159949E-01 0.  0.
         14    1    1    2    0    0 -0.89787053389E-02 -0.23442893750E-01 -0.60005581954E-03  0.25110684656E-01  0.00000000000E+00 0.  1.
     999901    1    3    3    0    0 -0.12911327408E-01  0.23615678572E-01  0.12692186967E+00  0.88951310482E+00  0.88000000000E+00 0. -1.
        -11    1    4    4    0    0  0.68869616324E-02  0.21279355365E-02 -0.12209486268E-01  0.14187706865E-01  0.51100000000E-03 0. -1.
         11    1    4    4    0    0  0.15003071115E-01 -0.23007203590E-02 -0.11411232758E+00  0.11511850366E+00  0.51100000000E-03 0.  1.
</event>
<event>
 8    1  0.1106905E+005  0.1043930E+01  0.7957747E-01            NaN
         13   -1    0    0    0    0  0.00000000000E+00  0.00000000000E+00  0.74505805969E-08  0.10566000000E+00  0.10566000000E+00 0. -1.
     999900   -1    0    0    0    0 -0.00000000000E+00 -0.00000000000E+00 -0.74505805969E-08  0.93827000000E+00  0.93827000000E+00 0. -1.
     999902    2    1    2    0    0  0.22854375392E-01 -0.63762635716E-02 -0.20233802434E-02  0.10201166995E+01  0.10198387164E+01 0.  0.
     999903    2    3    3    0    0 -0.10762412047E-01  0.71842307979E-03  0.12802329117E+00  0.12989618768E+00  0.19149695716E-01 0.  0.
         14    1    1    2    0    0 -0.22854375392E-01  0.63762635716E-02  0.20233802434E-02  0.23813300471E-01  0.00000000000E+00 0. -1.
     999901    1    3    3    0    0  0.33616787439E-01 -0.70946866514E-02 -0.13004667141E+00  0.89022051185E+00  0.88000000000E+00 0. -1.
        -11    1    4    4    0    0 -0.12229266830E-01  0.62506992712E-02  0.11262861398E+00  0.11346405605E+00  0.51100000000E-03 0.  1.
         11    1    4    4    0    0  0.14668547824E-02 -0.55322761914E-02  0.15394677192E-01  0.16432131623E-01  0.51100000000E-03 0. -1.
</event>
<event>
 8    1  0.1106905E+005  0.1043930E+01  0.7957747E-01            NaN
         13   -1    0    0    0    0  0.00000000000E+00  0.00000000000E+00  0.74505805969E-08  0.10566000000E+00  0.10566000000E+00 0. -1.
     999900   -1    0    0    0    0 -0.00000000000E+00 -0.00000000000E+00 -0.74505805969E-08  0.93827000000E+00  0.93827000000E+00 0. -1.
     999902    2    1    2    0    0 -0.18455186674E-01  0.80241180037E-02 -0.14157953568E-01  0.10193245528E+01  0.10190275344E+01 0.  0.
     999903    2    3    3    0    0 -0.92432073343E-03  0.11188305591E+00  0.62400904189E-01  0.12974303938E+00  0.20511237246E-01 0.  0.
         14    1    1    2    0    0  0.18455186674E-01 -0.80241180037E-02  0.14157953568E-01  0.24605447245E-01  0.00000000000E+00 0. -1.
     999901    1    3    3    0    0 -0.17530865941E-01 -0.10385893791E+00 -0.76558857757E-01  0.88958151338E+00  0.88000000000E+00 0.  1.
        -11    1    4    4    0    0 -0.64625877349E-02  0.45769629366E-01  0.16573807370E-01  0.49107802071E-01  0.51100000000E-03 0. -1.
         11    1    4    4    0    0  0.55382670014E-02  0.66113426548E-01  0.45827096819E-01  0.80635237304E-01  0.51100000000E-03 0.  1.
</event>
<event>
 8    1  0.1106905E+005  0.1043930E+01  0.7957747E-01            NaN
         13   -1    0    0    0    0  0.00000000000E+00  0.00000000000E+00  0.74505805969E-08  0.10566000000E+00  0.10566000000E+00 0.  1.
     999900   -1    0    0    0    0 -0.00000000000E+00 -0.00000000000E+00 -0.74505805969E-08  0.93827000000E+00  0.93827000000E+00 0.  1.
     999902    2    1    2    0    0 -0.86334252372E-02 -0.20032452299E-01  0.11782571925E-01  0.10191375782E+01  0.10188359727E+01 0.  0.
     999903    2    3    3    0    0  0.11536665667E-01  0.12016244437E+00 -0.33324971032E-01  0.12667125838E+00  0.19051149911E-01 0.  0.
         14    1    1    2    0    0  0.86334252372E-02  0.20032452299E-01 -0.11782571925E-01  0.24792421778E-01  0.00000000000E+00 0. -1.
     999901    1    3    3    0    0 -0.20170090904E-01 -0.14019489667E+00  0.45107542957E-01  0.89246631984E+00  0.88000000000E+00 0.  1.
        -11    1    4    4    0    0  0.15394454407E-01  0.64967513152E-01 -0.20878768256E-01  0.69956780061E-01  0.51100000000E-03 0.  1.
         11    1    4    4    0    0 -0.38577887398E-02  0.55194931222E-01 -0.12446202776E-01  0.56714478320E-01  0.51100000000E-03 0. -1.
</event>
<event>
 8    1  0.1106905E+005  0.1043930E+01  0.7957747E-01            NaN
         13   -1    0    0    0    0  0.00000000000E+00  0.00000000000E+00  0.74505805969E-08  0.10566000000E+00  0.10566000000E+00 0.  1.
     999900   -1    0    0    0    0 -0.00000000000E+00 -0.00000000000E+00 -0.74505805969E-08  0.93827000000E+00  0.93827000000E+00 0.  1.
     999902    2    1    2    0    0  0.17253064997E-01  0.10602783125E-01 -0.12264205654E-01  0.10202551610E+01  0.10199804388E+01 0.  0.
     999903    2    3    3    0    0 -0.25088420265E-01 -0.11302473585E+00 -0.54752084445E-01  0.12959148447E+00  0.19802584471E-01 0.  0.
         14    1    1    2    0    0 -0.17253064997E-01 -0.10602783125E-01  0.12264205654E-01  0.23674839009E-01  0.00000000000E+00 0.  1.
     999901    1    3    3    0    0  0.42341485262E-01  0.12362751898E+00  0.42487878791E-01  0.89066367652E+00  0.88000000000E+00 0.  1.
        -11    1    4    4    0    0 -0.40999045486E-02 -0.41321316770E-01 -0.10801128857E-01  0.42909042666E-01  0.51100000000E-03 0.  1.
         11    1    4    4    0    0 -0.20988515716E-01 -0.71703419080E-01 -0.43950955588E-01  0.86682441809E-01  0.51100000000E-03 0. -1.
</event>
<event>
 8    1  0.1106905E+005  0.1043930E+01  0.7957747E-01            NaN
         13   -1    0    0    0    0  0.00000000000E+00  0.00000000000E+00  0.74505805969E-08  0.10566000000E+00  0.10566000000E+00 0.  1.
     999900   -1    0    0    0    0 -0.00000000000E+00 -0.00000000000E+00 -0.74505805969E-08  0.93827000000E+00  0.93827000000E+00 0.  1.
     999902    2    1    2    0    0 -0.18411034569E-01 -0.14961501393E-01 -0.51538725861E-02  0.10196529507E+01  0.10193639021E+01 0.  0.
     999903    2    3    3    0    0 -0.55230288391E-01 -0.11743047347E+00  0.19368844605E-01  0.13260339669E+00  0.19188741949E-01 0.  0.
         14    1    1    2    0    0  0.18411034569E-01  0.14961501393E-01  0.51538725861E-02  0.24277049254E-01  0.00000000000E+00 0.  1.
     999901    1    3    3    0    0  0.36819253822E-01  0.10246897208E+00 -0.24522717191E-01  0.88704955405E+00  0.88000000000E+00 0.  1.
        -11    1    4    4    0    0 -0.13997653429E-01 -0.37744166647E-01  0.14347500075E-01  0.42739540204E-01  0.51100000000E-03 0.  1.
         11    1    4    4    0    0 -0.41232634962E-01 -0.79686306822E-01  0.50213445301E-02  0.89863856487E-01  0.51100000000E-03 0. -1.
</event>
<event>
 8    1  0.1106905E+005  0.1043930E+01  0.7957747E-01            NaN
         13   -1    0    0    0    0  0.00000000000E+00  0.00000000000E+00  0.74505805969E-08  0.10566000000E+00  0.10566000000E+00 0.  1.
     999900   -1    0    0    0    0 -0.00000000000E+00 -0.00000000000E+00 -0.74505805969E-08  0.93827000000E+00  0.93827000000E+00 0. -1.
     999902    2    1    2    0    0  0.19708820627E-01  0.11368407385E-01  0.11850331211E-02  0.10211466157E+01  0.10208924175E+01 0.  0.
     999903    2    3    3    0    0  0.49466140822E-02  0.12919707662E+00 -0.20690944569E-01  0.13290111110E+00  0.22764809368E-01 0.  0.
         14    1    1    2    0    0 -0.19708820627E-01 -0.11368407385E-01 -0.11850331211E-02  0.22783384307E-01  0.00000000000E+00 0.  1.
     999901    1    3    3    0    0  0.14762206545E-01 -0.11782866923E+00  0.21875977690E-01  0.88824550460E+00  0.88000000000E+00 0. -1.
        -11    1    4    4    0    0  0.11568336871E-01  0.85638280020E-01 -0.20599354885E-01  0.88838820149E-01  0.51100000000E-03 0.  1.
         11    1    4    4    0    0 -0.66217227884E-02  0.43558796600E-01 -0.91589683956E-04  0.44062290948E-01  0.51100000000E-03 0. -1.
</event>
<event>
 8    1  0.1106905E+005  0.1043930E+01  0.7957747E-01            NaN
         13   -1    0    0    0    0  0.00000000000E+00  0.00000000000E+00  0.74505805969E-08  0.10566000000E+00  0.10566000000E+00 0. -1.
     999900   -1    0    0    0    0 -0.00000000000E+00 -0.00000000000E+00 -0.74505805969E-08  0.93827000000E+00  0.93827000000E+00 0.  1.
     999902    2    1    2    0    0  0.12760230806E-01  0.17994089847E-01 -0.31852568204E-02  0.10216419624E+01  0.10213988167E+01 0.  0.
     999903    2    3    3    0    0  0.31792175468E-01  0.11463998721E-02  0.12680291449E+00  0.13173017785E+00  0.16180357870E-01 0.  0.
         14    1    1    2    0    0 -0.12760230806E-01 -0.17994089847E-01  0.31852568204E-02  0.22288037613E-01  0.00000000000E+00 0.  1.
     999901    1    3    3    0    0 -0.19031944662E-01  0.16847689975E-01 -0.12998817131E+00  0.88991178454E+00  0.88000000000E+00 0.  1.
        -11    1    4    4    0    0  0.29634169145E-01  0.49363823342E-02  0.11940280047E+00  0.12312530907E+00  0.51100000000E-03 0.  1.
         11    1    4    4    0    0  0.21580063236E-02 -0.37899824621E-02  0.74001140137E-02  0.86048687830E-02  0.51100000000E-03 0. -1.
</event>
<event>
 8    1  0.1106905E+005  0.1043930E+01  0.7957747E-01            NaN
         13   -1    0    0    0    0  0.00000000000E+00  0.00000000000E+00  0.74505805969E-08  0.10566000000E+00  0.10566000000E+00 0.  1.
     999900   -1    0    0    0    0 -0.00000000000E+00 -0.00000000000E+00 -0.74505805969E-08  0.93827000000E+00  0.93827000000E+00 0.  1.
     999902    2    1    2    0    0 -0.11287077725E-01 -0.90931714432E-03  0.20365644073E-01  0.10206279735E+01  0.10203619337E+01 0.  0.
     999903    2    3    3    0    0  0.10734022127E+00 -0.69864632006E-01 -0.32309131599E-02  0.12968236963E+00  0.20101947295E-01 0.  0.
         14    1    1    2    0    0  0.11287077725E-01  0.90931714432E-03 -0.20365644073E-01  0.23302026515E-01  0.00000000000E+00 0. -1.
     999901    1    3    3    0    0 -0.11862729900E+00  0.68955314862E-01  0.23596557232E-01  0.89094560385E+00  0.88000000000E+00 0.  1.
        -11    1    4    4    0    0  0.42444438495E-01 -0.28451484870E-01 -0.11110740344E-01  0.52294617529E-01  0.51100000000E-03 0.  1.
         11    1    4    4    0    0  0.64895782776E-01 -0.41413147136E-01  0.78798271837E-02  0.77387752101E-01  0.51100000000E-03 0. -1.
</event>
<event>
 8    1  0.1106905E+005  0.1043930E+01  0.7957747E-01            NaN
         13   -1    0    0    0    0  0.00000000000E+00  0.00000000000E+00  0.74505805969E-08  0.10566000000E+00  0.10566000000E+00 0.  1.
     999900   -1    0    0    0    0 -0.00000000000E+00 -0.00000000000E+00 -0.74505805969E-08  0.93827000000E+00  0.93827000000E+00 0. -1.
     999902    2    1    2    0    0  0.20770568018E-01 -0.11241974486E-01 -0.44339624989E-02  0.10198996336E+01  0.10196164985E+01 0.  0.
     999903    2    3    3    0    0 -0.96817975784E-01 -0.68933626822E-02  0.80908956511E-01  0.12797509089E+00  0.20251561919E-01 0.  0.
         14    1    1    2    0    0 -0.20770568018E-01  0.11241974486E-01  0.44339624989E-02  0.24030366405E-01  0.00000000000E+00 0.  1.
     999901    1    3    3    0    0  0.11758854380E+00 -0.43486118034E-02 -0.85342919010E-01  0.89192454271E+00  0.88000000000E+00 0. -1.
        -11    1    4    4    0    0 -0.16185585716E-01  0.15651164879E-02  0.52900304969E-02  0.17107551498E-01  0.51100000000E-03 0.  1.
         11    1    4    4    0    0 -0.80632390068E-01 -0.84584791701E-02  0.75618926014E-01  0.11086753939E+00  0.51100000000E-03 0. -1.
</event>
<event>
 8    1  0.1106905E+005  0.1043930E+01  0.7957747E-01            NaN
         13   -1    0    0    0    0  0.00000000000E+00  0.00000000000E+00  0.74505805969E-08  0.10566000000E+00  0.10566000000E+00 0.  1.
     999900   -1    0    0    0    0 -0.00000000000E+00 -0.00000000000E+00 -0.74505805969E-08  0.93827000000E+00  0.93827000000E+00 0.  1.
     999902    2    1    2    0    0  0.24725799495E-01 -0.65652919796E-02 -0.29298058131E-02  0.10181802042E+01  0.10178545458E+01 0.  0.
     999903    2    3    3    0    0  0.89136763407E-02  0.11720401404E+00  0.46645057474E-01  0.12799677853E+00  0.19778255574E-01 0.  0.
         14    1    1    2    0    0 -0.24725799495E-01  0.65652919796E-02  0.29298058131E-02  0.25749795758E-01  0.00000000000E+00 0.  1.
     999901    1    3    3    0    0  0.15812123155E-01 -0.12376930602E+00 -0.49574863287E-01  0.89018342572E+00  0.88000000000E+00 0.  1.
        -11    1    4    4    0    0 -0.40982654626E-02  0.71429133741E-01  0.26097859113E-01  0.76159545023E-01  0.51100000000E-03 0. -1.
         11    1    4    4    0    0  0.13011941803E-01  0.45774880297E-01  0.20547198360E-01  0.51837233503E-01  0.51100000000E-03 0.  1.
</event>
<event>
 8    1  0.1106905E+005  0.1043930E+01  0.7957747E-01            NaN
         13   -1    0    0    0    0  0.00000000000E+00  0.00000000000E+00  0.74505805969E-08  0.10566000000E+00  0.10566000000E+00 0. -1.
     999900   -1    0    0    0    0 -0.00000000000E+00 -0.00000000000E+00 -0.74505805969E-08  0.93827000000E+00  0.93827000000E+00 0.  1.
     999902    2    1    2    0    0 -0.12526827444E-01 -0.97433134438E-02 -0.18196877447E-01  0.10197850231E+01  0.10194991483E+01 0.  0.
     999903    2    3    3    0    0 -0.46551011118E-01 -0.12090833649E+00  0.11678905442E-01  0.13163646013E+00  0.20147911449E-01 0.  0.
         14    1    1    2    0    0  0.12526827444E-01  0.97433134438E-02  0.18196877447E-01  0.24144976941E-01  0.00000000000E+00 0. -1.
     999901    1    3    3    0    0  0.34024183675E-01  0.11116502304E+00 -0.29875782889E-01  0.88814856293E+00  0.88000000000E+00 0.  1.
        -11    1    4    4    0    0 -0.17415387072E-01 -0.37387796204E-01  0.12744296924E-01  0.43171995981E-01  0.51100000000E-03 0.  1.
         11    1    4    4    0    0 -0.29135624047E-01 -0.83520540283E-01 -0.10653914821E-02  0.88464464153E-01  0.51100000000E-03 0. -1.
</event>
<event>
 8    1  0.1106905E+005  0.1043930E+01  0.7957747E-01            NaN
         13   -1    0    0    0    0  0.00000000000E+00  0.00000000000E+00  0.74505805969E-08  0.10566000000E+00  0.10566000000E+00 0. -1.
     999900   -1    0    0    0    0 -0.00000000000E+00 -0.00000000000E+00 -0.74505805969E-08  0.93827000000E+00  0.93827000000E+00 0. -1.
     999902    2    1    2    0    0  0.19689607941E-01  0.53200388753E-02 -0.13995280102E-01  0.10191943710E+01  0.10188941626E+01 0.  0.
     999903    2    3    3    0    0 -0.70475915008E-01 -0.37785652105E-01 -0.99757090438E-01  0.12939494970E+00  0.19924000936E-01 0.  0.
         14    1    1    2    0    0 -0.19689607941E-01 -0.53200388753E-02  0.13995280102E-01  0.24735628952E-01  0.00000000000E+00 0. -1.
     999901    1    3    3    0    0  0.90165522949E-01  0.43105690980E-01  0.85761810336E-01  0.88979942135E+00  0.88000000000E+00 0.  1.
        -11    1    4    4    0    0 -0.35190006153E-01 -0.27186894095E-01 -0.43977293293E-01  0.62543802170E-01  0.51100000000E-03 0. -1.
         11    1    4    4    0    0 -0.35285908855E-01 -0.10598758010E-01 -0.55779797146E-01  0.66851147527E-01  0.51100000000E-03 0.  1.
</event>
<event>
 8    1  0.1106905E+005  0.1043930E+01  0.7957747E-01            NaN
         13   -1    0    0    0    0  0.00000000000E+00  0.00000000000E+00  0.74505805969E-08  0.10566000000E+00  0.10566000000E+00 0.  1.
     999900   -1    0    0    0    0 -0.00000000000E+00 -0.00000000000E+00 -0.74505805969E-08  0.93827000000E+00  0.93827000000E+00 0.  1.
     999902    2    1    2    0    0  0.10662468538E-01 -0.20238158727E-01 -0.71774202816E-03  0.10210436185E+01  0.10207870907E+01 0.  0.
     999903    2    3    3    0    0  0.43577027653E-01  0.99365758194E-01 -0.68113811495E-01  0.12979129996E+00  0.20827361530E-01 0.  0.
         14    1    1    2    0    0 -0.10662468538E-01  0.20238158727E-01  0.71774202816E-03  0.22886381488E-01  0.00000000000E+00 0.  1.
     999901    1    3    3    0    0 -0.32914559115E-01 -0.11960391692E+00  0.67396069467E-01  0.89125231855E+00  0.88000000000E+00 0. -1.
        -11    1    4    4    0    0  0.24826651165E-01  0.59467074981E-01 -0.28287566617E-01  0.70378570324E-01  0.51100000000E-03 0. -1.
         11    1    4    4    0    0  0.18750376488E-01  0.39898683214E-01 -0.39826244879E-01  0.59412729636E-01  0.51100000000E-03 0.  1.
</event>
<event>
 8    1  0.1106905E+005  0.1043930E+01  0.7957747E-01            NaN
         13   -1    0    0    0    0  0.00000000000E+00  0.00000000000E+00  0.74505805969E-08  0.10566000000E+00  0.10566000000E+00 0.  1.
     999900   -1    0    0    0    0 -0.00000000000E+00 -0.00000000000E+00 -0.74505805969E-08  0.93827000000E+00  0.93827000000E+00 0.  1.
     999902    2    1    2    0    0  0.17072076304E-01 -0.86791006957E-02 -0.11238315911E-01  0.10217245430E+01  0.10214832154E+01 0.  0.
     999903    2    3    3    0    0  0.13142457992E+00  0.12790762808E-01  0.93493268194E-02  0.13382741988E+00  0.19655650045E-01 0.  0.
         14    1    1    2    0    0 -0.17072076304E-01  0.86791006957E-02  0.11238315911E-01  0.22205457048E-01  0.00000000000E+00 0. -1.
     999901    1    3    3    0    0 -0.11435250362E+00 -0.21469863504E-01 -0.20587642730E-01  0.88789712307E+00  0.88000000000E+00 0.  1.
        -11    1    4    4    0    0  0.81979631139E-01  0.17407025477E-01  0.72178353971E-02  0.84119098465E-01  0.51100000000E-03 0.  1.
         11    1    4    4    0    0  0.49444948785E-01 -0.46162626694E-02  0.21314914223E-02  0.49708321417E-01  0.51100000000E-03 0. -1.
</event>
<event>
 8    1  0.1106905E+005  0.1043930E+01  0.7957747E-01            NaN
         13   -1    0    0    0    0  0.00000000000E+00  0.00000000000E+00  0.74505805969E-08  0.10566000000E+00  0.10566000000E+00 0.  1.
     999900   -1    0    0    0    0 -0.00000000000E+00 -0.00000000000E+00 -0.74505805969E-08  0.93827000000E+00  0.93827000000E+00 0.  1.
     999902    2    1    2    0    0 -0.17165412658E-01 -0.15709169675E-01 -0.42720672172E-02  0.10202724439E+01  0.10199981273E+01 0.  0.
     999903    2    3    3    0    0 -0.10664040795E+00 -0.70822272430E-01 -0.32926761374E-01  0.13355697633E+00  0.19113435912E-01 0.  0.
         14    1    1    2    0    0  0.17165412658E-01  0.15709169675E-01  0.42720672172E-02  0.23657556127E-01  0.00000000000E+00 0.  1.
     999901    1    3    3    0    0  0.89474995293E-01  0.55113102755E-01  0.28654694157E-01  0.88671546754E+00  0.88000000000E+00 0. -1.
        -11    1    4    4    0    0 -0.10129775577E+00 -0.61540749690E-01 -0.32133937206E-01  0.12280614902E+00  0.51100000000E-03 0. -1.
         11    1    4    4    0    0 -0.53426521843E-02 -0.92815227400E-02 -0.79282416769E-03  0.10750827312E-01  0.51100000000E-03 0.  1.
</event>
<event>
 8    1  0.1106905E+005  0.1043930E+01  0.7957747E-01            NaN
         13   -1    0    0    0    0  0.00000000000E+00  0.00000000000E+00  0.74505805969E-08  0.10566000000E+00  0.10566000000E+00 0.  1.
     999900   -1    0    0    0    0 -0.00000000000E+00 -0.00000000000E+00 -0.74505805969E-08  0.93827000000E+00  0.93827000000E+00 0.  1.
     999902    2    1    2    0    0 -0.23735661760E-01 -0.42872914737E-02 -0.12712559702E-01  0.10166651567E+01  0.10162994977E+01 0.  0.
     999903    2    3    3    0    0  0.90227566428E-01 -0.91047165207E-02 -0.85685956097E-01  0.12630795782E+00  0.19690290275E-01 0.  0.
         14    1    1    2    0    0  0.23735661760E-01  0.42872914737E-02  0.12712559702E-01  0.27264843325E-01  0.00000000000E+00 0. -1.
     999901    1    3    3    0    0 -0.11396322819E+00  0.48174250470E-02  0.72973396396E-01  0.89035719885E+00  0.88000000000E+00 0.  1.
        -11    1    4    4    0    0  0.58538140442E-01 -0.13904533053E-01 -0.49053511259E-01  0.77630908880E-01  0.51100000000E-03 0.  1.
         11    1    4    4    0    0  0.31689425986E-01  0.47998165319E-02 -0.36632444839E-01  0.48677048945E-01  0.51100000000E-03 0. -1.
</event>
<event>
 7    1  0.1106905E+005  0.1043930E+01  0.7957747E-01            NaN
         13   -1    0    0    0    0  0.00000000000E+00  0.00000000000E+00  0.74505805969E-08  0.10566000000E+00  0.10566000000E+00 0.  1.
     999900   -1    0    0    0    0 -0.00000000000E+00 -0.00000000000E+00 -0.74505805969E-08  0.93827000000E+00  0.93827000000E+00 0.  1.
     999903    2    1    2    0    0 -0.64269279992E-01 -0.22793844871E-01 -0.85435399370E-01  0.11110460031E+00  0.19872720738E-01 0.  0.
         14    1    1    2    0    0 -0.15310304227E-01  0.42206346322E-01 -0.41225697719E-04  0.44897469694E-01  0.00000000000E+00 0.  1.
     999901    1    1    2    0    0  0.79579584220E-01 -0.19412501451E-01  0.85476625067E-01  0.88792793000E+00  0.88000000000E+00 0. -1.
        -11    1    3    3    0    0 -0.54067717792E-01 -0.26142389036E-01 -0.69130716009E-01  0.91575431359E-01  0.51100000000E-03 0. -1.
         11    1    3    3    0    0 -0.10201562201E-01  0.33485441652E-02 -0.16304683361E-01  0.19529168950E-01  0.51100000000E-03 0.  1.
</event>
<event>
 8    1  0.1106905E+005  0.1043930E+01  0.7957747E-01            NaN
         13   -1    0    0    0    0  0.00000000000E+00  0.00000000000E+00  0.74505805969E-08  0.10566000000E+00  0.10566000000E+00 0.  1.
     999900   -1    0    0    0    0 -0.00000000000E+00 -0.00000000000E+00 -0.74505805969E-08  0.93827000000E+00  0.93827000000E+00 0.  1.
     999902    2    1    2    0    0 -0.39532805428E-02  0.15885847495E-01 -0.16297085821E-01  0.10208305718E+01  0.10205691906E+01 0.  0.
     999903    2    3    3    0    0  0.24431070568E-01 -0.75485556724E-01  0.98280471558E-01  0.12825989024E+00  0.22284565770E-01 0.  0.
         14    1    1    2    0    0  0.39532805428E-02 -0.15885847495E-01  0.16297085821E-01  0.23099428216E-01  0.00000000000E+00 0.  1.
     999901    1    3    3    0    0 -0.28384351111E-01  0.91371404219E-01 -0.11457755738E+00  0.89257068154E+00  0.88000000000E+00 0.  1.
        -11    1    4    4    0    0  0.11468962660E-01 -0.62911085839E-01  0.71163117218E-01  0.95675452438E-01  0.51100000000E-03 0. -1.
         11    1    4    4    0    0  0.12962107909E-01 -0.12574470885E-01  0.27117354340E-01  0.32584437802E-01  0.51100000000E-03 0.  1.
</event>
<event>
 8    1  0.1106905E+005  0.1043930E+01  0.7957747E-01            NaN
         13   -1    0    0    0    0  0.00000000000E+00  0.00000000000E+00  0.74505805969E-08  0.10566000000E+00  0.10566000000E+00 0.  1.
     999900   -1    0    0    0    0 -0.00000000000E+00 -0.00000000000E+00 -0.74505805969E-08  0.93827000000E+00  0.93827000000E+00 0.  1.
     999902    2    1    2    0    0 -0.14991655516E-01 -0.18035444732E-01 -0.30271281985E-02  0.10202827907E+01  0.10200087169E+01 0.  0.
     999903    2    3    3    0    0 -0.11538116475E+00 -0.49014595825E-01  0.38792879967E-01  0.13304737976E+00  0.21942514475E-01 0.  0.
         14    1    1    2    0    0  0.14991655516E-01  0.18035444732E-01  0.30271281985E-02  0.23647209284E-01  0.00000000000E+00 0.  1.
     999901    1    3    3    0    0  0.10038950924E+00  0.30979151093E-01 -0.41820008165E-01  0.88723541095E+00  0.88000000000E+00 0.  1.
        -11    1    4    4    0    0 -0.82563309729E-01 -0.45312836413E-01  0.27003921202E-01  0.97976661192E-01  0.51100000000E-03 0. -1.
         11    1    4    4    0    0 -0.32817855026E-01 -0.37017594121E-02  0.11788958765E-01  0.35070718570E-01  0.51100000000E-03 0.  1.
</event>
<event>
 8    1  0.1106905E+005  0.1043930E+01  0.7957747E-01            NaN
         13   -1    0    0    0    0  0.00000000000E+00  0.00000000000E+00  0.74505805969E-08  0.10566000000E+00  0.10566000000E+00 0. -1.
     999900   -1    0    0    0    0 -0.00000000000E+00 -0.00000000000E+00 -0.74505805969E-08  0.93827000000E+00  0.93827000000E+00 0.  1.
     999902    2    1    2    0    0 -0.29025874159E-02  0.17265201884E-01 -0.16036211561E-01  0.10201882163E+01  0.10199119200E+01 0.  0.
     999903    2    3    3    0    0  0.13883053624E-01  0.44129817164E-01  0.11912079561E+00  0.12930613555E+00  0.19751779728E-01 0.  0.
         14    1    1    2    0    0  0.29025874159E-02 -0.17265201884E-01  0.16036211561E-01  0.23741783653E-01  0.00000000000E+00 0. -1.
     999901    1    3    3    0    0 -0.16785641040E-01 -0.26864615279E-01 -0.13515700717E+00  0.89088208080E+00  0.88000000000E+00 0.  1.
        -11    1    4    4    0    0 -0.27062206702E-02  0.14767276854E-02  0.18541364470E-01  0.18802863409E-01  0.51100000000E-03 0. -1.
         11    1    4    4    0    0  0.16589274295E-01  0.42653089478E-01  0.10057943114E+00  0.11050327214E+00  0.51100000000E-03 0.  1.
</event>
<event>
 8    1  0.1106905E+005  0.1043930E+01  0.7957747E-01            NaN
         13   -1    0    0    0    0  0.00000000000E+00  0.00000000000E+00  0.74505805969E-08  0.10566000000E+00  0.10566000000E+00 0. -1.
     999900   -1    0    0    0    0 -0.00000000000E+00 -0.00000000000E+00 -0.74505805969E-08  0.93827000000E+00  0.93827000000E+00 0. -1.
     999902    2    1    2    0    0  0.21927637402E-01 -0.62780775810E-02 -0.13851029459E-02  0.10210793096E+01  0.10208235903E+01 0.  0.
     999903    2    3    3    0    0  0.43980044671E-01 -0.12112248852E+00  0.25525230961E-01  0.13293533850E+00  0.20380511561E-01 0.  0.
         14    1    1    2    0    0 -0.21927637402E-01  0.62780775810E-02  0.13851029459E-02  0.22850690369E-01  0.00000000000E+00 0. -1.
     999901    1    3    3    0    0 -0.22052407269E-01  0.11484441094E+00 -0.26910333907E-01  0.88814397113E+00  0.88000000000E+00 0.  1.
        -11    1    4    4    0    0  0.25917773162E-01 -0.94508478588E-01  0.15337469293E-01  0.99192149770E-01  0.51100000000E-03 0. -1.
         11    1    4    4    0    0  0.18062271510E-01 -0.26614009931E-01  0.10187761668E-01  0.33743188728E-01  0.51100000000E-03 0.  1.
</event>
<event>
 8    1  0.1106905E+005  0.1043930E+01  0.7957747E-01            NaN
         13   -1    0    0    0    0  0.00000000000E+00  0.00000000000E+00  0.74505805969E-08  0.10566000000E+00  0.10566000000E+00 0. -1.
     999900   -1    0    0    0    0 -0.00000000000E+00 -0.00000000000E+00 -0.74505805969E-08  0.93827000000E+00  0.93827000000E+00 0. -1.
     999902    2    1    2    0    0 -0.60692469927E-02 -0.22157132630E-01  0.23408867853E-02  0.10208377061E+01  0.10205764882E+01 0.  0.
     999903    2    3    3    0    0  0.76284331384E-01  0.77310260713E-01  0.67228764083E-01  0.12904944043E+00  0.18381396281E-01 0.  0.
         14    1    1    2    0    0  0.60692469927E-02  0.22157132630E-01 -0.23408867853E-02  0.23092293875E-01  0.00000000000E+00 0.  1.
     999901    1    3    3    0    0 -0.82353578377E-01 -0.99467393343E-01 -0.64887877297E-01  0.89178826569E+00  0.88000000000E+00 0.  1.
        -11    1    4    4    0    0  0.29595606140E-02  0.96412054906E-02  0.36595518006E-02  0.10740823186E-01  0.51100000000E-03 0.  1.
         11    1    4    4    0    0  0.73324770770E-01  0.67669055223E-01  0.63569212282E-01  0.11830861724E+00  0.51100000000E-03 0. -1.
</event>
<event>
 8    1  0.1106905E+005  0.1043930E+01  0.7957747E-01            NaN
         13   -1    0    0    0    0  0.00000000000E+00  0.00000000000E+00  0.74505805969E-08  0.10566000000E+00  0.10566000000E+00 0. -1.
     999900   -1    0    0    0    0 -0.00000000000E+00 -0.00000000000E+00 -0.74505805969E-08  0.93827000000E+00  0.93827000000E+00 0. -1.
     999902    2    1    2    0    0 -0.94311891055E-02  0.14697919683E-01  0.16037714636E-01  0.10202195706E+01  0.10199440121E+01 0.  0.
     999903    2    3    3    0    0 -0.36698962282E-01  0.89825555552E-01  0.89538493682E-01  0.13354597924E+00  0.20048502600E-01 0.  0.
         14    1    1    2    0    0  0.94311891055E-02 -0.14697919683E-01 -0.16037714636E-01  0.23710429386E-01  0.00000000000E+00 0.  1.
     999901    1    3    3    0    0  0.27267773176E-01 -0.75127635870E-01 -0.73500779046E-01  0.88667359138E+00  0.88000000000E+00 0. -1.
        -11    1    4    4    0    0 -0.24630008648E-01  0.41112553028E-01  0.34460076020E-01  0.59030816552E-01  0.51100000000E-03 0. -1.
         11    1    4    4    0    0 -0.12068953634E-01  0.48713002524E-01  0.55078417661E-01  0.74515162684E-01  0.51100000000E-03 0.  1.
</event>
<event>
 8    1  0.1106905E+005  0.1043930E+01  0.7957747E-01            NaN
         13   -1    0    0    0    0  0.00000000000E+00  0.00000000000E+00  0.74505805969E-08  0.10566000000E+00  0.10566000000E+00 0.  1.
     999900   -1    0    0    0    0 -0.00000000000E+00 -0.00000000000E+00 -0.74505805969E-08  0.93827000000E+00  0.93827000000E+00 0. -1.
     999902    2    1    2    0    0  0.67796225091E-02  0.22588004086E-01 -0.13970941827E-02  0.10203051596E+01  0.10200316101E+01 0.  0.
     999903    2    3    3    0    0 -0.36865376547E-01  0.11355279220E+00  0.54582094272E-01  0.13277310492E+00  0.19904767497E-01 0.  0.
         14    1    1    2    0    0 -0.67796225091E-02 -0.22588004086E-01  0.13970941827E-02  0.23624840362E-01  0.00000000000E+00 0.  1.
     999901    1    3    3    0    0  0.43644999056E-01 -0.90964788116E-01 -0.55979188455E-01  0.88753205472E+00  0.88000000000E+00 0. -1.
        -11    1    4    4    0    0 -0.46068743164E-02  0.60214899854E-02  0.85412211487E-02  0.11432200677E-01  0.51100000000E-03 0.  1.
         11    1    4    4    0    0 -0.32258502231E-01  0.10753130222E+00  0.46040873123E-01  0.12134090424E+00  0.51100000000E-03 0. -1.
</event>
<event>
 8    1  0.1106905E+005  0.1043930E+01  0.7957747E-01            NaN
         13   -1    0    0    0    0  0.00000000000E+00  0.00000000000E+00  0.74505805969E-08  0.10566000000E+00  0.10566000000E+00 0.  1.
     999900   -1    0    0    0    0 -0.00000000000E+00 -0.00000000000E+00 -0.74505805969E-08  0.93827000000E+00  0.93827000000E+00 0.  1.
     999902    2    1    2    0    0 -0.21789489455E-01 -0.11526420045E-01 -0.10877253749E-01  0.10169864505E+01  0.10166294731E+01 0.  0.
     999903    2    3    3    0    0 -0.91702326133E-01 -0.19680941670E-01 -0.88717978123E-01  0.13075088402E+00  0.20694394066E-01 0.  0.
         14    1    1    2    0    0  0.21789489455E-01  0.11526420045E-01  0.10877253749E-01  0.26943549485E-01  0.00000000000E+00 0.  1.
     999901    1    3    3    0    0  0.69912836678E-01  0.81545216247E-02  0.77840724374E-01  0.88623556650E+00  0.88000000000E+00 0. -1.
        -11    1    4    4    0    0 -0.45272136052E-01 -0.10991344236E-01 -0.30100478408E-01  0.55467791305E-01  0.51100000000E-03 0. -1.
         11    1    4    4    0    0 -0.46430190081E-01 -0.86895974335E-02 -0.58617499714E-01  0.75283092712E-01  0.51100000000E-03 0.  1.
</event>
<event>
 8    1  0.1106905E+005  0.1043930E+01  0.7957747E-01            NaN
         13   -1    0    0    0    0  0.00000000000E+00  0.00000000000E+00  0.74505805969E-08  0.10566000000E+00  0.10566000000E+00 0.  1.
     999900   -1    0    0    0    0 -0.00000000000E+00 -0.00000000000E+00 -0.74505805969E-08  0.93827000000E+00  0.93827000000E+00 0.  1.
     999902    2    1    2    0    0  0.16662030567E-02  0.11252577242E-01 -0.20329212614E-01  0.10206346440E+01  0.10203687583E+01 0.  0.
     999903    2    3    3    0    0 -0.28852520232E-01  0.12365978878E+00  0.30682354210E-01  0.13149519842E+00  0.15012297085E-01 0.  0.
         14    1    1    2    0    0 -0.16662030567E-02 -0.11252577242E-01  0.20329212614E-01  0.23295356033E-01  0.00000000000E+00 0.  1.
     999901    1    3    3    0    0  0.30518723289E-01 -0.11240721153E+00 -0.51011566824E-01  0.88913944555E+00  0.88000000000E+00 0.  1.
        -11    1    4    4    0    0 -0.14202032661E-01  0.59310732092E-01  0.70576635387E-02  0.61396517887E-01  0.51100000000E-03 0. -1.
         11    1    4    4    0    0 -0.14650487571E-01  0.64349056685E-01  0.23624690671E-01  0.70098680534E-01  0.51100000000E-03 0.  1.
</event>
<event>
 8    1  0.1106905E+005  0.1043930E+01  0.7957747E-01            NaN
         13   -1    0    0    0    0  0.00000000000E+00  0.00000000000E+00  0.74505805969E-08  0.10566000000E+00  0.10566000000E+00 0.  1.
     999900   -1    0    0    0    0 -0.00000000000E+00 -0.00000000000E+00 -0.74505805969E-08  0.93827000000E+00  0.93827000000E+00 0.  1.
     999902    2    1    2    0    0  0.12834524518E-01  0.10403515961E-01 -0.15601998867E-01  0.10212059922E+01  0.10209531321E+01 0.  0.
     999903    2    3    3    0    0 -0.22794952066E-01 -0.11758837090E+00 -0.47963333662E-01  0.13064513590E+00  0.20519145857E-01 0.  0.
         14    1    1    2    0    0 -0.12834524518E-01 -0.10403515961E-01  0.15601998867E-01  0.22724007846E-01  0.00000000000E+00 0.  1.
     999901    1    3    3    0    0  0.35629476584E-01  0.12799188686E+00  0.32361334795E-01  0.89056085626E+00  0.88000000000E+00 0. -1.
        -11    1    4    4    0    0 -0.21614003734E-01 -0.97807203151E-01 -0.47392563998E-01  0.11081394492E+00  0.51100000000E-03 0.  1.
         11    1    4    4    0    0 -0.11809483326E-02 -0.19781167752E-01 -0.57076966439E-03  0.19831190978E-01  0.51100000000E-03 0. -1.
</event>
<event>
 8    1  0.1106905E+005  0.1043930E+01  0.7957747E-01            NaN
         13   -1    0    0    0    0  0.00000000000E+00  0.00000000000E+00  0.74505805969E-08  0.10566000000E+00  0.10566000000E+00 0. -1.
     999900   -1    0    0    0    0 -0.00000000000E+00 -0.00000000000E+00 -0.74505805969E-08  0.93827000000E+00  0.93827000000E+00 0. -1.
     999902    2    1    2    0    0 -0.23873393301E-01  0.13808010721E-03  0.41149000414E-02  0.10197041796E+01  0.10194163641E+01 0.  0.
     999903    2    3    3    0    0  0.68716259618E-01 -0.59485508392E-02  0.10699914812E+00  0.12886465450E+00  0.19999297153E-01 0.  0.
         14    1    1    2    0    0  0.23873393301E-01 -0.13808010721E-03 -0.41149000414E-02  0.24225820443E-01  0.00000000000E+00 0.  1.
     999901    1    3    3    0    0 -0.92589652919E-01  0.60866309464E-02 -0.10288424808E+00  0.89083952506E+00  0.88000000000E+00 0. -1.
        -11    1    4    4    0    0  0.14354940541E-01 -0.56459023199E-02  0.38049772166E-01  0.41060769767E-01  0.51100000000E-03 0.  1.
         11    1    4    4    0    0  0.54361319077E-01 -0.30264851925E-03  0.68949375957E-01  0.87803884731E-01  0.51100000000E-03 0. -1.
</event>
<event>
 8    1  0.1106905E+005  0.1043930E+01  0.7957747E-01            NaN
         13   -1    0    0    0    0  0.00000000000E+00  0.00000000000E+00  0.74505805969E-08  0.10566000000E+00  0.10566000000E+00 0.  1.
     999900   -1    0    0    0    0 -0.00000000000E+00 -0.00000000000E+00 -0.74505805969E-08  0.93827000000E+00  0.93827000000E+00 0. -1.
     999902    2    1    2    0    0  0.33634768488E-02 -0.10815293243E-01  0.21879863525E-01  0.10192923870E+01  0.10189945821E+01 0.  0.
     999903    2    3    3    0    0  0.53905993926E-01  0.94018955382E-01 -0.63961016489E-01  0.12748892080E+00  0.20420409995E-01 0.  0.
         14    1    1    2    0    0 -0.33634768488E-02  0.10815293243E-01 -0.21879863525E-01  0.24637612959E-01  0.00000000000E+00 0. -1.
     999901    1    3    3    0    0 -0.50542517077E-01 -0.10483424862E+00  0.85840880014E-01  0.89180346624E+00  0.88000000000E+00 0.  1.
        -11    1    4    4    0    0  0.13823940889E-01  0.97802275942E-02 -0.11262932960E-01  0.20343769890E-01  0.51100000000E-03 0.  1.
         11    1    4    4    0    0  0.40082053037E-01  0.84238727788E-01 -0.52698083529E-01  0.10714515091E+00  0.51100000000E-03 0. -1.
</event>
<event>
 8    1  0.1106905E+005  0.1043930E+01  0.7957747E-01            NaN
         13   -1    0    0    0    0  0.00000000000E+00  0.00000000000E+00  0.74505805969E-08  0.10566000000E+00  0.10566000000E+00 0. -1.
     999900   -1    0    0    0    0 -0.00000000000E+00 -0.00000000000E+00 -0.74505805969E-08  0.93827000000E+00  0.93827000000E+00 0. -1.
     999902    2    1    2    0    0 -0.22576904927E-01  0.13128167698E-02  0.11825978485E-02  0.10212840586E+01  0.10210329523E+01 0.  0.
     999903    2    3    3    0    0  0.12377131452E+00 -0.19347244306E-01  0.21813570298E-01  0.12872018051E+00  0.19984965850E-01 0.  0.
         14    1    1    2    0    0  0.22576904927E-01 -0.13128167698E-02 -0.11825978485E-02  0.22645941394E-01  0.00000000000E+00 0. -1.
     999901    1    3    3    0    0 -0.14634821945E+00  0.20660061076E-01 -0.20630972450E-01  0.89256387810E+00  0.88000000000E+00 0.  1.
        -11    1    4    4    0    0  0.67150185257E-01 -0.20465955043E-01  0.13273311917E-01  0.71445396116E-01  0.51100000000E-03 0.  1.
         11    1    4    4    0    0  0.56621129266E-01  0.11187107363E-02  0.85402583814E-02  0.57274784393E-01  0.51100000000E-03 0. -1.
</event>
<event>
 8    1  0.1106905E+005  0.1043930E+01  0.7957747E-01            NaN
         13   -1    0    0    0    0  0.00000000000E+00  0.00000000000E+00  0.74505805969E-08  0.10566000000E+00  0.10566000000E+00 0. -1.
     999900   -1    0    0    0    0 -0.00000000000E+00 -0.00000000000E+00 -0.74505805969E-08  0.93827000000E+00  0.93827000000E+00 0. -1.
     999902    2    1    2    0    0  0.11619737773E-01 -0.20286803631E-01 -0.52566696170E-02  0.10199674191E+01  0.10196858981E+01 0.  0.
     999903    2    3    3    0    0  0.60177978274E-01 -0.89262932925E-01  0.74031613597E-01  0.13238517448E+00  0.21351682505E-01 0.  0.
         14    1    1    2    0    0 -0.11619737773E-01  0.20286803631E-01  0.52566696170E-02  0.23962580891E-01  0.00000000000E+00 0. -1.
     999901    1    3    3    0    0 -0.48558240501E-01  0.68976129294E-01 -0.79288283214E-01  0.88758224463E+00  0.88000000000E+00 0. -1.
        -11    1    4    4    0    0  0.47586274635E-01 -0.57774539276E-01  0.42495270344E-01  0.86072411636E-01  0.51100000000E-03 0. -1.
         11    1    4    4    0    0  0.12591703639E-01 -0.31488393649E-01  0.31536343253E-01  0.46312762840E-01  0.51100000000E-03 0.  1.
</event>
<event>
 8    1  0.1106905E+005  0.1043930E+01  0.7957747E-01            NaN
         13   -1    0    0    0    0  0.00000000000E+00  0.00000000000E+00  0.74505805969E-08  0.10566000000E+00  0.10566000000E+00 0.  1.
     999900   -1    0    0    0    0 -0.00000000000E+00 -0.00000000000E+00 -0.74505805969E-08  0.93827000000E+00  0.93827000000E+00 0.  1.
     999902    2    1    2    0    0 -0.61706344536E-02 -0.21920749522E-01 -0.58485962049E-02  0.10204182568E+01  0.10201473505E+01 0.  0.
     999903    2    3    3    0    0 -0.58390560935E-01  0.99514320782E-01  0.53160561080E-01  0.12859121213E+00  0.19927291231E-01 0.  0.
         14    1    1    2    0    0  0.61706344536E-02  0.21920749522E-01  0.58485962049E-02  0.23511743166E-01  0.00000000000E+00 0. -1.
     999901    1    3    3    0    0  0.52219926482E-01 -0.12143507030E+00 -0.59009157284E-01  0.89182704470E+00  0.88000000000E+00 0. -1.
        -11    1    4    4    0    0 -0.17748619519E-01  0.38783737562E-01  0.10331425215E-01  0.43888395528E-01  0.51100000000E-03 0. -1.
         11    1    4    4    0    0 -0.40641941416E-01  0.60730583220E-01  0.42829135865E-01  0.84702816602E-01  0.51100000000E-03 0.  1.
</event>
<event>
 8    1  0.1106905E+005  0.1043930E+01  0.7957747E-01            NaN
         13   -1    0    0    0    0  0.00000000000E+00  0.00000000000E+00  0.74505805969E-08  0.10566000000E+00  0.10566000000E+00 0.  1.
     999900   -1    0    0    0    0 -0.00000000000E+00 -0.00000000000E+00 -0.74505805969E-08  0.93827000000E+00  0.93827000000E+00 0.  1.
     999902    2    1    2    0    0  0.15398740546E-01 -0.18075704693E-01 -0.87879805120E-02  0.10186104243E+01  0.10182956917E+01 0.  0.
     999903    2    3    3    0    0  0.14878932742E-01  0.63777806414E-01  0.10717156353E+00  0.12723683075E+00  0.20358679698E-01 0.  0.
         14    1    1    2    0    0 -0.15398740546E-01  0.18075704693E-01  0.87879805120E-02  0.25319575669E-01  0.00000000000E+00 0.  1.
     999901    1    3    3    0    0  0.51980780328E-03 -0.81853511107E-01 -0.11595954404E+00  0.89137359358E+00  0.88000000000E+00 0.  1.
        -11    1    4    4    0    0  0.16917710333E-01  0.30617158987E-01  0.61553937984E-01  0.70800902181E-01  0.51100000000E-03 0. -1.
         11    1    4    4    0    0 -0.20387775910E-02  0.33160647427E-01  0.45617625547E-01  0.56435928568E-01  0.51100000000E-03 0.  1.
</event>
<event>
 8    1  0.1106905E+005  0.1043930E+01  0.7957747E-01            NaN
         13   -1    0    0    0    0  0.00000000000E+00  0.00000000000E+00  0.74505805969E-08  0.10566000000E+00  0.10566000000E+00 0.  1.
     999900   -1    0    0    0    0 -0.00000000000E+00 -0.00000000000E+00 -0.74505805969E-08  0.93827000000E+00  0.93827000000E+00 0.  1.
     999902    2    1    2    0    0 -0.21073561904E-01  0.10130665653E-01  0.52648578576E-03  0.10205419136E+01  0.10202738823E+01 0.  0.
     999903    2    3    3    0    0  0.44427105106E-02  0.96742262982E-02  0.12884449771E+00  0.13086961400E+00  0.20313122586E-01 0.  0.
         14    1    1    2    0    0  0.21073561904E-01 -0.10130665653E-01 -0.52648578576E-03  0.23388086394E-01  0.00000000000E+00 0.  1.
     999901    1    3    3    0    0 -0.25516272414E-01  0.45643935518E-03 -0.12831801192E+00  0.88967229960E+00  0.88000000000E+00 0.  1.
        -11    1    4    4    0    0  0.49435367740E-02  0.12499855851E-01  0.44831897060E-01  0.46806463946E-01  0.51100000000E-03 0. -1.
         11    1    4    4    0    0 -0.50082626344E-03 -0.28256295524E-02  0.84012600647E-01  0.84063150058E-01  0.51100000000E-03 0.  1.
</event>
<event>
 8    1  0.1106905E+005  0.1043930E+01  0.7957747E-01            NaN
         13   -1    0    0    0    0  0.00000000000E+00  0.00000000000E+00  0.74505805969E-08  0.10566000000E+00  0.10566000000E+00 0.  1.
     999900   -1    0    0    0    0 -0.00000000000E+00 -0.00000000000E+00 -0.74505805969E-08  0.93827000000E+00  0.93827000000E+00 0.  1.
     999902    2    1    2    0    0 -0.97868202015E-02  0.17215827994E-01 -0.13561199226E-01  0.10199284853E+01  0.10196460378E+01 0.  0.
     999903    2    3    3    0    0  0.12867971274E-02  0.52705580723E-01 -0.12016029333E+00  0.13271627032E+00  0.19889148529E-01 0.  0.
         14    1    1    2    0    0  0.97868202015E-02 -0.17215827994E-01  0.13561199226E-01  0.24001514695E-01  0.00000000000E+00 0.  1.
     999901    1    3    3    0    0 -0.11073617329E-01 -0.35489752729E-01  0.10659909410E+00  0.88721221498E+00  0.88000000000E+00 0. -1.
        -11    1    4    4    0    0 -0.26770709515E-02  0.15351632717E-01 -0.58240883542E-01  0.60291798552E-01  0.51100000000E-03 0. -1.
         11    1    4    4    0    0  0.39638680788E-02  0.37353948007E-01 -0.61919409788E-01  0.72424471771E-01  0.51100000000E-03 0.  1.
</event>
<event>
 8    1  0.1106905E+005  0.1043930E+01  0.7957747E-01            NaN
         13   -1    0    0    0    0  0.00000000000E+00  0.00000000000E+00  0.74505805969E-08  0.10566000000E+00  0.10566000000E+00 0.  1.
     999900   -1    0    0    0    0 -0.00000000000E+00 -0.00000000000E+00 -0.74505805969E-08  0.93827000000E+00  0.93827000000E+00 0.  1.
     999902    2    1    2    0    0  0.17852983606E-01 -0.14041017695E-01  0.66176736154E-02  0.10202725951E+01  0.10199982821E+01 0.  0.
     999903    2    3    3    0    0 -0.57117657146E-01  0.98421637849E-01  0.56739112378E-01  0.12854359790E+00  0.18838368610E-01 0.  0.
         14    1    1    2    0    0 -0.17852983606E-01  0.14041017695E-01 -0.66176736154E-02  0.23657404880E-01  0.00000000000E+00 0.  1.
     999901    1    3    3    0    0  0.74970640752E-01 -0.11246265554E+00 -0.50121438762E-01  0.89172899722E+00  0.88000000000E+00 0. -1.
        -11    1    4    4    0    0 -0.38251447763E-01  0.68367034196E-01  0.48402615260E-01  0.92088538406E-01  0.51100000000E-03 0. -1.
         11    1    4    4    0    0 -0.18866209383E-01  0.30054603653E-01  0.83364971175E-02  0.36455059490E-01  0.51100000000E-03 0.  1.
</event>
<event>
 8    1  0.1106905E+005  0.1043930E+01  0.7957747E-01            NaN
         13   -1    0    0    0    0  0.00000000000E+00  0.00000000000E+00  0.74505805969E-08  0.10566000000E+00  0.10566000000E+00 0.  1.
     999900   -1    0    0    0    0 -0.00000000000E+00 -0.00000000000E+00 -0.74505805969E-08  0.93827000000E+00  0.93827000000E+00 0. -1.
     999902    2    1    2    0    0  0.94733107993E-02  0.16385265538E-01  0.45422240719E-02  0.10244658703E+01  0.10242809513E+01 0.  0.
     999903    2    3    3    0    0 -0.83121910622E-02  0.72463407155E-01  0.11291024640E+00  0.13586882425E+00  0.19788273359E-01 0.  0.
         14    1    1    2    0    0 -0.94733107993E-02 -0.16385265538E-01 -0.45422240719E-02  0.19464129669E-01  0.00000000000E+00 0.  1.
     999901    1    3    3    0    0  0.17785501862E-01 -0.56078141617E-01 -0.10836802233E+00  0.88859704608E+00  0.88000000000E+00 0. -1.
        -11    1    4    4    0    0 -0.12780154230E-01  0.54695642431E-01  0.94209007359E-01  0.10968383578E+00  0.51100000000E-03 0. -1.
         11    1    4    4    0    0  0.44679631680E-02  0.17767764723E-01  0.18701239045E-01  0.26184988466E-01  0.51100000000E-03 0.  1.
</event>
<event>
 8    1  0.1106905E+005  0.1043930E+01  0.7957747E-01            NaN
         13   -1    0    0    0    0  0.00000000000E+00  0.00000000000E+00  0.74505805969E-08  0.10566000000E+00  0.10566000000E+00 0. -1.
     999900   -1    0    0    0    0 -0.00000000000E+00 -0.00000000000E+00 -0.74505805969E-08  0.93827000000E+00  0.93827000000E+00 0.  1.
     999902    2    1    2    0    0 -0.21150382541E-01 -0.14562213487E-02 -0.82838634193E-02  0.10211685929E+01  0.10209148904E+01 0.  0.
     999903    2    3    3    0    0 -0.44566346973E-01  0.64999842911E-01  0.10312409018E+00  0.13135038221E+00  0.20179347617E-01 0.  0.
         14    1    1    2    0    0  0.21150382541E-01  0.14562213487E-02  0.82838634193E-02  0.22761407149E-01  0.00000000000E+00 0. -1.
     999901    1    3    3    0    0  0.23415964432E-01 -0.66456064259E-01 -0.11140795360E+00  0.88981821064E+00  0.88000000000E+00 0.  1.
        -11    1    4    4    0    0 -0.35325914940E-01  0.34682168777E-01  0.58984144719E-01  0.77007555127E-01  0.51100000000E-03 0.  1.
         11    1    4    4    0    0 -0.92404320331E-02  0.30317674133E-01  0.44139945459E-01  0.54342827081E-01  0.51100000000E-03 0. -1.
</event>
<event>
 8    1  0.1106905E+005  0.1043930E+01  0.7957747E-01            NaN
         13   -1    0    0    0    0  0.00000000000E+00  0.00000000000E+00  0.74505805969E-08  0.10566000000E+00  0.10566000000E+00 0.  1.
     999900   -1    0    0    0    0 -0.00000000000E+00 -0.00000000000E+00 -0.74505805969E-08  0.93827000000E+00  0.93827000000E+00 0.  1.
     999902    2    1    2    0    0 -0.92179330004E-02 -0.17815294976E-01  0.12343569626E-01  0.10203775323E+01  0.10201056757E+01 0.  0.
     999903    2    3    3    0    0  0.10507312358E+00 -0.39309031463E-01  0.64826282694E-01  0.13117628314E+00  0.20474595931E-01 0.  0.
         14    1    1    2    0    0  0.92179330004E-02  0.17815294976E-01 -0.12343569626E-01  0.23552467705E-01  0.00000000000E+00 0. -1.
     999901    1    3    3    0    0 -0.11429105658E+00  0.21493736488E-01 -0.52482713068E-01  0.88920124915E+00  0.88000000000E+00 0.  1.
        -11    1    4    4    0    0  0.19157916852E-01 -0.12398180148E-01  0.59045424547E-02  0.23576797741E-01  0.51100000000E-03 0. -1.
         11    1    4    4    0    0  0.85915206725E-01 -0.26910851315E-01  0.58921740239E-01  0.10759948540E+00  0.51100000000E-03 0.  1.
</event>
<event>
 8    1  0.1106905E+005  0.1043930E+01  0.7957747E-01            NaN
         13   -1    0    0    0    0  0.00000000000E+00  0.00000000000E+00  0.74505805969E-08  0.10566000000E+00  0.10566000000E+00 0. -1.
     999900   -1    0    0    0    0 -0.00000000000E+00 -0.00000000000E+00 -0.74505805969E-08  0.93827000000E+00  0.93827000000E+00 0. -1.
     999902    2    1    2    0    0  0.25477051220E-02  0.20560378140E-01 -0.11872338604E-01  0.10200517175E+01  0.10197721971E+01 0.  0.
     999903    2    3    3    0    0 -0.47125811355E-01 -0.10351257356E-01 -0.12004548902E+00  0.13149985188E+00  0.23522350783E-01 0.  0.
         14    1    1    2    0    0 -0.25477051220E-02 -0.20560378140E-01  0.11872338604E-01  0.23878282488E-01  0.00000000000E+00 0. -1.
     999901    1    3    3    0    0  0.49673516477E-01  0.30911635495E-01  0.10817315041E+00  0.88855186563E+00  0.88000000000E+00 0.  1.
        -11    1    4    4    0    0 -0.24423118195E-01 -0.81274911511E-02 -0.90956029037E-01  0.94529387779E-01  0.51100000000E-03 0. -1.
         11    1    4    4    0    0 -0.22702693161E-01 -0.22237662046E-02 -0.29089459980E-01  0.36970464101E-01  0.51100000000E-03 0.  1.
</event>
<event>
 8    1  0.1106905E+005  0.1043930E+01  0.7957747E-01            NaN
         13   -1    0    0    0    0  0.00000000000E+00  0.00000000000E+00  0.74505805969E-08  0.10566000000E+00  0.10566000000E+00 0.  1.
     999900   -1    0    0    0    0 -0.00000000000E+00 -0.00000000000E+00 -0.74505805969E-08  0.93827000000E+00  0.93827000000E+00 0.  1.
     999902    2    1    2    0    0  0.19945719714E-01  0.14839135754E-02 -0.11590554423E-01  0.10208134543E+01  0.10205516811E+01 0.  0.
     999903    2    3    3    0    0  0.70707599460E-01 -0.86557350746E-01 -0.69388831371E-01  0.13308113343E+00  0.20100710581E-01 0.  0.
         14    1    1    2    0    0 -0.19945719714E-01 -0.14839135754E-02  0.11590554423E-01  0.23116545725E-01  0.00000000000E+00 0. -1.
     999901    1    3    3    0    0 -0.50761879745E-01  0.88041264321E-01  0.57798276948E-01  0.88773232085E+00  0.88000000000E+00 0. -1.
        -11    1    4    4    0    0  0.21367499178E-01 -0.15607102625E-01 -0.10342398712E-01  0.28414397858E-01  0.51100000000E-03 0.  1.
         11    1    4    4    0    0  0.49340100281E-01 -0.70950248120E-01 -0.59046432659E-01  0.10466673557E+00  0.51100000000E-03 0. -1.
</event>
<event>
 8    1  0.1106905E+005  0.1043930E+01  0.7957747E-01            NaN
         13   -1    0    0    0    0  0.00000000000E+00  0.00000000000E+00  0.74505805969E-08  0.10566000000E+00  0.10566000000E+00 0. -1.
     999900   -1    0    0    0    0 -0.00000000000E+00 -0.00000000000E+00 -0.74505805969E-08  0.93827000000E+00  0.93827000000E+00 0. -1.
     999902    2    1    2    0    0  0.21256777724E-01  0.40341024714E-03  0.58028948219E-02  0.10218916941E+01  0.10216540254E+01 0.  0.
     999903    2    3    3    0    0  0.51778553031E-01  0.42339566403E-01 -0.11247894619E+00  0.13246445487E+00  0.20534386543E-01 0.  0.
         14    1    1    2    0    0 -0.21256777724E-01 -0.40341024714E-03 -0.58028948219E-02  0.22038305909E-01  0.00000000000E+00 0.  1.
     999901    1    3    3    0    0 -0.30521775307E-01 -0.41936156155E-01  0.11828184101E+00  0.88942723922E+00  0.88000000000E+00 0.  1.
        -11    1    4    4    0    0  0.25597147655E-01  0.30452098529E-01 -0.51794632655E-01  0.65310714020E-01  0.51100000000E-03 0. -1.
         11    1    4    4    0    0  0.26181405376E-01  0.11887467873E-01 -0.60684313532E-01  0.67153740847E-01  0.51100000000E-03 0.  1.
</event>
<event>
 8    1  0.1106905E+005  0.1043930E+01  0.7957747E-01            NaN
         13   -1    0    0    0    0  0.00000000000E+00  0.00000000000E+00  0.74505805969E-08  0.10566000000E+00  0.10566000000E+00 0. -1.
     999900   -1    0    0    0    0 -0.00000000000E+00 -0.00000000000E+00 -0.74505805969E-08  0.93827000000E+00  0.93827000000E+00 0. -1.
     999902    2    1    2    0    0  0.13114418894E-01 -0.16401877208E-01  0.11911398250E-01  0.10197868650E+01  0.10195010344E+01 0.  0.
     999903    2    3    3    0    0  0.19230921154E-01 -0.20267963353E-01  0.12754022355E+00  0.13219327363E+00  0.20686573001E-01 0.  0.
         14    1    1    2    0    0 -0.13114418894E-01  0.16401877208E-01 -0.11911398250E-01  0.24143134990E-01  0.00000000000E+00 0. -1.
     999901    1    3    3    0    0 -0.61165022592E-02  0.38660861453E-02 -0.11562882530E+00  0.88759359138E+00  0.88000000000E+00 0. -1.
        -11    1    4    4    0    0  0.18630696835E-01 -0.13359592610E-01  0.58973969607E-01  0.63275364807E-01  0.51100000000E-03 0. -1.
         11    1    4    4    0    0  0.60022431897E-03 -0.69083707436E-02  0.68566253943E-01  0.68917908821E-01  0.51100000000E-03 0.  1.
</event>
<event>
 8    1  0.1106905E+005  0.1043930E+01  0.7957747E-01            NaN
         13   -1    0    0    0    0  0.00000000000E+00  0.00000000000E+00  0.74505805969E-08  0.10566000000E+00  0.10566000000E+00 0. -1.
     999900   -1    0    0    0    0 -0.00000000000E+00 -0.00000000000E+00 -0.74505805969E-08  0.93827000000E+00  0.93827000000E+00 0. -1.
     999902    2    1    2    0    0 -0.24804584175E-02 -0.21254259385E-01  0.99499632820E-02  0.10203313139E+01  0.10200583768E+01 0.  0.
     999903    2    3    3    0    0 -0.11031295818E+00 -0.16466595059E-01  0.67398837966E-01  0.13187695777E+00  0.20219573099E-01 0.  0.
         14    1    1    2    0    0  0.24804584175E-02  0.21254259385E-01 -0.99499632820E-02  0.23598686092E-01  0.00000000000E+00 0.  1.
     999901    1    3    3    0    0  0.10783249976E+00 -0.47876643261E-02 -0.57448874685E-01  0.88845435614E+00  0.88000000000E+00 0. -1.
        -11    1    4    4    0    0 -0.34860470335E-01 -0.61803583378E-02  0.10876363325E-01  0.37040594236E-01  0.51100000000E-03 0.  1.
         11    1    4    4    0    0 -0.75452487846E-01 -0.10286236721E-01  0.56522474642E-01  0.94836363536E-01  0.51100000000E-03 0. -1.
</event>
<event>
 8    1  0.1106905E+005  0.1043930E+01  0.7957747E-01            NaN
         13   -1    0    0    0    0  0.00000000000E+00  0.00000000000E+00  0.74505805969E-08  0.10566000000E+00  0.10566000000E+00 0. -1.
     999900   -1    0    0    0    0 -0.00000000000E+00 -0.00000000000E+00 -0.74505805969E-08  0.93827000000E+00  0.93827000000E+00 0. -1.
     999902    2    1    2    0    0 -0.10604172002E-01  0.64672440167E-02  0.19392914386E-01  0.10209004790E+01  0.10206406954E+01 0.  0.
     999903    2    3    3    0    0  0.61800195644E-01 -0.10486502424E+00  0.42368739304E-01  0.13063919436E+00  0.21343653427E-01 0.  0.
         14    1    1    2    0    0  0.10604172002E-01 -0.64672440167E-02 -0.19392914386E-01  0.23029520999E-01  0.00000000000E+00 0.  1.
     999901    1    3    3    0    0 -0.72404367646E-01  0.11133226825E+00 -0.22975824918E-01  0.89026128465E+00  0.88000000000E+00 0. -1.
        -11    1    4    4    0    0  0.50198721744E-01 -0.66861095888E-01  0.32411798125E-01  0.89672200747E-01  0.51100000000E-03 0. -1.
         11    1    4    4    0    0  0.11601473899E-01 -0.38003928350E-01  0.99569411794E-02  0.40966993609E-01  0.51100000000E-03 0.  1.
</event>
<event>
 8    1  0.1106905E+005  0.1043930E+01  0.7957747E-01            NaN
         13   -1    0    0    0    0  0.00000000000E+00  0.00000000000E+00  0.74505805969E-08  0.10566000000E+00  0.10566000000E+00 0. -1.
     999900   -1    0    0    0    0 -0.00000000000E+00 -0.00000000000E+00 -0.74505805969E-08  0.93827000000E+00  0.93827000000E+00 0.  1.
     999902    2    1    2    0    0 -0.76435398837E-02 -0.22066115772E-02 -0.22365359600E-01  0.10201917998E+01  0.10199155878E+01 0.  0.
     999903    2    3    3    0    0 -0.95695499873E-01 -0.21794622352E-01 -0.87426616179E-01  0.13319134611E+00  0.21538040804E-01 0.  0.
         14    1    1    2    0    0  0.76435398837E-02  0.22066115772E-02  0.22365359600E-01  0.23738200156E-01  0.00000000000E+00 0. -1.
     999901    1    3    3    0    0  0.88051959989E-01  0.19588010775E-01  0.65061256579E-01  0.88700045374E+00  0.88000000000E+00 0. -1.
        -11    1    4    4    0    0 -0.20990210450E-01  0.57335702227E-03 -0.98714035084E-02  0.23208261486E-01  0.51100000000E-03 0.  1.
         11    1    4    4    0    0 -0.74705289423E-01 -0.22367979374E-01 -0.77555212670E-01  0.10998308462E+00  0.51100000000E-03 0. -1.
</event>
<event>
 8    1  0.1106905E+005  0.1043930E+01  0.7957747E-01            NaN
         13   -1    0    0    0    0  0.00000000000E+00  0.00000000000E+00  0.74505805969E-08  0.10566000000E+00  0.10566000000E+00 0. -1.
     999900   -1    0    0    0    0 -0.00000000000E+00 -0.00000000000E+00 -0.74505805969E-08  0.93827000000E+00  0.93827000000E+00 0. -1.
     999902    2    1    2    0    0  0.86662729881E-02 -0.12519217672E-01 -0.16720968653E-01  0.10213152727E+01  0.10210648659E+01 0.  0.
     999903    2    3    3    0    0 -0.78300993860E-01 -0.29822190334E-01 -0.10111498273E+00  0.13284183585E+00  0.20057540811E-01 0.  0.
         14    1    1    2    0    0 -0.86662729881E-02  0.12519217672E-01  0.16720968653E-01  0.22614727310E-01  0.00000000000E+00 0. -1.
     999901    1    3    3    0    0  0.86967266848E-01  0.17302972662E-01  0.84394014074E-01  0.88847343684E+00  0.88000000000E+00 0.  1.
        -11    1    4    4    0    0 -0.33729029597E-01 -0.28798745119E-02 -0.44469577695E-01  0.55890478403E-01  0.51100000000E-03 0.  1.
         11    1    4    4    0    0 -0.44571964262E-01 -0.26942315822E-01 -0.56645405032E-01  0.76951357443E-01  0.51100000000E-03 0. -1.
</event>
<event>
 8    1  0.1106905E+005  0.1043930E+01  0.7957747E-01            NaN
         13   -1    0    0    0    0  0.00000000000E+00  0.00000000000E+00  0.74505805969E-08  0.10566000000E+00  0.10566000000E+00 0. -1.
     999900   -1    0    0    0    0 -0.00000000000E+00 -0.00000000000E+00 -0.74505805969E-08  0.93827000000E+00  0.93827000000E+00 0.  1.
     999902    2    1    2    0    0  0.13034630954E-01 -0.41156502590E-02  0.22491911039E-01  0.10176103069E+01  0.10172698809E+01 0.  0.
     999903    2    3    3    0    0 -0.12167196445E+00  0.28381955794E-01  0.87518960071E-02  0.12666095413E+00  0.18889130969E-01 0.  0.
         14    1    1    2    0    0 -0.13034630954E-01  0.41156502590E-02 -0.22491911039E-01  0.26319693071E-01  0.00000000000E+00 0.  1.
     999901    1    3    3    0    0  0.13470659540E+00 -0.32497606053E-01  0.13740015032E-01  0.89094935280E+00  0.88000000000E+00 0.  1.
        -11    1    4    4    0    0 -0.53448534428E-01  0.19255984042E-01  0.10642858553E-01  0.57801992293E-01  0.51100000000E-03 0. -1.
         11    1    4    4    0    0 -0.68223430023E-01  0.91259717517E-02 -0.18909625457E-02  0.68858961834E-01  0.51100000000E-03 0.  1.
</event>
<event>
 8    1  0.1106905E+005  0.1043930E+01  0.7957747E-01            NaN
         13   -1    0    0    0    0  0.00000000000E+00  0.00000000000E+00  0.74505805969E-08  0.10566000000E+00  0.10566000000E+00 0.  1.
     999900   -1    0    0    0    0 -0.00000000000E+00 -0.00000000000E+00 -0.74505805969E-08  0.93827000000E+00  0.93827000000E+00 0.  1.
     999902    2    1    2    0    0  0.14672533617E-01 -0.11586955861E-01 -0.13930033942E-01  0.10206150556E+01  0.10203487173E+01 0.  0.
     999903    2    3    3    0    0  0.92070308410E-01  0.74896381183E-01  0.50674331173E-01  0.13064679369E+00  0.20354047688E-01 0.  0.
         14    1    1    2    0    0 -0.14672533617E-01  0.11586955861E-01  0.13930033942E-01  0.23314944446E-01  0.00000000000E+00 0.  1.
     999901    1    3    3    0    0 -0.77397774793E-01 -0.86483337044E-01 -0.64604365115E-01  0.88996826186E+00  0.88000000000E+00 0. -1.
        -11    1    4    4    0    0  0.30177435852E-01  0.15513047478E-01  0.81069086669E-02  0.34890046801E-01  0.51100000000E-03 0.  1.
         11    1    4    4    0    0  0.61892872558E-01  0.59383333705E-01  0.42567422506E-01  0.95756746891E-01  0.51100000000E-03 0. -1.
</event>
<event>
 8    1  0.1106905E+005  0.1043930E+01  0.7957747E-01            NaN
         13   -1    0    0    0    0  0.00000000000E+00  0.00000000000E+00  0.74505805969E-08  0.10566000000E+00  0.10566000000E+00 0. -1.
     999900   -1    0    0    0    0 -0.00000000000E+00 -0.00000000000E+00 -0.74505805969E-08  0.93827000000E+00  0.93827000000E+00 0.  1.
     999902    2    1    2    0    0  0.15724510236E-01  0.13378695497E-01 -0.10413044325E-01  0.10208068253E+01  0.10205449002E+01 0.  0.
     999903    2    3    3    0    0 -0.98332049025E-02 -0.11784482410E+00  0.47313630960E-01  0.12883979793E+00  0.19416986681E-01 0.  0.
         14    1    1    2    0    0 -0.15724510236E-01 -0.13378695497E-01  0.10413044325E-01  0.23123174684E-01  0.00000000000E+00 0.  1.
     999901    1    3    3    0    0  0.25557715138E-01  0.13122351959E+00 -0.57726675285E-01  0.89196702738E+00  0.88000000000E+00 0. -1.
        -11    1    4    4    0    0 -0.11180196853E-01 -0.55278476912E-01  0.14774342992E-01  0.58303080050E-01  0.51100000000E-03 0.  1.
         11    1    4    4    0    0  0.13469919505E-02 -0.62566347185E-01  0.32539287968E-01  0.70536717884E-01  0.51100000000E-03 0. -1.
</event>
<event>
 8    1  0.1106905E+005  0.1043930E+01  0.7957747E-01            NaN
         13   -1    0    0    0    0  0.00000000000E+00  0.00000000000E+00  0.74505805969E-08  0.10566000000E+00  0.10566000000E+00 0. -1.
     999900   -1    0    0    0    0 -0.00000000000E+00 -0.00000000000E+00 -0.74505805969E-08  0.93827000000E+00  0.93827000000E+00 0. -1.
     999902    2    1    2    0    0  0.59812709220E-02 -0.64946135052E-03  0.24393025770E-01  0.10188059655E+01  0.10184961356E+01 0.  0.
     999903    2    3    3    0    0  0.61483019533E-01  0.52832373292E-01 -0.96219688042E-01  0.12724094969E+00  0.18989722284E-01 0.  0.
         14    1    1    2    0    0 -0.59812709220E-02  0.64946135052E-03 -0.24393025770E-01  0.25124034471E-01  0.00000000000E+00 0.  1.
     999901    1    3    3    0    0 -0.55501748611E-01 -0.53481834642E-01  0.12061271381E+00  0.89156501584E+00  0.88000000000E+00 0.  1.
        -11    1    4    4    0    0  0.42906556173E-01  0.24802000276E-01 -0.54822862937E-01  0.73904798233E-01  0.51100000000E-03 0. -1.
         11    1    4    4    0    0  0.18576463360E-01  0.28030373015E-01 -0.41396825105E-01  0.53336151456E-01  0.51100000000E-03 0.  1.
</event>
<event>
 8    1  0.1106905E+005  0.1043930E+01  0.7957747E-01            NaN
         13   -1    0    0    0    0  0.00000000000E+00  0.00000000000E+00  0.74505805969E-08  0.10566000000E+00  0.10566000000E+00 0. -1.
     999900   -1    0    0    0    0 -0.00000000000E+00 -0.00000000000E+00 -0.74505805969E-08  0.93827000000E+00  0.93827000000E+00 0.  1.
     999902    2    1    2    0    0  0.21903057255E-01  0.22983217371E-02 -0.73051825373E-02  0.10207267267E+01  0.10204629629E+01 0.  0.
     999903    2    3    3    0    0  0.10025798711E+00 -0.20073754614E-01 -0.83822648148E-01  0.13365574455E+00  0.19570439537E-01 0.  0.
         14    1    1    2    0    0 -0.21903057255E-01 -0.22983217371E-02  0.73051825373E-02  0.23203273300E-01  0.00000000000E+00 0.  1.
     999901    1    3    3    0    0 -0.78354929858E-01  0.22372076351E-01  0.76517465611E-01  0.88707098215E+00  0.88000000000E+00 0. -1.
        -11    1    4    4    0    0  0.57218700262E-01 -0.17140103610E-01 -0.38405190320E-01  0.71013960430E-01  0.51100000000E-03 0. -1.
         11    1    4    4    0    0  0.43039286852E-01 -0.29336510047E-02 -0.45417457828E-01  0.62641784118E-01  0.51100000000E-03 0.  1.
</event>
<event>
 8    1  0.1106905E+005  0.1043930E+01  0.7957747E-01            NaN
         13   -1    0    0    0    0  0.00000000000E+00  0.00000000000E+00  0.74505805969E-08  0.10566000000E+00  0.10566000000E+00 0. -1.
     999900   -1    0    0    0    0 -0.00000000000E+00 -0.00000000000E+00 -0.74505805969E-08  0.93827000000E+00  0.93827000000E+00 0.  1.
     999902    2    1    2    0    0  0.23042913327E-01  0.74833673044E-02 -0.61360867314E-03  0.10196946301E+01  0.10194065849E+01 0.  0.
     999903    2    3    3    0    0  0.64624020663E-01  0.11371143610E+00  0.39613942116E-02  0.13231966887E+00  0.19653177320E-01 0.  0.
         14    1    1    2    0    0 -0.23042913327E-01 -0.74833673044E-02  0.61360867314E-03  0.24235369946E-01  0.00000000000E+00 0.  1.
     999901    1    3    3    0    0 -0.41581107336E-01 -0.10622806880E+00 -0.45750028847E-02  0.88737496119E+00  0.88000000000E+00 0. -1.
        -11    1    4    4    0    0  0.26871116208E-01  0.66352404725E-01 -0.46898430000E-03  0.71590359451E-01  0.51100000000E-03 0.  1.
         11    1    4    4    0    0  0.37752904454E-01  0.47359031375E-01  0.44303785116E-02  0.60729309417E-01  0.51100000000E-03 0. -1.
</event>
<event>
 8    1  0.1106905E+005  0.1043930E+01  0.7957747E-01            NaN
         13   -1    0    0    0    0  0.00000000000E+00  0.00000000000E+00  0.74505805969E-08  0.10566000000E+00  0.10566000000E+00 0.  1.
     999900   -1    0    0    0    0 -0.00000000000E+00 -0.00000000000E+00 -0.74505805969E-08  0.93827000000E+00  0.93827000000E+00 0.  1.
     999902    2    1    2    0    0 -0.22027639682E-01  0.40834566399E-02 -0.80527232519E-02  0.10201237428E+01  0.10198459260E+01 0.  0.
     999903    2    3    3    0    0  0.47326532756E-01 -0.76554359449E-01  0.89391856220E-01  0.12837943830E+00  0.19748558581E-01 0.  0.
         14    1    1    2    0    0  0.22027639682E-01 -0.40834566399E-02  0.80527232519E-02  0.23806257157E-01  0.00000000000E+00 0.  1.
     999901    1    3    3    0    0 -0.69354172438E-01  0.80637816089E-01 -0.97444579472E-01  0.89174430454E+00  0.88000000000E+00 0.  1.
        -11    1    4    4    0    0  0.18428669028E-01 -0.34500047616E-01  0.25860662777E-01  0.46892474107E-01  0.51100000000E-03 0.  1.
         11    1    4    4    0    0  0.28897863728E-01 -0.42054311833E-01  0.63531193443E-01  0.81486964191E-01  0.51100000000E-03 0. -1.
</event>
<event>
 8    1  0.1106905E+005  0.1043930E+01  0.7957747E-01            NaN
         13   -1    0    0    0    0  0.00000000000E+00  0.00000000000E+00  0.74505805969E-08  0.10566000000E+00  0.10566000000E+00 0.  1.
     999900   -1    0    0    0    0 -0.00000000000E+00 -0.00000000000E+00 -0.74505805969E-08  0.93827000000E+00  0.93827000000E+00 0. -1.
     999902    2    1    2    0    0 -0.19167480215E-02  0.36109046092E-03 -0.24940649959E-01  0.10189131991E+01  0.10186060411E+01 0.  0.
     999903    2    3    3    0    0 -0.76489027519E-01  0.97249803410E-01 -0.35637353591E-01  0.13039596960E+00  0.20615341920E-01 0.  0.
         14    1    1    2    0    0  0.19167480215E-02 -0.36109046092E-03  0.24940649959E-01  0.25016800948E-01  0.00000000000E+00 0.  1.
     999901    1    3    3    0    0  0.74572279498E-01 -0.96888712949E-01  0.10696703632E-01  0.88851722945E+00  0.88000000000E+00 0. -1.
        -11    1    4    4    0    0 -0.35670938732E-01  0.56353179499E-01 -0.27073599366E-01  0.71981508829E-01  0.51100000000E-03 0. -1.
         11    1    4    4    0    0 -0.40818088788E-01  0.40896623911E-01 -0.85637542248E-02  0.58414460770E-01  0.51100000000E-03 0.  1.
</event>
<event>
 8    1  0.1106905E+005  0.1043930E+01  0.7957747E-01            NaN
         13   -1    0    0    0    0  0.00000000000E+00  0.00000000000E+00  0.74505805969E-08  0.10566000000E+00  0.10566000000E+00 0. -1.
     999900   -1    0    0    0    0 -0.00000000000E+00 -0.00000000000E+00 -0.74505805969E-08  0.93827000000E+00  0.93827000000E+00 0. -1.
     999902    2    1    2    0    0 -0.16358995425E-01  0.18736361198E-01  0.10653876955E-02  0.10190341567E+01  0.10187299983E+01 0.  0.
     999903    2    3    3    0    0 -0.69757407996E-01 -0.17174681094E-01  0.10691031570E+00  0.13035865789E+00  0.20062363803E-01 0.  0.
         14    1    1    2    0    0  0.16358995425E-01 -0.18736361198E-01 -0.10653876955E-02  0.24895843291E-01  0.00000000000E+00 0.  1.
     999901    1    3    3    0    0  0.53398412571E-01  0.35911042292E-01 -0.10584492801E+00  0.88867549882E+00  0.88000000000E+00 0. -1.
        -11    1    4    4    0    0 -0.53922960840E-01 -0.19021418926E-01  0.71741962010E-01  0.91742412863E-01  0.51100000000E-03 0. -1.
         11    1    4    4    0    0 -0.15834447155E-01  0.18467378320E-02  0.35168353691E-01  0.38616245023E-01  0.51100000000E-03 0.  1.
</event>
<event>
 8    1  0.1106905E+005  0.1043930E+01  0.7957747E-01            NaN
         13   -1    0    0    0    0  0.00000000000E+00  0.00000000000E+00  0.74505805969E-08  0.10566000000E+00  0.10566000000E+00 0.  1.
     999900   -1    0    0    0    0 -0.00000000000E+00 -0.00000000000E+00 -0.74505805969E-08  0.93827000000E+00  0.93827000000E+00 0. -1.
     999902    2    1    2    0    0  0.21394400017E-01  0.96587968911E-02 -0.40245868674E-02  0.10201138288E+01  0.10198357778E+01 0.  0.
     999903    2    3    3    0    0  0.88344528427E-01 -0.87382049149E-01  0.37110828523E-01  0.13129924306E+00  0.20540190290E-01 0.  0.
         14    1    1    2    0    0 -0.21394400017E-01 -0.96587968911E-02  0.40245868674E-02  0.23816171164E-01  0.00000000000E+00 0. -1.
     999901    1    3    3    0    0 -0.66950128410E-01  0.97040846040E-01 -0.41135415391E-01  0.88881458578E+00  0.88000000000E+00 0. -1.
        -11    1    4    4    0    0  0.69500872111E-01 -0.75436774815E-01  0.36816254239E-01  0.10898062174E+00  0.51100000000E-03 0. -1.
         11    1    4    4    0    0  0.18843656316E-01 -0.11945274334E-01  0.29457428432E-03  0.22318621312E-01  0.51100000000E-03 0.  1.
</event>
<event>
 8    1  0.1106905E+005  0.1043930E+01  0.7957747E-01            NaN
         13   -1    0    0    0    0  0.00000000000E+00  0.00000000000E+00  0.74505805969E-08  0.10566000000E+00  0.10566000000E+00 0.  1.
     999900   -1    0    0    0    0 -0.00000000000E+00 -0.00000000000E+00 -0.74505805969E-08  0.93827000000E+00  0.93827000000E+00 0.  1.
     999902    2    1    2    0    0 -0.84714498242E-02 -0.43267318206E-02  0.22071585437E-01  0.10198958378E+01  0.10196126122E+01 0.  0.
     999903    2    3    3    0    0  0.14695815678E-01 -0.10476858636E+00  0.76716456968E-01  0.13219580380E+00  0.19947232524E-01 0.  0.
         14    1    1    2    0    0  0.84714498242E-02  0.43267318206E-02 -0.22071585437E-01  0.24034162230E-01  0.00000000000E+00 0. -1.
     999901    1    3    3    0    0 -0.23167265503E-01  0.10044185454E+00 -0.54644871531E-01  0.88770003397E+00  0.88000000000E+00 0.  1.
        -11    1    4    4    0    0  0.10951780425E-01 -0.44443893735E-01  0.22531219901E-01  0.51020762205E-01  0.51100000000E-03 0.  1.
         11    1    4    4    0    0  0.37440352532E-02 -0.60324692624E-01  0.54185237067E-01  0.81175041591E-01  0.51100000000E-03 0. -1.
</event>
<event>
 8    1  0.1106905E+005  0.1043930E+01  0.7957747E-01            NaN
         13   -1    0    0    0    0  0.00000000000E+00  0.00000000000E+00  0.74505805969E-08  0.10566000000E+00  0.10566000000E+00 0. -1.
     999900   -1    0    0    0    0 -0.00000000000E+00 -0.00000000000E+00 -0.74505805969E-08  0.93827000000E+00  0.93827000000E+00 0. -1.
     999902    2    1    2    0    0 -0.19377153553E-01 -0.13236805919E-01 -0.91476285011E-04  0.10204630982E+01  0.10201932363E+01 0.  0.
     999903    2    3    3    0    0  0.51605440416E-01  0.11471471376E+00 -0.15174789322E-01  0.12825369099E+00  0.19903466749E-01 0.  0.
         14    1    1    2    0    0  0.19377153553E-01  0.13236805919E-01  0.91476285011E-04  0.23466901769E-01  0.00000000000E+00 0.  1.
     999901    1    3    3    0    0 -0.70982593969E-01 -0.12795151968E+00  0.15083313037E-01  0.89220940724E+00  0.88000000000E+00 0. -1.
        -11    1    4    4    0    0  0.34456706041E-01  0.64314274310E-01 -0.17237842911E-01  0.74973294048E-01  0.51100000000E-03 0. -1.
         11    1    4    4    0    0  0.17148734375E-01  0.50400439449E-01  0.20630535890E-02  0.53280396943E-01  0.51100000000E-03 0.  1.
</event>
<event>
 8    1  0.1106905E+005  0.1043930E+01  0.7957747E-01            NaN
         13   -1    0    0    0    0  0.00000000000E+00  0.00000000000E+00  0.74505805969E-08  0.10566000000E+00  0.10566000000E+00 0.  1.
     999900   -1    0    0    0    0 -0.00000000000E+00 -0.00000000000E+00 -0.74505805969E-08  0.93827000000E+00  0.93827000000E+00 0.  1.
     999902    2    1    2    0    0  0.19797687126E-01 -0.10093483013E-01  0.79274662924E-02  0.10203361123E+01  0.10200632875E+01 0.  0.
     999903    2    3    3    0    0 -0.11263966861E+00 -0.19492512415E-01  0.56280630727E-01  0.12906397459E+00  0.20551086548E-01 0.  0.
         14    1    1    2    0    0 -0.19797687126E-01  0.10093483013E-01 -0.79274662924E-02  0.23593887698E-01  0.00000000000E+00 0. -1.
     999901    1    3    3    0    0  0.13243735573E+00  0.93990294019E-02 -0.48353164434E-01  0.89127213771E+00  0.88000000000E+00 0.  1.
        -11    1    4    4    0    0 -0.28788665575E-01 -0.13502599554E-01  0.11521511904E-01  0.33824751556E-01  0.51100000000E-03 0.  1.
         11    1    4    4    0    0 -0.83851003033E-01 -0.59899128606E-02  0.44759118823E-01  0.95239223036E-01  0.51100000000E-03 0. -1.
</event>
<event>
 8    1  0.1106905E+005  0.1043930E+01  0.7957747E-01            NaN
         13   -1    0    0    0    0  0.00000000000E+00  0.00000000000E+00  0.74505805969E-08  0.10566000000E+00  0.10566000000E+00 0. -1.
     999900   -1    0    0    0    0 -0.00000000000E+00 -0.00000000000E+00 -0.74505805969E-08  0.93827000000E+00  0.93827000000E+00 0.  1.
     999902    2    1    2    0    0  0.13686583826E-01 -0.67671594164E-02  0.16492257208E-01  0.10214553127E+01  0.10212080318E+01 0.  0.
     999903    2    3    3    0    0  0.12562706991E+00  0.16575850233E-01 -0.33285586641E-01  0.13266208459E+00  0.20841758652E-01 0.  0.
         14    1    1    2    0    0 -0.13686583826E-01  0.67671594164E-02 -0.16492257208E-01  0.22474687344E-01  0.00000000000E+00 0.  1.
     999901    1    3    3    0    0 -0.11194048608E+00 -0.23343009649E-01  0.49777843849E-01  0.88879322807E+00  0.88000000000E+00 0.  1.
        -11    1    4    4    0    0  0.45525415670E-01 -0.36469308623E-02 -0.90267480751E-02  0.46557565212E-01  0.51100000000E-03 0.  1.
         11    1    4    4    0    0  0.80101654240E-01  0.20222781095E-01 -0.24258838565E-01  0.86104519375E-01  0.51100000000E-03 0. -1.
</event>
<event>
 8    1  0.1106905E+005  0.1043930E+01  0.7957747E-01            NaN
         13   -1    0    0    0    0  0.00000000000E+00  0.00000000000E+00  0.74505805969E-08  0.10566000000E+00  0.10566000000E+00 0. -1.
     999900   -1    0    0    0    0 -0.00000000000E+00 -0.00000000000E+00 -0.74505805969E-08  0.93827000000E+00  0.93827000000E+00 0. -1.
     999902    2    1    2    0    0 -0.21962109408E-01 -0.28555379226E-02 -0.12299347733E-01  0.10185969721E+01  0.10182819007E+01 0.  0.
     999903    2    3    3    0    0 -0.20158378424E-01  0.12366391781E+00 -0.25438632291E-01  0.12944959012E+00  0.20271842069E-01 0.  0.
         14    1    1    2    0    0  0.21962109408E-01  0.28555379226E-02  0.12299347733E-01  0.25333027872E-01  0.00000000000E+00 0. -1.
     999901    1    3    3    0    0 -0.18037309842E-02 -0.12651945574E+00  0.13139284559E-01  0.88914738200E+00  0.88000000000E+00 0.  1.
        -11    1    4    4    0    0  0.11784839618E-03  0.17702754064E-01 -0.10354379251E-01  0.20515254821E-01  0.51100000000E-03 0.  1.
         11    1    4    4    0    0 -0.20276226820E-01  0.10596116375E+00 -0.15084253040E-01  0.10893433530E+00  0.51100000000E-03 0. -1.
</event>
<event>
 8    1  0.1106905E+005  0.1043930E+01  0.7957747E-01            NaN
         13   -1    0    0    0    0  0.00000000000E+00  0.00000000000E+00  0.74505805969E-08  0.10566000000E+00  0.10566000000E+00 0.  1.
     999900   -1    0    0    0    0 -0.00000000000E+00 -0.00000000000E+00 -0.74505805969E-08  0.93827000000E+00  0.93827000000E+00 0. -1.
     999902    2    1    2    0    0 -0.18413323781E-01 -0.71567668150E-02 -0.14674067250E-01  0.10193210981E+01  0.10190239953E+01 0.  0.
     999903    2    3    3    0    0  0.48983923753E-01  0.11654188853E+00  0.81732083504E-03  0.12798293026E+00  0.19938050445E-01 0.  0.
         14    1    1    2    0    0  0.18413323781E-01  0.71567668150E-02  0.14674067250E-01  0.24608901917E-01  0.00000000000E+00 0.  1.
     999901    1    3    3    0    0 -0.67397247534E-01 -0.12369865535E+00 -0.15491388085E-01  0.89133816782E+00  0.88000000000E+00 0. -1.
        -11    1    4    4    0    0  0.19571702404E-01  0.52172123888E-01 -0.92839165141E-02  0.56492780714E-01  0.51100000000E-03 0. -1.
         11    1    4    4    0    0  0.29412221349E-01  0.64369764647E-01  0.10101237349E-01  0.71490149548E-01  0.51100000000E-03 0.  1.
</event>
<event>
 8    1  0.1106905E+005  0.1043930E+01  0.7957747E-01            NaN
         13   -1    0    0    0    0  0.00000000000E+00  0.00000000000E+00  0.74505805969E-08  0.10566000000E+00  0.10566000000E+00 0.  1.
     999900   -1    0    0    0    0 -0.00000000000E+00 -0.00000000000E+00 -0.74505805969E-08  0.93827000000E+00  0.93827000000E+00 0.  1.
     999902    2    1    2    0    0  0.53018625389E-02 -0.21437297754E-01  0.71750091479E-02  0.10207104342E+01  0.10204462956E+01 0.  0.
     999903    2    3    3    0    0 -0.10663665798E+00  0.43923141629E-01 -0.54359086711E-01  0.12908906589E+00  0.20210329757E-01 0.  0.
         14    1    1    2    0    0 -0.53018625389E-02  0.21437297754E-01 -0.71750091479E-02  0.23219565837E-01  0.00000000000E+00 0.  1.
     999901    1    3    3    0    0  0.11193852052E+00 -0.65360439383E-01  0.61534095859E-01  0.89162136828E+00  0.88000000000E+00 0.  1.
        -11    1    4    4    0    0 -0.98714331065E-01  0.37569344060E-01 -0.43550436573E-01  0.11424918563E+00  0.51100000000E-03 0.  1.
         11    1    4    4    0    0 -0.79223269116E-02  0.63537975694E-02 -0.10808650137E-01  0.14839880257E-01  0.51100000000E-03 0. -1.
</event>
<event>
 8    1  0.1106905E+005  0.1043930E+01  0.7957747E-01            NaN
         13   -1    0    0    0    0  0.00000000000E+00  0.00000000000E+00  0.74505805969E-08  0.10566000000E+00  0.10566000000E+00 0.  1.
     999900   -1    0    0    0    0 -0.00000000000E+00 -0.00000000000E+00 -0.74505805969E-08  0.93827000000E+00  0.93827000000E+00 0.  1.
     999902    2    1    2    0    0 -0.11691589712E-01 -0.87192163053E-02 -0.17738291914E-01  0.10209655709E+01  0.10207072705E+01 0.  0.
     999903    2    3    3    0    0  0.12524666838E+00  0.12017325487E-01  0.22000083300E-01  0.12924743767E+00  0.19742148496E-01 0.  0.
         14    1    1    2    0    0  0.11691589712E-01  0.87192163053E-02  0.17738291914E-01  0.22964429080E-01  0.00000000000E+00 0.  1.
     999901    1    3    3    0    0 -0.13693825809E+00 -0.20736541793E-01 -0.39738375214E-01  0.89171813325E+00  0.88000000000E+00 0. -1.
        -11    1    4    4    0    0  0.10195100919E+00  0.16643336517E-01  0.21335587580E-01  0.10548211859E+00  0.51100000000E-03 0.  1.
         11    1    4    4    0    0  0.23295659197E-01 -0.46260110300E-02  0.66449572028E-03  0.23765319081E-01  0.51100000000E-03 0. -1.
</event>
<event>
 8    1  0.1106905E+005  0.1043930E+01  0.7957747E-01            NaN
         13   -1    0    0    0    0  0.00000000000E+00  0.00000000000E+00  0.74505805969E-08  0.10566000000E+00  0.10566000000E+00 0.  1.
     999900   -1    0    0    0    0 -0.00000000000E+00 -0.00000000000E+00 -0.74505805969E-08  0.93827000000E+00  0.93827000000E+00 0. -1.
     999902    2    1    2    0    0 -0.18202411768E-01 -0.66088106689E-02  0.15894686915E-01  0.10188771510E+01  0.10185690961E+01 0.  0.
     999903    2    3    3    0    0 -0.90589841127E-01  0.91606346918E-01 -0.59463844177E-04  0.13031612772E+00  0.19597129798E-01 0.  0.
         14    1    1    2    0    0  0.18202411768E-01  0.66088106689E-02 -0.15894686915E-01  0.25052849035E-01  0.00000000000E+00 0. -1.
     999901    1    3    3    0    0  0.72387429359E-01 -0.98215157587E-01  0.15954150759E-01  0.88856102325E+00  0.88000000000E+00 0.  1.
        -11    1    4    4    0    0 -0.36139733730E-01  0.23488508492E-01 -0.48049746233E-03  0.43107799574E-01  0.51100000000E-03 0. -1.
         11    1    4    4    0    0 -0.54450107396E-01  0.68117838426E-01  0.42103361815E-03  0.87208328144E-01  0.51100000000E-03 0.  1.
</event>
<event>
 8    1  0.1106905E+005  0.1043930E+01  0.7957747E-01            NaN
         13   -1    0    0    0    0  0.00000000000E+00  0.00000000000E+00  0.74505805969E-08  0.10566000000E+00  0.10566000000E+00 0.  1.
     999900   -1    0    0    0    0 -0.00000000000E+00 -0.00000000000E+00 -0.74505805969E-08  0.93827000000E+00  0.93827000000E+00 0.  1.
     999902    2    1    2    0    0  0.25003898564E-02  0.25718060659E-01 -0.76479273794E-03  0.10180793617E+01  0.10177511146E+01 0.  0.
     999903    2    3    3    0    0  0.16244499998E-01  0.12919438159E+00  0.16775831213E-02  0.13190657111E+00  0.21010882937E-01 0.  0.
         14    1    1    2    0    0 -0.25003898564E-02 -0.25718060659E-01  0.76479273794E-03  0.25850638318E-01  0.00000000000E+00 0. -1.
     999901    1    3    3    0    0 -0.13744110142E-01 -0.10347632093E+00 -0.24423758593E-02  0.88617279058E+00  0.88000000000E+00 0. -1.
        -11    1    4    4    0    0  0.10947270808E-01  0.48449774882E-01  0.96241703455E-02  0.50597521679E-01  0.51100000000E-03 0.  1.
         11    1    4    4    0    0  0.52972291905E-02  0.80744606707E-01 -0.79465872242E-02  0.81309049428E-01  0.51100000000E-03 0. -1.
</event>
<event>
 8    1  0.1106905E+005  0.1043930E+01  0.7957747E-01            NaN
         13   -1    0    0    0    0  0.00000000000E+00  0.00000000000E+00  0.74505805969E-08  0.10566000000E+00  0.10566000000E+00 0.  1.
     999900   -1    0    0    0    0 -0.00000000000E+00 -0.00000000000E+00 -0.74505805969E-08  0.93827000000E+00  0.93827000000E+00 0. -1.
     999902    2    1    2    0    0  0.10852575450E-01  0.84539903088E-02  0.19791293182E-01  0.10198272277E+01  0.10195423634E+01 0.  0.
     999903    2    3    3    0    0  0.58336074759E-01 -0.11474919219E+00  0.23831719095E-02  0.12980658213E+00  0.16540693101E-01 0.  0.
         14    1    1    2    0    0 -0.10852575450E-01 -0.84539903088E-02 -0.19791293182E-01  0.24102772286E-01  0.00000000000E+00 0. -1.
     999901    1    3    3    0    0 -0.47483499309E-01  0.12320318250E+00  0.17408121273E-01  0.89002064559E+00  0.88000000000E+00 0. -1.
        -11    1    4    4    0    0  0.39022210662E-01 -0.91087735540E-01 -0.75186067096E-03  0.99098612030E-01  0.51100000000E-03 0.  1.
         11    1    4    4    0    0  0.19313864096E-01 -0.23661456652E-01  0.31350325805E-02  0.30707970097E-01  0.51100000000E-03 0. -1.
</event>
<event>
 8    1  0.1106905E+005  0.1043930E+01  0.7957747E-01            NaN
         13   -1    0    0    0    0  0.00000000000E+00  0.00000000000E+00  0.74505805969E-08  0.10566000000E+00  0.10566000000E+00 0. -1.
     999900   -1    0    0    0    0 -0.00000000000E+00 -0.00000000000E+00 -0.74505805969E-08  0.93827000000E+00  0.93827000000E+00 0.  1.
     999902    2    1    2    0    0  0.39884055659E-02  0.31493913349E-02  0.24806442333E-01  0.10186083566E+01  0.10182935718E+01 0.  0.
     999903    2    3    3    0    0  0.96791211078E-01  0.25112383950E-01 -0.76944306491E-01  0.12762690410E+00  0.19210153041E-01 0.  0.
         14    1    1    2    0    0 -0.39884055659E-02 -0.31493913349E-02 -0.24806442333E-01  0.25321643429E-01  0.00000000000E+00 0.  1.
     999901    1    3    3    0    0 -0.92802805513E-01 -0.21962992615E-01  0.10175074882E+00  0.89098145247E+00  0.88000000000E+00 0.  1.
        -11    1    4    4    0    0  0.56366217670E-01  0.10137173667E-01 -0.33160425729E-01  0.66179964792E-01  0.51100000000E-03 0.  1.
         11    1    4    4    0    0  0.40424993409E-01  0.14975210283E-01 -0.43783880762E-01  0.61446939311E-01  0.51100000000E-03 0. -1.
</event>
<event>
 7    1  0.1106905E+005  0.1043930E+01  0.7957747E-01            NaN
         13   -1    0    0    0    0  0.00000000000E+00  0.00000000000E+00  0.74505805969E-08  0.10566000000E+00  0.10566000000E+00 0.  1.
     999900   -1    0    0    0    0 -0.00000000000E+00 -0.00000000000E+00 -0.74505805969E-08  0.93827000000E+00  0.93827000000E+00 0.  1.
     999902    2    1    2    0    0 -0.66710753623E-02  0.72310296045E-02 -0.21947067437E-01  0.10198787047E+01  0.10195950704E+01 0.  0.
         14    1    1    2    0    0  0.66710753623E-02 -0.72310296045E-02  0.21947067437E-01  0.24051295282E-01  0.00000000000E+00 0.  1.
     999901    1    3    3    0    0  0.62027401715E-01 -0.70617804807E-01  0.60788678512E-01  0.88709048938E+00  0.88000000000E+00 0. -1.
        -11    1    3    3    0    0 -0.17248826661E-01  0.20685198899E-01 -0.22481014314E-01  0.35086416178E-01  0.51100000000E-03 0.  1.
         11    1    3    3    0    0 -0.51449650416E-01  0.57163635513E-01 -0.60254731635E-01  0.97701799157E-01  0.51100000000E-03 0. -1.
</event>
<event>
 8    1  0.1106905E+005  0.1043930E+01  0.7957747E-01            NaN
         13   -1    0    0    0    0  0.00000000000E+00  0.00000000000E+00  0.74505805969E-08  0.10566000000E+00  0.10566000000E+00 0. -1.
     999900   -1    0    0    0    0 -0.00000000000E+00 -0.00000000000E+00 -0.74505805969E-08  0.93827000000E+00  0.93827000000E+00 0. -1.
     999902    2    1    2    0    0  0.15576216077E-01  0.15568021428E-01 -0.72135215254E-02  0.10207563794E+01  0.10204932971E+01 0.  0.
     999903    2    3    3    0    0 -0.18687287121E-01  0.41829109074E-01 -0.12243939067E+00  0.13219538922E+00  0.19629759983E-01 0.  0.
         14    1    1    2    0    0 -0.15576216077E-01 -0.15568021428E-01  0.72135215254E-02  0.23173620590E-01  0.00000000000E+00 0. -1.
     999901    1    3    3    0    0  0.34263503198E-01 -0.26261087646E-01  0.11522586914E+00  0.88856099019E+00  0.88000000000E+00 0. -1.
        -11    1    4    4    0    0 -0.16232653676E-01  0.21163887676E-01 -0.87987985602E-01  0.91943221165E-01  0.51100000000E-03 0.  1.
         11    1    4    4    0    0 -0.24546334451E-02  0.20665221398E-01 -0.34451405065E-01  0.40252168050E-01  0.51100000000E-03 0. -1.
</event>
<event>
 8    1  0.1106905E+005  0.1043930E+01  0.7957747E-01            NaN
         13   -1    0    0    0    0  0.00000000000E+00  0.00000000000E+00  0.74505805969E-08  0.10566000000E+00  0.10566000000E+00 0.  1.
     999900   -1    0    0    0    0 -0.00000000000E+00 -0.00000000000E+00 -0.74505805969E-08  0.93827000000E+00  0.93827000000E+00 0. -1.
     999902    2    1    2    0    0  0.22160886344E-01  0.69021334811E-02  0.17098128628E-02  0.10206562425E+01  0.10203908552E+01 0.  0.
     999903    2    3    3    0    0 -0.36788349839E-01 -0.96045391618E-01  0.76101013733E-01  0.12958539447E+00  0.20564781377E-01 0.  0.
         14    1    1    2    0    0 -0.22160886344E-01 -0.69021334811E-02 -0.17098128628E-02  0.23273757543E-01  0.00000000000E+00 0. -1.
     999901    1    3    3    0    0  0.58949236183E-01  0.10294752510E+00 -0.74391200870E-01  0.89107084799E+00  0.88000000000E+00 0. -1.
        -11    1    4    4    0    0 -0.23246014312E-01 -0.32813085247E-01  0.29498258825E-01  0.49874684355E-01  0.51100000000E-03 0. -1.
         11    1    4    4    0    0 -0.13542335527E-01 -0.63232306372E-01  0.46602754908E-01  0.79710710112E-01  0.51100000000E-03 0.  1.
</event>
<event>
 8    1  0.1106905E+005  0.1043930E+01  0.7957747E-01            NaN
         13   -1    0    0    0    0  0.00000000000E+00  0.00000000000E+00  0.74505805969E-08  0.10566000000E+00  0.10566000000E+00 0.  1.
     999900   -1    0    0    0    0 -0.00000000000E+00 -0.00000000000E+00 -0.74505805969E-08  0.93827000000E+00  0.93827000000E+00 0.  1.
     999902    2    1    2    0    0  0.15867679490E-02  0.16710113422E-01  0.16246731442E-01  0.10205697345E+01  0.10203023478E+01 0.  0.
     999903    2    3    3    0    0 -0.12519431410E+00  0.76391719015E-02 -0.28916880417E-01  0.13029142036E+00  0.20191458987E-01 0.  0.
         14    1    1    2    0    0 -0.15867679490E-02 -0.16710113422E-01 -0.16246731442E-01  0.23360265530E-01  0.00000000000E+00 0. -1.
     999901    1    3    3    0    0  0.12678108205E+00  0.90709415208E-02  0.45163611859E-01  0.89027831411E+00  0.88000000000E+00 0. -1.
        -11    1    4    4    0    0 -0.14470191587E-02  0.21065941950E-02 -0.25461416732E-02  0.36435644591E-02  0.51100000000E-03 0.  1.
         11    1    4    4    0    0 -0.12374729494E+00  0.55325777066E-02 -0.26370738744E-01  0.12664785590E+00  0.51100000000E-03 0. -1.
</event>
<event>
 8    1  0.1106905E+005  0.1043930E+01  0.7957747E-01            NaN
         13   -1    0    0    0    0  0.00000000000E+00  0.00000000000E+00  0.74505805969E-08  0.10566000000E+00  0.10566000000E+00 0.  1.
     999900   -1    0    0    0    0 -0.00000000000E+00 -0.00000000000E+00 -0.74505805969E-08  0.93827000000E+00  0.93827000000E+00 0. -1.
     999902    2    1    2    0    0  0.66415223771E-02  0.23767960590E-01 -0.26674956274E-02  0.10191078062E+01  0.10188054669E+01 0.  0.
     999903    2    3    3    0    0 -0.11406796155E+00  0.21232445414E-01 -0.53791237243E-01  0.12939389419E+00  0.19671452849E-01 0.  0.
         14    1    1    2    0    0 -0.66415223771E-02 -0.23767960590E-01  0.26674956274E-02  0.24822193759E-01  0.00000000000E+00 0. -1.
     999901    1    3    3    0    0  0.12070948393E+00  0.25355151757E-02  0.51123741615E-01  0.88971391206E+00  0.88000000000E+00 0.  1.
        -11    1    4    4    0    0 -0.60323941461E-01  0.14833951954E-01 -0.18655765580E-01  0.64863878656E-01  0.51100000000E-03 0.  1.
         11    1    4    4    0    0 -0.53744020092E-01  0.63984934610E-02 -0.35135471663E-01  0.64530015529E-01  0.51100000000E-03 0. -1.
</event>
<event>
 8    1  0.1106905E+005  0.1043930E+01  0.7957747E-01            NaN
         13   -1    0    0    0    0  0.00000000000E+00  0.00000000000E+00  0.74505805969E-08  0.10566000000E+00  0.10566000000E+00 0.  1.
     999900   -1    0    0    0    0 -0.00000000000E+00 -0.00000000000E+00 -0.74505805969E-08  0.93827000000E+00  0.93827000000E+00 0. -1.
     999902    2    1    2    0    0  0.21004581157E-02 -0.24294304023E-01  0.50696988868E-02  0.10190236358E+01  0.10187192171E+01 0.  0.
     999903    2    3    3    0    0  0.82021380334E-01 -0.77826826096E-01 -0.63937692971E-01  0.13109621483E+00  0.17710654097E-01 0.  0.
         14    1    1    2    0    0 -0.21004581157E-02  0.24294304023E-01 -0.50696988868E-02  0.24906364228E-01  0.00000000000E+00 0. -1.
     999901    1    3    3    0    0 -0.79920922218E-01  0.53532522074E-01  0.69007391858E-01  0.88792742094E+00  0.88000000000E+00 0. -1.
        -11    1    4    4    0    0  0.24194917564E-01 -0.25651897576E-01 -0.11074139313E-01  0.36963651980E-01  0.51100000000E-03 0.  1.
         11    1    4    4    0    0  0.57826462770E-01 -0.52174928520E-01 -0.52863553658E-01  0.94132562851E-01  0.51100000000E-03 0. -1.
</event>
<event>
 8    1  0.1106905E+005  0.1043930E+01  0.7957747E-01            NaN
         13   -1    0    0    0    0  0.00000000000E+00  0.00000000000E+00  0.74505805969E-08  0.10566000000E+00  0.10566000000E+00 0.  1.
     999900   -1    0    0    0    0 -0.00000000000E+00 -0.00000000000E+00 -0.74505805969E-08  0.93827000000E+00  0.93827000000E+00 0.  1.
     999902    2    1    2    0    0 -0.10704073741E-01  0.17111583311E-01  0.47549552372E-03  0.10237406569E+01  0.10235415590E+01 0.  0.
     999903    2    3    3    0    0 -0.93691024158E-01  0.43790018810E-01  0.85014075244E-01  0.13540212667E+00  0.20267440947E-01 0.  0.
         14    1    1    2    0    0  0.10704073741E-01 -0.17111583311E-01 -0.47549552372E-03  0.20189343082E-01  0.00000000000E+00 0. -1.
     999901    1    3    3    0    0  0.82986950417E-01 -0.26678435499E-01 -0.84538579720E-01  0.88833853025E+00  0.88000000000E+00 0.  1.
        -11    1    4    4    0    0 -0.26524045516E-01  0.14300855779E-01  0.37033553087E-01  0.47747090401E-01  0.51100000000E-03 0. -1.
         11    1    4    4    0    0 -0.67166978642E-01  0.29489163031E-01  0.47980522157E-01  0.87655036270E-01  0.51100000000E-03 0.  1.
</event>
<event>
 8    1  0.1106905E+005  0.1043930E+01  0.7957747E-01            NaN
         13   -1    0    0    0    0  0.00000000000E+00  0.00000000000E+00  0.74505805969E-08  0.10566000000E+00  0.10566000000E+00 0.  1.
     999900   -1    0    0    0    0 -0.00000000000E+00 -0.00000000000E+00 -0.74505805969E-08  0.93827000000E+00  0.93827000000E+00 0.  1.
     999902    2    1    2    0    0 -0.18580109040E-01 -0.15127878401E-01  0.13763146978E-02  0.10199306792E+01  0.10196482840E+01 0.  0.
     999903    2    3    3    0    0 -0.10701031135E+00  0.28139833506E-01 -0.68539325265E-01  0.13168510939E+00  0.20006797864E-01 0.  0.
         14    1    1    2    0    0  0.18580109040E-01  0.15127878401E-01 -0.13763146978E-02  0.23999320803E-01  0.00000000000E+00 0.  1.
     999901    1    3    3    0    0  0.88430202314E-01 -0.43267711908E-01  0.69915639963E-01  0.88824556981E+00  0.88000000000E+00 0.  1.
        -11    1    4    4    0    0 -0.46670516359E-01  0.21013175847E-02 -0.28124619489E-01  0.54532632205E-01  0.51100000000E-03 0. -1.
         11    1    4    4    0    0 -0.60339794995E-01  0.26038515921E-01 -0.40414705776E-01  0.77152477183E-01  0.51100000000E-03 0.  1.
</event>
<event>
 8    1  0.1106905E+005  0.1043930E+01  0.7957747E-01            NaN
         13   -1    0    0    0    0  0.00000000000E+00  0.00000000000E+00  0.74505805969E-08  0.10566000000E+00  0.10566000000E+00 0. -1.
     999900   -1    0    0    0    0 -0.00000000000E+00 -0.00000000000E+00 -0.74505805969E-08  0.93827000000E+00  0.93827000000E+00 0.  1.
     999902    2    1    2    0    0  0.86213007963E-02  0.20008570178E-01  0.61219581049E-02  0.10212993111E+01  0.10210485468E+01 0.  0.
     999903    2    3    3    0    0 -0.29435420859E-02 -0.32367899004E-01  0.12587380166E+00  0.13157039502E+00  0.20253631171E-01 0.  0.
         14    1    1    2    0    0 -0.86213007963E-02 -0.20008570178E-01 -0.61219581049E-02  0.22630688877E-01  0.00000000000E+00 0.  1.
     999901    1    3    3    0    0  0.11564842882E-01  0.52376469182E-01 -0.11975184355E+00  0.88972891610E+00  0.88000000000E+00 0.  1.
        -11    1    4    4    0    0 -0.91502842530E-02 -0.30220696294E-01  0.99794517743E-01  0.10467198803E+00  0.51100000000E-03 0. -1.
         11    1    4    4    0    0  0.62067421670E-02 -0.21472027098E-02  0.26079283917E-01  0.26898406987E-01  0.51100000000E-03 0.  1.
</event>
<event>
 8    1  0.1106905E+005  0.1043930E+01  0.7957747E-01            NaN
         13   -1    0    0    0    0  0.00000000000E+00  0.00000000000E+00  0.74505805969E-08  0.10566000000E+00  0.10566000000E+00 0.  1.
     999900   -1    0    0    0    0 -0.00000000000E+00 -0.00000000000E+00 -0.74505805969E-08  0.93827000000E+00  0.93827000000E+00 0.  1.
     999902    2    1    2    0    0  0.13165319690E-01 -0.38063905955E-02 -0.20617879308E-01  0.10191729566E+01  0.10188722217E+01 0.  0.
     999903    2    3    3    0    0 -0.41071432062E-02 -0.12275512937E-01  0.12477244996E+00  0.12703596494E+00  0.20060290981E-01 0.  0.
         14    1    1    2    0    0 -0.13165319690E-01  0.38063905955E-02  0.20617879308E-01  0.24757043424E-01  0.00000000000E+00 0. -1.
     999901    1    3    3    0    0  0.17272462896E-01  0.84691223413E-02 -0.14539032927E+00  0.89213699164E+00  0.88000000000E+00 0.  1.
        -11    1    4    4    0    0  0.64396813956E-02 -0.67581643879E-02  0.27699651023E-01  0.29234809221E-01  0.51100000000E-03 0.  1.
         11    1    4    4    0    0 -0.10546824602E-01 -0.55173485489E-02  0.97072798940E-01  0.97801155715E-01  0.51100000000E-03 0. -1.
</event>
<event>
 8    1  0.1106905E+005  0.1043930E+01  0.7957747E-01            NaN
         13   -1    0    0    0    0  0.00000000000E+00  0.00000000000E+00  0.74505805969E-08  0.10566000000E+00  0.10566000000E+00 0.  1.
     999900   -1    0    0    0    0 -0.00000000000E+00 -0.00000000000E+00 -0.74505805969E-08  0.93827000000E+00  0.93827000000E+00 0. -1.
     999902    2    1    2    0    0 -0.12060501056E-01  0.19034989950E-01  0.62778892856E-02  0.10205377273E+01  0.10202695989E+01 0.  0.
     999903    2    3    3    0    0  0.84510821089E-01  0.56495437655E-01 -0.79071428463E-01  0.13036144620E+00  0.20199071718E-01 0.  0.
         14    1    1    2    0    0  0.12060501056E-01 -0.19034989950E-01 -0.62778892856E-02  0.23392272698E-01  0.00000000000E+00 0. -1.
     999901    1    3    3    0    0 -0.96571322145E-01 -0.37460447706E-01  0.85349317748E-01  0.89017628111E+00  0.88000000000E+00 0.  1.
        -11    1    4    4    0    0  0.45328129148E-01  0.35949748782E-01 -0.55753005282E-01  0.80347261611E-01  0.51100000000E-03 0. -1.
         11    1    4    4    0    0  0.39182691941E-01  0.20545688873E-01 -0.23318423181E-01  0.50014184585E-01  0.51100000000E-03 0.  1.
</event>
<event>
 8    1  0.1106905E+005  0.1043930E+01  0.7957747E-01            NaN
         13   -1    0    0    0    0  0.00000000000E+00  0.00000000000E+00  0.74505805969E-08  0.10566000000E+00  0.10566000000E+00 0.  1.
     999900   -1    0    0    0    0 -0.00000000000E+00 -0.00000000000E+00 -0.74505805969E-08  0.93827000000E+00  0.93827000000E+00 0. -1.
     999902    2    1    2    0    0  0.21212106778E-01  0.74009183533E-02 -0.55096149939E-02  0.10207981405E+01  0.10205360164E+01 0.  0.
     999903    2    3    3    0    0  0.89678154050E-01  0.34249947419E-02 -0.96799735312E-01  0.13342150476E+00  0.19421824649E-01 0.  0.
         14    1    1    2    0    0 -0.21212106778E-01 -0.74009183533E-02  0.55096149939E-02  0.23131859497E-01  0.00000000000E+00 0. -1.
     999901    1    3    3    0    0 -0.68466047272E-01  0.39759236114E-02  0.91290120318E-01  0.88737663574E+00  0.88000000000E+00 0. -1.
        -11    1    4    4    0    0  0.78138142189E-01  0.73842994036E-02 -0.90104211074E-01  0.11949530165E+00  0.51100000000E-03 0. -1.
         11    1    4    4    0    0  0.11540011861E-01 -0.39593046617E-02 -0.66955242377E-02  0.13926203107E-01  0.51100000000E-03 0.  1.
</event>
<event>
 8    1  0.1106905E+005  0.1043930E+01  0.7957747E-01            NaN
         13   -1    0    0    0    0  0.00000000000E+00  0.00000000000E+00  0.74505805969E-08  0.10566000000E+00  0.10566000000E+00 0.  1.
     999900   -1    0    0    0    0 -0.00000000000E+00 -0.00000000000E+00 -0.74505805969E-08  0.93827000000E+00  0.93827000000E+00 0.  1.
     999902    2    1    2    0    0  0.14648791752E-01  0.17461926185E-01  0.59968268311E-02  0.10203616335E+01  0.10200894055E+01 0.  0.
     999903    2    3    3    0    0 -0.98204777403E-01  0.48601414981E-01  0.67787438116E-01  0.13046069777E+00  0.20459253473E-01 0.  0.
         14    1    1    2    0    0 -0.14648791752E-01 -0.17461926185E-01 -0.59968268311E-02  0.23568366467E-01  0.00000000000E+00 0.  1.
     999901    1    3    3    0    0  0.11285356916E+00 -0.31139488796E-01 -0.61790611285E-01  0.88990093577E+00  0.88000000000E+00 0.  1.
        -11    1    4    4    0    0 -0.36398769030E-01  0.27899938445E-01  0.33611468035E-01  0.56861840074E-01  0.51100000000E-03 0.  1.
         11    1    4    4    0    0 -0.61806008373E-01  0.20701476536E-01  0.34175970081E-01  0.73598857693E-01  0.51100000000E-03 0. -1.
</event>
<event>
 8    1  0.1106905E+005  0.1043930E+01  0.7957747E-01            NaN
         13   -1    0    0    0    0  0.00000000000E+00  0.00000000000E+00  0.74505805969E-08  0.10566000000E+00  0.10566000000E+00 0.  1.
     999900   -1    0    0    0    0 -0.00000000000E+00 -0.00000000000E+00 -0.74505805969E-08  0.93827000000E+00  0.93827000000E+00 0. -1.
     999902    2    1    2    0    0 -0.18899704496E-01  0.90006311121E-02  0.79464793768E-02  0.10215390035E+01  0.10212935812E+01 0.  0.
     999903    2    3    3    0    0 -0.55804067848E-01  0.22816592928E-01 -0.11578289731E+00  0.13201004303E+00  0.19654038990E-01 0.  0.
         14    1    1    2    0    0  0.18899704496E-01 -0.90006311121E-02 -0.79464793768E-02  0.22390996515E-01  0.00000000000E+00 0.  1.
     999901    1    3    3    0    0  0.36904363352E-01 -0.13815961816E-01  0.12372937669E+00  0.88952896046E+00  0.88000000000E+00 0.  1.
        -11    1    4    4    0    0 -0.65978329374E-02  0.55192628175E-02 -0.61047581141E-02  0.10560438161E-01  0.51100000000E-03 0. -1.
         11    1    4    4    0    0 -0.49206234911E-01  0.17297330110E-01 -0.10967813920E+00  0.12144960487E+00  0.51100000000E-03 0.  1.
</event>
<event>
 8    1  0.1106905E+005  0.1043930E+01  0.7957747E-01            NaN
         13   -1    0    0    0    0  0.00000000000E+00  0.00000000000E+00  0.74505805969E-08  0.10566000000E+00  0.10566000000E+00 0. -1.
     999900   -1    0    0    0    0 -0.00000000000E+00 -0.00000000000E+00 -0.74505805969E-08  0.93827000000E+00  0.93827000000E+00 0.  1.
     999902    2    1    2    0    0 -0.21330307350E-01 -0.16791168956E-01  0.37356239042E-02  0.10165278057E+01  0.10161584028E+01 0.  0.
     999903    2    3    3    0    0 -0.37317749988E-01 -0.11599395423E+00 -0.39375241294E-01  0.12976101695E+00  0.20983326947E-01 0.  0.
         14    1    1    2    0    0  0.21330307350E-01  0.16791168956E-01 -0.37356239042E-02  0.27402194301E-01  0.00000000000E+00 0.  1.
     999901    1    3    3    0    0  0.15987442638E-01  0.99202785279E-01  0.43110865199E-01  0.88676678875E+00  0.88000000000E+00 0. -1.
        -11    1    4    4    0    0 -0.10870935351E-01 -0.60667210117E-01 -0.12930887412E-01  0.62977429204E-01  0.51100000000E-03 0.  1.
         11    1    4    4    0    0 -0.26446814636E-01 -0.55326744118E-01 -0.26444353882E-01  0.66783587747E-01  0.51100000000E-03 0. -1.
</event>
<event>
 8    1  0.1106905E+005  0.1043930E+01  0.7957747E-01            NaN
         13   -1    0    0    0    0  0.00000000000E+00  0.00000000000E+00  0.74505805969E-08  0.10566000000E+00  0.10566000000E+00 0. -1.
     999900   -1    0    0    0    0 -0.00000000000E+00 -0.00000000000E+00 -0.74505805969E-08  0.93827000000E+00  0.93827000000E+00 0. -1.
     999902    2    1    2    0    0  0.70997364237E-02 -0.12538043956E-01  0.18692175437E-01  0.10203290207E+01  0.10200560299E+01 0.  0.
     999903    2    3    3    0    0  0.11090129391E+00  0.53363062620E-01  0.42586131182E-01  0.13145971625E+00  0.17926655740E-01 0.  0.
         14    1    1    2    0    0 -0.70997364237E-02  0.12538043956E-01 -0.18692175437E-01  0.23600979346E-01  0.00000000000E+00 0.  1.
     999901    1    3    3    0    0 -0.10380155748E+00 -0.65901106576E-01 -0.23893955745E-01  0.88886930440E+00  0.88000000000E+00 0.  1.
        -11    1    4    4    0    0  0.78909287505E-01  0.40907696050E-01  0.22525302301E-01  0.91693869017E-01  0.51100000000E-03 0.  1.
         11    1    4    4    0    0  0.31992006403E-01  0.12455366571E-01  0.20060828881E-01  0.39765847237E-01  0.51100000000E-03 0. -1.
</event>
<event>
 7    1  0.1106905E+005  0.1043930E+01  0.7957747E-01            NaN
         13   -1    0    0    0    0  0.00000000000E+00  0.00000000000E+00  0.74505805969E-08  0.10566000000E+00  0.10566000000E+00 0.  1.
     999900   -1    0    0    0    0 -0.00000000000E+00 -0.00000000000E+00 -0.74505805969E-08  0.93827000000E+00  0.93827000000E+00 0.  1.
     999903    2    1    2    0    0 -0.31741187317E-02 -0.11140263300E+00 -0.29523264026E-01  0.11679927193E+00  0.18703612892E-01 0.  0.
         14    1    1    2    0    0 -0.33274018260E-01  0.17254466421E-01  0.17281890125E-01  0.41273970356E-01  0.00000000000E+00 0. -1.
     999901    1    1    2    0    0  0.36448136992E-01  0.94148166576E-01  0.12241373901E-01  0.88585675772E+00  0.88000000000E+00 0.  1.
        -11    1    3    3    0    0  0.53602220196E-02 -0.84805150870E-01 -0.20165072418E-01  0.87335770797E-01  0.51100000000E-03 0.  1.
         11    1    3    3    0    0 -0.85343407512E-02 -0.26597482128E-01 -0.93581916080E-02  0.29463501129E-01  0.51100000000E-03 0. -1.
</event>
<event>
 8    1  0.1106905E+005  0.1043930E+01  0.7957747E-01            NaN
         13   -1    0    0    0    0  0.00000000000E+00  0.00000000000E+00  0.74505805969E-08  0.10566000000E+00  0.10566000000E+00 0.  1.
     999900   -1    0    0    0    0 -0.00000000000E+00 -0.00000000000E+00 -0.74505805969E-08  0.93827000000E+00  0.93827000000E+00 0.  1.
     999902    2    1    2    0    0  0.61247231898E-02 -0.14016704339E-01  0.24307150115E-01  0.10152103590E+01  0.10148040477E+01 0.  0.
     999903    2    3    3    0    0  0.32783032844E-02 -0.38179567018E-01 -0.11601661417E+00  0.12376058199E+00  0.19707873551E-01 0.  0.
         14    1    1    2    0    0 -0.61247231898E-02  0.14016704339E-01 -0.24307150115E-01  0.28719641039E-01  0.00000000000E+00 0. -1.
     999901    1    3    3    0    0  0.28464199054E-02  0.24162862678E-01  0.14032376429E+00  0.89144977697E+00  0.88000000000E+00 0. -1.
        -11    1    4    4    0    0  0.82659948351E-02 -0.15604573557E-01 -0.31267001427E-01  0.35912614577E-01  0.51100000000E-03 0. -1.
         11    1    4    4    0    0 -0.49876915507E-02 -0.22574993460E-01 -0.84749612747E-01  0.87847967412E-01  0.51100000000E-03 0.  1.
</event>
<event>
 8    1  0.1106905E+005  0.1043930E+01  0.7957747E-01            NaN
         13   -1    0    0    0    0  0.00000000000E+00  0.00000000000E+00  0.74505805969E-08  0.10566000000E+00  0.10566000000E+00 0.  1.
     999900   -1    0    0    0    0 -0.00000000000E+00 -0.00000000000E+00 -0.74505805969E-08  0.93827000000E+00  0.93827000000E+00 0.  1.
     999902    2    1    2    0    0 -0.17577957199E-01 -0.18241731908E-01  0.11866857394E-01  0.10159555891E+01  0.10155703773E+01 0.  0.
     999903    2    3    3    0    0 -0.37234692412E-01  0.38347842556E-01 -0.11157931189E+00  0.12532226167E+00  0.19968652396E-01 0.  0.
         14    1    1    2    0    0  0.17577957199E-01  0.18241731908E-01 -0.11866857394E-01  0.27974410927E-01  0.00000000000E+00 0. -1.
     999901    1    3    3    0    0  0.19656735213E-01 -0.56589574464E-01  0.12344616929E+00  0.89063332741E+00  0.88000000000E+00 0. -1.
        -11    1    4    4    0    0 -0.22307414111E-01  0.22620843537E-01 -0.43480805874E-01  0.53853178988E-01  0.51100000000E-03 0. -1.
         11    1    4    4    0    0 -0.14927278300E-01  0.15726999019E-01 -0.68098506020E-01  0.71469082678E-01  0.51100000000E-03 0.  1.
</event>
<event>
 8    1  0.1106905E+005  0.1043930E+01  0.7957747E-01            NaN
         13   -1    0    0    0    0  0.00000000000E+00  0.00000000000E+00  0.74505805969E-08  0.10566000000E+00  0.10566000000E+00 0. -1.
     999900   -1    0    0    0    0 -0.00000000000E+00 -0.00000000000E+00 -0.74505805969E-08  0.93827000000E+00  0.93827000000E+00 0.  1.
     999902    2    1    2    0    0  0.21983357862E-01  0.16063759138E-01  0.32938197054E-02  0.10165044348E+01  0.10161343928E+01 0.  0.
     999903    2    3    3    0    0 -0.93993152326E-01  0.80993858160E-01  0.15108220707E-01  0.12644485881E+00  0.19113509409E-01 0.  0.
         14    1    1    2    0    0 -0.21983357862E-01 -0.16063759138E-01 -0.32938197054E-02  0.27425565241E-01  0.00000000000E+00 0. -1.
     999901    1    3    3    0    0  0.11597651019E+00 -0.64930099022E-01 -0.11814401002E-01  0.89005957595E+00  0.88000000000E+00 0.  1.
        -11    1    4    4    0    0 -0.47758987069E-01  0.47586177543E-01 -0.52602045881E-04  0.67421280224E-01  0.51100000000E-03 0.  1.
         11    1    4    4    0    0 -0.46234165257E-01  0.33407680617E-01  0.15160822753E-01  0.59023578583E-01  0.51100000000E-03 0. -1.
</event>
<event>
 8    1  0.1106905E+005  0.1043930E+01  0.7957747E-01            NaN
         13   -1    0    0    0    0  0.00000000000E+00  0.00000000000E+00  0.74505805969E-08  0.10566000000E+00  0.10566000000E+00 0. -1.
     999900   -1    0    0    0    0 -0.00000000000E+00 -0.00000000000E+00 -0.74505805969E-08  0.93827000000E+00  0.93827000000E+00 0.  1.
     999902    2    1    2    0    0  0.10366118499E-01  0.12257341191E-01 -0.17969489875E-01  0.10198343284E+01  0.10195496339E+01 0.  0.
     999903    2    3    3    0    0  0.82054587853E-01 -0.30239655501E-01 -0.97221929040E-01  0.13235126909E+00  0.20429458886E-01 0.  0.
         14    1    1    2    0    0 -0.10366118499E-01 -0.12257341191E-01  0.17969489875E-01  0.24095671648E-01  0.00000000000E+00 0. -1.
     999901    1    3    3    0    0 -0.71688469354E-01  0.42496996693E-01  0.79252439165E-01  0.88748305926E+00  0.88000000000E+00 0. -1.
        -11    1    4    4    0    0  0.73041357516E-01 -0.32232134689E-01 -0.91687409987E-01  0.12157628340E+00  0.51100000000E-03 0. -1.
         11    1    4    4    0    0  0.90132303365E-02  0.19924791877E-02 -0.55345190538E-02  0.10774985688E-01  0.51100000000E-03 0.  1.
</event>
<event>
 8    1  0.1106905E+005  0.1043930E+01  0.7957747E-01            NaN
         13   -1    0    0    0    0  0.00000000000E+00  0.00000000000E+00  0.74505805969E-08  0.10566000000E+00  0.10566000000E+00 0. -1.
     999900   -1    0    0    0    0 -0.00000000000E+00 -0.00000000000E+00 -0.74505805969E-08  0.93827000000E+00  0.93827000000E+00 0. -1.
     999902    2    1    2    0    0  0.15218963654E-01 -0.17125528055E-01 -0.61453734357E-02  0.10202094144E+01  0.10199336170E+01 0.  0.
     999903    2    3    3    0    0 -0.33050324790E-01 -0.37582201229E-01 -0.11989943694E+00  0.13134025270E+00  0.19226054815E-01 0.  0.
         14    1    1    2    0    0 -0.15218963654E-01  0.17125528055E-01  0.61453734357E-02  0.23720585586E-01  0.00000000000E+00 0.  1.
     999901    1    3    3    0    0  0.48269288445E-01  0.20456673174E-01  0.11375406350E+00  0.88886916171E+00  0.88000000000E+00 0.  1.
        -11    1    4    4    0    0 -0.16395873414E-01 -0.14752110870E-01 -0.30948073585E-01  0.38006497073E-01  0.51100000000E-03 0. -1.
         11    1    4    4    0    0 -0.16654451377E-01 -0.22830090358E-01 -0.88951363351E-01  0.93333755627E-01  0.51100000000E-03 0.  1.
</event>
<event>
 8    1  0.1106905E+005  0.1043930E+01  0.7957747E-01            NaN
         13   -1    0    0    0    0  0.00000000000E+00  0.00000000000E+00  0.74505805969E-08  0.10566000000E+00  0.10566000000E+00 0. -1.
     999900   -1    0    0    0    0 -0.00000000000E+00 -0.00000000000E+00 -0.74505805969E-08  0.93827000000E+00  0.93827000000E+00 0.  1.
     999902    2    1    2    0    0  0.11844223501E-02 -0.15125696370E-01 -0.17770233305E-01  0.10205639833E+01  0.10202964634E+01 0.  0.
     999903    2    3    3    0    0  0.83664521039E-01 -0.34771354694E-01  0.90429992803E-01  0.12989221009E+00  0.22036412067E-01 0.  0.
         14    1    1    2    0    0 -0.11844223501E-02  0.15125696370E-01  0.17770233305E-01  0.23366016748E-01  0.00000000000E+00 0. -1.
     999901    1    3    3    0    0 -0.82480098689E-01  0.19645658324E-01 -0.10820022611E+00  0.89067177316E+00  0.88000000000E+00 0.  1.
        -11    1    4    4    0    0  0.43986503528E-01 -0.66803714849E-02  0.46668538051E-01  0.64479868336E-01  0.51100000000E-03 0. -1.
         11    1    4    4    0    0  0.39678017511E-01 -0.28090983209E-01  0.43761454752E-01  0.65412341758E-01  0.51100000000E-03 0.  1.
</event>
<event>
 8    1  0.1106905E+005  0.1043930E+01  0.7957747E-01            NaN
         13   -1    0    0    0    0  0.00000000000E+00  0.00000000000E+00  0.74505805969E-08  0.10566000000E+00  0.10566000000E+00 0. -1.
     999900   -1    0    0    0    0 -0.00000000000E+00 -0.00000000000E+00 -0.74505805969E-08  0.93827000000E+00  0.93827000000E+00 0.  1.
     999902    2    1    2    0    0 -0.11687896459E-01  0.15033423024E-01  0.13753769359E-01  0.10204400680E+01  0.10201696700E+01 0.  0.
     999903    2    3    3    0    0  0.31954175082E-01  0.33118746883E-01 -0.11893468619E+00  0.12923979001E+00  0.20965281806E-01 0.  0.
         14    1    1    2    0    0  0.11687896459E-01 -0.15033423024E-01 -0.13753769359E-01  0.23489931951E-01  0.00000000000E+00 0.  1.
     999901    1    3    3    0    0 -0.43642071541E-01 -0.18085323858E-01  0.13268845555E+00  0.89120027804E+00  0.88000000000E+00 0. -1.
        -11    1    4    4    0    0  0.12440466661E-02  0.12726435117E-01 -0.20958224771E-01  0.24556427050E-01  0.51100000000E-03 0.  1.
         11    1    4    4    0    0  0.30710128416E-01  0.20392311766E-01 -0.97976461420E-01  0.10468336296E+00  0.51100000000E-03 0. -1.
</event>
<event>
 8    1  0.1106905E+005  0.1043930E+01  0.7957747E-01            NaN
         13   -1    0    0    0    0  0.00000000000E+00  0.00000000000E+00  0.74505805969E-08  0.10566000000E+00  0.10566000000E+00 0. -1.
     999900   -1    0    0    0    0 -0.00000000000E+00 -0.00000000000E+00 -0.74505805969E-08  0.93827000000E+00  0.93827000000E+00 0. -1.
     999902    2    1    2    0    0 -0.11437243811E-01  0.12617943919E-02  0.19786759364E-01  0.10210407336E+01  0.10207841403E+01 0.  0.
     999903    2    3    3    0    0 -0.11955308471E+00 -0.35997306936E-01 -0.36871579938E-01  0.13183465899E+00  0.20787441730E-01 0.  0.
         14    1    1    2    0    0  0.11437243811E-01 -0.12617943919E-02 -0.19786759364E-01  0.22889266419E-01  0.00000000000E+00 0.  1.
     999901    1    3    3    0    0  0.10811584089E+00  0.37259101328E-01  0.56658339301E-01  0.88920607459E+00  0.88000000000E+00 0. -1.
        -11    1    4    4    0    0 -0.11154102672E+00 -0.33627936122E-01 -0.39573278222E-01  0.12303879144E+00  0.51100000000E-03 0.  1.
         11    1    4    4    0    0 -0.80120579838E-02 -0.23693708146E-02  0.27016982842E-02  0.87958675417E-02  0.51100000000E-03 0. -1.
</event>
<event>
 8    1  0.1106905E+005  0.1043930E+01  0.7957747E-01            NaN
         13   -1    0    0    0    0  0.00000000000E+00  0.00000000000E+00  0.74505805969E-08  0.10566000000E+00  0.10566000000E+00 0. -1.
     999900   -1    0    0    0    0 -0.00000000000E+00 -0.00000000000E+00 -0.74505805969E-08  0.93827000000E+00  0.93827000000E+00 0.  1.
     999902    2    1    2    0    0 -0.84470420931E-02 -0.20291921964E-01  0.10004867372E-01  0.10197802176E+01  0.10194942277E+01 0.  0.
     999903    2    3    3    0    0 -0.70439150803E-01  0.10572675762E+00 -0.39607512127E-02  0.12853459063E+00  0.19121511364E-01 0.  0.
         14    1    1    2    0    0  0.84470420931E-02  0.20291921964E-01 -0.10004867372E-01  0.24149782364E-01  0.00000000000E+00 0. -1.
     999901    1    3    3    0    0  0.61992108710E-01 -0.12601867958E+00  0.13965618585E-01  0.89124562700E+00  0.88000000000E+00 0. -1.
        -11    1    4    4    0    0 -0.40702275142E-01  0.71524951711E-01  0.45315127035E-02  0.82421414980E-01  0.51100000000E-03 0. -1.
         11    1    4    4    0    0 -0.29736875662E-01  0.34201805908E-01 -0.84922639162E-02  0.46113175654E-01  0.51100000000E-03 0.  1.
</event>
<event>
 8    1  0.1106905E+005  0.1043930E+01  0.7957747E-01            NaN
         13   -1    0    0    0    0  0.00000000000E+00  0.00000000000E+00  0.74505805969E-08  0.10566000000E+00  0.10566000000E+00 0.  1.
     999900   -1    0    0    0    0 -0.00000000000E+00 -0.00000000000E+00 -0.74505805969E-08  0.93827000000E+00  0.93827000000E+00 0.  1.
     999902    2    1    2    0    0 -0.18141145450E-01 -0.10020678541E-01 -0.11460357611E-01  0.10202476236E+01  0.10199727244E+01 0.  0.
     999903    2    3    3    0    0  0.53422576041E-01  0.10603939278E+00  0.43680070332E-01  0.12804149650E+00  0.19706644335E-01 0.  0.
         14    1    1    2    0    0  0.18141145450E-01  0.10020678541E-01  0.11460357611E-01  0.23682376427E-01  0.00000000000E+00 0. -1.
     999901    1    3    3    0    0 -0.71563721491E-01 -0.11606007132E+00 -0.55140427943E-01  0.89220612707E+00  0.88000000000E+00 0.  1.
        -11    1    4    4    0    0  0.24544904872E-01  0.37164901335E-01  0.79339716447E-02  0.45242582525E-01  0.51100000000E-03 0.  1.
         11    1    4    4    0    0  0.28877671169E-01  0.68874491442E-01  0.35746098687E-01  0.82798913978E-01  0.51100000000E-03 0. -1.
</event>
<event>
 7    1  0.1106905E+005  0.1043930E+01  0.7957747E-01            NaN
         13   -1    0    0    0    0  0.00000000000E+00  0.00000000000E+00  0.74505805969E-08  0.10566000000E+00  0.10566000000E+00 0.  1.
     999900   -1    0    0    0    0 -0.00000000000E+00 -0.00000000000E+00 -0.74505805969E-08  0.93827000000E+00  0.93827000000E+00 0. -1.
     999903    2    1    2    0    0  0.11159739967E+00 -0.70230450842E-01  0.57379032435E-01  0.14526710768E+00  0.20588428098E-01 0.  0.
         14    1    1    2    0    0  0.47936286644E-02  0.45772952668E-02 -0.16576103641E-02  0.68321431375E-02  0.00000000000E+00 0.  1.
     999901    1    1    2    0    0 -0.11639102833E+00  0.65653155575E-01 -0.55721422071E-01  0.89183074918E+00  0.88000000000E+00 0. -1.
        -11    1    3    3    0    0  0.10042305595E+00 -0.60143947598E-01  0.57007216160E-01  0.13020049314E+00  0.51100000000E-03 0. -1.
         11    1    3    3    0    0  0.11174343720E-01 -0.10086503244E-01  0.37181627528E-03  0.15066614537E-01  0.51100000000E-03 0.  1.
</event>
<event>
 8    1  0.1106905E+005  0.1043930E+01  0.7957747E-01            NaN
         13   -1    0    0    0    0  0.00000000000E+00  0.00000000000E+00  0.74505805969E-08  0.10566000000E+00  0.10566000000E+00 0. -1.
     999900   -1    0    0    0    0 -0.00000000000E+00 -0.00000000000E+00 -0.74505805969E-08  0.93827000000E+00  0.93827000000E+00 0. -1.
     999902    2    1    2    0    0 -0.21186887175E-01 -0.82261846361E-02  0.76663695192E-02  0.10199440140E+01  0.10196619362E+01 0.  0.
     999903    2    3    3    0    0  0.11604307902E+00  0.35435393539E-01  0.34745124945E-01  0.12782762250E+00  0.20273481722E-01 0.  0.
         14    1    1    2    0    0  0.21186887175E-01  0.82261846361E-02 -0.76663695192E-02  0.23985985980E-01  0.00000000000E+00 0.  1.
     999901    1    3    3    0    0 -0.13722996620E+00 -0.43661578175E-01 -0.27078755426E-01  0.89211639152E+00  0.88000000000E+00 0. -1.
        -11    1    4    4    0    0  0.35975604219E-01  0.17668071294E-01  0.18809580155E-01  0.44277152898E-01  0.51100000000E-03 0.  1.
         11    1    4    4    0    0  0.80067474803E-01  0.17767322245E-01  0.15935544790E-01  0.83550469597E-01  0.51100000000E-03 0. -1.
</event>
<event>
 8    1  0.1106905E+005  0.1043930E+01  0.7957747E-01            NaN
         13   -1    0    0    0    0  0.00000000000E+00  0.00000000000E+00  0.74505805969E-08  0.10566000000E+00  0.10566000000E+00 0. -1.
     999900   -1    0    0    0    0 -0.00000000000E+00 -0.00000000000E+00 -0.74505805969E-08  0.93827000000E+00  0.93827000000E+00 0. -1.
     999902    2    1    2    0    0  0.16311361162E-01  0.17758981896E-01 -0.13556965023E-03  0.10198165117E+01  0.10195313909E+01 0.  0.
     999903    2    3    3    0    0 -0.12201110635E-01 -0.77070416081E-01  0.10042827448E+00  0.12857094364E+00  0.18866189279E-01 0.  0.
         14    1    1    2    0    0 -0.16311361162E-01 -0.17758981896E-01  0.13556965023E-03  0.24113488343E-01  0.00000000000E+00 0.  1.
     999901    1    3    3    0    0  0.28512471796E-01  0.94829397977E-01 -0.10056384413E+00  0.89124556802E+00  0.88000000000E+00 0. -1.
        -11    1    4    4    0    0 -0.33927856645E-02 -0.33902632024E-01  0.58773775219E-01  0.67937598039E-01  0.51100000000E-03 0. -1.
         11    1    4    4    0    0 -0.88083249702E-02 -0.43167784057E-01  0.41654499258E-01  0.60633345599E-01  0.51100000000E-03 0.  1.
</event>
<event>
 8    1  0.1106905E+005  0.1043930E+01  0.7957747E-01            NaN
         13   -1    0    0    0    0  0.00000000000E+00  0.00000000000E+00  0.74505805969E-08  0.10566000000E+00  0.10566000000E+00 0. -1.
     999900   -1    0    0    0    0 -0.00000000000E+00 -0.00000000000E+00 -0.74505805969E-08  0.93827000000E+00  0.93827000000E+00 0.  1.
     999902    2    1    2    0    0 -0.11537127569E-02  0.22739427564E-01 -0.10372646301E-01  0.10189099199E+01  0.10186026803E+01 0.  0.
     999903    2    3    3    0    0  0.35523910706E-01 -0.73742996804E-01 -0.97137704721E-01  0.12863901635E+00  0.20304803338E-01 0.  0.
         14    1    1    2    0    0  0.11537127569E-02 -0.22739427564E-01  0.10372646301E-01  0.25020080143E-01  0.00000000000E+00 0.  1.
     999901    1    3    3    0    0 -0.36677623462E-01  0.96482424368E-01  0.86765058420E-01  0.89027090351E+00  0.88000000000E+00 0. -1.
        -11    1    4    4    0    0  0.71043618655E-02 -0.37345707191E-01 -0.47486385600E-01  0.60830845312E-01  0.51100000000E-03 0. -1.
         11    1    4    4    0    0  0.28419548840E-01 -0.36397289613E-01 -0.49651319122E-01  0.67808171034E-01  0.51100000000E-03 0.  1.
</event>
<event>
 8    1  0.1106905E+005  0.1043930E+01  0.7957747E-01            NaN
         13   -1    0    0    0    0  0.00000000000E+00  0.00000000000E+00  0.74505805969E-08  0.10566000000E+00  0.10566000000E+00 0.  1.
     999900   -1    0    0    0    0 -0.00000000000E+00 -0.00000000000E+00 -0.74505805969E-08  0.93827000000E+00  0.93827000000E+00 0. -1.
     999902    2    1    2    0    0  0.13334499613E-01 -0.17692056008E-02 -0.20008088397E-01  0.10198206124E+01  0.10195355898E+01 0.  0.
     999903    2    3    3    0    0 -0.10757870215E+00  0.35926673255E-03  0.65507918911E-01  0.12744315850E+00  0.19420735826E-01 0.  0.
         14    1    1    2    0    0 -0.13334499613E-01  0.17692056008E-02  0.20008088397E-01  0.24109387584E-01  0.00000000000E+00 0. -1.
     999901    1    3    3    0    0  0.12091320176E+00 -0.21284723334E-02 -0.85516007308E-01  0.89237745392E+00  0.88000000000E+00 0.  1.
        -11    1    4    4    0    0 -0.47238324777E-01  0.37891962442E-02  0.39292059528E-01  0.61562524306E-01  0.51100000000E-03 0.  1.
         11    1    4    4    0    0 -0.60340377369E-01 -0.34299295116E-02  0.26215859383E-01  0.65880634193E-01  0.51100000000E-03 0. -1.
</event>
<event>
 8    1  0.1106905E+005  0.1043930E+01  0.7957747E-01            NaN
         13   -1    0    0    0    0  0.00000000000E+00  0.00000000000E+00  0.74505805969E-08  0.10566000000E+00  0.10566000000E+00 0. -1.
     999900   -1    0    0    0    0 -0.00000000000E+00 -0.00000000000E+00 -0.74505805969E-08  0.93827000000E+00  0.93827000000E+00 0.  1.
     999902    2    1    2    0    0 -0.18575660046E-01 -0.12837188736E-01 -0.88030719869E-02  0.10196948471E+01  0.10194068072E+01 0.  0.
     999903    2    3    3    0    0  0.55251747096E-01  0.78527847053E-01  0.81110046505E-01  0.12734826380E+00  0.20478338036E-01 0.  0.
         14    1    1    2    0    0  0.18575660046E-01  0.12837188736E-01  0.88030719869E-02  0.24235152923E-01  0.00000000000E+00 0. -1.
     999901    1    3    3    0    0 -0.73827407142E-01 -0.91365035789E-01 -0.89913118492E-01  0.89234658328E+00  0.88000000000E+00 0. -1.
        -11    1    4    4    0    0  0.39214217591E-01  0.43305980006E-01  0.57703716164E-01  0.82116641101E-01  0.51100000000E-03 0. -1.
         11    1    4    4    0    0  0.16037529505E-01  0.35221867047E-01  0.23406330341E-01  0.45231622699E-01  0.51100000000E-03 0.  1.
</event>
<event>
 8    1  0.1106905E+005  0.1043930E+01  0.7957747E-01            NaN
         13   -1    0    0    0    0  0.00000000000E+00  0.00000000000E+00  0.74505805969E-08  0.10566000000E+00  0.10566000000E+00 0. -1.
     999900   -1    0    0    0    0 -0.00000000000E+00 -0.00000000000E+00 -0.74505805969E-08  0.93827000000E+00  0.93827000000E+00 0.  1.
     999902    2    1    2    0    0  0.80027945081E-03 -0.98497429918E-02  0.21187734710E-01  0.10205509926E+01  0.10202831717E+01 0.  0.
     999903    2    3    3    0    0  0.52940972916E-01  0.11681715713E+00  0.26284884387E-02  0.12976055647E+00  0.19542217159E-01 0.  0.
         14    1    1    2    0    0 -0.80027945081E-03  0.98497429918E-02 -0.21187734710E-01  0.23379007386E-01  0.00000000000E+00 0.  1.
     999901    1    3    3    0    0 -0.52140693466E-01 -0.12666690012E+00  0.18559246272E-01  0.89079043614E+00  0.88000000000E+00 0. -1.
        -11    1    4    4    0    0  0.16244492159E-01  0.17751614857E-01 -0.41921909306E-03  0.24071564577E-01  0.51100000000E-03 0.  1.
         11    1    4    4    0    0  0.36696480757E-01  0.99065542271E-01  0.30477075318E-02  0.10568899189E+00  0.51100000000E-03 0. -1.
</event>
<event>
 8    1  0.1106905E+005  0.1043930E+01  0.7957747E-01            NaN
         13   -1    0    0    0    0  0.00000000000E+00  0.00000000000E+00  0.74505805969E-08  0.10566000000E+00  0.10566000000E+00 0. -1.
     999900   -1    0    0    0    0 -0.00000000000E+00 -0.00000000000E+00 -0.74505805969E-08  0.93827000000E+00  0.93827000000E+00 0. -1.
     999902    2    1    2    0    0  0.16398182680E-01  0.17904802653E-01 -0.31944714490E-02  0.10194414925E+01  0.10191473248E+01 0.  0.
     999903    2    3    3    0    0  0.11878435266E+00 -0.38092103016E-03  0.53186778236E-01  0.13152475042E+00  0.18975222185E-01 0.  0.
         14    1    1    2    0    0 -0.16398182680E-01 -0.17904802653E-01  0.31944714490E-02  0.24488507530E-01  0.00000000000E+00 0. -1.
     999901    1    3    3    0    0 -0.10238616998E+00  0.18285723683E-01 -0.56381249685E-01  0.88791674205E+00  0.88000000000E+00 0. -1.
        -11    1    4    4    0    0  0.86139840412E-01 -0.72904971949E-02  0.33069819549E-01  0.92558616787E-01  0.51100000000E-03 0.  1.
         11    1    4    4    0    0  0.32644512246E-01  0.69095761647E-02  0.20116958687E-01  0.38966133634E-01  0.51100000000E-03 0. -1.
</event>
<event>
 8    1  0.1106905E+005  0.1043930E+01  0.7957747E-01            NaN
         13   -1    0    0    0    0  0.00000000000E+00  0.00000000000E+00  0.74505805969E-08  0.10566000000E+00  0.10566000000E+00 0.  1.
     999900   -1    0    0    0    0 -0.00000000000E+00 -0.00000000000E+00 -0.74505805969E-08  0.93827000000E+00  0.93827000000E+00 0. -1.
     999902    2    1    2    0    0  0.13623468840E-01  0.17895158493E-01  0.15204464526E-01  0.10167820472E+01  0.10164195591E+01 0.  0.
     999903    2    3    3    0    0  0.10830516163E+00  0.28650123870E-01 -0.59613182403E-01  0.12848143786E+00  0.20072636246E-01 0.  0.
         14    1    1    2    0    0 -0.13623468840E-01 -0.17895158493E-01 -0.15204464526E-01  0.27147952819E-01  0.00000000000E+00 0.  1.
     999901    1    3    3    0    0 -0.94681692785E-01 -0.10754965377E-01  0.74817646929E-01  0.88830060932E+00  0.88000000000E+00 0.  1.
        -11    1    4    4    0    0  0.48319153435E-01  0.23007411906E-01 -0.29785701272E-01  0.61249740510E-01  0.51100000000E-03 0. -1.
         11    1    4    4    0    0  0.59986008191E-01  0.56427119643E-02 -0.29827481131E-01  0.67231697350E-01  0.51100000000E-03 0.  1.
</event>
<event>
 8    1  0.1106905E+005  0.1043930E+01  0.7957747E-01            NaN
         13   -1    0    0    0    0  0.00000000000E+00  0.00000000000E+00  0.74505805969E-08  0.10566000000E+00  0.10566000000E+00 0. -1.
     999900   -1    0    0    0    0 -0.00000000000E+00 -0.00000000000E+00 -0.74505805969E-08  0.93827000000E+00  0.93827000000E+00 0.  1.
     999902    2    1    2    0    0  0.63008902769E-02 -0.81445588218E-02 -0.19202248205E-01  0.10221409800E+01  0.10219087149E+01 0.  0.
     999903    2    3    3    0    0 -0.34726803213E-01 -0.44834185615E-01  0.11540716724E+00  0.13020539091E+00  0.20459093616E-01 0.  0.
         14    1    1    2    0    0 -0.63008902769E-02  0.81445588218E-02  0.19202248205E-01  0.21789020005E-01  0.00000000000E+00 0. -1.
     999901    1    3    3    0    0  0.41027693489E-01  0.36689626793E-01 -0.13460941544E+00  0.89193558908E+00  0.88000000000E+00 0.  1.
        -11    1    4    4    0    0 -0.29843090202E-01 -0.31167746951E-01  0.67241431218E-01  0.79898120603E-01  0.51100000000E-03 0. -1.
         11    1    4    4    0    0 -0.48837130109E-02 -0.13666438664E-01  0.48165736020E-01  0.50307270308E-01  0.51100000000E-03 0.  1.
</event>
<event>
 8    1  0.1106905E+005  0.1043930E+01  0.7957747E-01            NaN
         13   -1    0    0    0    0  0.00000000000E+00  0.00000000000E+00  0.74505805969E-08  0.10566000000E+00  0.10566000000E+00 0.  1.
     999900   -1    0    0    0    0 -0.00000000000E+00 -0.00000000000E+00 -0.74505805969E-08  0.93827000000E+00  0.93827000000E+00 0. -1.
     999902    2    1    2    0    0 -0.22097931449E-01  0.71773579353E-02 -0.33900081876E-02  0.10204496849E+01  0.10201795108E+01 0.  0.
     999903    2    3    3    0    0  0.68517298621E-01  0.10787839230E+00  0.77305089877E-02  0.13001412624E+00  0.22617349919E-01 0.  0.
         14    1    1    2    0    0  0.22097931449E-01 -0.71773579353E-02  0.33900081876E-02  0.23480315091E-01  0.00000000000E+00 0. -1.
     999901    1    3    3    0    0 -0.90615230070E-01 -0.10070103436E+00 -0.11120517175E-01  0.89043555867E+00  0.88000000000E+00 0.  1.
        -11    1    4    4    0    0  0.23409212405E-01  0.50610579726E-01 -0.50813712585E-02  0.55995566436E-01  0.51100000000E-03 0.  1.
         11    1    4    4    0    0  0.45108086216E-01  0.57267812572E-01  0.12811880246E-01  0.74018559803E-01  0.51100000000E-03 0. -1.
</event>
<event>
 8    1  0.1106905E+005  0.1043930E+01  0.7957747E-01            NaN
         13   -1    0    0    0    0  0.00000000000E+00  0.00000000000E+00  0.74505805969E-08  0.10566000000E+00  0.10566000000E+00 0.  1.
     999900   -1    0    0    0    0 -0.00000000000E+00 -0.00000000000E+00 -0.74505805969E-08  0.93827000000E+00  0.93827000000E+00 0.  1.
     999902    2    1    2    0    0 -0.17749168710E-01 -0.41147614581E-02 -0.14405228459E-01  0.10207034019E+01  0.10204391015E+01 0.  0.
     999903    2    3    3    0    0 -0.13002571455E+00 -0.13004041100E-01  0.15250290010E-01  0.13302976154E+00  0.19711787872E-01 0.  0.
         14    1    1    2    0    0  0.17749168710E-01  0.41147614581E-02  0.14405228459E-01  0.23226598087E-01  0.00000000000E+00 0. -1.
     999901    1    3    3    0    0  0.11227654584E+00  0.88892796416E-02 -0.29655518469E-01  0.88767364037E+00  0.88000000000E+00 0. -1.
        -11    1    4    4    0    0 -0.34146286324E-01  0.52009256491E-02  0.31047081335E-02  0.34683120259E-01  0.51100000000E-03 0. -1.
         11    1    4    4    0    0 -0.95879428225E-01 -0.18204966749E-01  0.12145581877E-01  0.98346641281E-01  0.51100000000E-03 0.  1.
</event>
<event>
 8    1  0.1106905E+005  0.1043930E+01  0.7957747E-01            NaN
         13   -1    0    0    0    0  0.00000000000E+00  0.00000000000E+00  0.74505805969E-08  0.10566000000E+00  0.10566000000E+00 0. -1.
     999900   -1    0    0    0    0 -0.00000000000E+00 -0.00000000000E+00 -0.74505805969E-08  0.93827000000E+00  0.93827000000E+00 0.  1.
     999902    2    1    2    0    0 -0.18832939865E-01  0.13496854042E-01  0.37644409209E-02  0.10204562762E+01  0.10201862555E+01 0.  0.
     999903    2    3    3    0    0  0.93684993726E-01 -0.71141584595E-01 -0.44397149688E-01  0.12796342499E+00  0.23780835285E-01 0.  0.
         14    1    1    2    0    0  0.18832939865E-01 -0.13496854042E-01 -0.37644409209E-02  0.23473723787E-01  0.00000000000E+00 0. -1.
     999901    1    3    3    0    0 -0.11251793359E+00  0.84638438636E-01  0.48161590609E-01  0.89249285122E+00  0.88000000000E+00 0. -1.
        -11    1    4    4    0    0  0.80774713791E-01 -0.70270289353E-01 -0.39457515209E-01  0.11410356954E+00  0.51100000000E-03 0.  1.
         11    1    4    4    0    0  0.12910279935E-01 -0.87129524184E-03 -0.49396344790E-02  0.13859855453E-01  0.51100000000E-03 0. -1.
</event>
<event>
 8    1  0.1106905E+005  0.1043930E+01  0.7957747E-01            NaN
         13   -1    0    0    0    0  0.00000000000E+00  0.00000000000E+00  0.74505805969E-08  0.10566000000E+00  0.10566000000E+00 0.  1.
     999900   -1    0    0    0    0 -0.00000000000E+00 -0.00000000000E+00 -0.74505805969E-08  0.93827000000E+00  0.93827000000E+00 0.  1.
     999902    2    1    2    0    0  0.16158826834E-01  0.13646639435E-01  0.11001355032E-01  0.10200895246E+01  0.10198108992E+01 0.  0.
     999903    2    3    3    0    0 -0.17532805141E-01  0.12652585995E+00  0.26462953973E-01  0.13210534375E+00  0.20864836934E-01 0.  0.
         14    1    1    2    0    0 -0.16158826834E-01 -0.13646639435E-01 -0.11001355032E-01  0.23840475353E-01  0.00000000000E+00 0. -1.
     999901    1    3    3    0    0  0.33691631975E-01 -0.11287922052E+00 -0.15461598941E-01  0.88798418090E+00  0.88000000000E+00 0.  1.
        -11    1    4    4    0    0 -0.11741934812E-01  0.11004974619E+00  0.29096414119E-01  0.11443636705E+00  0.51100000000E-03 0. -1.
         11    1    4    4    0    0 -0.57908703287E-02  0.16476113767E-01 -0.26334601462E-02  0.17668976693E-01  0.51100000000E-03 0.  1.
</event>
<event>
 8    1  0.1106905E+005  0.1043930E+01  0.7957747E-01            NaN
         13   -1    0    0    0    0  0.00000000000E+00  0.00000000000E+00  0.74505805969E-08  0.10566000000E+00  0.10566000000E+00 0. -1.
     999900   -1    0    0    0    0 -0.00000000000E+00 -0.00000000000E+00 -0.74505805969E-08  0.93827000000E+00  0.93827000000E+00 0.  1.
     999902    2    1    2    0    0  0.14826276059E-01 -0.72658750458E-02  0.16619713840E-01  0.10205029581E+01  0.10202340228E+01 0.  0.
     999903    2    3    3    0    0 -0.25930760983E-01 -0.10798695975E+00  0.68456243928E-01  0.13230652783E+00  0.22026623268E-01 0.  0.
         14    1    1    2    0    0 -0.14826276059E-01  0.72658750458E-02 -0.16619713840E-01  0.23427041855E-01  0.00000000000E+00 0.  1.
     999901    1    3    3    0    0  0.40757037043E-01  0.10072108470E+00 -0.51836530089E-01  0.88819643031E+00  0.88000000000E+00 0.  1.
        -11    1    4    4    0    0 -0.11939641674E-01 -0.87903456679E-01  0.52472742376E-01  0.10306901840E+00  0.51100000000E-03 0.  1.
         11    1    4    4    0    0 -0.13991119309E-01 -0.20083503070E-01  0.15983501552E-01  0.29237509435E-01  0.51100000000E-03 0. -1.
</event>
<event>
 8    1  0.1106905E+005  0.1043930E+01  0.7957747E-01            NaN
         13   -1    0    0    0    0  0.00000000000E+00  0.00000000000E+00  0.74505805969E-08  0.10566000000E+00  0.10566000000E+00 0.  1.
     999900   -1    0    0    0    0 -0.00000000000E+00 -0.00000000000E+00 -0.74505805969E-08  0.93827000000E+00  0.93827000000E+00 0. -1.
     999902    2    1    2    0    0  0.14215982515E-01  0.19302711020E-01 -0.80377567072E-03  0.10199438609E+01  0.10196617795E+01 0.  0.
     999903    2    3    3    0    0  0.44839907606E-02  0.44143019465E-01 -0.12178061128E+00  0.13126667133E+00  0.20777617207E-01 0.  0.
         14    1    1    2    0    0 -0.14215982515E-01 -0.19302711020E-01  0.80377567072E-03  0.23986139058E-01  0.00000000000E+00 0. -1.
     999901    1    3    3    0    0  0.97319917544E-02 -0.24840308446E-01  0.12097683561E+00  0.88867718961E+00  0.88000000000E+00 0.  1.
        -11    1    4    4    0    0 -0.41374900892E-02  0.20233665336E-01 -0.33131253351E-01  0.39044347949E-01  0.51100000000E-03 0. -1.
         11    1    4    4    0    0  0.86214808498E-02  0.23909354130E-01 -0.88649357930E-01  0.92222323379E-01  0.51100000000E-03 0.  1.
</event>
<event>
 8    1  0.1106905E+005  0.1043930E+01  0.7957747E-01            NaN
         13   -1    0    0    0    0  0.00000000000E+00  0.00000000000E+00  0.74505805969E-08  0.10566000000E+00  0.10566000000E+00 0.  1.
     999900   -1    0    0    0    0 -0.00000000000E+00 -0.00000000000E+00 -0.74505805969E-08  0.93827000000E+00  0.93827000000E+00 0. -1.
     999902    2    1    2    0    0 -0.19183299201E-01 -0.96833548143E-02 -0.10040319081E-01  0.10202113505E+01  0.10199355986E+01 0.  0.
     999903    2    3    3    0    0 -0.29162651739E-01 -0.22340381225E-01  0.12258586014E+00  0.13012737060E+00  0.23585728390E-01 0.  0.
         14    1    1    2    0    0  0.19183299201E-01  0.96833548143E-02  0.10040319081E-01  0.23718649539E-01  0.00000000000E+00 0.  1.
     999901    1    3    3    0    0  0.99793525376E-02  0.12657026410E-01 -0.13262617922E+00  0.89008397986E+00  0.88000000000E+00 0. -1.
        -11    1    4    4    0    0 -0.18566584606E-01 -0.79829171347E-03  0.39772468428E-01  0.43902912198E-01  0.51100000000E-03 0.  1.
         11    1    4    4    0    0 -0.10596067134E-01 -0.21542089511E-01  0.82813391708E-01  0.86224458400E-01  0.51100000000E-03 0. -1.
</event>
<event>
 8    1  0.1106905E+005  0.1043930E+01  0.7957747E-01            NaN
         13   -1    0    0    0    0  0.00000000000E+00  0.00000000000E+00  0.74505805969E-08  0.10566000000E+00  0.10566000000E+00 0. -1.
     999900   -1    0    0    0    0 -0.00000000000E+00 -0.00000000000E+00 -0.74505805969E-08  0.93827000000E+00  0.93827000000E+00 0.  1.
     999902    2    1    2    0    0 -0.82585589882E-03  0.16529522738E-01 -0.16460347017E-01  0.10205879739E+01  0.10203210094E+01 0.  0.
     999903    2    3    3    0    0  0.12091598396E+00  0.44701614458E-01  0.14096703424E-01  0.13123513295E+00  0.20125445569E-01 0.  0.
         14    1    1    2    0    0  0.82585589882E-03 -0.16529522738E-01  0.16460347017E-01  0.23342026130E-01  0.00000000000E+00 0. -1.
     999901    1    3    3    0    0 -0.12174183986E+00 -0.28172091720E-01 -0.30557050441E-01  0.88935284092E+00  0.88000000000E+00 0. -1.
        -11    1    4    4    0    0  0.86369733430E-01  0.40584952798E-01  0.13913605420E-01  0.96440234255E-01  0.51100000000E-03 0. -1.
         11    1    4    4    0    0  0.34546250534E-01  0.41166616600E-02  0.18309800404E-03  0.34794898693E-01  0.51100000000E-03 0.  1.
</event>
<event>
 8    1  0.1106905E+005  0.1043930E+01  0.7957747E-01            NaN
         13   -1    0    0    0    0  0.00000000000E+00  0.00000000000E+00  0.74505805969E-08  0.10566000000E+00  0.10566000000E+00 0. -1.
     999900   -1    0    0    0    0 -0.00000000000E+00 -0.00000000000E+00 -0.74505805969E-08  0.93827000000E+00  0.93827000000E+00 0.  1.
     999902    2    1    2    0    0  0.14783199795E-01  0.25156639176E-01 -0.72853946796E-03  0.10147421556E+01  0.10143222920E+01 0.  0.
     999903    2    3    3    0    0  0.77623450564E-01  0.74925349261E-01 -0.67093716112E-01  0.12861002195E+00  0.19994073244E-01 0.  0.
         14    1    1    2    0    0 -0.14783199795E-01 -0.25156639176E-01  0.72853946796E-03  0.29187844398E-01  0.00000000000E+00 0. -1.
     999901    1    3    3    0    0 -0.62840250769E-01 -0.49768710085E-01  0.66365176644E-01  0.88613213365E+00  0.88000000000E+00 0. -1.
        -11    1    4    4    0    0  0.43740414407E-01  0.30373098423E-01 -0.26632557508E-01  0.59542448730E-01  0.51100000000E-03 0. -1.
         11    1    4    4    0    0  0.33883036157E-01  0.44552250838E-01 -0.40461158604E-01  0.69067573220E-01  0.51100000000E-03 0.  1.
</event>
<event>
 8    1  0.1106905E+005  0.1043930E+01  0.7957747E-01            NaN
         13   -1    0    0    0    0  0.00000000000E+00  0.00000000000E+00  0.74505805969E-08  0.10566000000E+00  0.10566000000E+00 0. -1.
     999900   -1    0    0    0    0 -0.00000000000E+00 -0.00000000000E+00 -0.74505805969E-08  0.93827000000E+00  0.93827000000E+00 0. -1.
     999902    2    1    2    0    0  0.78938026629E-02  0.19079246254E-01 -0.17004494359E-01  0.10171814938E+01  0.10168297343E+01 0.  0.
     999903    2    3    3    0    0  0.95535329550E-01 -0.73136927917E-01  0.34469336502E-01  0.12654440982E+00  0.18690721763E-01 0.  0.
         14    1    1    2    0    0 -0.78938026629E-02 -0.19079246254E-01  0.17004494359E-01  0.26748506248E-01  0.00000000000E+00 0. -1.
     999901    1    3    3    0    0 -0.87641526887E-01  0.92216174171E-01 -0.51473830861E-01  0.89063708393E+00  0.88000000000E+00 0. -1.
        -11    1    4    4    0    0  0.72004723530E-01 -0.45693554864E-01  0.19944416480E-01  0.87582087418E-01  0.51100000000E-03 0.  1.
         11    1    4    4    0    0  0.23530606020E-01 -0.27443373053E-01  0.14524920022E-01  0.38962322401E-01  0.51100000000E-03 0. -1.
</event>
<event>
 8    1  0.1106905E+005  0.1043930E+01  0.7957747E-01            NaN
         13   -1    0    0    0    0  0.00000000000E+00  0.00000000000E+00  0.74505805969E-08  0.10566000000E+00  0.10566000000E+00 0.  1.
     999900   -1    0    0    0    0 -0.00000000000E+00 -0.00000000000E+00 -0.74505805969E-08  0.93827000000E+00  0.93827000000E+00 0. -1.
     999902    2    1    2    0    0 -0.17855818370E-01 -0.11239977733E-01 -0.86550834065E-02  0.10211247853E+01  0.10208700942E+01 0.  0.
     999903    2    3    3    0    0  0.85935869387E-02 -0.12757697068E+00 -0.29370334539E-01  0.13283261005E+00  0.20788279311E-01 0.  0.
         14    1    1    2    0    0  0.17855818370E-01  0.11239977733E-01  0.86550834065E-02  0.22805214708E-01  0.00000000000E+00 0.  1.
     999901    1    3    3    0    0 -0.26449405309E-01  0.11633699295E+00  0.20715251132E-01  0.88829217524E+00  0.88000000000E+00 0.  1.
        -11    1    4    4    0    0  0.45444406037E-02 -0.76181008989E-01 -0.27886835553E-01  0.81253521703E-01  0.51100000000E-03 0.  1.
         11    1    4    4    0    0  0.40491463350E-02 -0.51395961692E-01 -0.14834989855E-02  0.51579088345E-01  0.51100000000E-03 0. -1.
</event>
<event>
 8    1  0.1152288E+005  0.1043930E+01  0.7957747E-01            NaN
         13   -1    0    0    0    0  0.00000000000E+00  0.00000000000E+00  0.74505805969E-08  0.10566000000E+00  0.10566000000E+00 0.  1.
     999900   -1    0    0    0    0 -0.00000000000E+00 -0.00000000000E+00 -0.74505805969E-08  0.93827000000E+00  0.93827000000E+00 0. -1.
     999902    2    1    2    0    0  0.47946759426E-02  0.11311874911E-01 -0.20412970418E-01  0.10201048706E+01  0.10198266079E+01 0.  0.
     999903    2    3    3    0    0 -0.36503915802E-01  0.12265688234E+00 -0.25587423128E-01  0.13211272008E+00  0.20537963125E-01 0.  0.
         14    1    1    2    0    0 -0.47946759426E-02 -0.11311874911E-01  0.20412970418E-01  0.23825129437E-01  0.00000000000E+00 0.  1.
     999901    1    3    3    0    0  0.41298591745E-01 -0.11134500743E+00  0.51744527100E-02  0.88799215048E+00  0.88000000000E+00 0.  1.
        -11    1    4    4    0    0 -0.17591817615E-01  0.76634592432E-01 -0.67928449935E-02  0.78922345812E-01  0.51100000000E-03 0.  1.
         11    1    4    4    0    0 -0.18912098187E-01  0.46022289911E-01 -0.18794578135E-01  0.53190374267E-01  0.51100000000E-03 0. -1.
</event>
<event>
 8    1  0.1106905E+005  0.1043930E+01  0.7957747E-01            NaN
         13   -1    0    0    0    0  0.00000000000E+00  0.00000000000E+00  0.74505805969E-08  0.10566000000E+00  0.10566000000E+00 0.  1.
     999900   -1    0    0    0    0 -0.00000000000E+00 -0.00000000000E+00 -0.74505805969E-08  0.93827000000E+00  0.93827000000E+00 0. -1.
     999902    2    1    2    0    0  0.20615248657E-01 -0.34984760560E-02  0.11556771942E-01  0.10200388554E+01  0.10197590302E+01 0.  0.
     999903    2    3    3    0    0 -0.45545913822E-01  0.81678692364E-01  0.88015371186E-01  0.13016337714E+00  0.21212263681E-01 0.  0.
         14    1    1    2    0    0 -0.20615248657E-01  0.34984760560E-02 -0.11556771942E-01  0.23891144586E-01  0.00000000000E+00 0. -1.
     999901    1    3    3    0    0  0.66161162479E-01 -0.85177168420E-01 -0.76458599244E-01  0.88987547828E+00  0.88000000000E+00 0. -1.
        -11    1    4    4    0    0 -0.27374334865E-01  0.37047240907E-01  0.31079083932E-01  0.55569981529E-01  0.51100000000E-03 0.  1.
         11    1    4    4    0    0 -0.18171578957E-01  0.44631451457E-01  0.56936287254E-01  0.74593395608E-01  0.51100000000E-03 0. -1.
</event>
<event>
 8    1  0.1106905E+005  0.1043930E+01  0.7957747E-01            NaN
         13   -1    0    0    0    0  0.00000000000E+00  0.00000000000E+00  0.74505805969E-08  0.10566000000E+00  0.10566000000E+00 0. -1.
     999900   -1    0    0    0    0 -0.00000000000E+00 -0.00000000000E+00 -0.74505805969E-08  0.93827000000E+00  0.93827000000E+00 0. -1.
     999902    2    1    2    0    0  0.34125839932E-02 -0.93804513388E-02  0.21868990532E-01  0.10198906293E+01  0.10196072795E+01 0.  0.
     999903    2    3    3    0    0 -0.42196455167E-01 -0.10944916202E+00 -0.52158806358E-01  0.12996139277E+00  0.20242594561E-01 0.  0.
         14    1    1    2    0    0 -0.34125839932E-02  0.93804513388E-02 -0.21868990532E-01  0.24039370702E-01  0.00000000000E+00 0.  1.
     999901    1    3    3    0    0  0.45609039160E-01  0.10006871068E+00  0.74027796890E-01  0.88992923653E+00  0.88000000000E+00 0.  1.
        -11    1    4    4    0    0 -0.39299841916E-01 -0.10045581629E+00 -0.41170313449E-01  0.11546040200E+00  0.51100000000E-03 0. -1.
         11    1    4    4    0    0 -0.28966132510E-02 -0.89933457352E-02 -0.10988492909E-01  0.14500990768E-01  0.51100000000E-03 0.  1.
</event>
<event>
 8    1  0.1106905E+005  0.1043930E+01  0.7957747E-01            NaN
         13   -1    0    0    0    0  0.00000000000E+00  0.00000000000E+00  0.74505805969E-08  0.10566000000E+00  0.10566000000E+00 0.  1.
     999900   -1    0    0    0    0 -0.00000000000E+00 -0.00000000000E+00 -0.74505805969E-08  0.93827000000E+00  0.93827000000E+00 0.  1.
     999902    2    1    2    0    0 -0.14481384171E-01  0.16930452374E-01 -0.66866687336E-02  0.10206692553E+01  0.10204041682E+01 0.  0.
     999903    2    3    3    0    0 -0.12023460758E-01 -0.12157298590E+00 -0.37323208892E-01  0.12930634302E+00  0.20063746273E-01 0.  0.
         14    1    1    2    0    0  0.14481384171E-01 -0.16930452374E-01  0.66866687336E-02  0.23260744697E-01  0.00000000000E+00 0.  1.
     999901    1    3    3    0    0 -0.24579234133E-02  0.13850343827E+00  0.30636540159E-01  0.89136291228E+00  0.88000000000E+00 0. -1.
        -11    1    4    4    0    0  0.38415376192E-02 -0.61753248755E-01 -0.20262448446E-01  0.65107980165E-01  0.51100000000E-03 0.  1.
         11    1    4    4    0    0 -0.15864998377E-01 -0.59819737143E-01 -0.17060760446E-01  0.64198362855E-01  0.51100000000E-03 0. -1.
</event>
<event>
 8    1  0.1106905E+005  0.1043930E+01  0.7957747E-01            NaN
         13   -1    0    0    0    0  0.00000000000E+00  0.00000000000E+00  0.74505805969E-08  0.10566000000E+00  0.10566000000E+00 0.  1.
     999900   -1    0    0    0    0 -0.00000000000E+00 -0.00000000000E+00 -0.74505805969E-08  0.93827000000E+00  0.93827000000E+00 0. -1.
     999902    2    1    2    0    0  0.22410880540E-01 -0.94250699296E-02  0.28268570951E-02  0.10194540806E+01  0.10191602189E+01 0.  0.
     999903    2    3    3    0    0 -0.11935509764E+00  0.33122688988E-01  0.19101710980E-01  0.12694482281E+00  0.20183181535E-01 0.  0.
         14    1    1    2    0    0 -0.22410880540E-01  0.94250699296E-02 -0.28268570951E-02  0.24475919406E-01  0.00000000000E+00 0. -1.
     999901    1    3    3    0    0  0.14176597818E+00 -0.42547758918E-01 -0.16274853885E-01  0.89250925778E+00  0.88000000000E+00 0. -1.
        -11    1    4    4    0    0 -0.61449573089E-01  0.23425245290E-01  0.20192195487E-02  0.65796128444E-01  0.51100000000E-03 0.  1.
         11    1    4    4    0    0 -0.57905524555E-01  0.96974436984E-02  0.17082491432E-01  0.61148694367E-01  0.51100000000E-03 0. -1.
</event>
<event>
 8    1  0.1106905E+005  0.1043930E+01  0.7957747E-01            NaN
         13   -1    0    0    0    0  0.00000000000E+00  0.00000000000E+00  0.74505805969E-08  0.10566000000E+00  0.10566000000E+00 0.  1.
     999900   -1    0    0    0    0 -0.00000000000E+00 -0.00000000000E+00 -0.74505805969E-08  0.93827000000E+00  0.93827000000E+00 0. -1.
     999902    2    1    2    0    0 -0.16752500570E-01  0.15948916908E-01 -0.33816450887E-02  0.10205537353E+01  0.10202859780E+01 0.  0.
     999903    2    3    3    0    0  0.81266083831E-01 -0.86286340715E-01 -0.44870136067E-01  0.12826399222E+00  0.19718357315E-01 0.  0.
         14    1    1    2    0    0  0.16752500570E-01 -0.15948916908E-01  0.33816450887E-02  0.23376264658E-01  0.00000000000E+00 0. -1.
     999901    1    3    3    0    0 -0.98018584401E-01  0.10223525762E+00  0.41488490979E-01  0.89228974312E+00  0.88000000000E+00 0. -1.
        -11    1    4    4    0    0  0.40919996886E-01 -0.55047698973E-01 -0.19701445776E-01  0.71365982051E-01  0.51100000000E-03 0. -1.
         11    1    4    4    0    0  0.40346086945E-01 -0.31238641742E-01 -0.25168690291E-01  0.56898010173E-01  0.51100000000E-03 0.  1.
</event>
<event>
 8    1  0.1106905E+005  0.1043930E+01  0.7957747E-01            NaN
         13   -1    0    0    0    0  0.00000000000E+00  0.00000000000E+00  0.74505805969E-08  0.10566000000E+00  0.10566000000E+00 0.  1.
     999900   -1    0    0    0    0 -0.00000000000E+00 -0.00000000000E+00 -0.74505805969E-08  0.93827000000E+00  0.93827000000E+00 0.  1.
     999902    2    1    2    0    0 -0.11549024548E-01 -0.18627726477E-01 -0.10515816148E-01  0.10196204432E+01  0.10193306106E+01 0.  0.
     999903    2    3    3    0    0 -0.11434618434E+00  0.55914202373E-01  0.18903532800E-01  0.13001982872E+00  0.18610867992E-01 0.  0.
         14    1    1    2    0    0  0.11549024548E-01  0.18627726477E-01  0.10515816148E-01  0.24309556783E-01  0.00000000000E+00 0.  1.
     999901    1    3    3    0    0  0.10279715980E+00 -0.74541928850E-01 -0.29419348949E-01  0.88960061450E+00  0.88000000000E+00 0.  1.
        -11    1    4    4    0    0 -0.39009624879E-01  0.98162205426E-02  0.37067595347E-02  0.40399383735E-01  0.51100000000E-03 0.  1.
         11    1    4    4    0    0 -0.75336559465E-01  0.46097981830E-01  0.15196773266E-01  0.89620444986E-01  0.51100000000E-03 0. -1.
</event>
<event>
 8    1  0.1106905E+005  0.1043930E+01  0.7957747E-01            NaN
         13   -1    0    0    0    0  0.00000000000E+00  0.00000000000E+00  0.74505805969E-08  0.10566000000E+00  0.10566000000E+00 0.  1.
     999900   -1    0    0    0    0 -0.00000000000E+00 -0.00000000000E+00 -0.74505805969E-08  0.93827000000E+00  0.93827000000E+00 0. -1.
     999902    2    1    2    0    0  0.16131858241E-01 -0.57825275541E-02  0.16797940608E-01  0.10199332235E+01  0.10196508888E+01 0.  0.
     999903    2    3    3    0    0 -0.54836398751E-01  0.67568424616E-02  0.11744970728E+00  0.13126877193E+00  0.19605386900E-01 0.  0.
         14    1    1    2    0    0 -0.16131858241E-01  0.57825275541E-02 -0.16797940608E-01  0.23996776531E-01  0.00000000000E+00 0. -1.
     999901    1    3    3    0    0  0.70968256992E-01 -0.12539370016E-01 -0.10065176667E+00  0.88866445154E+00  0.88000000000E+00 0. -1.
        -11    1    4    4    0    0 -0.35975218478E-01  0.50758456519E-02  0.96031085925E-01  0.10267527034E+00  0.51100000000E-03 0.  1.
         11    1    4    4    0    0 -0.18861180273E-01  0.16809968097E-02  0.21418621353E-01  0.28593501591E-01  0.51100000000E-03 0. -1.
</event>
<event>
 8    1  0.1106905E+005  0.1043930E+01  0.7957747E-01            NaN
         13   -1    0    0    0    0  0.00000000000E+00  0.00000000000E+00  0.74505805969E-08  0.10566000000E+00  0.10566000000E+00 0.  1.
     999900   -1    0    0    0    0 -0.00000000000E+00 -0.00000000000E+00 -0.74505805969E-08  0.93827000000E+00  0.93827000000E+00 0. -1.
     999902    2    1    2    0    0  0.11559529536E-01  0.15734135594E-01  0.55840567667E-02  0.10236231678E+01  0.10234217225E+01 0.  0.
     999903    2    3    3    0    0 -0.27116033064E-01 -0.51117944321E-01 -0.11679331190E+00  0.13180411655E+00  0.19578660659E-01 0.  0.
         14    1    1    2    0    0 -0.11559529536E-01 -0.15734135594E-01 -0.55840567667E-02  0.20306832248E-01  0.00000000000E+00 0.  1.
     999901    1    3    3    0    0  0.38675562599E-01  0.66852079915E-01  0.12237736867E+00  0.89181905121E+00  0.88000000000E+00 0.  1.
        -11    1    4    4    0    0 -0.57751319692E-02 -0.18658281929E-03 -0.94476541041E-02  0.11086309191E-01  0.51100000000E-03 0.  1.
         11    1    4    4    0    0 -0.21340901094E-01 -0.50931361502E-01 -0.10734565780E+00  0.12071780736E+00  0.51100000000E-03 0. -1.
</event>
<event>
 8    1  0.1106905E+005  0.1043930E+01  0.7957747E-01            NaN
         13   -1    0    0    0    0  0.00000000000E+00  0.00000000000E+00  0.74505805969E-08  0.10566000000E+00  0.10566000000E+00 0.  1.
     999900   -1    0    0    0    0 -0.00000000000E+00 -0.00000000000E+00 -0.74505805969E-08  0.93827000000E+00  0.93827000000E+00 0. -1.
     999902    2    1    2    0    0 -0.23734431094E-01 -0.14386532229E-01 -0.31889667417E-04  0.10161757833E+01  0.10157966952E+01 0.  0.
     999903    2    3    3    0    0  0.39795934692E-01  0.75371471573E-01 -0.89044399406E-01  0.12487570277E+00  0.20011519975E-01 0.  0.
         14    1    1    2    0    0  0.23734431094E-01  0.14386532229E-01  0.31889667417E-04  0.27754216723E-01  0.00000000000E+00 0. -1.
     999901    1    3    3    0    0 -0.63530365786E-01 -0.89758003802E-01  0.89012509738E-01  0.89130008051E+00  0.88000000000E+00 0.  1.
        -11    1    4    4    0    0  0.26749480821E-01  0.66653507733E-01 -0.71839432861E-01  0.10158439866E+00  0.51100000000E-03 0. -1.
         11    1    4    4    0    0  0.13046453870E-01  0.87179638400E-02 -0.17204966545E-01  0.23291304105E-01  0.51100000000E-03 0.  1.
</event>
<event>
 8    1  0.1106905E+005  0.1043930E+01  0.7957747E-01            NaN
         13   -1    0    0    0    0  0.00000000000E+00  0.00000000000E+00  0.74505805969E-08  0.10566000000E+00  0.10566000000E+00 0.  1.
     999900   -1    0    0    0    0 -0.00000000000E+00 -0.00000000000E+00 -0.74505805969E-08  0.93827000000E+00  0.93827000000E+00 0. -1.
     999902    2    1    2    0    0 -0.78616489490E-02  0.19417233849E-01 -0.35877551258E-02  0.10226766125E+01  0.10224557434E+01 0.  0.
     999903    2    3    3    0    0  0.42806779935E-01  0.11587700081E+00  0.45852743198E-01  0.13457969254E+00  0.27373707459E-01 0.  0.
         14    1    1    2    0    0  0.78616489490E-02 -0.19417233849E-01  0.35877551258E-02  0.21253387527E-01  0.00000000000E+00 0. -1.
     999901    1    3    3    0    0 -0.50668428884E-01 -0.96459766957E-01 -0.49440498324E-01  0.88809691994E+00  0.88000000000E+00 0.  1.
        -11    1    4    4    0    0  0.25730240863E-01  0.38667972880E-01  0.25226586489E-01  0.52857347724E-01  0.51100000000E-03 0. -1.
         11    1    4    4    0    0  0.17076539072E-01  0.77209027926E-01  0.20626156709E-01  0.81722344812E-01  0.51100000000E-03 0.  1.
</event>
<event>
 8    1  0.1106905E+005  0.1043930E+01  0.7957747E-01            NaN
         13   -1    0    0    0    0  0.00000000000E+00  0.00000000000E+00  0.74505805969E-08  0.10566000000E+00  0.10566000000E+00 0.  1.
     999900   -1    0    0    0    0 -0.00000000000E+00 -0.00000000000E+00 -0.74505805969E-08  0.93827000000E+00  0.93827000000E+00 0. -1.
     999902    2    1    2    0    0 -0.19063060119E-01  0.18180435060E-02 -0.14464529609E-01  0.10199314967E+01  0.10196491209E+01 0.  0.
     999903    2    3    3    0    0 -0.75083859377E-01  0.29331436436E-01 -0.10415905711E+00  0.13317311643E+00  0.19699001473E-01 0.  0.
         14    1    1    2    0    0  0.19063060119E-01 -0.18180435060E-02  0.14464529609E-01  0.23998503289E-01  0.00000000000E+00 0.  1.
     999901    1    3    3    0    0  0.56020799258E-01 -0.27513392930E-01  0.89694527499E-01  0.88675838028E+00  0.88000000000E+00 0.  1.
        -11    1    4    4    0    0 -0.22810388434E-01  0.71761286498E-02 -0.17770503044E-01  0.29797022374E-01  0.51100000000E-03 0.  1.
         11    1    4    4    0    0 -0.52273470943E-01  0.22155307786E-01 -0.86388554064E-01  0.10337609405E+00  0.51100000000E-03 0. -1.
</event>
<event>
 8    1  0.1106905E+005  0.1043930E+01  0.7957747E-01            NaN
         13   -1    0    0    0    0  0.00000000000E+00  0.00000000000E+00  0.74505805969E-08  0.10566000000E+00  0.10566000000E+00 0.  1.
     999900   -1    0    0    0    0 -0.00000000000E+00 -0.00000000000E+00 -0.74505805969E-08  0.93827000000E+00  0.93827000000E+00 0.  1.
     999902    2    1    2    0    0 -0.16129732471E-01  0.16639765524E-01  0.10612254708E-01  0.10184413748E+01  0.10181223717E+01 0.  0.
     999903    2    3    3    0    0 -0.72809774150E-01 -0.10175990650E+00 -0.18860457879E-01  0.12821682430E+00  0.20675961432E-01 0.  0.
         14    1    1    2    0    0  0.16129732471E-01 -0.16639765524E-01 -0.10612254708E-01  0.25488625233E-01  0.00000000000E+00 0. -1.
     999901    1    3    3    0    0  0.56680041679E-01  0.11839967202E+00  0.29472712587E-01  0.89022455046E+00  0.88000000000E+00 0. -1.
        -11    1    4    4    0    0 -0.27173752994E-01 -0.40983177528E-01 -0.17508665279E-01  0.52200078284E-01  0.51100000000E-03 0.  1.
         11    1    4    4    0    0 -0.45636021157E-01 -0.60776728969E-01 -0.13517925999E-02  0.76016746020E-01  0.51100000000E-03 0. -1.
</event>
<event>
 8    1  0.1106905E+005  0.1043930E+01  0.7957747E-01            NaN
         13   -1    0    0    0    0  0.00000000000E+00  0.00000000000E+00  0.74505805969E-08  0.10566000000E+00  0.10566000000E+00 0.  1.
     999900   -1    0    0    0    0 -0.00000000000E+00 -0.00000000000E+00 -0.74505805969E-08  0.93827000000E+00  0.93827000000E+00 0.  1.
     999902    2    1    2    0    0 -0.17865512410E-01 -0.67315583269E-02 -0.14744048205E-01  0.10198078656E+01  0.10195225379E+01 0.  0.
     999903    2    3    3    0    0 -0.11153297269E+00  0.65229856370E-01 -0.16837398127E-01  0.13191349099E+00  0.20570196211E-01 0.  0.
         14    1    1    2    0    0  0.17865512410E-01  0.67315583269E-02  0.14744048205E-01  0.24122134413E-01  0.00000000000E+00 0.  1.
     999901    1    3    3    0    0  0.93667460277E-01 -0.71961414696E-01  0.20933499221E-02  0.88789437459E+00  0.88000000000E+00 0.  1.
        -11    1    4    4    0    0 -0.85162871154E-01  0.47837828189E-01 -0.21387751812E-01  0.99994347228E-01  0.51100000000E-03 0.  1.
         11    1    4    4    0    0 -0.26370101533E-01  0.17392028180E-01  0.45503536844E-02  0.31919143766E-01  0.51100000000E-03 0. -1.
</event>
<event>
 8    1  0.1106905E+005  0.1043930E+01  0.7957747E-01            NaN
         13   -1    0    0    0    0  0.00000000000E+00  0.00000000000E+00  0.74505805969E-08  0.10566000000E+00  0.10566000000E+00 0. -1.
     999900   -1    0    0    0    0 -0.00000000000E+00 -0.00000000000E+00 -0.74505805969E-08  0.93827000000E+00  0.93827000000E+00 0. -1.
     999902    2    1    2    0    0 -0.19418207336E-01  0.12388589261E-01  0.84072081229E-02  0.10194101087E+01  0.10191151773E+01 0.  0.
     999903    2    3    3    0    0 -0.72097424316E-01 -0.95030807905E-01 -0.46487895721E-01  0.12961940343E+00  0.20277382800E-01 0.  0.
         14    1    1    2    0    0  0.19418207336E-01 -0.12388589261E-01 -0.84072081229E-02  0.24519891282E-01  0.00000000000E+00 0. -1.
     999901    1    3    3    0    0  0.52679216980E-01  0.10741939717E+00  0.54895103844E-01  0.88979070529E+00  0.88000000000E+00 0.  1.
        -11    1    4    4    0    0 -0.31295436062E-01 -0.26692720997E-01 -0.19948318402E-01  0.45717635554E-01  0.51100000000E-03 0. -1.
         11    1    4    4    0    0 -0.40801988254E-01 -0.68338086908E-01 -0.26539577319E-01  0.83901767877E-01  0.51100000000E-03 0.  1.
</event>
<event>
 8    1  0.1106905E+005  0.1043930E+01  0.7957747E-01            NaN
         13   -1    0    0    0    0  0.00000000000E+00  0.00000000000E+00  0.74505805969E-08  0.10566000000E+00  0.10566000000E+00 0. -1.
     999900   -1    0    0    0    0 -0.00000000000E+00 -0.00000000000E+00 -0.74505805969E-08  0.93827000000E+00  0.93827000000E+00 0.  1.
     999902    2    1    2    0    0 -0.24002374382E-01  0.21704047119E-02  0.42285374879E-02  0.10194615476E+01  0.10191678674E+01 0.  0.
     999903    2    3    3    0    0  0.67296163191E-01  0.49682875019E-01  0.96039069996E-01  0.12871914284E+00  0.18653501461E-01 0.  0.
         14    1    1    2    0    0  0.24002374382E-01 -0.21704047119E-02 -0.42285374879E-02  0.24468452380E-01  0.00000000000E+00 0.  1.
     999901    1    3    3    0    0 -0.91298537573E-01 -0.47512470307E-01 -0.91810532508E-01  0.89074240478E+00  0.88000000000E+00 0.  1.
        -11    1    4    4    0    0  0.39070742852E-01  0.25788101414E-01  0.40011940353E-01  0.61585433451E-01  0.51100000000E-03 0.  1.
         11    1    4    4    0    0  0.28225420338E-01  0.23894773604E-01  0.56027129643E-01  0.67133709386E-01  0.51100000000E-03 0. -1.
</event>
<event>
 8    1  0.1106905E+005  0.1043930E+01  0.7957747E-01            NaN
         13   -1    0    0    0    0  0.00000000000E+00  0.00000000000E+00  0.74505805969E-08  0.10566000000E+00  0.10566000000E+00 0.  1.
     999900   -1    0    0    0    0 -0.00000000000E+00 -0.00000000000E+00 -0.74505805969E-08  0.93827000000E+00  0.93827000000E+00 0. -1.
     999902    2    1    2    0    0 -0.85431218914E-03  0.20192451240E-01  0.24416762342E-02  0.10235725267E+01  0.10233700654E+01 0.  0.
     999903    2    3    3    0    0 -0.11719469771E+00  0.63410395625E-02 -0.60397882687E-01  0.13358614642E+00  0.20555980384E-01 0.  0.
         14    1    1    2    0    0  0.85431218914E-03 -0.20192451240E-01 -0.24416762342E-02  0.20357473302E-01  0.00000000000E+00 0. -1.
     999901    1    3    3    0    0  0.11634038552E+00  0.13851411677E-01  0.62839558921E-01  0.88998638027E+00  0.88000000000E+00 0.  1.
        -11    1    4    4    0    0 -0.23031827530E-01 -0.41156682557E-02 -0.53289470779E-02  0.24001304184E-01  0.51100000000E-03 0. -1.
         11    1    4    4    0    0 -0.94162870179E-01  0.10456707818E-01 -0.55068935609E-01  0.10958484224E+00  0.51100000000E-03 0.  1.
</event>
<event>
 8    1  0.1106905E+005  0.1043930E+01  0.7957747E-01            NaN
         13   -1    0    0    0    0  0.00000000000E+00  0.00000000000E+00  0.74505805969E-08  0.10566000000E+00  0.10566000000E+00 0.  1.
     999900   -1    0    0    0    0 -0.00000000000E+00 -0.00000000000E+00 -0.74505805969E-08  0.93827000000E+00  0.93827000000E+00 0.  1.
     999902    2    1    2    0    0  0.31451497968E-02 -0.77389454562E-03 -0.23074189383E-01  0.10206295902E+01  0.10203635878E+01 0.  0.
     999903    2    3    3    0    0  0.83261271903E-01  0.83955999317E-01 -0.55964786385E-01  0.13232809900E+00  0.19940392437E-01 0.  0.
         14    1    1    2    0    0 -0.31451497968E-02  0.77389454562E-03  0.23074189383E-01  0.23300409775E-01  0.00000000000E+00 0.  1.
     999901    1    3    3    0    0 -0.80116122107E-01 -0.84729893863E-01  0.32890597002E-01  0.88830149122E+00  0.88000000000E+00 0. -1.
        -11    1    4    4    0    0  0.63684649801E-01  0.51824009382E-01 -0.35040755729E-01  0.89272494374E-01  0.51100000000E-03 0. -1.
         11    1    4    4    0    0  0.19576622102E-01  0.32131989935E-01 -0.20924030656E-01  0.43055604629E-01  0.51100000000E-03 0.  1.
</event>
<event>
 8    1  0.1106905E+005  0.1043930E+01  0.7957747E-01            NaN
         13   -1    0    0    0    0  0.00000000000E+00  0.00000000000E+00  0.74505805969E-08  0.10566000000E+00  0.10566000000E+00 0.  1.
     999900   -1    0    0    0    0 -0.00000000000E+00 -0.00000000000E+00 -0.74505805969E-08  0.93827000000E+00  0.93827000000E+00 0.  1.
     999902    2    1    2    0    0  0.85128142262E-02  0.54402743654E-02 -0.21623075108E-01  0.10200632455E+01  0.10197839982E+01 0.  0.
     999903    2    3    3    0    0 -0.61519348441E-02  0.63126805644E-01  0.11045610057E+00  0.12821813601E+00  0.14713951025E-01 0.  0.
         14    1    1    2    0    0 -0.85128142262E-02 -0.54402743654E-02  0.21623075108E-01  0.23866754458E-01  0.00000000000E+00 0.  1.
     999901    1    3    3    0    0  0.14664749070E-01 -0.57686531279E-01 -0.13207917568E+00  0.89184510954E+00  0.88000000000E+00 0.  1.
        -11    1    4    4    0    0 -0.99417431979E-02  0.50439963585E-01  0.93449773907E-01  0.10665903407E+00  0.51100000000E-03 0.  1.
         11    1    4    4    0    0  0.37898083537E-02  0.12686842059E-01  0.17006326662E-01  0.21559101937E-01  0.51100000000E-03 0. -1.
</event>
<event>
 8    1  0.1106905E+005  0.1043930E+01  0.7957747E-01            NaN
         13   -1    0    0    0    0  0.00000000000E+00  0.00000000000E+00  0.74505805969E-08  0.10566000000E+00  0.10566000000E+00 0.  1.
     999900   -1    0    0    0    0 -0.00000000000E+00 -0.00000000000E+00 -0.74505805969E-08  0.93827000000E+00  0.93827000000E+00 0. -1.
     999902    2    1    2    0    0  0.19043034354E-01 -0.11479100057E-01  0.81604404874E-02  0.10202445681E+01  0.10199695971E+01 0.  0.
     999903    2    3    3    0    0  0.98331991465E-01  0.24114817323E-02  0.87220343865E-01  0.13304100898E+00  0.20433450456E-01 0.  0.
         14    1    1    2    0    0 -0.19043034354E-01  0.11479100057E-01 -0.81604404874E-02  0.23685431904E-01  0.00000000000E+00 0. -1.
     999901    1    3    3    0    0 -0.79288957111E-01 -0.13890581789E-01 -0.79059903378E-01  0.88720355911E+00  0.88000000000E+00 0. -1.
        -11    1    4    4    0    0  0.54479339983E-01 -0.85570048167E-02  0.50954087596E-01  0.75085291370E-01  0.51100000000E-03 0.  1.
         11    1    4    4    0    0  0.43852651482E-01  0.10968486549E-01  0.36266256270E-01  0.57955717613E-01  0.51100000000E-03 0. -1.
</event>
<event>
 8    1  0.1106905E+005  0.1043930E+01  0.7957747E-01            NaN
         13   -1    0    0    0    0  0.00000000000E+00  0.00000000000E+00  0.74505805969E-08  0.10566000000E+00  0.10566000000E+00 0.  1.
     999900   -1    0    0    0    0 -0.00000000000E+00 -0.00000000000E+00 -0.74505805969E-08  0.93827000000E+00  0.93827000000E+00 0. -1.
     999902    2    1    2    0    0 -0.20737368029E-01 -0.11511730189E-01 -0.26711649494E-02  0.10200617473E+01  0.10197824645E+01 0.  0.
     999903    2    3    3    0    0  0.25072125950E-01 -0.18515923822E-02 -0.12618806622E+00  0.13020318949E+00  0.19934959314E-01 0.  0.
         14    1    1    2    0    0  0.20737368029E-01  0.11511730189E-01  0.26711649494E-02  0.23868252699E-01  0.00000000000E+00 0.  1.
     999901    1    3    3    0    0 -0.45809493979E-01 -0.96601378068E-02  0.12351690128E+00  0.88985855781E+00  0.88000000000E+00 0.  1.
        -11    1    4    4    0    0  0.10347718524E-02 -0.72264699188E-02 -0.34117335992E-01  0.34893356910E-01  0.51100000000E-03 0. -1.
         11    1    4    4    0    0  0.24037354098E-01  0.53748775366E-02 -0.92070730233E-01  0.95309832584E-01  0.51100000000E-03 0.  1.
</event>
<event>
 8    1  0.1106905E+005  0.1043930E+01  0.7957747E-01            NaN
         13   -1    0    0    0    0  0.00000000000E+00  0.00000000000E+00  0.74505805969E-08  0.10566000000E+00  0.10566000000E+00 0.  1.
     999900   -1    0    0    0    0 -0.00000000000E+00 -0.00000000000E+00 -0.74505805969E-08  0.93827000000E+00  0.93827000000E+00 0. -1.
     999902    2    1    2    0    0 -0.33726782388E-04  0.15147157671E-01 -0.18544508156E-01  0.10199855579E+01  0.10197044680E+01 0.  0.
     999903    2    3    3    0    0  0.57398397510E-01 -0.19153500013E-01 -0.11574083111E+00  0.13211050523E+00  0.19895049827E-01 0.  0.
         14    1    1    2    0    0  0.33726782388E-04 -0.15147157671E-01  0.18544508156E-01  0.23944442064E-01  0.00000000000E+00 0.  1.
     999901    1    3    3    0    0 -0.57432124293E-01  0.34300657684E-01  0.97196322952E-01  0.88787505270E+00  0.88000000000E+00 0.  1.
        -11    1    4    4    0    0  0.21342132327E-01 -0.82678048541E-02 -0.25195812759E-01  0.34043109596E-01  0.51100000000E-03 0. -1.
         11    1    4    4    0    0  0.36056265183E-01 -0.10885695159E-01 -0.90545018349E-01  0.98067395636E-01  0.51100000000E-03 0.  1.
</event>
<event>
 8    1  0.1106905E+005  0.1043930E+01  0.7957747E-01            NaN
         13   -1    0    0    0    0  0.00000000000E+00  0.00000000000E+00  0.74505805969E-08  0.10566000000E+00  0.10566000000E+00 0. -1.
     999900   -1    0    0    0    0 -0.00000000000E+00 -0.00000000000E+00 -0.74505805969E-08  0.93827000000E+00  0.93827000000E+00 0. -1.
     999902    2    1    2    0    0  0.53324999227E-02 -0.20873969633E-01 -0.67432486475E-02  0.10213550235E+01  0.10211055060E+01 0.  0.
     999903    2    3    3    0    0 -0.71519963546E-01 -0.79403527531E-01 -0.76976684193E-01  0.13328703858E+00  0.20493886272E-01 0.  0.
         14    1    1    2    0    0 -0.53324999227E-02  0.20873969633E-01  0.67432486475E-02  0.22574976545E-01  0.00000000000E+00 0.  1.
     999901    1    3    3    0    0  0.76852463469E-01  0.58529557898E-01  0.70233435546E-01  0.88806798487E+00  0.88000000000E+00 0.  1.
        -11    1    4    4    0    0 -0.65293327916E-01 -0.77547872234E-01 -0.67525460756E-01  0.12180656850E+00  0.51100000000E-03 0. -1.
         11    1    4    4    0    0 -0.62266356295E-02 -0.18556552976E-02 -0.94512234371E-02  0.11480470082E-01  0.51100000000E-03 0.  1.
</event>
<event>
 8    1  0.1106905E+005  0.1043930E+01  0.7957747E-01            NaN
         13   -1    0    0    0    0  0.00000000000E+00  0.00000000000E+00  0.74505805969E-08  0.10566000000E+00  0.10566000000E+00 0.  1.
     999900   -1    0    0    0    0 -0.00000000000E+00 -0.00000000000E+00 -0.74505805969E-08  0.93827000000E+00  0.93827000000E+00 0.  1.
     999902    2    1    2    0    0  0.10384017668E-01  0.14064869230E-02 -0.20767661515E-01  0.10206684052E+01  0.10204032985E+01 0.  0.
     999903    2    3    3    0    0 -0.81848428667E-02 -0.65732116987E-01  0.10831517793E+00  0.12852784779E+00  0.19988172298E-01 0.  0.
         14    1    1    2    0    0 -0.10384017668E-01 -0.14064869230E-02  0.20767661515E-01  0.23261594812E-01  0.00000000000E+00 0.  1.
     999901    1    3    3    0    0  0.18568860535E-01  0.67138603910E-01 -0.12908283944E+00  0.89214055740E+00  0.88000000000E+00 0.  1.
        -11    1    4    4    0    0 -0.10975818610E-01 -0.42202941451E-01  0.55067784126E-01  0.70244422062E-01  0.51100000000E-03 0.  1.
         11    1    4    4    0    0  0.27909757430E-02 -0.23529175536E-01  0.53247393800E-01  0.58283425727E-01  0.51100000000E-03 0. -1.
</event>
<event>
 8    1  0.1106905E+005  0.1043930E+01  0.7957747E-01            NaN
         13   -1    0    0    0    0  0.00000000000E+00  0.00000000000E+00  0.74505805969E-08  0.10566000000E+00  0.10566000000E+00 0.  1.
     999900   -1    0    0    0    0 -0.00000000000E+00 -0.00000000000E+00 -0.74505805969E-08  0.93827000000E+00  0.93827000000E+00 0.  1.
     999902    2    1    2    0    0 -0.97232082442E-02  0.19335006182E-01 -0.99098525307E-02  0.10201268821E+01  0.10198491395E+01 0.  0.
     999903    2    3    3    0    0 -0.62296886053E-01 -0.49047008587E-01 -0.10232079543E+00  0.13109377032E+00  0.20724873389E-01 0.  0.
         14    1    1    2    0    0  0.97232082442E-02 -0.19335006182E-01  0.99098525307E-02  0.23803117859E-01  0.00000000000E+00 0.  1.
     999901    1    3    3    0    0  0.52573677808E-01  0.68382014768E-01  0.92410942899E-01  0.88903311182E+00  0.88000000000E+00 0. -1.
        -11    1    4    4    0    0 -0.48829058901E-01 -0.45001054288E-01 -0.92768833096E-01  0.11408632431E+00  0.51100000000E-03 0.  1.
         11    1    4    4    0    0 -0.13467827152E-01 -0.40459542983E-02 -0.95519623340E-02  0.17007446011E-01  0.51100000000E-03 0. -1.
</event>
<event>
 8    1  0.1106905E+005  0.1043930E+01  0.7957747E-01            NaN
         13   -1    0    0    0    0  0.00000000000E+00  0.00000000000E+00  0.74505805969E-08  0.10566000000E+00  0.10566000000E+00 0.  1.
     999900   -1    0    0    0    0 -0.00000000000E+00 -0.00000000000E+00 -0.74505805969E-08  0.93827000000E+00  0.93827000000E+00 0.  1.
     999902    2    1    2    0    0 -0.19744686264E-01  0.88307968965E-02  0.90169291194E-02  0.10204962504E+01  0.10202271592E+01 0.  0.
     999903    2    3    3    0    0  0.15860386695E-02  0.94967938210E-01 -0.87671383219E-01  0.13076413528E+00  0.19787946662E-01 0.  0.
         14    1    1    2    0    0  0.19744686264E-01 -0.88307968965E-02 -0.90169291194E-02  0.23433749598E-01  0.00000000000E+00 0. -1.
     999901    1    3    3    0    0 -0.21330724933E-01 -0.86137141313E-01  0.96688312338E-01  0.88973211512E+00  0.88000000000E+00 0. -1.
        -11    1    4    4    0    0  0.10357666333E-02  0.22098966575E-01 -0.32694048867E-01  0.39479096856E-01  0.51100000000E-03 0. -1.
         11    1    4    4    0    0  0.55027203621E-03  0.72868971635E-01 -0.54977334352E-01  0.91285038423E-01  0.51100000000E-03 0.  1.
</event>
<event>
 8    1  0.1106905E+005  0.1043930E+01  0.7957747E-01            NaN
         13   -1    0    0    0    0  0.00000000000E+00  0.00000000000E+00  0.74505805969E-08  0.10566000000E+00  0.10566000000E+00 0.  1.
     999900   -1    0    0    0    0 -0.00000000000E+00 -0.00000000000E+00 -0.74505805969E-08  0.93827000000E+00  0.93827000000E+00 0.  1.
     999902    2    1    2    0    0  0.24696547590E-02 -0.11938203074E-01 -0.20118719100E-01  0.10204059114E+01  0.10201347172E+01 0.  0.
     999903    2    3    3    0    0  0.56186859478E-01 -0.49163835273E-01 -0.10885737827E+00  0.13353171770E+00  0.20167918868E-01 0.  0.
         14    1    1    2    0    0 -0.24696547590E-02  0.11938203074E-01  0.20118719100E-01  0.23524088622E-01  0.00000000000E+00 0.  1.
     999901    1    3    3    0    0 -0.53717204719E-01  0.37225632199E-01  0.88738659173E-01  0.88687419368E+00  0.88000000000E+00 0. -1.
        -11    1    4    4    0    0  0.16548921140E-01 -0.25833484013E-01 -0.35245152646E-01  0.46730264210E-01  0.51100000000E-03 0. -1.
         11    1    4    4    0    0  0.39637938338E-01 -0.23330351260E-01 -0.73612225627E-01  0.86801453492E-01  0.51100000000E-03 0.  1.
</event>
<event>
 8    1  0.1106905E+005  0.1043930E+01  0.7957747E-01            NaN
         13   -1    0    0    0    0  0.00000000000E+00  0.00000000000E+00  0.74505805969E-08  0.10566000000E+00  0.10566000000E+00 0. -1.
     999900   -1    0    0    0    0 -0.00000000000E+00 -0.00000000000E+00 -0.74505805969E-08  0.93827000000E+00  0.93827000000E+00 0.  1.
     999902    2    1    2    0    0  0.90475864686E-03 -0.19231718628E-01 -0.15104290536E-01  0.10194592587E+01  0.10191655228E+01 0.  0.
     999903    2    3    3    0    0  0.10021103073E+00 -0.39190490640E-01  0.68996569202E-01  0.12966543823E+00  0.21781966692E-01 0.  0.
         14    1    1    2    0    0 -0.90475864686E-03  0.19231718628E-01  0.15104290536E-01  0.24470741349E-01  0.00000000000E+00 0. -1.
     999901    1    3    3    0    0 -0.99306272081E-01  0.19958772013E-01 -0.84100859738E-01  0.88979382042E+00  0.88000000000E+00 0.  1.
        -11    1    4    4    0    0  0.19105077485E-01 -0.49571936179E-02  0.23084764525E-01  0.30376721818E-01  0.51100000000E-03 0. -1.
         11    1    4    4    0    0  0.81105953243E-01 -0.34233297022E-01  0.45911804677E-01  0.99288716409E-01  0.51100000000E-03 0.  1.
</event>
<event>
 8    1  0.1106905E+005  0.1043930E+01  0.7957747E-01            NaN
         13   -1    0    0    0    0  0.00000000000E+00  0.00000000000E+00  0.74505805969E-08  0.10566000000E+00  0.10566000000E+00 0. -1.
     999900   -1    0    0    0    0 -0.00000000000E+00 -0.00000000000E+00 -0.74505805969E-08  0.93827000000E+00  0.93827000000E+00 0.  1.
     999902    2    1    2    0    0 -0.17373298627E-01  0.16451859795E-02 -0.16180691564E-01  0.10201318294E+01  0.10198542036E+01 0.  0.
     999903    2    3    3    0    0  0.37265094866E-01 -0.72206552000E-01  0.97060220378E-01  0.12813242509E+00  0.19868531188E-01 0.  0.
         14    1    1    2    0    0  0.17373298627E-01 -0.16451859795E-02  0.16180691564E-01  0.23798170551E-01  0.00000000000E+00 0. -1.
     999901    1    3    3    0    0 -0.54638393493E-01  0.73851737979E-01 -0.11324091194E+00  0.89199940436E+00  0.88000000000E+00 0.  1.
        -11    1    4    4    0    0  0.46232638120E-02 -0.54963089474E-02  0.19315084779E-01  0.20613529570E-01  0.51100000000E-03 0. -1.
         11    1    4    4    0    0  0.32641831054E-01 -0.66710243052E-01  0.77745135599E-01  0.10751889552E+00  0.51100000000E-03 0.  1.
</event>
<event>
 8    1  0.1106905E+005  0.1043930E+01  0.7957747E-01            NaN
         13   -1    0    0    0    0  0.00000000000E+00  0.00000000000E+00  0.74505805969E-08  0.10566000000E+00  0.10566000000E+00 0.  1.
     999900   -1    0    0    0    0 -0.00000000000E+00 -0.00000000000E+00 -0.74505805969E-08  0.93827000000E+00  0.93827000000E+00 0. -1.
     999902    2    1    2    0    0  0.60766668096E-02 -0.98965516582E-02  0.18125339043E-01  0.10224033763E+01  0.10221767304E+01 0.  0.
     999903    2    3    3    0    0 -0.19702860853E-01  0.10241850261E+00  0.79630460854E-01  0.13276179929E+00  0.20172571771E-01 0.  0.
         14    1    1    2    0    0 -0.60766668096E-02  0.98965516582E-02 -0.18125339043E-01  0.21526623741E-01  0.00000000000E+00 0. -1.
     999901    1    3    3    0    0  0.25779527663E-01 -0.11231505427E+00 -0.61505121811E-01  0.88964157697E+00  0.88000000000E+00 0. -1.
        -11    1    4    4    0    0 -0.17666205904E-01  0.87442293083E-01  0.58139672362E-01  0.10648348263E+00  0.51100000000E-03 0. -1.
         11    1    4    4    0    0 -0.20366549489E-02  0.14976209530E-01  0.21490788492E-01  0.26278316656E-01  0.51100000000E-03 0.  1.
</event>
<event>
 7    1  0.1106905E+005  0.1043930E+01  0.7957747E-01            NaN
         13   -1    0    0    0    0  0.00000000000E+00  0.00000000000E+00  0.74505805969E-08  0.10566000000E+00  0.10566000000E+00 0.  1.
     999900   -1    0    0    0    0 -0.00000000000E+00 -0.00000000000E+00 -0.74505805969E-08  0.93827000000E+00  0.93827000000E+00 0.  1.
     999903    2    1    2    0    0  0.28774534075E-01  0.75196622701E-01 -0.85771579676E-02  0.81740682493E-01  0.11201145417E-01 0.  0.
         14    1    1    2    0    0  0.13067811149E-01 -0.65910685869E-01 -0.42770563823E-01  0.79651160253E-01  0.00000000000E+00 0. -1.
     999901    1    1    2    0    0 -0.41842345225E-01 -0.92859368322E-02  0.51347721790E-01  0.88253815725E+00  0.88000000000E+00 0. -1.
        -11    1    3    3    0    0  0.14625104535E-01  0.32546665325E-01  0.13804797694E-02  0.35711986109E-01  0.51100000000E-03 0.  1.
         11    1    3    3    0    0  0.14149429540E-01  0.42649957376E-01 -0.99576377370E-02  0.46028696383E-01  0.51100000000E-03 0. -1.
</event>
<event>
 8    1  0.1106905E+005  0.1043930E+01  0.7957747E-01            NaN
         13   -1    0    0    0    0  0.00000000000E+00  0.00000000000E+00  0.74505805969E-08  0.10566000000E+00  0.10566000000E+00 0. -1.
     999900   -1    0    0    0    0 -0.00000000000E+00 -0.00000000000E+00 -0.74505805969E-08  0.93827000000E+00  0.93827000000E+00 0. -1.
     999902    2    1    2    0    0  0.18469242721E-01  0.12508298787E-01  0.14683214377E-01  0.10172248086E+01  0.10168742026E+01 0.  0.
     999903    2    3    3    0    0 -0.50491845678E-01  0.11250021026E+00  0.30986953827E-01  0.12873180015E+00  0.20148480727E-01 0.  0.
         14    1    1    2    0    0 -0.18469242721E-01 -0.12508298787E-01 -0.14683214377E-01  0.26705191437E-01  0.00000000000E+00 0.  1.
     999901    1    3    3    0    0  0.68961088398E-01 -0.99991911470E-01 -0.16303739450E-01  0.88849300841E+00  0.88000000000E+00 0. -1.
        -11    1    4    4    0    0 -0.18502732782E-01  0.50489972644E-01  0.40232273638E-02  0.53926208261E-01  0.51100000000E-03 0. -1.
         11    1    4    4    0    0 -0.31989112896E-01  0.62010237613E-01  0.26963726463E-01  0.74805591893E-01  0.51100000000E-03 0.  1.
</event>
<event>
 8    1  0.1106905E+005  0.1043930E+01  0.7957747E-01            NaN
         13   -1    0    0    0    0  0.00000000000E+00  0.00000000000E+00  0.74505805969E-08  0.10566000000E+00  0.10566000000E+00 0.  1.
     999900   -1    0    0    0    0 -0.00000000000E+00 -0.00000000000E+00 -0.74505805969E-08  0.93827000000E+00  0.93827000000E+00 0.  1.
     999902    2    1    2    0    0  0.21674480622E-01 -0.56628364975E-02  0.47464858023E-02  0.10210306560E+01  0.10207738342E+01 0.  0.
     999903    2    3    3    0    0 -0.11128431437E+00  0.26652481981E-01  0.56203630191E-01  0.12897115201E+00  0.19497604581E-01 0.  0.
         14    1    1    2    0    0 -0.21674480622E-01  0.56628364975E-02 -0.47464858023E-02  0.22899343984E-01  0.00000000000E+00 0.  1.
     999901    1    3    3    0    0  0.13295879499E+00 -0.32315318479E-01 -0.51457144389E-01  0.89205950400E+00  0.88000000000E+00 0. -1.
        -11    1    4    4    0    0 -0.21876597859E-01  0.11926578666E-01  0.71264830897E-02  0.25920584383E-01  0.51100000000E-03 0. -1.
         11    1    4    4    0    0 -0.89407716511E-01  0.14725903315E-01  0.49077147102E-01  0.10305056763E+00  0.51100000000E-03 0.  1.
</event>
<event>
 8    1  0.1106905E+005  0.1043930E+01  0.7957747E-01            NaN
         13   -1    0    0    0    0  0.00000000000E+00  0.00000000000E+00  0.74505805969E-08  0.10566000000E+00  0.10566000000E+00 0. -1.
     999900   -1    0    0    0    0 -0.00000000000E+00 -0.00000000000E+00 -0.74505805969E-08  0.93827000000E+00  0.93827000000E+00 0.  1.
     999902    2    1    2    0    0 -0.11595135192E-01  0.17172831603E-01 -0.11759139361E-01  0.10201049992E+01  0.10198267395E+01 0.  0.
     999903    2    3    3    0    0  0.35416680736E-01 -0.11413684887E+00 -0.42659040164E-01  0.12858542739E+00  0.20805212905E-01 0.  0.
         14    1    1    2    0    0  0.11595135192E-01 -0.17172831603E-01  0.11759139361E-01  0.23825000816E-01  0.00000000000E+00 0. -1.
     999901    1    3    3    0    0 -0.47011815928E-01  0.13130968048E+00  0.30899900804E-01  0.89151957179E+00  0.88000000000E+00 0.  1.
        -11    1    4    4    0    0  0.82559202072E-02 -0.52210634534E-01 -0.11350645706E-01  0.54066707463E-01  0.51100000000E-03 0. -1.
         11    1    4    4    0    0  0.27160760529E-01 -0.61926214339E-01 -0.31308394459E-01  0.74518719926E-01  0.51100000000E-03 0.  1.
</event>
<event>
 8    1  0.1106905E+005  0.1043930E+01  0.7957747E-01            NaN
         13   -1    0    0    0    0  0.00000000000E+00  0.00000000000E+00  0.74505805969E-08  0.10566000000E+00  0.10566000000E+00 0. -1.
     999900   -1    0    0    0    0 -0.00000000000E+00 -0.00000000000E+00 -0.74505805969E-08  0.93827000000E+00  0.93827000000E+00 0. -1.
     999902    2    1    2    0    0 -0.10949969902E-01  0.18044278901E-01  0.86786930682E-02  0.10211085725E+01  0.10208535150E+01 0.  0.
     999903    2    3    3    0    0 -0.18129449801E-01  0.12510339952E+00  0.37752868384E-01  0.13411448684E+00  0.24122167967E-01 0.  0.
         14    1    1    2    0    0  0.10949969902E-01 -0.18044278901E-01 -0.86786930682E-02  0.22821427547E-01  0.00000000000E+00 0.  1.
     999901    1    3    3    0    0  0.71794798989E-02 -0.10705912062E+00 -0.29074175315E-01  0.88699408561E+00  0.88000000000E+00 0.  1.
        -11    1    4    4    0    0 -0.26807415620E-02  0.53192083341E-01  0.27206818450E-01  0.59808496023E-01  0.51100000000E-03 0.  1.
         11    1    4    4    0    0 -0.15448708239E-01  0.71911316182E-01  0.10546049934E-01  0.74305990818E-01  0.51100000000E-03 0. -1.
</event>
<event>
 8    1  0.1106905E+005  0.1043930E+01  0.7957747E-01            NaN
         13   -1    0    0    0    0  0.00000000000E+00  0.00000000000E+00  0.74505805969E-08  0.10566000000E+00  0.10566000000E+00 0.  1.
     999900   -1    0    0    0    0 -0.00000000000E+00 -0.00000000000E+00 -0.74505805969E-08  0.93827000000E+00  0.93827000000E+00 0.  1.
     999902    2    1    2    0    0 -0.18778926006E-01  0.94744205295E-03 -0.14601298445E-01  0.10201236222E+01  0.10198458025E+01 0.  0.
     999903    2    3    3    0    0  0.99676519906E-01  0.23511829666E-01 -0.77106465940E-01  0.12970364250E+00  0.19733550972E-01 0.  0.
         14    1    1    2    0    0  0.18778926006E-01 -0.94744205295E-03  0.14601298445E-01  0.23806377815E-01  0.00000000000E+00 0.  1.
     999901    1    3    3    0    0 -0.11845544591E+00 -0.22564387614E-01  0.62505167494E-01  0.89041997968E+00  0.88000000000E+00 0. -1.
        -11    1    4    4    0    0  0.59734832092E-01  0.17465558971E-01 -0.57759668645E-01  0.84910166400E-01  0.51100000000E-03 0.  1.
         11    1    4    4    0    0  0.39941687814E-01  0.60462706950E-02 -0.19346797295E-01  0.44793476102E-01  0.51100000000E-03 0. -1.
</event>
<event>
 8    1  0.1106905E+005  0.1043930E+01  0.7957747E-01            NaN
         13   -1    0    0    0    0  0.00000000000E+00  0.00000000000E+00  0.74505805969E-08  0.10566000000E+00  0.10566000000E+00 0. -1.
     999900   -1    0    0    0    0 -0.00000000000E+00 -0.00000000000E+00 -0.74505805969E-08  0.93827000000E+00  0.93827000000E+00 0.  1.
     999902    2    1    2    0    0 -0.10822446242E-01  0.38362243907E-03 -0.22283461954E-01  0.10191545043E+01  0.10188533155E+01 0.  0.
     999903    2    3    3    0    0 -0.36329845966E-01 -0.10976766615E+00 -0.58655194427E-01  0.13117542984E+00  0.19944004634E-01 0.  0.
         14    1    1    2    0    0  0.10822446242E-01 -0.38362243907E-03  0.22283461954E-01  0.24775495666E-01  0.00000000000E+00 0. -1.
     999901    1    3    3    0    0  0.25507399725E-01  0.11015128859E+00  0.36371732473E-01  0.88797907450E+00  0.88000000000E+00 0. -1.
        -11    1    4    4    0    0 -0.21260426293E-01 -0.38033087718E-01 -0.27501171529E-01  0.51527633790E-01  0.51100000000E-03 0. -1.
         11    1    4    4    0    0 -0.15069419673E-01 -0.71734578430E-01 -0.31154022898E-01  0.79647796050E-01  0.51100000000E-03 0.  1.
</event>
<event>
 8    1  0.1106905E+005  0.1043930E+01  0.7957747E-01            NaN
         13   -1    0    0    0    0  0.00000000000E+00  0.00000000000E+00  0.74505805969E-08  0.10566000000E+00  0.10566000000E+00 0.  1.
     999900   -1    0    0    0    0 -0.00000000000E+00 -0.00000000000E+00 -0.74505805969E-08  0.93827000000E+00  0.93827000000E+00 0. -1.
     999902    2    1    2    0    0 -0.20468953933E-03 -0.14969682253E-01 -0.81669036549E-02  0.10268762145E+01  0.10267345949E+01 0.  0.
     999903    2    3    3    0    0  0.81150826801E-01 -0.10868882694E+00  0.14307916706E-01  0.13788402349E+00  0.20213106182E-01 0.  0.
         14    1    1    2    0    0  0.20468953933E-03  0.14969682253E-01  0.81669036549E-02  0.17053785500E-01  0.00000000000E+00 0.  1.
     999901    1    3    3    0    0 -0.81355516340E-01  0.93719144690E-01 -0.22474820361E-01  0.88899219101E+00  0.88000000000E+00 0. -1.
        -11    1    4    4    0    0  0.68363334996E-01 -0.77069795273E-01  0.11340669719E-01  0.10364444426E+00  0.51100000000E-03 0.  1.
         11    1    4    4    0    0  0.12787491804E-01 -0.31619031671E-01  0.29672469868E-02  0.34239579234E-01  0.51100000000E-03 0. -1.
</event>
<event>
 8    1  0.1106905E+005  0.1043930E+01  0.7957747E-01            NaN
         13   -1    0    0    0    0  0.00000000000E+00  0.00000000000E+00  0.74505805969E-08  0.10566000000E+00  0.10566000000E+00 0. -1.
     999900   -1    0    0    0    0 -0.00000000000E+00 -0.00000000000E+00 -0.74505805969E-08  0.93827000000E+00  0.93827000000E+00 0.  1.
     999902    2    1    2    0    0  0.69227606094E-02  0.12008688236E-01 -0.18842464600E-01  0.10205382989E+01  0.10202701838E+01 0.  0.
     999903    2    3    3    0    0  0.87613858289E-01  0.86687559481E-01 -0.46537372544E-01  0.13326438687E+00  0.20068598172E-01 0.  0.
         14    1    1    2    0    0 -0.69227606094E-02 -0.12008688236E-01  0.18842464600E-01  0.23391701088E-01  0.00000000000E+00 0. -1.
     999901    1    3    3    0    0 -0.80691097680E-01 -0.74678871245E-01  0.27694907944E-01  0.88727391204E+00  0.88000000000E+00 0. -1.
        -11    1    4    4    0    0  0.38828256034E-01  0.24918865263E-01 -0.15975105958E-01  0.48826718546E-01  0.51100000000E-03 0. -1.
         11    1    4    4    0    0  0.48785602256E-01  0.61768694218E-01 -0.30562266586E-01  0.84437668328E-01  0.51100000000E-03 0.  1.
</event>
<event>
 8    1  0.1106905E+005  0.1043930E+01  0.7957747E-01            NaN
         13   -1    0    0    0    0  0.00000000000E+00  0.00000000000E+00  0.74505805969E-08  0.10566000000E+00  0.10566000000E+00 0.  1.
     999900   -1    0    0    0    0 -0.00000000000E+00 -0.00000000000E+00 -0.74505805969E-08  0.93827000000E+00  0.93827000000E+00 0.  1.
     999902    2    1    2    0    0  0.12778785633E-01  0.26146188550E-02  0.20437567871E-01  0.10196848402E+01  0.10193965595E+01 0.  0.
     999903    2    3    3    0    0 -0.47299399996E-01 -0.11693266727E+00  0.21438236871E-01  0.12957139610E+00  0.20461348204E-01 0.  0.
         14    1    1    2    0    0 -0.12778785633E-01 -0.26146188550E-02 -0.20437567871E-01  0.24245159816E-01  0.00000000000E+00 0. -1.
     999901    1    3    3    0    0  0.60078185629E-01  0.11954728613E+00 -0.10006690006E-02  0.89011344409E+00  0.88000000000E+00 0. -1.
        -11    1    4    4    0    0 -0.42580217522E-01 -0.97252321674E-01  0.24862974507E-01  0.10903906464E+00  0.51100000000E-03 0. -1.
         11    1    4    4    0    0 -0.47191824742E-02 -0.19680345599E-01 -0.34247376354E-02  0.20532331455E-01  0.51100000000E-03 0.  1.
</event>
<event>
 8    1  0.1106905E+005  0.1043930E+01  0.7957747E-01            NaN
         13   -1    0    0    0    0  0.00000000000E+00  0.00000000000E+00  0.74505805969E-08  0.10566000000E+00  0.10566000000E+00 0. -1.
     999900   -1    0    0    0    0 -0.00000000000E+00 -0.00000000000E+00 -0.74505805969E-08  0.93827000000E+00  0.93827000000E+00 0. -1.
     999902    2    1    2    0    0  0.14068440040E-01 -0.16419039415E-01 -0.12614417694E-01  0.10188974333E+01  0.10185898832E+01 0.  0.
     999903    2    3    3    0    0 -0.88714865439E-01 -0.33919272128E-01 -0.86043044324E-01  0.12970542412E+00  0.19981171081E-01 0.  0.
         14    1    1    2    0    0 -0.14068440040E-01  0.16419039415E-01  0.12614417694E-01  0.25032566673E-01  0.00000000000E+00 0.  1.
     999901    1    3    3    0    0  0.10278330548E+00  0.17500232713E-01  0.73428626630E-01  0.88919200921E+00  0.88000000000E+00 0.  1.
        -11    1    4    4    0    0 -0.40028242551E-01 -0.70213363317E-02 -0.28278298359E-01  0.49512449391E-01  0.51100000000E-03 0. -1.
         11    1    4    4    0    0 -0.48686622888E-01 -0.26897935796E-01 -0.57764745965E-01  0.80192974728E-01  0.51100000000E-03 0.  1.
</event>
<event>
 8    1  0.1106905E+005  0.1043930E+01  0.7957747E-01            NaN
         13   -1    0    0    0    0  0.00000000000E+00  0.00000000000E+00  0.74505805969E-08  0.10566000000E+00  0.10566000000E+00 0. -1.
     999900   -1    0    0    0    0 -0.00000000000E+00 -0.00000000000E+00 -0.74505805969E-08  0.93827000000E+00  0.93827000000E+00 0.  1.
     999902    2    1    2    0    0 -0.32367063975E-02  0.17688714429E-01 -0.15691209232E-01  0.10200641052E+01  0.10197848782E+01 0.  0.
     999903    2    3    3    0    0  0.85281880986E-01  0.55329669059E-01 -0.81986712586E-01  0.13234372383E+00  0.21416551843E-01 0.  0.
         14    1    1    2    0    0  0.32367063975E-02 -0.17688714429E-01  0.15691209232E-01  0.23865894779E-01  0.00000000000E+00 0. -1.
     999901    1    3    3    0    0 -0.88518587384E-01 -0.37640954630E-01  0.66295503355E-01  0.88772038139E+00  0.88000000000E+00 0. -1.
        -11    1    4    4    0    0  0.14284390800E-01  0.12847006661E-01 -0.63430119743E-02  0.20238189706E-01  0.51100000000E-03 0.  1.
         11    1    4    4    0    0  0.70997490186E-01  0.42482662398E-01 -0.75643700612E-01  0.11210553412E+00  0.51100000000E-03 0. -1.
</event>
<event>
 8    1  0.1106905E+005  0.1043930E+01  0.7957747E-01            NaN
         13   -1    0    0    0    0  0.00000000000E+00  0.00000000000E+00  0.74505805969E-08  0.10566000000E+00  0.10566000000E+00 0.  1.
     999900   -1    0    0    0    0 -0.00000000000E+00 -0.00000000000E+00 -0.74505805969E-08  0.93827000000E+00  0.93827000000E+00 0. -1.
     999902    2    1    2    0    0  0.19404983857E-01  0.44504680264E-02 -0.13785931460E-01  0.10197140555E+01  0.10194264774E+01 0.  0.
     999903    2    3    3    0    0  0.65729589045E-02 -0.12740361852E+00 -0.11104051298E-01  0.12979419755E+00  0.21174228710E-01 0.  0.
         14    1    1    2    0    0 -0.19404983857E-01 -0.44504680264E-02  0.13785931460E-01  0.24215944549E-01  0.00000000000E+00 0.  1.
     999901    1    3    3    0    0  0.12832024953E-01  0.13185408655E+00 -0.26818801621E-02  0.88991985790E+00  0.88000000000E+00 0. -1.
        -11    1    4    4    0    0  0.13850150857E-01 -0.94793842700E-01 -0.10473097729E-01  0.96372434801E-01  0.51100000000E-03 0.  1.
         11    1    4    4    0    0 -0.72771919523E-02 -0.32609775822E-01 -0.63095356910E-03  0.33421762750E-01  0.51100000000E-03 0. -1.
</event>
<event>
 8    1  0.1106905E+005  0.1043930E+01  0.7957747E-01            NaN
         13   -1    0    0    0    0  0.00000000000E+00  0.00000000000E+00  0.74505805969E-08  0.10566000000E+00  0.10566000000E+00 0.  1.
     999900   -1    0    0    0    0 -0.00000000000E+00 -0.00000000000E+00 -0.74505805969E-08  0.93827000000E+00  0.93827000000E+00 0.  1.
     999902    2    1    2    0    0  0.23299314549E-01 -0.75390200797E-02 -0.22477402387E-02  0.10193383913E+01  0.10190417110E+01 0.  0.
     999903    2    3    3    0    0 -0.82048869009E-01 -0.14785899683E-01 -0.95064199285E-01  0.12817866818E+00  0.21022113494E-01 0.  0.
         14    1    1    2    0    0 -0.23299314549E-01  0.75390200797E-02  0.22477402387E-02  0.24591608699E-01  0.00000000000E+00 0. -1.
     999901    1    3    3    0    0  0.10534818356E+00  0.72468796034E-02  0.92816459046E-01  0.89115972312E+00  0.88000000000E+00 0. -1.
        -11    1    4    4    0    0 -0.46081548638E-01 -0.17873764558E-01 -0.61313119489E-01  0.78756208179E-01  0.51100000000E-03 0. -1.
         11    1    4    4    0    0 -0.35967320371E-01  0.30878648750E-02 -0.33751079796E-01  0.49422460001E-01  0.51100000000E-03 0.  1.
</event>
<event>
 8    1  0.1106905E+005  0.1043930E+01  0.7957747E-01            NaN
         13   -1    0    0    0    0  0.00000000000E+00  0.00000000000E+00  0.74505805969E-08  0.10566000000E+00  0.10566000000E+00 0. -1.
     999900   -1    0    0    0    0 -0.00000000000E+00 -0.00000000000E+00 -0.74505805969E-08  0.93827000000E+00  0.93827000000E+00 0.  1.
     999902    2    1    2    0    0 -0.79760575766E-02  0.18579548968E-01 -0.13594801432E-01  0.10195653584E+01  0.10192741949E+01 0.  0.
     999903    2    3    3    0    0  0.56211752255E-01  0.77331403817E-01  0.85428267287E-01  0.12974659960E+00  0.19906886936E-01 0.  0.
         14    1    1    2    0    0  0.79760575766E-02 -0.18579548968E-01  0.13594801432E-01  0.24364641600E-01  0.00000000000E+00 0. -1.
     999901    1    3    3    0    0 -0.64187809831E-01 -0.58751854849E-01 -0.99023068719E-01  0.88981875880E+00  0.88000000000E+00 0.  1.
        -11    1    4    4    0    0  0.38733064442E-01  0.51304725643E-01  0.44487309478E-01  0.78178046663E-01  0.51100000000E-03 0. -1.
         11    1    4    4    0    0  0.17478687812E-01  0.26026678174E-01  0.40940957810E-01  0.51568552935E-01  0.51100000000E-03 0.  1.
</event>
<event>
 8    1  0.1106905E+005  0.1043930E+01  0.7957747E-01            NaN
         13   -1    0    0    0    0  0.00000000000E+00  0.00000000000E+00  0.74505805969E-08  0.10566000000E+00  0.10566000000E+00 0.  1.
     999900   -1    0    0    0    0 -0.00000000000E+00 -0.00000000000E+00 -0.74505805969E-08  0.93827000000E+00  0.93827000000E+00 0.  1.
     999902    2    1    2    0    0  0.84169451911E-02 -0.18601700097E-01 -0.12884599848E-01  0.10197870688E+01  0.10195012431E+01 0.  0.
     999903    2    3    3    0    0  0.32317578350E-01  0.11697896647E+00 -0.37823631798E-01  0.12873414518E+00  0.20330975021E-01 0.  0.
         14    1    1    2    0    0 -0.84169451911E-02  0.18601700097E-01  0.12884599848E-01  0.24142931183E-01  0.00000000000E+00 0.  1.
     999901    1    3    3    0    0 -0.23900633159E-01 -0.13558066657E+00  0.24939031950E-01  0.89105292364E+00  0.88000000000E+00 0.  1.
        -11    1    4    4    0    0  0.11919114368E-01  0.71143735147E-01 -0.29217400316E-01  0.77829389952E-01  0.51100000000E-03 0.  1.
         11    1    4    4    0    0  0.20398463982E-01  0.45835231323E-01 -0.86062314813E-02  0.50904755226E-01  0.51100000000E-03 0. -1.
</event>
<event>
 8    1  0.1106905E+005  0.1043930E+01  0.7957747E-01            NaN
         13   -1    0    0    0    0  0.00000000000E+00  0.00000000000E+00  0.74505805969E-08  0.10566000000E+00  0.10566000000E+00 0.  1.
     999900   -1    0    0    0    0 -0.00000000000E+00 -0.00000000000E+00 -0.74505805969E-08  0.93827000000E+00  0.93827000000E+00 0.  1.
     999902    2    1    2    0    0  0.20749169350E-01  0.87142106401E-02  0.63660373285E-02  0.10205421415E+01  0.10202741154E+01 0.  0.
     999903    2    3    3    0    0 -0.12600051874E+00  0.13443425509E-01 -0.16762435066E-02  0.12834120293E+00  0.20292810707E-01 0.  0.
         14    1    1    2    0    0 -0.20749169350E-01 -0.87142106401E-02 -0.63660373285E-02  0.23387858539E-01  0.00000000000E+00 0. -1.
     999901    1    3    3    0    0  0.14674968809E+00 -0.47292148692E-02  0.80422808352E-02  0.89220093853E+00  0.88000000000E+00 0.  1.
        -11    1    4    4    0    0 -0.10705348172E+00  0.53790847780E-02 -0.57507341556E-02  0.10734390791E+00  0.51100000000E-03 0. -1.
         11    1    4    4    0    0 -0.18947037023E-01  0.80643407313E-02  0.40744906489E-02  0.20997295027E-01  0.51100000000E-03 0.  1.
</event>
<event>
 8    1  0.1106905E+005  0.1043930E+01  0.7957747E-01            NaN
         13   -1    0    0    0    0  0.00000000000E+00  0.00000000000E+00  0.74505805969E-08  0.10566000000E+00  0.10566000000E+00 0.  1.
     999900   -1    0    0    0    0 -0.00000000000E+00 -0.00000000000E+00 -0.74505805969E-08  0.93827000000E+00  0.93827000000E+00 0.  1.
     999902    2    1    2    0    0  0.17123736608E-01 -0.15887775569E-01  0.24881880162E-02  0.10204388347E+01  0.10201684079E+01 0.  0.
     999903    2    3    3    0    0 -0.69532133979E-01 -0.53678123412E-01  0.94114189635E-01  0.13064522128E+00  0.22240381376E-01 0.  0.
         14    1    1    2    0    0 -0.17123736608E-01  0.15887775569E-01 -0.24881880162E-02  0.23491165308E-01  0.00000000000E+00 0. -1.
     999901    1    3    3    0    0  0.86655870587E-01  0.37790347843E-01 -0.91626001619E-01  0.88979361341E+00  0.88000000000E+00 0.  1.
        -11    1    4    4    0    0 -0.13708841703E-01 -0.46865346729E-02  0.67969163014E-02  0.16011094288E-01  0.51100000000E-03 0. -1.
         11    1    4    4    0    0 -0.55823292276E-01 -0.48991588739E-01  0.87317273334E-01  0.11463412699E+00  0.51100000000E-03 0.  1.
</event>
<event>
 8    1  0.1106905E+005  0.1043930E+01  0.7957747E-01            NaN
         13   -1    0    0    0    0  0.00000000000E+00  0.00000000000E+00  0.74505805969E-08  0.10566000000E+00  0.10566000000E+00 0. -1.
     999900   -1    0    0    0    0 -0.00000000000E+00 -0.00000000000E+00 -0.74505805969E-08  0.93827000000E+00  0.93827000000E+00 0.  1.
     999902    2    1    2    0    0 -0.15152350302E-01  0.90294490412E-02  0.11027663885E-01  0.10231277395E+01  0.10229162416E+01 0.  0.
     999903    2    3    3    0    0 -0.10955547789E+00 -0.92860054755E-02 -0.73627832554E-01  0.13385052772E+00  0.20156225152E-01 0.  0.
         14    1    1    2    0    0  0.15152350302E-01 -0.90294490412E-02 -0.11027663885E-01  0.20802260464E-01  0.00000000000E+00 0.  1.
     999901    1    3    3    0    0  0.94403127585E-01  0.18315454517E-01  0.84655496439E-01  0.88927721181E+00  0.88000000000E+00 0. -1.
        -11    1    4    4    0    0 -0.46674769566E-01 -0.44598975523E-02 -0.19662853858E-01  0.50845980599E-01  0.51100000000E-03 0. -1.
         11    1    4    4    0    0 -0.62880708322E-01 -0.48261079231E-02 -0.53964978696E-01  0.83004547124E-01  0.51100000000E-03 0.  1.
</event>
<event>
 8    1  0.1106905E+005  0.1043930E+01  0.7957747E-01            NaN
         13   -1    0    0    0    0  0.00000000000E+00  0.00000000000E+00  0.74505805969E-08  0.10566000000E+00  0.10566000000E+00 0. -1.
     999900   -1    0    0    0    0 -0.00000000000E+00 -0.00000000000E+00 -0.74505805969E-08  0.93827000000E+00  0.93827000000E+00 0. -1.
     999902    2    1    2    0    0 -0.15649102382E-01 -0.11825943653E-01 -0.12083969476E-01  0.10208915611E+01  0.10206315740E+01 0.  0.
     999903    2    3    3    0    0 -0.18940370924E-01  0.93132045082E-01 -0.88469113397E-01  0.13136263967E+00  0.19925953027E-01 0.  0.
         14    1    1    2    0    0  0.15649102382E-01  0.11825943653E-01  0.12083969476E-01  0.23038438900E-01  0.00000000000E+00 0. -1.
     999901    1    3    3    0    0  0.32912685423E-02 -0.10495798874E+00  0.76385143921E-01  0.88952892143E+00  0.88000000000E+00 0.  1.
        -11    1    4    4    0    0 -0.59169116856E-02  0.24235072359E-01 -0.35928169662E-01  0.43742920255E-01  0.51100000000E-03 0.  1.
         11    1    4    4    0    0 -0.13023459238E-01  0.68896972723E-01 -0.52540943735E-01  0.87619719416E-01  0.51100000000E-03 0. -1.
</event>
<event>
 8    1  0.1106905E+005  0.1043930E+01  0.7957747E-01            NaN
         13   -1    0    0    0    0  0.00000000000E+00  0.00000000000E+00  0.74505805969E-08  0.10566000000E+00  0.10566000000E+00 0. -1.
     999900   -1    0    0    0    0 -0.00000000000E+00 -0.00000000000E+00 -0.74505805969E-08  0.93827000000E+00  0.93827000000E+00 0.  1.
     999902    2    1    2    0    0 -0.17529017974E-01 -0.97028071729E-02 -0.11822966387E-01  0.10206664347E+01  0.10204012825E+01 0.  0.
     999903    2    3    3    0    0 -0.13520849178E-01  0.53343338128E-01  0.11531110009E+00  0.12928887565E+00  0.19764576313E-01 0.  0.
         14    1    1    2    0    0  0.17529017974E-01  0.97028071729E-02  0.11822966387E-01  0.23263565340E-01  0.00000000000E+00 0. -1.
     999901    1    3    3    0    0 -0.40081687956E-02 -0.63046145301E-01 -0.12713406648E+00  0.89137755901E+00  0.88000000000E+00 0.  1.
        -11    1    4    4    0    0 -0.12311010813E-01  0.31695723867E-01  0.49978689822E-01  0.60450892930E-01  0.51100000000E-03 0. -1.
         11    1    4    4    0    0 -0.12098383647E-02  0.21647614261E-01  0.65332410268E-01  0.68837982717E-01  0.51100000000E-03 0.  1.
</event>
<event>
 8    1  0.1106905E+005  0.1043930E+01  0.7957747E-01            NaN
         13   -1    0    0    0    0  0.00000000000E+00  0.00000000000E+00  0.74505805969E-08  0.10566000000E+00  0.10566000000E+00 0.  1.
     999900   -1    0    0    0    0 -0.00000000000E+00 -0.00000000000E+00 -0.74505805969E-08  0.93827000000E+00  0.93827000000E+00 0. -1.
     999902    2    1    2    0    0  0.24268160705E-02  0.24162504543E-01 -0.31366707759E-03  0.10196439042E+01  0.10193546375E+01 0.  0.
     999903    2    3    3    0    0  0.65067449445E-01 -0.28045671588E-01  0.10640097159E+00  0.12945428580E+00  0.20418439818E-01 0.  0.
         14    1    1    2    0    0 -0.24268160705E-02 -0.24162504543E-01  0.31366707759E-03  0.24286095798E-01  0.00000000000E+00 0.  1.
     999901    1    3    3    0    0 -0.62640633374E-01  0.52208176132E-01 -0.10671463867E+00  0.89018961840E+00  0.88000000000E+00 0. -1.
        -11    1    4    4    0    0  0.42542935400E-02 -0.24857333261E-02  0.20808609085E-01  0.21390119606E-01  0.51100000000E-03 0.  1.
         11    1    4    4    0    0  0.60813155905E-01 -0.25559938262E-01  0.85592362505E-01  0.10806416619E+00  0.51100000000E-03 0. -1.
</event>
<event>
 8    1  0.1106905E+005  0.1043930E+01  0.7957747E-01            NaN
         13   -1    0    0    0    0  0.00000000000E+00  0.00000000000E+00  0.74505805969E-08  0.10566000000E+00  0.10566000000E+00 0. -1.
     999900   -1    0    0    0    0 -0.00000000000E+00 -0.00000000000E+00 -0.74505805969E-08  0.93827000000E+00  0.93827000000E+00 0.  1.
     999902    2    1    2    0    0 -0.16720118427E-01 -0.80301940820E-02 -0.14427428376E-01  0.10204311263E+01  0.10201605199E+01 0.  0.
     999903    2    3    3    0    0 -0.38888629028E-02 -0.45752133310E-01  0.11930313485E+00  0.12943648579E+00  0.20302337607E-01 0.  0.
         14    1    1    2    0    0  0.16720118427E-01  0.80301940820E-02  0.14427428376E-01  0.23498873734E-01  0.00000000000E+00 0.  1.
     999901    1    3    3    0    0 -0.12831255525E-01  0.37721939228E-01 -0.13373056322E+00  0.89099464048E+00  0.88000000000E+00 0.  1.
        -11    1    4    4    0    0  0.47147299162E-02 -0.32150362863E-01  0.63168878897E-01  0.71038319888E-01  0.51100000000E-03 0. -1.
         11    1    4    4    0    0 -0.86035928189E-02 -0.13601770447E-01  0.56134255950E-01  0.58398165902E-01  0.51100000000E-03 0.  1.
</event>
<event>
 8    1  0.1106905E+005  0.1043930E+01  0.7957747E-01            NaN
         13   -1    0    0    0    0  0.00000000000E+00  0.00000000000E+00  0.74505805969E-08  0.10566000000E+00  0.10566000000E+00 0. -1.
     999900   -1    0    0    0    0 -0.00000000000E+00 -0.00000000000E+00 -0.74505805969E-08  0.93827000000E+00  0.93827000000E+00 0. -1.
     999902    2    1    2    0    0  0.14175178614E-01 -0.99503025957E-02 -0.16412824243E-01  0.10200694675E+01  0.10197903675E+01 0.  0.
     999903    2    3    3    0    0 -0.67223521876E-01  0.91488496815E-01 -0.59017295190E-01  0.12949059992E+00  0.19890384469E-01 0.  0.
         14    1    1    2    0    0 -0.14175178614E-01  0.99503025957E-02  0.16412824243E-01  0.23860532478E-01  0.00000000000E+00 0.  1.
     999901    1    3    3    0    0  0.81398700490E-01 -0.10143879941E+00  0.42604470947E-01  0.89057886760E+00  0.88000000000E+00 0.  1.
        -11    1    4    4    0    0 -0.43561396559E-01  0.62719758590E-01 -0.49621110282E-01  0.91070736762E-01  0.51100000000E-03 0.  1.
         11    1    4    4    0    0 -0.23662125317E-01  0.28768738225E-01 -0.93961849078E-02  0.38419863162E-01  0.51100000000E-03 0. -1.
</event>
<event>
 8    1  0.1106905E+005  0.1043930E+01  0.7957747E-01            NaN
         13   -1    0    0    0    0  0.00000000000E+00  0.00000000000E+00  0.74505805969E-08  0.10566000000E+00  0.10566000000E+00 0.  1.
     999900   -1    0    0    0    0 -0.00000000000E+00 -0.00000000000E+00 -0.74505805969E-08  0.93827000000E+00  0.93827000000E+00 0. -1.
     999902    2    1    2    0    0 -0.15844469799E-01 -0.16018952152E-01  0.53174223430E-02  0.10207798589E+01  0.10205173156E+01 0.  0.
     999903    2    3    3    0    0 -0.92983327236E-01 -0.50591407042E-01 -0.77606054152E-01  0.13284857729E+00  0.20509881420E-01 0.  0.
         14    1    1    2    0    0  0.15844469799E-01  0.16018952152E-01 -0.53174223430E-02  0.23150141071E-01  0.00000000000E+00 0. -1.
     999901    1    3    3    0    0  0.77138857437E-01  0.34572454890E-01  0.82923476495E-01  0.88793128164E+00  0.88000000000E+00 0.  1.
        -11    1    4    4    0    0 -0.57552358527E-01 -0.19835396672E-01 -0.45291267983E-01  0.75876722449E-01  0.51100000000E-03 0.  1.
         11    1    4    4    0    0 -0.35430968709E-01 -0.30756010369E-01 -0.32314786169E-01  0.56971854838E-01  0.51100000000E-03 0. -1.
</event>
<event>
 8    1  0.1106905E+005  0.1043930E+01  0.7957747E-01            NaN
         13   -1    0    0    0    0  0.00000000000E+00  0.00000000000E+00  0.74505805969E-08  0.10566000000E+00  0.10566000000E+00 0.  1.
     999900   -1    0    0    0    0 -0.00000000000E+00 -0.00000000000E+00 -0.74505805969E-08  0.93827000000E+00  0.93827000000E+00 0. -1.
     999902    2    1    2    0    0 -0.64643542160E-02 -0.53723120896E-02  0.22836521395E-01  0.10195957377E+01  0.10193053085E+01 0.  0.
     999903    2    3    3    0    0 -0.11968368553E+00 -0.49047073158E-01  0.15843064105E-01  0.13124051022E+00  0.15597079002E-01 0.  0.
         14    1    1    2    0    0  0.64643542160E-02  0.53723120896E-02 -0.22836521395E-01  0.24334262308E-01  0.00000000000E+00 0. -1.
     999901    1    3    3    0    0  0.11321933132E+00  0.43674761068E-01  0.69934572903E-02  0.88835522748E+00  0.88000000000E+00 0.  1.
        -11    1    4    4    0    0 -0.71944520409E-01 -0.36887714236E-01  0.13024639158E-01  0.81893954750E-01  0.51100000000E-03 0.  1.
         11    1    4    4    0    0 -0.47739165125E-01 -0.12159358921E-01  0.28184249466E-02  0.49346555466E-01  0.51100000000E-03 0. -1.
</event>
<event>
 8    1  0.1106905E+005  0.1043930E+01  0.7957747E-01            NaN
         13   -1    0    0    0    0  0.00000000000E+00  0.00000000000E+00  0.74505805969E-08  0.10566000000E+00  0.10566000000E+00 0. -1.
     999900   -1    0    0    0    0 -0.00000000000E+00 -0.00000000000E+00 -0.74505805969E-08  0.93827000000E+00  0.93827000000E+00 0.  1.
     999902    2    1    2    0    0  0.21757928797E-01 -0.47929482513E-02 -0.74921725563E-03  0.10216378232E+01  0.10213945862E+01 0.  0.
     999903    2    3    3    0    0  0.17017279188E-02 -0.12725132893E+00  0.30322277197E-01  0.13238884575E+00  0.20287173104E-01 0.  0.
         14    1    1    2    0    0 -0.21757928797E-01  0.47929482513E-02  0.74921725563E-03  0.22292176766E-01  0.00000000000E+00 0. -1.
     999901    1    3    3    0    0  0.20056200878E-01  0.12245838068E+00 -0.31071494452E-01  0.88924897749E+00  0.88000000000E+00 0.  1.
        -11    1    4    4    0    0 -0.67269743085E-02 -0.99399938898E-01  0.20889668830E-01  0.10179508545E+00  0.51100000000E-03 0. -1.
         11    1    4    4    0    0  0.84287022273E-02 -0.27851390029E-01  0.94326083666E-02  0.30593760302E-01  0.51100000000E-03 0.  1.
</event>
<event>
 8    1  0.1106905E+005  0.1043930E+01  0.7957747E-01            NaN
         13   -1    0    0    0    0  0.00000000000E+00  0.00000000000E+00  0.74505805969E-08  0.10566000000E+00  0.10566000000E+00 0. -1.
     999900   -1    0    0    0    0 -0.00000000000E+00 -0.00000000000E+00 -0.74505805969E-08  0.93827000000E+00  0.93827000000E+00 0.  1.
     999902    2    1    2    0    0  0.13616452655E-01 -0.19083199661E-01  0.56842922951E-02  0.10198076562E+01  0.10195223235E+01 0.  0.
     999903    2    3    3    0    0 -0.14773736438E-01 -0.84244084588E-01  0.98136552071E-01  0.13211437351E+00  0.22540979578E-01 0.  0.
         14    1    1    2    0    0 -0.13616452655E-01  0.19083199661E-01 -0.56842922951E-02  0.24122343815E-01  0.00000000000E+00 0. -1.
     999901    1    3    3    0    0  0.28390189093E-01  0.65160884927E-01 -0.92452259776E-01  0.88769328267E+00  0.88000000000E+00 0. -1.
        -11    1    4    4    0    0 -0.11685493529E-01 -0.78346054588E-01  0.79118786282E-01  0.11195846771E+00  0.51100000000E-03 0.  1.
         11    1    4    4    0    0 -0.30882429087E-02 -0.58980300006E-02  0.19017765789E-01  0.20155905804E-01  0.51100000000E-03 0. -1.
</event>
<event>
 8    1  0.1106905E+005  0.1043930E+01  0.7957747E-01            NaN
         13   -1    0    0    0    0  0.00000000000E+00  0.00000000000E+00  0.74505805969E-08  0.10566000000E+00  0.10566000000E+00 0. -1.
     999900   -1    0    0    0    0 -0.00000000000E+00 -0.00000000000E+00 -0.74505805969E-08  0.93827000000E+00  0.93827000000E+00 0. -1.
     999902    2    1    2    0    0  0.46397335442E-02  0.23342056712E-01 -0.19838858958E-02  0.10200487408E+01  0.10197691499E+01 0.  0.
     999903    2    3    3    0    0 -0.55714248819E-01 -0.97300667319E-01 -0.58443096039E-01  0.12798096731E+00  0.19799877177E-01 0.  0.
         14    1    1    2    0    0 -0.46397335442E-02 -0.23342056712E-01  0.19838858958E-02  0.23881259225E-01  0.00000000000E+00 0. -1.
     999901    1    3    3    0    0  0.60353982363E-01  0.12064272403E+00  0.56459210143E-01  0.89206777347E+00  0.88000000000E+00 0.  1.
        -11    1    4    4    0    0 -0.48645756767E-01 -0.67413253517E-01 -0.42016362170E-01  0.93148227101E-01  0.51100000000E-03 0. -1.
         11    1    4    4    0    0 -0.70684920519E-02 -0.29887413803E-01 -0.16426733869E-01  0.34832740207E-01  0.51100000000E-03 0.  1.
</event>
<event>
 8    1  0.1106905E+005  0.1043930E+01  0.7957747E-01            NaN
         13   -1    0    0    0    0  0.00000000000E+00  0.00000000000E+00  0.74505805969E-08  0.10566000000E+00  0.10566000000E+00 0. -1.
     999900   -1    0    0    0    0 -0.00000000000E+00 -0.00000000000E+00 -0.74505805969E-08  0.93827000000E+00  0.93827000000E+00 0. -1.
     999902    2    1    2    0    0 -0.14752731450E-01  0.19352780436E-01 -0.14805361103E-01  0.10154454092E+01  0.10150458153E+01 0.  0.
     999903    2    3    3    0    0 -0.28329286448E-01  0.10111201817E+00 -0.73090421801E-01  0.12963163413E+00  0.20879705921E-01 0.  0.
         14    1    1    2    0    0  0.14752731450E-01 -0.19352780436E-01  0.14805361103E-01  0.28484590803E-01  0.00000000000E+00 0. -1.
     999901    1    3    3    0    0  0.13576554998E-01 -0.81759237731E-01  0.58285060698E-01  0.88581377507E+00  0.88000000000E+00 0.  1.
        -11    1    4    4    0    0 -0.23577584230E-01  0.63261332963E-01 -0.36404405986E-01  0.76703589372E-01  0.51100000000E-03 0. -1.
         11    1    4    4    0    0 -0.47517022176E-02  0.37850685205E-01 -0.36686015815E-01  0.52928044757E-01  0.51100000000E-03 0.  1.
</event>
<event>
 8    1  0.1106905E+005  0.1043930E+01  0.7957747E-01            NaN
         13   -1    0    0    0    0  0.00000000000E+00  0.00000000000E+00  0.74505805969E-08  0.10566000000E+00  0.10566000000E+00 0. -1.
     999900   -1    0    0    0    0 -0.00000000000E+00 -0.00000000000E+00 -0.74505805969E-08  0.93827000000E+00  0.93827000000E+00 0.  1.
     999902    2    1    2    0    0 -0.19174496288E-01 -0.65762545996E-02  0.16124638126E-01  0.10180280235E+01  0.10176984545E+01 0.  0.
     999903    2    3    3    0    0 -0.82502973047E-02  0.25756597787E-01  0.12610916065E+00  0.13052515214E+00  0.20045578217E-01 0.  0.
         14    1    1    2    0    0  0.19174496288E-01  0.65762545996E-02 -0.16124638126E-01  0.25901976510E-01  0.00000000000E+00 0.  1.
     999901    1    3    3    0    0 -0.10924198983E-01 -0.32332852386E-01 -0.10998452252E+00  0.88750287135E+00  0.88000000000E+00 0.  1.
        -11    1    4    4    0    0  0.12019513153E-02  0.16163563248E-01  0.36931637086E-01  0.40335002202E-01  0.51100000000E-03 0. -1.
         11    1    4    4    0    0 -0.94522486200E-02  0.95930345386E-02  0.89177523561E-01  0.90190149934E-01  0.51100000000E-03 0.  1.
</event>
<event>
 8    1  0.1106905E+005  0.1043930E+01  0.7957747E-01            NaN
         13   -1    0    0    0    0  0.00000000000E+00  0.00000000000E+00  0.74505805969E-08  0.10566000000E+00  0.10566000000E+00 0. -1.
     999900   -1    0    0    0    0 -0.00000000000E+00 -0.00000000000E+00 -0.74505805969E-08  0.93827000000E+00  0.93827000000E+00 0. -1.
     999902    2    1    2    0    0  0.15373783881E-01  0.11643636345E-01 -0.14050035807E-01  0.10200693419E+01  0.10197902389E+01 0.  0.
     999903    2    3    3    0    0 -0.11715480702E+00  0.54743607378E-02 -0.50073947759E-01  0.12939565891E+00  0.21923021349E-01 0.  0.
         14    1    1    2    0    0 -0.15373783881E-01 -0.11643636345E-01  0.14050035807E-01  0.23860658087E-01  0.00000000000E+00 0. -1.
     999901    1    3    3    0    0  0.13252859091E+00  0.61692756068E-02  0.36023911952E-01  0.89067368301E+00  0.88000000000E+00 0. -1.
        -11    1    4    4    0    0 -0.74631514428E-01  0.25445473525E-02 -0.20257407743E-01  0.77375457068E-01  0.51100000000E-03 0. -1.
         11    1    4    4    0    0 -0.42523292597E-01  0.29298133853E-02 -0.29816540016E-01  0.52020201838E-01  0.51100000000E-03 0.  1.
</event>
<event>
 8    1  0.1106905E+005  0.1043930E+01  0.7957747E-01            NaN
         13   -1    0    0    0    0  0.00000000000E+00  0.00000000000E+00  0.74505805969E-08  0.10566000000E+00  0.10566000000E+00 0. -1.
     999900   -1    0    0    0    0 -0.00000000000E+00 -0.00000000000E+00 -0.74505805969E-08  0.93827000000E+00  0.93827000000E+00 0.  1.
     999902    2    1    2    0    0  0.22418410485E-01 -0.50590833320E-02 -0.65113738730E-02  0.10200432371E+01  0.10197635158E+01 0.  0.
     999903    2    3    3    0    0  0.31837529711E-03  0.54517120073E-01  0.11562835159E+00  0.12933798387E+00  0.19651479223E-01 0.  0.
         14    1    1    2    0    0 -0.22418410485E-01  0.50590833320E-02  0.65113738730E-02  0.23886762915E-01  0.00000000000E+00 0.  1.
     999901    1    3    3    0    0  0.22100035188E-01 -0.59576203405E-01 -0.12213972547E+00  0.89070525321E+00  0.88000000000E+00 0.  1.
        -11    1    4    4    0    0 -0.86281685437E-02  0.16635901671E-01  0.31851223244E-01  0.36958896899E-01  0.51100000000E-03 0. -1.
         11    1    4    4    0    0  0.89465438408E-02  0.37881218401E-01  0.83777128349E-01  0.92379086971E-01  0.51100000000E-03 0.  1.
</event>
<event>
 8    1  0.1106905E+005  0.1043930E+01  0.7957747E-01            NaN
         13   -1    0    0    0    0  0.00000000000E+00  0.00000000000E+00  0.74505805969E-08  0.10566000000E+00  0.10566000000E+00 0. -1.
     999900   -1    0    0    0    0 -0.00000000000E+00 -0.00000000000E+00 -0.74505805969E-08  0.93827000000E+00  0.93827000000E+00 0. -1.
     999902    2    1    2    0    0  0.66854512968E-03  0.24192624910E-01  0.54085632226E-02  0.10191311571E+01  0.10188293934E+01 0.  0.
     999903    2    3    3    0    0 -0.10387142707E+00 -0.70774025205E-01  0.13064129991E-01  0.12783666138E+00  0.19321089344E-01 0.  0.
         14    1    1    2    0    0 -0.66854512968E-03 -0.24192624910E-01 -0.54085632226E-02  0.24798842892E-01  0.00000000000E+00 0.  1.
     999901    1    3    3    0    0  0.10453997220E+00  0.94966650115E-01 -0.76555667684E-02  0.89129449573E+00  0.88000000000E+00 0.  1.
        -11    1    4    4    0    0 -0.40083916276E-01 -0.25348888163E-01 -0.43004146822E-02  0.47623955764E-01  0.51100000000E-03 0.  1.
         11    1    4    4    0    0 -0.63787510796E-01 -0.45425137042E-01  0.17364544673E-01  0.80212705611E-01  0.51100000000E-03 0. -1.
</event>
<event>
 8    1  0.1106905E+005  0.1043930E+01  0.7957747E-01            NaN
         13   -1    0    0    0    0  0.00000000000E+00  0.00000000000E+00  0.74505805969E-08  0.10566000000E+00  0.10566000000E+00 0.  1.
     999900   -1    0    0    0    0 -0.00000000000E+00 -0.00000000000E+00 -0.74505805969E-08  0.93827000000E+00  0.93827000000E+00 0. -1.
     999902    2    1    2    0    0  0.27210148131E-02 -0.23266295112E-01  0.28781424813E-02  0.10203289807E+01  0.10200559890E+01 0.  0.
     999903    2    3    3    0    0  0.15492807097E-02 -0.22022449427E-01  0.12809017413E+00  0.13146398923E+00  0.19705309065E-01 0.  0.
         14    1    1    2    0    0 -0.27210148131E-02  0.23266295112E-01 -0.28781424813E-02  0.23601019342E-01  0.00000000000E+00 0.  1.
     999901    1    3    3    0    0  0.11717341034E-02 -0.12438456847E-02 -0.12521203165E+00  0.88886499143E+00  0.88000000000E+00 0. -1.
        -11    1    4    4    0    0  0.85248659097E-02 -0.20436642529E-01  0.10381746046E+00  0.10615392557E+00  0.51100000000E-03 0. -1.
         11    1    4    4    0    0 -0.69755852000E-02 -0.15858068976E-02  0.24272713677E-01  0.25310063663E-01  0.51100000000E-03 0.  1.
</event>
<event>
 8    1  0.1106905E+005  0.1043930E+01  0.7957747E-01            NaN
         13   -1    0    0    0    0  0.00000000000E+00  0.00000000000E+00  0.74505805969E-08  0.10566000000E+00  0.10566000000E+00 0.  1.
     999900   -1    0    0    0    0 -0.00000000000E+00 -0.00000000000E+00 -0.74505805969E-08  0.93827000000E+00  0.93827000000E+00 0. -1.
     999902    2    1    2    0    0  0.23560521205E-01 -0.89601599728E-02 -0.19312582044E-02  0.10186493278E+01  0.10183355737E+01 0.  0.
     999903    2    3    3    0    0  0.12852798951E+00  0.21718008651E-02 -0.22694398476E-01  0.13209803325E+00  0.20265583165E-01 0.  0.
         14    1    1    2    0    0 -0.23560521205E-01  0.89601599728E-02  0.19312582044E-02  0.25280672152E-01  0.00000000000E+00 0. -1.
     999901    1    3    3    0    0 -0.10496746830E+00 -0.11131960838E-01  0.20763140272E-01  0.88655129460E+00  0.88000000000E+00 0.  1.
        -11    1    4    4    0    0  0.56992428908E-01 -0.79477948579E-02 -0.53402659261E-02  0.57793459466E-01  0.51100000000E-03 0.  1.
         11    1    4    4    0    0  0.71535560601E-01  0.10119595723E-01 -0.17354132550E-01  0.74304573787E-01  0.51100000000E-03 0. -1.
</event>
<event>
 8    1  0.1106905E+005  0.1043930E+01  0.7957747E-01            NaN
         13   -1    0    0    0    0  0.00000000000E+00  0.00000000000E+00  0.74505805969E-08  0.10566000000E+00  0.10566000000E+00 0. -1.
     999900   -1    0    0    0    0 -0.00000000000E+00 -0.00000000000E+00 -0.74505805969E-08  0.93827000000E+00  0.93827000000E+00 0.  1.
     999902    2    1    2    0    0 -0.45867944558E-03  0.20149923653E-01 -0.12798227684E-01  0.10200548154E+01  0.10197753683E+01 0.  0.
     999903    2    3    3    0    0  0.98302137566E-01 -0.79611724198E-01 -0.16663196425E-02  0.12885898685E+00  0.24505611440E-01 0.  0.
         14    1    1    2    0    0  0.45867944558E-03 -0.20149923653E-01  0.12798227684E-01  0.23875184647E-01  0.00000000000E+00 0. -1.
     999901    1    3    3    0    0 -0.98760817011E-01  0.99761647851E-01 -0.11131908042E-01  0.89119582850E+00  0.88000000000E+00 0. -1.
        -11    1    4    4    0    0  0.64196726594E-01 -0.37759395126E-01 -0.58280406942E-02  0.74707555207E-01  0.51100000000E-03 0.  1.
         11    1    4    4    0    0  0.34105410972E-01 -0.41852329072E-01  0.41617210517E-02  0.54151431647E-01  0.51100000000E-03 0. -1.
</event>
<event>
 8    1  0.1106905E+005  0.1043930E+01  0.7957747E-01            NaN
         13   -1    0    0    0    0  0.00000000000E+00  0.00000000000E+00  0.74505805969E-08  0.10566000000E+00  0.10566000000E+00 0.  1.
     999900   -1    0    0    0    0 -0.00000000000E+00 -0.00000000000E+00 -0.74505805969E-08  0.93827000000E+00  0.93827000000E+00 0.  1.
     999902    2    1    2    0    0 -0.22267425706E-01  0.66088732581E-02  0.92078472637E-02  0.10189440058E+01  0.10186376132E+01 0.  0.
     999903    2    3    3    0    0  0.12101463386E+00  0.20768694326E-02  0.32941441707E-01  0.12702833092E+00  0.20055006318E-01 0.  0.
         14    1    1    2    0    0  0.22267425706E-01 -0.66088732581E-02 -0.92078472637E-02  0.24985994168E-01  0.00000000000E+00 0. -1.
     999901    1    3    3    0    0 -0.14328205957E+00  0.45320038256E-02 -0.23733594443E-01  0.89191567491E+00  0.88000000000E+00 0.  1.
        -11    1    4    4    0    0  0.76193716193E-01  0.24759281521E-02  0.10682664406E-01  0.76980471858E-01  0.51100000000E-03 0.  1.
         11    1    4    4    0    0  0.44820917669E-01 -0.39905871957E-03  0.22258777301E-01  0.50047859060E-01  0.51100000000E-03 0. -1.
</event>
<event>
 8    1  0.1106905E+005  0.1043930E+01  0.7957747E-01            NaN
         13   -1    0    0    0    0  0.00000000000E+00  0.00000000000E+00  0.74505805969E-08  0.10566000000E+00  0.10566000000E+00 0. -1.
     999900   -1    0    0    0    0 -0.00000000000E+00 -0.00000000000E+00 -0.74505805969E-08  0.93827000000E+00  0.93827000000E+00 0.  1.
     999902    2    1    2    0    0  0.20260032220E-01  0.11463338608E-01 -0.64478689576E-02  0.10197752478E+01  0.10194891388E+01 0.  0.
     999903    2    3    3    0    0 -0.16831219505E-01  0.10157973756E+00 -0.79239764730E-01  0.13140855193E+00  0.19685887701E-01 0.  0.
         14    1    1    2    0    0 -0.20260032220E-01 -0.11463338608E-01  0.64478689576E-02  0.24154752155E-01  0.00000000000E+00 0. -1.
     999901    1    3    3    0    0  0.37091251725E-01 -0.90116398949E-01  0.72791895773E-01  0.88836669591E+00  0.88000000000E+00 0. -1.
        -11    1    4    4    0    0 -0.19207022557E-02  0.45787402794E-02 -0.10384459292E-01  0.11521808690E-01  0.51100000000E-03 0.  1.
         11    1    4    4    0    0 -0.14910517250E-01  0.97000997278E-01 -0.68855305438E-01  0.11988674324E+00  0.51100000000E-03 0. -1.
</event>
<event>
 8    1  0.1106905E+005  0.1043930E+01  0.7957747E-01            NaN
         13   -1    0    0    0    0  0.00000000000E+00  0.00000000000E+00  0.74505805969E-08  0.10566000000E+00  0.10566000000E+00 0. -1.
     999900   -1    0    0    0    0 -0.00000000000E+00 -0.00000000000E+00 -0.74505805969E-08  0.93827000000E+00  0.93827000000E+00 0.  1.
     999902    2    1    2    0    0  0.86299204860E-02  0.30147474290E-02 -0.21452996388E-01  0.10206105814E+01  0.10203441398E+01 0.  0.
     999903    2    3    3    0    0  0.11489641458E+00 -0.47408429345E-01 -0.41622768203E-01  0.13255546813E+00  0.19742138699E-01 0.  0.
         14    1    1    2    0    0 -0.86299204860E-02 -0.30147474290E-02  0.21452996388E-01  0.23319418597E-01  0.00000000000E+00 0. -1.
     999901    1    3    3    0    0 -0.10626649410E+00  0.50423176774E-01  0.20169771815E-01  0.88805511328E+00  0.88000000000E+00 0. -1.
        -11    1    4    4    0    0  0.78256986439E-01 -0.33095500901E-01 -0.37906983903E-01  0.93041220198E-01  0.51100000000E-03 0.  1.
         11    1    4    4    0    0  0.36639428143E-01 -0.14312928444E-01 -0.37157842998E-02  0.39514247927E-01  0.51100000000E-03 0. -1.
</event>
<event>
 8    1  0.1106905E+005  0.1043930E+01  0.7957747E-01            NaN
         13   -1    0    0    0    0  0.00000000000E+00  0.00000000000E+00  0.74505805969E-08  0.10566000000E+00  0.10566000000E+00 0.  1.
     999900   -1    0    0    0    0 -0.00000000000E+00 -0.00000000000E+00 -0.74505805969E-08  0.93827000000E+00  0.93827000000E+00 0. -1.
     999902    2    1    2    0    0 -0.14539633534E-01  0.20525829266E-01  0.10187937214E-02  0.10187556370E+01  0.10184445490E+01 0.  0.
     999903    2    3    3    0    0 -0.12524686763E+00 -0.50340640171E-02  0.31716764318E-01  0.13092019888E+00  0.20543263774E-01 0.  0.
         14    1    1    2    0    0  0.14539633534E-01 -0.20525829266E-01 -0.10187937214E-02  0.25174362971E-01  0.00000000000E+00 0.  1.
     999901    1    3    3    0    0  0.11070723409E+00  0.25559893283E-01 -0.30697970597E-01  0.88783543814E+00  0.88000000000E+00 0.  1.
        -11    1    4    4    0    0 -0.50138710357E-01  0.19107618459E-02  0.22280628034E-01  0.54901992620E-01  0.51100000000E-03 0. -1.
         11    1    4    4    0    0 -0.75108157270E-01 -0.69448258630E-02  0.94361362835E-02  0.76018206265E-01  0.51100000000E-03 0.  1.
</event>
<event>
 8    1  0.1106905E+005  0.1043930E+01  0.7957747E-01            NaN
         13   -1    0    0    0    0  0.00000000000E+00  0.00000000000E+00  0.74505805969E-08  0.10566000000E+00  0.10566000000E+00 0. -1.
     999900   -1    0    0    0    0 -0.00000000000E+00 -0.00000000000E+00 -0.74505805969E-08  0.93827000000E+00  0.93827000000E+00 0. -1.
     999902    2    1    2    0    0  0.17751655010E-01 -0.51104438101E-02 -0.15437064875E-01  0.10198563450E+01  0.10195721768E+01 0.  0.
     999903    2    3    3    0    0 -0.11747539941E+00 -0.48879026611E-01 -0.62400896434E-02  0.12840436683E+00  0.16097018166E-01 0.  0.
         14    1    1    2    0    0 -0.17751655010E-01  0.51104438101E-02  0.15437064875E-01  0.24073654967E-01  0.00000000000E+00 0. -1.
     999901    1    3    3    0    0  0.13522705442E+00  0.43768582801E-01 -0.91969752317E-02  0.89145197820E+00  0.88000000000E+00 0. -1.
        -11    1    4    4    0    0 -0.32778921718E-01 -0.20858524752E-01 -0.50573376176E-02  0.39183842953E-01  0.51100000000E-03 0. -1.
         11    1    4    4    0    0 -0.84696477690E-01 -0.28020501859E-01 -0.11827520258E-02  0.89220523877E-01  0.51100000000E-03 0.  1.
</event>
<event>
 8    1  0.1106905E+005  0.1043930E+01  0.7957747E-01            NaN
         13   -1    0    0    0    0  0.00000000000E+00  0.00000000000E+00  0.74505805969E-08  0.10566000000E+00  0.10566000000E+00 0. -1.
     999900   -1    0    0    0    0 -0.00000000000E+00 -0.00000000000E+00 -0.74505805969E-08  0.93827000000E+00  0.93827000000E+00 0.  1.
     999902    2    1    2    0    0  0.24418198970E-02 -0.21380938302E-01 -0.10854008057E-01  0.10198277906E+01  0.10195429397E+01 0.  0.
     999903    2    3    3    0    0  0.12279590156E+00 -0.38185970776E-01 -0.10344956946E-01  0.13147663637E+00  0.25339415408E-01 0.  0.
         14    1    1    2    0    0 -0.24418198970E-02  0.21380938302E-01  0.10854008057E-01  0.24102209400E-01  0.00000000000E+00 0. -1.
     999901    1    3    3    0    0 -0.12035408166E+00  0.16805032475E-01 -0.50905111069E-03  0.88835115423E+00  0.88000000000E+00 0.  1.
        -11    1    4    4    0    0  0.58097057924E-01 -0.20961988114E-01  0.74105879200E-02  0.62208126635E-01  0.51100000000E-03 0.  1.
         11    1    4    4    0    0  0.64698843634E-01 -0.17223982663E-01 -0.17755544866E-01  0.69268509735E-01  0.51100000000E-03 0. -1.
</event>
<event>
 8    1  0.1106905E+005  0.1043930E+01  0.7957747E-01            NaN
         13   -1    0    0    0    0  0.00000000000E+00  0.00000000000E+00  0.74505805969E-08  0.10566000000E+00  0.10566000000E+00 0. -1.
     999900   -1    0    0    0    0 -0.00000000000E+00 -0.00000000000E+00 -0.74505805969E-08  0.93827000000E+00  0.93827000000E+00 0.  1.
     999902    2    1    2    0    0  0.12933561112E-01 -0.60014791449E-02  0.17871169909E-01  0.10210679470E+01  0.10208119704E+01 0.  0.
     999903    2    3    3    0    0 -0.76943939160E-01 -0.41944449462E-01  0.97459359536E-01  0.13218992266E+00  0.17208784884E-01 0.  0.
         14    1    1    2    0    0 -0.12933561112E-01  0.60014791449E-02 -0.17871169909E-01  0.22862053033E-01  0.00000000000E+00 0.  1.
     999901    1    3    3    0    0  0.89877500272E-01  0.35942970317E-01 -0.79588189628E-01  0.88887802431E+00  0.88000000000E+00 0.  1.
        -11    1    4    4    0    0 -0.18638814032E-01 -0.39155197066E-02  0.27862751771E-01  0.33753973698E-01  0.51100000000E-03 0.  1.
         11    1    4    4    0    0 -0.58305125128E-01 -0.38028929756E-01  0.69596607765E-01  0.98435948961E-01  0.51100000000E-03 0. -1.
</event>
<event>
 8    1  0.1106905E+005  0.1043930E+01  0.7957747E-01            NaN
         13   -1    0    0    0    0  0.00000000000E+00  0.00000000000E+00  0.74505805969E-08  0.10566000000E+00  0.10566000000E+00 0.  1.
     999900   -1    0    0    0    0 -0.00000000000E+00 -0.00000000000E+00 -0.74505805969E-08  0.93827000000E+00  0.93827000000E+00 0. -1.
     999902    2    1    2    0    0  0.16676552185E-01  0.67839445205E-03 -0.16322482199E-01  0.10205849569E+01  0.10203179226E+01 0.  0.
     999903    2    3    3    0    0  0.10159138902E+00  0.16951023486E-01 -0.82360034788E-01  0.13388529732E+00  0.23107357871E-01 0.  0.
         14    1    1    2    0    0 -0.16676552185E-01 -0.67839445205E-03  0.16322482199E-01  0.23345043092E-01  0.00000000000E+00 0.  1.
     999901    1    3    3    0    0 -0.84914836830E-01 -0.16272629034E-01  0.66037552589E-01  0.88669965959E+00  0.88000000000E+00 0.  1.
        -11    1    4    4    0    0  0.85780993804E-01  0.63121796393E-02 -0.72101928649E-01  0.11223712285E+00  0.51100000000E-03 0.  1.
         11    1    4    4    0    0  0.15810395211E-01  0.10638843847E-01 -0.10258106139E-01  0.21648174466E-01  0.51100000000E-03 0. -1.
</event>
<event>
 8    1  0.1106905E+005  0.1043930E+01  0.7957747E-01            NaN
         13   -1    0    0    0    0  0.00000000000E+00  0.00000000000E+00  0.74505805969E-08  0.10566000000E+00  0.10566000000E+00 0. -1.
     999900   -1    0    0    0    0 -0.00000000000E+00 -0.00000000000E+00 -0.74505805969E-08  0.93827000000E+00  0.93827000000E+00 0.  1.
     999902    2    1    2    0    0  0.75988463256E-02 -0.97772007826E-03 -0.22268876393E-01  0.10203800264E+01  0.10201082281E+01 0.  0.
     999903    2    3    3    0    0  0.83596089845E-02  0.38094220073E-02  0.12597624084E+00  0.12796750390E+00  0.20524961387E-01 0.  0.
         14    1    1    2    0    0 -0.75988463256E-02  0.97772007826E-03  0.22268876393E-01  0.23549973627E-01  0.00000000000E+00 0. -1.
     999901    1    3    3    0    0 -0.76076265889E-03 -0.47871420855E-02 -0.14824511723E+00  0.89241252248E+00  0.88000000000E+00 0.  1.
        -11    1    4    4    0    0 -0.32099112986E-02 -0.57854110926E-02  0.56104501404E-01  0.56495581339E-01  0.51100000000E-03 0.  1.
         11    1    4    4    0    0  0.11569520283E-01  0.95948330999E-02  0.69871739433E-01  0.71471922558E-01  0.51100000000E-03 0. -1.
</event>
<event>
 8    1  0.1106905E+005  0.1043930E+01  0.7957747E-01            NaN
         13   -1    0    0    0    0  0.00000000000E+00  0.00000000000E+00  0.74505805969E-08  0.10566000000E+00  0.10566000000E+00 0. -1.
     999900   -1    0    0    0    0 -0.00000000000E+00 -0.00000000000E+00 -0.74505805969E-08  0.93827000000E+00  0.93827000000E+00 0.  1.
     999902    2    1    2    0    0 -0.11452810319E-02  0.97156412676E-02  0.21617258942E-01  0.10202021422E+01  0.10199261736E+01 0.  0.
     999903    2    3    3    0    0 -0.12347177063E+00  0.16213572940E-01 -0.31919248048E-01  0.13010543350E+00  0.20010680668E-01 0.  0.
         14    1    1    2    0    0  0.11452810319E-02 -0.97156412676E-02 -0.21617258942E-01  0.23727857848E-01  0.00000000000E+00 0.  1.
     999901    1    3    3    0    0  0.12232648960E+00 -0.64979316729E-02  0.53536506990E-01  0.89009670865E+00  0.88000000000E+00 0.  1.
        -11    1    4    4    0    0 -0.78098034577E-01  0.30879268283E-02 -0.26633076667E-01  0.82573725789E-01  0.51100000000E-03 0.  1.
         11    1    4    4    0    0 -0.45373736051E-01  0.13125646112E-01 -0.52861713807E-02  0.47531707711E-01  0.51100000000E-03 0. -1.
</event>
<event>
 8    1  0.1106905E+005  0.1043930E+01  0.7957747E-01            NaN
         13   -1    0    0    0    0  0.00000000000E+00  0.00000000000E+00  0.74505805969E-08  0.10566000000E+00  0.10566000000E+00 0.  1.
     999900   -1    0    0    0    0 -0.00000000000E+00 -0.00000000000E+00 -0.74505805969E-08  0.93827000000E+00  0.93827000000E+00 0.  1.
     999902    2    1    2    0    0 -0.13632834070E-01 -0.81430585369E-02  0.18768894467E-01  0.10193447409E+01  0.10190482156E+01 0.  0.
     999903    2    3    3    0    0 -0.78291671027E-01  0.84905278183E-01 -0.54181552056E-01  0.12908605610E+00  0.19725041940E-01 0.  0.
         14    1    1    2    0    0  0.13632834070E-01  0.81430585369E-02 -0.18768894467E-01  0.24585259133E-01  0.00000000000E+00 0. -1.
     999901    1    3    3    0    0  0.64658836957E-01 -0.93048336720E-01  0.72950446523E-01  0.89025868477E+00  0.88000000000E+00 0. -1.
        -11    1    4    4    0    0 -0.27846789741E-01  0.43768550419E-01 -0.27714822219E-01  0.58817533069E-01  0.51100000000E-03 0. -1.
         11    1    4    4    0    0 -0.50444881286E-01  0.41136727764E-01 -0.26466729837E-01  0.70268523027E-01  0.51100000000E-03 0.  1.
</event>
<event>
 8    1  0.1106905E+005  0.1043930E+01  0.7957747E-01            NaN
         13   -1    0    0    0    0  0.00000000000E+00  0.00000000000E+00  0.74505805969E-08  0.10566000000E+00  0.10566000000E+00 0.  1.
     999900   -1    0    0    0    0 -0.00000000000E+00 -0.00000000000E+00 -0.74505805969E-08  0.93827000000E+00  0.93827000000E+00 0. -1.
     999902    2    1    2    0    0  0.12810655152E-01  0.19806598743E-01 -0.17769986354E-02  0.10202747265E+01  0.10200004635E+01 0.  0.
     999903    2    3    3    0    0  0.49020644509E-01  0.65791158329E-01 -0.10204063263E+00  0.13264950192E+00  0.21262632700E-01 0.  0.
         14    1    1    2    0    0 -0.12810655152E-01 -0.19806598743E-01  0.17769986354E-02  0.23655273479E-01  0.00000000000E+00 0. -1.
     999901    1    3    3    0    0 -0.36209989357E-01 -0.45984559586E-01  0.10026363399E+00  0.88762522460E+00  0.88000000000E+00 0.  1.
        -11    1    4    4    0    0  0.48663556434E-01  0.55995589344E-01 -0.95162657561E-01  0.12066416314E+00  0.51100000000E-03 0. -1.
         11    1    4    4    0    0  0.35708807551E-03  0.97955689851E-02 -0.68779750695E-02  0.11985338781E-01  0.51100000000E-03 0.  1.
</event>
<event>
 8    1  0.1106905E+005  0.1043930E+01  0.7957747E-01            NaN
         13   -1    0    0    0    0  0.00000000000E+00  0.00000000000E+00  0.74505805969E-08  0.10566000000E+00  0.10566000000E+00 0. -1.
     999900   -1    0    0    0    0 -0.00000000000E+00 -0.00000000000E+00 -0.74505805969E-08  0.93827000000E+00  0.93827000000E+00 0. -1.
     999902    2    1    2    0    0 -0.10077246948E-01 -0.31132605265E-02  0.20690863839E-01  0.10207059792E+01  0.10204417381E+01 0.  0.
     999903    2    3    3    0    0  0.84808830419E-01  0.89076892414E-01 -0.33138369473E-01  0.12919042780E+00  0.21558864168E-01 0.  0.
         14    1    1    2    0    0  0.10077246948E-01  0.31132605265E-02 -0.20690863839E-01  0.23224020831E-01  0.00000000000E+00 0.  1.
     999901    1    3    3    0    0 -0.94886077367E-01 -0.92190152941E-01  0.53829233312E-01  0.89151555137E+00  0.88000000000E+00 0.  1.
        -11    1    4    4    0    0  0.49126505072E-01  0.50450282541E-01 -0.79049607833E-02  0.70861795314E-01  0.51100000000E-03 0. -1.
         11    1    4    4    0    0  0.35682325347E-01  0.38626609873E-01 -0.25233408690E-01  0.58328632485E-01  0.51100000000E-03 0.  1.
</event>
<event>
 8    1  0.1106905E+005  0.1043930E+01  0.7957747E-01            NaN
         13   -1    0    0    0    0  0.00000000000E+00  0.00000000000E+00  0.74505805969E-08  0.10566000000E+00  0.10566000000E+00 0.  1.
     999900   -1    0    0    0    0 -0.00000000000E+00 -0.00000000000E+00 -0.74505805969E-08  0.93827000000E+00  0.93827000000E+00 0. -1.
     999902    2    1    2    0    0  0.49914456673E-02 -0.17792101195E-01 -0.12459055561E-01  0.10216431999E+01  0.10214000814E+01 0.  0.
     999903    2    3    3    0    0  0.21647021169E-01 -0.41867322815E-01  0.12062983106E+00  0.13115475175E+00  0.20701365158E-01 0.  0.
         14    1    1    2    0    0 -0.49914456673E-02  0.17792101195E-01  0.12459055561E-01  0.22286800135E-01  0.00000000000E+00 0.  1.
     999901    1    3    3    0    0 -0.16655575501E-01  0.24075221620E-01 -0.13308888662E+00  0.89048844812E+00  0.88000000000E+00 0. -1.
        -11    1    4    4    0    0  0.22385055766E-01 -0.40270174427E-01  0.96293982098E-01  0.10675003409E+00  0.51100000000E-03 0. -1.
         11    1    4    4    0    0 -0.73803459723E-03 -0.15971483884E-02  0.24335848960E-01  0.24404717651E-01  0.51100000000E-03 0.  1.
</event>
<event>
 8    1  0.1106905E+005  0.1043930E+01  0.7957747E-01            NaN
         13   -1    0    0    0    0  0.00000000000E+00  0.00000000000E+00  0.74505805969E-08  0.10566000000E+00  0.10566000000E+00 0.  1.
     999900   -1    0    0    0    0 -0.00000000000E+00 -0.00000000000E+00 -0.74505805969E-08  0.93827000000E+00  0.93827000000E+00 0. -1.
     999902    2    1    2    0    0 -0.87281971430E-02  0.19211487890E-01  0.42917484956E-02  0.10223967281E+01  0.10221699408E+01 0.  0.
     999903    2    3    3    0    0 -0.59869932685E-01 -0.69098898295E-01 -0.92029886986E-01  0.13127829667E+00  0.20135155642E-01 0.  0.
         14    1    1    2    0    0  0.87281971430E-02 -0.19211487890E-01 -0.42917484956E-02  0.21533271871E-01  0.00000000000E+00 0.  1.
     999901    1    3    3    0    0  0.51141735542E-01  0.88310386185E-01  0.96321635482E-01  0.89111843146E+00  0.88000000000E+00 0.  1.
        -11    1    4    4    0    0 -0.10344086404E-01 -0.25801079082E-01 -0.28894292961E-01  0.40097843983E-01  0.51100000000E-03 0. -1.
         11    1    4    4    0    0 -0.49525846282E-01 -0.43297819213E-01 -0.63135594025E-01  0.91180452688E-01  0.51100000000E-03 0.  1.
</event>
<event>
 8    1  0.1106905E+005  0.1043930E+01  0.7957747E-01            NaN
         13   -1    0    0    0    0  0.00000000000E+00  0.00000000000E+00  0.74505805969E-08  0.10566000000E+00  0.10566000000E+00 0. -1.
     999900   -1    0    0    0    0 -0.00000000000E+00 -0.00000000000E+00 -0.74505805969E-08  0.93827000000E+00  0.93827000000E+00 0. -1.
     999902    2    1    2    0    0  0.18932686525E-01  0.14213387919E-01  0.81509625038E-03  0.10202417878E+01  0.10199667515E+01 0.  0.
     999903    2    3    3    0    0 -0.63629996413E-01 -0.70481981801E-01  0.84072694804E-01  0.12843366383E+00  0.20260843797E-01 0.  0.
         14    1    1    2    0    0 -0.18932686525E-01 -0.14213387919E-01 -0.81509625038E-03  0.23688212197E-01  0.00000000000E+00 0.  1.
     999901    1    3    3    0    0  0.82562682938E-01  0.84695369720E-01 -0.83257598554E-01  0.89180812397E+00  0.88000000000E+00 0. -1.
        -11    1    4    4    0    0 -0.29972065426E-01 -0.32487241858E-01  0.25921757976E-01  0.51243967909E-01  0.51100000000E-03 0.  1.
         11    1    4    4    0    0 -0.33657930987E-01 -0.37994739942E-01  0.58150936828E-01  0.77189695922E-01  0.51100000000E-03 0. -1.
</event>
<event>
 8    1  0.1106905E+005  0.1043930E+01  0.7957747E-01            NaN
         13   -1    0    0    0    0  0.00000000000E+00  0.00000000000E+00  0.74505805969E-08  0.10566000000E+00  0.10566000000E+00 0.  1.
     999900   -1    0    0    0    0 -0.00000000000E+00 -0.00000000000E+00 -0.74505805969E-08  0.93827000000E+00  0.93827000000E+00 0.  1.
     999902    2    1    2    0    0  0.21843088809E-01  0.62710300188E-02 -0.63963165750E-02  0.10203215436E+01  0.10200483779E+01 0.  0.
     999903    2    3    3    0    0  0.11847035532E+00 -0.50381712911E-01 -0.27006573319E-01  0.13298218093E+00  0.19528526767E-01 0.  0.
         14    1    1    2    0    0 -0.21843088809E-01 -0.62710300188E-02  0.63963165750E-02  0.23608456365E-01  0.00000000000E+00 0. -1.
     999901    1    3    3    0    0 -0.96627266512E-01  0.56652742930E-01  0.20610256744E-01  0.88733936270E+00  0.88000000000E+00 0. -1.
        -11    1    4    4    0    0  0.60474535762E-01 -0.33916001714E-01 -0.81668385489E-02  0.69817068262E-01  0.51100000000E-03 0.  1.
         11    1    4    4    0    0  0.57995819559E-01 -0.16465711197E-01 -0.18839734770E-01  0.63165112671E-01  0.51100000000E-03 0. -1.
</event>
<event>
 8    1  0.1106905E+005  0.1043930E+01  0.7957747E-01            NaN
         13   -1    0    0    0    0  0.00000000000E+00  0.00000000000E+00  0.74505805969E-08  0.10566000000E+00  0.10566000000E+00 0. -1.
     999900   -1    0    0    0    0 -0.00000000000E+00 -0.00000000000E+00 -0.74505805969E-08  0.93827000000E+00  0.93827000000E+00 0. -1.
     999902    2    1    2    0    0 -0.27828343347E-01 -0.54836306126E-02 -0.21247454722E-01  0.10084907389E+01  0.10078678629E+01 0.  0.
     999903    2    3    3    0    0  0.60417501492E-01  0.96498907414E-01 -0.28832185180E-01  0.11818444587E+00  0.13189189715E-01 0.  0.
         14    1    1    2    0    0  0.27828343347E-01  0.54836306126E-02  0.21247454722E-01  0.35439261142E-01  0.00000000000E+00 0. -1.
     999901    1    3    3    0    0 -0.88245844839E-01 -0.10198253803E+00  0.75847304585E-02  0.89030629299E+00  0.88000000000E+00 0. -1.
        -11    1    4    4    0    0  0.21279827318E-01  0.32308912825E-01 -0.16214250952E-01  0.41950684780E-01  0.51100000000E-03 0. -1.
         11    1    4    4    0    0  0.39137674174E-01  0.64189994589E-01 -0.12617934229E-01  0.76233761092E-01  0.51100000000E-03 0.  1.
</event>
<event>
 8    1  0.1106905E+005  0.1043930E+01  0.7957747E-01            NaN
         13   -1    0    0    0    0  0.00000000000E+00  0.00000000000E+00  0.74505805969E-08  0.10566000000E+00  0.10566000000E+00 0.  1.
     999900   -1    0    0    0    0 -0.00000000000E+00 -0.00000000000E+00 -0.74505805969E-08  0.93827000000E+00  0.93827000000E+00 0.  1.
     999902    2    1    2    0    0  0.23224626174E-01  0.47461930127E-02 -0.23782723436E-02  0.10201063607E+01  0.10198281333E+01 0.  0.
     999903    2    3    3    0    0  0.65099265461E-01 -0.66903431508E-01 -0.90808024502E-01  0.13178942675E+00  0.20208220583E-01 0.  0.
         14    1    1    2    0    0 -0.23224626174E-01 -0.47461930127E-02  0.23782723436E-02  0.23823639277E-01  0.00000000000E+00 0.  1.
     999901    1    3    3    0    0 -0.41874639286E-01  0.71649624521E-01  0.88429752158E-01  0.88831693397E+00  0.88000000000E+00 0. -1.
        -11    1    4    4    0    0  0.25762247049E-01 -0.30430603110E-01 -0.25751724111E-01  0.47467119086E-01  0.51100000000E-03 0.  1.
         11    1    4    4    0    0  0.39337018412E-01 -0.36472828398E-01 -0.65056300391E-01  0.84322307668E-01  0.51100000000E-03 0. -1.
</event>
<event>
 8    1  0.1106905E+005  0.1043930E+01  0.7957747E-01            NaN
         13   -1    0    0    0    0  0.00000000000E+00  0.00000000000E+00  0.74505805969E-08  0.10566000000E+00  0.10566000000E+00 0.  1.
     999900   -1    0    0    0    0 -0.00000000000E+00 -0.00000000000E+00 -0.74505805969E-08  0.93827000000E+00  0.93827000000E+00 0. -1.
     999902    2    1    2    0    0 -0.33121040719E-02 -0.42467695990E-02  0.22593662719E-01  0.10207033196E+01  0.10204390173E+01 0.  0.
     999903    2    3    3    0    0  0.42533739932E-01 -0.11568069923E+00  0.43325869285E-01  0.13225006455E+00  0.20537901977E-01 0.  0.
         14    1    1    2    0    0  0.33121040719E-02  0.42467695990E-02 -0.22593662719E-01  0.23226680358E-01  0.00000000000E+00 0. -1.
     999901    1    3    3    0    0 -0.45845844004E-01  0.11143392963E+00 -0.20732206566E-01  0.88845325509E+00  0.88000000000E+00 0.  1.
        -11    1    4    4    0    0 -0.12713220956E-02 -0.95204837675E-02  0.66439416889E-02  0.11690122035E-01  0.51100000000E-03 0. -1.
         11    1    4    4    0    0  0.43805062027E-01 -0.10616021547E+00  0.36681927596E-01  0.12055994252E+00  0.51100000000E-03 0.  1.
</event>
<event>
 8    1  0.1106905E+005  0.1043930E+01  0.7957747E-01            NaN
         13   -1    0    0    0    0  0.00000000000E+00  0.00000000000E+00  0.74505805969E-08  0.10566000000E+00  0.10566000000E+00 0. -1.
     999900   -1    0    0    0    0 -0.00000000000E+00 -0.00000000000E+00 -0.74505805969E-08  0.93827000000E+00  0.93827000000E+00 0.  1.
     999902    2    1    2    0    0  0.16171249314E-01 -0.11079981048E-01 -0.13157708517E-01  0.10203206676E+01  0.10200474813E+01 0.  0.
     999903    2    3    3    0    0  0.79014190801E-01  0.20375885707E-01 -0.10284033070E+00  0.13297536862E+00  0.21163552952E-01 0.  0.
         14    1    1    2    0    0 -0.16171249314E-01  0.11079981048E-01  0.13157708517E-01  0.23609332430E-01  0.00000000000E+00 0. -1.
     999901    1    3    3    0    0 -0.62842941487E-01 -0.31455866755E-01  0.89682622188E-01  0.88734529895E+00  0.88000000000E+00 0. -1.
        -11    1    4    4    0    0  0.34195605760E-01  0.18484586268E-01 -0.40145248524E-01  0.55883105522E-01  0.51100000000E-03 0. -1.
         11    1    4    4    0    0  0.44818585042E-01  0.18912994389E-02 -0.62695082181E-01  0.77092263097E-01  0.51100000000E-03 0.  1.
</event>
<event>
 8    1  0.1106905E+005  0.1043930E+01  0.7957747E-01            NaN
         13   -1    0    0    0    0  0.00000000000E+00  0.00000000000E+00  0.74505805969E-08  0.10566000000E+00  0.10566000000E+00 0. -1.
     999900   -1    0    0    0    0 -0.00000000000E+00 -0.00000000000E+00 -0.74505805969E-08  0.93827000000E+00  0.93827000000E+00 0.  1.
     999902    2    1    2    0    0 -0.22008521775E-01 -0.94282106959E-02  0.19159167030E-02  0.10199104887E+01  0.10196276124E+01 0.  0.
     999903    2    3    3    0    0 -0.57520903782E-01  0.28128640321E-01  0.11308716993E+00  0.13141136437E+00  0.19502920450E-01 0.  0.
         14    1    1    2    0    0  0.22008521775E-01  0.94282106959E-02 -0.19159167030E-02  0.24019511328E-01  0.00000000000E+00 0.  1.
     999901    1    3    3    0    0  0.35512382008E-01 -0.37556851017E-01 -0.11117125322E+00  0.88849912430E+00  0.88000000000E+00 0.  1.
        -11    1    4    4    0    0 -0.36123906800E-01  0.16193497167E-01  0.87188880952E-01  0.95756608522E-01  0.51100000000E-03 0.  1.
         11    1    4    4    0    0 -0.21396996983E-01  0.11935143154E-01  0.25898288975E-01  0.35654755852E-01  0.51100000000E-03 0. -1.
</event>
<event>
 8    1  0.1106905E+005  0.1043930E+01  0.7957747E-01            NaN
         13   -1    0    0    0    0  0.00000000000E+00  0.00000000000E+00  0.74505805969E-08  0.10566000000E+00  0.10566000000E+00 0.  1.
     999900   -1    0    0    0    0 -0.00000000000E+00 -0.00000000000E+00 -0.74505805969E-08  0.93827000000E+00  0.93827000000E+00 0.  1.
     999902    2    1    2    0    0 -0.12086550102E-01  0.76709614425E-03 -0.19929104494E-01  0.10206095726E+01  0.10203431076E+01 0.  0.
     999903    2    3    3    0    0  0.26784301928E-01 -0.81687600413E-01 -0.99054054963E-01  0.13236947107E+00  0.17880385193E-01 0.  0.
         14    1    1    2    0    0  0.12086550102E-01 -0.76709614425E-03  0.19929104494E-01  0.23320427436E-01  0.00000000000E+00 0.  1.
     999901    1    3    3    0    0 -0.38870852030E-01  0.82454696558E-01  0.79124950468E-01  0.88824010150E+00  0.88000000000E+00 0. -1.
        -11    1    4    4    0    0  0.17834874930E-01 -0.40770020159E-01 -0.39148684614E-01  0.59271898362E-01  0.51100000000E-03 0. -1.
         11    1    4    4    0    0  0.89494269982E-02 -0.40917580255E-01 -0.59905370349E-01  0.73097572704E-01  0.51100000000E-03 0.  1.
</event>
<event>
 8    1  0.1106905E+005  0.1043930E+01  0.7957747E-01            NaN
         13   -1    0    0    0    0  0.00000000000E+00  0.00000000000E+00  0.74505805969E-08  0.10566000000E+00  0.10566000000E+00 0. -1.
     999900   -1    0    0    0    0 -0.00000000000E+00 -0.00000000000E+00 -0.74505805969E-08  0.93827000000E+00  0.93827000000E+00 0. -1.
     999902    2    1    2    0    0  0.60940532785E-02  0.15590450666E-01 -0.13506382529E-01  0.10224213504E+01  0.10221950870E+01 0.  0.
     999903    2    3    3    0    0  0.45074703852E-01  0.76195500463E-01 -0.10026435659E+00  0.13522384748E+00  0.19876229704E-01 0.  0.
         14    1    1    2    0    0 -0.60940532785E-02 -0.15590450666E-01  0.13506382529E-01  0.21508649570E-01  0.00000000000E+00 0. -1.
     999901    1    3    3    0    0 -0.38980650574E-01 -0.60605049798E-01  0.86757974057E-01  0.88719750295E+00  0.88000000000E+00 0.  1.
        -11    1    4    4    0    0  0.22650513805E-01  0.25649629488E-01 -0.27932643909E-01  0.44175139901E-01  0.51100000000E-03 0.  1.
         11    1    4    4    0    0  0.22424190047E-01  0.50545870976E-01 -0.72331712676E-01  0.91048707578E-01  0.51100000000E-03 0. -1.
</event>
<event>
 8    1  0.1106905E+005  0.1043930E+01  0.7957747E-01            NaN
         13   -1    0    0    0    0  0.00000000000E+00  0.00000000000E+00  0.74505805969E-08  0.10566000000E+00  0.10566000000E+00 0.  1.
     999900   -1    0    0    0    0 -0.00000000000E+00 -0.00000000000E+00 -0.74505805969E-08  0.93827000000E+00  0.93827000000E+00 0.  1.
     999902    2    1    2    0    0  0.82983838096E-02 -0.21619843787E-01  0.81266195946E-02  0.10193877351E+01  0.10190922587E+01 0.  0.
     999903    2    3    3    0    0  0.70987597889E-01 -0.33041541860E-01  0.10419951859E+00  0.13186849890E+00  0.20019460125E-01 0.  0.
         14    1    1    2    0    0 -0.82983838096E-02  0.21619843787E-01 -0.81266195946E-02  0.24542264876E-01  0.00000000000E+00 0.  1.
     999901    1    3    3    0    0 -0.62689214080E-01  0.11421698073E-01 -0.96072899000E-01  0.88751923623E+00  0.88000000000E+00 0.  1.
        -11    1    4    4    0    0  0.10028531052E-01 -0.88097479522E-02  0.29928913017E-01  0.32774747129E-01  0.51100000000E-03 0.  1.
         11    1    4    4    0    0  0.60959066837E-01 -0.24231793907E-01  0.74270605578E-01  0.99093751769E-01  0.51100000000E-03 0. -1.
</event>
<event>
 8    1  0.1106905E+005  0.1043930E+01  0.7957747E-01            NaN
         13   -1    0    0    0    0  0.00000000000E+00  0.00000000000E+00  0.74505805969E-08  0.10566000000E+00  0.10566000000E+00 0. -1.
     999900   -1    0    0    0    0 -0.00000000000E+00 -0.00000000000E+00 -0.74505805969E-08  0.93827000000E+00  0.93827000000E+00 0.  1.
     999902    2    1    2    0    0 -0.15803224808E-01  0.18927783603E-01 -0.12601904535E-01  0.10162386493E+01  0.10158613003E+01 0.  0.
     999903    2    3    3    0    0  0.71781740826E-01 -0.30882551691E-01  0.94472201608E-01  0.12404076770E+00  0.18835202656E-01 0.  0.
         14    1    1    2    0    0  0.15803224808E-01 -0.18927783603E-01  0.12601904535E-01  0.27691350714E-01  0.00000000000E+00 0. -1.
     999901    1    3    3    0    0 -0.87584965633E-01  0.49810335294E-01 -0.10707410614E+00  0.89219788159E+00  0.88000000000E+00 0.  1.
        -11    1    4    4    0    0  0.37854478125E-01 -0.26114200039E-01  0.50688875589E-01  0.68443671638E-01  0.51100000000E-03 0.  1.
         11    1    4    4    0    0  0.33927262701E-01 -0.47683516523E-02  0.43783326019E-01  0.55597096059E-01  0.51100000000E-03 0. -1.
</event>
<event>
 8    1  0.1106905E+005  0.1043930E+01  0.7957747E-01            NaN
         13   -1    0    0    0    0  0.00000000000E+00  0.00000000000E+00  0.74505805969E-08  0.10566000000E+00  0.10566000000E+00 0. -1.
     999900   -1    0    0    0    0 -0.00000000000E+00 -0.00000000000E+00 -0.74505805969E-08  0.93827000000E+00  0.93827000000E+00 0.  1.
     999902    2    1    2    0    0 -0.11002991112E-01  0.19620004309E-01 -0.78131629057E-02  0.10201170645E+01  0.10198390899E+01 0.  0.
     999903    2    3    3    0    0 -0.12194667472E+00  0.32696941126E-01 -0.34867505772E-01  0.13264230729E+00  0.20932207024E-01 0.  0.
         14    1    1    2    0    0  0.11002991112E-01 -0.19620004309E-01  0.78131629057E-02  0.23812935499E-01  0.00000000000E+00 0. -1.
     999901    1    3    3    0    0  0.11094368361E+00 -0.13076936817E-01  0.27054342866E-01  0.88747475721E+00  0.88000000000E+00 0. -1.
        -11    1    4    4    0    0 -0.52083233931E-01  0.34380548531E-02 -0.15725478013E-01  0.54516376050E-01  0.51100000000E-03 0. -1.
         11    1    4    4    0    0 -0.69863440792E-01  0.29258886273E-01 -0.19142027759E-01  0.78125931245E-01  0.51100000000E-03 0.  1.
</event>
<event>
 8    1  0.1106905E+005  0.1043930E+01  0.7957747E-01            NaN
         13   -1    0    0    0    0  0.00000000000E+00  0.00000000000E+00  0.74505805969E-08  0.10566000000E+00  0.10566000000E+00 0. -1.
     999900   -1    0    0    0    0 -0.00000000000E+00 -0.00000000000E+00 -0.74505805969E-08  0.93827000000E+00  0.93827000000E+00 0. -1.
     999902    2    1    2    0    0  0.21992139705E-01 -0.48672066506E-02 -0.32615955275E-02  0.10211707840E+01  0.10209171309E+01 0.  0.
     999903    2    3    3    0    0 -0.46545872429E-01 -0.10540873845E+00  0.59331022089E-01  0.13059574810E+00  0.16048640361E-01 0.  0.
         14    1    1    2    0    0 -0.21992139705E-01  0.48672066506E-02  0.32615955275E-02  0.22759216040E-01  0.00000000000E+00 0.  1.
     999901    1    3    3    0    0  0.68538012134E-01  0.10054153180E+00 -0.62592617617E-01  0.89057503586E+00  0.88000000000E+00 0. -1.
        -11    1    4    4    0    0 -0.30837815834E-01 -0.71107277134E-01  0.31286783436E-01  0.83584326794E-01  0.51100000000E-03 0.  1.
         11    1    4    4    0    0 -0.15708056595E-01 -0.34301461313E-01  0.28044238654E-01  0.47011421302E-01  0.51100000000E-03 0. -1.
</event>
<event>
 8    1  0.1106905E+005  0.1043930E+01  0.7957747E-01            NaN
         13   -1    0    0    0    0  0.00000000000E+00  0.00000000000E+00  0.74505805969E-08  0.10566000000E+00  0.10566000000E+00 0.  1.
     999900   -1    0    0    0    0 -0.00000000000E+00 -0.00000000000E+00 -0.74505805969E-08  0.93827000000E+00  0.93827000000E+00 0. -1.
     999902    2    1    2    0    0 -0.18969638168E-01 -0.10954288557E-01  0.91722840809E-02  0.10201818547E+01  0.10199054085E+01 0.  0.
     999903    2    3    3    0    0 -0.10222718115E+00 -0.50228682635E-01  0.66972774594E-01  0.13349408936E+00  0.19026356269E-01 0.  0.
         14    1    1    2    0    0  0.18969638168E-01  0.10954288557E-01 -0.91722840809E-02  0.23748145302E-01  0.00000000000E+00 0.  1.
     999901    1    3    3    0    0  0.83257542980E-01  0.39274394078E-01 -0.57800490513E-01  0.88668776534E+00  0.88000000000E+00 0. -1.
        -11    1    4    4    0    0 -0.24521982875E-01 -0.11832940590E-01  0.25890751244E-01  0.37575766766E-01  0.51100000000E-03 0. -1.
         11    1    4    4    0    0 -0.77705198274E-01 -0.38395742045E-01  0.41082023350E-01  0.95918322595E-01  0.51100000000E-03 0.  1.
</event>
<event>
 8    1  0.1106905E+005  0.1043930E+01  0.7957747E-01            NaN
         13   -1    0    0    0    0  0.00000000000E+00  0.00000000000E+00  0.74505805969E-08  0.10566000000E+00  0.10566000000E+00 0. -1.
     999900   -1    0    0    0    0 -0.00000000000E+00 -0.00000000000E+00 -0.74505805969E-08  0.93827000000E+00  0.93827000000E+00 0. -1.
     999902    2    1    2    0    0 -0.21342163120E-01  0.24160457524E-02  0.50559018804E-02  0.10218644760E+01  0.10216262135E+01 0.  0.
     999903    2    3    3    0    0  0.12730107619E-01  0.56019061334E-01 -0.11645830854E+00  0.13124676555E+00  0.19052164339E-01 0.  0.
         14    1    1    2    0    0  0.21342163120E-01 -0.24160457524E-02 -0.50559018804E-02  0.22065523958E-01  0.00000000000E+00 0. -1.
     999901    1    3    3    0    0 -0.34072270739E-01 -0.53603015582E-01  0.12151421042E+00  0.89061771049E+00  0.88000000000E+00 0.  1.
        -11    1    4    4    0    0  0.14339615784E-01  0.20847221890E-01 -0.47968806637E-01  0.54235585850E-01  0.51100000000E-03 0.  1.
         11    1    4    4    0    0 -0.16095081659E-02  0.35171839444E-01 -0.68489501903E-01  0.77011179697E-01  0.51100000000E-03 0. -1.
</event>
<event>
 8    1  0.1106905E+005  0.1043930E+01  0.7957747E-01            NaN
         13   -1    0    0    0    0  0.00000000000E+00  0.00000000000E+00  0.74505805969E-08  0.10566000000E+00  0.10566000000E+00 0. -1.
     999900   -1    0    0    0    0 -0.00000000000E+00 -0.00000000000E+00 -0.74505805969E-08  0.93827000000E+00  0.93827000000E+00 0. -1.
     999902    2    1    2    0    0  0.44699026786E-02  0.23065692192E-01  0.30180112687E-02  0.10202421428E+01  0.10199671149E+01 0.  0.
     999903    2    3    3    0    0  0.11359608827E+00  0.54555704951E-01 -0.34637832757E-01  0.13214411451E+00  0.19542039987E-01 0.  0.
         14    1    1    2    0    0 -0.44699026786E-02 -0.23065692192E-01 -0.30180112687E-02  0.23687857190E-01  0.00000000000E+00 0.  1.
     999901    1    3    3    0    0 -0.10912618560E+00 -0.31490012759E-01  0.37655844025E-01  0.88809802830E+00  0.88000000000E+00 0.  1.
        -11    1    4    4    0    0  0.21852086310E-01  0.11222662953E-01 -0.15028595997E-01  0.28802459244E-01  0.51100000000E-03 0.  1.
         11    1    4    4    0    0  0.91744001964E-01  0.43333041998E-01 -0.19609236759E-01  0.10334165526E+00  0.51100000000E-03 0. -1.
</event>
<event>
 8    1  0.1106905E+005  0.1043930E+01  0.7957747E-01            NaN
         13   -1    0    0    0    0  0.00000000000E+00  0.00000000000E+00  0.74505805969E-08  0.10566000000E+00  0.10566000000E+00 0. -1.
     999900   -1    0    0    0    0 -0.00000000000E+00 -0.00000000000E+00 -0.74505805969E-08  0.93827000000E+00  0.93827000000E+00 0. -1.
     999902    2    1    2    0    0 -0.12339403992E-01 -0.82515897005E-02  0.18152945537E-01  0.10204804999E+01  0.10202110427E+01 0.  0.
     999903    2    3    3    0    0  0.29175364384E-01  0.12381348109E+00 -0.10669811444E-01  0.12919187648E+00  0.19892613856E-01 0.  0.
         14    1    1    2    0    0  0.12339403992E-01  0.82515897005E-02 -0.18152945537E-01  0.23449500104E-01  0.00000000000E+00 0.  1.
     999901    1    3    3    0    0 -0.41514768376E-01 -0.13206507079E+00  0.28822756981E-01  0.89128862342E+00  0.88000000000E+00 0.  1.
        -11    1    4    4    0    0  0.32080845050E-01  0.11045634532E+00 -0.10637752027E-01  0.11551280332E+00  0.51100000000E-03 0. -1.
         11    1    4    4    0    0 -0.29054806667E-02  0.13357135764E-01 -0.32059417564E-04  0.13679073161E-01  0.51100000000E-03 0.  1.
</event>
<event>
 8    1  0.1595210E+005  0.1043930E+01  0.7957747E-01            NaN
         13   -1    0    0    0    0  0.00000000000E+00  0.00000000000E+00  0.74505805969E-08  0.10566000000E+00  0.10566000000E+00 0.  1.
     999900   -1    0    0    0    0 -0.00000000000E+00 -0.00000000000E+00 -0.74505805969E-08  0.93827000000E+00  0.93827000000E+00 0.  1.
     999902    2    1    2    0    0 -0.11254718300E-01 -0.21511016698E-01  0.86199807331E-03  0.10196372940E+01  0.10193478679E+01 0.  0.
     999903    2    3    3    0    0  0.24484992395E-01  0.12129239528E+00  0.21923623026E-01  0.12716111313E+00  0.19440767524E-01 0.  0.
         14    1    1    2    0    0  0.11254718300E-01  0.21511016698E-01 -0.86199807331E-03  0.24292705985E-01  0.00000000000E+00 0.  1.
     999901    1    3    3    0    0 -0.35739710695E-01 -0.14280341198E+00 -0.21061624953E-01  0.89247618088E+00  0.88000000000E+00 0.  1.
        -11    1    4    4    0    0  0.14664519207E-01  0.58061240639E-01  0.20009990192E-01  0.63141243388E-01  0.51100000000E-03 0. -1.
         11    1    4    4    0    0  0.98204731884E-02  0.63231154640E-01  0.19136328348E-02  0.64019869747E-01  0.51100000000E-03 0.  1.
</event>
<event>
 8    1  0.1106905E+005  0.1043930E+01  0.7957747E-01            NaN
         13   -1    0    0    0    0  0.00000000000E+00  0.00000000000E+00  0.74505805969E-08  0.10566000000E+00  0.10566000000E+00 0.  1.
     999900   -1    0    0    0    0 -0.00000000000E+00 -0.00000000000E+00 -0.74505805969E-08  0.93827000000E+00  0.93827000000E+00 0.  1.
     999902    2    1    2    0    0  0.36334889372E-02  0.17809140433E-02 -0.23736710058E-01  0.10198508534E+01  0.10195665539E+01 0.  0.
     999903    2    3    3    0    0  0.88033785829E-01  0.76864838098E-01 -0.58032083722E-01  0.13196731463E+00  0.19735719025E-01 0.  0.
         14    1    1    2    0    0 -0.36334889372E-02 -0.17809140433E-02  0.23736710058E-01  0.24079146602E-01  0.00000000000E+00 0.  1.
     999901    1    3    3    0    0 -0.84400296892E-01 -0.75083924055E-01  0.34295373663E-01  0.88788353877E+00  0.88000000000E+00 0. -1.
        -11    1    4    4    0    0  0.61240731616E-01  0.63780447683E-01 -0.47255506891E-01  0.10025825037E+00  0.51100000000E-03 0. -1.
         11    1    4    4    0    0  0.26793054213E-01  0.13084390416E-01 -0.10776576830E-01  0.31709064253E-01  0.51100000000E-03 0.  1.
</event>
<event>
 7    1  0.1106905E+005  0.1043930E+01  0.7957747E-01            NaN
         13   -1    0    0    0    0  0.00000000000E+00  0.00000000000E+00  0.74505805969E-08  0.10566000000E+00  0.10566000000E+00 0.  1.
     999900   -1    0    0    0    0 -0.00000000000E+00 -0.00000000000E+00 -0.74505805969E-08  0.93827000000E+00  0.93827000000E+00 0. -1.
     999902    2    1    2    0    0 -0.10599094711E-01  0.12052066709E-01  0.17094436610E-01  0.10204819109E+01  0.10202124865E+01 0.  0.
         14    1    1    2    0    0  0.10599094711E-01 -0.12052066709E-01 -0.17094436610E-01  0.23448089126E-01  0.00000000000E+00 0. -1.
     999901    1    3    3    0    0  0.86713541975E-02  0.58599456993E-01  0.12789226665E+00  0.89121575424E+00  0.88000000000E+00 0.  1.
        -11    1    3    3    0    0 -0.19451741752E-01 -0.26980553683E-01 -0.10292625296E+00  0.10816836508E+00  0.51100000000E-03 0. -1.
         11    1    3    3    0    0  0.18129284415E-03 -0.19566836602E-01 -0.78715770772E-02  0.21097791552E-01  0.51100000000E-03 0.  1.
</event>
<event>
 8    1  0.1106905E+005  0.1043930E+01  0.7957747E-01            NaN
         13   -1    0    0    0    0  0.00000000000E+00  0.00000000000E+00  0.74505805969E-08  0.10566000000E+00  0.10566000000E+00 0.  1.
     999900   -1    0    0    0    0 -0.00000000000E+00 -0.00000000000E+00 -0.74505805969E-08  0.93827000000E+00  0.93827000000E+00 0. -1.
     999902    2    1    2    0    0  0.18142226482E-01  0.12771542297E-01 -0.71288464468E-02  0.10206260706E+01  0.10203599869E+01 0.  0.
     999903    2    3    3    0    0  0.62959298712E-01 -0.87472359880E-01 -0.72852455434E-01  0.13136963813E+00  0.18308864597E-01 0.  0.
         14    1    1    2    0    0 -0.18142226482E-01 -0.12771542297E-01  0.71288464468E-02  0.23303929412E-01  0.00000000000E+00 0.  1.
     999901    1    3    3    0    0 -0.44817072230E-01  0.10024390218E+00  0.65723608987E-01  0.88925643246E+00  0.88000000000E+00 0.  1.
        -11    1    4    4    0    0  0.34302669439E-01 -0.38631469957E-01 -0.25830204784E-01  0.57762654041E-01  0.51100000000E-03 0. -1.
         11    1    4    4    0    0  0.28656629273E-01 -0.48840889922E-01 -0.47022250650E-01  0.73606984090E-01  0.51100000000E-03 0.  1.
</event>
<event>
 8    1  0.1106905E+005  0.1043930E+01  0.7957747E-01            NaN
         13   -1    0    0    0    0  0.00000000000E+00  0.00000000000E+00  0.74505805969E-08  0.10566000000E+00  0.10566000000E+00 0. -1.
     999900   -1    0    0    0    0 -0.00000000000E+00 -0.00000000000E+00 -0.74505805969E-08  0.93827000000E+00  0.93827000000E+00 0. -1.
     999902    2    1    2    0    0  0.20994135523E-01 -0.10636983051E-01  0.11425612674E-02  0.10203672204E+01  0.10200951230E+01 0.  0.
     999903    2    3    3    0    0 -0.79635828963E-01  0.76107413137E-01 -0.63487563192E-01  0.12805111444E+00  0.15238557681E-01 0.  0.
         14    1    1    2    0    0 -0.20994135523E-01  0.10636983051E-01 -0.11425612674E-02  0.23562779570E-01  0.00000000000E+00 0.  1.
     999901    1    3    3    0    0  0.10062996449E+00 -0.86744396188E-01  0.64630124459E-01  0.89231610599E+00  0.88000000000E+00 0.  1.
        -11    1    4    4    0    0 -0.58840834640E-01  0.64359796418E-01 -0.52142373006E-01  0.10160470166E+00  0.51100000000E-03 0.  1.
         11    1    4    4    0    0 -0.20794994323E-01  0.11747616720E-01 -0.11345190185E-01  0.26446412778E-01  0.51100000000E-03 0. -1.
</event>
<event>
 8    1  0.1106905E+005  0.1043930E+01  0.7957747E-01            NaN
         13   -1    0    0    0    0  0.00000000000E+00  0.00000000000E+00  0.74505805969E-08  0.10566000000E+00  0.10566000000E+00 0.  1.
     999900   -1    0    0    0    0 -0.00000000000E+00 -0.00000000000E+00 -0.74505805969E-08  0.93827000000E+00  0.93827000000E+00 0. -1.
     999902    2    1    2    0    0 -0.34747753654E-02  0.23518420040E-01  0.52698192614E-02  0.10195792066E+01  0.10192883779E+01 0.  0.
     999903    2    3    3    0    0  0.89444735906E-01  0.84948280587E-01  0.42154920904E-01  0.13179084550E+00  0.19370556172E-01 0.  0.
         14    1    1    2    0    0  0.34747753654E-02 -0.23518420040E-01 -0.52698192614E-02  0.24350793418E-01  0.00000000000E+00 0. -1.
     999901    1    3    3    0    0 -0.92919511271E-01 -0.61429860547E-01 -0.36885101643E-01  0.88778836108E+00  0.88000000000E+00 0. -1.
        -11    1    4    4    0    0  0.59246243787E-01  0.48743343275E-01  0.34100122841E-01  0.83958980552E-01  0.51100000000E-03 0.  1.
         11    1    4    4    0    0  0.30198492119E-01  0.36204937313E-01  0.80547980626E-02  0.47831864953E-01  0.51100000000E-03 0. -1.
</event>
<event>
 8    1  0.1106905E+005  0.1043930E+01  0.7957747E-01            NaN
         13   -1    0    0    0    0  0.00000000000E+00  0.00000000000E+00  0.74505805969E-08  0.10566000000E+00  0.10566000000E+00 0. -1.
     999900   -1    0    0    0    0 -0.00000000000E+00 -0.00000000000E+00 -0.74505805969E-08  0.93827000000E+00  0.93827000000E+00 0.  1.
     999902    2    1    2    0    0  0.13602216503E-01 -0.11893204628E-01 -0.14810206098E-01  0.10205674056E+01  0.10202999650E+01 0.  0.
     999903    2    3    3    0    0  0.10738130461E+00 -0.32904490796E-01 -0.69688141548E-01  0.13363585287E+00  0.19714309663E-01 0.  0.
         14    1    1    2    0    0 -0.13602216503E-01  0.11893204628E-01  0.14810206098E-01  0.23362594351E-01  0.00000000000E+00 0. -1.
     999901    1    3    3    0    0 -0.93779088109E-01  0.21011286167E-01  0.54877935450E-01  0.88693155278E+00  0.88000000000E+00 0. -1.
        -11    1    4    4    0    0  0.58994163292E-01 -0.26036514114E-01 -0.32444760443E-01  0.72188191353E-01  0.51100000000E-03 0. -1.
         11    1    4    4    0    0  0.48387141321E-01 -0.68679766822E-02 -0.37243381105E-01  0.61447661519E-01  0.51100000000E-03 0.  1.
</event>
<event>
 8    1  0.1106905E+005  0.1043930E+01  0.7957747E-01            NaN
         13   -1    0    0    0    0  0.00000000000E+00  0.00000000000E+00  0.74505805969E-08  0.10566000000E+00  0.10566000000E+00 0.  1.
     999900   -1    0    0    0    0 -0.00000000000E+00 -0.00000000000E+00 -0.74505805969E-08  0.93827000000E+00  0.93827000000E+00 0. -1.
     999902    2    1    2    0    0  0.81642088556E-02  0.22562914129E-01 -0.54728905145E-03  0.10199291891E+01  0.10196467583E+01 0.  0.
     999903    2    3    3    0    0 -0.98566141060E-01  0.28811284982E-01  0.74946967498E-01  0.13024958803E+00  0.28329012304E-01 0.  0.
         14    1    1    2    0    0 -0.81642088556E-02 -0.22562914129E-01  0.54728905145E-03  0.24000810935E-01  0.00000000000E+00 0. -1.
     999901    1    3    3    0    0  0.10673034992E+00 -0.62483708527E-02 -0.75494256549E-01  0.88967960104E+00  0.88000000000E+00 0. -1.
        -11    1    4    4    0    0 -0.87733995059E-01  0.15211072640E-01  0.64614957113E-01  0.11001810953E+00  0.51100000000E-03 0. -1.
         11    1    4    4    0    0 -0.10832146001E-01  0.13600212342E-01  0.10332010384E-01  0.20231478501E-01  0.51100000000E-03 0.  1.
</event>
<event>
 8    1  0.1106905E+005  0.1043930E+01  0.7957747E-01            NaN
         13   -1    0    0    0    0  0.00000000000E+00  0.00000000000E+00  0.74505805969E-08  0.10566000000E+00  0.10566000000E+00 0.  1.
     999900   -1    0    0    0    0 -0.00000000000E+00 -0.00000000000E+00 -0.74505805969E-08  0.93827000000E+00  0.93827000000E+00 0. -1.
     999902    2    1    2    0    0  0.43059898285E-02  0.28371279157E-02  0.22655273983E-01  0.10206952785E+01  0.10204307910E+01 0.  0.
     999903    2    3    3    0    0 -0.12533945167E+00  0.30229319451E-01  0.66152056426E-02  0.13063036153E+00  0.19918346009E-01 0.  0.
         14    1    1    2    0    0 -0.43059898285E-02 -0.28371279157E-02 -0.22655273983E-01  0.23234721485E-01  0.00000000000E+00 0. -1.
     999901    1    3    3    0    0  0.12964544150E+00 -0.27392191535E-01  0.16040068341E-01  0.89006491699E+00  0.88000000000E+00 0. -1.
        -11    1    4    4    0    0 -0.24881957168E-01  0.11803520206E-01  0.72927059842E-02  0.28493500370E-01  0.51100000000E-03 0. -1.
         11    1    4    4    0    0 -0.10045749450E+00  0.18425799245E-01 -0.67750034159E-03  0.10213686116E+00  0.51100000000E-03 0.  1.
</event>
<event>
 8    1  0.1106905E+005  0.1043930E+01  0.7957747E-01            NaN
         13   -1    0    0    0    0  0.00000000000E+00  0.00000000000E+00  0.74505805969E-08  0.10566000000E+00  0.10566000000E+00 0. -1.
     999900   -1    0    0    0    0 -0.00000000000E+00 -0.00000000000E+00 -0.74505805969E-08  0.93827000000E+00  0.93827000000E+00 0.  1.
     999902    2    1    2    0    0  0.14421002681E-01  0.20359696878E-02 -0.18842835211E-01  0.10201148172E+01  0.10198367896E+01 0.  0.
     999903    2    3    3    0    0  0.23659941282E-01  0.11974496016E+00 -0.46011267399E-01  0.13181369255E+00  0.18951636085E-01 0.  0.
         14    1    1    2    0    0 -0.14421002681E-01 -0.20359696878E-02  0.18842835211E-01  0.23815182756E-01  0.00000000000E+00 0. -1.
     999901    1    3    3    0    0 -0.92389386009E-02 -0.11770899047E+00  0.27168432188E-01  0.88830112469E+00  0.88000000000E+00 0. -1.
        -11    1    4    4    0    0  0.13261125489E-01  0.10233997689E+00 -0.39752536607E-01  0.11058866853E+00  0.51100000000E-03 0.  1.
         11    1    4    4    0    0  0.10398815793E-01  0.17404983269E-01 -0.62587307917E-02  0.21225024019E-01  0.51100000000E-03 0. -1.
</event>
<event>
 8    1  0.1106905E+005  0.1043930E+01  0.7957747E-01            NaN
         13   -1    0    0    0    0  0.00000000000E+00  0.00000000000E+00  0.74505805969E-08  0.10566000000E+00  0.10566000000E+00 0.  1.
     999900   -1    0    0    0    0 -0.00000000000E+00 -0.00000000000E+00 -0.74505805969E-08  0.93827000000E+00  0.93827000000E+00 0. -1.
     999902    2    1    2    0    0  0.38082544341E-02  0.73123247647E-03 -0.22611521160E-01  0.10209883699E+01  0.10207305879E+01 0.  0.
     999903    2    3    3    0    0 -0.90384735010E-01  0.57922735124E-01  0.69260825094E-01  0.12936977697E+00  0.20372376747E-01 0.  0.
         14    1    1    2    0    0 -0.38082544341E-02 -0.73123247647E-03  0.22611521160E-01  0.22941630106E-01  0.00000000000E+00 0.  1.
     999901    1    3    3    0    0  0.94192989444E-01 -0.57191502648E-01 -0.91872346253E-01  0.89161859292E+00  0.88000000000E+00 0. -1.
        -11    1    4    4    0    0 -0.22598212902E-01  0.24295905512E-01  0.16042575456E-01  0.36859131830E-01  0.51100000000E-03 0. -1.
         11    1    4    4    0    0 -0.67786522109E-01  0.33626829612E-01  0.53218249637E-01  0.92510645143E-01  0.51100000000E-03 0.  1.
</event>
<event>
 8    1  0.1106905E+005  0.1043930E+01  0.7957747E-01            NaN
         13   -1    0    0    0    0  0.00000000000E+00  0.00000000000E+00  0.74505805969E-08  0.10566000000E+00  0.10566000000E+00 0. -1.
     999900   -1    0    0    0    0 -0.00000000000E+00 -0.00000000000E+00 -0.74505805969E-08  0.93827000000E+00  0.93827000000E+00 0.  1.
     999902    2    1    2    0    0 -0.97880816509E-02  0.94918260150E-02 -0.18919023943E-01  0.10206098205E+01  0.10203433613E+01 0.  0.
     999903    2    3    3    0    0  0.42175088344E-01  0.92132362138E-01 -0.83608607616E-01  0.13285176144E+00  0.19801035834E-01 0.  0.
         14    1    1    2    0    0  0.97880816509E-02 -0.94918260150E-02  0.18919023943E-01  0.23320179469E-01  0.00000000000E+00 0. -1.
     999901    1    3    3    0    0 -0.51963169995E-01 -0.82640536123E-01  0.64689583673E-01  0.88775805909E+00  0.88000000000E+00 0.  1.
        -11    1    4    4    0    0  0.18280113506E-01  0.44203090743E-01 -0.27033510650E-01  0.54946770607E-01  0.51100000000E-03 0. -1.
         11    1    4    4    0    0  0.23894974838E-01  0.47929271395E-01 -0.56575096965E-01  0.77904990833E-01  0.51100000000E-03 0.  1.
</event>
<event>
 8    1  0.1106905E+005  0.1043930E+01  0.7957747E-01            NaN
         13   -1    0    0    0    0  0.00000000000E+00  0.00000000000E+00  0.74505805969E-08  0.10566000000E+00  0.10566000000E+00 0. -1.
     999900   -1    0    0    0    0 -0.00000000000E+00 -0.00000000000E+00 -0.74505805969E-08  0.93827000000E+00  0.93827000000E+00 0.  1.
     999902    2    1    2    0    0 -0.11756208507E-01  0.12456199788E-01  0.15617321819E-01  0.10207509989E+01  0.10204877930E+01 0.  0.
     999903    2    3    3    0    0  0.56308074493E-01 -0.11360652170E+00  0.14345968526E-01  0.12916467513E+00  0.20016629660E-01 0.  0.
         14    1    1    2    0    0  0.11756208507E-01 -0.12456199788E-01 -0.15617321819E-01  0.23179001109E-01  0.00000000000E+00 0.  1.
     999901    1    3    3    0    0 -0.68064283000E-01  0.12606272149E+00  0.12713532936E-02  0.89158632376E+00  0.88000000000E+00 0.  1.
        -11    1    4    4    0    0  0.34569741493E-01 -0.87975439130E-01  0.13959870137E-01  0.95550426541E-01  0.51100000000E-03 0. -1.
         11    1    4    4    0    0  0.21738333000E-01 -0.25631082574E-01  0.38609838902E-03  0.33614248593E-01  0.51100000000E-03 0.  1.
</event>
<event>
 8    1  0.1106905E+005  0.1043930E+01  0.7957747E-01            NaN
         13   -1    0    0    0    0  0.00000000000E+00  0.00000000000E+00  0.74505805969E-08  0.10566000000E+00  0.10566000000E+00 0.  1.
     999900   -1    0    0    0    0 -0.00000000000E+00 -0.00000000000E+00 -0.74505805969E-08  0.93827000000E+00  0.93827000000E+00 0.  1.
     999902    2    1    2    0    0 -0.17042287340E-01 -0.11359417037E-01  0.12494708908E-01  0.10199384668E+01  0.10196562570E+01 0.  0.
     999903    2    3    3    0    0  0.61196779228E-01  0.10564970884E+00 -0.35339198849E-01  0.12746966076E+00  0.96306112364E-02 0.  0.
         14    1    1    2    0    0  0.17042287340E-01  0.11359417037E-01 -0.12494708908E-01  0.23991533171E-01  0.00000000000E+00 0.  1.
     999901    1    3    3    0    0 -0.78239066568E-01 -0.11700912588E+00  0.47833907756E-01  0.89246880607E+00  0.88000000000E+00 0.  1.
        -11    1    4    4    0    0  0.48827846698E-01  0.89545539657E-01 -0.26963444279E-01  0.10549810773E+00  0.51100000000E-03 0. -1.
         11    1    4    4    0    0  0.12368932530E-01  0.16104169184E-01 -0.83757545697E-02  0.21971553033E-01  0.51100000000E-03 0.  1.
</event>
<event>
 8    1  0.1106905E+005  0.1043930E+01  0.7957747E-01            NaN
         13   -1    0    0    0    0  0.00000000000E+00  0.00000000000E+00  0.74505805969E-08  0.10566000000E+00  0.10566000000E+00 0.  1.
     999900   -1    0    0    0    0 -0.00000000000E+00 -0.00000000000E+00 -0.74505805969E-08  0.93827000000E+00  0.93827000000E+00 0. -1.
     999902    2    1    2    0    0 -0.26502091390E-01 -0.18348814615E-02 -0.58355973296E-03  0.10173580565E+01  0.10170109867E+01 0.  0.
     999903    2    3    3    0    0  0.10142612772E+00  0.70773726815E-01 -0.39537935181E-02  0.12514227673E+00  0.18675576321E-01 0.  0.
         14    1    1    2    0    0  0.26502091390E-01  0.18348814615E-02  0.58355973296E-03  0.26571943474E-01  0.00000000000E+00 0.  1.
     999901    1    3    3    0    0 -0.12792821911E+00 -0.72608608277E-01  0.33702337851E-02  0.89221577980E+00  0.88000000000E+00 0. -1.
        -11    1    4    4    0    0  0.50081780656E-01  0.24426112567E-01  0.16240255040E-02  0.55746912996E-01  0.51100000000E-03 0. -1.
         11    1    4    4    0    0  0.51344347063E-01  0.46347614248E-01 -0.55778190221E-02  0.69395363735E-01  0.51100000000E-03 0.  1.
</event>
<event>
 8    1  0.1106905E+005  0.1043930E+01  0.7957747E-01            NaN
         13   -1    0    0    0    0  0.00000000000E+00  0.00000000000E+00  0.74505805969E-08  0.10566000000E+00  0.10566000000E+00 0.  1.
     999900   -1    0    0    0    0 -0.00000000000E+00 -0.00000000000E+00 -0.74505805969E-08  0.93827000000E+00  0.93827000000E+00 0. -1.
     999902    2    1    2    0    0  0.17006143589E-01  0.41468440818E-03 -0.16928768608E-01  0.10199307481E+01  0.10196483545E+01 0.  0.
     999903    2    3    3    0    0 -0.33658681060E-01 -0.10025889048E+00  0.70525359654E-01  0.12844304902E+00  0.18412999670E-01 0.  0.
         14    1    1    2    0    0 -0.17006143589E-01 -0.41468440818E-03  0.16928768608E-01  0.23999251854E-01  0.00000000000E+00 0.  1.
     999901    1    3    3    0    0  0.50664824649E-01  0.10067357489E+00 -0.87454128262E-01  0.89148769912E+00  0.88000000000E+00 0. -1.
        -11    1    4    4    0    0 -0.86545259362E-02 -0.51548575247E-01  0.39410154663E-01  0.65464324947E-01  0.51100000000E-03 0.  1.
         11    1    4    4    0    0 -0.25004155124E-01 -0.48710315235E-01  0.31115204990E-01  0.62978724077E-01  0.51100000000E-03 0. -1.
</event>
<event>
 8    1  0.1106905E+005  0.1043930E+01  0.7957747E-01            NaN
         13   -1    0    0    0    0  0.00000000000E+00  0.00000000000E+00  0.74505805969E-08  0.10566000000E+00  0.10566000000E+00 0.  1.
     999900   -1    0    0    0    0 -0.00000000000E+00 -0.00000000000E+00 -0.74505805969E-08  0.93827000000E+00  0.93827000000E+00 0.  1.
     999902    2    1    2    0    0 -0.28160136024E-03  0.18187256404E-01  0.15204246087E-01  0.10202229400E+01  0.10199474607E+01 0.  0.
     999903    2    3    3    0    0  0.80602447560E-01  0.44156168359E-01  0.93599690484E-01  0.13266310570E+00  0.19800903978E-01 0.  0.
         14    1    1    2    0    0  0.28160136024E-03 -0.18187256404E-01 -0.15204246087E-01  0.23707060002E-01  0.00000000000E+00 0. -1.
     999901    1    3    3    0    0 -0.80884048920E-01 -0.25968911955E-01 -0.78395444397E-01  0.88755983430E+00  0.88000000000E+00 0.  1.
        -11    1    4    4    0    0  0.41279733949E-01  0.26923797901E-01  0.37043538672E-01  0.61655431283E-01  0.51100000000E-03 0. -1.
         11    1    4    4    0    0  0.39322713611E-01  0.17232370458E-01  0.56556151812E-01  0.71007674417E-01  0.51100000000E-03 0.  1.
</event>
<event>
 8    1  0.1106905E+005  0.1043930E+01  0.7957747E-01            NaN
         13   -1    0    0    0    0  0.00000000000E+00  0.00000000000E+00  0.74505805969E-08  0.10566000000E+00  0.10566000000E+00 0. -1.
     999900   -1    0    0    0    0 -0.00000000000E+00 -0.00000000000E+00 -0.74505805969E-08  0.93827000000E+00  0.93827000000E+00 0. -1.
     999902    2    1    2    0    0  0.23248427925E-01 -0.36451430833E-02  0.63933645671E-02  0.10195445211E+01  0.10192528533E+01 0.  0.
     999903    2    3    3    0    0 -0.43993529313E-01 -0.11535997569E+00  0.33661282747E-01  0.12951911475E+00  0.19969089075E-01 0.  0.
         14    1    1    2    0    0 -0.23248427925E-01  0.36451430833E-02 -0.63933645671E-02  0.24385478867E-01  0.00000000000E+00 0.  1.
     999901    1    3    3    0    0  0.67241957238E-01  0.11171483261E+00 -0.27267918180E-01  0.89002540638E+00  0.88000000000E+00 0.  1.
        -11    1    4    4    0    0 -0.24812489898E-01 -0.63425608829E-01  0.82689444910E-02  0.68608338227E-01  0.51100000000E-03 0.  1.
         11    1    4    4    0    0 -0.19181039415E-01 -0.51934366859E-01  0.25392338256E-01  0.60910776528E-01  0.51100000000E-03 0. -1.
</event>
<event>
 8    1  0.1106905E+005  0.1043930E+01  0.7957747E-01            NaN
         13   -1    0    0    0    0  0.00000000000E+00  0.00000000000E+00  0.74505805969E-08  0.10566000000E+00  0.10566000000E+00 0.  1.
     999900   -1    0    0    0    0 -0.00000000000E+00 -0.00000000000E+00 -0.74505805969E-08  0.93827000000E+00  0.93827000000E+00 0.  1.
     999902    2    1    2    0    0  0.88771101588E-02  0.17987006346E-01  0.12034963490E-01  0.10205382102E+01  0.10202700930E+01 0.  0.
     999903    2    3    3    0    0  0.40176310803E-01 -0.11324463762E+00 -0.39884388316E-01  0.12874394953E+00  0.23361425696E-01 0.  0.
         14    1    1    2    0    0 -0.88771101588E-02 -0.17987006346E-01 -0.12034963490E-01  0.23391789762E-01  0.00000000000E+00 0. -1.
     999901    1    3    3    0    0 -0.31299200644E-01  0.13123164396E+00  0.51919351807E-01  0.89179426071E+00  0.88000000000E+00 0. -1.
        -11    1    4    4    0    0  0.33192835176E-01 -0.61933105075E-01 -0.18108360400E-01  0.72564782426E-01  0.51100000000E-03 0.  1.
         11    1    4    4    0    0  0.69834756271E-02 -0.51311532543E-01 -0.21776027916E-01  0.56179167104E-01  0.51100000000E-03 0. -1.
</event>
<event>
 8    1  0.1106905E+005  0.1043930E+01  0.7957747E-01            NaN
         13   -1    0    0    0    0  0.00000000000E+00  0.00000000000E+00  0.74505805969E-08  0.10566000000E+00  0.10566000000E+00 0.  1.
     999900   -1    0    0    0    0 -0.00000000000E+00 -0.00000000000E+00 -0.74505805969E-08  0.93827000000E+00  0.93827000000E+00 0. -1.
     999902    2    1    2    0    0  0.24118925853E-01 -0.76384529588E-02  0.49493282214E-02  0.10181508534E+01  0.10178244426E+01 0.  0.
     999903    2    3    3    0    0  0.81803510876E-01 -0.42897995589E-02 -0.99212982003E-01  0.13012579089E+00  0.19475340446E-01 0.  0.
         14    1    1    2    0    0 -0.24118925853E-01  0.76384529588E-02 -0.49493282214E-02  0.25779146568E-01  0.00000000000E+00 0. -1.
     999901    1    3    3    0    0 -0.57684585022E-01 -0.33486533999E-02  0.10416231022E+00  0.88802506254E+00  0.88000000000E+00 0.  1.
        -11    1    4    4    0    0  0.42519938134E-01 -0.11827590340E-01 -0.54461332417E-01  0.70100890735E-01  0.51100000000E-03 0.  1.
         11    1    4    4    0    0  0.39283572741E-01  0.75377907814E-02 -0.44751649585E-01  0.60024900157E-01  0.51100000000E-03 0. -1.
</event>
<event>
 8    1  0.1106905E+005  0.1043930E+01  0.7957747E-01            NaN
         13   -1    0    0    0    0  0.00000000000E+00  0.00000000000E+00  0.74505805969E-08  0.10566000000E+00  0.10566000000E+00 0. -1.
     999900   -1    0    0    0    0 -0.00000000000E+00 -0.00000000000E+00 -0.74505805969E-08  0.93827000000E+00  0.93827000000E+00 0. -1.
     999902    2    1    2    0    0  0.43563789054E-02 -0.20901918196E-02 -0.23042448603E-01  0.10203863941E+01  0.10201147445E+01 0.  0.
     999903    2    3    3    0    0  0.12147818032E+00  0.40444547270E-01 -0.23563691908E-01  0.13160802352E+00  0.19305817275E-01 0.  0.
         14    1    1    2    0    0 -0.43563789054E-02  0.20901918196E-02  0.23042448603E-01  0.23543605855E-01  0.00000000000E+00 0. -1.
     999901    1    3    3    0    0 -0.11712180142E+00 -0.42534739089E-01  0.52124330413E-03  0.88877837062E+00  0.88000000000E+00 0. -1.
        -11    1    4    4    0    0  0.77772320573E-01  0.32331613624E-01 -0.84308339536E-02  0.84647546740E-01  0.51100000000E-03 0. -1.
         11    1    4    4    0    0  0.43705859747E-01  0.81129336460E-02 -0.15132857954E-01  0.46960476781E-01  0.51100000000E-03 0.  1.
</event>
<event>
 8    1  0.1106905E+005  0.1043930E+01  0.7957747E-01            NaN
         13   -1    0    0    0    0  0.00000000000E+00  0.00000000000E+00  0.74505805969E-08  0.10566000000E+00  0.10566000000E+00 0. -1.
     999900   -1    0    0    0    0 -0.00000000000E+00 -0.00000000000E+00 -0.74505805969E-08  0.93827000000E+00  0.93827000000E+00 0. -1.
     999902    2    1    2    0    0 -0.22877721334E-01 -0.41607931997E-02 -0.14846101076E-02  0.10206296481E+01  0.10203636470E+01 0.  0.
     999903    2    3    3    0    0 -0.12350702416E+00  0.98431522216E-02  0.45483548249E-01  0.13353981327E+00  0.20328696595E-01 0.  0.
         14    1    1    2    0    0  0.22877721334E-01  0.41607931997E-02  0.14846101076E-02  0.23300351943E-01  0.00000000000E+00 0.  1.
     999901    1    3    3    0    0  0.10062930283E+00 -0.14003945421E-01 -0.46968158356E-01  0.88708983478E+00  0.88000000000E+00 0. -1.
        -11    1    4    4    0    0 -0.73469434534E-01  0.24817415141E-02  0.16853858791E-01  0.75420358849E-01  0.51100000000E-03 0. -1.
         11    1    4    4    0    0 -0.50037589627E-01  0.73614107074E-02  0.28629689458E-01  0.58119454426E-01  0.51100000000E-03 0.  1.
</event>
<event>
 8    1  0.1106905E+005  0.1043930E+01  0.7957747E-01            NaN
         13   -1    0    0    0    0  0.00000000000E+00  0.00000000000E+00  0.74505805969E-08  0.10566000000E+00  0.10566000000E+00 0.  1.
     999900   -1    0    0    0    0 -0.00000000000E+00 -0.00000000000E+00 -0.74505805969E-08  0.93827000000E+00  0.93827000000E+00 0.  1.
     999902    2    1    2    0    0 -0.62036070247E-02 -0.50163461031E-02 -0.21845079488E-01  0.10206736898E+01  0.10204087049E+01 0.  0.
     999903    2    3    3    0    0  0.80067556184E-01 -0.96181502614E-01 -0.36139471420E-01  0.13165280755E+00  0.19097260071E-01 0.  0.
         14    1    1    2    0    0  0.62036070247E-02  0.50163461031E-02  0.21845079488E-01  0.23256310244E-01  0.00000000000E+00 0.  1.
     999901    1    3    3    0    0 -0.86271163209E-01  0.91165156510E-01  0.14294391932E-01  0.88902088221E+00  0.88000000000E+00 0. -1.
        -11    1    4    4    0    0  0.22348419356E-01 -0.27610273712E-01 -0.14875012298E-02  0.35556333375E-01  0.51100000000E-03 0. -1.
         11    1    4    4    0    0  0.57719136828E-01 -0.68571228902E-01 -0.34651970190E-01  0.96096474172E-01  0.51100000000E-03 0.  1.
</event>
<event>
 8    1  0.1106905E+005  0.1043930E+01  0.7957747E-01            NaN
         13   -1    0    0    0    0  0.00000000000E+00  0.00000000000E+00  0.74505805969E-08  0.10566000000E+00  0.10566000000E+00 0. -1.
     999900   -1    0    0    0    0 -0.00000000000E+00 -0.00000000000E+00 -0.74505805969E-08  0.93827000000E+00  0.93827000000E+00 0.  1.
     999902    2    1    2    0    0 -0.75937459099E-02  0.89039390900E-02 -0.20777402909E-01  0.10200837093E+01  0.10198049463E+01 0.  0.
     999903    2    3    3    0    0  0.93959009560E-02 -0.11664241427E+00  0.48670136778E-01  0.12830262871E+00  0.19976149732E-01 0.  0.
         14    1    1    2    0    0  0.75937459099E-02 -0.89039390900E-02  0.20777402909E-01  0.23846290695E-01  0.00000000000E+00 0. -1.
     999901    1    3    3    0    0 -0.16989646866E-01  0.12554635336E+00 -0.69447539686E-01  0.89178108060E+00  0.88000000000E+00 0. -1.
        -11    1    4    4    0    0  0.12778989028E-02 -0.52975629672E-01  0.32308652239E-01  0.62065775555E-01  0.51100000000E-03 0. -1.
         11    1    4    4    0    0  0.81180020532E-02 -0.63666784598E-01  0.16361484538E-01  0.66236853153E-01  0.51100000000E-03 0.  1.
</event>
<event>
 8    1  0.1106905E+005  0.1043930E+01  0.7957747E-01            NaN
         13   -1    0    0    0    0  0.00000000000E+00  0.00000000000E+00  0.74505805969E-08  0.10566000000E+00  0.10566000000E+00 0.  1.
     999900   -1    0    0    0    0 -0.00000000000E+00 -0.00000000000E+00 -0.74505805969E-08  0.93827000000E+00  0.93827000000E+00 0.  1.
     999902    2    1    2    0    0  0.19142623752E-01  0.14318791338E-01  0.16424027304E-02  0.10199682531E+01  0.10196867519E+01 0.  0.
     999903    2    3    3    0    0 -0.44277850578E-01 -0.10118689906E+00  0.61836980124E-01  0.12812347496E+00  0.19811515154E-01 0.  0.
         14    1    1    2    0    0 -0.19142623752E-01 -0.14318791338E-01 -0.16424027304E-02  0.23961746936E-01  0.00000000000E+00 0. -1.
     999901    1    3    3    0    0  0.63420474330E-01  0.11550569040E+00 -0.60194577393E-01  0.89184477810E+00  0.88000000000E+00 0. -1.
        -11    1    4    4    0    0 -0.44218839503E-01 -0.83227192251E-01  0.51979349041E-01  0.10762985248E+00  0.51100000000E-03 0. -1.
         11    1    4    4    0    0 -0.59011075428E-04 -0.17959706808E-01  0.98576310825E-02  0.20493622484E-01  0.51100000000E-03 0.  1.
</event>
<event>
 8    1  0.1106905E+005  0.1043930E+01  0.7957747E-01            NaN
         13   -1    0    0    0    0  0.00000000000E+00  0.00000000000E+00  0.74505805969E-08  0.10566000000E+00  0.10566000000E+00 0.  1.
     999900   -1    0    0    0    0 -0.00000000000E+00 -0.00000000000E+00 -0.74505805969E-08  0.93827000000E+00  0.93827000000E+00 0.  1.
     999902    2    1    2    0    0 -0.96225096915E-02  0.12957621414E-01 -0.12029635477E-01  0.10238003012E+01  0.10236023895E+01 0.  0.
     999903    2    3    3    0    0 -0.83218540515E-01 -0.45570681155E-01  0.90835448632E-01  0.13283275771E+00  0.19785103671E-01 0.  0.
         14    1    1    2    0    0  0.96225096915E-02 -0.12957621414E-01  0.12029635477E-01  0.20129698835E-01  0.00000000000E+00 0.  1.
     999901    1    3    3    0    0  0.73596030823E-01  0.58528302570E-01 -0.10286508411E+00  0.89096754345E+00  0.88000000000E+00 0.  1.
        -11    1    4    4    0    0 -0.12476550845E-01 -0.12100021569E-01  0.25603601485E-01  0.30949642534E-01  0.51100000000E-03 0. -1.
         11    1    4    4    0    0 -0.70741989670E-01 -0.33470659586E-01  0.65231847147E-01  0.10188311518E+00  0.51100000000E-03 0.  1.
</event>
<event>
 7    1  0.1106905E+005  0.1043930E+01  0.7957747E-01            NaN
         13   -1    0    0    0    0  0.00000000000E+00  0.00000000000E+00  0.74505805969E-08  0.10566000000E+00  0.10566000000E+00 0.  1.
     999900   -1    0    0    0    0 -0.00000000000E+00 -0.00000000000E+00 -0.74505805969E-08  0.93827000000E+00  0.93827000000E+00 0. -1.
     999902    2    1    2    0    0  0.42968798269E-02  0.11211251298E-01 -0.19832315300E-01  0.10207464700E+01  0.10204831601E+01 0.  0.
         14    1    1    2    0    0 -0.42968798269E-02 -0.11211251298E-01  0.19832315300E-01  0.23183529975E-01  0.00000000000E+00 0.  1.
     999901    1    3    3    0    0 -0.87263966049E-02 -0.25041912140E-01 -0.13294854123E+00  0.89038113299E+00  0.88000000000E+00 0. -1.
        -11    1    3    3    0    0  0.13377345998E-01 -0.83387415211E-02  0.54357824406E-01  0.56599665999E-01  0.51100000000E-03 0.  1.
         11    1    3    3    0    0 -0.35406956649E-03  0.44591904960E-01  0.58758401525E-01  0.73765671040E-01  0.51100000000E-03 0. -1.
</event>
<event>
 8    1  0.1106905E+005  0.1043930E+01  0.7957747E-01            NaN
         13   -1    0    0    0    0  0.00000000000E+00  0.00000000000E+00  0.74505805969E-08  0.10566000000E+00  0.10566000000E+00 0. -1.
     999900   -1    0    0    0    0 -0.00000000000E+00 -0.00000000000E+00 -0.74505805969E-08  0.93827000000E+00  0.93827000000E+00 0.  1.
     999902    2    1    2    0    0  0.91684314146E-02 -0.19045353932E-01  0.66720087076E-02  0.10217646816E+01  0.10215242352E+01 0.  0.
     999903    2    3    3    0    0 -0.52999828310E-01 -0.18726829461E-02 -0.11734752638E+00  0.13073121518E+00  0.22532641446E-01 0.  0.
         14    1    1    2    0    0 -0.91684314146E-02  0.19045353932E-01 -0.66720087076E-02  0.22165318432E-01  0.00000000000E+00 0. -1.
     999901    1    3    3    0    0  0.62168259725E-01 -0.17172670986E-01  0.12401953509E+00  0.89103346639E+00  0.88000000000E+00 0. -1.
        -11    1    4    4    0    0 -0.50900378240E-01 -0.55349954255E-02 -0.94392866175E-01  0.10738602789E+00  0.51100000000E-03 0. -1.
         11    1    4    4    0    0 -0.20994500705E-02  0.36623124794E-02 -0.22954660210E-01  0.23345187291E-01  0.51100000000E-03 0.  1.
</event>
<event>
 8    1  0.1106905E+005  0.1043930E+01  0.7957747E-01            NaN
         13   -1    0    0    0    0  0.00000000000E+00  0.00000000000E+00  0.74505805969E-08  0.10566000000E+00  0.10566000000E+00 0. -1.
     999900   -1    0    0    0    0 -0.00000000000E+00 -0.00000000000E+00 -0.74505805969E-08  0.93827000000E+00  0.93827000000E+00 0. -1.
     999902    2    1    2    0    0  0.19800466002E-01  0.47661078540E-02  0.12064697404E-01  0.10202586848E+01  0.10199840454E+01 0.  0.
     999903    2    3    3    0    0 -0.10490218523E+00 -0.67892457034E-01 -0.22732169752E-01  0.12782334251E+00  0.14429177411E-01 0.  0.
         14    1    1    2    0    0 -0.19800466002E-01 -0.47661078540E-02 -0.12064697404E-01  0.23671315160E-01  0.00000000000E+00 0.  1.
     999901    1    3    3    0    0  0.12470265123E+00  0.72658564888E-01  0.34796867156E-01  0.89243534233E+00  0.88000000000E+00 0.  1.
        -11    1    4    4    0    0 -0.41257624116E-01 -0.23537145339E-01 -0.15229701876E-01  0.49883801967E-01  0.51100000000E-03 0. -1.
         11    1    4    4    0    0 -0.63644561114E-01 -0.44355311695E-01 -0.75024678758E-02  0.77939540543E-01  0.51100000000E-03 0.  1.
</event>
<event>
 8    1  0.1106905E+005  0.1043930E+01  0.7957747E-01            NaN
         13   -1    0    0    0    0  0.00000000000E+00  0.00000000000E+00  0.74505805969E-08  0.10566000000E+00  0.10566000000E+00 0. -1.
     999900   -1    0    0    0    0 -0.00000000000E+00 -0.00000000000E+00 -0.74505805969E-08  0.93827000000E+00  0.93827000000E+00 0. -1.
     999902    2    1    2    0    0 -0.10390977600E-01  0.95537555356E-02 -0.19865753724E-01  0.10195600424E+01  0.10192687503E+01 0.  0.
     999903    2    3    3    0    0 -0.27060552792E-02 -0.12520942654E+00 -0.24475796289E-01  0.12925592262E+00  0.20574394303E-01 0.  0.
         14    1    1    2    0    0  0.10390977600E-01 -0.95537555356E-02  0.19865753724E-01  0.24369957557E-01  0.00000000000E+00 0. -1.
     999901    1    3    3    0    0 -0.76849223209E-02  0.13476318207E+00  0.46100425654E-02  0.89030411982E+00  0.88000000000E+00 0.  1.
        -11    1    4    4    0    0  0.14550882190E-02 -0.91422116502E-01 -0.26355265415E-01  0.95157668127E-01  0.51100000000E-03 0.  1.
         11    1    4    4    0    0 -0.41611434982E-02 -0.33787310034E-01  0.18794691256E-02  0.34098254497E-01  0.51100000000E-03 0. -1.
</event>
<event>
 8    1  0.1106905E+005  0.1043930E+01  0.7957747E-01            NaN
         13   -1    0    0    0    0  0.00000000000E+00  0.00000000000E+00  0.74505805969E-08  0.10566000000E+00  0.10566000000E+00 0.  1.
     999900   -1    0    0    0    0 -0.00000000000E+00 -0.00000000000E+00 -0.74505805969E-08  0.93827000000E+00  0.93827000000E+00 0.  1.
     999902    2    1    2    0    0 -0.62276419997E-03  0.22391713868E-01  0.63540932355E-02  0.10206458598E+01  0.10203802330E+01 0.  0.
     999903    2    3    3    0    0  0.50368575009E-01  0.10889281742E+00 -0.52739368928E-01  0.13296652868E+00  0.22450338078E-01 0.  0.
         14    1    1    2    0    0  0.62276419997E-03 -0.22391713868E-01 -0.63540932355E-02  0.23284140225E-01  0.00000000000E+00 0. -1.
     999901    1    3    3    0    0 -0.50991339209E-01 -0.86501103549E-01  0.59093462164E-01  0.88767933110E+00  0.88000000000E+00 0. -1.
        -11    1    4    4    0    0  0.10246232920E-01  0.33491922956E-01 -0.57981700805E-02  0.35504564349E-01  0.51100000000E-03 0. -1.
         11    1    4    4    0    0  0.40122342089E-01  0.75400894460E-01 -0.46941198848E-01  0.97461964327E-01  0.51100000000E-03 0.  1.
</event>
<event>
 8    1  0.1106905E+005  0.1043930E+01  0.7957747E-01            NaN
         13   -1    0    0    0    0  0.00000000000E+00  0.00000000000E+00  0.74505805969E-08  0.10566000000E+00  0.10566000000E+00 0.  1.
     999900   -1    0    0    0    0 -0.00000000000E+00 -0.00000000000E+00 -0.74505805969E-08  0.93827000000E+00  0.93827000000E+00 0. -1.
     999902    2    1    2    0    0 -0.12513397729E-01 -0.11153040281E-01  0.16864030656E-01  0.10201524694E+01  0.10198753306E+01 0.  0.
     999903    2    3    3    0    0 -0.91973610215E-01 -0.55570831576E-01 -0.71993629044E-01  0.13100537854E+00  0.20786156071E-01 0.  0.
         14    1    1    2    0    0  0.12513397729E-01  0.11153040281E-01 -0.16864030656E-01  0.23777530574E-01  0.00000000000E+00 0. -1.
     999901    1    3    3    0    0  0.79460212486E-01  0.44417791295E-01  0.88857659700E-01  0.88914709089E+00  0.88000000000E+00 0.  1.
        -11    1    4    4    0    0 -0.47935240052E-01 -0.26584901627E-01 -0.48854276111E-01  0.73427145176E-01  0.51100000000E-03 0. -1.
         11    1    4    4    0    0 -0.44038370163E-01 -0.28985929949E-01 -0.23139352933E-01  0.57578233359E-01  0.51100000000E-03 0.  1.
</event>
<event>
 8    1  0.1106905E+005  0.1043930E+01  0.7957747E-01            NaN
         13   -1    0    0    0    0  0.00000000000E+00  0.00000000000E+00  0.74505805969E-08  0.10566000000E+00  0.10566000000E+00 0.  1.
     999900   -1    0    0    0    0 -0.00000000000E+00 -0.00000000000E+00 -0.74505805969E-08  0.93827000000E+00  0.93827000000E+00 0.  1.
     999902    2    1    2    0    0  0.22577369179E-01 -0.54151424240E-02  0.49322640600E-02  0.10201941917E+01  0.10199180360E+01 0.  0.
     999903    2    3    3    0    0 -0.15037891019E-01  0.32089753441E-01 -0.12326876780E+00  0.12931988543E+00  0.16509185664E-01 0.  0.
         14    1    1    2    0    0 -0.22577369179E-01  0.54151424240E-02 -0.49322640600E-02  0.23735808292E-01  0.00000000000E+00 0.  1.
     999901    1    3    3    0    0  0.37615260198E-01 -0.37504895866E-01  0.12820103186E+00  0.89087430628E+00  0.88000000000E+00 0. -1.
        -11    1    4    4    0    0 -0.11380162732E-01  0.26388513144E-01 -0.70778268778E-01  0.76391663040E-01  0.51100000000E-03 0.  1.
         11    1    4    4    0    0 -0.36577282871E-02  0.57012402972E-02 -0.52490499021E-01  0.52928222392E-01  0.51100000000E-03 0. -1.
</event>
<event>
 8    1  0.1106905E+005  0.1043930E+01  0.7957747E-01            NaN
         13   -1    0    0    0    0  0.00000000000E+00  0.00000000000E+00  0.74505805969E-08  0.10566000000E+00  0.10566000000E+00 0.  1.
     999900   -1    0    0    0    0 -0.00000000000E+00 -0.00000000000E+00 -0.74505805969E-08  0.93827000000E+00  0.93827000000E+00 0. -1.
     999902    2    1    2    0    0 -0.22259580556E-01  0.25298523880E-02  0.84650081521E-02  0.10199811912E+01  0.10196999975E+01 0.  0.
     999903    2    3    3    0    0  0.32276702090E-01  0.11352708787E+00 -0.49173342987E-01  0.12946629973E+00  0.20330271212E-01 0.  0.
         14    1    1    2    0    0  0.22259580556E-01 -0.25298523880E-02 -0.84650081521E-02  0.23948808794E-01  0.00000000000E+00 0. -1.
     999901    1    3    3    0    0 -0.54536282646E-01 -0.11099723549E+00  0.57638351139E-01  0.89051489147E+00  0.88000000000E+00 0. -1.
        -11    1    4    4    0    0  0.26237483121E-01  0.63677089217E-01 -0.35172522131E-01  0.77333981184E-01  0.51100000000E-03 0. -1.
         11    1    4    4    0    0  0.60392189686E-02  0.49849998657E-01 -0.14000820855E-01  0.52132318551E-01  0.51100000000E-03 0.  1.
</event>
<event>
 8    1  0.1106905E+005  0.1043930E+01  0.7957747E-01            NaN
         13   -1    0    0    0    0  0.00000000000E+00  0.00000000000E+00  0.74505805969E-08  0.10566000000E+00  0.10566000000E+00 0. -1.
     999900   -1    0    0    0    0 -0.00000000000E+00 -0.00000000000E+00 -0.74505805969E-08  0.93827000000E+00  0.93827000000E+00 0.  1.
     999902    2    1    2    0    0  0.21569018129E-02  0.89693146726E-02 -0.30799583207E-01  0.10117785590E+01  0.10112675894E+01 0.  0.
     999903    2    3    3    0    0  0.55406342494E-02  0.10989778685E+00  0.49762213000E-01  0.12234716248E+00  0.19604288886E-01 0.  0.
         14    1    1    2    0    0 -0.21569018129E-02 -0.89693146726E-02  0.30799583207E-01  0.32151440976E-01  0.00000000000E+00 0. -1.
     999901    1    3    3    0    0 -0.33837324365E-02 -0.10092847218E+00 -0.80561796207E-01  0.88943139654E+00  0.88000000000E+00 0. -1.
        -11    1    4    4    0    0  0.11127234336E-01  0.37064608025E-01  0.18308449523E-01  0.42814261140E-01  0.51100000000E-03 0.  1.
         11    1    4    4    0    0 -0.55866000866E-02  0.72833178826E-01  0.31453763477E-01  0.79532901345E-01  0.51100000000E-03 0. -1.
</event>
<event>
 8    1  0.1106905E+005  0.1043930E+01  0.7957747E-01            NaN
         13   -1    0    0    0    0  0.00000000000E+00  0.00000000000E+00  0.74505805969E-08  0.10566000000E+00  0.10566000000E+00 0. -1.
     999900   -1    0    0    0    0 -0.00000000000E+00 -0.00000000000E+00 -0.74505805969E-08  0.93827000000E+00  0.93827000000E+00 0. -1.
     999902    2    1    2    0    0  0.20480483790E-02 -0.25685357398E-02  0.23409591691E-01  0.10202910309E+01  0.10200171503E+01 0.  0.
     999903    2    3    3    0    0 -0.34189710995E-01 -0.55084727948E-01  0.11464129644E+00  0.13327674148E+00  0.20415665047E-01 0.  0.
         14    1    1    2    0    0 -0.20480483790E-02  0.25685357398E-02 -0.23409591691E-01  0.23638969122E-01  0.00000000000E+00 0.  1.
     999901    1    3    3    0    0  0.36237759374E-01  0.52516192208E-01 -0.91231704746E-01  0.88701428940E+00  0.88000000000E+00 0. -1.
        -11    1    4    4    0    0 -0.49318182651E-03 -0.77101294583E-02  0.51250209147E-02  0.92852724760E-02  0.51100000000E-03 0.  1.
         11    1    4    4    0    0 -0.33696529168E-01 -0.47374598490E-01  0.10951627552E+00  0.12399146900E+00  0.51100000000E-03 0. -1.
</event>
<event>
 8    1  0.1106905E+005  0.1043930E+01  0.7957747E-01            NaN
         13   -1    0    0    0    0  0.00000000000E+00  0.00000000000E+00  0.74505805969E-08  0.10566000000E+00  0.10566000000E+00 0. -1.
     999900   -1    0    0    0    0 -0.00000000000E+00 -0.00000000000E+00 -0.74505805969E-08  0.93827000000E+00  0.93827000000E+00 0. -1.
     999902    2    1    2    0    0  0.46890072048E-02 -0.22663987627E-01  0.10684244802E-01  0.10184388994E+01  0.10181198336E+01 0.  0.
     999903    2    3    3    0    0 -0.17152033818E-01 -0.11799964017E+00  0.52936261443E-01  0.13201284458E+00  0.20175133545E-01 0.  0.
         14    1    1    2    0    0 -0.46890072048E-02  0.22663987627E-01 -0.10684244802E-01  0.25491100618E-01  0.00000000000E+00 0.  1.
     999901    1    3    3    0    0  0.21841041022E-01  0.95335652547E-01 -0.42252016642E-01  0.88642605480E+00  0.88000000000E+00 0.  1.
        -11    1    4    4    0    0 -0.14145674656E-01 -0.11416691727E+00  0.46886026732E-01  0.12422860272E+00  0.51100000000E-03 0. -1.
         11    1    4    4    0    0 -0.30063591618E-02 -0.38327229039E-02  0.60502347115E-02  0.77842418598E-02  0.51100000000E-03 0.  1.
</event>
<event>
 8    1  0.1106905E+005  0.1043930E+01  0.7957747E-01            NaN
         13   -1    0    0    0    0  0.00000000000E+00  0.00000000000E+00  0.74505805969E-08  0.10566000000E+00  0.10566000000E+00 0.  1.
     999900   -1    0    0    0    0 -0.00000000000E+00 -0.00000000000E+00 -0.74505805969E-08  0.93827000000E+00  0.93827000000E+00 0. -1.
     999902    2    1    2    0    0 -0.97451185762E-02 -0.67881642189E-02 -0.21932915372E-01  0.10189880817E+01  0.10186827825E+01 0.  0.
     999903    2    3    3    0    0  0.69260924639E-01  0.13477668326E-01  0.10306811971E+00  0.12641992322E+00  0.19499652848E-01 0.  0.
         14    1    1    2    0    0  0.97451185762E-02  0.67881642189E-02  0.21932915372E-01  0.24941918255E-01  0.00000000000E+00 0. -1.
     999901    1    3    3    0    0 -0.79006043216E-01 -0.20265832545E-01 -0.12500103509E+00  0.89256815852E+00  0.88000000000E+00 0. -1.
        -11    1    4    4    0    0  0.15761310690E-01  0.11625340805E-01  0.25059925637E-01  0.31809251130E-01  0.51100000000E-03 0.  1.
         11    1    4    4    0    0  0.53499613949E-01  0.18523275209E-02  0.78008194077E-01  0.94610672094E-01  0.51100000000E-03 0. -1.
</event>
<event>
 8    1  0.1106905E+005  0.1043930E+01  0.7957747E-01            NaN
         13   -1    0    0    0    0  0.00000000000E+00  0.00000000000E+00  0.74505805969E-08  0.10566000000E+00  0.10566000000E+00 0.  1.
     999900   -1    0    0    0    0 -0.00000000000E+00 -0.00000000000E+00 -0.74505805969E-08  0.93827000000E+00  0.93827000000E+00 0. -1.
     999902    2    1    2    0    0 -0.38325666211E-02  0.19071355929E-01 -0.13904637931E-01  0.10200188281E+01  0.10197385281E+01 0.  0.
     999903    2    3    3    0    0 -0.84515797894E-02 -0.42107516543E-01  0.11871025086E+00  0.12797011957E+00  0.20970352721E-01 0.  0.
         14    1    1    2    0    0  0.38325666211E-02 -0.19071355929E-01  0.13904637931E-01  0.23911171863E-01  0.00000000000E+00 0.  1.
     999901    1    3    3    0    0  0.46190131684E-02  0.61178872472E-01 -0.13261488879E+00  0.89204870856E+00  0.88000000000E+00 0. -1.
        -11    1    4    4    0    0 -0.14460026290E-02 -0.16339633183E-01  0.74767563080E-01  0.76547528674E-01  0.51100000000E-03 0. -1.
         11    1    4    4    0    0 -0.70055771605E-02 -0.25767883360E-01  0.43942687784E-01  0.51422590900E-01  0.51100000000E-03 0.  1.
</event>
<event>
 8    1  0.1106905E+005  0.1043930E+01  0.7957747E-01            NaN
         13   -1    0    0    0    0  0.00000000000E+00  0.00000000000E+00  0.74505805969E-08  0.10566000000E+00  0.10566000000E+00 0. -1.
     999900   -1    0    0    0    0 -0.00000000000E+00 -0.00000000000E+00 -0.74505805969E-08  0.93827000000E+00  0.93827000000E+00 0.  1.
     999902    2    1    2    0    0 -0.11350612228E-01  0.97680177023E-02  0.18092288439E-01  0.10204442284E+01  0.10201739272E+01 0.  0.
     999903    2    3    3    0    0 -0.11944541532E+00 -0.42251465483E-02 -0.50157784980E-01  0.13109707028E+00  0.19636174187E-01 0.  0.
         14    1    1    2    0    0  0.11350612228E-01 -0.97680177023E-02 -0.18092288439E-01  0.23485771624E-01  0.00000000000E+00 0.  1.
     999901    1    3    3    0    0  0.10809480309E+00  0.13993164251E-01  0.68250073419E-01  0.88934715810E+00  0.88000000000E+00 0.  1.
        -11    1    4    4    0    0 -0.50993507242E-01  0.23360643392E-02 -0.11955716215E-01  0.52430861605E-01  0.51100000000E-03 0.  1.
         11    1    4    4    0    0 -0.68451908076E-01 -0.65612108875E-02 -0.38202068765E-01  0.78666208670E-01  0.51100000000E-03 0. -1.
</event>
<event>
 8    1  0.1106905E+005  0.1043930E+01  0.7957747E-01            NaN
         13   -1    0    0    0    0  0.00000000000E+00  0.00000000000E+00  0.74505805969E-08  0.10566000000E+00  0.10566000000E+00 0. -1.
     999900   -1    0    0    0    0 -0.00000000000E+00 -0.00000000000E+00 -0.74505805969E-08  0.93827000000E+00  0.93827000000E+00 0. -1.
     999902    2    1    2    0    0  0.22853122548E-01 -0.16874980039E-01  0.44197408206E-02  0.10151799692E+01  0.10147727852E+01 0.  0.
     999903    2    3    3    0    0  0.49875774463E-01 -0.11115935321E+00  0.37918977751E-01  0.12909759967E+00  0.19604761725E-01 0.  0.
         14    1    1    2    0    0 -0.22853122548E-01  0.16874980039E-01 -0.44197408206E-02  0.28750030790E-01  0.00000000000E+00 0.  1.
     999901    1    3    3    0    0 -0.27022651915E-01  0.94284373168E-01 -0.33499236930E-01  0.88608236954E+00  0.88000000000E+00 0. -1.
        -11    1    4    4    0    0  0.37550368424E-01 -0.99483828287E-01  0.34302220616E-01  0.11173166838E+00  0.51100000000E-03 0. -1.
         11    1    4    4    0    0  0.12325406039E-01 -0.11675524921E-01  0.36167571354E-02  0.17365931284E-01  0.51100000000E-03 0.  1.
</event>
<event>
 8    1  0.1106905E+005  0.1043930E+01  0.7957747E-01            NaN
         13   -1    0    0    0    0  0.00000000000E+00  0.00000000000E+00  0.74505805969E-08  0.10566000000E+00  0.10566000000E+00 0.  1.
     999900   -1    0    0    0    0 -0.00000000000E+00 -0.00000000000E+00 -0.74505805969E-08  0.93827000000E+00  0.93827000000E+00 0.  1.
     999902    2    1    2    0    0  0.98581877701E-02 -0.14973578908E-01 -0.14148502614E-01  0.10210920479E+01  0.10208366168E+01 0.  0.
     999903    2    3    3    0    0  0.39708077076E-01  0.54161966251E-01 -0.11238073693E+00  0.13242995722E+00  0.19950277253E-01 0.  0.
         14    1    1    2    0    0 -0.98581877701E-02  0.14973578908E-01  0.14148502614E-01  0.22837952133E-01  0.00000000000E+00 0.  1.
     999901    1    3    3    0    0 -0.29849889306E-01 -0.69135545159E-01  0.98232234317E-01  0.88866209065E+00  0.88000000000E+00 0. -1.
        -11    1    4    4    0    0  0.35428485844E-01  0.55177607326E-01 -0.10649085348E+00  0.12506122083E+00  0.51100000000E-03 0.  1.
         11    1    4    4    0    0  0.42795912318E-02 -0.10156410752E-02 -0.58898834542E-02  0.73687363916E-02  0.51100000000E-03 0. -1.
</event>
<event>
 8    1  0.1114926E+005  0.1043930E+01  0.7957747E-01            NaN
         13   -1    0    0    0    0  0.00000000000E+00  0.00000000000E+00  0.74505805969E-08  0.10566000000E+00  0.10566000000E+00 0.  1.
     999900   -1    0    0    0    0 -0.00000000000E+00 -0.00000000000E+00 -0.74505805969E-08  0.93827000000E+00  0.93827000000E+00 0.  1.
     999902    2    1    2    0    0 -0.72486489845E-02 -0.16776870839E-01 -0.15225658860E-01  0.10201428817E+01  0.10198655167E+01 0.  0.
     999903    2    3    3    0    0 -0.15968040010E-01 -0.47858656267E-01  0.11766058315E+00  0.12958077920E+00  0.20043358743E-01 0.  0.
         14    1    1    2    0    0  0.72486489845E-02  0.16776870839E-01  0.15225658860E-01  0.23787118257E-01  0.00000000000E+00 0. -1.
     999901    1    3    3    0    0  0.87193910252E-02  0.31081785427E-01 -0.13288624201E+00  0.89056210254E+00  0.88000000000E+00 0.  1.
        -11    1    4    4    0    0  0.26686012873E-02 -0.19321768376E-01  0.53145419890E-01  0.56614034853E-01  0.51100000000E-03 0.  1.
         11    1    4    4    0    0 -0.18636641297E-01 -0.28536887891E-01  0.64515163261E-01  0.72966744349E-01  0.51100000000E-03 0. -1.
</event>
<event>
 8    1  0.1106905E+005  0.1043930E+01  0.7957747E-01            NaN
         13   -1    0    0    0    0  0.00000000000E+00  0.00000000000E+00  0.74505805969E-08  0.10566000000E+00  0.10566000000E+00 0.  1.
     999900   -1    0    0    0    0 -0.00000000000E+00 -0.00000000000E+00 -0.74505805969E-08  0.93827000000E+00  0.93827000000E+00 0. -1.
     999902    2    1    2    0    0  0.10876627426E-01  0.15925431949E-02  0.20423884196E-01  0.10207357709E+01  0.10204722151E+01 0.  0.
     999903    2    3    3    0    0 -0.11719326652E+00 -0.50061179966E-01 -0.12111563678E-01  0.12937245540E+00  0.18712530151E-01 0.  0.
         14    1    1    2    0    0 -0.10876627426E-01 -0.15925431949E-02 -0.20423884196E-01  0.23194229103E-01  0.00000000000E+00 0. -1.
     999901    1    3    3    0    0  0.12806989394E+00  0.51653723161E-01  0.32535447874E-01  0.89136331550E+00  0.88000000000E+00 0.  1.
        -11    1    4    4    0    0 -0.38969192073E-01 -0.24448152771E-01  0.10304752418E-02  0.46017747717E-01  0.51100000000E-03 0.  1.
         11    1    4    4    0    0 -0.78224074443E-01 -0.25613027195E-01 -0.13142038920E-01  0.83354707681E-01  0.51100000000E-03 0. -1.
</event>
<event>
 8    1  0.1106905E+005  0.1043930E+01  0.7957747E-01            NaN
         13   -1    0    0    0    0  0.00000000000E+00  0.00000000000E+00  0.74505805969E-08  0.10566000000E+00  0.10566000000E+00 0. -1.
     999900   -1    0    0    0    0 -0.00000000000E+00 -0.00000000000E+00 -0.74505805969E-08  0.93827000000E+00  0.93827000000E+00 0.  1.
     999902    2    1    2    0    0  0.17985627346E-02 -0.21445855325E-01 -0.87089958011E-02  0.10207134941E+01  0.10204494259E+01 0.  0.
     999903    2    3    3    0    0 -0.53747679021E-01 -0.60569660612E-02  0.11649524707E+00  0.12998440772E+00  0.19982588000E-01 0.  0.
         14    1    1    2    0    0 -0.17985627346E-02  0.21445855325E-01  0.87089958011E-02  0.23216505904E-01  0.00000000000E+00 0. -1.
     999901    1    3    3    0    0  0.55546241756E-01 -0.15388889264E-01 -0.12520424287E+00  0.89072908638E+00  0.88000000000E+00 0.  1.
        -11    1    4    4    0    0 -0.34366851470E-01 -0.34034127281E-02  0.50743923947E-01  0.61382983282E-01  0.51100000000E-03 0.  1.
         11    1    4    4    0    0 -0.19380827552E-01 -0.26535533331E-02  0.65751323119E-01  0.68601424437E-01  0.51100000000E-03 0. -1.
</event>
<event>
 8    1  0.1106905E+005  0.1043930E+01  0.7957747E-01            NaN
         13   -1    0    0    0    0  0.00000000000E+00  0.00000000000E+00  0.74505805969E-08  0.10566000000E+00  0.10566000000E+00 0. -1.
     999900   -1    0    0    0    0 -0.00000000000E+00 -0.00000000000E+00 -0.74505805969E-08  0.93827000000E+00  0.93827000000E+00 0.  1.
     999902    2    1    2    0    0  0.25550374453E-02 -0.64238436169E-02  0.22352283438E-01  0.10205330225E+01  0.10202647849E+01 0.  0.
     999903    2    3    3    0    0  0.97096376374E-01  0.50587664736E-01 -0.65906379159E-01  0.12925418373E+00  0.19395233132E-01 0.  0.
         14    1    1    2    0    0 -0.25550374453E-02  0.64238436169E-02 -0.22352283438E-01  0.23396977541E-01  0.00000000000E+00 0.  1.
     999901    1    3    3    0    0 -0.94541338928E-01 -0.57011508353E-01  0.88258662597E-01  0.89127883873E+00  0.88000000000E+00 0. -1.
        -11    1    4    4    0    0  0.82490371283E-01  0.37117909514E-01 -0.59893647161E-01  0.10848921906E+00  0.51100000000E-03 0.  1.
         11    1    4    4    0    0  0.14606005090E-01  0.13469755222E-01 -0.60127319982E-02  0.20764964665E-01  0.51100000000E-03 0. -1.
</event>
<event>
 8    1  0.1106905E+005  0.1043930E+01  0.7957747E-01            NaN
         13   -1    0    0    0    0  0.00000000000E+00  0.00000000000E+00  0.74505805969E-08  0.10566000000E+00  0.10566000000E+00 0. -1.
     999900   -1    0    0    0    0 -0.00000000000E+00 -0.00000000000E+00 -0.74505805969E-08  0.93827000000E+00  0.93827000000E+00 0. -1.
     999902    2    1    2    0    0 -0.13101082485E-01  0.22729836769E-02  0.20395493714E-01  0.10195829061E+01  0.10192921669E+01 0.  0.
     999903    2    3    3    0    0 -0.11966725573E-01  0.13799979539E-01  0.12991400665E+00  0.13271850662E+00  0.20072641063E-01 0.  0.
         14    1    1    2    0    0  0.13101082485E-01 -0.22729836769E-02 -0.20395493714E-01  0.24347093891E-01  0.00000000000E+00 0. -1.
     999901    1    3    3    0    0 -0.11343569114E-02 -0.11526995862E-01 -0.10951851294E+00  0.88686439949E+00  0.88000000000E+00 0. -1.
        -11    1    4    4    0    0 -0.11061492084E-01  0.18793715817E-01  0.11134983764E+00  0.11346632904E+00  0.51100000000E-03 0.  1.
         11    1    4    4    0    0 -0.90523348917E-03 -0.49937362787E-02  0.18564169013E-01  0.19252177586E-01  0.51100000000E-03 0. -1.
</event>
<event>
 7    1  0.1106905E+005  0.1043930E+01  0.7957747E-01            NaN
         13   -1    0    0    0    0  0.00000000000E+00  0.00000000000E+00  0.74505805969E-08  0.10566000000E+00  0.10566000000E+00 0.  1.
     999900   -1    0    0    0    0 -0.00000000000E+00 -0.00000000000E+00 -0.74505805969E-08  0.93827000000E+00  0.93827000000E+00 0. -1.
     999902    2    1    2    0    0 -0.17721580834E-02 -0.28941434643E-02 -0.26066503109E-01  0.10176435169E+01  0.10173039606E+01 0.  0.
         14    1    1    2    0    0  0.17721580834E-02  0.28941434643E-02  0.26066503109E-01  0.26286483124E-01  0.00000000000E+00 0.  1.
     999901    1    3    3    0    0 -0.35681616816E-01 -0.86143424081E-01  0.61371692926E-01  0.88705149342E+00  0.88000000000E+00 0.  1.
        -11    1    3    3    0    0  0.32850470081E-01  0.37334125053E-01 -0.56205197020E-01  0.75048488133E-01  0.51100000000E-03 0. -1.
         11    1    3    3    0    0  0.10589886524E-02  0.45915155563E-01 -0.31232999015E-01  0.55543535320E-01  0.51100000000E-03 0.  1.
</event>
<event>
 8    1  0.1106905E+005  0.1043930E+01  0.7957747E-01            NaN
         13   -1    0    0    0    0  0.00000000000E+00  0.00000000000E+00  0.74505805969E-08  0.10566000000E+00  0.10566000000E+00 0.  1.
     999900   -1    0    0    0    0 -0.00000000000E+00 -0.00000000000E+00 -0.74505805969E-08  0.93827000000E+00  0.93827000000E+00 0. -1.
     999902    2    1    2    0    0  0.67696952645E-03  0.71975251177E-02 -0.17706212701E-01  0.10248048170E+01  0.10246263418E+01 0.  0.
     999903    2    3    3    0    0 -0.12677915290E+00 -0.36252553279E-02 -0.42376418229E-01  0.13521456598E+00  0.20028029000E-01 0.  0.
         14    1    1    2    0    0 -0.67696952645E-03 -0.71975251177E-02  0.17706212701E-01  0.19125182974E-01  0.00000000000E+00 0.  1.
     999901    1    3    3    0    0  0.12745612242E+00  0.10822780446E-01  0.24670205528E-01  0.88959025105E+00  0.88000000000E+00 0. -1.
        -11    1    4    4    0    0 -0.75181307538E-01 -0.11493336448E-01 -0.21918320727E-01  0.79151751025E-01  0.51100000000E-03 0. -1.
         11    1    4    4    0    0 -0.51597845357E-01  0.78680811205E-02 -0.20458097502E-01  0.56062814953E-01  0.51100000000E-03 0.  1.
</event>
<event>
 8    1  0.1106905E+005  0.1043930E+01  0.7957747E-01            NaN
         13   -1    0    0    0    0  0.00000000000E+00  0.00000000000E+00  0.74505805969E-08  0.10566000000E+00  0.10566000000E+00 0.  1.
     999900   -1    0    0    0    0 -0.00000000000E+00 -0.00000000000E+00 -0.74505805969E-08  0.93827000000E+00  0.93827000000E+00 0.  1.
     999902    2    1    2    0    0  0.14944985403E-01  0.37839293779E-03  0.18604291438E-01  0.10200633825E+01  0.10197841384E+01 0.  0.
     999903    2    3    3    0    0 -0.66777190912E-02  0.12574191029E+00  0.29249315400E-01  0.13085200756E+00  0.20275736584E-01 0.  0.
         14    1    1    2    0    0 -0.14944985403E-01 -0.37839293779E-03 -0.18604291438E-01  0.23866617477E-01  0.00000000000E+00 0. -1.
     999901    1    3    3    0    0  0.21622704494E-01 -0.12536351735E+00 -0.10645023962E-01  0.88921137497E+00  0.88000000000E+00 0. -1.
        -11    1    4    4    0    0 -0.12647683299E-02  0.10521149366E+00  0.17770850825E-01  0.10671046012E+00  0.51100000000E-03 0. -1.
         11    1    4    4    0    0 -0.54129507613E-02  0.20530416628E-01  0.11478464575E-01  0.24141547442E-01  0.51100000000E-03 0.  1.
</event>
<event>
 8    1  0.1106905E+005  0.1043930E+01  0.7957747E-01            NaN
         13   -1    0    0    0    0  0.00000000000E+00  0.00000000000E+00  0.74505805969E-08  0.10566000000E+00  0.10566000000E+00 0. -1.
     999900   -1    0    0    0    0 -0.00000000000E+00 -0.00000000000E+00 -0.74505805969E-08  0.93827000000E+00  0.93827000000E+00 0. -1.
     999902    2    1    2    0    0 -0.21024329400E-01 -0.84937553985E-03 -0.10881926823E-01  0.10202411799E+01  0.10199661293E+01 0.  0.
     999903    2    3    3    0    0  0.11188922401E+00 -0.85917550396E-02  0.57351798955E-01  0.12761483118E+00  0.20082320342E-01 0.  0.
         14    1    1    2    0    0  0.21024329400E-01  0.84937553985E-03  0.10881926823E-01  0.23688820083E-01  0.00000000000E+00 0.  1.
     999901    1    3    3    0    0 -0.13291355341E+00  0.77423794998E-02 -0.68233725778E-01  0.89262634873E+00  0.88000000000E+00 0.  1.
        -11    1    4    4    0    0  0.82423438813E-01 -0.74336560658E-02  0.51712608436E-01  0.97587588866E-01  0.51100000000E-03 0.  1.
         11    1    4    4    0    0  0.29465785197E-01 -0.11580989739E-02  0.56391905186E-02  0.30027242318E-01  0.51100000000E-03 0. -1.
</event>
<event>
 8    1  0.1106905E+005  0.1043930E+01  0.7957747E-01            NaN
         13   -1    0    0    0    0  0.00000000000E+00  0.00000000000E+00  0.74505805969E-08  0.10566000000E+00  0.10566000000E+00 0.  1.
     999900   -1    0    0    0    0 -0.00000000000E+00 -0.00000000000E+00 -0.74505805969E-08  0.93827000000E+00  0.93827000000E+00 0.  1.
     999902    2    1    2    0    0  0.44529415833E-02  0.15366174267E-01 -0.16126426740E-01  0.10212141544E+01  0.10209614780E+01 0.  0.
     999903    2    3    3    0    0  0.11825449356E+00  0.55260797716E-01  0.11108420414E-01  0.13257243185E+00  0.20351208144E-01 0.  0.
         14    1    1    2    0    0 -0.44529415833E-02 -0.15366174267E-01  0.16126426740E-01  0.22715845565E-01  0.00000000000E+00 0.  1.
     999901    1    3    3    0    0 -0.11380155197E+00 -0.39894623449E-01 -0.27234847154E-01  0.88864172258E+00  0.88000000000E+00 0.  1.
        -11    1    4    4    0    0  0.46954198975E-01  0.33027696762E-01  0.40509193616E-02  0.57551686539E-01  0.51100000000E-03 0. -1.
         11    1    4    4    0    0  0.71300294582E-01  0.22233100954E-01  0.70575010524E-02  0.75020745315E-01  0.51100000000E-03 0.  1.
</event>
<event>
 8    1  0.1106905E+005  0.1043930E+01  0.7957747E-01            NaN
         13   -1    0    0    0    0  0.00000000000E+00  0.00000000000E+00  0.74505805969E-08  0.10566000000E+00  0.10566000000E+00 0.  1.
     999900   -1    0    0    0    0 -0.00000000000E+00 -0.00000000000E+00 -0.74505805969E-08  0.93827000000E+00  0.93827000000E+00 0.  1.
     999902    2    1    2    0    0 -0.18625283345E-01  0.70489096997E-02  0.12220740870E-01  0.10205647520E+01  0.10202972499E+01 0.  0.
     999903    2    3    3    0    0  0.26781658732E-01  0.85807995236E-01  0.94553659552E-01  0.13205842480E+00  0.20463717512E-01 0.  0.
         14    1    1    2    0    0  0.18625283345E-01 -0.70489096997E-02 -0.12220740870E-01  0.23365248020E-01  0.00000000000E+00 0. -1.
     999901    1    3    3    0    0 -0.45406942078E-01 -0.78759085536E-01 -0.82332918682E-01  0.88850632718E+00  0.88000000000E+00 0.  1.
        -11    1    4    4    0    0  0.17148763312E-01  0.42551795069E-01  0.61707561066E-01  0.76894860429E-01  0.51100000000E-03 0. -1.
         11    1    4    4    0    0  0.96328954209E-02  0.43256200167E-01  0.32846098487E-01  0.55163564369E-01  0.51100000000E-03 0.  1.
</event>
<event>
 8    1  0.1106905E+005  0.1043930E+01  0.7957747E-01            NaN
         13   -1    0    0    0    0  0.00000000000E+00  0.00000000000E+00  0.74505805969E-08  0.10566000000E+00  0.10566000000E+00 0.  1.
     999900   -1    0    0    0    0 -0.00000000000E+00 -0.00000000000E+00 -0.74505805969E-08  0.93827000000E+00  0.93827000000E+00 0.  1.
     999902    2    1    2    0    0 -0.31295847547E-02  0.19842475728E-01 -0.13505866430E-01  0.10197240798E+01  0.10194367427E+01 0.  0.
     999903    2    3    3    0    0 -0.72373482850E-01 -0.97689717035E-01 -0.37781033410E-01  0.12888300674E+00  0.20055450775E-01 0.  0.
         14    1    1    2    0    0  0.31295847547E-02 -0.19842475728E-01  0.13505866430E-01  0.24205920181E-01  0.00000000000E+00 0.  1.
     999901    1    3    3    0    0  0.69243898095E-01  0.11753219276E+00  0.24275166980E-01  0.89084107308E+00  0.88000000000E+00 0.  1.
        -11    1    4    4    0    0 -0.38736358501E-01 -0.58380309472E-01 -0.12029946561E-01  0.71089709095E-01  0.51100000000E-03 0. -1.
         11    1    4    4    0    0 -0.33637124349E-01 -0.39309407563E-01 -0.25751086848E-01  0.57793297642E-01  0.51100000000E-03 0.  1.
</event>
<event>
 8    1  0.1106905E+005  0.1043930E+01  0.7957747E-01            NaN
         13   -1    0    0    0    0  0.00000000000E+00  0.00000000000E+00  0.74505805969E-08  0.10566000000E+00  0.10566000000E+00 0.  1.
     999900   -1    0    0    0    0 -0.00000000000E+00 -0.00000000000E+00 -0.74505805969E-08  0.93827000000E+00  0.93827000000E+00 0. -1.
     999902    2    1    2    0    0 -0.17760743197E-01  0.11884827917E-01 -0.10349288666E-01  0.10201855078E+01  0.10199091476E+01 0.  0.
     999903    2    3    3    0    0  0.11243329977E+00  0.45549900033E-01 -0.40382539083E-01  0.12946342880E+00  0.20346735460E-01 0.  0.
         14    1    1    2    0    0  0.17760743197E-01 -0.11884827917E-01  0.10349288666E-01  0.23744492191E-01  0.00000000000E+00 0.  1.
     999901    1    3    3    0    0 -0.13019404297E+00 -0.33665072117E-01  0.30033250417E-01  0.89072207901E+00  0.88000000000E+00 0. -1.
        -11    1    4    4    0    0  0.50354128943E-01  0.12196918885E-01 -0.24048902857E-01  0.57121922075E-01  0.51100000000E-03 0. -1.
         11    1    4    4    0    0  0.62079170825E-01  0.33352981148E-01 -0.16333636226E-01  0.72341506724E-01  0.51100000000E-03 0.  1.
</event>
<event>
 8    1  0.1106905E+005  0.1043930E+01  0.7957747E-01            NaN
         13   -1    0    0    0    0  0.00000000000E+00  0.00000000000E+00  0.74505805969E-08  0.10566000000E+00  0.10566000000E+00 0.  1.
     999900   -1    0    0    0    0 -0.00000000000E+00 -0.00000000000E+00 -0.74505805969E-08  0.93827000000E+00  0.93827000000E+00 0. -1.
     999902    2    1    2    0    0 -0.33700425028E-02  0.21901380576E-01 -0.94801605427E-02  0.10198281100E+01  0.10195432668E+01 0.  0.
     999903    2    3    3    0    0  0.10276041285E+00  0.77660931998E-01  0.16013149993E-01  0.13133347861E+00  0.20028450334E-01 0.  0.
         14    1    1    2    0    0  0.33700425028E-02 -0.21901380576E-01  0.94801605427E-02  0.24101889999E-01  0.00000000000E+00 0.  1.
     999901    1    3    3    0    0 -0.10613045535E+00 -0.55759551422E-01 -0.25493310536E-01  0.88849463139E+00  0.88000000000E+00 0. -1.
        -11    1    4    4    0    0  0.46146343817E-01  0.34208369664E-01  0.17165661873E-01  0.59955138823E-01  0.51100000000E-03 0.  1.
         11    1    4    4    0    0  0.56614069035E-01  0.43452562334E-01 -0.11525118802E-02  0.71378339787E-01  0.51100000000E-03 0. -1.
</event>
<event>
 8    1  0.1106905E+005  0.1043930E+01  0.7957747E-01            NaN
         13   -1    0    0    0    0  0.00000000000E+00  0.00000000000E+00  0.74505805969E-08  0.10566000000E+00  0.10566000000E+00 0.  1.
     999900   -1    0    0    0    0 -0.00000000000E+00 -0.00000000000E+00 -0.74505805969E-08  0.93827000000E+00  0.93827000000E+00 0.  1.
     999902    2    1    2    0    0  0.13129708673E-01  0.10176672591E-01  0.17049917693E-01  0.10201255129E+01  0.10198477378E+01 0.  0.
     999903    2    3    3    0    0  0.35839519759E-01  0.11779098211E+00  0.45658792653E-01  0.13281776305E+00  0.19915978328E-01 0.  0.
         14    1    1    2    0    0 -0.13129708673E-01 -0.10176672591E-01 -0.17049917693E-01  0.23804487145E-01  0.00000000000E+00 0. -1.
     999901    1    3    3    0    0 -0.22709811086E-01 -0.10761430952E+00 -0.28608874960E-01  0.88730774980E+00  0.88000000000E+00 0.  1.
        -11    1    4    4    0    0  0.14188211292E-01  0.33587060214E-01  0.48948893229E-02  0.36791534569E-01  0.51100000000E-03 0. -1.
         11    1    4    4    0    0  0.21651308467E-01  0.84203921897E-01  0.40763903330E-01  0.96026228484E-01  0.51100000000E-03 0.  1.
</event>
<event>
 8    1  0.1106905E+005  0.1043930E+01  0.7957747E-01            NaN
         13   -1    0    0    0    0  0.00000000000E+00  0.00000000000E+00  0.74505805969E-08  0.10566000000E+00  0.10566000000E+00 0.  1.
     999900   -1    0    0    0    0 -0.00000000000E+00 -0.00000000000E+00 -0.74505805969E-08  0.93827000000E+00  0.93827000000E+00 0.  1.
     999902    2    1    2    0    0  0.66297881019E-02  0.22465224282E-01  0.70662571016E-02  0.10194642611E+01  0.10191706468E+01 0.  0.
     999903    2    3    3    0    0  0.70927487599E-01 -0.71704967317E-01 -0.76473242462E-01  0.12818368395E+00  0.20263000362E-01 0.  0.
         14    1    1    2    0    0 -0.66297881019E-02 -0.22465224282E-01 -0.70662571016E-02  0.24465738938E-01  0.00000000000E+00 0. -1.
     999901    1    3    3    0    0 -0.64297699497E-01  0.94170191600E-01  0.83539499564E-01  0.89128057711E+00  0.88000000000E+00 0. -1.
        -11    1    4    4    0    0  0.54098429216E-01 -0.57342966272E-01 -0.69171566514E-01  0.10488003890E+00  0.51100000000E-03 0. -1.
         11    1    4    4    0    0  0.16829058383E-01 -0.14362001046E-01 -0.73016759486E-02  0.23303645053E-01  0.51100000000E-03 0.  1.
</event>
<event>
 8    1  0.1106905E+005  0.1043930E+01  0.7957747E-01            NaN
         13   -1    0    0    0    0  0.00000000000E+00  0.00000000000E+00  0.74505805969E-08  0.10566000000E+00  0.10566000000E+00 0.  1.
     999900   -1    0    0    0    0 -0.00000000000E+00 -0.00000000000E+00 -0.74505805969E-08  0.93827000000E+00  0.93827000000E+00 0.  1.
     999902    2    1    2    0    0  0.25141278568E-02 -0.13558201889E-01  0.19842001320E-01  0.10197669974E+01  0.10194806905E+01 0.  0.
     999903    2    3    3    0    0 -0.20047396876E-01  0.47166975359E-02 -0.12428787251E+00  0.12756947732E+00  0.20058687219E-01 0.  0.
         14    1    1    2    0    0 -0.25141278568E-02  0.13558201889E-01 -0.19842001320E-01  0.24163002581E-01  0.00000000000E+00 0. -1.
     999901    1    3    3    0    0  0.22561524733E-01 -0.18274899425E-01  0.14412987383E+00  0.89219752010E+00  0.88000000000E+00 0. -1.
        -11    1    4    4    0    0 -0.44104546434E-02 -0.76110658372E-02 -0.36020326047E-01  0.37082414199E-01  0.51100000000E-03 0. -1.
         11    1    4    4    0    0 -0.15636942233E-01  0.12327763373E-01 -0.88267546462E-01  0.90487063117E-01  0.51100000000E-03 0.  1.
</event>
<event>
 8    1  0.1106905E+005  0.1043930E+01  0.7957747E-01            NaN
         13   -1    0    0    0    0  0.00000000000E+00  0.00000000000E+00  0.74505805969E-08  0.10566000000E+00  0.10566000000E+00 0.  1.
     999900   -1    0    0    0    0 -0.00000000000E+00 -0.00000000000E+00 -0.74505805969E-08  0.93827000000E+00  0.93827000000E+00 0. -1.
     999902    2    1    2    0    0 -0.54846339741E-03  0.22616596819E-01 -0.67254416298E-02  0.10203282452E+01  0.10200552363E+01 0.  0.
     999903    2    3    3    0    0  0.89483994551E-01  0.88521874790E-01 -0.37131004394E-01  0.13276199563E+00  0.20088016338E-01 0.  0.
         14    1    1    2    0    0  0.54846339741E-03 -0.22616596819E-01  0.67254416298E-02  0.23601754784E-01  0.00000000000E+00 0. -1.
     999901    1    3    3    0    0 -0.90032457949E-01 -0.65905277971E-01  0.30405562764E-01  0.88756624958E+00  0.88000000000E+00 0.  1.
        -11    1    4    4    0    0  0.57129015213E-01  0.68421535566E-01 -0.22313026122E-01  0.91887774835E-01  0.51100000000E-03 0. -1.
         11    1    4    4    0    0  0.32354979338E-01  0.20100339224E-01 -0.14817978272E-01  0.40874220799E-01  0.51100000000E-03 0.  1.
</event>
<event>
 8    1  0.1106905E+005  0.1043930E+01  0.7957747E-01            NaN
         13   -1    0    0    0    0  0.00000000000E+00  0.00000000000E+00  0.74505805969E-08  0.10566000000E+00  0.10566000000E+00 0. -1.
     999900   -1    0    0    0    0 -0.00000000000E+00 -0.00000000000E+00 -0.74505805969E-08  0.93827000000E+00  0.93827000000E+00 0. -1.
     999902    2    1    2    0    0 -0.57030256393E-02  0.16098920058E-01 -0.21521890412E-01  0.10164547112E+01  0.10160833078E+01 0.  0.
     999903    2    3    3    0    0 -0.16956859007E-01  0.12643446074E+00 -0.68340429463E-02  0.12937167496E+00  0.20423472020E-01 0.  0.
         14    1    1    2    0    0  0.57030256393E-02 -0.16098920058E-01  0.21521890412E-01  0.27475288813E-01  0.00000000000E+00 0. -1.
     999901    1    3    3    0    0  0.11253833368E-01 -0.11033554068E+00 -0.14687847466E-01  0.88708303623E+00  0.88000000000E+00 0.  1.
        -11    1    4    4    0    0 -0.23700756455E-02  0.82600867284E-01 -0.89745139588E-02  0.83122340898E-01  0.51100000000E-03 0. -1.
         11    1    4    4    0    0 -0.14586783362E-01  0.43833593452E-01  0.21404710125E-02  0.46249334059E-01  0.51100000000E-03 0.  1.
</event>
<event>
 8    1  0.1106905E+005  0.1043930E+01  0.7957747E-01            NaN
         13   -1    0    0    0    0  0.00000000000E+00  0.00000000000E+00  0.74505805969E-08  0.10566000000E+00  0.10566000000E+00 0.  1.
     999900   -1    0    0    0    0 -0.00000000000E+00 -0.00000000000E+00 -0.74505805969E-08  0.93827000000E+00  0.93827000000E+00 0. -1.
     999902    2    1    2    0    0  0.18012401746E-01 -0.16389204212E-02 -0.15694241699E-01  0.10199833531E+01  0.10197022108E+01 0.  0.
     999903    2    3    3    0    0  0.92168470140E-01 -0.24425309077E-01  0.87316054914E-01  0.13058498159E+00  0.18349968890E-01 0.  0.
         14    1    1    2    0    0 -0.18012401746E-01  0.16389204212E-02  0.15694241699E-01  0.23946646932E-01  0.00000000000E+00 0.  1.
     999901    1    3    3    0    0 -0.74156068395E-01  0.22786388656E-01 -0.10301029661E+00  0.88939837148E+00  0.88000000000E+00 0. -1.
        -11    1    4    4    0    0  0.55714118868E-01 -0.16106913317E-01  0.64669810388E-01  0.86867377044E-01  0.51100000000E-03 0. -1.
         11    1    4    4    0    0  0.36454351272E-01 -0.83183957597E-02  0.22646244527E-01  0.43717604542E-01  0.51100000000E-03 0.  1.
</event>
<event>
 8    1  0.1106905E+005  0.1043930E+01  0.7957747E-01            NaN
         13   -1    0    0    0    0  0.00000000000E+00  0.00000000000E+00  0.74505805969E-08  0.10566000000E+00  0.10566000000E+00 0.  1.
     999900   -1    0    0    0    0 -0.00000000000E+00 -0.00000000000E+00 -0.74505805969E-08  0.93827000000E+00  0.93827000000E+00 0.  1.
     999902    2    1    2    0    0  0.15751939892E-01 -0.14244709798E-01  0.24833495432E-02  0.10225477084E+01  0.10223241236E+01 0.  0.
     999903    2    3    3    0    0  0.50943310124E-01 -0.11375578427E+00 -0.47455808693E-01  0.13483446306E+00  0.19816138639E-01 0.  0.
         14    1    1    2    0    0 -0.15751939892E-01  0.14244709798E-01 -0.24833495432E-02  0.21382291565E-01  0.00000000000E+00 0.  1.
     999901    1    3    3    0    0 -0.35191370232E-01  0.99511074469E-01  0.49939158237E-01  0.88771324537E+00  0.88000000000E+00 0. -1.
        -11    1    4    4    0    0 -0.83658193764E-03  0.68302954717E-04  0.21651247640E-03  0.10062471289E-02  0.51100000000E-03 0. -1.
         11    1    4    4    0    0  0.51779892062E-01 -0.11382408722E+00 -0.47672321170E-01  0.13382821594E+00  0.51100000000E-03 0.  1.
</event>
<event>
 8    1  0.1106905E+005  0.1043930E+01  0.7957747E-01            NaN
         13   -1    0    0    0    0  0.00000000000E+00  0.00000000000E+00  0.74505805969E-08  0.10566000000E+00  0.10566000000E+00 0. -1.
     999900   -1    0    0    0    0 -0.00000000000E+00 -0.00000000000E+00 -0.74505805969E-08  0.93827000000E+00  0.93827000000E+00 0. -1.
     999902    2    1    2    0    0  0.20337444588E-01  0.53756858073E-02 -0.64194693165E-02  0.10219363819E+01  0.10216996865E+01 0.  0.
     999903    2    3    3    0    0 -0.78319289200E-01  0.89053777938E-01 -0.52146955835E-01  0.13130392279E+00  0.21375890872E-01 0.  0.
         14    1    1    2    0    0 -0.20337444588E-01 -0.53756858073E-02  0.64194693165E-02  0.21993618088E-01  0.00000000000E+00 0. -1.
     999901    1    3    3    0    0  0.98656733788E-01 -0.83678092131E-01  0.45727486518E-01  0.89063245913E+00  0.88000000000E+00 0.  1.
        -11    1    4    4    0    0 -0.10941098309E-01  0.18119518526E-01 -0.17650819933E-01  0.27565143735E-01  0.51100000000E-03 0. -1.
         11    1    4    4    0    0 -0.67378190890E-01  0.70934259413E-01 -0.34496135902E-01  0.10373877905E+00  0.51100000000E-03 0.  1.
</event>
<event>
 8    1  0.1106905E+005  0.1043930E+01  0.7957747E-01            NaN
         13   -1    0    0    0    0  0.00000000000E+00  0.00000000000E+00  0.74505805969E-08  0.10566000000E+00  0.10566000000E+00 0.  1.
     999900   -1    0    0    0    0 -0.00000000000E+00 -0.00000000000E+00 -0.74505805969E-08  0.93827000000E+00  0.93827000000E+00 0.  1.
     999902    2    1    2    0    0  0.30210618733E-02  0.47887484227E-02 -0.22056310012E-01  0.10211585324E+01  0.10209046030E+01 0.  0.
     999903    2    3    3    0    0 -0.10699850645E+00 -0.71200981683E-01  0.13924414628E-01  0.13033118825E+00  0.16555033455E-01 0.  0.
         14    1    1    2    0    0 -0.30210618733E-02 -0.47887484227E-02  0.22056310012E-01  0.22771467622E-01  0.00000000000E+00 0.  1.
     999901    1    3    3    0    0  0.11001956833E+00  0.75989730106E-01 -0.35980724640E-01  0.89082734413E+00  0.88000000000E+00 0.  1.
        -11    1    4    4    0    0 -0.64425670677E-01 -0.51848800986E-01  0.11561615931E-01  0.83503875897E-01  0.51100000000E-03 0. -1.
         11    1    4    4    0    0 -0.42572835776E-01 -0.19352180697E-01  0.23627986974E-02  0.46827312355E-01  0.51100000000E-03 0.  1.
</event>
<event>
 8    1  0.1106905E+005  0.1043930E+01  0.7957747E-01            NaN
         13   -1    0    0    0    0  0.00000000000E+00  0.00000000000E+00  0.74505805969E-08  0.10566000000E+00  0.10566000000E+00 0.  1.
     999900   -1    0    0    0    0 -0.00000000000E+00 -0.00000000000E+00 -0.74505805969E-08  0.93827000000E+00  0.93827000000E+00 0. -1.
     999902    2    1    2    0    0 -0.32737271702E-02  0.42159445935E-02 -0.24475616211E-01  0.10188791065E+01  0.10185711003E+01 0.  0.
     999903    2    3    3    0    0  0.22012553064E-02 -0.11709216701E+00  0.46791764537E-01  0.12768626934E+00  0.19972307031E-01 0.  0.
         14    1    1    2    0    0  0.32737271702E-02 -0.42159445935E-02  0.24475616211E-01  0.25050893543E-01  0.00000000000E+00 0.  1.
     999901    1    3    3    0    0 -0.54749824766E-02  0.12130811161E+00 -0.71267380748E-01  0.89119283712E+00  0.88000000000E+00 0. -1.
        -11    1    4    4    0    0 -0.78135658178E-03 -0.34422145003E-01  0.43487445687E-02  0.34708317231E-01  0.51100000000E-03 0.  1.
         11    1    4    4    0    0  0.29826118881E-02 -0.82670022010E-01  0.42443019968E-01  0.92977952106E-01  0.51100000000E-03 0. -1.
</event>
<event>
 8    1  0.1106905E+005  0.1043930E+01  0.7957747E-01            NaN
         13   -1    0    0    0    0  0.00000000000E+00  0.00000000000E+00  0.74505805969E-08  0.10566000000E+00  0.10566000000E+00 0.  1.
     999900   -1    0    0    0    0 -0.00000000000E+00 -0.00000000000E+00 -0.74505805969E-08  0.93827000000E+00  0.93827000000E+00 0.  1.
     999902    2    1    2    0    0 -0.58984823677E-02  0.79902795699E-02 -0.19042525698E-01  0.10224531649E+01  0.10222275774E+01 0.  0.
     999903    2    3    3    0    0 -0.51180990380E-01 -0.92627234221E-03  0.11840621685E+00  0.13058873165E+00  0.20323210615E-01 0.  0.
         14    1    1    2    0    0  0.58984823677E-02 -0.79902795699E-02  0.19042525698E-01  0.21476835120E-01  0.00000000000E+00 0.  1.
     999901    1    3    3    0    0  0.45282508013E-01  0.89165519121E-02 -0.13744874254E+00  0.89186443323E+00  0.88000000000E+00 0.  1.
        -11    1    4    4    0    0 -0.76937332941E-02 -0.75558586689E-02  0.18385085827E-01  0.21320343198E-01  0.51100000000E-03 0. -1.
         11    1    4    4    0    0 -0.43487257086E-01  0.66295863267E-02  0.10002113102E+00  0.10926838845E+00  0.51100000000E-03 0.  1.
</event>
<event>
 8    1  0.1106905E+005  0.1043930E+01  0.7957747E-01            NaN
         13   -1    0    0    0    0  0.00000000000E+00  0.00000000000E+00  0.74505805969E-08  0.10566000000E+00  0.10566000000E+00 0. -1.
     999900   -1    0    0    0    0 -0.00000000000E+00 -0.00000000000E+00 -0.74505805969E-08  0.93827000000E+00  0.93827000000E+00 0. -1.
     999902    2    1    2    0    0  0.23117064850E-01  0.42451107944E-02  0.67355575678E-02  0.10194803090E+01  0.10191870844E+01 0.  0.
     999903    2    3    3    0    0 -0.11870625618E+00  0.39337855064E-01 -0.10800426651E-01  0.12726236153E+00  0.20986122783E-01 0.  0.
         14    1    1    2    0    0 -0.23117064850E-01 -0.42451107944E-02 -0.67355575678E-02  0.24449690974E-01  0.00000000000E+00 0.  1.
     999901    1    3    3    0    0  0.14182332103E+00 -0.35092744270E-01  0.17535984219E-01  0.89221794749E+00  0.88000000000E+00 0. -1.
        -11    1    4    4    0    0 -0.11053569216E+00  0.39777222108E-01 -0.14310014803E-01  0.11834443073E+00  0.51100000000E-03 0.  1.
         11    1    4    4    0    0 -0.81705640165E-02 -0.43936704403E-03  0.35095881517E-02  0.89179307993E-02  0.51100000000E-03 0. -1.
</event>
<event>
 8    1  0.1106905E+005  0.1043930E+01  0.7957747E-01            NaN
         13   -1    0    0    0    0  0.00000000000E+00  0.00000000000E+00  0.74505805969E-08  0.10566000000E+00  0.10566000000E+00 0.  1.
     999900   -1    0    0    0    0 -0.00000000000E+00 -0.00000000000E+00 -0.74505805969E-08  0.93827000000E+00  0.93827000000E+00 0. -1.
     999902    2    1    2    0    0 -0.52943216632E-02 -0.19124410616E-01 -0.11195116996E-01  0.10211461556E+01  0.10208919470E+01 0.  0.
     999903    2    3    3    0    0  0.45519811011E-01  0.32731132955E-01  0.11482451311E+00  0.12920892645E+00  0.19154571405E-01 0.  0.
         14    1    1    2    0    0  0.52943216632E-02  0.19124410616E-01  0.11195116996E-01  0.22783844448E-01  0.00000000000E+00 0.  1.
     999901    1    3    3    0    0 -0.50814132675E-01 -0.51855543571E-01 -0.12601963011E+00  0.89193722910E+00  0.88000000000E+00 0. -1.
        -11    1    4    4    0    0  0.34003225318E-02  0.67131634091E-02  0.59537398283E-02  0.96092088759E-02  0.51100000000E-03 0. -1.
         11    1    4    4    0    0  0.42119488480E-01  0.26017969546E-01  0.10887077328E+00  0.11959971758E+00  0.51100000000E-03 0.  1.
</event>
<event>
 8    1  0.1106905E+005  0.1043930E+01  0.7957747E-01            NaN
         13   -1    0    0    0    0  0.00000000000E+00  0.00000000000E+00  0.74505805969E-08  0.10566000000E+00  0.10566000000E+00 0.  1.
     999900   -1    0    0    0    0 -0.00000000000E+00 -0.00000000000E+00 -0.74505805969E-08  0.93827000000E+00  0.93827000000E+00 0. -1.
     999902    2    1    2    0    0 -0.10317813053E-01  0.86166741406E-02 -0.18794951678E-01  0.10208225435E+01  0.10205609784E+01 0.  0.
     999903    2    3    3    0    0 -0.11221762454E+00  0.15806730229E-01  0.62861518857E-01  0.13115797314E+00  0.20203845850E-01 0.  0.
         14    1    1    2    0    0  0.10317813053E-01 -0.86166741406E-02  0.18794951678E-01  0.23107456546E-01  0.00000000000E+00 0.  1.
     999901    1    3    3    0    0  0.10189981149E+00 -0.71900560889E-02 -0.81656470536E-01  0.88966457031E+00  0.88000000000E+00 0. -1.
        -11    1    4    4    0    0 -0.59053263940E-01  0.13663631244E-01  0.43188007216E-01  0.74427467302E-01  0.51100000000E-03 0. -1.
         11    1    4    4    0    0 -0.53164360603E-01  0.21430989858E-02  0.19673511642E-01  0.56730505840E-01  0.51100000000E-03 0.  1.
</event>
<event>
 8    1  0.1106905E+005  0.1043930E+01  0.7957747E-01            NaN
         13   -1    0    0    0    0  0.00000000000E+00  0.00000000000E+00  0.74505805969E-08  0.10566000000E+00  0.10566000000E+00 0.  1.
     999900   -1    0    0    0    0 -0.00000000000E+00 -0.00000000000E+00 -0.74505805969E-08  0.93827000000E+00  0.93827000000E+00 0.  1.
     999902    2    1    2    0    0 -0.19806160479E-01  0.52658219372E-02 -0.16838863506E-01  0.10174052908E+01  0.10170594700E+01 0.  0.
     999903    2    3    3    0    0 -0.32280129145E-01 -0.40015640990E-01  0.11388515197E+00  0.12650979806E+00  0.19789969779E-01 0.  0.
         14    1    1    2    0    0  0.19806160479E-01 -0.52658219372E-02  0.16838863506E-01  0.26524709193E-01  0.00000000000E+00 0.  1.
     999901    1    3    3    0    0  0.12473968666E-01  0.45281462927E-01 -0.13072401548E+00  0.89089549275E+00  0.88000000000E+00 0.  1.
        -11    1    4    4    0    0 -0.47407761276E-02 -0.14722506888E-01  0.18893271381E-01  0.24422202845E-01  0.51100000000E-03 0.  1.
         11    1    4    4    0    0 -0.27539353018E-01 -0.25293134103E-01  0.94991880590E-01  0.10208759521E+00  0.51100000000E-03 0. -1.
</event>
<event>
 8    1  0.1106905E+005  0.1043930E+01  0.7957747E-01            NaN
         13   -1    0    0    0    0  0.00000000000E+00  0.00000000000E+00  0.74505805969E-08  0.10566000000E+00  0.10566000000E+00 0. -1.
     999900   -1    0    0    0    0 -0.00000000000E+00 -0.00000000000E+00 -0.74505805969E-08  0.93827000000E+00  0.93827000000E+00 0.  1.
     999902    2    1    2    0    0  0.20701772877E-01 -0.11349375272E-01  0.10239106262E-02  0.10202990857E+01  0.10200253938E+01 0.  0.
     999903    2    3    3    0    0 -0.10198845119E+00 -0.98624243238E-02  0.75284093569E-01  0.12868836518E+00  0.19851674991E-01 0.  0.
         14    1    1    2    0    0 -0.20701772877E-01  0.11349375272E-01 -0.10239106262E-02  0.23630914335E-01  0.00000000000E+00 0. -1.
     999901    1    3    3    0    0  0.12269022407E+00 -0.14869509478E-02 -0.74260182942E-01  0.89161072048E+00  0.88000000000E+00 0.  1.
        -11    1    4    4    0    0 -0.50223126971E-01 -0.40554000063E-02  0.24857691685E-01  0.56186962089E-01  0.51100000000E-03 0.  1.
         11    1    4    4    0    0 -0.51765324219E-01 -0.58070243175E-02  0.50426401883E-01  0.72501403095E-01  0.51100000000E-03 0. -1.
</event>
<event>
 8    1  0.1106905E+005  0.1043930E+01  0.7957747E-01            NaN
         13   -1    0    0    0    0  0.00000000000E+00  0.00000000000E+00  0.74505805969E-08  0.10566000000E+00  0.10566000000E+00 0. -1.
     999900   -1    0    0    0    0 -0.00000000000E+00 -0.00000000000E+00 -0.74505805969E-08  0.93827000000E+00  0.93827000000E+00 0. -1.
     999902    2    1    2    0    0  0.21956686071E-01 -0.65643556438E-02 -0.79963943018E-02  0.10196580172E+01  0.10193690906E+01 0.  0.
     999903    2    3    3    0    0 -0.26395467728E-02  0.11142367092E+00 -0.63270890865E-01  0.12972463818E+00  0.20076714652E-01 0.  0.
         14    1    1    2    0    0 -0.21956686071E-01  0.65643556438E-02  0.79963943018E-02  0.24271982821E-01  0.00000000000E+00 0.  1.
     999901    1    3    3    0    0  0.24596232843E-01 -0.11798802657E+00  0.55274496563E-01  0.88993337900E+00  0.88000000000E+00 0.  1.
        -11    1    4    4    0    0  0.98653863729E-03  0.70644429994E-01 -0.50466208088E-01  0.86825733671E-01  0.51100000000E-03 0.  1.
         11    1    4    4    0    0 -0.36260854101E-02  0.40779240930E-01 -0.12804682776E-01  0.42898904511E-01  0.51100000000E-03 0. -1.
</event>
<event>
 8    1  0.1106905E+005  0.1043930E+01  0.7957747E-01            NaN
         13   -1    0    0    0    0  0.00000000000E+00  0.00000000000E+00  0.74505805969E-08  0.10566000000E+00  0.10566000000E+00 0. -1.
     999900   -1    0    0    0    0 -0.00000000000E+00 -0.00000000000E+00 -0.74505805969E-08  0.93827000000E+00  0.93827000000E+00 0.  1.
     999902    2    1    2    0    0 -0.93141285469E-02  0.14942526873E-01 -0.16165453745E-01  0.10200269877E+01  0.10197468812E+01 0.  0.
     999903    2    3    3    0    0  0.87935456493E-01 -0.81345284838E-01  0.39340247355E-01  0.12772115042E+00  0.20379826515E-01 0.  0.
         14    1    1    2    0    0  0.93141285469E-02 -0.14942526873E-01  0.16165453745E-01  0.23903012252E-01  0.00000000000E+00 0. -1.
     999901    1    3    3    0    0 -0.97249585040E-01  0.96287811711E-01 -0.55505701099E-01  0.89230583733E+00  0.88000000000E+00 0. -1.
        -11    1    4    4    0    0  0.26952736705E-01 -0.16372538057E-01  0.17101206341E-01  0.35877881733E-01  0.51100000000E-03 0.  1.
         11    1    4    4    0    0  0.60982719789E-01 -0.64972746780E-01  0.22239041013E-01  0.91843268687E-01  0.51100000000E-03 0. -1.
</event>
<event>
 8    1  0.1106905E+005  0.1043930E+01  0.7957747E-01            NaN
         13   -1    0    0    0    0  0.00000000000E+00  0.00000000000E+00  0.74505805969E-08  0.10566000000E+00  0.10566000000E+00 0.  1.
     999900   -1    0    0    0    0 -0.00000000000E+00 -0.00000000000E+00 -0.74505805969E-08  0.93827000000E+00  0.93827000000E+00 0. -1.
     999902    2    1    2    0    0  0.18468292825E-01  0.15962636487E-01  0.12631267712E-02  0.10194866145E+01  0.10191935430E+01 0.  0.
     999903    2    3    3    0    0 -0.27683977724E-02 -0.12298731802E+00 -0.29289690468E-01  0.12780754586E+00  0.18529392596E-01 0.  0.
         14    1    1    2    0    0 -0.18468292825E-01 -0.15962636487E-01 -0.12631267712E-02  0.24443385459E-01  0.00000000000E+00 0.  1.
     999901    1    3    3    0    0  0.21236690597E-01  0.13894995451E+00  0.30552817239E-01  0.89167906868E+00  0.88000000000E+00 0.  1.
        -11    1    4    4    0    0 -0.49971286623E-02 -0.11630106375E-01 -0.11407560156E-03  0.12669049033E-01  0.51100000000E-03 0. -1.
         11    1    4    4    0    0  0.22287308900E-02 -0.11135721165E+00 -0.29175614866E-01  0.11513849683E+00  0.51100000000E-03 0.  1.
</event>
<event>
 8    1  0.1106905E+005  0.1043930E+01  0.7957747E-01            NaN
         13   -1    0    0    0    0  0.00000000000E+00  0.00000000000E+00  0.74505805969E-08  0.10566000000E+00  0.10566000000E+00 0. -1.
     999900   -1    0    0    0    0 -0.00000000000E+00 -0.00000000000E+00 -0.74505805969E-08  0.93827000000E+00  0.93827000000E+00 0. -1.
     999902    2    1    2    0    0 -0.60595697003E-03  0.94413761990E-02 -0.22363826272E-01  0.10196473417E+01  0.10193581578E+01 0.  0.
     999903    2    3    3    0    0 -0.28522417625E-01  0.11921441839E+00  0.39635240765E-01  0.13022430744E+00  0.19021358499E-01 0.  0.
         14    1    1    2    0    0  0.60595697003E-03 -0.94413761990E-02  0.22363826272E-01  0.24282658296E-01  0.00000000000E+00 0. -1.
     999901    1    3    3    0    0  0.27916460655E-01 -0.10977304219E+00 -0.61999067037E-01  0.88942303426E+00  0.88000000000E+00 0.  1.
        -11    1    4    4    0    0 -0.14521954362E-01  0.86571205187E-01  0.21670916891E-01  0.90417644771E-01  0.51100000000E-03 0. -1.
         11    1    4    4    0    0 -0.14000463262E-01  0.32643213200E-01  0.17964323873E-01  0.39806662668E-01  0.51100000000E-03 0.  1.
</event>
<event>
 8    1  0.1106905E+005  0.1043930E+01  0.7957747E-01            NaN
         13   -1    0    0    0    0  0.00000000000E+00  0.00000000000E+00  0.74505805969E-08  0.10566000000E+00  0.10566000000E+00 0. -1.
     999900   -1    0    0    0    0 -0.00000000000E+00 -0.00000000000E+00 -0.74505805969E-08  0.93827000000E+00  0.93827000000E+00 0. -1.
     999902    2    1    2    0    0 -0.15145556937E-01 -0.16315562526E-01  0.33049957791E-02  0.10214242569E+01  0.10211762845E+01 0.  0.
     999903    2    3    3    0    0 -0.87278336503E-01  0.93329775773E-01 -0.22151583092E-01  0.13132691643E+00  0.20690850086E-01 0.  0.
         14    1    1    2    0    0  0.15145556937E-01  0.16315562526E-01 -0.33049957791E-02  0.22505743102E-01  0.00000000000E+00 0.  1.
     999901    1    3    3    0    0  0.72132779566E-01 -0.10964533830E+00  0.25456578871E-01  0.89009734047E+00  0.88000000000E+00 0.  1.
        -11    1    4    4    0    0 -0.35400135701E-01  0.37638466959E-01 -0.19304345833E-01  0.55161061372E-01  0.51100000000E-03 0.  1.
         11    1    4    4    0    0 -0.51878200802E-01  0.55691308814E-01 -0.28472372595E-02  0.76165855059E-01  0.51100000000E-03 0. -1.
</event>
<event>
 8    1  0.1106905E+005  0.1043930E+01  0.7957747E-01            NaN
         13   -1    0    0    0    0  0.00000000000E+00  0.00000000000E+00  0.74505805969E-08  0.10566000000E+00  0.10566000000E+00 0.  1.
     999900   -1    0    0    0    0 -0.00000000000E+00 -0.00000000000E+00 -0.74505805969E-08  0.93827000000E+00  0.93827000000E+00 0.  1.
     999902    2    1    2    0    0  0.30117000194E-01 -0.78055348276E-02 -0.11534517056E-01  0.10107486022E+01  0.10102038070E+01 0.  0.
     999903    2    3    3    0    0  0.43645347966E-01  0.62003812707E-02  0.11181449681E+00  0.12193244514E+00  0.20534808305E-01 0.  0.
         14    1    1    2    0    0 -0.30117000194E-01  0.78055348276E-02  0.11534517056E-01  0.33181397776E-01  0.00000000000E+00 0.  1.
     999901    1    3    3    0    0 -0.13528347772E-01 -0.14005916098E-01 -0.12334901387E+00  0.88881615709E+00  0.88000000000E+00 0.  1.
        -11    1    4    4    0    0  0.31503366544E-01  0.99722713341E-02  0.59186472637E-01  0.67787963264E-01  0.51100000000E-03 0. -1.
         11    1    4    4    0    0  0.12141981422E-01 -0.37718900634E-02  0.52628024176E-01  0.54144481872E-01  0.51100000000E-03 0.  1.
</event>
<event>
 8    1  0.1106905E+005  0.1043930E+01  0.7957747E-01            NaN
         13   -1    0    0    0    0  0.00000000000E+00  0.00000000000E+00  0.74505805969E-08  0.10566000000E+00  0.10566000000E+00 0. -1.
     999900   -1    0    0    0    0 -0.00000000000E+00 -0.00000000000E+00 -0.74505805969E-08  0.93827000000E+00  0.93827000000E+00 0. -1.
     999902    2    1    2    0    0 -0.20222603262E-01 -0.37686875490E-02  0.65725206413E-02  0.10223347525E+01  0.10221066438E+01 0.  0.
     999903    2    3    3    0    0 -0.57088451349E-01 -0.26524933854E-01 -0.11520823723E+00  0.13289251685E+00  0.20611155162E-01 0.  0.
         14    1    1    2    0    0  0.20222603262E-01  0.37686875490E-02 -0.65725206413E-02  0.21595247535E-01  0.00000000000E+00 0. -1.
     999901    1    3    3    0    0  0.36865848088E-01  0.22756246305E-01  0.12178075787E+00  0.88944223561E+00  0.88000000000E+00 0.  1.
        -11    1    4    4    0    0 -0.33812927053E-01 -0.22356007257E-01 -0.55981856511E-01  0.69118264416E-01  0.51100000000E-03 0.  1.
         11    1    4    4    0    0 -0.23275524296E-01 -0.41689265970E-02 -0.59226380717E-01  0.63774252438E-01  0.51100000000E-03 0. -1.
</event>
<event>
 8    1  0.1106905E+005  0.1043930E+01  0.7957747E-01            NaN
         13   -1    0    0    0    0  0.00000000000E+00  0.00000000000E+00  0.74505805969E-08  0.10566000000E+00  0.10566000000E+00 0.  1.
     999900   -1    0    0    0    0 -0.00000000000E+00 -0.00000000000E+00 -0.74505805969E-08  0.93827000000E+00  0.93827000000E+00 0. -1.
     999902    2    1    2    0    0  0.76496652264E-02  0.13062785381E-01 -0.18196036312E-01  0.10202604103E+01  0.10199858113E+01 0.  0.
     999903    2    3    3    0    0  0.33465853824E-01 -0.94937374156E-01 -0.81476958535E-01  0.13102760321E+00  0.19916567152E-01 0.  0.
         14    1    1    2    0    0 -0.76496652264E-02 -0.13062785381E-01  0.18196036312E-01  0.23669589719E-01  0.00000000000E+00 0.  1.
     999901    1    3    3    0    0 -0.25816188597E-01  0.10800015954E+00  0.63280922223E-01  0.88923280707E+00  0.88000000000E+00 0.  1.
        -11    1    4    4    0    0  0.26714542448E-01 -0.51136979703E-01 -0.53015159388E-01  0.78355125660E-01  0.51100000000E-03 0. -1.
         11    1    4    4    0    0  0.67513113757E-02 -0.43800394453E-01 -0.28461799147E-01  0.52672477550E-01  0.51100000000E-03 0.  1.
</event>
<event>
 8    1  0.1106905E+005  0.1043930E+01  0.7957747E-01            NaN
         13   -1    0    0    0    0  0.00000000000E+00  0.00000000000E+00  0.74505805969E-08  0.10566000000E+00  0.10566000000E+00 0.  1.
     999900   -1    0    0    0    0 -0.00000000000E+00 -0.00000000000E+00 -0.74505805969E-08  0.93827000000E+00  0.93827000000E+00 0.  1.
     999902    2    1    2    0    0 -0.20033485151E-01 -0.13706281949E-01 -0.29861595621E-02  0.10194735113E+01  0.10191801216E+01 0.  0.
     999903    2    3    3    0    0 -0.38806288736E-01 -0.11001713778E+00 -0.59069825671E-01  0.13224548156E+00  0.19746504427E-01 0.  0.
         14    1    1    2    0    0  0.20033485151E-01  0.13706281949E-01  0.29861595621E-02  0.24456488732E-01  0.00000000000E+00 0. -1.
     999901    1    3    3    0    0  0.18772803586E-01  0.96310855826E-01  0.56083666109E-01  0.88722802971E+00  0.88000000000E+00 0.  1.
        -11    1    4    4    0    0 -0.30069410935E-01 -0.59670227191E-01 -0.38814118010E-01  0.77275496536E-01  0.51100000000E-03 0. -1.
         11    1    4    4    0    0 -0.87368778013E-02 -0.50346910585E-01 -0.20255707661E-01  0.54969985019E-01  0.51100000000E-03 0.  1.
</event>
<event>
 8    1  0.1106905E+005  0.1043930E+01  0.7957747E-01            NaN
         13   -1    0    0    0    0  0.00000000000E+00  0.00000000000E+00  0.74505805969E-08  0.10566000000E+00  0.10566000000E+00 0. -1.
     999900   -1    0    0    0    0 -0.00000000000E+00 -0.00000000000E+00 -0.74505805969E-08  0.93827000000E+00  0.93827000000E+00 0.  1.
     999902    2    1    2    0    0 -0.82413746144E-02 -0.17703614867E-01  0.57812707062E-03  0.10243935606E+01  0.10242072517E+01 0.  0.
     999903    2    3    3    0    0 -0.11030886018E-01 -0.11885874518E+00 -0.63776249920E-01  0.13625977132E+00  0.15818769680E-01 0.  0.
         14    1    1    2    0    0  0.82413746144E-02  0.17703614867E-01 -0.57812707062E-03  0.19536439436E-01  0.00000000000E+00 0. -1.
     999901    1    3    3    0    0  0.27895114037E-02  0.10115513031E+00  0.64354376990E-01  0.88813378925E+00  0.88000000000E+00 0. -1.
        -11    1    4    4    0    0 -0.48186608227E-02 -0.44368190725E-01 -0.32590443414E-01  0.55264400506E-01  0.51100000000E-03 0.  1.
         11    1    4    4    0    0 -0.62122251954E-02 -0.74490554454E-01 -0.31185806506E-01  0.80995370813E-01  0.51100000000E-03 0. -1.
</event>
<event>
 8    1  0.1106905E+005  0.1043930E+01  0.7957747E-01            NaN
         13   -1    0    0    0    0  0.00000000000E+00  0.00000000000E+00  0.74505805969E-08  0.10566000000E+00  0.10566000000E+00 0. -1.
     999900   -1    0    0    0    0 -0.00000000000E+00 -0.00000000000E+00 -0.74505805969E-08  0.93827000000E+00  0.93827000000E+00 0. -1.
     999902    2    1    2    0    0 -0.20265575876E-01 -0.36118380424E-02  0.10889530747E-01  0.10206422174E+01  0.10203765065E+01 0.  0.
     999903    2    3    3    0    0 -0.93157608879E-01 -0.56178620582E-01  0.75061740397E-01  0.13374053873E+00  0.20442341469E-01 0.  0.
         14    1    1    2    0    0  0.20265575876E-01  0.36118380424E-02 -0.10889530747E-01  0.23287782624E-01  0.00000000000E+00 0. -1.
     999901    1    3    3    0    0  0.72892033002E-01  0.52566782539E-01 -0.64172209650E-01  0.88690167865E+00  0.88000000000E+00 0. -1.
        -11    1    4    4    0    0 -0.45934109007E-01 -0.34636936837E-01  0.49427783330E-01  0.75848708952E-01  0.51100000000E-03 0.  1.
         11    1    4    4    0    0 -0.47223499871E-01 -0.21541683745E-01  0.25633957067E-01  0.57891829774E-01  0.51100000000E-03 0. -1.
</event>
<event>
 8    1  0.1106905E+005  0.1043930E+01  0.7957747E-01            NaN
         13   -1    0    0    0    0  0.00000000000E+00  0.00000000000E+00  0.74505805969E-08  0.10566000000E+00  0.10566000000E+00 0.  1.
     999900   -1    0    0    0    0 -0.00000000000E+00 -0.00000000000E+00 -0.74505805969E-08  0.93827000000E+00  0.93827000000E+00 0. -1.
     999902    2    1    2    0    0 -0.73203042391E-02  0.95785749171E-03  0.22449244911E-01  0.10202979679E+01  0.10200242499E+01 0.  0.
     999903    2    3    3    0    0  0.36450303221E-01 -0.94619046349E-01  0.82236030305E-01  0.13202702367E+00  0.19671851988E-01 0.  0.
         14    1    1    2    0    0  0.73203042391E-02 -0.95785749171E-03 -0.22449244911E-01  0.23632032121E-01  0.00000000000E+00 0. -1.
     999901    1    3    3    0    0 -0.43770607460E-01  0.95576903841E-01 -0.59786785395E-01  0.88827094421E+00  0.88000000000E+00 0.  1.
        -11    1    4    4    0    0  0.20358968540E-01 -0.59666431118E-01  0.62514443910E-01  0.88785626206E-01  0.51100000000E-03 0. -1.
         11    1    4    4    0    0  0.16091334681E-01 -0.34952615232E-01  0.19721586396E-01  0.43241397460E-01  0.51100000000E-03 0.  1.
</event>
<event>
 8    1  0.1106905E+005  0.1043930E+01  0.7957747E-01            NaN
         13   -1    0    0    0    0  0.00000000000E+00  0.00000000000E+00  0.74505805969E-08  0.10566000000E+00  0.10566000000E+00 0.  1.
     999900   -1    0    0    0    0 -0.00000000000E+00 -0.00000000000E+00 -0.74505805969E-08  0.93827000000E+00  0.93827000000E+00 0.  1.
     999902    2    1    2    0    0 -0.10687986171E-01  0.13937826476E-01 -0.16183314547E-01  0.10200470411E+01  0.10197674099E+01 0.  0.
     999903    2    3    3    0    0  0.92081472188E-01  0.81210163259E-01  0.36582356991E-01  0.12995078511E+00  0.21791043358E-01 0.  0.
         14    1    1    2    0    0  0.10687986171E-01 -0.13937826476E-01  0.16183314547E-01  0.23882958882E-01  0.00000000000E+00 0.  1.
     999901    1    3    3    0    0 -0.10276945836E+00 -0.67272336783E-01 -0.52765671538E-01  0.89009625601E+00  0.88000000000E+00 0. -1.
        -11    1    4    4    0    0  0.10829062601E-01  0.11200178296E-01  0.12609855634E-01  0.20049493031E-01  0.51100000000E-03 0. -1.
         11    1    4    4    0    0  0.81252409587E-01  0.70009984962E-01  0.23972501357E-01  0.10990129208E+00  0.51100000000E-03 0.  1.
</event>
<event>
 8    1  0.1106905E+005  0.1043930E+01  0.7957747E-01            NaN
         13   -1    0    0    0    0  0.00000000000E+00  0.00000000000E+00  0.74505805969E-08  0.10566000000E+00  0.10566000000E+00 0.  1.
     999900   -1    0    0    0    0 -0.00000000000E+00 -0.00000000000E+00 -0.74505805969E-08  0.93827000000E+00  0.93827000000E+00 0.  1.
     999902    2    1    2    0    0 -0.27624480070E-02  0.33709218214E-02 -0.22348878967E-01  0.10211601378E+01  0.10209062447E+01 0.  0.
     999903    2    3    3    0    0  0.20881744359E-01  0.60776786165E-01  0.11010504632E+00  0.12908473550E+00  0.20245560741E-01 0.  0.
         14    1    1    2    0    0  0.27624480070E-02 -0.33709218214E-02  0.22348878967E-01  0.22769862187E-01  0.00000000000E+00 0.  1.
     999901    1    3    3    0    0 -0.23644192366E-01 -0.57405864344E-01 -0.13245392528E+00  0.89207540232E+00  0.88000000000E+00 0.  1.
        -11    1    4    4    0    0 -0.27224188088E-02  0.17425695679E-01  0.23319737647E-01  0.29242737885E-01  0.51100000000E-03 0. -1.
         11    1    4    4    0    0  0.23604163168E-01  0.43351090486E-01  0.86785308671E-01  0.99841997613E-01  0.51100000000E-03 0.  1.
</event>
<event>
 8    1  0.1106905E+005  0.1043930E+01  0.7957747E-01            NaN
         13   -1    0    0    0    0  0.00000000000E+00  0.00000000000E+00  0.74505805969E-08  0.10566000000E+00  0.10566000000E+00 0. -1.
     999900   -1    0    0    0    0 -0.00000000000E+00 -0.00000000000E+00 -0.74505805969E-08  0.93827000000E+00  0.93827000000E+00 0.  1.
     999902    2    1    2    0    0 -0.22396324956E-01  0.64349768789E-02  0.37465172484E-02  0.10203282905E+01  0.10200552827E+01 0.  0.
     999903    2    3    3    0    0 -0.21032697271E-01  0.55174856463E-01  0.11617762914E+00  0.13183620262E+00  0.19922441337E-01 0.  0.
         14    1    1    2    0    0  0.22396324956E-01 -0.64349768789E-02 -0.37465172484E-02  0.23601709482E-01  0.00000000000E+00 0.  1.
     999901    1    3    3    0    0 -0.13636276844E-02 -0.48739879584E-01 -0.11243111189E+00  0.88849208790E+00  0.88000000000E+00 0.  1.
        -11    1    4    4    0    0 -0.72263252302E-02  0.10226141801E-01  0.43525490918E-01  0.45293743863E-01  0.51100000000E-03 0. -1.
         11    1    4    4    0    0 -0.13806372041E-01  0.44948714662E-01  0.72652138217E-01  0.86542458754E-01  0.51100000000E-03 0.  1.
</event>
<event>
 8    1  0.1106905E+005  0.1043930E+01  0.7957747E-01            NaN
         13   -1    0    0    0    0  0.00000000000E+00  0.00000000000E+00  0.74505805969E-08  0.10566000000E+00  0.10566000000E+00 0.  1.
     999900   -1    0    0    0    0 -0.00000000000E+00 -0.00000000000E+00 -0.74505805969E-08  0.93827000000E+00  0.93827000000E+00 0.  1.
     999902    2    1    2    0    0  0.18247464866E-01 -0.55313935834E-02  0.14377326071E-01  0.10200495939E+01  0.10197700232E+01 0.  0.
     999903    2    3    3    0    0 -0.89125247751E-01 -0.70053057507E-01 -0.56859021464E-01  0.12832847063E+00  0.19608860243E-01 0.  0.
         14    1    1    2    0    0 -0.18247464866E-01  0.55313935834E-02 -0.14377326071E-01  0.23880406068E-01  0.00000000000E+00 0. -1.
     999901    1    3    3    0    0  0.10737271262E+00  0.64521663924E-01  0.71236347536E-01  0.89172112330E+00  0.88000000000E+00 0. -1.
        -11    1    4    4    0    0 -0.50391726683E-01 -0.36030521398E-01 -0.41377917088E-01  0.74497769992E-01  0.51100000000E-03 0. -1.
         11    1    4    4    0    0 -0.38733521068E-01 -0.34022536110E-01 -0.15481104377E-01  0.53830700640E-01  0.51100000000E-03 0.  1.
</event>
<event>
 8    1  0.1106905E+005  0.1043930E+01  0.7957747E-01            NaN
         13   -1    0    0    0    0  0.00000000000E+00  0.00000000000E+00  0.74505805969E-08  0.10566000000E+00  0.10566000000E+00 0. -1.
     999900   -1    0    0    0    0 -0.00000000000E+00 -0.00000000000E+00 -0.74505805969E-08  0.93827000000E+00  0.93827000000E+00 0. -1.
     999902    2    1    2    0    0 -0.57386335083E-02  0.18508904526E-01  0.13930601788E-01  0.10200642688E+01  0.10197850456E+01 0.  0.
     999903    2    3    3    0    0  0.44524892211E-01  0.15378984773E-01 -0.11791469004E+00  0.12881828735E+00  0.21709394938E-01 0.  0.
         14    1    1    2    0    0  0.57386335083E-02 -0.18508904526E-01 -0.13930601788E-01  0.23865731237E-01  0.00000000000E+00 0.  1.
     999901    1    3    3    0    0 -0.50263525720E-01  0.31299197532E-02  0.13184529183E+00  0.89124598142E+00  0.88000000000E+00 0.  1.
        -11    1    4    4    0    0  0.39180974141E-01  0.16849287037E-01 -0.81559146889E-01  0.92039137168E-01  0.51100000000E-03 0.  1.
         11    1    4    4    0    0  0.53439180709E-02 -0.14703022639E-02 -0.36355543150E-01  0.36779150178E-01  0.51100000000E-03 0. -1.
</event>
<event>
 8    1  0.1106905E+005  0.1043930E+01  0.7957747E-01            NaN
         13   -1    0    0    0    0  0.00000000000E+00  0.00000000000E+00  0.74505805969E-08  0.10566000000E+00  0.10566000000E+00 0. -1.
     999900   -1    0    0    0    0 -0.00000000000E+00 -0.00000000000E+00 -0.74505805969E-08  0.93827000000E+00  0.93827000000E+00 0. -1.
     999902    2    1    2    0    0 -0.61957940974E-02  0.20977849755E-01  0.85332575469E-02  0.10204507639E+01  0.10201806149E+01 0.  0.
     999903    2    3    3    0    0 -0.12932775276E+00  0.33480761767E-02 -0.16535768736E-01  0.13134967612E+00  0.15570116282E-01 0.  0.
         14    1    1    2    0    0  0.61957940974E-02 -0.20977849755E-01 -0.85332575469E-02  0.23479236129E-01  0.00000000000E+00 0. -1.
     999901    1    3    3    0    0  0.12313195866E+00  0.17629773579E-01  0.25069026283E-01  0.88910108775E+00  0.88000000000E+00 0.  1.
        -11    1    4    4    0    0 -0.77245659241E-01  0.92219209068E-02 -0.74303676285E-02  0.78149901989E-01  0.51100000000E-03 0. -1.
         11    1    4    4    0    0 -0.52082093519E-01 -0.58738447301E-02 -0.91054011077E-02  0.53199774131E-01  0.51100000000E-03 0.  1.
</event>
<event>
 8    1  0.1106905E+005  0.1043930E+01  0.7957747E-01            NaN
         13   -1    0    0    0    0  0.00000000000E+00  0.00000000000E+00  0.74505805969E-08  0.10566000000E+00  0.10566000000E+00 0. -1.
     999900   -1    0    0    0    0 -0.00000000000E+00 -0.00000000000E+00 -0.74505805969E-08  0.93827000000E+00  0.93827000000E+00 0.  1.
     999902    2    1    2    0    0 -0.34077330750E-02 -0.41421243358E-02 -0.22421884927E-01  0.10208754828E+01  0.10206151286E+01 0.  0.
     999903    2    3    3    0    0 -0.22293867449E-01  0.15667500288E-01 -0.12940368653E+00  0.13397401525E+00  0.21476395972E-01 0.  0.
         14    1    1    2    0    0  0.34077330750E-02  0.41421243358E-02  0.22421884927E-01  0.23054517180E-01  0.00000000000E+00 0. -1.
     999901    1    3    3    0    0  0.18886134374E-01 -0.19809624624E-01  0.10698180160E+00  0.88690146757E+00  0.88000000000E+00 0. -1.
        -11    1    4    4    0    0 -0.22914863998E-01  0.95146568085E-02 -0.70422665754E-01  0.74667480600E-01  0.51100000000E-03 0.  1.
         11    1    4    4    0    0  0.62099654911E-03  0.61528434793E-02 -0.58981020777E-01  0.59306534652E-01  0.51100000000E-03 0. -1.
</event>
<event>
 8    1  0.1106905E+005  0.1043930E+01  0.7957747E-01            NaN
         13   -1    0    0    0    0  0.00000000000E+00  0.00000000000E+00  0.74505805969E-08  0.10566000000E+00  0.10566000000E+00 0.  1.
     999900   -1    0    0    0    0 -0.00000000000E+00 -0.00000000000E+00 -0.74505805969E-08  0.93827000000E+00  0.93827000000E+00 0. -1.
     999902    2    1    2    0    0 -0.12827565574E-01  0.59306547577E-02  0.17068761898E-01  0.10217700872E+01  0.10215297594E+01 0.  0.
     999903    2    3    3    0    0  0.97168475160E-01 -0.71381406629E-01  0.47434546369E-01  0.13104096746E+00  0.19613291062E-01 0.  0.
         14    1    1    2    0    0  0.12827565574E-01 -0.59306547577E-02 -0.17068761898E-01  0.22159912841E-01  0.00000000000E+00 0. -1.
     999901    1    3    3    0    0 -0.10999604073E+00  0.77312061387E-01 -0.30365784471E-01  0.89072911970E+00  0.88000000000E+00 0.  1.
        -11    1    4    4    0    0  0.56563758086E-01 -0.50680431331E-01  0.23168812194E-01  0.79404154981E-01  0.51100000000E-03 0. -1.
         11    1    4    4    0    0  0.40604717074E-01 -0.20700975298E-01  0.24265734175E-01  0.51636812479E-01  0.51100000000E-03 0.  1.
</event>
<event>
 8    1  0.1106905E+005  0.1043930E+01  0.7957747E-01            NaN
         13   -1    0    0    0    0  0.00000000000E+00  0.00000000000E+00  0.74505805969E-08  0.10566000000E+00  0.10566000000E+00 0. -1.
     999900   -1    0    0    0    0 -0.00000000000E+00 -0.00000000000E+00 -0.74505805969E-08  0.93827000000E+00  0.93827000000E+00 0. -1.
     999902    2    1    2    0    0 -0.68695276831E-02 -0.11924962896E-01  0.18631998635E-01  0.10207665261E+01  0.10205036767E+01 0.  0.
     999903    2    3    3    0    0  0.10961783508E+00  0.40581168456E-01 -0.50533496602E-01  0.12885281656E+00  0.19659935257E-01 0.  0.
         14    1    1    2    0    0  0.68695276831E-02  0.11924962896E-01 -0.18631998635E-01  0.23163473915E-01  0.00000000000E+00 0.  1.
     999901    1    3    3    0    0 -0.11648736277E+00 -0.52506131352E-01  0.69165495237E-01  0.89191370953E+00  0.88000000000E+00 0.  1.
        -11    1    4    4    0    0  0.61502609556E-01  0.29798170256E-01 -0.37010090166E-01  0.77720716852E-01  0.51100000000E-03 0.  1.
         11    1    4    4    0    0  0.48115225526E-01  0.10782998200E-01 -0.13523406436E-01  0.51132099705E-01  0.51100000000E-03 0. -1.
</event>
<event>
 8    1  0.1106905E+005  0.1043930E+01  0.7957747E-01            NaN
         13   -1    0    0    0    0  0.00000000000E+00  0.00000000000E+00  0.74505805969E-08  0.10566000000E+00  0.10566000000E+00 0. -1.
     999900   -1    0    0    0    0 -0.00000000000E+00 -0.00000000000E+00 -0.74505805969E-08  0.93827000000E+00  0.93827000000E+00 0. -1.
     999902    2    1    2    0    0  0.40622397426E-02  0.21081261589E-02  0.24118864055E-01  0.10193807517E+01  0.10190851051E+01 0.  0.
     999903    2    3    3    0    0 -0.11396961659E+00  0.56252818030E-01 -0.10850053393E-01  0.12916392872E+00  0.20301324618E-01 0.  0.
         14    1    1    2    0    0 -0.40622397426E-02 -0.21081261589E-02 -0.24118864055E-01  0.24549248276E-01  0.00000000000E+00 0.  1.
     999901    1    3    3    0    0  0.11803185634E+00 -0.54144691871E-01  0.34968917448E-01  0.89021682300E+00  0.88000000000E+00 0.  1.
        -11    1    4    4    0    0 -0.17146422525E-01  0.15909087246E-01 -0.60280606259E-02  0.24159832333E-01  0.51100000000E-03 0. -1.
         11    1    4    4    0    0 -0.96823194069E-01  0.40343730784E-01 -0.48219927675E-02  0.10500409639E+00  0.51100000000E-03 0.  1.
</event>
<event>
 8    1  0.1106905E+005  0.1043930E+01  0.7957747E-01            NaN
         13   -1    0    0    0    0  0.00000000000E+00  0.00000000000E+00  0.74505805969E-08  0.10566000000E+00  0.10566000000E+00 0.  1.
     999900   -1    0    0    0    0 -0.00000000000E+00 -0.00000000000E+00 -0.74505805969E-08  0.93827000000E+00  0.93827000000E+00 0. -1.
     999902    2    1    2    0    0 -0.19726088208E-01  0.50442635802E-02 -0.16286874319E-01  0.10178565379E+01  0.10175225336E+01 0.  0.
     999903    2    3    3    0    0  0.11015433973E+00 -0.19394046537E-01  0.52977946624E-01  0.12529630352E+00  0.19554877785E-01 0.  0.
         14    1    1    2    0    0  0.19726088208E-01 -0.50442635802E-02  0.16286874319E-01  0.26073462105E-01  0.00000000000E+00 0.  1.
     999901    1    3    3    0    0 -0.12988042794E+00  0.24438310117E-01 -0.69264820944E-01  0.89256023437E+00  0.88000000000E+00 0. -1.
        -11    1    4    4    0    0  0.80469909421E-01 -0.13735620712E-01  0.47896476180E-01  0.94648862381E-01  0.51100000000E-03 0.  1.
         11    1    4    4    0    0  0.29684430310E-01 -0.56584258248E-02  0.50814704449E-02  0.30647441141E-01  0.51100000000E-03 0. -1.
</event>
<event>
 8    1  0.1106905E+005  0.1043930E+01  0.7957747E-01            NaN
         13   -1    0    0    0    0  0.00000000000E+00  0.00000000000E+00  0.74505805969E-08  0.10566000000E+00  0.10566000000E+00 0. -1.
     999900   -1    0    0    0    0 -0.00000000000E+00 -0.00000000000E+00 -0.74505805969E-08  0.93827000000E+00  0.93827000000E+00 0. -1.
     999902    2    1    2    0    0  0.58244935454E-03  0.20801900874E-01 -0.11936023673E-01  0.10199398564E+01  0.10196576797E+01 0.  0.
     999903    2    3    3    0    0  0.12022836958E+00  0.45126835507E-02 -0.47909735955E-01  0.13096595760E+00  0.19532385623E-01 0.  0.
         14    1    1    2    0    0 -0.58244935454E-03 -0.20801900874E-01  0.11936023673E-01  0.23990143566E-01  0.00000000000E+00 0.  1.
     999901    1    3    3    0    0 -0.11964592022E+00  0.16289217323E-01  0.35973712282E-01  0.88897389883E+00  0.88000000000E+00 0.  1.
        -11    1    4    4    0    0  0.72073392594E-01 -0.56650007386E-02 -0.23474750994E-01  0.76013098928E-01  0.51100000000E-03 0.  1.
         11    1    4    4    0    0  0.48154976981E-01  0.10177684289E-01 -0.24434984961E-01  0.54952858675E-01  0.51100000000E-03 0. -1.
</event>
<event>
 8    1  0.1106905E+005  0.1043930E+01  0.7957747E-01            NaN
         13   -1    0    0    0    0  0.00000000000E+00  0.00000000000E+00  0.74505805969E-08  0.10566000000E+00  0.10566000000E+00 0.  1.
     999900   -1    0    0    0    0 -0.00000000000E+00 -0.00000000000E+00 -0.74505805969E-08  0.93827000000E+00  0.93827000000E+00 0.  1.
     999902    2    1    2    0    0  0.14383697464E-01 -0.72805243738E-02 -0.17527011899E-01  0.10201162868E+01  0.10198382939E+01 0.  0.
     999903    2    3    3    0    0 -0.47628561622E-01 -0.84505759091E-01  0.82448018590E-01  0.12893490022E+00  0.20416403296E-01 0.  0.
         14    1    1    2    0    0 -0.14383697464E-01  0.72805243738E-02  0.17527011899E-01  0.23813713150E-01  0.00000000000E+00 0.  1.
     999901    1    3    3    0    0  0.62012259086E-01  0.77225234718E-01 -0.99975030489E-01  0.89118138663E+00  0.88000000000E+00 0.  1.
        -11    1    4    4    0    0  0.24034632368E-03 -0.12753543717E-01  0.86859442289E-02  0.15440770442E-01  0.51100000000E-03 0. -1.
         11    1    4    4    0    0 -0.47868907945E-01 -0.71752215375E-01  0.73762074361E-01  0.11349412978E+00  0.51100000000E-03 0.  1.
</event>
<event>
 8    1  0.1106905E+005  0.1043930E+01  0.7957747E-01            NaN
         13   -1    0    0    0    0  0.00000000000E+00  0.00000000000E+00  0.74505805969E-08  0.10566000000E+00  0.10566000000E+00 0. -1.
     999900   -1    0    0    0    0 -0.00000000000E+00 -0.00000000000E+00 -0.74505805969E-08  0.93827000000E+00  0.93827000000E+00 0. -1.
     999902    2    1    2    0    0  0.25135220657E-01  0.45424947150E-02  0.67948253339E-02  0.10174992749E+01  0.10171559326E+01 0.  0.
     999903    2    3    3    0    0 -0.25196311309E-01  0.91361236893E-01  0.83886981321E-01  0.12844699436E+00  0.21906049711E-01 0.  0.
         14    1    1    2    0    0 -0.25135220657E-01 -0.45424947150E-02 -0.67948253339E-02  0.26430725056E-01  0.00000000000E+00 0. -1.
     999901    1    3    3    0    0  0.50331531965E-01 -0.86818742178E-01 -0.77092155987E-01  0.88905228059E+00  0.88000000000E+00 0. -1.
        -11    1    4    4    0    0 -0.22056554119E-01  0.53454883931E-01  0.39714889059E-01  0.70153045049E-01  0.51100000000E-03 0. -1.
         11    1    4    4    0    0 -0.31397571896E-02  0.37906352961E-01  0.44172092261E-01  0.58293949307E-01  0.51100000000E-03 0.  1.
</event>
<event>
 8    1  0.1106905E+005  0.1043930E+01  0.7957747E-01            NaN
         13   -1    0    0    0    0  0.00000000000E+00  0.00000000000E+00  0.74505805969E-08  0.10566000000E+00  0.10566000000E+00 0.  1.
     999900   -1    0    0    0    0 -0.00000000000E+00 -0.00000000000E+00 -0.74505805969E-08  0.93827000000E+00  0.93827000000E+00 0.  1.
     999902    2    1    2    0    0  0.25888929972E-01  0.23040260417E-02  0.11346628870E-01  0.10155699715E+01  0.10151739140E+01 0.  0.
     999903    2    3    3    0    0  0.51444206541E-01  0.11567127623E+00  0.62980300942E-03  0.12786503405E+00  0.17964402320E-01 0.  0.
         14    1    1    2    0    0 -0.25888929972E-01 -0.23040260417E-02 -0.11346628870E-01  0.28360028523E-01  0.00000000000E+00 0. -1.
     999901    1    3    3    0    0 -0.25555276568E-01 -0.11336725018E+00  0.10716825861E-01  0.88770493743E+00  0.88000000000E+00 0.  1.
        -11    1    4    4    0    0  0.29418247238E-01  0.86029681667E-01 -0.23144809998E-03  0.90922241985E-01  0.51100000000E-03 0.  1.
         11    1    4    4    0    0  0.22025959302E-01  0.29641594558E-01  0.86125110940E-03  0.36942792066E-01  0.51100000000E-03 0. -1.
</event>
<event>
 7    1  0.1626008E+005  0.1043930E+01  0.7957747E-01            NaN
         13   -1    0    0    0    0  0.00000000000E+00  0.00000000000E+00  0.74505805969E-08  0.10566000000E+00  0.10566000000E+00 0. -1.
     999900   -1    0    0    0    0 -0.00000000000E+00 -0.00000000000E+00 -0.74505805969E-08  0.93827000000E+00  0.93827000000E+00 0. -1.
     999903    2    1    2    0    0 -0.96891635023E-01 -0.36736901587E-01 -0.24401090645E-01  0.10825004301E+00  0.19623193189E-01 0.  0.
         14    1    1    2    0    0  0.80041597747E-02 -0.39402911137E-01  0.26087714252E-01  0.47929373193E-01  0.00000000000E+00 0. -1.
     999901    1    1    2    0    0  0.88887475248E-01  0.76139812724E-01 -0.16866236067E-02  0.88775058380E+00  0.88000000000E+00 0. -1.
        -11    1    3    3    0    0 -0.60189030505E-01 -0.21681300281E-01 -0.52394796882E-02  0.64191210017E-01  0.51100000000E-03 0. -1.
         11    1    3    3    0    0 -0.36702604517E-01 -0.15055601306E-01 -0.19161610957E-01  0.44058832991E-01  0.51100000000E-03 0.  1.
</event>
<event>
 8    1  0.1106905E+005  0.1043930E+01  0.7957747E-01            NaN
         13   -1    0    0    0    0  0.00000000000E+00  0.00000000000E+00  0.74505805969E-08  0.10566000000E+00  0.10566000000E+00 0. -1.
     999900   -1    0    0    0    0 -0.00000000000E+00 -0.00000000000E+00 -0.74505805969E-08  0.93827000000E+00  0.93827000000E+00 0. -1.
     999902    2    1    2    0    0 -0.24770586436E-01 -0.53015824351E-02  0.17874768386E-01  0.10129268377E+01  0.10124522618E+01 0.  0.
     999903    2    3    3    0    0  0.67386665469E-01 -0.20904028235E-01  0.10021553190E+00  0.12415442771E+00  0.19829977500E-01 0.  0.
         14    1    1    2    0    0  0.24770586436E-01  0.53015824351E-02 -0.17874768386E-01  0.31003162315E-01  0.00000000000E+00 0.  1.
     999901    1    3    3    0    0 -0.92157251905E-01  0.15602445800E-01 -0.82340763511E-01  0.88877240997E+00  0.88000000000E+00 0. -1.
        -11    1    4    4    0    0  0.39118586666E-01 -0.18076493204E-01  0.46586317707E-01  0.63463135345E-01  0.51100000000E-03 0.  1.
         11    1    4    4    0    0  0.28268078802E-01 -0.28275350310E-02  0.53629214190E-01  0.60691292367E-01  0.51100000000E-03 0. -1.
</event>
<event>
 8    1  0.1106905E+005  0.1043930E+01  0.7957747E-01            NaN
         13   -1    0    0    0    0  0.00000000000E+00  0.00000000000E+00  0.74505805969E-08  0.10566000000E+00  0.10566000000E+00 0. -1.
     999900   -1    0    0    0    0 -0.00000000000E+00 -0.00000000000E+00 -0.74505805969E-08  0.93827000000E+00  0.93827000000E+00 0. -1.
     999902    2    1    2    0    0 -0.14886738511E-01  0.17654528005E-01  0.58619699094E-02  0.10201043828E+01  0.10198261086E+01 0.  0.
     999903    2    3    3    0    0 -0.24904659169E-01  0.74385878030E-01  0.10569518368E+00  0.13258791797E+00  0.15955664845E-01 0.  0.
         14    1    1    2    0    0  0.14886738511E-01 -0.17654528005E-01 -0.58619699094E-02  0.23825617175E-01  0.00000000000E+00 0.  1.
     999901    1    3    3    0    0  0.10017920658E-01 -0.56731350025E-01 -0.99833213772E-01  0.88751646485E+00  0.88000000000E+00 0. -1.
        -11    1    4    4    0    0 -0.96349207289E-02  0.51514110414E-01  0.65599941310E-01  0.83965163551E-01  0.51100000000E-03 0. -1.
         11    1    4    4    0    0 -0.15269738440E-01  0.22871767615E-01  0.40095242371E-01  0.48622754423E-01  0.51100000000E-03 0.  1.
</event>
<event>
 8    1  0.1106905E+005  0.1043930E+01  0.7957747E-01            NaN
         13   -1    0    0    0    0  0.00000000000E+00  0.00000000000E+00  0.74505805969E-08  0.10566000000E+00  0.10566000000E+00 0. -1.
     999900   -1    0    0    0    0 -0.00000000000E+00 -0.00000000000E+00 -0.74505805969E-08  0.93827000000E+00  0.93827000000E+00 0. -1.
     999902    2    1    2    0    0  0.68409414737E-02  0.10614732809E-01 -0.19455102104E-01  0.10207357759E+01  0.10204722202E+01 0.  0.
     999903    2    3    3    0    0  0.90228546436E-01  0.89959388140E-01  0.27224135756E-01  0.13201308675E+00  0.21270152794E-01 0.  0.
         14    1    1    2    0    0 -0.68409414737E-02 -0.10614732809E-01  0.19455102104E-01  0.23194224081E-01  0.00000000000E+00 0.  1.
     999901    1    3    3    0    0 -0.83387604962E-01 -0.79344655331E-01 -0.46679237860E-01  0.88872268917E+00  0.88000000000E+00 0. -1.
        -11    1    4    4    0    0  0.53403438040E-01  0.51903451992E-01  0.51884694209E-02  0.74653043201E-01  0.51100000000E-03 0.  1.
         11    1    4    4    0    0  0.36825108396E-01  0.38055936148E-01  0.22035666335E-01  0.57360043552E-01  0.51100000000E-03 0. -1.
</event>
<event>
 8    1  0.1106905E+005  0.1043930E+01  0.7957747E-01            NaN
         13   -1    0    0    0    0  0.00000000000E+00  0.00000000000E+00  0.74505805969E-08  0.10566000000E+00  0.10566000000E+00 0. -1.
     999900   -1    0    0    0    0 -0.00000000000E+00 -0.00000000000E+00 -0.74505805969E-08  0.93827000000E+00  0.93827000000E+00 0. -1.
     999902    2    1    2    0    0  0.15291307617E-02  0.87590231533E-02 -0.21052781389E-01  0.10210765904E+01  0.10208208095E+01 0.  0.
     999903    2    3    3    0    0  0.48420832677E-01  0.54003087112E-01 -0.11098314739E+00  0.13409669896E+00  0.20093661008E-01 0.  0.
         14    1    1    2    0    0 -0.15291307617E-02 -0.87590231533E-02  0.21052781389E-01  0.22853409630E-01  0.00000000000E+00 0. -1.
     999901    1    3    3    0    0 -0.46891701916E-01 -0.45244063959E-01  0.89930366003E-01  0.88697989141E+00  0.88000000000E+00 0.  1.
        -11    1    4    4    0    0  0.66093760659E-02  0.11799491729E-01 -0.96159409522E-02  0.16602388335E-01  0.51100000000E-03 0.  1.
         11    1    4    4    0    0  0.41811456611E-01  0.42203595383E-01 -0.10136720644E+00  0.11749431063E+00  0.51100000000E-03 0. -1.
</event>
<event>
 8    1  0.1106905E+005  0.1043930E+01  0.7957747E-01            NaN
         13   -1    0    0    0    0  0.00000000000E+00  0.00000000000E+00  0.74505805969E-08  0.10566000000E+00  0.10566000000E+00 0.  1.
     999900   -1    0    0    0    0 -0.00000000000E+00 -0.00000000000E+00 -0.74505805969E-08  0.93827000000E+00  0.93827000000E+00 0. -1.
     999902    2    1    2    0    0 -0.22808451996E-01 -0.25412753994E-02  0.53441871551E-02  0.10203663861E+01  0.10200942692E+01 0.  0.
     999903    2    3    3    0    0  0.59171947477E-01 -0.11357188214E+00 -0.66064062424E-02  0.12952891597E+00  0.18281238640E-01 0.  0.
         14    1    1    2    0    0  0.22808451996E-01  0.25412753994E-02 -0.53441871551E-02  0.23563613888E-01  0.00000000000E+00 0. -1.
     999901    1    3    3    0    0 -0.81980399472E-01  0.11103060675E+00  0.11950593397E-01  0.89083747015E+00  0.88000000000E+00 0. -1.
        -11    1    4    4    0    0  0.26785731555E-01 -0.61020647396E-01  0.45485586825E-02  0.66797794355E-01  0.51100000000E-03 0.  1.
         11    1    4    4    0    0  0.32386215921E-01 -0.52551234748E-01 -0.11154964925E-01  0.62731121612E-01  0.51100000000E-03 0. -1.
</event>
<event>
 7    1  0.1106905E+005  0.1043930E+01  0.7957747E-01            NaN
         13   -1    0    0    0    0  0.00000000000E+00  0.00000000000E+00  0.74505805969E-08  0.10566000000E+00  0.10566000000E+00 0.  1.
     999900   -1    0    0    0    0 -0.00000000000E+00 -0.00000000000E+00 -0.74505805969E-08  0.93827000000E+00  0.93827000000E+00 0.  1.
     999902    2    1    2    0    0 -0.42799226129E-02 -0.18110862258E-01  0.13383103826E-01  0.10210077720E+01  0.10207504308E+01 0.  0.
         14    1    1    2    0    0  0.42799226129E-02  0.18110862258E-01 -0.13383103826E-01  0.22922228018E-01  0.00000000000E+00 0. -1.
     999901    1    3    3    0    0  0.93676142636E-01 -0.50019811918E-02  0.90637796515E-01  0.88961533804E+00  0.88000000000E+00 0. -1.
        -11    1    3    3    0    0 -0.70869353097E-01  0.33196834163E-02 -0.36549466178E-01  0.79809837146E-01  0.51100000000E-03 0.  1.
         11    1    3    3    0    0 -0.27086712153E-01 -0.16428564482E-01 -0.40705226511E-01  0.51582596798E-01  0.51100000000E-03 0. -1.
</event>
<event>
 8    1  0.1106905E+005  0.1043930E+01  0.7957747E-01            NaN
         13   -1    0    0    0    0  0.00000000000E+00  0.00000000000E+00  0.74505805969E-08  0.10566000000E+00  0.10566000000E+00 0.  1.
     999900   -1    0    0    0    0 -0.00000000000E+00 -0.00000000000E+00 -0.74505805969E-08  0.93827000000E+00  0.93827000000E+00 0. -1.
     999902    2    1    2    0    0 -0.64854854887E-02  0.40717579369E-02 -0.20130918967E-01  0.10223917867E+01  0.10221648941E+01 0.  0.
     999903    2    3    3    0    0  0.12136886290E+00  0.30706369208E-01 -0.38705791869E-01  0.13255968857E+00  0.20016261317E-01 0.  0.
         14    1    1    2    0    0  0.64854854887E-02 -0.40717579369E-02  0.20130918967E-01  0.21538213323E-01  0.00000000000E+00 0.  1.
     999901    1    3    3    0    0 -0.12785434839E+00 -0.26634611271E-01  0.18574872903E-01  0.88983209811E+00  0.88000000000E+00 0. -1.
        -11    1    4    4    0    0  0.76889152605E-01  0.28289894661E-01 -0.29434349227E-01  0.87056889237E-01  0.51100000000E-03 0. -1.
         11    1    4    4    0    0  0.44479710297E-01  0.24164745474E-02 -0.92714426427E-02  0.45502799331E-01  0.51100000000E-03 0.  1.
</event>
<event>
 8    1  0.1152738E+005  0.1043930E+01  0.7957747E-01            NaN
         13   -1    0    0    0    0  0.00000000000E+00  0.00000000000E+00  0.74505805969E-08  0.10566000000E+00  0.10566000000E+00 0.  1.
     999900   -1    0    0    0    0 -0.00000000000E+00 -0.00000000000E+00 -0.74505805969E-08  0.93827000000E+00  0.93827000000E+00 0.  1.
     999902    2    1    2    0    0  0.60363569982E-02 -0.23348004334E-01  0.14014718410E-01  0.10160377207E+01  0.10156547990E+01 0.  0.
     999903    2    3    3    0    0  0.11073567164E+00 -0.38560840524E-01  0.50020360533E-01  0.12896963812E+00  0.19539797701E-01 0.  0.
         14    1    1    2    0    0 -0.60363569982E-02  0.23348004334E-01 -0.14014718410E-01  0.27892279296E-01  0.00000000000E+00 0.  1.
     999901    1    3    3    0    0 -0.10469931464E+00  0.15212836190E-01 -0.36005642123E-01  0.88706808258E+00  0.88000000000E+00 0. -1.
        -11    1    4    4    0    0  0.44941375798E-01 -0.15868238350E-01  0.30857897914E-01  0.56780271500E-01  0.51100000000E-03 0.  1.
         11    1    4    4    0    0  0.65794295841E-01 -0.22692602175E-01  0.19162462619E-01  0.72189366622E-01  0.51100000000E-03 0. -1.
</event>
<event>
 8    1  0.1106905E+005  0.1043930E+01  0.7957747E-01            NaN
         13   -1    0    0    0    0  0.00000000000E+00  0.00000000000E+00  0.74505805969E-08  0.10566000000E+00  0.10566000000E+00 0. -1.
     999900   -1    0    0    0    0 -0.00000000000E+00 -0.00000000000E+00 -0.74505805969E-08  0.93827000000E+00  0.93827000000E+00 0. -1.
     999902    2    1    2    0    0  0.48449504203E-02 -0.95104121887E-02 -0.20681398730E-01  0.10206568022E+01  0.10203914279E+01 0.  0.
     999903    2    3    3    0    0 -0.26506594180E-01  0.76488496456E-01 -0.10230132279E+00  0.13215213495E+00  0.21107735610E-01 0.  0.
         14    1    1    2    0    0 -0.48449504203E-02  0.95104121887E-02  0.20681398730E-01  0.23273197846E-01  0.00000000000E+00 0. -1.
     999901    1    3    3    0    0  0.31351544600E-01 -0.85998908644E-01  0.81619924060E-01  0.88850466720E+00  0.88000000000E+00 0.  1.
        -11    1    4    4    0    0 -0.70606661028E-02  0.33707713525E-01 -0.58625667603E-01  0.67994801123E-01  0.51100000000E-03 0. -1.
         11    1    4    4    0    0 -0.19445928077E-01  0.42780782930E-01 -0.43675655187E-01  0.64157333828E-01  0.51100000000E-03 0.  1.
</event>
<event>
 8    1  0.1106905E+005  0.1043930E+01  0.7957747E-01            NaN
         13   -1    0    0    0    0  0.00000000000E+00  0.00000000000E+00  0.74505805969E-08  0.10566000000E+00  0.10566000000E+00 0.  1.
     999900   -1    0    0    0    0 -0.00000000000E+00 -0.00000000000E+00 -0.74505805969E-08  0.93827000000E+00  0.93827000000E+00 0.  1.
     999902    2    1    2    0    0  0.22314560242E-01 -0.39595519991E-02  0.69763352223E-02  0.10202174104E+01  0.10199418011E+01 0.  0.
     999903    2    3    3    0    0 -0.93534385625E-01  0.55899386930E-01 -0.63594935951E-01  0.12781370406E+00  0.20459821952E-01 0.  0.
         14    1    1    2    0    0 -0.22314560242E-01  0.39595519991E-02 -0.69763352223E-02  0.23712589567E-01  0.00000000000E+00 0.  1.
     999901    1    3    3    0    0  0.11584894587E+00 -0.59858938929E-01  0.70571271173E-01  0.89240370637E+00  0.88000000000E+00 0.  1.
        -11    1    4    4    0    0 -0.19991968074E-01  0.22447685304E-01 -0.18046988042E-01  0.35064686814E-01  0.51100000000E-03 0. -1.
         11    1    4    4    0    0 -0.73542417551E-01  0.33451701626E-01 -0.45547947909E-01  0.92749017249E-01  0.51100000000E-03 0.  1.
</event>
<event>
 8    1  0.1106905E+005  0.1043930E+01  0.7957747E-01            NaN
         13   -1    0    0    0    0  0.00000000000E+00  0.00000000000E+00  0.74505805969E-08  0.10566000000E+00  0.10566000000E+00 0. -1.
     999900   -1    0    0    0    0 -0.00000000000E+00 -0.00000000000E+00 -0.74505805969E-08  0.93827000000E+00  0.93827000000E+00 0. -1.
     999902    2    1    2    0    0  0.12411584872E-01 -0.15978834344E-01  0.11116593923E-01  0.10208443065E+01  0.10205832395E+01 0.  0.
     999903    2    3    3    0    0  0.15339474180E-01 -0.12444481186E+00  0.42330033364E-01  0.13363084870E+00  0.18535407561E-01 0.  0.
         14    1    1    2    0    0 -0.12411584872E-01  0.15978834344E-01 -0.11116593923E-01  0.23085693545E-01  0.00000000000E+00 0.  1.
     999901    1    3    3    0    0 -0.29278893075E-02  0.10846597752E+00 -0.31213439441E-01  0.88721345775E+00  0.88000000000E+00 0. -1.
        -11    1    4    4    0    0  0.75009324226E-02 -0.86722884664E-01  0.20824282193E-01  0.89504382918E-01  0.51100000000E-03 0.  1.
         11    1    4    4    0    0  0.78385417570E-02 -0.37721927196E-01  0.21505751170E-01  0.44126465785E-01  0.51100000000E-03 0. -1.
</event>
<event>
 8    1  0.1106905E+005  0.1043930E+01  0.7957747E-01            NaN
         13   -1    0    0    0    0  0.00000000000E+00  0.00000000000E+00  0.74505805969E-08  0.10566000000E+00  0.10566000000E+00 0. -1.
     999900   -1    0    0    0    0 -0.00000000000E+00 -0.00000000000E+00 -0.74505805969E-08  0.93827000000E+00  0.93827000000E+00 0.  1.
     999902    2    1    2    0    0 -0.15083901825E-01 -0.23752919340E-02 -0.18593188528E-01  0.10198702252E+01  0.10195863884E+01 0.  0.
     999903    2    3    3    0    0 -0.63388318495E-01  0.99557230456E-01  0.50164116378E-01  0.13001005481E+00  0.21364800990E-01 0.  0.
         14    1    1    2    0    0  0.15083901825E-01  0.23752919340E-02  0.18593188528E-01  0.24059774846E-01  0.00000000000E+00 0. -1.
     999901    1    3    3    0    0  0.48304416670E-01 -0.10193252239E+00 -0.68757304906E-01  0.88986017035E+00  0.88000000000E+00 0.  1.
        -11    1    4    4    0    0 -0.53145377269E-02  0.57782049774E-02 -0.18104311902E-02  0.80728400273E-02  0.51100000000E-03 0.  1.
         11    1    4    4    0    0 -0.58073780768E-01  0.93779025479E-01  0.51974547569E-01  0.12193721478E+00  0.51100000000E-03 0. -1.
</event>
<event>
 8    1  0.1106905E+005  0.1043930E+01  0.7957747E-01            NaN
         13   -1    0    0    0    0  0.00000000000E+00  0.00000000000E+00  0.74505805969E-08  0.10566000000E+00  0.10566000000E+00 0. -1.
     999900   -1    0    0    0    0 -0.00000000000E+00 -0.00000000000E+00 -0.74505805969E-08  0.93827000000E+00  0.93827000000E+00 0. -1.
     999902    2    1    2    0    0 -0.16982919972E-01  0.16372126430E-01 -0.66914811826E-03  0.10203309777E+01  0.10200580328E+01 0.  0.
     999903    2    3    3    0    0 -0.22197682695E-02  0.82737755257E-01  0.10112165897E+00  0.13185829058E+00  0.17622581158E-01 0.  0.
         14    1    1    2    0    0  0.16982919972E-01 -0.16372126430E-01  0.66914811826E-03  0.23599022306E-01  0.00000000000E+00 0. -1.
     999901    1    3    3    0    0 -0.14763151702E-01 -0.66365628827E-01 -0.10179080708E+00  0.88847268711E+00  0.88000000000E+00 0. -1.
        -11    1    4    4    0    0  0.43943471423E-02  0.63058435193E-01  0.82741656534E-01  0.10412549824E+00  0.51100000000E-03 0.  1.
         11    1    4    4    0    0 -0.66141154118E-02  0.19679320064E-01  0.18380002433E-01  0.27732792346E-01  0.51100000000E-03 0. -1.
</event>
<event>
 8    1  0.1106905E+005  0.1043930E+01  0.7957747E-01            NaN
         13   -1    0    0    0    0  0.00000000000E+00  0.00000000000E+00  0.74505805969E-08  0.10566000000E+00  0.10566000000E+00 0.  1.
     999900   -1    0    0    0    0 -0.00000000000E+00 -0.00000000000E+00 -0.74505805969E-08  0.93827000000E+00  0.93827000000E+00 0. -1.
     999902    2    1    2    0    0 -0.37432654856E-03  0.21193990256E-01 -0.10969188913E-01  0.10200626908E+01  0.10197834303E+01 0.  0.
     999903    2    3    3    0    0 -0.78976427206E-02 -0.98793278207E-01  0.77763751038E-01  0.12746699312E+00  0.19446047913E-01 0.  0.
         14    1    1    2    0    0  0.37432654856E-03 -0.21193990256E-01  0.10969188913E-01  0.23867309206E-01  0.00000000000E+00 0.  1.
     999901    1    3    3    0    0  0.75233161720E-02  0.11998726846E+00 -0.88732939950E-01  0.89259569768E+00  0.88000000000E+00 0. -1.
        -11    1    4    4    0    0  0.42599838537E-02 -0.11326992930E-01  0.52498920759E-02  0.13201163550E-01  0.51100000000E-03 0.  1.
         11    1    4    4    0    0 -0.12157626574E-01 -0.87466285276E-01  0.72513858962E-01  0.11426582957E+00  0.51100000000E-03 0. -1.
</event>
<event>
 8    1  0.1106905E+005  0.1043930E+01  0.7957747E-01            NaN
         13   -1    0    0    0    0  0.00000000000E+00  0.00000000000E+00  0.74505805969E-08  0.10566000000E+00  0.10566000000E+00 0. -1.
     999900   -1    0    0    0    0 -0.00000000000E+00 -0.00000000000E+00 -0.74505805969E-08  0.93827000000E+00  0.93827000000E+00 0.  1.
     999902    2    1    2    0    0  0.63331618670E-02  0.82071070961E-02 -0.20199227194E-01  0.10212259403E+01  0.10209735290E+01 0.  0.
     999903    2    3    3    0    0 -0.25053359964E-01 -0.10820666178E+00 -0.67964663412E-01  0.13172112515E+00  0.19872263064E-01 0.  0.
         14    1    1    2    0    0 -0.63331618670E-02 -0.82071070961E-02  0.20199227194E-01  0.22704059667E-01  0.00000000000E+00 0. -1.
     999901    1    3    3    0    0  0.31386521831E-01  0.11641376888E+00  0.47765436218E-01  0.88950481518E+00  0.88000000000E+00 0. -1.
        -11    1    4    4    0    0 -0.29788629711E-03 -0.38173276249E-01 -0.18073044233E-01  0.42239599959E-01  0.51100000000E-03 0.  1.
         11    1    4    4    0    0 -0.24755473667E-01 -0.70033385530E-01 -0.49891619180E-01  0.89481525192E-01  0.51100000000E-03 0. -1.
</event>
<event>
 8    1  0.1106905E+005  0.1043930E+01  0.7957747E-01            NaN
         13   -1    0    0    0    0  0.00000000000E+00  0.00000000000E+00  0.74505805969E-08  0.10566000000E+00  0.10566000000E+00 0. -1.
     999900   -1    0    0    0    0 -0.00000000000E+00 -0.00000000000E+00 -0.74505805969E-08  0.93827000000E+00  0.93827000000E+00 0. -1.
     999902    2    1    2    0    0 -0.59793187477E-02 -0.21230197564E-01 -0.39905318147E-02  0.10215157660E+01  0.10212698284E+01 0.  0.
     999903    2    3    3    0    0  0.47727597606E-01  0.87488292839E-01  0.79690007317E-01  0.12926771998E+00  0.20676585897E-01 0.  0.
         14    1    1    2    0    0  0.59793187477E-02  0.21230197564E-01  0.39905318147E-02  0.22414233992E-01  0.00000000000E+00 0.  1.
     999901    1    3    3    0    0 -0.53706916353E-01 -0.10871849040E+00 -0.83680539132E-01  0.89224804603E+00  0.88000000000E+00 0. -1.
        -11    1    4    4    0    0  0.93076291823E-02  0.14380272030E-01  0.24635146805E-01  0.30009594528E-01  0.51100000000E-03 0. -1.
         11    1    4    4    0    0  0.38419968423E-01  0.73108020809E-01  0.55054860512E-01  0.99258125447E-01  0.51100000000E-03 0.  1.
</event>
<event>
 8    1  0.1106905E+005  0.1043930E+01  0.7957747E-01            NaN
         13   -1    0    0    0    0  0.00000000000E+00  0.00000000000E+00  0.74505805969E-08  0.10566000000E+00  0.10566000000E+00 0. -1.
     999900   -1    0    0    0    0 -0.00000000000E+00 -0.00000000000E+00 -0.74505805969E-08  0.93827000000E+00  0.93827000000E+00 0.  1.
     999902    2    1    2    0    0 -0.27950723625E-02  0.15081351899E-01 -0.17049838819E-01  0.10209962561E+01  0.10207386533E+01 0.  0.
     999903    2    3    3    0    0 -0.56552977942E-02 -0.38859671642E-01 -0.12536530675E+00  0.13271136066E+00  0.18809269995E-01 0.  0.
         14    1    1    2    0    0  0.27950723625E-02 -0.15081351899E-01  0.17049838819E-01  0.22933743880E-01  0.00000000000E+00 0. -1.
     999901    1    3    3    0    0  0.28602254317E-02  0.53941023541E-01  0.10831546793E+00  0.88828489546E+00  0.88000000000E+00 0. -1.
        -11    1    4    4    0    0 -0.77254541783E-02 -0.94859792889E-02 -0.56521651043E-01  0.57832729513E-01  0.51100000000E-03 0.  1.
         11    1    4    4    0    0  0.20701563841E-02 -0.29373692353E-01 -0.68843655709E-01  0.74878631146E-01  0.51100000000E-03 0. -1.
</event>
<event>
 8    1  0.1108516E+005  0.1043930E+01  0.7957747E-01            NaN
         13   -1    0    0    0    0  0.00000000000E+00  0.00000000000E+00  0.74505805969E-08  0.10566000000E+00  0.10566000000E+00 0. -1.
     999900   -1    0    0    0    0 -0.00000000000E+00 -0.00000000000E+00 -0.74505805969E-08  0.93827000000E+00  0.93827000000E+00 0.  1.
     999902    2    1    2    0    0 -0.91133471847E-02 -0.18011872536E-01 -0.14632959037E-01  0.10189980097E+01  0.10186929565E+01 0.  0.
     999903    2    3    3    0    0  0.20799998766E-01 -0.68749593232E-01  0.10508671601E+00  0.12894075024E+00  0.20575535762E-01 0.  0.
         14    1    1    2    0    0  0.91133471847E-02  0.18011872536E-01  0.14632959037E-01  0.24931990280E-01  0.00000000000E+00 0. -1.
     999901    1    3    3    0    0 -0.29913345951E-01  0.50737720696E-01 -0.11971967504E+00  0.89005725948E+00  0.88000000000E+00 0.  1.
        -11    1    4    4    0    0 -0.15080538487E-02 -0.20261450156E-01  0.39118862392E-01  0.44083410765E-01  0.51100000000E-03 0. -1.
         11    1    4    4    0    0  0.22308052615E-01 -0.48488143076E-01  0.65967853615E-01  0.84857339471E-01  0.51100000000E-03 0.  1.
</event>
<event>
 8    1  0.1106905E+005  0.1043930E+01  0.7957747E-01            NaN
         13   -1    0    0    0    0  0.00000000000E+00  0.00000000000E+00  0.74505805969E-08  0.10566000000E+00  0.10566000000E+00 0.  1.
     999900   -1    0    0    0    0 -0.00000000000E+00 -0.00000000000E+00 -0.74505805969E-08  0.93827000000E+00  0.93827000000E+00 0. -1.
     999902    2    1    2    0    0  0.12413305058E-01 -0.57655887025E-02 -0.19260413904E-01  0.10203017182E+01  0.10200280881E+01 0.  0.
     999903    2    3    3    0    0  0.26352804142E-01 -0.10928576858E+00  0.62829967718E-01  0.13033005125E+00  0.20011694438E-01 0.  0.
         14    1    1    2    0    0 -0.12413305058E-01  0.57655887025E-02  0.19260413904E-01  0.23628281768E-01  0.00000000000E+00 0.  1.
     999901    1    3    3    0    0 -0.13939499084E-01  0.10352017988E+00 -0.82090381622E-01  0.88997166698E+00  0.88000000000E+00 0. -1.
        -11    1    4    4    0    0  0.22510679724E-01 -0.63380614069E-01  0.29378006393E-01  0.73397284159E-01  0.51100000000E-03 0.  1.
         11    1    4    4    0    0  0.38421244181E-02 -0.45905154514E-01  0.33451961324E-01  0.56932767090E-01  0.51100000000E-03 0. -1.
</event>
<event>
 8    1  0.1106905E+005  0.1043930E+01  0.7957747E-01            NaN
         13   -1    0    0    0    0  0.00000000000E+00  0.00000000000E+00  0.74505805969E-08  0.10566000000E+00  0.10566000000E+00 0. -1.
     999900   -1    0    0    0    0 -0.00000000000E+00 -0.00000000000E+00 -0.74505805969E-08  0.93827000000E+00  0.93827000000E+00 0. -1.
     999902    2    1    2    0    0  0.20140718598E-01  0.44046233415E-02 -0.75681574001E-02  0.10219680725E+01  0.10217320661E+01 0.  0.
     999903    2    3    3    0    0 -0.54862029015E-01 -0.10785554266E+00 -0.46663991500E-01  0.13081362952E+00  0.17088512373E-01 0.  0.
         14    1    1    2    0    0 -0.20140718598E-01 -0.44046233415E-02  0.75681574001E-02  0.21961927485E-01  0.00000000000E+00 0.  1.
     999901    1    3    3    0    0  0.75002747613E-01  0.11226016601E+00  0.39095834100E-01  0.89115444299E+00  0.88000000000E+00 0.  1.
        -11    1    4    4    0    0 -0.46979907201E-01 -0.75803603192E-01 -0.33177619882E-01  0.95154156607E-01  0.51100000000E-03 0. -1.
         11    1    4    4    0    0 -0.78821218142E-02 -0.32051939472E-01 -0.13486371618E-01  0.35659472916E-01  0.51100000000E-03 0.  1.
</event>
<event>
 8    1  0.1106905E+005  0.1043930E+01  0.7957747E-01            NaN
         13   -1    0    0    0    0  0.00000000000E+00  0.00000000000E+00  0.74505805969E-08  0.10566000000E+00  0.10566000000E+00 0.  1.
     999900   -1    0    0    0    0 -0.00000000000E+00 -0.00000000000E+00 -0.74505805969E-08  0.93827000000E+00  0.93827000000E+00 0. -1.
     999902    2    1    2    0    0 -0.13239488388E-01 -0.14713057037E-01  0.11884921155E-01  0.10208430026E+01  0.10205819058E+01 0.  0.
     999903    2    3    3    0    0 -0.14985206279E-01  0.19595073032E-01 -0.12560488007E+00  0.12950494056E+00  0.19657579639E-01 0.  0.
         14    1    1    2    0    0  0.13239488388E-01  0.14713057037E-01 -0.11884921155E-01  0.23086997445E-01  0.00000000000E+00 0. -1.
     999901    1    3    3    0    0  0.17457178912E-02 -0.34308130070E-01  0.13748980123E+00  0.89133806200E+00  0.88000000000E+00 0.  1.
        -11    1    4    4    0    0 -0.11070584572E-01  0.86586533512E-03 -0.65174003950E-01  0.66115198536E-01  0.51100000000E-03 0.  1.
         11    1    4    4    0    0 -0.39146217077E-02  0.18729207697E-01 -0.60430876121E-01  0.63389742024E-01  0.51100000000E-03 0. -1.
</event>
<event>
 8    1  0.1106905E+005  0.1043930E+01  0.7957747E-01            NaN
         13   -1    0    0    0    0  0.00000000000E+00  0.00000000000E+00  0.74505805969E-08  0.10566000000E+00  0.10566000000E+00 0.  1.
     999900   -1    0    0    0    0 -0.00000000000E+00 -0.00000000000E+00 -0.74505805969E-08  0.93827000000E+00  0.93827000000E+00 0.  1.
     999902    2    1    2    0    0 -0.13048239843E-01  0.20217211440E-01  0.13149175879E-02  0.10198318422E+01  0.10195470882E+01 0.  0.
     999903    2    3    3    0    0  0.34026084544E-01  0.12398535621E+00 -0.23833343065E-01  0.13212904570E+00  0.18971386154E-01 0.  0.
         14    1    1    2    0    0  0.13048239843E-01 -0.20217211440E-01 -0.13149175879E-02  0.24098157807E-01  0.00000000000E+00 0.  1.
     999901    1    3    3    0    0 -0.47074324387E-01 -0.10376814477E+00  0.25148260652E-01  0.88770279649E+00  0.88000000000E+00 0. -1.
        -11    1    4    4    0    0  0.94546760826E-02  0.38388103335E-01 -0.16261796660E-01  0.42752128942E-01  0.51100000000E-03 0. -1.
         11    1    4    4    0    0  0.24571408461E-01  0.85597252875E-01 -0.75715464042E-02  0.89376916759E-01  0.51100000000E-03 0.  1.
</event>
<event>
 8    1  0.1106905E+005  0.1043930E+01  0.7957747E-01            NaN
         13   -1    0    0    0    0  0.00000000000E+00  0.00000000000E+00  0.74505805969E-08  0.10566000000E+00  0.10566000000E+00 0. -1.
     999900   -1    0    0    0    0 -0.00000000000E+00 -0.00000000000E+00 -0.74505805969E-08  0.93827000000E+00  0.93827000000E+00 0.  1.
     999902    2    1    2    0    0  0.21675977516E-01  0.65094041056E-02  0.16099834534E-01  0.10161554610E+01  0.10157758099E+01 0.  0.
     999903    2    3    3    0    0  0.33086877717E-01  0.12892226810E-01  0.12292635443E+00  0.12959872036E+00  0.20590986266E-01 0.  0.
         14    1    1    2    0    0 -0.21675977516E-01 -0.65094041056E-02 -0.16099834534E-01  0.27774538972E-01  0.00000000000E+00 0.  1.
     999901    1    3    3    0    0 -0.11410900201E-01 -0.63828227048E-02 -0.10682651990E+00  0.88655674067E+00  0.88000000000E+00 0.  1.
        -11    1    4    4    0    0  0.14091013617E-01  0.12364262107E-01  0.35711797524E-01  0.40336401000E-01  0.51100000000E-03 0.  1.
         11    1    4    4    0    0  0.18995864100E-01  0.52796470309E-03  0.87214556910E-01  0.89262319361E-01  0.51100000000E-03 0. -1.
</event>
<event>
 8    1  0.1106905E+005  0.1043930E+01  0.7957747E-01            NaN
         13   -1    0    0    0    0  0.00000000000E+00  0.00000000000E+00  0.74505805969E-08  0.10566000000E+00  0.10566000000E+00 0. -1.
     999900   -1    0    0    0    0 -0.00000000000E+00 -0.00000000000E+00 -0.74505805969E-08  0.93827000000E+00  0.93827000000E+00 0.  1.
     999902    2    1    2    0    0  0.20698333334E-01  0.27621900259E-02 -0.11714239270E-01  0.10199868570E+01  0.10197057979E+01 0.  0.
     999903    2    3    3    0    0  0.71251407584E-01 -0.10743186509E+00  0.14005086342E-01  0.13130253348E+00  0.20635991292E-01 0.  0.
         14    1    1    2    0    0 -0.20698333334E-01 -0.27621900259E-02  0.11714239270E-01  0.23943143031E-01  0.00000000000E+00 0. -1.
     999901    1    3    3    0    0 -0.50553074250E-01  0.11019405511E+00 -0.25719325612E-01  0.88868432349E+00  0.88000000000E+00 0. -1.
        -11    1    4    4    0    0  0.63632172604E-01 -0.10135999165E+00  0.17473422631E-01  0.12094826546E+00  0.51100000000E-03 0.  1.
         11    1    4    4    0    0  0.76192349802E-02 -0.60718734362E-02 -0.34683362893E-02  0.10354268025E-01  0.51100000000E-03 0. -1.
</event>
<event>
 8    1  0.1106905E+005  0.1043930E+01  0.7957747E-01            NaN
         13   -1    0    0    0    0  0.00000000000E+00  0.00000000000E+00  0.74505805969E-08  0.10566000000E+00  0.10566000000E+00 0. -1.
     999900   -1    0    0    0    0 -0.00000000000E+00 -0.00000000000E+00 -0.74505805969E-08  0.93827000000E+00  0.93827000000E+00 0.  1.
     999902    2    1    2    0    0 -0.34957064596E-02  0.23452043637E-01  0.53815461663E-02  0.10196158199E+01  0.10193258757E+01 0.  0.
     999903    2    3    3    0    0  0.10298779912E+00 -0.57171614087E-01 -0.46137978268E-01  0.12804800278E+00  0.19811556000E-01 0.  0.
         14    1    1    2    0    0  0.34957064596E-02 -0.23452043637E-01 -0.53815461663E-02  0.24314180092E-01  0.00000000000E+00 0.  1.
     999901    1    3    3    0    0 -0.10648350558E+00  0.80623657724E-01  0.51519524435E-01  0.89156781713E+00  0.88000000000E+00 0. -1.
        -11    1    4    4    0    0  0.47892672654E-01 -0.25588749682E-01 -0.10783704063E-01  0.55362817834E-01  0.51100000000E-03 0. -1.
         11    1    4    4    0    0  0.55095126468E-01 -0.31582864405E-01 -0.35354274206E-01  0.72685184943E-01  0.51100000000E-03 0.  1.
</event>
<event>
 8    1  0.1106905E+005  0.1043930E+01  0.7957747E-01            NaN
         13   -1    0    0    0    0  0.00000000000E+00  0.00000000000E+00  0.74505805969E-08  0.10566000000E+00  0.10566000000E+00 0.  1.
     999900   -1    0    0    0    0 -0.00000000000E+00 -0.00000000000E+00 -0.74505805969E-08  0.93827000000E+00  0.93827000000E+00 0.  1.
     999902    2    1    2    0    0 -0.30299769716E-02  0.21241304638E-01 -0.39965444361E-02  0.10221046443E+01  0.10218715955E+01 0.  0.
     999903    2    3    3    0    0 -0.10520141641E+00  0.69392661364E-01  0.40205758683E-01  0.13378521990E+00  0.19982556590E-01 0.  0.
         14    1    1    2    0    0  0.30299769716E-02 -0.21241304638E-01  0.39965444361E-02  0.21825355681E-01  0.00000000000E+00 0. -1.
     999901    1    3    3    0    0  0.10217143944E+00 -0.48151356726E-01 -0.44202303119E-01  0.88831942441E+00  0.88000000000E+00 0. -1.
        -11    1    4    4    0    0 -0.10118172550E+00  0.63968553279E-01  0.41859596786E-01  0.12681563132E+00  0.51100000000E-03 0.  1.
         11    1    4    4    0    0 -0.40196909089E-02  0.54241080844E-02 -0.16538381028E-02  0.69695885807E-02  0.51100000000E-03 0. -1.
</event>
<event>
 8    1  0.1106905E+005  0.1043930E+01  0.7957747E-01            NaN
         13   -1    0    0    0    0  0.00000000000E+00  0.00000000000E+00  0.74505805969E-08  0.10566000000E+00  0.10566000000E+00 0. -1.
     999900   -1    0    0    0    0 -0.00000000000E+00 -0.00000000000E+00 -0.74505805969E-08  0.93827000000E+00  0.93827000000E+00 0. -1.
     999902    2    1    2    0    0  0.18254405351E-01  0.11584800315E-01 -0.10972346838E-01  0.10196849323E+01  0.10193966538E+01 0.  0.
     999903    2    3    3    0    0 -0.64172998960E-01  0.67667494613E-01 -0.88989723519E-01  0.13062573480E+00  0.21138781353E-01 0.  0.
         14    1    1    2    0    0 -0.18254405351E-01 -0.11584800315E-01  0.10972346838E-01  0.24245067709E-01  0.00000000000E+00 0. -1.
     999901    1    3    3    0    0  0.82427404311E-01 -0.56082694298E-01  0.78017376681E-01  0.88905919749E+00  0.88000000000E+00 0.  1.
        -11    1    4    4    0    0 -0.16970326998E-01  0.26139664337E-01 -0.18824695939E-01  0.36412969506E-01  0.51100000000E-03 0. -1.
         11    1    4    4    0    0 -0.47202671962E-01  0.41527830276E-01 -0.70165027580E-01  0.94212765292E-01  0.51100000000E-03 0.  1.
</event>
<event>
 8    1  0.1106905E+005  0.1043930E+01  0.7957747E-01            NaN
         13   -1    0    0    0    0  0.00000000000E+00  0.00000000000E+00  0.74505805969E-08  0.10566000000E+00  0.10566000000E+00 0. -1.
     999900   -1    0    0    0    0 -0.00000000000E+00 -0.00000000000E+00 -0.74505805969E-08  0.93827000000E+00  0.93827000000E+00 0. -1.
     999902    2    1    2    0    0  0.20051232588E-01 -0.80845203866E-02  0.11066968691E-01  0.10196423654E+01  0.10193530616E+01 0.  0.
     999903    2    3    3    0    0  0.87910525230E-01  0.68889351290E-01  0.66477450118E-01  0.13194862206E+00  0.22741686896E-01 0.  0.
         14    1    1    2    0    0 -0.20051232588E-01  0.80845203866E-02 -0.11066968691E-01  0.24287634594E-01  0.00000000000E+00 0.  1.
     999901    1    3    3    0    0 -0.67859292642E-01 -0.76973871676E-01 -0.55410481427E-01  0.88769374334E+00  0.88000000000E+00 0.  1.
        -11    1    4    4    0    0  0.47377809621E-01  0.34322155120E-01  0.47620531358E-01  0.75436352671E-01  0.51100000000E-03 0.  1.
         11    1    4    4    0    0  0.40532715609E-01  0.34567196170E-01  0.18856918760E-01  0.56512269391E-01  0.51100000000E-03 0. -1.
</event>
<event>
 8    1  0.1106905E+005  0.1043930E+01  0.7957747E-01            NaN
         13   -1    0    0    0    0  0.00000000000E+00  0.00000000000E+00  0.74505805969E-08  0.10566000000E+00  0.10566000000E+00 0. -1.
     999900   -1    0    0    0    0 -0.00000000000E+00 -0.00000000000E+00 -0.74505805969E-08  0.93827000000E+00  0.93827000000E+00 0. -1.
     999902    2    1    2    0    0  0.16300073374E-01 -0.10867004445E-01 -0.13008912607E-01  0.10204137081E+01  0.10201426957E+01 0.  0.
     999903    2    3    3    0    0  0.10330008890E+00 -0.40387145048E-01  0.68538559090E-01  0.13188096726E+00  0.19824873017E-01 0.  0.
         14    1    1    2    0    0 -0.16300073374E-01  0.10867004445E-01  0.13008912607E-01  0.23516291902E-01  0.00000000000E+00 0. -1.
     999901    1    3    3    0    0 -0.87000015531E-01  0.29520140603E-01 -0.81547471697E-01  0.88853274084E+00  0.88000000000E+00 0. -1.
        -11    1    4    4    0    0  0.23395975692E-01 -0.76373736646E-02  0.25318028798E-01  0.35312389587E-01  0.51100000000E-03 0. -1.
         11    1    4    4    0    0  0.79904113212E-01 -0.32749771383E-01  0.43220530292E-01  0.96568577672E-01  0.51100000000E-03 0.  1.
</event>
<event>
 8    1  0.1106905E+005  0.1043930E+01  0.7957747E-01            NaN
         13   -1    0    0    0    0  0.00000000000E+00  0.00000000000E+00  0.74505805969E-08  0.10566000000E+00  0.10566000000E+00 0. -1.
     999900   -1    0    0    0    0 -0.00000000000E+00 -0.00000000000E+00 -0.74505805969E-08  0.93827000000E+00  0.93827000000E+00 0. -1.
     999902    2    1    2    0    0  0.37681721620E-02  0.19410226021E-01 -0.13126921288E-01  0.10201966467E+01  0.10199205488E+01 0.  0.
     999903    2    3    3    0    0  0.32214922823E-01  0.86209585808E-01  0.91099818148E-01  0.13107652811E+00  0.20297423913E-01 0.  0.
         14    1    1    2    0    0 -0.37681721620E-02 -0.19410226021E-01  0.13126921288E-01  0.23733353285E-01  0.00000000000E+00 0. -1.
     999901    1    3    3    0    0 -0.28446750661E-01 -0.66799359787E-01 -0.10422673944E+00  0.88912011860E+00  0.88000000000E+00 0. -1.
        -11    1    4    4    0    0  0.39597416811E-02  0.16508380409E-01  0.28701235681E-01  0.33350085885E-01  0.51100000000E-03 0.  1.
         11    1    4    4    0    0  0.28255181142E-01  0.69701205399E-01  0.62398582468E-01  0.97726442228E-01  0.51100000000E-03 0. -1.
</event>
<event>
 8    1  0.1106905E+005  0.1043930E+01  0.7957747E-01            NaN
         13   -1    0    0    0    0  0.00000000000E+00  0.00000000000E+00  0.74505805969E-08  0.10566000000E+00  0.10566000000E+00 0. -1.
     999900   -1    0    0    0    0 -0.00000000000E+00 -0.00000000000E+00 -0.74505805969E-08  0.93827000000E+00  0.93827000000E+00 0.  1.
     999902    2    1    2    0    0  0.43627376147E-02 -0.21895670154E-01 -0.91527793491E-02  0.10198006150E+01  0.10195151137E+01 0.  0.
     999903    2    3    3    0    0  0.92177286742E-01 -0.50606139018E-01  0.74678639864E-01  0.13100176660E+00  0.22954958126E-01 0.  0.
         14    1    1    2    0    0 -0.43627376147E-02  0.21895670154E-01  0.91527793491E-02  0.24129385007E-01  0.00000000000E+00 0. -1.
     999901    1    3    3    0    0 -0.87814549127E-01  0.28710468864E-01 -0.83831419213E-01  0.88879884839E+00  0.88000000000E+00 0. -1.
        -11    1    4    4    0    0  0.14838127638E-01 -0.12795471506E-01  0.24432825493E-01  0.31322806475E-01  0.51100000000E-03 0. -1.
         11    1    4    4    0    0  0.77339159104E-01 -0.37810667512E-01  0.50245814370E-01  0.99678960124E-01  0.51100000000E-03 0.  1.
</event>
<event>
 7    1  0.1106905E+005  0.1043930E+01  0.7957747E-01            NaN
         13   -1    0    0    0    0  0.00000000000E+00  0.00000000000E+00  0.74505805969E-08  0.10566000000E+00  0.10566000000E+00 0.  1.
     999900   -1    0    0    0    0 -0.00000000000E+00 -0.00000000000E+00 -0.74505805969E-08  0.93827000000E+00  0.93827000000E+00 0.  1.
     999903    2    1    2    0    0 -0.23637199463E-01 -0.20156783750E-01 -0.11207906813E+00  0.11797608502E+00  0.19789542522E-01 0.  0.
         14    1    1    2    0    0  0.23629388767E-01  0.92226677443E-02  0.34013759438E-01  0.42430430647E-01  0.00000000000E+00 0.  1.
     999901    1    1    2    0    0  0.78106961582E-05  0.10934116006E-01  0.78065308692E-01  0.88352348434E+00  0.88000000000E+00 0. -1.
        -11    1    3    3    0    0 -0.90526560517E-02 -0.12896304700E-01 -0.84354685504E-01  0.85815146356E-01  0.51100000000E-03 0.  1.
         11    1    3    3    0    0 -0.14584543411E-01 -0.72604790497E-02 -0.27724382625E-01  0.32160938660E-01  0.51100000000E-03 0. -1.
</event>
<event>
 8    1  0.1106905E+005  0.1043930E+01  0.7957747E-01            NaN
         13   -1    0    0    0    0  0.00000000000E+00  0.00000000000E+00  0.74505805969E-08  0.10566000000E+00  0.10566000000E+00 0. -1.
     999900   -1    0    0    0    0 -0.00000000000E+00 -0.00000000000E+00 -0.74505805969E-08  0.93827000000E+00  0.93827000000E+00 0. -1.
     999902    2    1    2    0    0  0.22193531430E-01 -0.84925966396E-02 -0.72407179145E-02  0.10190884012E+01  0.10187855831E+01 0.  0.
     999903    2    3    3    0    0  0.11003611178E+00  0.63591268304E-01  0.24167820984E-01  0.13122641935E+00  0.22011230404E-01 0.  0.
         14    1    1    2    0    0 -0.22193531430E-01  0.84925966396E-02  0.72407179145E-02  0.24841598800E-01  0.00000000000E+00 0. -1.
     999901    1    3    3    0    0 -0.87842580346E-01 -0.72083864943E-01 -0.31408538899E-01  0.88786198185E+00  0.88000000000E+00 0. -1.
        -11    1    4    4    0    0  0.21827476221E-01  0.20189071513E-01  0.12385352848E-01  0.32213280071E-01  0.51100000000E-03 0. -1.
         11    1    4    4    0    0  0.88208635555E-01  0.43402196791E-01  0.11782468136E-01  0.99013139275E-01  0.51100000000E-03 0.  1.
</event>
<event>
 8    1  0.1106905E+005  0.1043930E+01  0.7957747E-01            NaN
         13   -1    0    0    0    0  0.00000000000E+00  0.00000000000E+00  0.74505805969E-08  0.10566000000E+00  0.10566000000E+00 0.  1.
     999900   -1    0    0    0    0 -0.00000000000E+00 -0.00000000000E+00 -0.74505805969E-08  0.93827000000E+00  0.93827000000E+00 0.  1.
     999902    2    1    2    0    0  0.14573293811E-01  0.11660673898E-01  0.15215434847E-01  0.10198496830E+01  0.10195653556E+01 0.  0.
     999903    2    3    3    0    0  0.11213526755E-02 -0.10545189285E+00 -0.69660397725E-01  0.12794149550E+00  0.19877024952E-01 0.  0.
         14    1    1    2    0    0 -0.14573293811E-01 -0.11660673898E-01 -0.15215434847E-01  0.24080316980E-01  0.00000000000E+00 0. -1.
     999901    1    3    3    0    0  0.13451941136E-01  0.11711256675E+00  0.84875832573E-01  0.89190818752E+00  0.88000000000E+00 0. -1.
        -11    1    4    4    0    0  0.41574400551E-02 -0.68191397838E-01 -0.55281497149E-01  0.87884333615E-01  0.51100000000E-03 0.  1.
         11    1    4    4    0    0 -0.30360873796E-02 -0.37260495016E-01 -0.14378900577E-01  0.40057161884E-01  0.51100000000E-03 0. -1.
</event>
<event>
 8    1  0.1106905E+005  0.1043930E+01  0.7957747E-01            NaN
         13   -1    0    0    0    0  0.00000000000E+00  0.00000000000E+00  0.74505805969E-08  0.10566000000E+00  0.10566000000E+00 0.  1.
     999900   -1    0    0    0    0 -0.00000000000E+00 -0.00000000000E+00 -0.74505805969E-08  0.93827000000E+00  0.93827000000E+00 0. -1.
     999902    2    1    2    0    0 -0.17729320225E-01  0.13834313680E-01 -0.11441339191E-01  0.10186986450E+01  0.10183861292E+01 0.  0.
     999903    2    3    3    0    0 -0.31058502047E-01  0.49119614504E-01 -0.11671570755E+00  0.13162175312E+00  0.18010064646E-01 0.  0.
         14    1    1    2    0    0  0.17729320225E-01 -0.13834313680E-01  0.11441339191E-01  0.25231354960E-01  0.00000000000E+00 0. -1.
     999901    1    3    3    0    0  0.13329181822E-01 -0.35285300824E-01  0.10527436835E+00  0.88707689192E+00  0.88000000000E+00 0.  1.
        -11    1    4    4    0    0 -0.18103531883E-01  0.13936355327E-01 -0.52546065907E-01  0.57300174780E-01  0.51100000000E-03 0.  1.
         11    1    4    4    0    0 -0.12954970164E-01  0.35183259178E-01 -0.64169641638E-01  0.74321578342E-01  0.51100000000E-03 0. -1.
</event>
<event>
 8    1  0.1106905E+005  0.1043930E+01  0.7957747E-01            NaN
         13   -1    0    0    0    0  0.00000000000E+00  0.00000000000E+00  0.74505805969E-08  0.10566000000E+00  0.10566000000E+00 0. -1.
     999900   -1    0    0    0    0 -0.00000000000E+00 -0.00000000000E+00 -0.74505805969E-08  0.93827000000E+00  0.93827000000E+00 0.  1.
     999902    2    1    2    0    0  0.55605361092E-02  0.23945314131E-01  0.10062796045E-02  0.10193269467E+01  0.10190299869E+01 0.  0.
     999903    2    3    3    0    0  0.39764177590E-03  0.13060775906E+00  0.12656849310E-01  0.13279478805E+00  0.20389091544E-01 0.  0.
         14    1    1    2    0    0 -0.55605361092E-02 -0.23945314131E-01 -0.10062796045E-02  0.24603053252E-01  0.00000000000E+00 0.  1.
     999901    1    3    3    0    0  0.51628943333E-02 -0.10666244492E+00 -0.11650569705E-01  0.88653215870E+00  0.88000000000E+00 0. -1.
        -11    1    4    4    0    0  0.27429618415E-02  0.10596854165E+00  0.17856649805E-01  0.10749872893E+00  0.51100000000E-03 0. -1.
         11    1    4    4    0    0 -0.23453200656E-02  0.24639217406E-01 -0.51998004953E-02  0.25296059115E-01  0.51100000000E-03 0.  1.
</event>
<event>
 8    1  0.1106905E+005  0.1043930E+01  0.7957747E-01            NaN
         13   -1    0    0    0    0  0.00000000000E+00  0.00000000000E+00  0.74505805969E-08  0.10566000000E+00  0.10566000000E+00 0. -1.
     999900   -1    0    0    0    0 -0.00000000000E+00 -0.00000000000E+00 -0.74505805969E-08  0.93827000000E+00  0.93827000000E+00 0.  1.
     999902    2    1    2    0    0 -0.31330871530E-02 -0.81766651671E-02  0.20773222533E-01  0.10213866892E+01  0.10211378790E+01 0.  0.
     999903    2    3    3    0    0 -0.28186637827E-01  0.68877625026E-01 -0.10339661120E+00  0.12898364590E+00  0.20181871114E-01 0.  0.
         14    1    1    2    0    0  0.31330871530E-02  0.81766651671E-02 -0.20773222533E-01  0.22543310821E-01  0.00000000000E+00 0.  1.
     999901    1    3    3    0    0  0.25053550674E-01 -0.77054290193E-01  0.12416983373E+00  0.89240304328E+00  0.88000000000E+00 0. -1.
        -11    1    4    4    0    0 -0.27295892583E-01  0.62458267840E-01 -0.10140272161E+00  0.12218377161E+00  0.51100000000E-03 0.  1.
         11    1    4    4    0    0 -0.89074524342E-03  0.64193571851E-02 -0.19938895946E-02  0.67998742984E-02  0.51100000000E-03 0. -1.
</event>
<event>
 8    1  0.1106905E+005  0.1043930E+01  0.7957747E-01            NaN
         13   -1    0    0    0    0  0.00000000000E+00  0.00000000000E+00  0.74505805969E-08  0.10566000000E+00  0.10566000000E+00 0.  1.
     999900   -1    0    0    0    0 -0.00000000000E+00 -0.00000000000E+00 -0.74505805969E-08  0.93827000000E+00  0.93827000000E+00 0. -1.
     999902    2    1    2    0    0  0.73727098114E-02  0.17913485231E-01  0.13749065546E-01  0.10201752824E+01  0.10198986814E+01 0.  0.
     999903    2    3    3    0    0  0.21272722191E-01 -0.49028330983E-02 -0.12480842595E+00  0.12893346723E+00  0.23877380564E-01 0.  0.
         14    1    1    2    0    0 -0.73727098114E-02 -0.17913485231E-01 -0.13749065546E-01  0.23754717563E-01  0.00000000000E+00 0. -1.
     999901    1    3    3    0    0 -0.13900012379E-01  0.22816318329E-01  0.13855749149E+00  0.89124181521E+00  0.88000000000E+00 0.  1.
        -11    1    4    4    0    0  0.15167933784E-01 -0.51693140531E-03 -0.28173912542E-01  0.32005685468E-01  0.51100000000E-03 0. -1.
         11    1    4    4    0    0  0.61047884068E-02 -0.43859016930E-02 -0.96634513405E-01  0.96927781761E-01  0.51100000000E-03 0.  1.
</event>
<event>
 8    1  0.1106905E+005  0.1043930E+01  0.7957747E-01            NaN
         13   -1    0    0    0    0  0.00000000000E+00  0.00000000000E+00  0.74505805969E-08  0.10566000000E+00  0.10566000000E+00 0.  1.
     999900   -1    0    0    0    0 -0.00000000000E+00 -0.00000000000E+00 -0.74505805969E-08  0.93827000000E+00  0.93827000000E+00 0.  1.
     999902    2    1    2    0    0 -0.19327710926E-01  0.84890191451E-02  0.10549637349E-01  0.10203308749E+01  0.10200579276E+01 0.  0.
     999903    2    3    3    0    0 -0.35422241750E-01  0.78596376945E-01 -0.96521694327E-01  0.13092750997E+00  0.19835566848E-01 0.  0.
         14    1    1    2    0    0  0.19327710926E-01 -0.84890191451E-02 -0.10549637349E-01  0.23599125066E-01  0.00000000000E+00 0.  1.
     999901    1    3    3    0    0  0.16094530824E-01 -0.70107357800E-01  0.10707133168E+00  0.88940336496E+00  0.88000000000E+00 0. -1.
        -11    1    4    4    0    0 -0.86416589472E-02  0.23470264435E-01 -0.42060248255E-01  0.48937278084E-01  0.51100000000E-03 0.  1.
         11    1    4    4    0    0 -0.26780582803E-01  0.55126112510E-01 -0.54461446071E-01  0.81990231887E-01  0.51100000000E-03 0. -1.
</event>
<event>
 8    1  0.1106905E+005  0.1043930E+01  0.7957747E-01            NaN
         13   -1    0    0    0    0  0.00000000000E+00  0.00000000000E+00  0.74505805969E-08  0.10566000000E+00  0.10566000000E+00 0.  1.
     999900   -1    0    0    0    0 -0.00000000000E+00 -0.00000000000E+00 -0.74505805969E-08  0.93827000000E+00  0.93827000000E+00 0. -1.
     999902    2    1    2    0    0 -0.17051038434E-01  0.14550947259E-01  0.98049585123E-02  0.10194635906E+01  0.10191699600E+01 0.  0.
     999903    2    3    3    0    0  0.17867669002E-01  0.39162990575E-02  0.12810779998E+00  0.13079718852E+00  0.19018546603E-01 0.  0.
         14    1    1    2    0    0  0.17051038434E-01 -0.14550947259E-01 -0.98049585123E-02  0.24466409406E-01  0.00000000000E+00 0. -1.
     999901    1    3    3    0    0 -0.34918707436E-01  0.10634648201E-01 -0.11830284147E+00  0.88866640207E+00  0.88000000000E+00 0. -1.
        -11    1    4    4    0    0  0.96591668197E-02 -0.71236065650E-02  0.73821992868E-01  0.74793001184E-01  0.51100000000E-03 0.  1.
         11    1    4    4    0    0  0.82085021824E-02  0.11039905623E-01  0.54285807115E-01  0.56004187338E-01  0.51100000000E-03 0. -1.
</event>
<event>
 8    1  0.1106905E+005  0.1043930E+01  0.7957747E-01            NaN
         13   -1    0    0    0    0  0.00000000000E+00  0.00000000000E+00  0.74505805969E-08  0.10566000000E+00  0.10566000000E+00 0. -1.
     999900   -1    0    0    0    0 -0.00000000000E+00 -0.00000000000E+00 -0.74505805969E-08  0.93827000000E+00  0.93827000000E+00 0. -1.
     999902    2    1    2    0    0  0.21766299097E-01 -0.10730775641E-01 -0.25066924601E-01  0.10090405742E+01  0.10084372109E+01 0.  0.
     999903    2    3    3    0    0 -0.18728473833E-01  0.99175659804E-01 -0.62573891669E-01  0.12048780496E+00  0.20377732826E-01 0.  0.
         14    1    1    2    0    0 -0.21766299097E-01  0.10730775641E-01  0.25066924601E-01  0.34889425779E-01  0.00000000000E+00 0. -1.
     999901    1    3    3    0    0  0.40494772930E-01 -0.10990643545E+00  0.37506967068E-01  0.88855276926E+00  0.88000000000E+00 0.  1.
        -11    1    4    4    0    0 -0.54131301259E-02  0.27304371245E-01 -0.71180592241E-02  0.28736014946E-01  0.51100000000E-03 0. -1.
         11    1    4    4    0    0 -0.13315343707E-01  0.71871288560E-01 -0.55455832445E-01  0.91751790012E-01  0.51100000000E-03 0.  1.
</event>
<event>
 8    1  0.1106905E+005  0.1043930E+01  0.7957747E-01            NaN
         13   -1    0    0    0    0  0.00000000000E+00  0.00000000000E+00  0.74505805969E-08  0.10566000000E+00  0.10566000000E+00 0.  1.
     999900   -1    0    0    0    0 -0.00000000000E+00 -0.00000000000E+00 -0.74505805969E-08  0.93827000000E+00  0.93827000000E+00 0. -1.
     999902    2    1    2    0    0  0.69015971103E-03 -0.21488538001E-01  0.10162650892E-01  0.10201494815E+01  0.10198722722E+01 0.  0.
     999903    2    3    3    0    0 -0.11106006863E+00 -0.23653314772E-01  0.63169691857E-01  0.13149738639E+00  0.20182529922E-01 0.  0.
         14    1    1    2    0    0 -0.69015971103E-03  0.21488538001E-01 -0.10162650892E-01  0.23780518476E-01  0.00000000000E+00 0. -1.
     999901    1    3    3    0    0  0.11175022834E+00  0.21647767709E-02 -0.53007040965E-01  0.88865209513E+00  0.88000000000E+00 0.  1.
        -11    1    4    4    0    0 -0.55232242261E-01 -0.14513841341E-01  0.42803619226E-01  0.71369903429E-01  0.51100000000E-03 0.  1.
         11    1    4    4    0    0 -0.55827826371E-01 -0.91394734312E-02  0.20366072631E-01  0.60127482962E-01  0.51100000000E-03 0. -1.
</event>
<event>
 8    1  0.1106905E+005  0.1043930E+01  0.7957747E-01            NaN
         13   -1    0    0    0    0  0.00000000000E+00  0.00000000000E+00  0.74505805969E-08  0.10566000000E+00  0.10566000000E+00 0.  1.
     999900   -1    0    0    0    0 -0.00000000000E+00 -0.00000000000E+00 -0.74505805969E-08  0.93827000000E+00  0.93827000000E+00 0.  1.
     999902    2    1    2    0    0  0.16433255076E-01  0.56409485954E-02  0.15301329064E-01  0.10207782648E+01  0.10205156848E+01 0.  0.
     999903    2    3    3    0    0  0.10988530551E-01 -0.50341841273E-01  0.12066299557E+00  0.13271025016E+00  0.19934974564E-01 0.  0.
         14    1    1    2    0    0 -0.16433255076E-01 -0.56409485954E-02 -0.15301329064E-01  0.23151735239E-01  0.00000000000E+00 0. -1.
     999901    1    3    3    0    0  0.54447245248E-02  0.55982789869E-01 -0.10536166651E+00  0.88806801460E+00  0.88000000000E+00 0.  1.
        -11    1    4    4    0    0  0.15397956687E-01 -0.24265666899E-01  0.59892127177E-01  0.66432278893E-01  0.51100000000E-03 0. -1.
         11    1    4    4    0    0 -0.44094261357E-02 -0.26076174374E-01  0.60770868395E-01  0.66277971268E-01  0.51100000000E-03 0.  1.
</event>
<event>
 8    1  0.1106905E+005  0.1043930E+01  0.7957747E-01            NaN
         13   -1    0    0    0    0  0.00000000000E+00  0.00000000000E+00  0.74505805969E-08  0.10566000000E+00  0.10566000000E+00 0. -1.
     999900   -1    0    0    0    0 -0.00000000000E+00 -0.00000000000E+00 -0.74505805969E-08  0.93827000000E+00  0.93827000000E+00 0.  1.
     999902    2    1    2    0    0  0.21435145659E-01 -0.88874997919E-02  0.46963985636E-02  0.10202549228E+01  0.10199801950E+01 0.  0.
     999903    2    3    3    0    0 -0.90470302816E-01  0.53831532659E-02 -0.88379679740E-01  0.12818450107E+00  0.20160468559E-01 0.  0.
         14    1    1    2    0    0 -0.21435145659E-01  0.88874997919E-02 -0.46963985636E-02  0.23675077221E-01  0.00000000000E+00 0. -1.
     999901    1    3    3    0    0  0.11190544847E+00 -0.14270653058E-01  0.93076078304E-01  0.89207042171E+00  0.88000000000E+00 0. -1.
        -11    1    4    4    0    0 -0.21156345541E-01  0.83024625596E-02 -0.15204127575E-01  0.27348646356E-01  0.51100000000E-03 0. -1.
         11    1    4    4    0    0 -0.69313957275E-01 -0.29193092937E-02 -0.73175552166E-01  0.10083585471E+00  0.51100000000E-03 0.  1.
</event>
<event>
 8    1  0.1106905E+005  0.1043930E+01  0.7957747E-01            NaN
         13   -1    0    0    0    0  0.00000000000E+00  0.00000000000E+00  0.74505805969E-08  0.10566000000E+00  0.10566000000E+00 0.  1.
     999900   -1    0    0    0    0 -0.00000000000E+00 -0.00000000000E+00 -0.74505805969E-08  0.93827000000E+00  0.93827000000E+00 0. -1.
     999902    2    1    2    0    0 -0.22379948808E-02  0.23958328135E-01 -0.61349175416E-02  0.10190976155E+01  0.10187950248E+01 0.  0.
     999903    2    3    3    0    0  0.25702595656E-01 -0.45471039644E-01  0.11507500098E+00  0.12764208766E+00  0.17944576434E-01 0.  0.
         14    1    1    2    0    0  0.22379948808E-02 -0.23958328135E-01  0.61349175416E-02  0.24832384529E-01  0.00000000000E+00 0.  1.
     999901    1    3    3    0    0 -0.27940590536E-01  0.69429367779E-01 -0.12120991852E+00  0.89145552781E+00  0.88000000000E+00 0. -1.
        -11    1    4    4    0    0  0.25611279924E-01 -0.33395090493E-01  0.77780205396E-01  0.88437498838E-01  0.51100000000E-03 0.  1.
         11    1    4    4    0    0  0.91315731675E-04 -0.12075949151E-01  0.37294795583E-01  0.39204588826E-01  0.51100000000E-03 0. -1.
</event>
<event>
 8    1  0.1106905E+005  0.1043930E+01  0.7957747E-01            NaN
         13   -1    0    0    0    0  0.00000000000E+00  0.00000000000E+00  0.74505805969E-08  0.10566000000E+00  0.10566000000E+00 0.  1.
     999900   -1    0    0    0    0 -0.00000000000E+00 -0.00000000000E+00 -0.74505805969E-08  0.93827000000E+00  0.93827000000E+00 0.  1.
     999902    2    1    2    0    0  0.20268648065E-01 -0.14031636748E-01 -0.43192981415E-02  0.10189027896E+01  0.10185953727E+01 0.  0.
     999903    2    3    3    0    0  0.43658161102E-01  0.56327694409E-01 -0.10679462877E+00  0.12985909090E+00  0.19479388253E-01 0.  0.
         14    1    1    2    0    0 -0.20268648065E-01  0.14031636748E-01  0.43192981415E-02  0.25027210404E-01  0.00000000000E+00 0. -1.
     999901    1    3    3    0    0 -0.23389513037E-01 -0.70359331157E-01  0.10247533063E+00  0.88904369869E+00  0.88000000000E+00 0. -1.
        -11    1    4    4    0    0  0.24582530259E-01  0.44421585734E-01 -0.81394583036E-01  0.95931836956E-01  0.51100000000E-03 0.  1.
         11    1    4    4    0    0  0.19075630844E-01  0.11906108675E-01 -0.25400045736E-01  0.33927253945E-01  0.51100000000E-03 0. -1.
</event>
<event>
 8    1  0.1106905E+005  0.1043930E+01  0.7957747E-01            NaN
         13   -1    0    0    0    0  0.00000000000E+00  0.00000000000E+00  0.74505805969E-08  0.10566000000E+00  0.10566000000E+00 0. -1.
     999900   -1    0    0    0    0 -0.00000000000E+00 -0.00000000000E+00 -0.74505805969E-08  0.93827000000E+00  0.93827000000E+00 0.  1.
     999902    2    1    2    0    0 -0.17010017073E-01  0.66367697307E-02  0.14824934475E-01  0.10204105171E+01  0.10201394303E+01 0.  0.
     999903    2    3    3    0    0  0.25336753522E-01 -0.15829783011E-01  0.12725034328E+00  0.13196385719E+00  0.18145981137E-01 0.  0.
         14    1    1    2    0    0  0.17010017073E-01 -0.66367697307E-02 -0.14824934475E-01  0.23519482891E-01  0.00000000000E+00 0. -1.
     999901    1    3    3    0    0 -0.42346770594E-01  0.22466552741E-01 -0.11242540880E+00  0.88844665992E+00  0.88000000000E+00 0. -1.
        -11    1    4    4    0    0  0.28202972920E-01 -0.13868457355E-01  0.11341736926E+00  0.11769240656E+00  0.51100000000E-03 0. -1.
         11    1    4    4    0    0 -0.28662193987E-02 -0.19613256553E-02  0.13832974014E-01  0.14271450628E-01  0.51100000000E-03 0.  1.
</event>
<event>
 8    1  0.1106905E+005  0.1043930E+01  0.7957747E-01            NaN
         13   -1    0    0    0    0  0.00000000000E+00  0.00000000000E+00  0.74505805969E-08  0.10566000000E+00  0.10566000000E+00 0. -1.
     999900   -1    0    0    0    0 -0.00000000000E+00 -0.00000000000E+00 -0.74505805969E-08  0.93827000000E+00  0.93827000000E+00 0. -1.
     999902    2    1    2    0    0 -0.12930123173E-01  0.18265114629E-01  0.90599704203E-02  0.10197869770E+01  0.10195011490E+01 0.  0.
     999903    2    3    3    0    0 -0.95377399927E-01 -0.54777648213E-01  0.67798732757E-01  0.13097707554E+00  0.21468278785E-01 0.  0.
         14    1    1    2    0    0  0.12930123173E-01 -0.18265114629E-01 -0.90599704203E-02  0.24143023044E-01  0.00000000000E+00 0.  1.
     999901    1    3    3    0    0  0.82447276754E-01  0.73042762842E-01 -0.58738762337E-01  0.88880990141E+00  0.88000000000E+00 0. -1.
        -11    1    4    4    0    0 -0.17970279301E-01 -0.14592731332E-01  0.55124249590E-02  0.23801821271E-01  0.51100000000E-03 0. -1.
         11    1    4    4    0    0 -0.77407120625E-01 -0.40184916880E-01  0.62286307798E-01  0.10717525427E+00  0.51100000000E-03 0.  1.
</event>
<event>
 8    1  0.1106905E+005  0.1043930E+01  0.7957747E-01            NaN
         13   -1    0    0    0    0  0.00000000000E+00  0.00000000000E+00  0.74505805969E-08  0.10566000000E+00  0.10566000000E+00 0. -1.
     999900   -1    0    0    0    0 -0.00000000000E+00 -0.00000000000E+00 -0.74505805969E-08  0.93827000000E+00  0.93827000000E+00 0. -1.
     999902    2    1    2    0    0  0.97745741551E-02  0.18841725660E-01  0.94804385580E-02  0.10206828143E+01  0.10204180398E+01 0.  0.
     999903    2    3    3    0    0  0.34161055997E-01  0.70724308946E-01 -0.10375169183E+00  0.13157763592E+00  0.19477040188E-01 0.  0.
         14    1    1    2    0    0 -0.97745741551E-02 -0.18841725660E-01 -0.94804385580E-02  0.23247185658E-01  0.00000000000E+00 0.  1.
     999901    1    3    3    0    0 -0.24386481842E-01 -0.51882583286E-01  0.11323213039E+00  0.88910517842E+00  0.88000000000E+00 0.  1.
        -11    1    4    4    0    0  0.18682803989E-01  0.28919169295E-01 -0.59609248547E-01  0.68839589997E-01  0.51100000000E-03 0.  1.
         11    1    4    4    0    0  0.15478252008E-01  0.41805139651E-01 -0.44142443281E-01  0.62738045923E-01  0.51100000000E-03 0. -1.
</event>
<event>
 8    1  0.1106905E+005  0.1043930E+01  0.7957747E-01            NaN
         13   -1    0    0    0    0  0.00000000000E+00  0.00000000000E+00  0.74505805969E-08  0.10566000000E+00  0.10566000000E+00 0.  1.
     999900   -1    0    0    0    0 -0.00000000000E+00 -0.00000000000E+00 -0.74505805969E-08  0.93827000000E+00  0.93827000000E+00 0.  1.
     999902    2    1    2    0    0  0.49787816978E-02 -0.40698662307E-02  0.22287142221E-01  0.10207336902E+01  0.10204700866E+01 0.  0.
     999903    2    3    3    0    0 -0.12751436120E+00  0.80985063576E-04 -0.15319140093E-01  0.13001157029E+00  0.20209242596E-01 0.  0.
         14    1    1    2    0    0 -0.49787816978E-02  0.40698662307E-02 -0.22287142221E-01  0.23196309765E-01  0.00000000000E+00 0. -1.
     999901    1    3    3    0    0  0.13249314290E+00 -0.41508512942E-02  0.37606282314E-01  0.89072211994E+00  0.88000000000E+00 0.  1.
        -11    1    4    4    0    0 -0.65181159134E-01  0.95719641656E-02 -0.11161043581E-01  0.66820925008E-01  0.51100000000E-03 0. -1.
         11    1    4    4    0    0 -0.62333202067E-01 -0.94909791020E-02 -0.41580965118E-02  0.63190645287E-01  0.51100000000E-03 0.  1.
</event>
<event>
 8    1  0.1106905E+005  0.1043930E+01  0.7957747E-01            NaN
         13   -1    0    0    0    0  0.00000000000E+00  0.00000000000E+00  0.74505805969E-08  0.10566000000E+00  0.10566000000E+00 0.  1.
     999900   -1    0    0    0    0 -0.00000000000E+00 -0.00000000000E+00 -0.74505805969E-08  0.93827000000E+00  0.93827000000E+00 0. -1.
     999902    2    1    2    0    0  0.84052120306E-02  0.21809397694E-01 -0.43500165498E-02  0.10201556428E+01  0.10198785788E+01 0.  0.
     999903    2    3    3    0    0 -0.47421969273E-01  0.12154536180E+00  0.12933608422E-01  0.13259569529E+00  0.19804596391E-01 0.  0.
         14    1    1    2    0    0 -0.84052120306E-02 -0.21809397694E-01  0.43500165498E-02  0.23774357216E-01  0.00000000000E+00 0. -1.
     999901    1    3    3    0    0  0.55827181304E-01 -0.99735964102E-01 -0.17283624971E-01  0.88755994750E+00  0.88000000000E+00 0. -1.
        -11    1    4    4    0    0 -0.18978977637E-01  0.61050620124E-01 -0.25153212579E-02  0.63984121246E-01  0.51100000000E-03 0. -1.
         11    1    4    4    0    0 -0.28442991636E-01  0.60494741672E-01  0.15448929679E-01  0.68611574041E-01  0.51100000000E-03 0.  1.
</event>
<event>
 8    1  0.1106905E+005  0.1043930E+01  0.7957747E-01            NaN
         13   -1    0    0    0    0  0.00000000000E+00  0.00000000000E+00  0.74505805969E-08  0.10566000000E+00  0.10566000000E+00 0.  1.
     999900   -1    0    0    0    0 -0.00000000000E+00 -0.00000000000E+00 -0.74505805969E-08  0.93827000000E+00  0.93827000000E+00 0.  1.
     999902    2    1    2    0    0 -0.63066250824E-03  0.27047948131E-01  0.55639813259E-02  0.10163085025E+01  0.10159330811E+01 0.  0.
     999903    2    3    3    0    0  0.81198635601E-01 -0.89507196802E-01 -0.21589641939E-01  0.12444615045E+00  0.20395465650E-01 0.  0.
         14    1    1    2    0    0  0.63066250824E-03 -0.27047948131E-01 -0.55639813259E-02  0.27621497452E-01  0.00000000000E+00 0. -1.
     999901    1    3    3    0    0 -0.81829298110E-01  0.11655514493E+00  0.27153623265E-01  0.89186235210E+00  0.88000000000E+00 0. -1.
        -11    1    4    4    0    0  0.16793741262E-01 -0.31861587621E-01 -0.86763324036E-02  0.37050376196E-01  0.51100000000E-03 0. -1.
         11    1    4    4    0    0  0.64404894339E-01 -0.57645609181E-01 -0.12913309535E-01  0.87395774250E-01  0.51100000000E-03 0.  1.
</event>
<event>
 8    1  0.1106905E+005  0.1043930E+01  0.7957747E-01            NaN
         13   -1    0    0    0    0  0.00000000000E+00  0.00000000000E+00  0.74505805969E-08  0.10566000000E+00  0.10566000000E+00 0.  1.
     999900   -1    0    0    0    0 -0.00000000000E+00 -0.00000000000E+00 -0.74505805969E-08  0.93827000000E+00  0.93827000000E+00 0. -1.
     999902    2    1    2    0    0  0.81102557872E-02  0.10475112775E-01  0.18254363302E-01  0.10213750445E+01  0.10211259744E+01 0.  0.
     999903    2    3    3    0    0  0.86862528071E-01  0.71190880146E-01  0.70670767329E-01  0.13422466032E+00  0.20215387318E-01 0.  0.
         14    1    1    2    0    0 -0.81102557872E-02 -0.10475112775E-01 -0.18254363302E-01  0.22554955467E-01  0.00000000000E+00 0. -1.
     999901    1    3    3    0    0 -0.78752272284E-01 -0.60715767371E-01 -0.52416404028E-01  0.88715038421E+00  0.88000000000E+00 0. -1.
        -11    1    4    4    0    0  0.72682562284E-01  0.57307763036E-01  0.66416727152E-01  0.11392268137E+00  0.51100000000E-03 0.  1.
         11    1    4    4    0    0  0.14179965786E-01  0.13883117110E-01  0.42540401773E-02  0.20301978948E-01  0.51100000000E-03 0. -1.
</event>
<event>
 8    1  0.1106905E+005  0.1043930E+01  0.7957747E-01            NaN
         13   -1    0    0    0    0  0.00000000000E+00  0.00000000000E+00  0.74505805969E-08  0.10566000000E+00  0.10566000000E+00 0.  1.
     999900   -1    0    0    0    0 -0.00000000000E+00 -0.00000000000E+00 -0.74505805969E-08  0.93827000000E+00  0.93827000000E+00 0.  1.
     999902    2    1    2    0    0  0.23690285832E-01  0.55887024249E-02 -0.75765105034E-04  0.10195893143E+01  0.10192987300E+01 0.  0.
     999903    2    3    3    0    0 -0.94751899790E-01 -0.22418623995E-01  0.80068516622E-01  0.12760497168E+00  0.19787476560E-01 0.  0.
         14    1    1    2    0    0 -0.23690285832E-01 -0.55887024249E-02  0.75765105034E-04  0.24340685651E-01  0.00000000000E+00 0. -1.
     999901    1    3    3    0    0  0.11844218562E+00  0.28007326420E-01 -0.80144281727E-01  0.89198434267E+00  0.88000000000E+00 0.  1.
        -11    1    4    4    0    0 -0.48223110396E-01 -0.12337141562E-01  0.53523771203E-01  0.73093971318E-01  0.51100000000E-03 0.  1.
         11    1    4    4    0    0 -0.46528789394E-01 -0.10081482433E-01  0.26544745419E-01  0.54511000366E-01  0.51100000000E-03 0. -1.
</event>
<event>
 8    1  0.1106905E+005  0.1043930E+01  0.7957747E-01            NaN
         13   -1    0    0    0    0  0.00000000000E+00  0.00000000000E+00  0.74505805969E-08  0.10566000000E+00  0.10566000000E+00 0. -1.
     999900   -1    0    0    0    0 -0.00000000000E+00 -0.00000000000E+00 -0.74505805969E-08  0.93827000000E+00  0.93827000000E+00 0. -1.
     999902    2    1    2    0    0  0.65567921498E-02  0.12360850954E-01 -0.16268722788E-01  0.10224718197E+01  0.10222466281E+01 0.  0.
     999903    2    3    3    0    0  0.12599001875E+00 -0.37122326808E-01 -0.53256627196E-02  0.13295923912E+00  0.19956067032E-01 0.  0.
         14    1    1    2    0    0 -0.65567921498E-02 -0.12360850954E-01  0.16268722788E-01  0.21458180276E-01  0.00000000000E+00 0. -1.
     999901    1    3    3    0    0 -0.11943322660E+00  0.49483177762E-01 -0.10943060068E-01  0.88951258061E+00  0.88000000000E+00 0. -1.
        -11    1    4    4    0    0  0.42155461824E-01 -0.15423237126E-01 -0.10852219459E-01  0.46184315446E-01  0.51100000000E-03 0.  1.
         11    1    4    4    0    0  0.83834556923E-01 -0.21699089682E-01  0.55265567398E-02  0.86774923670E-01  0.51100000000E-03 0. -1.
</event>
<event>
 8    1  0.1106905E+005  0.1043930E+01  0.7957747E-01            NaN
         13   -1    0    0    0    0  0.00000000000E+00  0.00000000000E+00  0.74505805969E-08  0.10566000000E+00  0.10566000000E+00 0. -1.
     999900   -1    0    0    0    0 -0.00000000000E+00 -0.00000000000E+00 -0.74505805969E-08  0.93827000000E+00  0.93827000000E+00 0.  1.
     999902    2    1    2    0    0 -0.18650392727E-01 -0.14275045138E-01 -0.58623109496E-02  0.10197229607E+01  0.10194355967E+01 0.  0.
     999903    2    3    3    0    0 -0.10773355484E+00 -0.12729894456E-02 -0.74491169788E-01  0.13247170907E+00  0.19790906680E-01 0.  0.
         14    1    1    2    0    0  0.18650392727E-01  0.14275045138E-01  0.58623109496E-02  0.24207039312E-01  0.00000000000E+00 0.  1.
     999901    1    3    3    0    0  0.89083162116E-01 -0.13002055693E-01  0.68628858839E-01  0.88725125161E+00  0.88000000000E+00 0. -1.
        -11    1    4    4    0    0 -0.40057718727E-01 -0.73919353675E-02 -0.20074434216E-01  0.45414816615E-01  0.51100000000E-03 0. -1.
         11    1    4    4    0    0 -0.67675836117E-01  0.61189459220E-02 -0.54416735572E-01  0.87056892459E-01  0.51100000000E-03 0.  1.
</event>
<event>
 8    1  0.1106905E+005  0.1043930E+01  0.7957747E-01            NaN
         13   -1    0    0    0    0  0.00000000000E+00  0.00000000000E+00  0.74505805969E-08  0.10566000000E+00  0.10566000000E+00 0. -1.
     999900   -1    0    0    0    0 -0.00000000000E+00 -0.00000000000E+00 -0.74505805969E-08  0.93827000000E+00  0.93827000000E+00 0. -1.
     999902    2    1    2    0    0  0.54053428484E-02  0.17253708930E-01  0.15602796437E-01  0.10200478841E+01  0.10197682729E+01 0.  0.
     999903    2    3    3    0    0  0.55349241564E-01 -0.64966207551E-01 -0.93503113449E-01  0.12810696271E+00  0.19606504125E-01 0.  0.
         14    1    1    2    0    0 -0.54053428484E-02 -0.17253708930E-01 -0.15602796437E-01  0.23882115899E-01  0.00000000000E+00 0.  1.
     999901    1    3    3    0    0 -0.49943898716E-01  0.82219916481E-01  0.10910590989E+00  0.89194092139E+00  0.88000000000E+00 0.  1.
        -11    1    4    4    0    0  0.35818175792E-01 -0.29184712373E-01 -0.57084963623E-01  0.73441427996E-01  0.51100000000E-03 0.  1.
         11    1    4    4    0    0  0.19531065772E-01 -0.35781495179E-01 -0.36418149827E-01  0.54665534711E-01  0.51100000000E-03 0. -1.
</event>
<event>
 8    1  0.1106905E+005  0.1043930E+01  0.7957747E-01            NaN
         13   -1    0    0    0    0  0.00000000000E+00  0.00000000000E+00  0.74505805969E-08  0.10566000000E+00  0.10566000000E+00 0. -1.
     999900   -1    0    0    0    0 -0.00000000000E+00 -0.00000000000E+00 -0.74505805969E-08  0.93827000000E+00  0.93827000000E+00 0. -1.
     999902    2    1    2    0    0  0.16397487190E-01 -0.17304383247E-01  0.80957849219E-02  0.10187534037E+01  0.10184422598E+01 0.  0.
     999903    2    3    3    0    0 -0.94620099261E-02  0.10065168312E+00  0.75676644740E-01  0.12793943899E+00  0.20524486419E-01 0.  0.
         14    1    1    2    0    0 -0.16397487190E-01  0.17304383247E-01 -0.80957849219E-02  0.25176596260E-01  0.00000000000E+00 0.  1.
     999901    1    3    3    0    0  0.25859497116E-01 -0.11795606637E+00 -0.67580859818E-01  0.89081396475E+00  0.88000000000E+00 0. -1.
        -11    1    4    4    0    0 -0.58588219658E-02  0.46412902418E-01  0.22571363567E-01  0.51944305558E-01  0.51100000000E-03 0.  1.
         11    1    4    4    0    0 -0.36031879604E-02  0.54238780702E-01  0.53105281173E-01  0.75995133430E-01  0.51100000000E-03 0. -1.
</event>
<event>
 8    1  0.1106905E+005  0.1043930E+01  0.7957747E-01            NaN
         13   -1    0    0    0    0  0.00000000000E+00  0.00000000000E+00  0.74505805969E-08  0.10566000000E+00  0.10566000000E+00 0.  1.
     999900   -1    0    0    0    0 -0.00000000000E+00 -0.00000000000E+00 -0.74505805969E-08  0.93827000000E+00  0.93827000000E+00 0. -1.
     999902    2    1    2    0    0 -0.15534126538E-01 -0.16856872065E-01 -0.16879145639E-03  0.10210063940E+01  0.10207490215E+01 0.  0.
     999903    2    3    3    0    0  0.82291095684E-01  0.68984899169E-01 -0.68086294323E-01  0.12884532611E+00  0.20847873863E-01 0.  0.
         14    1    1    2    0    0  0.15534126538E-01  0.16856872065E-01  0.16879145639E-03  0.22923606035E-01  0.00000000000E+00 0. -1.
     999901    1    3    3    0    0 -0.97825222222E-01 -0.85841771234E-01  0.67917502867E-01  0.89216106785E+00  0.88000000000E+00 0.  1.
        -11    1    4    4    0    0  0.57056328718E-01  0.45297636851E-01 -0.34478290030E-01  0.80599715604E-01  0.51100000000E-03 0. -1.
         11    1    4    4    0    0  0.25234766966E-01  0.23687262319E-01 -0.33608004293E-01  0.48245610511E-01  0.51100000000E-03 0.  1.
</event>
<event>
 8    1  0.1106905E+005  0.1043930E+01  0.7957747E-01            NaN
         13   -1    0    0    0    0  0.00000000000E+00  0.00000000000E+00  0.74505805969E-08  0.10566000000E+00  0.10566000000E+00 0.  1.
     999900   -1    0    0    0    0 -0.00000000000E+00 -0.00000000000E+00 -0.74505805969E-08  0.93827000000E+00  0.93827000000E+00 0.  1.
     999902    2    1    2    0    0 -0.78727153408E-02  0.17878856537E-01  0.98195985342E-02  0.10220654700E+01  0.10218315748E+01 0.  0.
     999903    2    3    3    0    0  0.73545857592E-01  0.10602204794E+00  0.28091391492E-01  0.13373441421E+00  0.21121066488E-01 0.  0.
         14    1    1    2    0    0  0.78727153408E-02 -0.17878856537E-01 -0.98195985342E-02  0.21864530027E-01  0.00000000000E+00 0.  1.
     999901    1    3    3    0    0 -0.81418572933E-01 -0.88143191407E-01 -0.18271792958E-01  0.88833105576E+00  0.88000000000E+00 0. -1.
        -11    1    4    4    0    0  0.50558598554E-01  0.64818329912E-01  0.85019502465E-02  0.82644613009E-01  0.51100000000E-03 0.  1.
         11    1    4    4    0    0  0.22987259038E-01  0.41203718033E-01  0.19589441246E-01  0.51089801204E-01  0.51100000000E-03 0. -1.
</event>
<event>
 8    1  0.1106905E+005  0.1043930E+01  0.7957747E-01            NaN
         13   -1    0    0    0    0  0.00000000000E+00  0.00000000000E+00  0.74505805969E-08  0.10566000000E+00  0.10566000000E+00 0. -1.
     999900   -1    0    0    0    0 -0.00000000000E+00 -0.00000000000E+00 -0.74505805969E-08  0.93827000000E+00  0.93827000000E+00 0. -1.
     999902    2    1    2    0    0 -0.74244375631E-02  0.23828544660E-01  0.33817047275E-02  0.10187435405E+01  0.10184321497E+01 0.  0.
     999903    2    3    3    0    0 -0.97386370790E-01 -0.39584584115E-01  0.72457643292E-01  0.12920104035E+00  0.19792782573E-01 0.  0.
         14    1    1    2    0    0  0.74244375631E-02 -0.23828544660E-01 -0.33817047275E-02  0.25186459470E-01  0.00000000000E+00 0.  1.
     999901    1    3    3    0    0  0.89961933227E-01  0.63413128775E-01 -0.69075938564E-01  0.88954250018E+00  0.88000000000E+00 0. -1.
        -11    1    4    4    0    0 -0.54939655267E-01 -0.15600728602E-01  0.29816376269E-01  0.64428455426E-01  0.51100000000E-03 0.  1.
         11    1    4    4    0    0 -0.42446715523E-01 -0.23983855513E-01  0.42641267022E-01  0.64772584928E-01  0.51100000000E-03 0. -1.
</event>
<event>
 8    1  0.1106905E+005  0.1043930E+01  0.7957747E-01            NaN
         13   -1    0    0    0    0  0.00000000000E+00  0.00000000000E+00  0.74505805969E-08  0.10566000000E+00  0.10566000000E+00 0. -1.
     999900   -1    0    0    0    0 -0.00000000000E+00 -0.00000000000E+00 -0.74505805969E-08  0.93827000000E+00  0.93827000000E+00 0. -1.
     999902    2    1    2    0    0  0.20391113995E-01 -0.76314815956E-02  0.88788886733E-02  0.10204167759E+01  0.10201458351E+01 0.  0.
     999903    2    3    3    0    0 -0.71972670746E-01 -0.76107847038E-01 -0.72894203362E-01  0.12917779569E+00  0.20021695717E-01 0.  0.
         14    1    1    2    0    0 -0.20391113995E-01  0.76314815956E-02 -0.88788886733E-02  0.23513224053E-01  0.00000000000E+00 0. -1.
     999901    1    3    3    0    0  0.92363784741E-01  0.68476365442E-01  0.81773092036E-01  0.89123898026E+00  0.88000000000E+00 0.  1.
        -11    1    4    4    0    0 -0.67755143504E-02 -0.17875198167E-01 -0.10934757720E-01  0.22028625732E-01  0.51100000000E-03 0. -1.
         11    1    4    4    0    0 -0.65197156396E-01 -0.58232648871E-01 -0.61959445642E-01  0.10714916995E+00  0.51100000000E-03 0.  1.
</event>
<event>
 8    1  0.1106905E+005  0.1043930E+01  0.7957747E-01            NaN
         13   -1    0    0    0    0  0.00000000000E+00  0.00000000000E+00  0.74505805969E-08  0.10566000000E+00  0.10566000000E+00 0.  1.
     999900   -1    0    0    0    0 -0.00000000000E+00 -0.00000000000E+00 -0.74505805969E-08  0.93827000000E+00  0.93827000000E+00 0. -1.
     999902    2    1    2    0    0  0.18342700393E-01  0.80551293018E-02 -0.10115825012E-01  0.10214874137E+01  0.10212408465E+01 0.  0.
     999903    2    3    3    0    0  0.97856331250E-01  0.78243154702E-01 -0.44086151003E-01  0.13446838374E+00  0.20983438503E-01 0.  0.
         14    1    1    2    0    0 -0.18342700393E-01 -0.80551293018E-02  0.10115825012E-01  0.22442586336E-01  0.00000000000E+00 0. -1.
     999901    1    3    3    0    0 -0.79513630857E-01 -0.70188025400E-01  0.33970325991E-01  0.88701902993E+00  0.88000000000E+00 0. -1.
        -11    1    4    4    0    0  0.52071002064E-01  0.44660432975E-01 -0.34824145788E-01  0.76934555177E-01  0.51100000000E-03 0. -1.
         11    1    4    4    0    0  0.45785329186E-01  0.33582721728E-01 -0.92620052153E-02  0.57533828561E-01  0.51100000000E-03 0.  1.
</event>
<event>
 8    1  0.1106905E+005  0.1043930E+01  0.7957747E-01            NaN
         13   -1    0    0    0    0  0.00000000000E+00  0.00000000000E+00  0.74505805969E-08  0.10566000000E+00  0.10566000000E+00 0.  1.
     999900   -1    0    0    0    0 -0.00000000000E+00 -0.00000000000E+00 -0.74505805969E-08  0.93827000000E+00  0.93827000000E+00 0. -1.
     999902    2    1    2    0    0 -0.18700491614E-01 -0.28457965207E-02 -0.14181644633E-01  0.10202883844E+01  0.10200144417E+01 0.  0.
     999903    2    3    3    0    0 -0.63463598773E-01  0.39748728038E-01  0.10413868669E+00  0.13022224634E+00  0.22480605555E-01 0.  0.
         14    1    1    2    0    0  0.18700491614E-01  0.28457965207E-02  0.14181644633E-01  0.23641615616E-01  0.00000000000E+00 0.  1.
     999901    1    3    3    0    0  0.44763107159E-01 -0.42594524559E-01 -0.11832033133E+00  0.89006613804E+00  0.88000000000E+00 0. -1.
        -11    1    4    4    0    0 -0.16801983551E-01  0.21266217950E-01  0.27528857318E-01  0.38634929576E-01  0.51100000000E-03 0.  1.
         11    1    4    4    0    0 -0.46661615222E-01  0.18482510089E-01  0.76609829376E-01  0.91587316765E-01  0.51100000000E-03 0. -1.
</event>
<event>
 8    1  0.1106905E+005  0.1043930E+01  0.7957747E-01            NaN
         13   -1    0    0    0    0  0.00000000000E+00  0.00000000000E+00  0.74505805969E-08  0.10566000000E+00  0.10566000000E+00 0. -1.
     999900   -1    0    0    0    0 -0.00000000000E+00 -0.00000000000E+00 -0.74505805969E-08  0.93827000000E+00  0.93827000000E+00 0. -1.
     999902    2    1    2    0    0  0.21975626480E-01 -0.90006463745E-02 -0.11999876372E-02  0.10201522843E+01  0.10198751411E+01 0.  0.
     999903    2    3    3    0    0  0.19670814703E-01 -0.12771427768E+00 -0.18365721100E-01  0.13201214848E+00  0.19799746515E-01 0.  0.
         14    1    1    2    0    0 -0.21975626480E-01  0.90006463745E-02  0.11999876372E-02  0.23777715716E-01  0.00000000000E+00 0. -1.
     999901    1    3    3    0    0  0.23048117769E-02  0.11871363130E+00  0.17165733462E-01  0.88814013580E+00  0.88000000000E+00 0. -1.
        -11    1    4    4    0    0  0.11698331224E-01 -0.65865087795E-01 -0.19354339167E-01  0.69641311801E-01  0.51100000000E-03 0. -1.
         11    1    4    4    0    0  0.79724834791E-02 -0.61849189882E-01  0.98861806721E-03  0.62370836683E-01  0.51100000000E-03 0.  1.
</event>
<event>
 8    1  0.1106905E+005  0.1043930E+01  0.7957747E-01            NaN
         13   -1    0    0    0    0  0.00000000000E+00  0.00000000000E+00  0.74505805969E-08  0.10566000000E+00  0.10566000000E+00 0. -1.
     999900   -1    0    0    0    0 -0.00000000000E+00 -0.00000000000E+00 -0.74505805969E-08  0.93827000000E+00  0.93827000000E+00 0. -1.
     999902    2    1    2    0    0  0.71844487853E-03  0.17315366382E-01  0.14183422239E-01  0.10215356359E+01  0.10212901390E+01 0.  0.
     999903    2    3    3    0    0 -0.99168680540E-01 -0.23006617067E-01 -0.78643652514E-01  0.13012093671E+00  0.19567893589E-01 0.  0.
         14    1    1    2    0    0 -0.71844487853E-03 -0.17315366382E-01 -0.14183422239E-01  0.22394364077E-01  0.00000000000E+00 0. -1.
     999901    1    3    3    0    0  0.99887125419E-01  0.40321983449E-01  0.92827074753E-01  0.89141469922E+00  0.88000000000E+00 0.  1.
        -11    1    4    4    0    0 -0.57663464149E-01 -0.20088848268E-01 -0.55443222739E-01  0.82479385249E-01  0.51100000000E-03 0.  1.
         11    1    4    4    0    0 -0.41505216392E-01 -0.29177687991E-02 -0.23200429775E-01  0.47641551457E-01  0.51100000000E-03 0. -1.
</event>
<event>
 8    1  0.1106905E+005  0.1043930E+01  0.7957747E-01            NaN
         13   -1    0    0    0    0  0.00000000000E+00  0.00000000000E+00  0.74505805969E-08  0.10566000000E+00  0.10566000000E+00 0.  1.
     999900   -1    0    0    0    0 -0.00000000000E+00 -0.00000000000E+00 -0.74505805969E-08  0.93827000000E+00  0.93827000000E+00 0.  1.
     999902    2    1    2    0    0  0.95108686028E-02  0.17010777832E-01  0.12850026504E-01  0.10205859137E+01  0.10203189016E+01 0.  0.
     999903    2    3    3    0    0  0.12874966912E-01  0.67646837623E-01  0.11264911454E+00  0.13349224013E+00  0.19710295705E-01 0.  0.
         14    1    1    2    0    0 -0.95108686028E-02 -0.17010777832E-01 -0.12850026504E-01  0.23344086300E-01  0.00000000000E+00 0.  1.
     999901    1    3    3    0    0 -0.33640983096E-02 -0.50636059791E-01 -0.99799088032E-01  0.88709367357E+00  0.88000000000E+00 0.  1.
        -11    1    4    4    0    0  0.82429895112E-02  0.59426873981E-01  0.83288481190E-01  0.10264858717E+00  0.51100000000E-03 0. -1.
         11    1    4    4    0    0  0.46319774012E-02  0.82199636423E-02  0.29360633346E-01  0.30843652968E-01  0.51100000000E-03 0.  1.
</event>
<event>
 8    1  0.1106905E+005  0.1043930E+01  0.7957747E-01            NaN
         13   -1    0    0    0    0  0.00000000000E+00  0.00000000000E+00  0.74505805969E-08  0.10566000000E+00  0.10566000000E+00 0. -1.
     999900   -1    0    0    0    0 -0.00000000000E+00 -0.00000000000E+00 -0.74505805969E-08  0.93827000000E+00  0.93827000000E+00 0.  1.
     999902    2    1    2    0    0  0.16708256835E-01  0.70541816126E-02  0.99001523609E-02  0.10232674653E+01  0.10230588278E+01 0.  0.
     999903    2    3    3    0    0  0.72500342679E-01 -0.73682914000E-01  0.84257091613E-01  0.13469547051E+00  0.18924607939E-01 0.  0.
         14    1    1    2    0    0 -0.16708256835E-01 -0.70541816126E-02 -0.99001523609E-02  0.20662534730E-01  0.00000000000E+00 0.  1.
     999901    1    3    3    0    0 -0.55792085844E-01  0.80737095612E-01 -0.74356939252E-01  0.88857199476E+00  0.88000000000E+00 0.  1.
        -11    1    4    4    0    0  0.39125525919E-01 -0.30859260721E-01  0.49428964655E-01  0.70189631845E-01  0.51100000000E-03 0.  1.
         11    1    4    4    0    0  0.33374816760E-01 -0.42823653278E-01  0.34828126958E-01  0.64505838668E-01  0.51100000000E-03 0. -1.
</event>
<event>
 8    1  0.1106905E+005  0.1043930E+01  0.7957747E-01            NaN
         13   -1    0    0    0    0  0.00000000000E+00  0.00000000000E+00  0.74505805969E-08  0.10566000000E+00  0.10566000000E+00 0. -1.
     999900   -1    0    0    0    0 -0.00000000000E+00 -0.00000000000E+00 -0.74505805969E-08  0.93827000000E+00  0.93827000000E+00 0.  1.
     999902    2    1    2    0    0 -0.18989734604E-01  0.13403540448E-01  0.99399452613E-02  0.10186502170E+01  0.10183364852E+01 0.  0.
     999903    2    3    3    0    0 -0.96359739845E-01 -0.63004413406E-01  0.58193660900E-01  0.13064531037E+00  0.20662511482E-01 0.  0.
         14    1    1    2    0    0  0.18989734604E-01 -0.13403540448E-01 -0.99399452613E-02  0.25279783003E-01  0.00000000000E+00 0.  1.
     999901    1    3    3    0    0  0.77370005240E-01  0.76407953855E-01 -0.48253715638E-01  0.88800490663E+00  0.88000000000E+00 0.  1.
        -11    1    4    4    0    0 -0.56637537285E-01 -0.24760733597E-01  0.29873911355E-01  0.68655780956E-01  0.51100000000E-03 0. -1.
         11    1    4    4    0    0 -0.39722202559E-01 -0.38243679809E-01  0.28319749545E-01  0.61989529413E-01  0.51100000000E-03 0.  1.
</event>
<event>
 8    1  0.1106905E+005  0.1043930E+01  0.7957747E-01            NaN
         13   -1    0    0    0    0  0.00000000000E+00  0.00000000000E+00  0.74505805969E-08  0.10566000000E+00  0.10566000000E+00 0. -1.
     999900   -1    0    0    0    0 -0.00000000000E+00 -0.00000000000E+00 -0.74505805969E-08  0.93827000000E+00  0.93827000000E+00 0.  1.
     999902    2    1    2    0    0 -0.10555648188E-02  0.19937910812E-01  0.13067624334E-01  0.10200679525E+01  0.10197888166E+01 0.  0.
     999903    2    3    3    0    0  0.12822636546E+00  0.12308704936E-01  0.22378824339E-02  0.13052351540E+00  0.20925461529E-01 0.  0.
         14    1    1    2    0    0  0.10555648188E-02 -0.19937910812E-01 -0.13067624334E-01  0.23862047489E-01  0.00000000000E+00 0.  1.
     999901    1    3    3    0    0 -0.12928193028E+00  0.76292058756E-02  0.10829741900E-01  0.88954443711E+00  0.88000000000E+00 0.  1.
        -11    1    4    4    0    0  0.10387244414E+00  0.18109215944E-01  0.83272846518E-03  0.10544374287E+00  0.51100000000E-03 0.  1.
         11    1    4    4    0    0  0.24353921319E-01 -0.58005110079E-02  0.14051539687E-02  0.25079772532E-01  0.51100000000E-03 0. -1.
</event>
<event>
 8    1  0.2137303E+005  0.1043930E+01  0.7957747E-01            NaN
         13   -1    0    0    0    0  0.00000000000E+00  0.00000000000E+00  0.74505805969E-08  0.10566000000E+00  0.10566000000E+00 0. -1.
     999900   -1    0    0    0    0 -0.00000000000E+00 -0.00000000000E+00 -0.74505805969E-08  0.93827000000E+00  0.93827000000E+00 0.  1.
     999902    2    1    2    0    0 -0.10373647280E-01  0.18530282886E-03  0.27105467566E-01  0.10149066772E+01  0.10144916018E+01 0.  0.
     999903    2    3    3    0    0 -0.38020450455E-02 -0.44938779437E-02 -0.12083605180E+00  0.12252123701E+00  0.19376573948E-01 0.  0.
         14    1    1    2    0    0  0.10373647280E-01 -0.18530282886E-03 -0.27105467566E-01  0.29023322811E-01  0.00000000000E+00 0.  1.
     999901    1    3    3    0    0 -0.65716022346E-02  0.46791807726E-02  0.14794151937E+00  0.89238544018E+00  0.88000000000E+00 0. -1.
        -11    1    4    4    0    0  0.12300669714E-02  0.61701257030E-02 -0.72124251995E-01  0.72399947256E-01  0.51100000000E-03 0. -1.
         11    1    4    4    0    0 -0.50321120169E-02 -0.10664003647E-01 -0.48711799808E-01  0.50121289755E-01  0.51100000000E-03 0.  1.
</event>
<event>
 8    1  0.1106905E+005  0.1043930E+01  0.7957747E-01            NaN
         13   -1    0    0    0    0  0.00000000000E+00  0.00000000000E+00  0.74505805969E-08  0.10566000000E+00  0.10566000000E+00 0. -1.
     999900   -1    0    0    0    0 -0.00000000000E+00 -0.00000000000E+00 -0.74505805969E-08  0.93827000000E+00  0.93827000000E+00 0. -1.
     999902    2    1    2    0    0 -0.14866642484E-02 -0.61393923287E-02  0.22665669504E-01  0.10204005529E+01  0.10201292337E+01 0.  0.
     999903    2    3    3    0    0  0.12430196839E+00  0.29568588794E-01 -0.13241494766E-01  0.13001458910E+00  0.20079228237E-01 0.  0.
         14    1    1    2    0    0  0.14866642484E-02  0.61393923287E-02 -0.22665669504E-01  0.23529447143E-01  0.00000000000E+00 0.  1.
     999901    1    3    3    0    0 -0.12578863263E+00 -0.35707981122E-01  0.35907164271E-01  0.89038596376E+00  0.88000000000E+00 0.  1.
        -11    1    4    4    0    0  0.89824392710E-01  0.15664444477E-01 -0.21140359010E-02  0.91205957126E-01  0.51100000000E-03 0.  1.
         11    1    4    4    0    0  0.34477575676E-01  0.13904144317E-01 -0.11127458865E-01  0.38808631971E-01  0.51100000000E-03 0. -1.
</event>
<event>
 8    1  0.1106905E+005  0.1043930E+01  0.7957747E-01            NaN
         13   -1    0    0    0    0  0.00000000000E+00  0.00000000000E+00  0.74505805969E-08  0.10566000000E+00  0.10566000000E+00 0.  1.
     999900   -1    0    0    0    0 -0.00000000000E+00 -0.00000000000E+00 -0.74505805969E-08  0.93827000000E+00  0.93827000000E+00 0. -1.
     999902    2    1    2    0    0  0.23326372341E-01  0.36744353589E-02  0.38994176550E-02  0.10199962042E+01  0.10197153672E+01 0.  0.
     999903    2    3    3    0    0 -0.38478306034E-01  0.11964154975E+00  0.27199227829E-01  0.12993380696E+00  0.18663218769E-01 0.  0.
         14    1    1    2    0    0 -0.23326372341E-01 -0.36744353589E-02 -0.38994176550E-02  0.23933795768E-01  0.00000000000E+00 0.  1.
     999901    1    3    3    0    0  0.61804678375E-01 -0.11596711439E+00 -0.23299810174E-01  0.89006239727E+00  0.88000000000E+00 0. -1.
        -11    1    4    4    0    0 -0.10089568920E-01  0.57009447296E-01  0.17507434945E-01  0.60486757901E-01  0.51100000000E-03 0. -1.
         11    1    4    4    0    0 -0.28388737114E-01  0.62632102451E-01  0.96917928837E-02  0.69447049056E-01  0.51100000000E-03 0.  1.
</event>
<event>
 8    1  0.1106905E+005  0.1043930E+01  0.7957747E-01            NaN
         13   -1    0    0    0    0  0.00000000000E+00  0.00000000000E+00  0.74505805969E-08  0.10566000000E+00  0.10566000000E+00 0. -1.
     999900   -1    0    0    0    0 -0.00000000000E+00 -0.00000000000E+00 -0.74505805969E-08  0.93827000000E+00  0.93827000000E+00 0.  1.
     999902    2    1    2    0    0  0.10065987918E-01  0.19637805007E-01 -0.17840032586E-02  0.10217906647E+01  0.10215507880E+01 0.  0.
     999903    2    3    3    0    0 -0.64520857816E-01  0.52169786091E-01  0.10105274980E+00  0.13207333596E+00  0.18630087367E-01 0.  0.
         14    1    1    2    0    0 -0.10065987918E-01 -0.19637805007E-01  0.17840032586E-02  0.22139335263E-01  0.00000000000E+00 0. -1.
     999901    1    3    3    0    0  0.74586845734E-01 -0.32531981084E-01 -0.10283675306E+00  0.88971732878E+00  0.88000000000E+00 0.  1.
        -11    1    4    4    0    0 -0.13836771720E-01  0.25937305581E-02  0.15079241255E-01  0.20635608245E-01  0.51100000000E-03 0.  1.
         11    1    4    4    0    0 -0.50684086096E-01  0.49576055533E-01  0.85973508543E-01  0.11143772771E+00  0.51100000000E-03 0. -1.
</event>
<event>
 8    1  0.1106905E+005  0.1043930E+01  0.7957747E-01            NaN
         13   -1    0    0    0    0  0.00000000000E+00  0.00000000000E+00  0.74505805969E-08  0.10566000000E+00  0.10566000000E+00 0. -1.
     999900   -1    0    0    0    0 -0.00000000000E+00 -0.00000000000E+00 -0.74505805969E-08  0.93827000000E+00  0.93827000000E+00 0. -1.
     999902    2    1    2    0    0  0.14103176736E-01  0.17165375335E-01  0.21198304475E-02  0.10216131143E+01  0.10213693318E+01 0.  0.
     999903    2    3    3    0    0 -0.11324880407E+00  0.32295435779E-01 -0.52693568164E-01  0.13062941392E+00  0.20473027633E-01 0.  0.
         14    1    1    2    0    0 -0.14103176736E-01 -0.17165375335E-01 -0.21198304475E-02  0.22316885661E-01  0.00000000000E+00 0.  1.
     999901    1    3    3    0    0  0.12735198080E+00 -0.15130060444E-01  0.54813398611E-01  0.89098370042E+00  0.88000000000E+00 0.  1.
        -11    1    4    4    0    0 -0.40503409406E-01  0.21845223481E-01 -0.21277064279E-01  0.50702214427E-01  0.51100000000E-03 0. -1.
         11    1    4    4    0    0 -0.72745394662E-01  0.10450212298E-01 -0.31416503885E-01  0.79927199494E-01  0.51100000000E-03 0.  1.
</event>
<event>
 8    1  0.1106905E+005  0.1043930E+01  0.7957747E-01            NaN
         13   -1    0    0    0    0  0.00000000000E+00  0.00000000000E+00  0.74505805969E-08  0.10566000000E+00  0.10566000000E+00 0. -1.
     999900   -1    0    0    0    0 -0.00000000000E+00 -0.00000000000E+00 -0.74505805969E-08  0.93827000000E+00  0.93827000000E+00 0. -1.
     999902    2    1    2    0    0 -0.64910085846E-02 -0.19099812128E-01  0.13314856276E-01  0.10197593274E+01  0.10194728365E+01 0.  0.
     999903    2    3    3    0    0 -0.48697728709E-01 -0.13801503977E-01  0.12059794752E+00  0.13222389659E+00  0.19425333753E-01 0.  0.
         14    1    1    2    0    0  0.64910085846E-02  0.19099812128E-01 -0.13314856276E-01  0.24170672589E-01  0.00000000000E+00 0.  1.
     999901    1    3    3    0    0  0.42206720124E-01 -0.52983081510E-02 -0.10728309124E+00  0.88753543082E+00  0.88000000000E+00 0. -1.
        -11    1    4    4    0    0 -0.40077170908E-01 -0.34542596759E-02  0.81913348142E-01  0.91258803755E-01  0.51100000000E-03 0. -1.
         11    1    4    4    0    0 -0.86205578009E-02 -0.10347244301E-01  0.38684599374E-01  0.40965092837E-01  0.51100000000E-03 0.  1.
</event>
<event>
 8    1  0.1106905E+005  0.1043930E+01  0.7957747E-01            NaN
         13   -1    0    0    0    0  0.00000000000E+00  0.00000000000E+00  0.74505805969E-08  0.10566000000E+00  0.10566000000E+00 0. -1.
     999900   -1    0    0    0    0 -0.00000000000E+00 -0.00000000000E+00 -0.74505805969E-08  0.93827000000E+00  0.93827000000E+00 0.  1.
     999902    2    1    2    0    0  0.76746638340E-03 -0.10453493185E-02  0.26408766014E-01  0.10174894122E+01  0.10171458102E+01 0.  0.
     999903    2    3    3    0    0  0.11731241337E+00  0.32717187903E-02  0.50230288018E-01  0.12947543336E+00  0.21630985481E-01 0.  0.
         14    1    1    2    0    0 -0.76746638340E-03  0.10453493185E-02 -0.26408766014E-01  0.26440587781E-01  0.00000000000E+00 0.  1.
     999901    1    3    3    0    0 -0.11654494699E+00 -0.43170681087E-02 -0.23821522004E-01  0.88801397886E+00  0.88000000000E+00 0.  1.
        -11    1    4    4    0    0  0.54905696491E-01 -0.81510106293E-02  0.18302803535E-01  0.58449364579E-01  0.51100000000E-03 0.  1.
         11    1    4    4    0    0  0.62406716882E-01  0.11422729420E-01  0.31927484483E-01  0.71026068776E-01  0.51100000000E-03 0. -1.
</event>
<event>
 8    1  0.1106905E+005  0.1043930E+01  0.7957747E-01            NaN
         13   -1    0    0    0    0  0.00000000000E+00  0.00000000000E+00  0.74505805969E-08  0.10566000000E+00  0.10566000000E+00 0.  1.
     999900   -1    0    0    0    0 -0.00000000000E+00 -0.00000000000E+00 -0.74505805969E-08  0.93827000000E+00  0.93827000000E+00 0.  1.
     999902    2    1    2    0    0  0.17570768136E-01  0.11373971134E-01  0.13320079505E-01  0.10191202513E+01  0.10188182188E+01 0.  0.
     999903    2    3    3    0    0  0.96263078446E-01  0.74863387047E-01 -0.44379474093E-01  0.13145329567E+00  0.20960062755E-01 0.  0.
         14    1    1    2    0    0 -0.17570768136E-01 -0.11373971134E-01 -0.13320079505E-01  0.24809748694E-01  0.00000000000E+00 0.  1.
     999901    1    3    3    0    0 -0.78692310310E-01 -0.63489415913E-01  0.57699553598E-01  0.88766695563E+00  0.88000000000E+00 0. -1.
        -11    1    4    4    0    0  0.41235171625E-01  0.31108278308E-01 -0.79296525055E-02  0.52260930609E-01  0.51100000000E-03 0.  1.
         11    1    4    4    0    0  0.55027906821E-01  0.43755108739E-01 -0.36449821587E-01  0.79192365065E-01  0.51100000000E-03 0. -1.
</event>
<event>
 8    1  0.1106905E+005  0.1043930E+01  0.7957747E-01            NaN
         13   -1    0    0    0    0  0.00000000000E+00  0.00000000000E+00  0.74505805969E-08  0.10566000000E+00  0.10566000000E+00 0.  1.
     999900   -1    0    0    0    0 -0.00000000000E+00 -0.00000000000E+00 -0.74505805969E-08  0.93827000000E+00  0.93827000000E+00 0. -1.
     999902    2    1    2    0    0 -0.21377546804E-01 -0.73233148158E-02 -0.68127089869E-02  0.10203282320E+01  0.10200552228E+01 0.  0.
     999903    2    3    3    0    0 -0.12244588146E+00 -0.34223179248E-01 -0.35870209716E-01  0.13365876187E+00  0.20341405908E-01 0.  0.
         14    1    1    2    0    0  0.21377546804E-01  0.73233148158E-02  0.68127089869E-02  0.23601767964E-01  0.00000000000E+00 0.  1.
     999901    1    3    3    0    0  0.10106833466E+00  0.26899864432E-01  0.29057500729E-01  0.88666947017E+00  0.88000000000E+00 0. -1.
        -11    1    4    4    0    0 -0.12144598499E-01 -0.59475181630E-02  0.19524572477E-02  0.13672507279E-01  0.51100000000E-03 0. -1.
         11    1    4    4    0    0 -0.11030128296E+00 -0.28275661085E-01 -0.37822666964E-01  0.11998625459E+00  0.51100000000E-03 0.  1.
</event>
<event>
 8    1  0.1106905E+005  0.1043930E+01  0.7957747E-01            NaN
         13   -1    0    0    0    0  0.00000000000E+00  0.00000000000E+00  0.74505805969E-08  0.10566000000E+00  0.10566000000E+00 0. -1.
     999900   -1    0    0    0    0 -0.00000000000E+00 -0.00000000000E+00 -0.74505805969E-08  0.93827000000E+00  0.93827000000E+00 0. -1.
     999902    2    1    2    0    0 -0.21102234297E-01 -0.10870249843E-02 -0.31744527743E-01  0.10057960131E+01  0.10050728426E+01 0.  0.
     999903    2    3    3    0    0 -0.91754600013E-02 -0.48773986262E-01 -0.10855932519E+00  0.12108317419E+00  0.20320363746E-01 0.  0.
         14    1    1    2    0    0  0.21102234297E-01  0.10870249843E-02  0.31744527743E-01  0.38133986905E-01  0.00000000000E+00 0.  1.
     999901    1    3    3    0    0 -0.11926774296E-01  0.47686961277E-01  0.76814797450E-01  0.88471283891E+00  0.88000000000E+00 0.  1.
        -11    1    4    4    0    0 -0.12002793337E-01 -0.47910710570E-01 -0.93678027603E-01  0.10590248917E+00  0.51100000000E-03 0.  1.
         11    1    4    4    0    0  0.28273333362E-02 -0.86327569214E-03 -0.14881297590E-01  0.15180685020E-01  0.51100000000E-03 0. -1.
</event>
<event>
 7    1  0.1106905E+005  0.1043930E+01  0.7957747E-01            NaN
         13   -1    0    0    0    0  0.00000000000E+00  0.00000000000E+00  0.74505805969E-08  0.10566000000E+00  0.10566000000E+00 0.  1.
     999900   -1    0    0    0    0 -0.00000000000E+00 -0.00000000000E+00 -0.74505805969E-08  0.93827000000E+00  0.93827000000E+00 0. -1.
     999902    2    1    2    0    0 -0.65893795391E-02  0.12267734771E-01 -0.37014698440E-02  0.10295210404E+01  0.10294202030E+01 0.  0.
         14    1    1    2    0    0  0.65893795391E-02 -0.12267734771E-01  0.37014698440E-02  0.14408959647E-01  0.00000000000E+00 0. -1.
     999901    1    3    3    0    0  0.92915057777E-01 -0.25330587088E-01 -0.93567645783E-01  0.89018523406E+00  0.88000000000E+00 0. -1.
        -11    1    3    3    0    0 -0.90708820870E-02  0.22310961424E-02  0.70991530447E-02  0.11743840376E-01  0.51100000000E-03 0.  1.
         11    1    3    3    0    0 -0.90433555229E-01  0.35367225717E-01  0.82767022894E-01  0.12759196591E+00  0.51100000000E-03 0. -1.
</event>
<event>
 8    1  0.1106905E+005  0.1043930E+01  0.7957747E-01            NaN
         13   -1    0    0    0    0  0.00000000000E+00  0.00000000000E+00  0.74505805969E-08  0.10566000000E+00  0.10566000000E+00 0.  1.
     999900   -1    0    0    0    0 -0.00000000000E+00 -0.00000000000E+00 -0.74505805969E-08  0.93827000000E+00  0.93827000000E+00 0.  1.
     999902    2    1    2    0    0  0.20946819518E-01  0.58354478627E-02 -0.93178066598E-02  0.10202732204E+01  0.10199989221E+01 0.  0.
     999903    2    3    3    0    0  0.98007625234E-01  0.70080892843E-01 -0.52827986104E-01  0.13350437753E+00  0.22711154948E-01 0.  0.
         14    1    1    2    0    0 -0.20946819518E-01 -0.58354478627E-02  0.93178066598E-02  0.23656779591E-01  0.00000000000E+00 0. -1.
     999901    1    3    3    0    0 -0.77060805716E-01 -0.64245444981E-01  0.43510179444E-01  0.88676884287E+00  0.88000000000E+00 0. -1.
        -11    1    4    4    0    0  0.10110553111E-01  0.28039897597E-02 -0.10903729505E-01  0.15140610321E-01  0.51100000000E-03 0. -1.
         11    1    4    4    0    0  0.87897072123E-01  0.67276903084E-01 -0.41924256599E-01  0.11836376721E+00  0.51100000000E-03 0.  1.
</event>
<event>
 8    1  0.1106905E+005  0.1043930E+01  0.7957747E-01            NaN
         13   -1    0    0    0    0  0.00000000000E+00  0.00000000000E+00  0.74505805969E-08  0.10566000000E+00  0.10566000000E+00 0.  1.
     999900   -1    0    0    0    0 -0.00000000000E+00 -0.00000000000E+00 -0.74505805969E-08  0.93827000000E+00  0.93827000000E+00 0.  1.
     999902    2    1    2    0    0 -0.17503660708E-01 -0.44459164001E-02  0.18120405697E-01  0.10183469311E+01  0.10180255295E+01 0.  0.
     999903    2    3    3    0    0 -0.11866678009E+00 -0.35638916498E-01 -0.34914139077E-01  0.13041695476E+00  0.20920036210E-01 0.  0.
         14    1    1    2    0    0  0.17503660708E-01  0.44459164001E-02 -0.18120405697E-01  0.25583068883E-01  0.00000000000E+00 0. -1.
     999901    1    3    3    0    0  0.10116311938E+00  0.31193000098E-01  0.53034544774E-01  0.88792997636E+00  0.88000000000E+00 0.  1.
        -11    1    4    4    0    0 -0.76501112493E-01 -0.16160650567E-01 -0.13826107538E-01  0.79404088119E-01  0.51100000000E-03 0. -1.
         11    1    4    4    0    0 -0.42165667596E-01 -0.19478265931E-01 -0.21088031539E-01  0.51012866639E-01  0.51100000000E-03 0.  1.
</event>
<event>
 8    1  0.1106905E+005  0.1043930E+01  0.7957747E-01            NaN
         13   -1    0    0    0    0  0.00000000000E+00  0.00000000000E+00  0.74505805969E-08  0.10566000000E+00  0.10566000000E+00 0.  1.
     999900   -1    0    0    0    0 -0.00000000000E+00 -0.00000000000E+00 -0.74505805969E-08  0.93827000000E+00  0.93827000000E+00 0.  1.
     999902    2    1    2    0    0 -0.42449591974E-02 -0.21527934176E-01  0.42753296756E-02  0.10215749095E+01  0.10213302823E+01 0.  0.
     999903    2    3    3    0    0  0.41319805643E-02  0.10934381513E+00 -0.65371383641E-01  0.12913541429E+00  0.20721830386E-01 0.  0.
         14    1    1    2    0    0  0.42449591974E-02  0.21527934176E-01 -0.42753296756E-02  0.22355090523E-01  0.00000000000E+00 0. -1.
     999901    1    3    3    0    0 -0.83769397617E-02 -0.13087174931E+00  0.69646713316E-01  0.89243949518E+00  0.88000000000E+00 0. -1.
        -11    1    4    4    0    0  0.22758700159E-04  0.39481577506E-01 -0.12473750746E-01  0.41408345282E-01  0.51100000000E-03 0. -1.
         11    1    4    4    0    0  0.41092218642E-02  0.69862237627E-01 -0.52897632895E-01  0.87727069012E-01  0.51100000000E-03 0.  1.
</event>
<event>
 8    1  0.1106905E+005  0.1043930E+01  0.7957747E-01            NaN
         13   -1    0    0    0    0  0.00000000000E+00  0.00000000000E+00  0.74505805969E-08  0.10566000000E+00  0.10566000000E+00 0. -1.
     999900   -1    0    0    0    0 -0.00000000000E+00 -0.00000000000E+00 -0.74505805969E-08  0.93827000000E+00  0.93827000000E+00 0.  1.
     999902    2    1    2    0    0 -0.19491321143E-01 -0.79549683743E-02 -0.10678072998E-01  0.10203246115E+01  0.10200515176E+01 0.  0.
     999903    2    3    3    0    0  0.25612501968E-01 -0.25458903367E-01  0.12206458889E+00  0.12905509176E+00  0.21243748035E-01 0.  0.
         14    1    1    2    0    0  0.19491321143E-01  0.79549683743E-02  0.10678072998E-01  0.23605388467E-01  0.00000000000E+00 0.  1.
     999901    1    3    3    0    0 -0.45103823111E-01  0.17503934993E-01 -0.13274266188E+00  0.89126951978E+00  0.88000000000E+00 0.  1.
        -11    1    4    4    0    0  0.15595151885E-01 -0.13184365266E-02  0.50061393349E-01  0.52453324606E-01  0.51100000000E-03 0.  1.
         11    1    4    4    0    0  0.10017350083E-01 -0.24140466841E-01  0.72003195537E-01  0.76601767150E-01  0.51100000000E-03 0. -1.
</event>
<event>
 8    1  0.1106905E+005  0.1043930E+01  0.7957747E-01            NaN
         13   -1    0    0    0    0  0.00000000000E+00  0.00000000000E+00  0.74505805969E-08  0.10566000000E+00  0.10566000000E+00 0. -1.
     999900   -1    0    0    0    0 -0.00000000000E+00 -0.00000000000E+00 -0.74505805969E-08  0.93827000000E+00  0.93827000000E+00 0.  1.
     999902    2    1    2    0    0  0.14261395534E-01 -0.17325719214E-01  0.38796794416E-02  0.10211567731E+01  0.10209028041E+01 0.  0.
     999903    2    3    3    0    0 -0.81821187403E-01 -0.43769113316E-01 -0.89535004884E-01  0.13061905969E+00  0.20841776947E-01 0.  0.
         14    1    1    2    0    0 -0.14261395534E-01  0.17325719214E-01 -0.38796794416E-02  0.22773226856E-01  0.00000000000E+00 0.  1.
     999901    1    3    3    0    0  0.96082582937E-01  0.26443394102E-01  0.93414684326E-01  0.89053771345E+00  0.88000000000E+00 0. -1.
        -11    1    4    4    0    0 -0.30274918877E-01 -0.51997136773E-02 -0.29217227643E-01  0.42397113669E-01  0.51100000000E-03 0.  1.
         11    1    4    4    0    0 -0.51546268526E-01 -0.38569399639E-01 -0.60317777241E-01  0.88221946021E-01  0.51100000000E-03 0. -1.
</event>
<event>
 8    1  0.1114296E+005  0.1043930E+01  0.7957747E-01            NaN
         13   -1    0    0    0    0  0.00000000000E+00  0.00000000000E+00  0.74505805969E-08  0.10566000000E+00  0.10566000000E+00 0. -1.
     999900   -1    0    0    0    0 -0.00000000000E+00 -0.00000000000E+00 -0.74505805969E-08  0.93827000000E+00  0.93827000000E+00 0. -1.
     999902    2    1    2    0    0 -0.81763430381E-02 -0.25013142722E-02 -0.22755619180E-01  0.10196210024E+01  0.10193311833E+01 0.  0.
     999903    2    3    3    0    0 -0.25925141634E-01  0.10536570892E+00 -0.71282571307E-01  0.13153025277E+00  0.21094000060E-01 0.  0.
         14    1    1    2    0    0  0.81763430381E-02  0.25013142722E-02  0.22755619180E-01  0.24308997569E-01  0.00000000000E+00 0. -1.
     999901    1    3    3    0    0  0.17748798596E-01 -0.10786702319E+00  0.48526952127E-01  0.88809074966E+00  0.88000000000E+00 0.  1.
        -11    1    4    4    0    0 -0.45328851085E-02  0.61947672592E-01 -0.38835711397E-01  0.73256636476E-01  0.51100000000E-03 0.  1.
         11    1    4    4    0    0 -0.21392256526E-01  0.43418036324E-01 -0.32446859910E-01  0.58273616299E-01  0.51100000000E-03 0. -1.
</event>
<event>
 8    1  0.1106905E+005  0.1043930E+01  0.7957747E-01            NaN
         13   -1    0    0    0    0  0.00000000000E+00  0.00000000000E+00  0.74505805969E-08  0.10566000000E+00  0.10566000000E+00 0.  1.
     999900   -1    0    0    0    0 -0.00000000000E+00 -0.00000000000E+00 -0.74505805969E-08  0.93827000000E+00  0.93827000000E+00 0.  1.
     999902    2    1    2    0    0 -0.13072858718E-01  0.19441949550E-01 -0.17841074198E-02  0.10204337859E+01  0.10201632415E+01 0.  0.
     999903    2    3    3    0    0  0.99970777431E-01  0.24185077542E-01  0.76158881509E-01  0.12977309268E+00  0.21489672762E-01 0.  0.
         14    1    1    2    0    0  0.13072858718E-01 -0.19441949550E-01  0.17841074198E-02  0.23496214092E-01  0.00000000000E+00 0.  1.
     999901    1    3    3    0    0 -0.11304363615E+00 -0.47431279918E-02 -0.77942988929E-01  0.89066069323E+00  0.88000000000E+00 0.  1.
        -11    1    4    4    0    0  0.46340513944E-01  0.16360045272E-01  0.24569601665E-01  0.54945616394E-01  0.51100000000E-03 0.  1.
         11    1    4    4    0    0  0.53630263487E-01  0.78250322691E-02  0.51589279844E-01  0.74827476288E-01  0.51100000000E-03 0. -1.
</event>
<event>
 8    1  0.1106905E+005  0.1043930E+01  0.7957747E-01            NaN
         13   -1    0    0    0    0  0.00000000000E+00  0.00000000000E+00  0.74505805969E-08  0.10566000000E+00  0.10566000000E+00 0.  1.
     999900   -1    0    0    0    0 -0.00000000000E+00 -0.00000000000E+00 -0.74505805969E-08  0.93827000000E+00  0.93827000000E+00 0.  1.
     999902    2    1    2    0    0 -0.13801419145E-01  0.16356519204E-01  0.63850361400E-02  0.10215965368E+01  0.10213523880E+01 0.  0.
     999903    2    3    3    0    0  0.25913668658E-01  0.12188809406E+00  0.42829215711E-01  0.13365375730E+00  0.22377654601E-01 0.  0.
         14    1    1    2    0    0  0.13801419145E-01 -0.16356519204E-01 -0.63850361400E-02  0.22333463175E-01  0.00000000000E+00 0.  1.
     999901    1    3    3    0    0 -0.39715087803E-01 -0.10553157485E+00 -0.36444179571E-01  0.88794277953E+00  0.88000000000E+00 0. -1.
        -11    1    4    4    0    0  0.27287231348E-01  0.77101244263E-01  0.27061853659E-01  0.86149868868E-01  0.51100000000E-03 0. -1.
         11    1    4    4    0    0 -0.13735626900E-02  0.44786849793E-01  0.15767362052E-01  0.47503888430E-01  0.51100000000E-03 0.  1.
</event>
<event>
 8    1  0.1106905E+005  0.1043930E+01  0.7957747E-01            NaN
         13   -1    0    0    0    0  0.00000000000E+00  0.00000000000E+00  0.74505805969E-08  0.10566000000E+00  0.10566000000E+00 0. -1.
     999900   -1    0    0    0    0 -0.00000000000E+00 -0.00000000000E+00 -0.74505805969E-08  0.93827000000E+00  0.93827000000E+00 0. -1.
     999902    2    1    2    0    0 -0.10796719954E-01 -0.22303890466E-01 -0.12793197570E-01  0.10160427521E+01  0.10156599704E+01 0.  0.
     999903    2    3    3    0    0  0.45092478115E-01 -0.38389128188E-01 -0.11236066785E+00  0.12852034760E+00  0.19634238537E-01 0.  0.
         14    1    1    2    0    0  0.10796719954E-01  0.22303890466E-01  0.12793197570E-01  0.27887247906E-01  0.00000000000E+00 0. -1.
     999901    1    3    3    0    0 -0.55889198069E-01  0.16085237722E-01  0.99567470280E-01  0.88752240449E+00  0.88000000000E+00 0.  1.
        -11    1    4    4    0    0  0.26064699449E-01 -0.32727059586E-01 -0.66834843204E-01  0.78851673246E-01  0.51100000000E-03 0.  1.
         11    1    4    4    0    0  0.19027778666E-01 -0.56620686019E-02 -0.45525824646E-01  0.49668674358E-01  0.51100000000E-03 0. -1.
</event>
<event>
 8    1  0.1106905E+005  0.1043930E+01  0.7957747E-01            NaN
         13   -1    0    0    0    0  0.00000000000E+00  0.00000000000E+00  0.74505805969E-08  0.10566000000E+00  0.10566000000E+00 0. -1.
     999900   -1    0    0    0    0 -0.00000000000E+00 -0.00000000000E+00 -0.74505805969E-08  0.93827000000E+00  0.93827000000E+00 0.  1.
     999902    2    1    2    0    0 -0.16676493983E-01 -0.18269428463E-01 -0.11551908076E-02  0.10191668836E+01  0.10188659994E+01 0.  0.
     999903    2    3    3    0    0 -0.93124847213E-01  0.87725076647E-01 -0.22565507703E-02  0.12951504225E+00  0.20028177819E-01 0.  0.
         14    1    1    2    0    0  0.16676493983E-01  0.18269428463E-01  0.11551908076E-02  0.24763116398E-01  0.00000000000E+00 0.  1.
     999901    1    3    3    0    0  0.76448353230E-01 -0.10599450511E+00  0.11013599627E-02  0.88965184135E+00  0.88000000000E+00 0. -1.
        -11    1    4    4    0    0 -0.21137538094E-01  0.30453267672E-01 -0.54259782732E-02  0.37468645423E-01  0.51100000000E-03 0. -1.
         11    1    4    4    0    0 -0.71987309118E-01  0.57271808976E-01  0.31694275029E-02  0.92046396829E-01  0.51100000000E-03 0.  1.
</event>
<event>
 8    1  0.1106905E+005  0.1043930E+01  0.7957747E-01            NaN
         13   -1    0    0    0    0  0.00000000000E+00  0.00000000000E+00  0.74505805969E-08  0.10566000000E+00  0.10566000000E+00 0.  1.
     999900   -1    0    0    0    0 -0.00000000000E+00 -0.00000000000E+00 -0.74505805969E-08  0.93827000000E+00  0.93827000000E+00 0. -1.
     999902    2    1    2    0    0  0.74230124291E-02 -0.11082567032E-02  0.21756176768E-01  0.10209156442E+01  0.10206562065E+01 0.  0.
     999903    2    3    3    0    0  0.10196000424E-01 -0.81347066727E-01  0.10282135919E+00  0.13355015020E+00  0.23283191883E-01 0.  0.
         14    1    1    2    0    0 -0.74230124291E-02  0.11082567032E-02 -0.21756176768E-01  0.23014355824E-01  0.00000000000E+00 0. -1.
     999901    1    3    3    0    0 -0.27729879949E-02  0.80238810024E-01 -0.81065182417E-01  0.88736549397E+00  0.88000000000E+00 0. -1.
        -11    1    4    4    0    0  0.14994180454E-01 -0.51594556700E-01  0.54027940156E-01  0.76197789778E-01  0.51100000000E-03 0.  1.
         11    1    4    4    0    0 -0.47981800304E-02 -0.29752510027E-01  0.48793419029E-01  0.57352360423E-01  0.51100000000E-03 0. -1.
</event>
<event>
 8    1  0.1171912E+005  0.1043930E+01  0.7957747E-01            NaN
         13   -1    0    0    0    0  0.00000000000E+00  0.00000000000E+00  0.74505805969E-08  0.10566000000E+00  0.10566000000E+00 0.  1.
     999900   -1    0    0    0    0 -0.00000000000E+00 -0.00000000000E+00 -0.74505805969E-08  0.93827000000E+00  0.93827000000E+00 0. -1.
     999902    2    1    2    0    0 -0.14151267391E-01 -0.75550424171E-03  0.18865806717E-01  0.10203344958E+01  0.10200616332E+01 0.  0.
     999903    2    3    3    0    0  0.21487312122E-01 -0.81058712237E-01  0.10032365992E+00  0.13221620671E+00  0.19597682644E-01 0.  0.
         14    1    1    2    0    0  0.14151267391E-01  0.75550424171E-03 -0.18865806717E-01  0.23595504201E-01  0.00000000000E+00 0. -1.
     999901    1    3    3    0    0 -0.35638579513E-01  0.80303207995E-01 -0.81457853205E-01  0.88811828909E+00  0.88000000000E+00 0. -1.
        -11    1    4    4    0    0 -0.25477456414E-02 -0.24194892995E-01  0.30354308900E-01  0.38904100616E-01  0.51100000000E-03 0. -1.
         11    1    4    4    0    0  0.24035057764E-01 -0.56863819242E-01  0.69969351022E-01  0.93312106095E-01  0.51100000000E-03 0.  1.
</event>
<event>
 8    1  0.1106905E+005  0.1043930E+01  0.7957747E-01            NaN
         13   -1    0    0    0    0  0.00000000000E+00  0.00000000000E+00  0.74505805969E-08  0.10566000000E+00  0.10566000000E+00 0.  1.
     999900   -1    0    0    0    0 -0.00000000000E+00 -0.00000000000E+00 -0.74505805969E-08  0.93827000000E+00  0.93827000000E+00 0. -1.
     999902    2    1    2    0    0 -0.77117009021E-02 -0.62588088658E-02  0.20471915153E-01  0.10211760481E+01  0.10209225136E+01 0.  0.
     999903    2    3    3    0    0  0.50878664121E-01 -0.11304626938E+00  0.42217797364E-01  0.13252016640E+00  0.20276947628E-01 0.  0.
         14    1    1    2    0    0  0.77117009021E-02  0.62588088658E-02 -0.20471915153E-01  0.22753951948E-01  0.00000000000E+00 0. -1.
     999901    1    3    3    0    0 -0.58590365023E-01  0.10678746052E+00 -0.21745882211E-01  0.88865588165E+00  0.88000000000E+00 0.  1.
        -11    1    4    4    0    0  0.26104752689E-01 -0.45963090138E-01  0.88185300457E-02  0.53591896413E-01  0.51100000000E-03 0. -1.
         11    1    4    4    0    0  0.24773911433E-01 -0.67083179244E-01  0.33399267318E-01  0.78928269990E-01  0.51100000000E-03 0.  1.
</event>
<event>
 7    1  0.1106905E+005  0.1043930E+01  0.7957747E-01            NaN
         13   -1    0    0    0    0  0.00000000000E+00  0.00000000000E+00  0.74505805969E-08  0.10566000000E+00  0.10566000000E+00 0. -1.
     999900   -1    0    0    0    0 -0.00000000000E+00 -0.00000000000E+00 -0.74505805969E-08  0.93827000000E+00  0.93827000000E+00 0.  1.
     999903    2    1    2    0    0 -0.24226984317E-01 -0.86791008849E-01  0.66571487756E-01  0.11339502070E+00  0.17522606837E-01 0.  0.
         14    1    1    2    0    0  0.35441185852E-01 -0.19097045727E-01  0.77794223697E-02  0.41003587922E-01  0.00000000000E+00 0. -1.
     999901    1    1    2    0    0 -0.11214201535E-01  0.10588805458E+00 -0.74350910126E-01  0.88953139138E+00  0.88000000000E+00 0.  1.
        -11    1    3    3    0    0 -0.21121861643E-01 -0.43188065292E-01  0.35179892373E-01  0.59575397366E-01  0.51100000000E-03 0.  1.
         11    1    3    3    0    0 -0.31051226739E-02 -0.43602943557E-01  0.31391595383E-01  0.53819623329E-01  0.51100000000E-03 0. -1.
</event>
<event>
 8    1  0.1106905E+005  0.1043930E+01  0.7957747E-01            NaN
         13   -1    0    0    0    0  0.00000000000E+00  0.00000000000E+00  0.74505805969E-08  0.10566000000E+00  0.10566000000E+00 0. -1.
     999900   -1    0    0    0    0 -0.00000000000E+00 -0.00000000000E+00 -0.74505805969E-08  0.93827000000E+00  0.93827000000E+00 0.  1.
     999902    2    1    2    0    0  0.14444201408E-01 -0.18145288868E-01 -0.67147724665E-02  0.10197851324E+01  0.10194992602E+01 0.  0.
     999903    2    3    3    0    0 -0.56319871669E-01 -0.37178950537E-01  0.10854758231E+00  0.12924863974E+00  0.19194554981E-01 0.  0.
         14    1    1    2    0    0 -0.14444201408E-01  0.18145288868E-01  0.67147724665E-02  0.24144867606E-01  0.00000000000E+00 0.  1.
     999901    1    3    3    0    0  0.70764073077E-01  0.19033661669E-01 -0.11526235478E+00  0.89053649265E+00  0.88000000000E+00 0.  1.
        -11    1    4    4    0    0 -0.41422322992E-01 -0.25587573274E-01  0.92223877914E-01  0.10428824251E+00  0.51100000000E-03 0.  1.
         11    1    4    4    0    0 -0.14897548677E-01 -0.11591377263E-01  0.16323704401E-01  0.24960397229E-01  0.51100000000E-03 0. -1.
</event>
<event>
 8    1  0.1106905E+005  0.1043930E+01  0.7957747E-01            NaN
         13   -1    0    0    0    0  0.00000000000E+00  0.00000000000E+00  0.74505805969E-08  0.10566000000E+00  0.10566000000E+00 0. -1.
     999900   -1    0    0    0    0 -0.00000000000E+00 -0.00000000000E+00 -0.74505805969E-08  0.93827000000E+00  0.93827000000E+00 0. -1.
     999902    2    1    2    0    0 -0.23028922450E-01  0.52512794640E-02 -0.53881633169E-02  0.10197031655E+01  0.10194153257E+01 0.  0.
     999903    2    3    3    0    0  0.42514491386E-01  0.11035604169E+00  0.48815307499E-01  0.12937683973E+00  0.19222239666E-01 0.  0.
         14    1    1    2    0    0  0.23028922450E-01 -0.52512794640E-02  0.53881633169E-02  0.24226834485E-01  0.00000000000E+00 0. -1.
     999901    1    3    3    0    0 -0.65543413837E-01 -0.10510476222E+00 -0.54203470816E-01  0.89032632579E+00  0.88000000000E+00 0. -1.
        -11    1    4    4    0    0  0.20271693066E-01  0.62781339776E-01  0.36630488846E-01  0.75461857901E-01  0.51100000000E-03 0.  1.
         11    1    4    4    0    0  0.22242798320E-01  0.47574701910E-01  0.12184818653E-01  0.53914981828E-01  0.51100000000E-03 0. -1.
</event>
<event>
 8    1  0.1106905E+005  0.1043930E+01  0.7957747E-01            NaN
         13   -1    0    0    0    0  0.00000000000E+00  0.00000000000E+00  0.74505805969E-08  0.10566000000E+00  0.10566000000E+00 0.  1.
     999900   -1    0    0    0    0 -0.00000000000E+00 -0.00000000000E+00 -0.74505805969E-08  0.93827000000E+00  0.93827000000E+00 0.  1.
     999902    2    1    2    0    0  0.14471285366E-01 -0.92938458428E-02  0.13811734435E-01  0.10218719475E+01  0.10216338480E+01 0.  0.
     999903    2    3    3    0    0 -0.85067248307E-01  0.95617502311E-01 -0.81982393979E-02  0.12979641844E+00  0.20018881768E-01 0.  0.
         14    1    1    2    0    0 -0.14471285366E-01  0.92938458428E-02 -0.13811734435E-01  0.22058052470E-01  0.00000000000E+00 0. -1.
     999901    1    3    3    0    0  0.99538533673E-01 -0.10491134815E+00  0.22009973833E-01  0.89207552909E+00  0.88000000000E+00 0. -1.
        -11    1    4    4    0    0 -0.61371056230E-01  0.55105521481E-01 -0.25464914753E-02  0.82521335303E-01  0.51100000000E-03 0. -1.
         11    1    4    4    0    0 -0.23696192078E-01  0.40511980830E-01 -0.56517479226E-02  0.47275083134E-01  0.51100000000E-03 0.  1.
</event>
<event>
 8    1  0.1106905E+005  0.1043930E+01  0.7957747E-01            NaN
         13   -1    0    0    0    0  0.00000000000E+00  0.00000000000E+00  0.74505805969E-08  0.10566000000E+00  0.10566000000E+00 0.  1.
     999900   -1    0    0    0    0 -0.00000000000E+00 -0.00000000000E+00 -0.74505805969E-08  0.93827000000E+00  0.93827000000E+00 0.  1.
     999902    2    1    2    0    0 -0.28229398638E-02  0.12498293180E-03 -0.20000708424E-01  0.10237306696E+01  0.10235313727E+01 0.  0.
     999903    2    3    3    0    0  0.10955524126E+00 -0.69725716128E-01  0.20381101786E-01  0.13292279676E+00  0.19724457223E-01 0.  0.
         14    1    1    2    0    0  0.28229398638E-02 -0.12498293180E-03  0.20000708424E-01  0.20199330376E-01  0.00000000000E+00 0.  1.
     999901    1    3    3    0    0 -0.11237818112E+00  0.69850699059E-01 -0.40381810209E-01  0.89080787286E+00  0.88000000000E+00 0.  1.
        -11    1    4    4    0    0  0.48754791303E-01 -0.22681220652E-01  0.15147208213E-01  0.55867400897E-01  0.51100000000E-03 0.  1.
         11    1    4    4    0    0  0.60800449957E-01 -0.47044495475E-01  0.52338935728E-02  0.77055395868E-01  0.51100000000E-03 0. -1.
</event>
<event>
 8    1  0.1106905E+005  0.1043930E+01  0.7957747E-01            NaN
         13   -1    0    0    0    0  0.00000000000E+00  0.00000000000E+00  0.74505805969E-08  0.10566000000E+00  0.10566000000E+00 0.  1.
     999900   -1    0    0    0    0 -0.00000000000E+00 -0.00000000000E+00 -0.74505805969E-08  0.93827000000E+00  0.93827000000E+00 0. -1.
     999902    2    1    2    0    0 -0.20682091653E-01  0.12413427522E-02 -0.11892740072E-01  0.10200401044E+01  0.10197603088E+01 0.  0.
     999903    2    3    3    0    0  0.99144939917E-02 -0.12298256931E+00  0.36288929900E-01  0.12948454478E+00  0.15044977868E-01 0.  0.
         14    1    1    2    0    0  0.20682091653E-01 -0.12413427522E-02  0.11892740072E-01  0.23889895634E-01  0.00000000000E+00 0.  1.
     999901    1    3    3    0    0 -0.30596585644E-01  0.12422391206E+00 -0.48181669972E-01  0.89055555958E+00  0.88000000000E+00 0. -1.
        -11    1    4    4    0    0  0.46202815023E-02 -0.73990072901E-01  0.29278547959E-01  0.79708044642E-01  0.51100000000E-03 0. -1.
         11    1    4    4    0    0  0.52942124895E-02 -0.48992496411E-01  0.70103819407E-02  0.49776500143E-01  0.51100000000E-03 0.  1.
</event>
<event>
 8    1  0.1106905E+005  0.1043930E+01  0.7957747E-01            NaN
         13   -1    0    0    0    0  0.00000000000E+00  0.00000000000E+00  0.74505805969E-08  0.10566000000E+00  0.10566000000E+00 0. -1.
     999900   -1    0    0    0    0 -0.00000000000E+00 -0.00000000000E+00 -0.74505805969E-08  0.93827000000E+00  0.93827000000E+00 0. -1.
     999902    2    1    2    0    0  0.10748410596E-01 -0.72440979633E-02  0.19518492596E-01  0.10204997452E+01  0.10202307353E+01 0.  0.
     999903    2    3    3    0    0  0.75581219811E-01 -0.39759918039E-01  0.10101693090E+00  0.13376271140E+00  0.19866322343E-01 0.  0.
         14    1    1    2    0    0 -0.10748410596E-01  0.72440979633E-02 -0.19518492596E-01  0.23430254776E-01  0.00000000000E+00 0. -1.
     999901    1    3    3    0    0 -0.64832809215E-01  0.32515820075E-01 -0.81498438301E-01  0.88673703382E+00  0.88000000000E+00 0.  1.
        -11    1    4    4    0    0  0.42567279695E-01 -0.23288525362E-01  0.42082270400E-01  0.64230112231E-01  0.51100000000E-03 0. -1.
         11    1    4    4    0    0  0.33013940115E-01 -0.16471392676E-01  0.58934660497E-01  0.69532599171E-01  0.51100000000E-03 0.  1.
</event>
<event>
 8    1  0.1106905E+005  0.1043930E+01  0.7957747E-01            NaN
         13   -1    0    0    0    0  0.00000000000E+00  0.00000000000E+00  0.74505805969E-08  0.10566000000E+00  0.10566000000E+00 0. -1.
     999900   -1    0    0    0    0 -0.00000000000E+00 -0.00000000000E+00 -0.74505805969E-08  0.93827000000E+00  0.93827000000E+00 0. -1.
     999902    2    1    2    0    0  0.35842611460E-02  0.14375316647E-01  0.18384322378E-01  0.10203189863E+01  0.10200457607E+01 0.  0.
     999903    2    3    3    0    0 -0.63340703308E-01 -0.35444204321E-01 -0.10346036737E+00  0.12801463022E+00  0.20380422413E-01 0.  0.
         14    1    1    2    0    0 -0.35842611460E-02 -0.14375316647E-01 -0.18384322378E-01  0.23611013658E-01  0.00000000000E+00 0.  1.
     999901    1    3    3    0    0  0.66924964454E-01  0.49819520967E-01  0.12184468975E+00  0.89230435612E+00  0.88000000000E+00 0.  1.
        -11    1    4    4    0    0 -0.11185625896E-01 -0.25345649802E-02 -0.29862160144E-01  0.31992998856E-01  0.51100000000E-03 0. -1.
         11    1    4    4    0    0 -0.52155077412E-01 -0.32909639340E-01 -0.73598207228E-01  0.96021631363E-01  0.51100000000E-03 0.  1.
</event>
<event>
 8    1  0.1106905E+005  0.1043930E+01  0.7957747E-01            NaN
         13   -1    0    0    0    0  0.00000000000E+00  0.00000000000E+00  0.74505805969E-08  0.10566000000E+00  0.10566000000E+00 0.  1.
     999900   -1    0    0    0    0 -0.00000000000E+00 -0.00000000000E+00 -0.74505805969E-08  0.93827000000E+00  0.93827000000E+00 0.  1.
     999902    2    1    2    0    0  0.32898352557E-02  0.13350825078E-01  0.19501568656E-01  0.10200683419E+01  0.10197892152E+01 0.  0.
     999903    2    3    3    0    0 -0.44260237219E-01 -0.11042794893E+00  0.47578813400E-01  0.12969172163E+00  0.20072335951E-01 0.  0.
         14    1    1    2    0    0 -0.32898352557E-02 -0.13350825078E-01 -0.19501568656E-01  0.23861658080E-01  0.00000000000E+00 0. -1.
     999901    1    3    3    0    0  0.47550072474E-01  0.12377877401E+00 -0.28077244744E-01  0.89037662029E+00  0.88000000000E+00 0. -1.
        -11    1    4    4    0    0 -0.26069060939E-02 -0.15100608213E-01  0.12884643885E-01  0.20027468557E-01  0.51100000000E-03 0. -1.
         11    1    4    4    0    0 -0.41653331125E-01 -0.95327340720E-01  0.34694169515E-01  0.10966425307E+00  0.51100000000E-03 0.  1.
</event>
<event>
 8    1  0.1106905E+005  0.1043930E+01  0.7957747E-01            NaN
         13   -1    0    0    0    0  0.00000000000E+00  0.00000000000E+00  0.74505805969E-08  0.10566000000E+00  0.10566000000E+00 0.  1.
     999900   -1    0    0    0    0 -0.00000000000E+00 -0.00000000000E+00 -0.74505805969E-08  0.93827000000E+00  0.93827000000E+00 0. -1.
     999902    2    1    2    0    0  0.20065530380E-01  0.63068341126E-03 -0.11930062695E-01  0.10205772771E+01  0.10203100651E+01 0.  0.
     999903    2    3    3    0    0  0.99240489963E-01 -0.73496854823E-01  0.42703087502E-01  0.13223705666E+00  0.20313122721E-01 0.  0.
         14    1    1    2    0    0 -0.20065530380E-01 -0.63068341126E-03  0.11930062695E-01  0.23352722901E-01  0.00000000000E+00 0.  1.
     999901    1    3    3    0    0 -0.79174959583E-01  0.74127538235E-01 -0.54633150197E-01  0.88834022044E+00  0.88000000000E+00 0. -1.
        -11    1    4    4    0    0  0.36867766530E-01 -0.16747898401E-01  0.18377071705E-01  0.44471363766E-01  0.51100000000E-03 0. -1.
         11    1    4    4    0    0  0.62372723433E-01 -0.56748956422E-01  0.24326015797E-01  0.87765692894E-01  0.51100000000E-03 0.  1.
</event>
<event>
 8    1  0.1106905E+005  0.1043930E+01  0.7957747E-01            NaN
         13   -1    0    0    0    0  0.00000000000E+00  0.00000000000E+00  0.74505805969E-08  0.10566000000E+00  0.10566000000E+00 0. -1.
     999900   -1    0    0    0    0 -0.00000000000E+00 -0.00000000000E+00 -0.74505805969E-08  0.93827000000E+00  0.93827000000E+00 0.  1.
     999902    2    1    2    0    0 -0.55749340535E-03 -0.10956386443E-01 -0.20820724851E-01  0.10203958591E+01  0.10201244304E+01 0.  0.
     999903    2    3    3    0    0 -0.47994741170E-01  0.10800903514E+00  0.46558059388E-01  0.12857582989E+00  0.19865655899E-01 0.  0.
         14    1    1    2    0    0  0.55749340535E-03  0.10956386443E-01  0.20820724851E-01  0.23534140862E-01  0.00000000000E+00 0. -1.
     999901    1    3    3    0    0  0.47437247765E-01 -0.11896542159E+00 -0.67378784239E-01  0.89182002925E+00  0.88000000000E+00 0.  1.
        -11    1    4    4    0    0 -0.26322792517E-01  0.74395835974E-01  0.23195133432E-01  0.82255122346E-01  0.51100000000E-03 0. -1.
         11    1    4    4    0    0 -0.21671948654E-01  0.33613199170E-01  0.23362925956E-01  0.46320707541E-01  0.51100000000E-03 0.  1.
</event>
<event>
 8    1  0.1106905E+005  0.1043930E+01  0.7957747E-01            NaN
         13   -1    0    0    0    0  0.00000000000E+00  0.00000000000E+00  0.74505805969E-08  0.10566000000E+00  0.10566000000E+00 0. -1.
     999900   -1    0    0    0    0 -0.00000000000E+00 -0.00000000000E+00 -0.74505805969E-08  0.93827000000E+00  0.93827000000E+00 0. -1.
     999902    2    1    2    0    0  0.24275422481E-02  0.72067620668E-02 -0.21858794891E-01  0.10207861608E+01  0.10205237619E+01 0.  0.
     999903    2    3    3    0    0  0.25667256747E-01  0.11837743026E+00 -0.48260736628E-01  0.13309473671E+00  0.26703673474E-01 0.  0.
         14    1    1    2    0    0 -0.24275422481E-02 -0.72067620668E-02  0.21858794891E-01  0.23143839244E-01  0.00000000000E+00 0. -1.
     999901    1    3    3    0    0 -0.23239714499E-01 -0.11117066819E+00  0.26401941737E-01  0.88769142405E+00  0.88000000000E+00 0.  1.
        -11    1    4    4    0    0  0.29046569217E-01  0.78622406108E-01 -0.37099668479E-01  0.91661510176E-01  0.51100000000E-03 0. -1.
         11    1    4    4    0    0 -0.33793124693E-02  0.39755024149E-01 -0.11161068149E-01  0.41433226535E-01  0.51100000000E-03 0.  1.
</event>
<event>
 8    1  0.1106905E+005  0.1043930E+01  0.7957747E-01            NaN
         13   -1    0    0    0    0  0.00000000000E+00  0.00000000000E+00  0.74505805969E-08  0.10566000000E+00  0.10566000000E+00 0.  1.
     999900   -1    0    0    0    0 -0.00000000000E+00 -0.00000000000E+00 -0.74505805969E-08  0.93827000000E+00  0.93827000000E+00 0. -1.
     999902    2    1    2    0    0  0.12239829027E-01  0.85360485233E-02  0.18791545830E-01  0.10199341726E+01  0.10196518605E+01 0.  0.
     999903    2    3    3    0    0 -0.88623480088E-01 -0.64560578748E-01  0.66765970754E-01  0.12986784387E+00  0.19641091384E-01 0.  0.
         14    1    1    2    0    0 -0.12239829027E-01 -0.85360485233E-02 -0.18791545830E-01  0.23995827422E-01  0.00000000000E+00 0. -1.
     999901    1    3    3    0    0  0.10086330911E+00  0.73096627271E-01 -0.47974424924E-01  0.89006632870E+00  0.88000000000E+00 0. -1.
        -11    1    4    4    0    0 -0.41754807365E-01 -0.41333322303E-01  0.40256108219E-01  0.71223049925E-01  0.51100000000E-03 0. -1.
         11    1    4    4    0    0 -0.46868672723E-01 -0.23227256446E-01  0.26509862535E-01  0.58644793950E-01  0.51100000000E-03 0.  1.
</event>
<event>
 8    1  0.1106905E+005  0.1043930E+01  0.7957747E-01            NaN
         13   -1    0    0    0    0  0.00000000000E+00  0.00000000000E+00  0.74505805969E-08  0.10566000000E+00  0.10566000000E+00 0.  1.
     999900   -1    0    0    0    0 -0.00000000000E+00 -0.00000000000E+00 -0.74505805969E-08  0.93827000000E+00  0.93827000000E+00 0.  1.
     999902    2    1    2    0    0  0.72760098751E-02 -0.21799759288E-01 -0.11468068635E-02  0.10209194591E+01  0.10206601085E+01 0.  0.
     999903    2    3    3    0    0 -0.12745157629E+00 -0.13015811697E-01  0.15181932932E-01  0.13047276902E+00  0.19476568341E-01 0.  0.
         14    1    1    2    0    0 -0.72760098751E-02  0.21799759288E-01  0.11468068635E-02  0.23010540861E-01  0.00000000000E+00 0. -1.
     999901    1    3    3    0    0  0.13472758616E+00 -0.87839475914E-02 -0.16328739795E-01  0.89044669012E+00  0.88000000000E+00 0.  1.
        -11    1    4    4    0    0 -0.65227932709E-01 -0.79865336343E-03 -0.13697358067E-03  0.65234967122E-01  0.51100000000E-03 0. -1.
         11    1    4    4    0    0 -0.62223643580E-01 -0.12217158333E-01  0.15318906513E-01  0.65237801893E-01  0.51100000000E-03 0.  1.
</event>
<event>
 8    1  0.1106905E+005  0.1043930E+01  0.7957747E-01            NaN
         13   -1    0    0    0    0  0.00000000000E+00  0.00000000000E+00  0.74505805969E-08  0.10566000000E+00  0.10566000000E+00 0.  1.
     999900   -1    0    0    0    0 -0.00000000000E+00 -0.00000000000E+00 -0.74505805969E-08  0.93827000000E+00  0.93827000000E+00 0. -1.
     999902    2    1    2    0    0  0.13341335242E-01 -0.39430984944E-02  0.19273469584E-01  0.10201601476E+01  0.10198831898E+01 0.  0.
     999903    2    3    3    0    0 -0.93676799636E-01  0.50722569392E-01 -0.67024000045E-01  0.12781017722E+00  0.22250909691E-01 0.  0.
         14    1    1    2    0    0 -0.13341335242E-01  0.39430984944E-02 -0.19273469584E-01  0.23769852368E-01  0.00000000000E+00 0.  1.
     999901    1    3    3    0    0  0.10701813488E+00 -0.54665667886E-01  0.86297469629E-01  0.89234997042E+00  0.88000000000E+00 0.  1.
        -11    1    4    4    0    0 -0.72745498752E-01  0.42845505981E-01 -0.42174442299E-01  0.94374730070E-01  0.51100000000E-03 0.  1.
         11    1    4    4    0    0 -0.20931300884E-01  0.78770634106E-02 -0.24849557746E-01  0.33435447146E-01  0.51100000000E-03 0. -1.
</event>
<event>
 8    1  0.1106905E+005  0.1043930E+01  0.7957747E-01            NaN
         13   -1    0    0    0    0  0.00000000000E+00  0.00000000000E+00  0.74505805969E-08  0.10566000000E+00  0.10566000000E+00 0.  1.
     999900   -1    0    0    0    0 -0.00000000000E+00 -0.00000000000E+00 -0.74505805969E-08  0.93827000000E+00  0.93827000000E+00 0.  1.
     999902    2    1    2    0    0 -0.14987292894E-01 -0.49796498470E-02 -0.16793591484E-01  0.10208770051E+01  0.10206166856E+01 0.  0.
     999903    2    3    3    0    0 -0.12057706008E+00 -0.52225845524E-01 -0.75589843340E-02  0.13325846091E+00  0.20840172778E-01 0.  0.
         14    1    1    2    0    0  0.14987292894E-01  0.49796498470E-02  0.16793591484E-01  0.23052994942E-01  0.00000000000E+00 0. -1.
     999901    1    3    3    0    0  0.10558976719E+00  0.47246195677E-01 -0.92346071499E-02  0.88761854415E+00  0.88000000000E+00 0.  1.
        -11    1    4    4    0    0 -0.34099342078E-01 -0.24855010054E-01 -0.52184990966E-02  0.42520942002E-01  0.51100000000E-03 0. -1.
         11    1    4    4    0    0 -0.86477718006E-01 -0.27370835470E-01 -0.23404852374E-02  0.90737518910E-01  0.51100000000E-03 0.  1.
</event>
<event>
 8    1  0.1106905E+005  0.1043930E+01  0.7957747E-01            NaN
         13   -1    0    0    0    0  0.00000000000E+00  0.00000000000E+00  0.74505805969E-08  0.10566000000E+00  0.10566000000E+00 0. -1.
     999900   -1    0    0    0    0 -0.00000000000E+00 -0.00000000000E+00 -0.74505805969E-08  0.93827000000E+00  0.93827000000E+00 0.  1.
     999902    2    1    2    0    0  0.98029360746E-02  0.17208510482E-01  0.12171654575E-01  0.10206839344E+01  0.10204191857E+01 0.  0.
     999903    2    3    3    0    0 -0.92661253246E-01 -0.83423331608E-01 -0.22506469129E-01  0.12836770687E+00  0.20643810305E-01 0.  0.
         14    1    1    2    0    0 -0.98029360746E-02 -0.17208510482E-01 -0.12171654575E-01  0.23246065555E-01  0.00000000000E+00 0.  1.
     999901    1    3    3    0    0  0.10246418932E+00  0.10063184209E+00  0.34678123703E-01  0.89231622758E+00  0.88000000000E+00 0. -1.
        -11    1    4    4    0    0 -0.28621860156E-01 -0.20384824770E-01 -0.14943997479E-01  0.38188167557E-01  0.51100000000E-03 0.  1.
         11    1    4    4    0    0 -0.64039393090E-01 -0.63038506839E-01 -0.75624716496E-02  0.90179539311E-01  0.51100000000E-03 0. -1.
</event>
<event>
 8    1  0.1106905E+005  0.1043930E+01  0.7957747E-01            NaN
         13   -1    0    0    0    0  0.00000000000E+00  0.00000000000E+00  0.74505805969E-08  0.10566000000E+00  0.10566000000E+00 0.  1.
     999900   -1    0    0    0    0 -0.00000000000E+00 -0.00000000000E+00 -0.74505805969E-08  0.93827000000E+00  0.93827000000E+00 0.  1.
     999902    2    1    2    0    0 -0.18102355777E-01  0.10364442016E-01  0.11063776246E-01  0.10203180520E+01  0.10200448045E+01 0.  0.
     999903    2    3    3    0    0 -0.11747566109E+00 -0.45542597233E-01 -0.33154239056E-01  0.13186102788E+00  0.20333912484E-01 0.  0.
         14    1    1    2    0    0  0.18102355777E-01 -0.10364442016E-01 -0.11063776246E-01  0.23611947988E-01  0.00000000000E+00 0. -1.
     999901    1    3    3    0    0  0.99373305309E-01  0.55907039248E-01  0.44218015302E-01  0.88845702413E+00  0.88000000000E+00 0.  1.
        -11    1    4    4    0    0 -0.21399694146E-01 -0.11592677163E-02 -0.93278397674E-02  0.23378633983E-01  0.51100000000E-03 0.  1.
         11    1    4    4    0    0 -0.96075966940E-01 -0.44383329517E-01 -0.23826399289E-01  0.10848239390E+00  0.51100000000E-03 0. -1.
</event>
<event>
 8    1  0.1106905E+005  0.1043930E+01  0.7957747E-01            NaN
         13   -1    0    0    0    0  0.00000000000E+00  0.00000000000E+00  0.74505805969E-08  0.10566000000E+00  0.10566000000E+00 0.  1.
     999900   -1    0    0    0    0 -0.00000000000E+00 -0.00000000000E+00 -0.74505805969E-08  0.93827000000E+00  0.93827000000E+00 0. -1.
     999902    2    1    2    0    0 -0.13921923279E-01 -0.17353651946E-01  0.14608667603E-02  0.10216341861E+01  0.10213908689E+01 0.  0.
     999903    2    3    3    0    0  0.11303913699E+00  0.33803327049E-01 -0.50296194849E-01  0.12954958212E+00  0.18244878713E-01 0.  0.
         14    1    1    2    0    0  0.13921923279E-01  0.17353651946E-01 -0.14608667603E-02  0.22295813853E-01  0.00000000000E+00 0.  1.
     999901    1    3    3    0    0 -0.12696106027E+00 -0.51156978995E-01  0.51757061610E-01  0.89208460403E+00  0.88000000000E+00 0.  1.
        -11    1    4    4    0    0  0.37022118364E-01  0.12243203143E-01 -0.75858861007E-02  0.39728328184E-01  0.51100000000E-03 0. -1.
         11    1    4    4    0    0  0.76017018624E-01  0.21560123906E-01 -0.42710308749E-01  0.89821253931E-01  0.51100000000E-03 0.  1.
</event>
<event>
 8    1  0.1106905E+005  0.1043930E+01  0.7957747E-01            NaN
         13   -1    0    0    0    0  0.00000000000E+00  0.00000000000E+00  0.74505805969E-08  0.10566000000E+00  0.10566000000E+00 0. -1.
     999900   -1    0    0    0    0 -0.00000000000E+00 -0.00000000000E+00 -0.74505805969E-08  0.93827000000E+00  0.93827000000E+00 0.  1.
     999902    2    1    2    0    0  0.71850870505E-02 -0.21919229984E-01  0.58735746805E-02  0.10201271221E+01  0.10198493850E+01 0.  0.
     999903    2    3    3    0    0 -0.32989209888E-01  0.11870379877E+00  0.27035564469E-01  0.12780619315E+00  0.20606344864E-01 0.  0.
         14    1    1    2    0    0 -0.71850870505E-02  0.21919229984E-01 -0.58735746805E-02  0.23802877946E-01  0.00000000000E+00 0.  1.
     999901    1    3    3    0    0  0.40174296938E-01 -0.14062302876E+00 -0.21161989788E-01  0.89232092891E+00  0.88000000000E+00 0.  1.
        -11    1    4    4    0    0 -0.17538741247E-01  0.70585458317E-01  0.57317589399E-02  0.72959088206E-01  0.51100000000E-03 0. -1.
         11    1    4    4    0    0 -0.15450468640E-01  0.48118340456E-01  0.21303805529E-01  0.54847104942E-01  0.51100000000E-03 0.  1.
</event>
<event>
 8    1  0.1106905E+005  0.1043930E+01  0.7957747E-01            NaN
         13   -1    0    0    0    0  0.00000000000E+00  0.00000000000E+00  0.74505805969E-08  0.10566000000E+00  0.10566000000E+00 0. -1.
     999900   -1    0    0    0    0 -0.00000000000E+00 -0.00000000000E+00 -0.74505805969E-08  0.93827000000E+00  0.93827000000E+00 0. -1.
     999902    2    1    2    0    0  0.19884247904E-01  0.83266467706E-02 -0.81003606381E-02  0.10209010573E+01  0.10206412869E+01 0.  0.
     999903    2    3    3    0    0 -0.73392582188E-01  0.94765649127E-01 -0.48284701853E-01  0.13085215443E+00  0.20588212896E-01 0.  0.
         14    1    1    2    0    0 -0.19884247904E-01 -0.83266467706E-02  0.81003606381E-02  0.23028942738E-01  0.00000000000E+00 0.  1.
     999901    1    3    3    0    0  0.93276830092E-01 -0.86439002356E-01  0.40184341215E-01  0.89004890284E+00  0.88000000000E+00 0. -1.
        -11    1    4    4    0    0 -0.14155433873E-01  0.31440780992E-01 -0.89071798098E-02  0.35615979429E-01  0.51100000000E-03 0. -1.
         11    1    4    4    0    0 -0.59237148316E-01  0.63324868134E-01 -0.39377522044E-01  0.95236174997E-01  0.51100000000E-03 0.  1.
</event>
<event>
 8    1  0.1106905E+005  0.1043930E+01  0.7957747E-01            NaN
         13   -1    0    0    0    0  0.00000000000E+00  0.00000000000E+00  0.74505805969E-08  0.10566000000E+00  0.10566000000E+00 0.  1.
     999900   -1    0    0    0    0 -0.00000000000E+00 -0.00000000000E+00 -0.74505805969E-08  0.93827000000E+00  0.93827000000E+00 0. -1.
     999902    2    1    2    0    0  0.23761935916E-01 -0.25660150567E-02  0.19512280593E-02  0.10199503978E+01  0.10196684719E+01 0.  0.
     999903    2    3    3    0    0  0.89778483323E-01 -0.54600914632E-01  0.78435851178E-01  0.13264227042E+00  0.20008828188E-01 0.  0.
         14    1    1    2    0    0 -0.23761935916E-01  0.25660150567E-02 -0.19512280593E-02  0.23979602221E-01  0.00000000000E+00 0.  1.
     999901    1    3    3    0    0 -0.66016547407E-01  0.52034899576E-01 -0.76484623119E-01  0.88730812736E+00  0.88000000000E+00 0. -1.
        -11    1    4    4    0    0  0.44078588019E-01 -0.16563396074E-01  0.40495885552E-01  0.62108339849E-01  0.51100000000E-03 0. -1.
         11    1    4    4    0    0  0.45699895304E-01 -0.38037518558E-01  0.37939965627E-01  0.70533930570E-01  0.51100000000E-03 0.  1.
</event>
<event>
 8    1  0.1106905E+005  0.1043930E+01  0.7957747E-01            NaN
         13   -1    0    0    0    0  0.00000000000E+00  0.00000000000E+00  0.74505805969E-08  0.10566000000E+00  0.10566000000E+00 0.  1.
     999900   -1    0    0    0    0 -0.00000000000E+00 -0.00000000000E+00 -0.74505805969E-08  0.93827000000E+00  0.93827000000E+00 0. -1.
     999902    2    1    2    0    0 -0.11308550642E-01  0.17986270986E-01 -0.10614182872E-01  0.10201802602E+01  0.10199037764E+01 0.  0.
     999903    2    3    3    0    0  0.93287857174E-01 -0.54153984820E-01  0.65590960210E-01  0.12779477800E+00  0.19850764620E-01 0.  0.
         14    1    1    2    0    0  0.11308550642E-01 -0.17986270986E-01  0.10614182872E-01  0.23749739781E-01  0.00000000000E+00 0.  1.
     999901    1    3    3    0    0 -0.10459640782E+00  0.72140255806E-01 -0.76205143083E-01  0.89238548221E+00  0.88000000000E+00 0.  1.
        -11    1    4    4    0    0  0.19077450930E-01 -0.20584627001E-01  0.13874806483E-01  0.31312096365E-01  0.51100000000E-03 0. -1.
         11    1    4    4    0    0  0.74210406243E-01 -0.33569357819E-01  0.51716153727E-01  0.96482681640E-01  0.51100000000E-03 0.  1.
</event>
<event>
 8    1  0.1106905E+005  0.1043930E+01  0.7957747E-01            NaN
         13   -1    0    0    0    0  0.00000000000E+00  0.00000000000E+00  0.74505805969E-08  0.10566000000E+00  0.10566000000E+00 0.  1.
     999900   -1    0    0    0    0 -0.00000000000E+00 -0.00000000000E+00 -0.74505805969E-08  0.93827000000E+00  0.93827000000E+00 0.  1.
     999902    2    1    2    0    0 -0.35771233151E-02 -0.21759191480E-01  0.97382876644E-02  0.10198241403E+01  0.10195392021E+01 0.  0.
     999903    2    3    3    0    0  0.10605880201E+00 -0.59349676453E-01 -0.43439615497E-01  0.13063295160E+00  0.20177072862E-01 0.  0.
         14    1    1    2    0    0  0.35771233151E-02  0.21759191480E-01 -0.97382876644E-02  0.24105859696E-01  0.00000000000E+00 0. -1.
     999901    1    3    3    0    0 -0.10963592533E+00  0.37590484973E-01  0.53177903162E-01  0.88919118870E+00  0.88000000000E+00 0.  1.
        -11    1    4    4    0    0  0.79973571886E-01 -0.45011455809E-01 -0.23278857925E-01  0.94678243021E-01  0.51100000000E-03 0.  1.
         11    1    4    4    0    0  0.26085230129E-01 -0.14338220643E-01 -0.20160757572E-01  0.35954708579E-01  0.51100000000E-03 0. -1.
</event>
<event>
 8    1  0.1106905E+005  0.1043930E+01  0.7957747E-01            NaN
         13   -1    0    0    0    0  0.00000000000E+00  0.00000000000E+00  0.74505805969E-08  0.10566000000E+00  0.10566000000E+00 0. -1.
     999900   -1    0    0    0    0 -0.00000000000E+00 -0.00000000000E+00 -0.74505805969E-08  0.93827000000E+00  0.93827000000E+00 0. -1.
     999902    2    1    2    0    0  0.74472473950E-02 -0.11327225512E-01 -0.20335184476E-01  0.10194905389E+01  0.10191975626E+01 0.  0.
     999903    2    3    3    0    0  0.76629159091E-01 -0.95903006204E-01 -0.44794510945E-01  0.13239558443E+00  0.21275054482E-01 0.  0.
         14    1    1    2    0    0 -0.74472473950E-02  0.11327225512E-01  0.20335184476E-01  0.24439461107E-01  0.00000000000E+00 0. -1.
     999901    1    3    3    0    0 -0.69181911696E-01  0.84575780692E-01  0.24459326469E-01  0.88709495446E+00  0.88000000000E+00 0.  1.
        -11    1    4    4    0    0  0.62916537904E-01 -0.70741085106E-01 -0.26200700770E-01  0.98232019757E-01  0.51100000000E-03 0. -1.
         11    1    4    4    0    0  0.13712621187E-01 -0.25161921099E-01 -0.18593810175E-01  0.34163564671E-01  0.51100000000E-03 0.  1.
</event>
