<event>
 8    1  0.5489035E+004  0.1043930E+01  0.7957747E-01            NaN
         13   -1    0    0    0    0  0.00000000000E+00  0.00000000000E+00  0.74505805969E-08  0.10566000000E+00  0.10566000000E+00 0.  1.
     999900   -1    0    0    0    0 -0.00000000000E+00 -0.00000000000E+00 -0.74505805969E-08  0.93827000000E+00  0.93827000000E+00 0.  1.
     999902    2    1    2    0    0 -0.91321511668E-02  0.17169593603E-01 -0.14282417400E-01  0.10198016230E+01  0.10195161459E+01 0.  0.
     999903    2    3    3    0    0  0.87827609790E-01  0.65640064292E-01 -0.69742419614E-01  0.13141747546E+00  0.19602058069E-01 0.  0.
         14    1    1    2    0    0  0.91321511668E-02 -0.17169593603E-01  0.14282417400E-01  0.24128376991E-01  0.00000000000E+00 0.  1.
     999901    1    3    3    0    0 -0.96959760957E-01 -0.48470470689E-01  0.55460002214E-01  0.88838414755E+00  0.88000000000E+00 0. -1.
        -11    1    4    4    0    0  0.23039493116E-01  0.28319530028E-01 -0.25560150857E-01  0.44569007807E-01  0.51100000000E-03 0. -1.
         11    1    4    4    0    0  0.64788116673E-01  0.37320534264E-01 -0.44182268758E-01  0.86848467651E-01  0.51100000000E-03 0.  1.
</event>
<event>
 8    1  0.5489035E+004  0.1043930E+01  0.7957747E-01            NaN
         13   -1    0    0    0    0  0.00000000000E+00  0.00000000000E+00  0.74505805969E-08  0.10566000000E+00  0.10566000000E+00 0. -1.
     999900   -1    0    0    0    0 -0.00000000000E+00 -0.00000000000E+00 -0.74505805969E-08  0.93827000000E+00  0.93827000000E+00 0.  1.
     999902    2    1    2    0    0 -0.15357171177E-01 -0.99167647849E-02 -0.12950919964E-01  0.10215266240E+01  0.10212809272E+01 0.  0.
     999903    2    3    3    0    0 -0.78276055523E-01  0.72083982202E-01 -0.77487233807E-01  0.13313040361E+00  0.19904562403E-01 0.  0.
         14    1    1    2    0    0  0.15357171177E-01  0.99167647849E-02  0.12950919964E-01  0.22403376046E-01  0.00000000000E+00 0. -1.
     999901    1    3    3    0    0  0.62918884346E-01 -0.82000746986E-01  0.64536313843E-01  0.88839622034E+00  0.88000000000E+00 0. -1.
        -11    1    4    4    0    0 -0.69733847703E-01  0.58996253885E-01 -0.58235478087E-01  0.10832820278E+00  0.51100000000E-03 0.  1.
         11    1    4    4    0    0 -0.85422078202E-02  0.13087728316E-01 -0.19251755720E-01  0.24802200834E-01  0.51100000000E-03 0. -1.
</event>
<event>
 8    1  0.5489035E+004  0.1043930E+01  0.7957747E-01            NaN
         13   -1    0    0    0    0  0.00000000000E+00  0.00000000000E+00  0.74505805969E-08  0.10566000000E+00  0.10566000000E+00 0. -1.
     999900   -1    0    0    0    0 -0.00000000000E+00 -0.00000000000E+00 -0.74505805969E-08  0.93827000000E+00  0.93827000000E+00 0. -1.
     999902    2    1    2    0    0  0.22230162140E-01 -0.51905019519E-02 -0.90166433719E-02  0.10193857282E+01  0.10190902029E+01 0.  0.
     999903    2    3    3    0    0 -0.12090984227E+00 -0.34297324302E-01 -0.20800250886E-02  0.12731825060E+00  0.20251272043E-01 0.  0.
         14    1    1    2    0    0 -0.22230162140E-01  0.51905019519E-02  0.90166433719E-02  0.24544271776E-01  0.00000000000E+00 0. -1.
     999901    1    3    3    0    0  0.14314000441E+00  0.29106822350E-01 -0.69366182833E-02  0.89206747763E+00  0.88000000000E+00 0. -1.
        -11    1    4    4    0    0 -0.14190260241E-01 -0.10200463991E-01  0.32413864752E-02  0.17781469529E-01  0.51100000000E-03 0.  1.
         11    1    4    4    0    0 -0.10671958203E+00 -0.24096860311E-01 -0.53214115638E-02  0.10953678107E+00  0.51100000000E-03 0. -1.
</event>
<event>
 8    1  0.5489035E+004  0.1043930E+01  0.7957747E-01            NaN
         13   -1    0    0    0    0  0.00000000000E+00  0.00000000000E+00  0.74505805969E-08  0.10566000000E+00  0.10566000000E+00 0. -1.
     999900   -1    0    0    0    0 -0.00000000000E+00 -0.00000000000E+00 -0.74505805969E-08  0.93827000000E+00  0.93827000000E+00 0. -1.
     999902    2    1    2    0    0 -0.84448839726E-02 -0.92267340262E-02  0.20815075453E-01  0.10196459301E+01  0.10193567122E+01 0.  0.
     999903    2    3    3    0    0 -0.49167069833E-01  0.68678689766E-01  0.99399976933E-01  0.13178156080E+00  0.18757962833E-01 0.  0.
         14    1    1    2    0    0  0.84448839726E-02  0.92267340262E-02 -0.20815075453E-01  0.24284069927E-01  0.00000000000E+00 0.  1.
     999901    1    3    3    0    0  0.40722185861E-01 -0.77905423792E-01 -0.78584901480E-01  0.88786436927E+00  0.88000000000E+00 0. -1.
        -11    1    4    4    0    0 -0.10972496967E-01  0.23004652934E-01  0.41662155923E-01  0.48842666834E-01  0.51100000000E-03 0.  1.
         11    1    4    4    0    0 -0.38194572866E-01  0.45674036832E-01  0.57737821010E-01  0.82938893970E-01  0.51100000000E-03 0. -1.
</event>
<event>
 8    1  0.5489035E+004  0.1043930E+01  0.7957747E-01            NaN
         13   -1    0    0    0    0  0.00000000000E+00  0.00000000000E+00  0.74505805969E-08  0.10566000000E+00  0.10566000000E+00 0. -1.
     999900   -1    0    0    0    0 -0.00000000000E+00 -0.00000000000E+00 -0.74505805969E-08  0.93827000000E+00  0.93827000000E+00 0.  1.
     999902    2    1    2    0    0 -0.10661881099E-01 -0.27116247843E-01  0.43709387814E-02  0.10144669433E+01  0.10140390068E+01 0.  0.
     999903    2    3    3    0    0  0.10998978696E+00 -0.62042178699E-02  0.54551337497E-01  0.12457244930E+00  0.20154432402E-01 0.  0.
         14    1    1    2    0    0  0.10661881099E-01  0.27116247843E-01 -0.43709387814E-02  0.29463056723E-01  0.00000000000E+00 0. -1.
     999901    1    3    3    0    0 -0.12065166806E+00 -0.20912029973E-01 -0.50180398716E-01  0.88989449398E+00  0.88000000000E+00 0.  1.
        -11    1    4    4    0    0  0.29814467400E-01  0.53738850557E-02  0.88670400916E-02  0.31570027366E-01  0.51100000000E-03 0.  1.
         11    1    4    4    0    0  0.80175319562E-01 -0.11578102926E-01  0.45684297406E-01  0.93002421929E-01  0.51100000000E-03 0. -1.
</event>
<event>
 8    1  0.5489035E+004  0.1043930E+01  0.7957747E-01            NaN
         13   -1    0    0    0    0  0.00000000000E+00  0.00000000000E+00  0.74505805969E-08  0.10566000000E+00  0.10566000000E+00 0. -1.
     999900   -1    0    0    0    0 -0.00000000000E+00 -0.00000000000E+00 -0.74505805969E-08  0.93827000000E+00  0.93827000000E+00 0.  1.
     999902    2    1    2    0    0  0.94002658471E-02 -0.17671172781E-01 -0.12410834134E-01  0.10203786911E+01  0.10201068616E+01 0.  0.
     999903    2    3    3    0    0 -0.72377289768E-01  0.66588705793E-01 -0.82269178355E-01  0.12983532667E+00  0.20407511600E-01 0.  0.
         14    1    1    2    0    0 -0.94002658471E-02  0.17671172781E-01  0.12410834134E-01  0.23551308867E-01  0.00000000000E+00 0. -1.
     999901    1    3    3    0    0  0.81777555615E-01 -0.84259878574E-01  0.69858344220E-01  0.89054336447E+00  0.88000000000E+00 0. -1.
        -11    1    4    4    0    0 -0.15608672155E-01  0.24401625706E-01 -0.16991333724E-01  0.33586255020E-01  0.51100000000E-03 0.  1.
         11    1    4    4    0    0 -0.56768617613E-01  0.42187080087E-01 -0.65277844630E-01  0.96249071646E-01  0.51100000000E-03 0. -1.
</event>
<event>
 8    1  0.5489035E+004  0.1043930E+01  0.7957747E-01            NaN
         13   -1    0    0    0    0  0.00000000000E+00  0.00000000000E+00  0.74505805969E-08  0.10566000000E+00  0.10566000000E+00 0.  1.
     999900   -1    0    0    0    0 -0.00000000000E+00 -0.00000000000E+00 -0.74505805969E-08  0.93827000000E+00  0.93827000000E+00 0.  1.
     999902    2    1    2    0    0  0.62744035185E-02  0.18661797975E-01 -0.13256551267E-01  0.10201946467E+01  0.10199185018E+01 0.  0.
     999903    2    3    3    0    0 -0.77269108624E-01 -0.14782892656E-03  0.10085385760E+00  0.12870459861E+00  0.20562979146E-01 0.  0.
         14    1    1    2    0    0 -0.62744035185E-02 -0.18661797975E-01  0.13256551267E-01  0.23735353266E-01  0.00000000000E+00 0.  1.
     999901    1    3    3    0    0  0.83543512142E-01  0.18809626902E-01 -0.11411040886E+00  0.89149004812E+00  0.88000000000E+00 0.  1.
        -11    1    4    4    0    0 -0.38751618563E-02  0.46257413962E-02  0.48149745055E-02  0.77368897734E-02  0.51100000000E-03 0.  1.
         11    1    4    4    0    0 -0.73393946768E-01 -0.47735703228E-02  0.96038883091E-01  0.12096770884E+00  0.51100000000E-03 0. -1.
</event>
<event>
 8    1  0.5489035E+004  0.1043930E+01  0.7957747E-01            NaN
         13   -1    0    0    0    0  0.00000000000E+00  0.00000000000E+00  0.74505805969E-08  0.10566000000E+00  0.10566000000E+00 0.  1.
     999900   -1    0    0    0    0 -0.00000000000E+00 -0.00000000000E+00 -0.74505805969E-08  0.93827000000E+00  0.93827000000E+00 0. -1.
     999902    2    1    2    0    0 -0.21525984008E-01  0.86309636856E-02 -0.56034627965E-02  0.10200708232E+01  0.10197917552E+01 0.  0.
     999903    2    3    3    0    0 -0.20213767192E-01 -0.65829737052E-01  0.10803832942E+00  0.12964363652E+00  0.19825266715E-01 0.  0.
         14    1    1    2    0    0  0.21525984008E-01 -0.86309636856E-02  0.56034627965E-02  0.23859176787E-01  0.00000000000E+00 0.  1.
     999901    1    3    3    0    0 -0.13122168161E-02  0.74460700738E-01 -0.11364179222E+00  0.89042718670E+00  0.88000000000E+00 0. -1.
        -11    1    4    4    0    0 -0.16780486137E-01 -0.43967763457E-01  0.56376688334E-01  0.73439369870E-01  0.51100000000E-03 0. -1.
         11    1    4    4    0    0 -0.34332810552E-02 -0.21861973595E-01  0.51661641090E-01  0.56204266648E-01  0.51100000000E-03 0.  1.
</event>
<event>
 7    1  0.5489035E+004  0.1043930E+01  0.7957747E-01            NaN
         13   -1    0    0    0    0  0.00000000000E+00  0.00000000000E+00  0.74505805969E-08  0.10566000000E+00  0.10566000000E+00 0.  1.
     999900   -1    0    0    0    0 -0.00000000000E+00 -0.00000000000E+00 -0.74505805969E-08  0.93827000000E+00  0.93827000000E+00 0.  1.
     999903    2    1    2    0    0 -0.68326795857E-01 -0.66030400984E-01  0.27678373539E-01  0.99617778477E-01  0.11359777318E-01 0.  0.
         14    1    1    2    0    0 -0.48641837087E-01  0.18452295300E-01  0.15399353528E-01  0.54255466140E-01  0.00000000000E+00 0.  1.
     999901    1    1    2    0    0  0.11696863294E+00  0.47578105684E-01 -0.43077727067E-01  0.89005675538E+00  0.88000000000E+00 0. -1.
        -11    1    3    3    0    0 -0.40882756948E-01 -0.32160656231E-01  0.13019759613E-01  0.53623529222E-01  0.51100000000E-03 0. -1.
         11    1    3    3    0    0 -0.27444038910E-01 -0.33869744752E-01  0.14658613926E-01  0.45994249254E-01  0.51100000000E-03 0.  1.
</event>
<event>
 8    1  0.5489035E+004  0.1043930E+01  0.7957747E-01            NaN
         13   -1    0    0    0    0  0.00000000000E+00  0.00000000000E+00  0.74505805969E-08  0.10566000000E+00  0.10566000000E+00 0. -1.
     999900   -1    0    0    0    0 -0.00000000000E+00 -0.00000000000E+00 -0.74505805969E-08  0.93827000000E+00  0.93827000000E+00 0.  1.
     999902    2    1    2    0    0  0.16576604706E-01  0.10597123641E-01 -0.13358967409E-01  0.10201488128E+01  0.10198715877E+01 0.  0.
     999903    2    3    3    0    0  0.54795716326E-01 -0.37697669801E-01 -0.11291963357E+00  0.13239579886E+00  0.18818051795E-01 0.  0.
         14    1    1    2    0    0 -0.16576604706E-01 -0.10597123641E-01  0.13358967409E-01  0.23781187172E-01  0.00000000000E+00 0. -1.
     999901    1    3    3    0    0 -0.38219111620E-01  0.48294793442E-01  0.99560666162E-01  0.88775301397E+00  0.88000000000E+00 0. -1.
        -11    1    4    4    0    0  0.17741586312E-02  0.81682481175E-03 -0.11283482930E-01  0.11462676374E-01  0.51100000000E-03 0.  1.
         11    1    4    4    0    0  0.53021557695E-01 -0.38514494613E-01 -0.10163615064E+00  0.12093312248E+00  0.51100000000E-03 0. -1.
</event>
<event>
 8    1  0.5489035E+004  0.1043930E+01  0.7957747E-01            NaN
         13   -1    0    0    0    0  0.00000000000E+00  0.00000000000E+00  0.74505805969E-08  0.10566000000E+00  0.10566000000E+00 0. -1.
     999900   -1    0    0    0    0 -0.00000000000E+00 -0.00000000000E+00 -0.74505805969E-08  0.93827000000E+00  0.93827000000E+00 0. -1.
     999902    2    1    2    0    0  0.17198591349E-01  0.12131341637E-01 -0.10715079679E-01  0.10203127621E+01  0.10200393907E+01 0.  0.
     999903    2    3    3    0    0 -0.90840385579E-01 -0.29407039663E-01 -0.85306518641E-01  0.12960420120E+00  0.20082261160E-01 0.  0.
         14    1    1    2    0    0 -0.17198591349E-01 -0.12131341637E-01  0.10715079679E-01  0.23617237917E-01  0.00000000000E+00 0.  1.
     999901    1    3    3    0    0  0.10803897693E+00  0.41538381300E-01  0.74591438962E-01  0.89070856088E+00  0.88000000000E+00 0.  1.
        -11    1    4    4    0    0 -0.52153317381E-01 -0.75780942668E-02 -0.52406943573E-01  0.74324591370E-01  0.51100000000E-03 0. -1.
         11    1    4    4    0    0 -0.38687068197E-01 -0.21828945396E-01 -0.32899575068E-01  0.55279609834E-01  0.51100000000E-03 0.  1.
</event>
<event>
 8    1  0.5489035E+004  0.1043930E+01  0.7957747E-01            NaN
         13   -1    0    0    0    0  0.00000000000E+00  0.00000000000E+00  0.74505805969E-08  0.10566000000E+00  0.10566000000E+00 0. -1.
     999900   -1    0    0    0    0 -0.00000000000E+00 -0.00000000000E+00 -0.74505805969E-08  0.93827000000E+00  0.93827000000E+00 0. -1.
     999902    2    1    2    0    0  0.21522496579E-01 -0.20158060047E-03 -0.36102368264E-05  0.10224065591E+01  0.10221799810E+01 0.  0.
     999903    2    3    3    0    0  0.36523128959E-02  0.12445741434E+00  0.40929300125E-01  0.13249942261E+00  0.19439701875E-01 0.  0.
         14    1    1    2    0    0 -0.21522496579E-01  0.20158060047E-03  0.36102368264E-05  0.21523440868E-01  0.00000000000E+00 0. -1.
     999901    1    3    3    0    0  0.17870183683E-01 -0.12465899494E+00 -0.40932910361E-01  0.88990713652E+00  0.88000000000E+00 0. -1.
        -11    1    4    4    0    0  0.32045501500E-02  0.40645901358E-01  0.42013851809E-02  0.40991111199E-01  0.51100000000E-03 0.  1.
         11    1    4    4    0    0  0.44776274586E-03  0.83811512983E-01  0.36727914944E-01  0.91508311410E-01  0.51100000000E-03 0. -1.
</event>
<event>
 8    1  0.5489035E+004  0.1043930E+01  0.7957747E-01            NaN
         13   -1    0    0    0    0  0.00000000000E+00  0.00000000000E+00  0.74505805969E-08  0.10566000000E+00  0.10566000000E+00 0. -1.
     999900   -1    0    0    0    0 -0.00000000000E+00 -0.00000000000E+00 -0.74505805969E-08  0.93827000000E+00  0.93827000000E+00 0. -1.
     999902    2    1    2    0    0  0.12049444422E-01  0.65392467065E-02  0.21267880225E-01  0.10186263720E+01  0.10183120407E+01 0.  0.
     999903    2    3    3    0    0  0.93045308982E-01 -0.66557142154E-01  0.60716154670E-01  0.13101182817E+00  0.19757656436E-01 0.  0.
         14    1    1    2    0    0 -0.12049444422E-01 -0.65392467065E-02 -0.21267880225E-01  0.25303627954E-01  0.00000000000E+00 0.  1.
     999901    1    3    3    0    0 -0.80995864560E-01  0.73096388861E-01 -0.39448274445E-01  0.88761454387E+00  0.88000000000E+00 0.  1.
        -11    1    4    4    0    0  0.70359889747E-01 -0.48223048321E-01  0.54376595111E-01  0.10115854730E+00  0.51100000000E-03 0. -1.
         11    1    4    4    0    0  0.22685419235E-01 -0.18334093833E-01  0.63395595586E-02  0.29853280874E-01  0.51100000000E-03 0.  1.
</event>
<event>
 8    1  0.5489035E+004  0.1043930E+01  0.7957747E-01            NaN
         13   -1    0    0    0    0  0.00000000000E+00  0.00000000000E+00  0.74505805969E-08  0.10566000000E+00  0.10566000000E+00 0.  1.
     999900   -1    0    0    0    0 -0.00000000000E+00 -0.00000000000E+00 -0.74505805969E-08  0.93827000000E+00  0.93827000000E+00 0.  1.
     999902    2    1    2    0    0  0.12491403514E-02  0.23430113128E-01  0.74265912277E-03  0.10204548622E+01  0.10201848086E+01 0.  0.
     999903    2    3    3    0    0 -0.44480556407E-02 -0.70373335207E-01  0.10640775119E+00  0.12916553955E+00  0.19721449953E-01 0.  0.
         14    1    1    2    0    0 -0.12491403514E-02 -0.23430113128E-01 -0.74265912277E-03  0.23475137814E-01  0.00000000000E+00 0. -1.
     999901    1    3    3    0    0  0.56971959922E-02  0.93803448335E-01 -0.10566509206E+00  0.89128932263E+00  0.88000000000E+00 0.  1.
        -11    1    4    4    0    0 -0.96022956214E-02 -0.61821136938E-01  0.85049177136E-01  0.10558257766E+00  0.51100000000E-03 0.  1.
         11    1    4    4    0    0  0.51542399807E-02 -0.85521982683E-02  0.21358574049E-01  0.23582961888E-01  0.51100000000E-03 0. -1.
</event>
<event>
 8    1  0.5489035E+004  0.1043930E+01  0.7957747E-01            NaN
         13   -1    0    0    0    0  0.00000000000E+00  0.00000000000E+00  0.74505805969E-08  0.10566000000E+00  0.10566000000E+00 0.  1.
     999900   -1    0    0    0    0 -0.00000000000E+00 -0.00000000000E+00 -0.74505805969E-08  0.93827000000E+00  0.93827000000E+00 0.  1.
     999902    2    1    2    0    0  0.27200686567E-02 -0.23052257493E-01 -0.16142906112E-02  0.10206617538E+01  0.10203964937E+01 0.  0.
     999903    2    3    3    0    0 -0.13185925050E-01  0.12207810318E+00 -0.31094110560E-01  0.12814571356E+00  0.19430602110E-01 0.  0.
         14    1    1    2    0    0 -0.27200686567E-02  0.23052257493E-01  0.16142906112E-02  0.23268246242E-01  0.00000000000E+00 0.  1.
     999901    1    3    3    0    0  0.15905993706E-01 -0.14513036067E+00  0.29479819949E-01  0.89251604020E+00  0.88000000000E+00 0.  1.
        -11    1    4    4    0    0 -0.60351287078E-02  0.10100498159E+00 -0.31196413984E-01  0.10588629020E+00  0.51100000000E-03 0. -1.
         11    1    4    4    0    0 -0.71507963417E-02  0.21073121581E-01  0.10230342443E-03  0.22259423363E-01  0.51100000000E-03 0.  1.
</event>
<event>
 8    1  0.5489035E+004  0.1043930E+01  0.7957747E-01            NaN
         13   -1    0    0    0    0  0.00000000000E+00  0.00000000000E+00  0.74505805969E-08  0.10566000000E+00  0.10566000000E+00 0.  1.
     999900   -1    0    0    0    0 -0.00000000000E+00 -0.00000000000E+00 -0.74505805969E-08  0.93827000000E+00  0.93827000000E+00 0.  1.
     999902    2    1    2    0    0  0.82911015171E-02 -0.22284261922E-01 -0.34010009662E-02  0.10199113093E+01  0.10196284526E+01 0.  0.
     999903    2    3    3    0    0 -0.12696274074E+00 -0.12468659136E-01  0.80018836048E-02  0.12945076912E+00  0.20456453462E-01 0.  0.
         14    1    1    2    0    0 -0.82911015171E-02  0.22284261922E-01  0.34010009662E-02  0.24018690666E-01  0.00000000000E+00 0. -1.
     999901    1    3    3    0    0  0.13525384225E+00 -0.98156027861E-02 -0.11402884571E-01  0.89046054021E+00  0.88000000000E+00 0.  1.
        -11    1    4    4    0    0 -0.37350939559E-01 -0.12861212912E-01  0.31751809721E-03  0.39507789387E-01  0.51100000000E-03 0.  1.
         11    1    4    4    0    0 -0.89611801178E-01  0.39255377668E-03  0.76843655076E-02  0.89942979732E-01  0.51100000000E-03 0. -1.
</event>
<event>
 8    1  0.5489035E+004  0.1043930E+01  0.7957747E-01            NaN
         13   -1    0    0    0    0  0.00000000000E+00  0.00000000000E+00  0.74505805969E-08  0.10566000000E+00  0.10566000000E+00 0.  1.
     999900   -1    0    0    0    0 -0.00000000000E+00 -0.00000000000E+00 -0.74505805969E-08  0.93827000000E+00  0.93827000000E+00 0.  1.
     999902    2    1    2    0    0  0.11383939313E-01 -0.22551013019E-01  0.44009434841E-02  0.10182880312E+01  0.10179651290E+01 0.  0.
     999903    2    3    3    0    0  0.97275962045E-01  0.29751689529E-01  0.77849255043E-01  0.12952053247E+00  0.19164707098E-01 0.  0.
         14    1    1    2    0    0 -0.11383939313E-01  0.22551013019E-01 -0.44009434841E-02  0.25641968840E-01  0.00000000000E+00 0. -1.
     999901    1    3    3    0    0 -0.85892022732E-01 -0.52302702548E-01 -0.73448311559E-01  0.88876749869E+00  0.88000000000E+00 0.  1.
        -11    1    4    4    0    0  0.35365915050E-01  0.15434682704E-02  0.29000116942E-01  0.45764594888E-01  0.51100000000E-03 0. -1.
         11    1    4    4    0    0  0.61910046995E-01  0.28208221258E-01  0.48849138101E-01  0.83755937579E-01  0.51100000000E-03 0.  1.
</event>
<event>
 8    1  0.5489035E+004  0.1043930E+01  0.7957747E-01            NaN
         13   -1    0    0    0    0  0.00000000000E+00  0.00000000000E+00  0.74505805969E-08  0.10566000000E+00  0.10566000000E+00 0. -1.
     999900   -1    0    0    0    0 -0.00000000000E+00 -0.00000000000E+00 -0.74505805969E-08  0.93827000000E+00  0.93827000000E+00 0.  1.
     999902    2    1    2    0    0  0.11514674574E-01  0.20291922126E-01 -0.17922764500E-02  0.10205299554E+01  0.10202616467E+01 0.  0.
     999903    2    3    3    0    0 -0.92694390950E-01  0.39554516275E-01  0.78854056226E-01  0.13051062532E+00  0.25656407928E-01 0.  0.
         14    1    1    2    0    0 -0.11514674574E-01 -0.20291922126E-01  0.17922764500E-02  0.23400044636E-01  0.00000000000E+00 0. -1.
     999901    1    3    3    0    0  0.10420906552E+00 -0.19262594150E-01 -0.80646332676E-01  0.89001933004E+00  0.88000000000E+00 0.  1.
        -11    1    4    4    0    0 -0.12009421788E-01  0.14593117234E-01  0.20291599840E-01  0.27734372669E-01  0.51100000000E-03 0.  1.
         11    1    4    4    0    0 -0.80684969162E-01  0.24961399041E-01  0.58562456387E-01  0.10277625266E+00  0.51100000000E-03 0. -1.
</event>
<event>
 8    1  0.5489035E+004  0.1043930E+01  0.7957747E-01            NaN
         13   -1    0    0    0    0  0.00000000000E+00  0.00000000000E+00  0.74505805969E-08  0.10566000000E+00  0.10566000000E+00 0. -1.
     999900   -1    0    0    0    0 -0.00000000000E+00 -0.00000000000E+00 -0.74505805969E-08  0.93827000000E+00  0.93827000000E+00 0.  1.
     999902    2    1    2    0    0 -0.11321577439E-01 -0.11815818993E-01  0.17826832422E-01  0.10197310817E+01  0.10194439128E+01 0.  0.
     999903    2    3    3    0    0  0.12033426959E+00  0.37880945085E-01  0.15032035447E-01  0.12854600476E+00  0.19565551658E-01 0.  0.
         14    1    1    2    0    0  0.11321577439E-01  0.11815818993E-01 -0.17826832422E-01  0.24198918331E-01  0.00000000000E+00 0.  1.
     999901    1    3    3    0    0 -0.13165584703E+00 -0.49696764078E-01  0.27947969751E-02  0.89118507691E+00  0.88000000000E+00 0.  1.
        -11    1    4    4    0    0  0.18748753617E-01  0.11702511089E-01  0.76016625554E-02  0.23377573069E-01  0.51100000000E-03 0. -1.
         11    1    4    4    0    0  0.10158551597E+00  0.26178433996E-01  0.74303728913E-02  0.10516843169E+00  0.51100000000E-03 0.  1.
</event>
<event>
 8    1  0.5489035E+004  0.1043930E+01  0.7957747E-01            NaN
         13   -1    0    0    0    0  0.00000000000E+00  0.00000000000E+00  0.74505805969E-08  0.10566000000E+00  0.10566000000E+00 0.  1.
     999900   -1    0    0    0    0 -0.00000000000E+00 -0.00000000000E+00 -0.74505805969E-08  0.93827000000E+00  0.93827000000E+00 0. -1.
     999902    2    1    2    0    0  0.23674008498E-01 -0.78840240131E-02 -0.67164902737E-02  0.10180895713E+01  0.10177615868E+01 0.  0.
     999903    2    3    3    0    0 -0.12233611902E+00  0.87167913668E-02 -0.19066672236E-01  0.12581883247E+00  0.20609030631E-01 0.  0.
         14    1    1    2    0    0 -0.23674008498E-01  0.78840240131E-02  0.67164902737E-02  0.25840428684E-01  0.00000000000E+00 0.  1.
     999901    1    3    3    0    0  0.14601012752E+00 -0.16600815380E-01  0.12350181963E-01  0.89227073885E+00  0.88000000000E+00 0. -1.
        -11    1    4    4    0    0 -0.13292868939E-01 -0.42970520281E-02 -0.60476462766E-02  0.15231551702E-01  0.51100000000E-03 0.  1.
         11    1    4    4    0    0 -0.10904325009E+00  0.13013843395E-01 -0.13019025960E-01  0.11058728077E+00  0.51100000000E-03 0. -1.
</event>
<event>
 8    1  0.5489035E+004  0.1043930E+01  0.7957747E-01            NaN
         13   -1    0    0    0    0  0.00000000000E+00  0.00000000000E+00  0.74505805969E-08  0.10566000000E+00  0.10566000000E+00 0. -1.
     999900   -1    0    0    0    0 -0.00000000000E+00 -0.00000000000E+00 -0.74505805969E-08  0.93827000000E+00  0.93827000000E+00 0.  1.
     999902    2    1    2    0    0  0.17268031966E-01 -0.27611313787E-02 -0.15506502434E-01  0.10205577859E+01  0.10202901224E+01 0.  0.
     999903    2    3    3    0    0 -0.76697647429E-01 -0.46287237839E-01  0.89792596238E-01  0.12825068011E+00  0.18986550560E-01 0.  0.
         14    1    1    2    0    0 -0.17268031966E-01  0.27611313787E-02  0.15506502434E-01  0.23372214106E-01  0.00000000000E+00 0.  1.
     999901    1    3    3    0    0  0.93965679395E-01  0.43526106460E-01 -0.10529909867E+00  0.89230710578E+00  0.88000000000E+00 0.  1.
        -11    1    4    4    0    0 -0.11658961125E-01 -0.10511168016E-01  0.25995413823E-01  0.30371675759E-01  0.51100000000E-03 0. -1.
         11    1    4    4    0    0 -0.65038686303E-01 -0.35776069823E-01  0.63797182415E-01  0.97879004353E-01  0.51100000000E-03 0.  1.
</event>
<event>
 8    1  0.5489035E+004  0.1043930E+01  0.7957747E-01            NaN
         13   -1    0    0    0    0  0.00000000000E+00  0.00000000000E+00  0.74505805969E-08  0.10566000000E+00  0.10566000000E+00 0. -1.
     999900   -1    0    0    0    0 -0.00000000000E+00 -0.00000000000E+00 -0.74505805969E-08  0.93827000000E+00  0.93827000000E+00 0.  1.
     999902    2    1    2    0    0 -0.19748886426E-01 -0.87702402159E-02  0.98381132224E-02  0.10201871253E+01  0.10199108032E+01 0.  0.
     999903    2    3    3    0    0  0.61156028526E-01 -0.97881966743E-01  0.58191723390E-01  0.13067907209E+00  0.19230287873E-01 0.  0.
         14    1    1    2    0    0  0.19748886426E-01  0.87702402159E-02 -0.98381132224E-02  0.23742874727E-01  0.00000000000E+00 0. -1.
     999901    1    3    3    0    0 -0.80904914952E-01  0.89111726527E-01 -0.48353610167E-01  0.88950805319E+00  0.88000000000E+00 0.  1.
        -11    1    4    4    0    0  0.55224606622E-01 -0.85687853543E-01  0.57613094772E-01  0.11709694800E+00  0.51100000000E-03 0.  1.
         11    1    4    4    0    0  0.59314219046E-02 -0.12194113200E-01  0.57862861774E-03  0.13582124084E-01  0.51100000000E-03 0. -1.
</event>
<event>
 8    1  0.5489035E+004  0.1043930E+01  0.7957747E-01            NaN
         13   -1    0    0    0    0  0.00000000000E+00  0.00000000000E+00  0.74505805969E-08  0.10566000000E+00  0.10566000000E+00 0. -1.
     999900   -1    0    0    0    0 -0.00000000000E+00 -0.00000000000E+00 -0.74505805969E-08  0.93827000000E+00  0.93827000000E+00 0. -1.
     999902    2    1    2    0    0  0.20690268899E-01  0.12143730824E-01 -0.80725904161E-02  0.10186174707E+01  0.10183029153E+01 0.  0.
     999903    2    3    3    0    0 -0.31053975560E-01 -0.10363264666E+00 -0.64977232659E-01  0.12770794960E+00  0.19575616838E-01 0.  0.
         14    1    1    2    0    0 -0.20690268899E-01 -0.12143730824E-01  0.80725904161E-02  0.25312529338E-01  0.00000000000E+00 0. -1.
     999901    1    3    3    0    0  0.51744244459E-01  0.11577637748E+00  0.56904642243E-01  0.89090952107E+00  0.88000000000E+00 0.  1.
        -11    1    4    4    0    0 -0.17006865434E-01 -0.77022686343E-01 -0.39200476810E-01  0.88083291188E-01  0.51100000000E-03 0. -1.
         11    1    4    4    0    0 -0.14047110126E-01 -0.26609960315E-01 -0.25776755849E-01  0.39624658408E-01  0.51100000000E-03 0.  1.
</event>
<event>
 8    1  0.5489035E+004  0.1043930E+01  0.7957747E-01            NaN
         13   -1    0    0    0    0  0.00000000000E+00  0.00000000000E+00  0.74505805969E-08  0.10566000000E+00  0.10566000000E+00 0. -1.
     999900   -1    0    0    0    0 -0.00000000000E+00 -0.00000000000E+00 -0.74505805969E-08  0.93827000000E+00  0.93827000000E+00 0. -1.
     999902    2    1    2    0    0  0.19547554970E-02  0.13157970581E-01  0.20359253546E-01  0.10196102043E+01  0.10193201245E+01 0.  0.
     999903    2    3    3    0    0 -0.21560034408E-01  0.65956597611E-01  0.11162892930E+00  0.13300386882E+00  0.20344616322E-01 0.  0.
         14    1    1    2    0    0 -0.19547554970E-02 -0.13157970581E-01 -0.20359253546E-01  0.24319795719E-01  0.00000000000E+00 0.  1.
     999901    1    3    3    0    0  0.23514789905E-01 -0.52798627030E-01 -0.91269675754E-01  0.88660633546E+00  0.88000000000E+00 0.  1.
        -11    1    4    4    0    0 -0.15632792204E-01  0.36289531840E-01  0.80028797224E-01  0.89253480713E-01  0.51100000000E-03 0.  1.
         11    1    4    4    0    0 -0.59272422049E-02  0.29667065771E-01  0.31600132076E-01  0.43750388111E-01  0.51100000000E-03 0. -1.
</event>
<event>
 8    1  0.5489035E+004  0.1043930E+01  0.7957747E-01            NaN
         13   -1    0    0    0    0  0.00000000000E+00  0.00000000000E+00  0.74505805969E-08  0.10566000000E+00  0.10566000000E+00 0. -1.
     999900   -1    0    0    0    0 -0.00000000000E+00 -0.00000000000E+00 -0.74505805969E-08  0.93827000000E+00  0.93827000000E+00 0.  1.
     999902    2    1    2    0    0  0.24549640145E-02 -0.21453992231E-01  0.79693643272E-02  0.10209123677E+01  0.10206528553E+01 0.  0.
     999903    2    3    3    0    0 -0.15671502422E-01  0.10403983447E+00 -0.70738692537E-01  0.12834739661E+00  0.19980201437E-01 0.  0.
         14    1    1    2    0    0 -0.24549640145E-02  0.21453992231E-01 -0.79693643272E-02  0.23017632344E-01  0.00000000000E+00 0. -1.
     999901    1    3    3    0    0  0.18126466436E-01 -0.12549382670E+00  0.78708056864E-01  0.89256497105E+00  0.88000000000E+00 0. -1.
        -11    1    4    4    0    0 -0.15330047863E-01  0.43056307120E-01 -0.24854737281E-01  0.52027637238E-01  0.51100000000E-03 0.  1.
         11    1    4    4    0    0 -0.34145455823E-03  0.60983527351E-01 -0.45883955256E-01  0.76319759370E-01  0.51100000000E-03 0. -1.
</event>
<event>
 8    1  0.5489035E+004  0.1043930E+01  0.7957747E-01            NaN
         13   -1    0    0    0    0  0.00000000000E+00  0.00000000000E+00  0.74505805969E-08  0.10566000000E+00  0.10566000000E+00 0. -1.
     999900   -1    0    0    0    0 -0.00000000000E+00 -0.00000000000E+00 -0.74505805969E-08  0.93827000000E+00  0.93827000000E+00 0.  1.
     999902    2    1    2    0    0  0.21326084476E-01  0.12853125639E-01 -0.55264277664E-02  0.10184241944E+01  0.10181047557E+01 0.  0.
     999903    2    3    3    0    0  0.12610498256E+00  0.33302858049E-01 -0.43047513413E-02  0.13197154388E+00  0.19657327589E-01 0.  0.
         14    1    1    2    0    0 -0.21326084476E-01 -0.12853125639E-01  0.55264277664E-02  0.25505805646E-01  0.00000000000E+00 0.  1.
     999901    1    3    3    0    0 -0.10477889809E+00 -0.20449732410E-01 -0.12216764252E-02  0.88645265047E+00  0.88000000000E+00 0.  1.
        -11    1    4    4    0    0  0.80095282392E-01  0.30154841360E-01  0.63573303917E-03  0.85587580854E-01  0.51100000000E-03 0.  1.
         11    1    4    4    0    0  0.46009700173E-01  0.31480166888E-02 -0.49404843804E-02  0.46383963026E-01  0.51100000000E-03 0. -1.
</event>
<event>
 8    1  0.5489035E+004  0.1043930E+01  0.7957747E-01            NaN
         13   -1    0    0    0    0  0.00000000000E+00  0.00000000000E+00  0.74505805969E-08  0.10566000000E+00  0.10566000000E+00 0.  1.
     999900   -1    0    0    0    0 -0.00000000000E+00 -0.00000000000E+00 -0.74505805969E-08  0.93827000000E+00  0.93827000000E+00 0. -1.
     999902    2    1    2    0    0  0.16072864215E-01 -0.17192924117E-01 -0.23329714621E-02  0.10202788613E+01  0.10200046954E+01 0.  0.
     999903    2    3    3    0    0  0.53584831728E-01  0.11435695875E+00  0.20433271504E-01  0.12941926455E+00  0.19569855531E-01 0.  0.
         14    1    1    2    0    0 -0.16072864215E-01  0.17192924117E-01  0.23329714621E-02  0.23651138653E-01  0.00000000000E+00 0. -1.
     999901    1    3    3    0    0 -0.37511967513E-01 -0.13154988287E+00 -0.22766242966E-01  0.89085959680E+00  0.88000000000E+00 0. -1.
        -11    1    4    4    0    0  0.40067285087E-01  0.65556597331E-01  0.16802023272E-01  0.78648737402E-01  0.51100000000E-03 0.  1.
         11    1    4    4    0    0  0.13517546641E-01  0.48800361421E-01  0.36312482323E-02  0.50770527147E-01  0.51100000000E-03 0. -1.
</event>
<event>
 8    1  0.5489035E+004  0.1043930E+01  0.7957747E-01            NaN
         13   -1    0    0    0    0  0.00000000000E+00  0.00000000000E+00  0.74505805969E-08  0.10566000000E+00  0.10566000000E+00 0. -1.
     999900   -1    0    0    0    0 -0.00000000000E+00 -0.00000000000E+00 -0.74505805969E-08  0.93827000000E+00  0.93827000000E+00 0. -1.
     999902    2    1    2    0    0 -0.18198641340E-01 -0.66158816006E-02  0.13827830299E-01  0.10201356871E+01  0.10198581523E+01 0.  0.
     999903    2    3    3    0    0  0.31229197417E-01  0.59011805497E-01  0.11089442901E+00  0.13099451206E+00  0.20108004502E-01 0.  0.
         14    1    1    2    0    0  0.18198641340E-01  0.66158816006E-02 -0.13827830299E-01  0.23794312907E-01  0.00000000000E+00 0.  1.
     999901    1    3    3    0    0 -0.49427838757E-01 -0.65627687098E-01 -0.97066598708E-01  0.88914117504E+00  0.88000000000E+00 0. -1.
        -11    1    4    4    0    0  0.23658915926E-01  0.23730118790E-01  0.49460981962E-01  0.59745398971E-01  0.51100000000E-03 0.  1.
         11    1    4    4    0    0  0.75702814914E-02  0.35281686708E-01  0.61433447045E-01  0.71249113086E-01  0.51100000000E-03 0. -1.
</event>
<event>
 8    1  0.5489035E+004  0.1043930E+01  0.7957747E-01            NaN
         13   -1    0    0    0    0  0.00000000000E+00  0.00000000000E+00  0.74505805969E-08  0.10566000000E+00  0.10566000000E+00 0. -1.
     999900   -1    0    0    0    0 -0.00000000000E+00 -0.00000000000E+00 -0.74505805969E-08  0.93827000000E+00  0.93827000000E+00 0. -1.
     999902    2    1    2    0    0 -0.51778790706E-02 -0.87260544711E-03  0.23070660872E-01  0.10202693308E+01  0.10199949413E+01 0.  0.
     999903    2    3    3    0    0  0.11381258274E+00  0.15902438236E-01  0.60206701009E-01  0.13132657815E+00  0.20387048559E-01 0.  0.
         14    1    1    2    0    0  0.51778790706E-02  0.87260544711E-03 -0.23070660872E-01  0.23660669158E-01  0.00000000000E+00 0.  1.
     999901    1    3    3    0    0 -0.11899046181E+00 -0.16775043683E-01 -0.37136040137E-01  0.88894275270E+00  0.88000000000E+00 0. -1.
        -11    1    4    4    0    0  0.69702740674E-01  0.15264743059E-01  0.46332222390E-01  0.85078906850E-01  0.51100000000E-03 0. -1.
         11    1    4    4    0    0  0.44109842068E-01  0.63769517705E-03  0.13874478619E-01  0.46247671296E-01  0.51100000000E-03 0.  1.
</event>
<event>
 8    1  0.5489035E+004  0.1043930E+01  0.7957747E-01            NaN
         13   -1    0    0    0    0  0.00000000000E+00  0.00000000000E+00  0.74505805969E-08  0.10566000000E+00  0.10566000000E+00 0.  1.
     999900   -1    0    0    0    0 -0.00000000000E+00 -0.00000000000E+00 -0.74505805969E-08  0.93827000000E+00  0.93827000000E+00 0. -1.
     999902    2    1    2    0    0 -0.61624258730E-02  0.12869427035E-01  0.17609523188E-01  0.10212652046E+01  0.10210136753E+01 0.  0.
     999903    2    3    3    0    0  0.97024498452E-01  0.71353829473E-01 -0.47449652320E-01  0.13092781740E+00  0.19634194239E-01 0.  0.
         14    1    1    2    0    0  0.61624258730E-02 -0.12869427035E-01 -0.17609523188E-01  0.22664795427E-01  0.00000000000E+00 0. -1.
     999901    1    3    3    0    0 -0.10318692432E+00 -0.58484402438E-01  0.65059175508E-01  0.89033738717E+00  0.88000000000E+00 0.  1.
        -11    1    4    4    0    0  0.26007523930E-01  0.91264508211E-02 -0.12058648197E-01  0.30089126323E-01  0.51100000000E-03 0. -1.
         11    1    4    4    0    0  0.71016974522E-01  0.62227378652E-01 -0.35391004123E-01  0.10083869108E+00  0.51100000000E-03 0.  1.
</event>
<event>
 8    1  0.5489035E+004  0.1043930E+01  0.7957747E-01            NaN
         13   -1    0    0    0    0  0.00000000000E+00  0.00000000000E+00  0.74505805969E-08  0.10566000000E+00  0.10566000000E+00 0. -1.
     999900   -1    0    0    0    0 -0.00000000000E+00 -0.00000000000E+00 -0.74505805969E-08  0.93827000000E+00  0.93827000000E+00 0. -1.
     999902    2    1    2    0    0  0.24027963241E-01 -0.54588610165E-02 -0.10291121082E-02  0.10192682634E+01  0.10189698678E+01 0.  0.
     999903    2    3    3    0    0  0.10945038122E+00 -0.71423528581E-01 -0.93898526401E-02  0.13263517758E+00  0.20572180592E-01 0.  0.
         14    1    1    2    0    0 -0.24027963241E-01  0.54588610165E-02  0.10291121082E-02  0.24661736615E-01  0.00000000000E+00 0. -1.
     999901    1    3    3    0    0 -0.85422417983E-01  0.65964667565E-01  0.83607405319E-02  0.88663308580E+00  0.88000000000E+00 0. -1.
        -11    1    4    4    0    0  0.54989738504E-01 -0.23767636939E-01 -0.29795141914E-02  0.59982585241E-01  0.51100000000E-03 0.  1.
         11    1    4    4    0    0  0.54460642720E-01 -0.47655891642E-01 -0.64103384487E-02  0.72652592340E-01  0.51100000000E-03 0. -1.
</event>
<event>
 8    1  0.5489035E+004  0.1043930E+01  0.7957747E-01            NaN
         13   -1    0    0    0    0  0.00000000000E+00  0.00000000000E+00  0.74505805969E-08  0.10566000000E+00  0.10566000000E+00 0.  1.
     999900   -1    0    0    0    0 -0.00000000000E+00 -0.00000000000E+00 -0.74505805969E-08  0.93827000000E+00  0.93827000000E+00 0.  1.
     999902    2    1    2    0    0  0.21101046628E-02 -0.21053698163E-01 -0.10880095424E-01  0.10201374124E+01  0.10198599183E+01 0.  0.
     999903    2    3    3    0    0  0.71468688348E-01  0.90671827516E-01 -0.54575652831E-01  0.12929370672E+00  0.20228865430E-01 0.  0.
         14    1    1    2    0    0 -0.21101046628E-02  0.21053698163E-01  0.10880095424E-01  0.23792587595E-01  0.00000000000E+00 0.  1.
     999901    1    3    3    0    0 -0.69358583685E-01 -0.11172552568E+00  0.43695557407E-01  0.89084370568E+00  0.88000000000E+00 0. -1.
        -11    1    4    4    0    0  0.62159131342E-01  0.76981041812E-01 -0.38380612542E-01  0.10612808746E+00  0.51100000000E-03 0.  1.
         11    1    4    4    0    0  0.93095570065E-02  0.13690785704E-01 -0.16195040289E-01  0.23165619263E-01  0.51100000000E-03 0. -1.
</event>
<event>
 8    1  0.5489035E+004  0.1043930E+01  0.7957747E-01            NaN
         13   -1    0    0    0    0  0.00000000000E+00  0.00000000000E+00  0.74505805969E-08  0.10566000000E+00  0.10566000000E+00 0.  1.
     999900   -1    0    0    0    0 -0.00000000000E+00 -0.00000000000E+00 -0.74505805969E-08  0.93827000000E+00  0.93827000000E+00 0. -1.
     999902    2    1    2    0    0 -0.13221614702E-01  0.27121768824E-02  0.37409940881E-02  0.10299242142E+01  0.10298289785E+01 0.  0.
     999903    2    3    3    0    0  0.11112347475E+00  0.64628698215E-01  0.46153571572E-01  0.13801940785E+00  0.19847153495E-01 0.  0.
         14    1    1    2    0    0  0.13221614702E-01 -0.27121768824E-02 -0.37409940881E-02  0.14005785788E-01  0.00000000000E+00 0. -1.
     999901    1    3    3    0    0 -0.12434508945E+00 -0.61916521333E-01 -0.42412577484E-01  0.89190480636E+00  0.88000000000E+00 0.  1.
        -11    1    4    4    0    0  0.55940162112E-01  0.41743485019E-01  0.18644262687E-01  0.72247421620E-01  0.51100000000E-03 0. -1.
         11    1    4    4    0    0  0.55183312633E-01  0.22885213197E-01  0.27509308885E-01  0.65771986230E-01  0.51100000000E-03 0.  1.
</event>
<event>
 8    1  0.5489035E+004  0.1043930E+01  0.7957747E-01            NaN
         13   -1    0    0    0    0  0.00000000000E+00  0.00000000000E+00  0.74505805969E-08  0.10566000000E+00  0.10566000000E+00 0.  1.
     999900   -1    0    0    0    0 -0.00000000000E+00 -0.00000000000E+00 -0.74505805969E-08  0.93827000000E+00  0.93827000000E+00 0.  1.
     999902    2    1    2    0    0 -0.62597413816E-02 -0.15001067838E-01 -0.18795577880E-01  0.10190806510E+01  0.10187776416E+01 0.  0.
     999903    2    3    3    0    0 -0.35525051050E-01 -0.80844857398E-01 -0.97004496490E-01  0.13267865532E+00  0.19895552734E-01 0.  0.
         14    1    1    2    0    0  0.62597413816E-02  0.15001067838E-01  0.18795577880E-01  0.24849349012E-01  0.00000000000E+00 0.  1.
     999901    1    3    3    0    0  0.29265309668E-01  0.65843789560E-01  0.78208918609E-01  0.88640199567E+00  0.88000000000E+00 0. -1.
        -11    1    4    4    0    0 -0.31979841629E-02 -0.11933220463E-01 -0.51789027234E-02  0.13405633433E-01  0.51100000000E-03 0.  1.
         11    1    4    4    0    0 -0.32327066887E-01 -0.68911636935E-01 -0.91825593766E-01  0.11927302189E+00  0.51100000000E-03 0. -1.
</event>
<event>
 7    1  0.5489035E+004  0.1043930E+01  0.7957747E-01            NaN
         13   -1    0    0    0    0  0.00000000000E+00  0.00000000000E+00  0.74505805969E-08  0.10566000000E+00  0.10566000000E+00 0. -1.
     999900   -1    0    0    0    0 -0.00000000000E+00 -0.00000000000E+00 -0.74505805969E-08  0.93827000000E+00  0.93827000000E+00 0.  1.
     999903    2    1    2    0    0  0.94303119619E-01 -0.49200669501E-01  0.81246384086E-02  0.10832970865E+00  0.18855550318E-01 0.  0.
         14    1    1    2    0    0  0.37656147964E-01 -0.17033877003E-01  0.12120087498E-01  0.43070116858E-01  0.00000000000E+00 0. -1.
     999901    1    1    2    0    0 -0.13195926758E+00  0.66234546504E-01 -0.20244725907E-01  0.89253017449E+00  0.88000000000E+00 0. -1.
        -11    1    3    3    0    0  0.85513807379E-01 -0.40397849913E-01  0.23519783929E-02  0.94606503230E-01  0.51100000000E-03 0.  1.
         11    1    3    3    0    0  0.87893122400E-02 -0.88028195884E-02  0.57726600157E-02  0.13723205421E-01  0.51100000000E-03 0. -1.
</event>
<event>
 8    1  0.5489035E+004  0.1043930E+01  0.7957747E-01            NaN
         13   -1    0    0    0    0  0.00000000000E+00  0.00000000000E+00  0.74505805969E-08  0.10566000000E+00  0.10566000000E+00 0.  1.
     999900   -1    0    0    0    0 -0.00000000000E+00 -0.00000000000E+00 -0.74505805969E-08  0.93827000000E+00  0.93827000000E+00 0.  1.
     999902    2    1    2    0    0 -0.15522764317E-01  0.14012286513E-01 -0.11487309794E-01  0.10200708577E+01  0.10197917905E+01 0.  0.
     999903    2    3    3    0    0 -0.73993937930E-01 -0.10500408860E+00  0.63785277846E-03  0.13005355715E+00  0.20311558270E-01 0.  0.
         14    1    1    2    0    0  0.15522764317E-01 -0.14012286513E-01  0.11487309794E-01  0.23859142308E-01  0.00000000000E+00 0.  1.
     999901    1    3    3    0    0  0.58471173613E-01  0.11901637511E+00 -0.12125162573E-01  0.89001730054E+00  0.88000000000E+00 0. -1.
        -11    1    4    4    0    0 -0.48541397854E-01 -0.83862953752E-01 -0.12605407620E-02  0.96907752021E-01  0.51100000000E-03 0. -1.
         11    1    4    4    0    0 -0.25452540076E-01 -0.21141134848E-01  0.18983935405E-02  0.33145805134E-01  0.51100000000E-03 0.  1.
</event>
<event>
 8    1  0.5489035E+004  0.1043930E+01  0.7957747E-01            NaN
         13   -1    0    0    0    0  0.00000000000E+00  0.00000000000E+00  0.74505805969E-08  0.10566000000E+00  0.10566000000E+00 0. -1.
     999900   -1    0    0    0    0 -0.00000000000E+00 -0.00000000000E+00 -0.74505805969E-08  0.93827000000E+00  0.93827000000E+00 0.  1.
     999902    2    1    2    0    0 -0.10822487137E-01  0.19907225717E-01 -0.53385834281E-02  0.10206507316E+01  0.10203852173E+01 0.  0.
     999903    2    3    3    0    0  0.58683211204E-01  0.64523961159E-01 -0.97145876250E-01  0.13202804779E+00  0.19672907547E-01 0.  0.
         14    1    1    2    0    0  0.10822487137E-01 -0.19907225717E-01  0.53385834281E-02  0.23279268386E-01  0.00000000000E+00 0. -1.
     999901    1    3    3    0    0 -0.69505698341E-01 -0.44616735442E-01  0.91807292822E-01  0.88862268382E+00  0.88000000000E+00 0. -1.
        -11    1    4    4    0    0  0.29001238745E-01  0.23220697227E-01 -0.52695444404E-01  0.64477465912E-01  0.51100000000E-03 0. -1.
         11    1    4    4    0    0  0.29681972459E-01  0.41303263932E-01 -0.44450431845E-01  0.67550581883E-01  0.51100000000E-03 0.  1.
</event>
<event>
 8    1  0.5489035E+004  0.1043930E+01  0.7957747E-01            NaN
         13   -1    0    0    0    0  0.00000000000E+00  0.00000000000E+00  0.74505805969E-08  0.10566000000E+00  0.10566000000E+00 0.  1.
     999900   -1    0    0    0    0 -0.00000000000E+00 -0.00000000000E+00 -0.74505805969E-08  0.93827000000E+00  0.93827000000E+00 0. -1.
     999902    2    1    2    0    0 -0.16282375763E-01 -0.78088442113E-02 -0.15399694239E-01  0.10201972296E+01  0.10199211454E+01 0.  0.
     999903    2    3    3    0    0 -0.30723948116E-01  0.12186304297E+00 -0.17752621529E-01  0.13057433555E+00  0.30658429560E-01 0.  0.
         14    1    1    2    0    0  0.16282375763E-01  0.78088442113E-02  0.15399694239E-01  0.23732770404E-01  0.00000000000E+00 0.  1.
     999901    1    3    3    0    0  0.14441572352E-01 -0.12967188719E+00  0.23529272898E-02  0.88962289404E+00  0.88000000000E+00 0.  1.
        -11    1    4    4    0    0 -0.14148169380E-01  0.57033202333E-01  0.70990643529E-02  0.59191339745E-01  0.51100000000E-03 0. -1.
         11    1    4    4    0    0 -0.16575778736E-01  0.64829840642E-01 -0.24851685881E-01  0.71382995808E-01  0.51100000000E-03 0.  1.
</event>
<event>
 8    1  0.5489035E+004  0.1043930E+01  0.7957747E-01            NaN
         13   -1    0    0    0    0  0.00000000000E+00  0.00000000000E+00  0.74505805969E-08  0.10566000000E+00  0.10566000000E+00 0.  1.
     999900   -1    0    0    0    0 -0.00000000000E+00 -0.00000000000E+00 -0.74505805969E-08  0.93827000000E+00  0.93827000000E+00 0.  1.
     999902    2    1    2    0    0  0.20923154490E-01 -0.10263988964E-01  0.32973692740E-02  0.10203927846E+01  0.10201212842E+01 0.  0.
     999903    2    3    3    0    0  0.57395452719E-01  0.10956473441E+00 -0.36787709331E-01  0.13061979953E+00  0.20236784617E-01 0.  0.
         14    1    1    2    0    0 -0.20923154490E-01  0.10263988964E-01 -0.32973692740E-02  0.23537215370E-01  0.00000000000E+00 0. -1.
     999901    1    3    3    0    0 -0.36472298229E-01 -0.11982872338E+00  0.40085078605E-01  0.88977298510E+00  0.88000000000E+00 0.  1.
        -11    1    4    4    0    0  0.29037011002E-01  0.45650267095E-01 -0.67812732667E-02  0.54528356677E-01  0.51100000000E-03 0. -1.
         11    1    4    4    0    0  0.28358441717E-01  0.63914467320E-01 -0.30006436064E-01  0.76091442854E-01  0.51100000000E-03 0.  1.
</event>
<event>
 8    1  0.5489035E+004  0.1043930E+01  0.7957747E-01            NaN
         13   -1    0    0    0    0  0.00000000000E+00  0.00000000000E+00  0.74505805969E-08  0.10566000000E+00  0.10566000000E+00 0. -1.
     999900   -1    0    0    0    0 -0.00000000000E+00 -0.00000000000E+00 -0.74505805969E-08  0.93827000000E+00  0.93827000000E+00 0. -1.
     999902    2    1    2    0    0  0.13608035206E-01  0.20428348944E-01 -0.11025735893E-01  0.10170215828E+01  0.10166655483E+01 0.  0.
     999903    2    3    3    0    0  0.65567405934E-01 -0.44114645824E-01  0.96719732784E-01  0.12658648671E+00  0.20597213658E-01 0.  0.
         14    1    1    2    0    0 -0.13608035206E-01 -0.20428348944E-01  0.11025735893E-01  0.26908417172E-01  0.00000000000E+00 0. -1.
     999901    1    3    3    0    0 -0.51959370728E-01  0.64542994768E-01 -0.10774546868E+00  0.89043509612E+00  0.88000000000E+00 0. -1.
        -11    1    4    4    0    0  0.16404717591E-01 -0.17787764401E-01  0.41879731179E-01  0.48370366199E-01  0.51100000000E-03 0. -1.
         11    1    4    4    0    0  0.49162688343E-01 -0.26326881423E-01  0.54840001605E-01  0.78216120510E-01  0.51100000000E-03 0.  1.
</event>
<event>
 8    1  0.5489035E+004  0.1043930E+01  0.7957747E-01            NaN
         13   -1    0    0    0    0  0.00000000000E+00  0.00000000000E+00  0.74505805969E-08  0.10566000000E+00  0.10566000000E+00 0. -1.
     999900   -1    0    0    0    0 -0.00000000000E+00 -0.00000000000E+00 -0.74505805969E-08  0.93827000000E+00  0.93827000000E+00 0.  1.
     999902    2    1    2    0    0  0.66960786169E-03  0.55161326151E-02 -0.23156051282E-01  0.10201165835E+01  0.10198385976E+01 0.  0.
     999903    2    3    3    0    0  0.56939415326E-01 -0.89880381166E-01 -0.74997452035E-01  0.13166044115E+00  0.19730028283E-01 0.  0.
         14    1    1    2    0    0 -0.66960786169E-03 -0.55161326151E-02  0.23156051282E-01  0.23813416485E-01  0.00000000000E+00 0. -1.
     999901    1    3    3    0    0 -0.56269807464E-01  0.95396513781E-01  0.51841400753E-01  0.88845614236E+00  0.88000000000E+00 0. -1.
        -11    1    4    4    0    0  0.15082439212E-01 -0.26830387528E-01 -0.32914359324E-01  0.45066238341E-01  0.51100000000E-03 0. -1.
         11    1    4    4    0    0  0.41856976114E-01 -0.63049993638E-01 -0.42083092711E-01  0.86594202810E-01  0.51100000000E-03 0.  1.
</event>
<event>
 8    1  0.5489035E+004  0.1043930E+01  0.7957747E-01            NaN
         13   -1    0    0    0    0  0.00000000000E+00  0.00000000000E+00  0.74505805969E-08  0.10566000000E+00  0.10566000000E+00 0. -1.
     999900   -1    0    0    0    0 -0.00000000000E+00 -0.00000000000E+00 -0.74505805969E-08  0.93827000000E+00  0.93827000000E+00 0. -1.
     999902    2    1    2    0    0  0.17833818797E-01  0.11492874668E-01 -0.73210681006E-02  0.10214860855E+01  0.10212394888E+01 0.  0.
     999903    2    3    3    0    0 -0.24769271667E-02  0.73608634999E-01 -0.10918723390E+00  0.13320256665E+00  0.19917464712E-01 0.  0.
         14    1    1    2    0    0 -0.17833818797E-01 -0.11492874668E-01  0.73210681006E-02  0.22443914524E-01  0.00000000000E+00 0. -1.
     999901    1    3    3    0    0  0.20310745964E-01 -0.62115760331E-01  0.10186616580E+00  0.88828351883E+00  0.88000000000E+00 0.  1.
        -11    1    4    4    0    0  0.53263117594E-02  0.60931472051E-01 -0.91753503322E-01  0.11027230104E+00  0.51100000000E-03 0. -1.
         11    1    4    4    0    0 -0.78032389262E-02  0.12677162948E-01 -0.17433730579E-01  0.22930265612E-01  0.51100000000E-03 0.  1.
</event>
<event>
 8    1  0.5489035E+004  0.1043930E+01  0.7957747E-01            NaN
         13   -1    0    0    0    0  0.00000000000E+00  0.00000000000E+00  0.74505805969E-08  0.10566000000E+00  0.10566000000E+00 0. -1.
     999900   -1    0    0    0    0 -0.00000000000E+00 -0.00000000000E+00 -0.74505805969E-08  0.93827000000E+00  0.93827000000E+00 0. -1.
     999902    2    1    2    0    0 -0.53477512530E-02  0.22767485859E-01 -0.22458993315E-02  0.10204353002E+01  0.10201647911E+01 0.  0.
     999903    2    3    3    0    0  0.11199631961E+00 -0.60485093862E-01  0.44348508678E-02  0.12872612370E+00  0.18684882558E-01 0.  0.
         14    1    1    2    0    0  0.53477512530E-02 -0.22767485859E-01  0.22458993315E-02  0.23494699819E-01  0.00000000000E+00 0. -1.
     999901    1    3    3    0    0 -0.11734407086E+00  0.83252579721E-01 -0.66807501993E-02  0.89170917648E+00  0.88000000000E+00 0.  1.
        -11    1    4    4    0    0  0.31021779898E-01 -0.18041861998E-01 -0.70692857731E-02  0.36579988173E-01  0.51100000000E-03 0.  1.
         11    1    4    4    0    0  0.80974539707E-01 -0.42443231864E-01  0.11504136641E-01  0.92146135528E-01  0.51100000000E-03 0. -1.
</event>
<event>
 8    1  0.5489035E+004  0.1043930E+01  0.7957747E-01            NaN
         13   -1    0    0    0    0  0.00000000000E+00  0.00000000000E+00  0.74505805969E-08  0.10566000000E+00  0.10566000000E+00 0.  1.
     999900   -1    0    0    0    0 -0.00000000000E+00 -0.00000000000E+00 -0.74505805969E-08  0.93827000000E+00  0.93827000000E+00 0. -1.
     999902    2    1    2    0    0 -0.49364881675E-03 -0.12672588852E-01 -0.19681801009E-01  0.10205160834E+01  0.10202474529E+01 0.  0.
     999903    2    3    3    0    0  0.84989247685E-01  0.41329525139E-01 -0.89612817820E-01  0.13197013583E+00  0.21315669446E-01 0.  0.
         14    1    1    2    0    0  0.49364881675E-03  0.12672588852E-01  0.19681801009E-01  0.23413916552E-01  0.00000000000E+00 0.  1.
     999901    1    3    3    0    0 -0.85482896502E-01 -0.54002113991E-01  0.69931016811E-01  0.88854594761E+00  0.88000000000E+00 0.  1.
        -11    1    4    4    0    0  0.32465860726E-01  0.27471304580E-01 -0.37884310568E-01  0.56957763266E-01  0.51100000000E-03 0.  1.
         11    1    4    4    0    0  0.52523386959E-01  0.13858220559E-01 -0.51728507252E-01  0.75012372567E-01  0.51100000000E-03 0. -1.
</event>
<event>
 8    1  0.5489035E+004  0.1043930E+01  0.7957747E-01            NaN
         13   -1    0    0    0    0  0.00000000000E+00  0.00000000000E+00  0.74505805969E-08  0.10566000000E+00  0.10566000000E+00 0.  1.
     999900   -1    0    0    0    0 -0.00000000000E+00 -0.00000000000E+00 -0.74505805969E-08  0.93827000000E+00  0.93827000000E+00 0.  1.
     999902    2    1    2    0    0  0.61393531539E-02 -0.21605065957E-01  0.18384302863E-02  0.10213944645E+01  0.10211458279E+01 0.  0.
     999903    2    3    3    0    0  0.11887469765E+00  0.25866859950E-03  0.55300875200E-01  0.13232443705E+00  0.17897183897E-01 0.  0.
         14    1    1    2    0    0 -0.61393531539E-02  0.21605065957E-01 -0.18384302863E-02  0.22535535452E-01  0.00000000000E+00 0.  1.
     999901    1    3    3    0    0 -0.11273534449E+00 -0.21863734557E-01 -0.53462444914E-01  0.88907002750E+00  0.88000000000E+00 0.  1.
        -11    1    4    4    0    0  0.60162064134E-01  0.88294937204E-02  0.30228091850E-01  0.67907529613E-01  0.51100000000E-03 0.  1.
         11    1    4    4    0    0  0.58712633513E-01 -0.85708251209E-02  0.25072783350E-01  0.64416907433E-01  0.51100000000E-03 0. -1.
</event>
<event>
 8    1  0.5489035E+004  0.1043930E+01  0.7957747E-01            NaN
         13   -1    0    0    0    0  0.00000000000E+00  0.00000000000E+00  0.74505805969E-08  0.10566000000E+00  0.10566000000E+00 0. -1.
     999900   -1    0    0    0    0 -0.00000000000E+00 -0.00000000000E+00 -0.74505805969E-08  0.93827000000E+00  0.93827000000E+00 0.  1.
     999902    2    1    2    0    0 -0.85934963387E-02  0.99664445457E-02  0.20184940728E-01  0.10198341491E+01  0.10195494504E+01 0.  0.
     999903    2    3    3    0    0 -0.17213751388E-01 -0.96194161296E-01  0.84758738226E-01  0.13106299842E+00  0.21067414322E-01 0.  0.
         14    1    1    2    0    0  0.85934963387E-02 -0.99664445457E-02 -0.20184940728E-01  0.24095850855E-01  0.00000000000E+00 0.  1.
     999901    1    3    3    0    0  0.86202550494E-02  0.10616060584E+00 -0.64573797497E-01  0.88877115072E+00  0.88000000000E+00 0.  1.
        -11    1    4    4    0    0 -0.20996579586E-02 -0.63493229004E-01  0.59683078915E-01  0.87167251435E-01  0.51100000000E-03 0.  1.
         11    1    4    4    0    0 -0.15114093430E-01 -0.32700932292E-01  0.25075659311E-01  0.43895746990E-01  0.51100000000E-03 0. -1.
</event>
<event>
 8    1  0.5489035E+004  0.1043930E+01  0.7957747E-01            NaN
         13   -1    0    0    0    0  0.00000000000E+00  0.00000000000E+00  0.74505805969E-08  0.10566000000E+00  0.10566000000E+00 0. -1.
     999900   -1    0    0    0    0 -0.00000000000E+00 -0.00000000000E+00 -0.74505805969E-08  0.93827000000E+00  0.93827000000E+00 0. -1.
     999902    2    1    2    0    0 -0.14638621264E-01 -0.14840962111E-01  0.11482871794E-01  0.10201308459E+01  0.10198531968E+01 0.  0.
     999903    2    3    3    0    0 -0.26077158107E-01  0.36703984886E-01  0.12204930786E+00  0.13164187108E+00  0.20158075059E-01 0.  0.
         14    1    1    2    0    0  0.14638621264E-01  0.14840962111E-01 -0.11482871794E-01  0.23799154050E-01  0.00000000000E+00 0.  1.
     999901    1    3    3    0    0  0.11438536844E-01 -0.51544946997E-01 -0.11056643607E+00  0.88848897487E+00  0.88000000000E+00 0. -1.
        -11    1    4    4    0    0 -0.60223468051E-02  0.17790389065E-01  0.72951234679E-01  0.75332000945E-01  0.51100000000E-03 0.  1.
         11    1    4    4    0    0 -0.20054811302E-01  0.18913595821E-01  0.49098073181E-01  0.56309870132E-01  0.51100000000E-03 0. -1.
</event>
<event>
 8    1  0.5489035E+004  0.1043930E+01  0.7957747E-01            NaN
         13   -1    0    0    0    0  0.00000000000E+00  0.00000000000E+00  0.74505805969E-08  0.10566000000E+00  0.10566000000E+00 0. -1.
     999900   -1    0    0    0    0 -0.00000000000E+00 -0.00000000000E+00 -0.74505805969E-08  0.93827000000E+00  0.93827000000E+00 0. -1.
     999902    2    1    2    0    0 -0.19272709175E-01 -0.85030493803E-02  0.11518740653E-01  0.10199212401E+01  0.10196386200E+01 0.  0.
     999903    2    3    3    0    0 -0.90727118659E-01  0.88407235093E-01 -0.25613170106E-01  0.13094648526E+00  0.21064145895E-01 0.  0.
         14    1    1    2    0    0  0.19272709175E-01  0.85030493803E-02 -0.11518740653E-01  0.24008759942E-01  0.00000000000E+00 0.  1.
     999901    1    3    3    0    0  0.71454409485E-01 -0.96910284473E-01  0.37131910759E-01  0.88897475480E+00  0.88000000000E+00 0.  1.
        -11    1    4    4    0    0 -0.49140713908E-01  0.56431458518E-01 -0.23536511368E-01  0.78444552152E-01  0.51100000000E-03 0.  1.
         11    1    4    4    0    0 -0.41586404751E-01  0.31975776575E-01 -0.20766587377E-02  0.52501933109E-01  0.51100000000E-03 0. -1.
</event>
<event>
 8    1  0.5489035E+004  0.1043930E+01  0.7957747E-01            NaN
         13   -1    0    0    0    0  0.00000000000E+00  0.00000000000E+00  0.74505805969E-08  0.10566000000E+00  0.10566000000E+00 0.  1.
     999900   -1    0    0    0    0 -0.00000000000E+00 -0.00000000000E+00 -0.74505805969E-08  0.93827000000E+00  0.93827000000E+00 0.  1.
     999902    2    1    2    0    0  0.16161592835E-01  0.12265207627E-01 -0.10654310453E-01  0.10210139198E+01  0.10207567182E+01 0.  0.
     999903    2    3    3    0    0  0.23682820807E-01 -0.10804354100E+00  0.64562558915E-01  0.12961707141E+00  0.19949396817E-01 0.  0.
         14    1    1    2    0    0 -0.16161592835E-01 -0.12265207627E-01  0.10654310453E-01  0.22916080213E-01  0.00000000000E+00 0. -1.
     999901    1    3    3    0    0 -0.75212279718E-02  0.12030874862E+00 -0.75216869369E-01  0.89139684838E+00  0.88000000000E+00 0. -1.
        -11    1    4    4    0    0  0.24590868787E-01 -0.74714106355E-01  0.40320406143E-01  0.88390637449E-01  0.51100000000E-03 0.  1.
         11    1    4    4    0    0 -0.90804797987E-03 -0.33329434643E-01  0.24242152772E-01  0.41226433957E-01  0.51100000000E-03 0. -1.
</event>
<event>
 8    1  0.5489035E+004  0.1043930E+01  0.7957747E-01            NaN
         13   -1    0    0    0    0  0.00000000000E+00  0.00000000000E+00  0.74505805969E-08  0.10566000000E+00  0.10566000000E+00 0.  1.
     999900   -1    0    0    0    0 -0.00000000000E+00 -0.00000000000E+00 -0.74505805969E-08  0.93827000000E+00  0.93827000000E+00 0. -1.
     999902    2    1    2    0    0 -0.81044164882E-02  0.60386380321E-02  0.22161355010E-01  0.10195728168E+01  0.10192818337E+01 0.  0.
     999903    2    3    3    0    0  0.98126903097E-01  0.47606093206E-01  0.69687405125E-01  0.13093809321E+00  0.19829790687E-01 0.  0.
         14    1    1    2    0    0  0.81044164882E-02 -0.60386380321E-02 -0.22161355010E-01  0.24357183166E-01  0.00000000000E+00 0. -1.
     999901    1    3    3    0    0 -0.10623131959E+00 -0.41567455174E-01 -0.47526050114E-01  0.88863472362E+00  0.88000000000E+00 0.  1.
        -11    1    4    4    0    0  0.81619827469E-01  0.38511624914E-01  0.48070135504E-01  0.10225429349E+00  0.51100000000E-03 0. -1.
         11    1    4    4    0    0  0.16507075629E-01  0.90944682922E-02  0.21617269621E-01  0.28683799716E-01  0.51100000000E-03 0.  1.
</event>
<event>
 8    1  0.5489035E+004  0.1043930E+01  0.7957747E-01            NaN
         13   -1    0    0    0    0  0.00000000000E+00  0.00000000000E+00  0.74505805969E-08  0.10566000000E+00  0.10566000000E+00 0. -1.
     999900   -1    0    0    0    0 -0.00000000000E+00 -0.00000000000E+00 -0.74505805969E-08  0.93827000000E+00  0.93827000000E+00 0. -1.
     999902    2    1    2    0    0 -0.15908296405E-01  0.14303854717E-01 -0.85086170311E-02  0.10209067353E+01  0.10206470945E+01 0.  0.
     999903    2    3    3    0    0 -0.21600341963E-01 -0.22304735230E-01 -0.12724291148E+00  0.13216019047E+00  0.17648836692E-01 0.  0.
         14    1    1    2    0    0  0.15908296405E-01 -0.14303854717E-01  0.85086170311E-02  0.23023264713E-01  0.00000000000E+00 0. -1.
     999901    1    3    3    0    0  0.56920455576E-02  0.36608589947E-01  0.11873429445E+00  0.88874654481E+00  0.88000000000E+00 0.  1.
        -11    1    4    4    0    0 -0.20369579837E-01 -0.19370460507E-01 -0.79792488391E-01  0.84600454181E-01  0.51100000000E-03 0.  1.
         11    1    4    4    0    0 -0.12307621255E-02 -0.29342747230E-02 -0.47450423091E-01  0.47559736291E-01  0.51100000000E-03 0. -1.
</event>
<event>
 8    1  0.5489035E+004  0.1043930E+01  0.7957747E-01            NaN
         13   -1    0    0    0    0  0.00000000000E+00  0.00000000000E+00  0.74505805969E-08  0.10566000000E+00  0.10566000000E+00 0. -1.
     999900   -1    0    0    0    0 -0.00000000000E+00 -0.00000000000E+00 -0.74505805969E-08  0.93827000000E+00  0.93827000000E+00 0.  1.
     999902    2    1    2    0    0 -0.32448816138E-02 -0.11942775175E-01 -0.19946963881E-01  0.10204557481E+01  0.10201857151E+01 0.  0.
     999903    2    3    3    0    0 -0.14340095870E-01 -0.11036485207E+00 -0.70717730691E-01  0.13344521839E+00  0.20508289896E-01 0.  0.
         14    1    1    2    0    0  0.32448816138E-02  0.11942775175E-01  0.19946963881E-01  0.23474251930E-01  0.00000000000E+00 0. -1.
     999901    1    3    3    0    0  0.11095214256E-01  0.98422076898E-01  0.50770766809E-01  0.88701052968E+00  0.88000000000E+00 0. -1.
        -11    1    4    4    0    0 -0.14250570646E-02 -0.50395621291E-01 -0.21566485561E-01  0.54837248777E-01  0.51100000000E-03 0.  1.
         11    1    4    4    0    0 -0.12915038805E-01 -0.59969230782E-01 -0.49151245130E-01  0.78607969613E-01  0.51100000000E-03 0. -1.
</event>
<event>
 8    1  0.5489035E+004  0.1043930E+01  0.7957747E-01            NaN
         13   -1    0    0    0    0  0.00000000000E+00  0.00000000000E+00  0.74505805969E-08  0.10566000000E+00  0.10566000000E+00 0. -1.
     999900   -1    0    0    0    0 -0.00000000000E+00 -0.00000000000E+00 -0.74505805969E-08  0.93827000000E+00  0.93827000000E+00 0. -1.
     999902    2    1    2    0    0 -0.17158157263E-02  0.22036771652E-01 -0.48232622362E-02  0.10213064020E+01  0.10210557965E+01 0.  0.
     999903    2    3    3    0    0 -0.11847696022E+00 -0.41942448403E-01 -0.29943265791E-01  0.13093708533E+00  0.21259399535E-01 0.  0.
         14    1    1    2    0    0  0.17158157263E-02 -0.22036771652E-01  0.48232622362E-02  0.22623598013E-01  0.00000000000E+00 0.  1.
     999901    1    3    3    0    0  0.11676114449E+00  0.63979220055E-01  0.25120003555E-01  0.89036931665E+00  0.88000000000E+00 0.  1.
        -11    1    4    4    0    0 -0.81613361851E-01 -0.36193163350E-01 -0.28023847454E-01  0.93575012973E-01  0.51100000000E-03 0. -1.
         11    1    4    4    0    0 -0.36863598367E-01 -0.57492850536E-02 -0.19194183368E-02  0.37362072359E-01  0.51100000000E-03 0.  1.
</event>
<event>
 8    1  0.5489035E+004  0.1043930E+01  0.7957747E-01            NaN
         13   -1    0    0    0    0  0.00000000000E+00  0.00000000000E+00  0.74505805969E-08  0.10566000000E+00  0.10566000000E+00 0. -1.
     999900   -1    0    0    0    0 -0.00000000000E+00 -0.00000000000E+00 -0.74505805969E-08  0.93827000000E+00  0.93827000000E+00 0. -1.
     999902    2    1    2    0    0 -0.77512315491E-02  0.20416348488E-02 -0.21961061863E-01  0.10205518456E+01  0.10202840445E+01 0.  0.
     999903    2    3    3    0    0  0.12521630529E-01  0.69651735726E-01  0.10514208041E+00  0.12862285549E+00  0.21927753250E-01 0.  0.
         14    1    1    2    0    0  0.77512315491E-02 -0.20416348488E-02  0.21961061863E-01  0.23378154366E-01  0.00000000000E+00 0. -1.
     999901    1    3    3    0    0 -0.20272862078E-01 -0.67610100878E-01 -0.12710314227E+00  0.89192899014E+00  0.88000000000E+00 0. -1.
        -11    1    4    4    0    0 -0.26523853354E-02  0.34157268203E-01  0.37945476399E-01  0.51126063991E-01  0.51100000000E-03 0.  1.
         11    1    4    4    0    0  0.15174015864E-01  0.35494467523E-01  0.67196604007E-01  0.77496791503E-01  0.51100000000E-03 0. -1.
</event>
<event>
 8    1  0.5489035E+004  0.1043930E+01  0.7957747E-01            NaN
         13   -1    0    0    0    0  0.00000000000E+00  0.00000000000E+00  0.74505805969E-08  0.10566000000E+00  0.10566000000E+00 0.  1.
     999900   -1    0    0    0    0 -0.00000000000E+00 -0.00000000000E+00 -0.74505805969E-08  0.93827000000E+00  0.93827000000E+00 0.  1.
     999902    2    1    2    0    0  0.76578824235E-02  0.24076918637E-02  0.22356836946E-01  0.10201756677E+01  0.10198990758E+01 0.  0.
     999903    2    3    3    0    0  0.16799355251E-01  0.24128673905E-01 -0.12301319309E+00  0.12793813589E+00  0.19274586935E-01 0.  0.
         14    1    1    2    0    0 -0.76578824235E-02 -0.24076918637E-02 -0.22356836946E-01  0.23754332269E-01  0.00000000000E+00 0. -1.
     999901    1    3    3    0    0 -0.91414728277E-02 -0.21720982041E-01  0.14537003003E+00  0.89223753184E+00  0.88000000000E+00 0. -1.
        -11    1    4    4    0    0  0.18936182436E-01  0.25355192889E-01 -0.10260929743E+00  0.10737967150E+00  0.51100000000E-03 0.  1.
         11    1    4    4    0    0 -0.21368271844E-02 -0.12265189839E-02 -0.20403895656E-01  0.20558464392E-01  0.51100000000E-03 0. -1.
</event>
<event>
 8    1  0.5489035E+004  0.1043930E+01  0.7957747E-01            NaN
         13   -1    0    0    0    0  0.00000000000E+00  0.00000000000E+00  0.74505805969E-08  0.10566000000E+00  0.10566000000E+00 0.  1.
     999900   -1    0    0    0    0 -0.00000000000E+00 -0.00000000000E+00 -0.74505805969E-08  0.93827000000E+00  0.93827000000E+00 0. -1.
     999902    2    1    2    0    0 -0.21539214559E-01  0.30650744565E-04 -0.11753501994E-01  0.10193926099E+01  0.10190972523E+01 0.  0.
     999903    2    3    3    0    0  0.92678680988E-01  0.81506651588E-01  0.24681098422E-01  0.12753413096E+00  0.20570021307E-01 0.  0.
         14    1    1    2    0    0  0.21539214559E-01 -0.30650744565E-04  0.11753501994E-01  0.24537390089E-01  0.00000000000E+00 0.  1.
     999901    1    3    3    0    0 -0.11421789555E+00 -0.81476000844E-01 -0.36434600416E-01  0.89185847896E+00  0.88000000000E+00 0.  1.
        -11    1    4    4    0    0  0.56202995830E-01  0.56175636118E-01  0.71457143745E-02  0.79785971125E-01  0.51100000000E-03 0.  1.
         11    1    4    4    0    0  0.36475685158E-01  0.25331015470E-01  0.17535384047E-01  0.47748159830E-01  0.51100000000E-03 0. -1.
</event>
<event>
 8    1  0.5489035E+004  0.1043930E+01  0.7957747E-01            NaN
         13   -1    0    0    0    0  0.00000000000E+00  0.00000000000E+00  0.74505805969E-08  0.10566000000E+00  0.10566000000E+00 0. -1.
     999900   -1    0    0    0    0 -0.00000000000E+00 -0.00000000000E+00 -0.74505805969E-08  0.93827000000E+00  0.93827000000E+00 0. -1.
     999902    2    1    2    0    0  0.87407434824E-02 -0.30083567608E-02 -0.20453763855E-01  0.10214843487E+01  0.10212377134E+01 0.  0.
     999903    2    3    3    0    0  0.43382126080E-01 -0.51413795045E-02  0.12042434693E+00  0.12960362949E+00  0.19663031272E-01 0.  0.
         14    1    1    2    0    0 -0.87407434824E-02  0.30083567608E-02  0.20453763855E-01  0.22445651313E-01  0.00000000000E+00 0. -1.
     999901    1    3    3    0    0 -0.34641382598E-01  0.21330227437E-02 -0.14087811078E+00  0.89188071919E+00  0.88000000000E+00 0. -1.
        -11    1    4    4    0    0  0.29061107959E-01  0.40588221914E-03  0.52976551806E-01  0.60427550823E-01  0.51100000000E-03 0. -1.
         11    1    4    4    0    0  0.14321018120E-01 -0.55472617236E-02  0.67447795119E-01  0.69176078669E-01  0.51100000000E-03 0.  1.
</event>
<event>
 8    1  0.5489035E+004  0.1043930E+01  0.7957747E-01            NaN
         13   -1    0    0    0    0  0.00000000000E+00  0.00000000000E+00  0.74505805969E-08  0.10566000000E+00  0.10566000000E+00 0.  1.
     999900   -1    0    0    0    0 -0.00000000000E+00 -0.00000000000E+00 -0.74505805969E-08  0.93827000000E+00  0.93827000000E+00 0. -1.
     999902    2    1    2    0    0  0.84322326114E-02  0.73190609240E-02  0.20802458414E-01  0.10203203944E+01  0.10200472017E+01 0.  0.
     999903    2    3    3    0    0 -0.76518049834E-01 -0.63738390805E-01  0.82812935665E-01  0.13121353289E+00  0.21009866410E-01 0.  0.
         14    1    1    2    0    0 -0.84322326114E-02 -0.73190609240E-02 -0.20802458414E-01  0.23609605581E-01  0.00000000000E+00 0. -1.
     999901    1    3    3    0    0  0.84950282445E-01  0.71057451729E-01 -0.62010477251E-01  0.88910686153E+00  0.88000000000E+00 0. -1.
        -11    1    4    4    0    0 -0.63603230874E-01 -0.41642866597E-01  0.58732549382E-01  0.96069104263E-01  0.51100000000E-03 0.  1.
         11    1    4    4    0    0 -0.12914818960E-01 -0.22095524207E-01  0.24080386283E-01  0.35144428624E-01  0.51100000000E-03 0. -1.
</event>
<event>
 8    1  0.5489035E+004  0.1043930E+01  0.7957747E-01            NaN
         13   -1    0    0    0    0  0.00000000000E+00  0.00000000000E+00  0.74505805969E-08  0.10566000000E+00  0.10566000000E+00 0.  1.
     999900   -1    0    0    0    0 -0.00000000000E+00 -0.00000000000E+00 -0.74505805969E-08  0.93827000000E+00  0.93827000000E+00 0.  1.
     999902    2    1    2    0    0  0.19596973670E-01  0.12662910140E-01 -0.45642166552E-02  0.10201555864E+01  0.10198785210E+01 0.  0.
     999903    2    3    3    0    0 -0.12415936063E+00 -0.59360586315E-02  0.22504471452E-01  0.12788627771E+00  0.19941543736E-01 0.  0.
         14    1    1    2    0    0 -0.19596973670E-01 -0.12662910140E-01  0.45642166552E-02  0.23774413640E-01  0.00000000000E+00 0. -1.
     999901    1    3    3    0    0  0.14375633430E+00  0.18598968771E-01 -0.27068688108E-01  0.89226930865E+00  0.88000000000E+00 0. -1.
        -11    1    4    4    0    0 -0.99793372789E-01 -0.11695995326E-01  0.21897582286E-01  0.10283617452E+00  0.51100000000E-03 0. -1.
         11    1    4    4    0    0 -0.24365987839E-01  0.57599366946E-02  0.60688916639E-03  0.25050103184E-01  0.51100000000E-03 0.  1.
</event>
<event>
 8    1  0.5489035E+004  0.1043930E+01  0.7957747E-01            NaN
         13   -1    0    0    0    0  0.00000000000E+00  0.00000000000E+00  0.74505805969E-08  0.10566000000E+00  0.10566000000E+00 0. -1.
     999900   -1    0    0    0    0 -0.00000000000E+00 -0.00000000000E+00 -0.74505805969E-08  0.93827000000E+00  0.93827000000E+00 0.  1.
     999902    2    1    2    0    0  0.15053571315E-01  0.10951857738E-02  0.18122007918E-01  0.10203457550E+01  0.10200731558E+01 0.  0.
     999903    2    3    3    0    0 -0.10893139070E+00  0.49415453192E-01  0.46686854756E-01  0.12988347645E+00  0.19547893860E-01 0.  0.
         14    1    1    2    0    0 -0.15053571315E-01 -0.10951857738E-02 -0.18122007918E-01  0.23584244999E-01  0.00000000000E+00 0.  1.
     999901    1    3    3    0    0  0.12398496201E+00 -0.48320267419E-01 -0.28564846838E-01  0.89046227855E+00  0.88000000000E+00 0.  1.
        -11    1    4    4    0    0 -0.27575260691E-01  0.87979438424E-02  0.33215862103E-02  0.29139198238E-01  0.51100000000E-03 0. -1.
         11    1    4    4    0    0 -0.81356130006E-01  0.40617509350E-01  0.43365268546E-01  0.10074427821E+00  0.51100000000E-03 0.  1.
</event>
<event>
 8    1  0.5489035E+004  0.1043930E+01  0.7957747E-01            NaN
         13   -1    0    0    0    0  0.00000000000E+00  0.00000000000E+00  0.74505805969E-08  0.10566000000E+00  0.10566000000E+00 0. -1.
     999900   -1    0    0    0    0 -0.00000000000E+00 -0.00000000000E+00 -0.74505805969E-08  0.93827000000E+00  0.93827000000E+00 0. -1.
     999902    2    1    2    0    0  0.19090125420E-01  0.95561297137E-02 -0.11027456914E-01  0.10199017394E+01  0.10196186545E+01 0.  0.
     999903    2    3    3    0    0 -0.69770587821E-01  0.47076202890E-01  0.94945410526E-01  0.12831089660E+00  0.19103701297E-01 0.  0.
         14    1    1    2    0    0 -0.19090125420E-01 -0.95561297137E-02  0.11027456914E-01  0.24028260645E-01  0.00000000000E+00 0. -1.
     999901    1    3    3    0    0  0.88860713241E-01 -0.37520073176E-01 -0.10597286744E+00  0.89159084275E+00  0.88000000000E+00 0. -1.
        -11    1    4    4    0    0 -0.50507808988E-01  0.41576075654E-01  0.79820245348E-01  0.10320436776E+00  0.51100000000E-03 0.  1.
         11    1    4    4    0    0 -0.19262778833E-01  0.55001272354E-02  0.15125165177E-01  0.25106528844E-01  0.51100000000E-03 0. -1.
</event>
<event>
 8    1  0.5489035E+004  0.1043930E+01  0.7957747E-01            NaN
         13   -1    0    0    0    0  0.00000000000E+00  0.00000000000E+00  0.74505805969E-08  0.10566000000E+00  0.10566000000E+00 0.  1.
     999900   -1    0    0    0    0 -0.00000000000E+00 -0.00000000000E+00 -0.74505805969E-08  0.93827000000E+00  0.93827000000E+00 0. -1.
     999902    2    1    2    0    0  0.14994616517E-01  0.14498408135E-01 -0.11044695913E-01  0.10203285663E+01  0.10200555650E+01 0.  0.
     999903    2    3    3    0    0  0.72849090043E-01  0.65269496498E-01 -0.88361144206E-01  0.13359147075E+00  0.21723078937E-01 0.  0.
         14    1    1    2    0    0 -0.14994616517E-01 -0.14498408135E-01  0.11044695913E-01  0.23601433659E-01  0.00000000000E+00 0. -1.
     999901    1    3    3    0    0 -0.57854473525E-01 -0.50771088363E-01  0.77316448293E-01  0.88673709559E+00  0.88000000000E+00 0.  1.
        -11    1    4    4    0    0  0.63623955617E-01  0.53550021398E-01 -0.83620067072E-01  0.11793298630E+00  0.51100000000E-03 0. -1.
         11    1    4    4    0    0  0.92251344260E-02  0.11719475100E-01 -0.47410771337E-02  0.15658484447E-01  0.51100000000E-03 0.  1.
</event>
<event>
 8    1  0.5489035E+004  0.1043930E+01  0.7957747E-01            NaN
         13   -1    0    0    0    0  0.00000000000E+00  0.00000000000E+00  0.74505805969E-08  0.10566000000E+00  0.10566000000E+00 0.  1.
     999900   -1    0    0    0    0 -0.00000000000E+00 -0.00000000000E+00 -0.74505805969E-08  0.93827000000E+00  0.93827000000E+00 0. -1.
     999902    2    1    2    0    0  0.13113983306E-01  0.85993372120E-03  0.19961362850E-01  0.10200307939E+01  0.10197507776E+01 0.  0.
     999903    2    3    3    0    0 -0.77142103015E-01  0.55039864108E-01 -0.83182974309E-01  0.12777501207E+00  0.20658068518E-01 0.  0.
         14    1    1    2    0    0 -0.13113983306E-01 -0.85993372120E-03 -0.19961362850E-01  0.23899206074E-01  0.00000000000E+00 0.  1.
     999901    1    3    3    0    0  0.90256086320E-01 -0.54179930387E-01  0.10314433716E+00  0.89225578186E+00  0.88000000000E+00 0.  1.
        -11    1    4    4    0    0 -0.27816932591E-01  0.86109925046E-02 -0.22078742174E-01  0.36546722256E-01  0.51100000000E-03 0. -1.
         11    1    4    4    0    0 -0.49325170423E-01  0.46428871604E-01 -0.61104232135E-01  0.91228289809E-01  0.51100000000E-03 0.  1.
</event>
<event>
 8    1  0.5489035E+004  0.1043930E+01  0.7957747E-01            NaN
         13   -1    0    0    0    0  0.00000000000E+00  0.00000000000E+00  0.74505805969E-08  0.10566000000E+00  0.10566000000E+00 0.  1.
     999900   -1    0    0    0    0 -0.00000000000E+00 -0.00000000000E+00 -0.74505805969E-08  0.93827000000E+00  0.93827000000E+00 0.  1.
     999902    2    1    2    0    0  0.16277661259E-01  0.14932728276E-01 -0.80780966897E-02  0.10204097050E+01  0.10201385993E+01 0.  0.
     999903    2    3    3    0    0  0.21918297272E-02  0.10707223114E+00 -0.76367960363E-01  0.13285598602E+00  0.18691732166E-01 0.  0.
         14    1    1    2    0    0 -0.16277661259E-01 -0.14932728276E-01  0.80780966897E-02  0.23520294980E-01  0.00000000000E+00 0.  1.
     999901    1    3    3    0    0  0.14085831532E-01 -0.92139502863E-01  0.68289863673E-01  0.88755371900E+00  0.88000000000E+00 0. -1.
        -11    1    4    4    0    0 -0.58683903294E-02  0.48889720455E-01 -0.42526004770E-01  0.65064314136E-01  0.51100000000E-03 0. -1.
         11    1    4    4    0    0  0.80602200566E-02  0.58182510684E-01 -0.33841955593E-01  0.67791671879E-01  0.51100000000E-03 0.  1.
</event>
<event>
 8    1  0.5489035E+004  0.1043930E+01  0.7957747E-01            NaN
         13   -1    0    0    0    0  0.00000000000E+00  0.00000000000E+00  0.74505805969E-08  0.10566000000E+00  0.10566000000E+00 0. -1.
     999900   -1    0    0    0    0 -0.00000000000E+00 -0.00000000000E+00 -0.74505805969E-08  0.93827000000E+00  0.93827000000E+00 0. -1.
     999902    2    1    2    0    0 -0.11105349240E-01  0.85074060967E-02 -0.18799587291E-01  0.10204964936E+01  0.10202274081E+01 0.  0.
     999903    2    3    3    0    0  0.35092643256E-01  0.97763868074E-01 -0.79972802746E-01  0.13266591696E+00  0.20379618061E-01 0.  0.
         14    1    1    2    0    0  0.11105349240E-01 -0.85074060967E-02  0.18799587291E-01  0.23433506407E-01  0.00000000000E+00 0. -1.
     999901    1    3    3    0    0 -0.46197992496E-01 -0.89256461977E-01  0.61173215455E-01  0.88783057663E+00  0.88000000000E+00 0.  1.
        -11    1    4    4    0    0  0.18341135897E-01  0.49888926545E-01 -0.28146776283E-01  0.60148186955E-01  0.51100000000E-03 0.  1.
         11    1    4    4    0    0  0.16751507359E-01  0.47874941529E-01 -0.51826026463E-01  0.72517730005E-01  0.51100000000E-03 0. -1.
</event>
<event>
 8    1  0.5489035E+004  0.1043930E+01  0.7957747E-01            NaN
         13   -1    0    0    0    0  0.00000000000E+00  0.00000000000E+00  0.74505805969E-08  0.10566000000E+00  0.10566000000E+00 0.  1.
     999900   -1    0    0    0    0 -0.00000000000E+00 -0.00000000000E+00 -0.74505805969E-08  0.93827000000E+00  0.93827000000E+00 0. -1.
     999902    2    1    2    0    0  0.12121157774E-02 -0.65439347707E-02  0.21803976697E-01  0.10211329452E+01  0.10208784385E+01 0.  0.
     999903    2    3    3    0    0 -0.11537576968E+00  0.24129702927E-01 -0.50992044280E-01  0.12993551044E+00  0.19729102896E-01 0.  0.
         14    1    1    2    0    0 -0.12121157774E-02  0.65439347707E-02 -0.21803976697E-01  0.22797054782E-01  0.00000000000E+00 0. -1.
     999901    1    3    3    0    0  0.11658788546E+00 -0.30673637698E-01  0.72796020977E-01  0.89119743478E+00  0.88000000000E+00 0.  1.
        -11    1    4    4    0    0 -0.74375154531E-01  0.17569526102E-01 -0.22828902914E-01  0.79760715821E-01  0.51100000000E-03 0. -1.
         11    1    4    4    0    0 -0.41000615148E-01  0.65601768258E-02 -0.28163141367E-01  0.50174794619E-01  0.51100000000E-03 0.  1.
</event>
<event>
 8    1  0.5489035E+004  0.1043930E+01  0.7957747E-01            NaN
         13   -1    0    0    0    0  0.00000000000E+00  0.00000000000E+00  0.74505805969E-08  0.10566000000E+00  0.10566000000E+00 0.  1.
     999900   -1    0    0    0    0 -0.00000000000E+00 -0.00000000000E+00 -0.74505805969E-08  0.93827000000E+00  0.93827000000E+00 0.  1.
     999902    2    1    2    0    0  0.13905756915E-01 -0.11600947211E-01 -0.14587268419E-01  0.10206761734E+01  0.10204112458E+01 0.  0.
     999903    2    3    3    0    0  0.10204248377E+00  0.60650295899E-01 -0.55094420759E-01  0.13240304303E+00  0.20100838752E-01 0.  0.
         14    1    1    2    0    0 -0.13905756915E-01  0.11600947211E-01  0.14587268419E-01  0.23253826599E-01  0.00000000000E+00 0.  1.
     999901    1    3    3    0    0 -0.88136726851E-01 -0.72251243110E-01  0.40507152340E-01  0.88827313037E+00  0.88000000000E+00 0. -1.
        -11    1    4    4    0    0  0.32971870812E-01  0.29753912357E-01 -0.15807169414E-01  0.47144111947E-01  0.51100000000E-03 0.  1.
         11    1    4    4    0    0  0.69070612954E-01  0.30896383542E-01 -0.39287251345E-01  0.85258931081E-01  0.51100000000E-03 0. -1.
</event>
<event>
 8    1  0.5489035E+004  0.1043930E+01  0.7957747E-01            NaN
         13   -1    0    0    0    0  0.00000000000E+00  0.00000000000E+00  0.74505805969E-08  0.10566000000E+00  0.10566000000E+00 0.  1.
     999900   -1    0    0    0    0 -0.00000000000E+00 -0.00000000000E+00 -0.74505805969E-08  0.93827000000E+00  0.93827000000E+00 0. -1.
     999902    2    1    2    0    0  0.10741600169E-01 -0.15843832346E-01  0.15752518115E-01  0.10191398644E+01  0.10188383151E+01 0.  0.
     999903    2    3    3    0    0  0.35067655585E-01  0.90167813157E-01  0.82392244782E-01  0.12994299127E+00  0.27142659842E-01 0.  0.
         14    1    1    2    0    0 -0.10741600169E-01  0.15843832346E-01 -0.15752518115E-01  0.24790135630E-01  0.00000000000E+00 0.  1.
     999901    1    3    3    0    0 -0.24326055416E-01 -0.10601164550E+00 -0.66639726667E-01  0.88919687310E+00  0.88000000000E+00 0. -1.
        -11    1    4    4    0    0  0.19487399945E-01  0.60676478397E-01  0.69187145856E-01  0.94066551228E-01  0.51100000000E-03 0.  1.
         11    1    4    4    0    0  0.15580255639E-01  0.29491334760E-01  0.13205098926E-01  0.35876440046E-01  0.51100000000E-03 0. -1.
</event>
<event>
 8    1  0.5489035E+004  0.1043930E+01  0.7957747E-01            NaN
         13   -1    0    0    0    0  0.00000000000E+00  0.00000000000E+00  0.74505805969E-08  0.10566000000E+00  0.10566000000E+00 0.  1.
     999900   -1    0    0    0    0 -0.00000000000E+00 -0.00000000000E+00 -0.74505805969E-08  0.93827000000E+00  0.93827000000E+00 0. -1.
     999902    2    1    2    0    0 -0.17611117210E-01 -0.16538464279E-01  0.57727169424E-02  0.10190905855E+01  0.10187878214E+01 0.  0.
     999903    2    3    3    0    0  0.12027387318E+00 -0.39333584723E-01 -0.41568676280E-02  0.12800670355E+00  0.18854738081E-01 0.  0.
         14    1    1    2    0    0  0.17611117210E-01  0.16538464279E-01 -0.57727169424E-02  0.24839414466E-01  0.00000000000E+00 0. -1.
     999901    1    3    3    0    0 -0.13788499039E+00  0.22795120444E-01  0.99295845704E-02  0.89108388199E+00  0.88000000000E+00 0.  1.
        -11    1    4    4    0    0  0.10391688940E+00 -0.29016238707E-01  0.13179170726E-02  0.10790115865E+00  0.51100000000E-03 0.  1.
         11    1    4    4    0    0  0.16356983774E-01 -0.10317346016E-01 -0.54747847006E-02  0.20105544895E-01  0.51100000000E-03 0. -1.
</event>
<event>
 8    1  0.5489035E+004  0.1043930E+01  0.7957747E-01            NaN
         13   -1    0    0    0    0  0.00000000000E+00  0.00000000000E+00  0.74505805969E-08  0.10566000000E+00  0.10566000000E+00 0.  1.
     999900   -1    0    0    0    0 -0.00000000000E+00 -0.00000000000E+00 -0.74505805969E-08  0.93827000000E+00  0.93827000000E+00 0.  1.
     999902    2    1    2    0    0  0.31647816147E-02  0.36554539345E-04 -0.21679184640E-01  0.10220210013E+01  0.10217861434E+01 0.  0.
     999903    2    3    3    0    0 -0.11462959608E+00  0.35586140170E-01 -0.55423499354E-01  0.13282025496E+00  0.12772555584E-01 0.  0.
         14    1    1    2    0    0 -0.31647816147E-02 -0.36554539345E-04  0.21679184640E-01  0.21908998735E-01  0.00000000000E+00 0.  1.
     999901    1    3    3    0    0  0.11779437770E+00 -0.35549585630E-01  0.33744314713E-01  0.88920074631E+00  0.88000000000E+00 0. -1.
        -11    1    4    4    0    0 -0.78133061819E-01  0.24004524812E-01 -0.44157438219E-01  0.92903891370E-01  0.51100000000E-03 0. -1.
         11    1    4    4    0    0 -0.36496534265E-01  0.11581615357E-01 -0.11266061135E-01  0.39916363588E-01  0.51100000000E-03 0.  1.
</event>
<event>
 8    1  0.5489035E+004  0.1043930E+01  0.7957747E-01            NaN
         13   -1    0    0    0    0  0.00000000000E+00  0.00000000000E+00  0.74505805969E-08  0.10566000000E+00  0.10566000000E+00 0. -1.
     999900   -1    0    0    0    0 -0.00000000000E+00 -0.00000000000E+00 -0.74505805969E-08  0.93827000000E+00  0.93827000000E+00 0.  1.
     999902    2    1    2    0    0  0.16272125627E-02 -0.90809886864E-02  0.29756686327E-01  0.10127759865E+01  0.10122967086E+01 0.  0.
     999903    2    3    3    0    0  0.38872023307E-01  0.29257830907E-01 -0.10833371433E+00  0.12040498754E+00  0.19852266857E-01 0.  0.
         14    1    1    2    0    0 -0.16272125627E-02  0.90809886864E-02 -0.29756686327E-01  0.31154013504E-01  0.00000000000E+00 0.  1.
     999901    1    3    3    0    0 -0.37244810745E-01 -0.38338819593E-01  0.13809040066E+00  0.89237099895E+00  0.88000000000E+00 0. -1.
        -11    1    4    4    0    0  0.26359459302E-01  0.29714869143E-01 -0.76632151119E-01  0.86316523616E-01  0.51100000000E-03 0. -1.
         11    1    4    4    0    0  0.12512564005E-01 -0.45703823677E-03 -0.31701563212E-01  0.34088463929E-01  0.51100000000E-03 0.  1.
</event>
<event>
 8    1  0.5489035E+004  0.1043930E+01  0.7957747E-01            NaN
         13   -1    0    0    0    0  0.00000000000E+00  0.00000000000E+00  0.74505805969E-08  0.10566000000E+00  0.10566000000E+00 0.  1.
     999900   -1    0    0    0    0 -0.00000000000E+00 -0.00000000000E+00 -0.74505805969E-08  0.93827000000E+00  0.93827000000E+00 0. -1.
     999902    2    1    2    0    0 -0.13667194935E-01 -0.19451181280E-01  0.20242289891E-02  0.10200712873E+01  0.10197922303E+01 0.  0.
     999903    2    3    3    0    0  0.12907492124E-01  0.17548820459E-01 -0.12618349992E+00  0.12961497959E+00  0.20079911111E-01 0.  0.
         14    1    1    2    0    0  0.13667194935E-01  0.19451181280E-01 -0.20242289891E-02  0.23858712739E-01  0.00000000000E+00 0.  1.
     999901    1    3    3    0    0 -0.26574687059E-01 -0.37000001738E-01  0.12820772891E+00  0.89045630767E+00  0.88000000000E+00 0.  1.
        -11    1    4    4    0    0  0.16756181201E-01  0.19009321676E-01 -0.11232528901E+00  0.11514927526E+00  0.51100000000E-03 0. -1.
         11    1    4    4    0    0 -0.38486890768E-02 -0.14605012170E-02 -0.13858210902E-01  0.14465704332E-01  0.51100000000E-03 0.  1.
</event>
<event>
 8    1  0.5489035E+004  0.1043930E+01  0.7957747E-01            NaN
         13   -1    0    0    0    0  0.00000000000E+00  0.00000000000E+00  0.74505805969E-08  0.10566000000E+00  0.10566000000E+00 0. -1.
     999900   -1    0    0    0    0 -0.00000000000E+00 -0.00000000000E+00 -0.74505805969E-08  0.93827000000E+00  0.93827000000E+00 0. -1.
     999902    2    1    2    0    0 -0.13341613701E-01 -0.14748835617E-01 -0.50693019802E-02  0.10234062423E+01  0.10232004262E+01 0.  0.
     999903    2    3    3    0    0 -0.60430102380E-02  0.97566990042E-01 -0.87104075674E-01  0.13245292229E+00  0.20020517144E-01 0.  0.
         14    1    1    2    0    0  0.13341613701E-01  0.14748835617E-01  0.50693019802E-02  0.20523757716E-01  0.00000000000E+00 0. -1.
     999901    1    3    3    0    0 -0.72986034626E-02 -0.11231582566E+00  0.82034773694E-01  0.89095331999E+00  0.88000000000E+00 0.  1.
        -11    1    4    4    0    0 -0.55732691761E-03  0.84592337613E-01 -0.67073485431E-01  0.10795965804E+00  0.51100000000E-03 0. -1.
         11    1    4    4    0    0 -0.54856833204E-02  0.12974652429E-01 -0.20030590243E-01  0.24493264250E-01  0.51100000000E-03 0.  1.
</event>
<event>
 8    1  0.5489035E+004  0.1043930E+01  0.7957747E-01            NaN
         13   -1    0    0    0    0  0.00000000000E+00  0.00000000000E+00  0.74505805969E-08  0.10566000000E+00  0.10566000000E+00 0. -1.
     999900   -1    0    0    0    0 -0.00000000000E+00 -0.00000000000E+00 -0.74505805969E-08  0.93827000000E+00  0.93827000000E+00 0.  1.
     999902    2    1    2    0    0 -0.17489148171E-01 -0.13895641619E-01  0.62017128646E-02  0.10207476705E+01  0.10204843881E+01 0.  0.
     999903    2    3    3    0    0 -0.79012932533E-02  0.12626206324E+00 -0.17341624113E-01  0.12929357861E+00  0.20286904462E-01 0.  0.
         14    1    1    2    0    0  0.17489148171E-01  0.13895641619E-01 -0.62017128646E-02  0.23182329525E-01  0.00000000000E+00 0.  1.
     999901    1    3    3    0    0 -0.95878549173E-02 -0.14015770486E+00  0.23543336978E-01  0.89145409187E+00  0.88000000000E+00 0. -1.
        -11    1    4    4    0    0 -0.11752103661E-01  0.74570996937E-01 -0.17330383326E-01  0.77456754592E-01  0.51100000000E-03 0. -1.
         11    1    4    4    0    0  0.38508104079E-02  0.51691066305E-01 -0.11240787319E-04  0.51836824014E-01  0.51100000000E-03 0.  1.
</event>
<event>
 8    1  0.5489035E+004  0.1043930E+01  0.7957747E-01            NaN
         13   -1    0    0    0    0  0.00000000000E+00  0.00000000000E+00  0.74505805969E-08  0.10566000000E+00  0.10566000000E+00 0. -1.
     999900   -1    0    0    0    0 -0.00000000000E+00 -0.00000000000E+00 -0.74505805969E-08  0.93827000000E+00  0.93827000000E+00 0.  1.
     999902    2    1    2    0    0 -0.13388983213E-01 -0.92071088334E-02  0.17113380097E-01  0.10203311970E+01  0.10200582572E+01 0.  0.
     999903    2    3    3    0    0 -0.11834044583E+00  0.35764965623E-01 -0.36158930573E-01  0.13135693637E+00  0.25760096785E-01 0.  0.
         14    1    1    2    0    0  0.13388983213E-01  0.92071088334E-02 -0.17113380097E-01  0.23598802997E-01  0.00000000000E+00 0.  1.
     999901    1    3    3    0    0  0.10495146262E+00 -0.44972074456E-01  0.53272310670E-01  0.88897426063E+00  0.88000000000E+00 0. -1.
        -11    1    4    4    0    0 -0.17127376046E-01  0.87336957788E-02 -0.15212650505E-01  0.24521629403E-01  0.51100000000E-03 0. -1.
         11    1    4    4    0    0 -0.10121306979E+00  0.27031269844E-01 -0.20946280068E-01  0.10683530697E+00  0.51100000000E-03 0.  1.
</event>
<event>
 8    1  0.5489035E+004  0.1043930E+01  0.7957747E-01            NaN
         13   -1    0    0    0    0  0.00000000000E+00  0.00000000000E+00  0.74505805969E-08  0.10566000000E+00  0.10566000000E+00 0. -1.
     999900   -1    0    0    0    0 -0.00000000000E+00 -0.00000000000E+00 -0.74505805969E-08  0.93827000000E+00  0.93827000000E+00 0. -1.
     999902    2    1    2    0    0 -0.12169435003E-01  0.20453735839E-01 -0.43543141052E-02  0.10197347420E+01  0.10194476610E+01 0.  0.
     999903    2    3    3    0    0  0.17409622594E-01 -0.18278564015E-01  0.12493085494E+00  0.12895431640E+00  0.19603477778E-01 0.  0.
         14    1    1    2    0    0  0.12169435003E-01 -0.20453735839E-01  0.43543141052E-02  0.24195257994E-01  0.00000000000E+00 0.  1.
     999901    1    3    3    0    0 -0.29579057597E-01  0.38732299854E-01 -0.12928516905E+00  0.89078042560E+00  0.88000000000E+00 0. -1.
        -11    1    4    4    0    0  0.96282960349E-02 -0.21469458430E-01  0.92101971166E-01  0.95061432471E-01  0.51100000000E-03 0. -1.
         11    1    4    4    0    0  0.77813265595E-02  0.31908944156E-02  0.32828883778E-01  0.33892883933E-01  0.51100000000E-03 0.  1.
</event>
<event>
 8    1  0.5489035E+004  0.1043930E+01  0.7957747E-01            NaN
         13   -1    0    0    0    0  0.00000000000E+00  0.00000000000E+00  0.74505805969E-08  0.10566000000E+00  0.10566000000E+00 0. -1.
     999900   -1    0    0    0    0 -0.00000000000E+00 -0.00000000000E+00 -0.74505805969E-08  0.93827000000E+00  0.93827000000E+00 0. -1.
     999902    2    1    2    0    0 -0.16307624541E-01 -0.28896927385E-03  0.17160440873E-01  0.10202550586E+01  0.10199803340E+01 0.  0.
     999903    2    3    3    0    0  0.38063200765E-01 -0.10590548060E+00 -0.59660358680E-01  0.12895686527E+00  0.20142905203E-01 0.  0.
         14    1    1    2    0    0  0.16307624541E-01  0.28896927385E-03 -0.17160440873E-01  0.23674941444E-01  0.00000000000E+00 0. -1.
     999901    1    3    3    0    0 -0.54370825306E-01  0.10561651132E+00  0.76820799553E-01  0.89129819328E+00  0.88000000000E+00 0. -1.
        -11    1    4    4    0    0  0.11712112329E-03 -0.16632638729E-01 -0.13985902847E-01  0.21737639888E-01  0.51100000000E-03 0. -1.
         11    1    4    4    0    0  0.37946079641E-01 -0.89272841868E-01 -0.45674455832E-01  0.10721922538E+00  0.51100000000E-03 0.  1.
</event>
<event>
 8    1  0.5489035E+004  0.1043930E+01  0.7957747E-01            NaN
         13   -1    0    0    0    0  0.00000000000E+00  0.00000000000E+00  0.74505805969E-08  0.10566000000E+00  0.10566000000E+00 0.  1.
     999900   -1    0    0    0    0 -0.00000000000E+00 -0.00000000000E+00 -0.74505805969E-08  0.93827000000E+00  0.93827000000E+00 0. -1.
     999902    2    1    2    0    0  0.18333854495E-01  0.13357670459E-01  0.76778427464E-02  0.10199819970E+01  0.10197008224E+01 0.  0.
     999903    2    3    3    0    0 -0.42348158120E-01 -0.48074344840E-01 -0.10929057600E+00  0.12805273398E+00  0.18669856740E-01 0.  0.
         14    1    1    2    0    0 -0.18333854495E-01 -0.13357670459E-01 -0.76778427464E-02  0.23948003048E-01  0.00000000000E+00 0.  1.
     999901    1    3    3    0    0  0.60682012616E-01  0.61432015299E-01  0.11696841874E+00  0.89192926297E+00  0.88000000000E+00 0.  1.
        -11    1    4    4    0    0 -0.64530426416E-02 -0.15960784539E-01 -0.18498964845E-01  0.25275704219E-01  0.51100000000E-03 0.  1.
         11    1    4    4    0    0 -0.35895115479E-01 -0.32113560301E-01 -0.90791611152E-01  0.10277702976E+00  0.51100000000E-03 0. -1.
</event>
<event>
 8    1  0.5489035E+004  0.1043930E+01  0.7957747E-01            NaN
         13   -1    0    0    0    0  0.00000000000E+00  0.00000000000E+00  0.74505805969E-08  0.10566000000E+00  0.10566000000E+00 0. -1.
     999900   -1    0    0    0    0 -0.00000000000E+00 -0.00000000000E+00 -0.74505805969E-08  0.93827000000E+00  0.93827000000E+00 0. -1.
     999902    2    1    2    0    0  0.20573893141E-01  0.11594361921E-01  0.10065677513E-02  0.10202925829E+01  0.10200187387E+01 0.  0.
     999903    2    3    3    0    0 -0.98023587393E-02  0.86901628460E-03  0.12853352444E+00  0.13051683904E+00  0.20419033848E-01 0.  0.
         14    1    1    2    0    0 -0.20573893141E-01 -0.11594361921E-01 -0.10065677513E-02  0.23637417075E-01  0.00000000000E+00 0.  1.
     999901    1    3    3    0    0  0.30376251880E-01  0.10725345636E-01 -0.12752695669E+00  0.88977574388E+00  0.88000000000E+00 0. -1.
        -11    1    4    4    0    0  0.51720801617E-02  0.35668845445E-02  0.59023861850E-01  0.59359501912E-01  0.51100000000E-03 0. -1.
         11    1    4    4    0    0 -0.14974438901E-01 -0.26978682599E-02  0.69509662589E-01  0.71157337132E-01  0.51100000000E-03 0.  1.
</event>
<event>
 8    1  0.5489035E+004  0.1043930E+01  0.7957747E-01            NaN
         13   -1    0    0    0    0  0.00000000000E+00  0.00000000000E+00  0.74505805969E-08  0.10566000000E+00  0.10566000000E+00 0. -1.
     999900   -1    0    0    0    0 -0.00000000000E+00 -0.00000000000E+00 -0.74505805969E-08  0.93827000000E+00  0.93827000000E+00 0. -1.
     999902    2    1    2    0    0  0.31406778635E-02 -0.43024006352E-02  0.23011742133E-01  0.10203097802E+01  0.10200363389E+01 0.  0.
     999903    2    3    3    0    0  0.83063925961E-01 -0.65756195408E-01 -0.71886080434E-01  0.12948438134E+00  0.19367586846E-01 0.  0.
         14    1    1    2    0    0 -0.31406778635E-02  0.43024006352E-02 -0.23011742133E-01  0.23620219827E-01  0.00000000000E+00 0.  1.
     999901    1    3    3    0    0 -0.79923248098E-01  0.61453794773E-01  0.94897822567E-01  0.89082539883E+00  0.88000000000E+00 0.  1.
        -11    1    4    4    0    0  0.19671995585E-01 -0.25557778623E-01 -0.26666265024E-01  0.41851383128E-01  0.51100000000E-03 0. -1.
         11    1    4    4    0    0  0.63391930376E-01 -0.40198416785E-01 -0.45219815410E-01  0.87632998211E-01  0.51100000000E-03 0.  1.
</event>
<event>
 8    1  0.5489035E+004  0.1043930E+01  0.7957747E-01            NaN
         13   -1    0    0    0    0  0.00000000000E+00  0.00000000000E+00  0.74505805969E-08  0.10566000000E+00  0.10566000000E+00 0. -1.
     999900   -1    0    0    0    0 -0.00000000000E+00 -0.00000000000E+00 -0.74505805969E-08  0.93827000000E+00  0.93827000000E+00 0. -1.
     999902    2    1    2    0    0 -0.50602785569E-02 -0.12845653561E-01  0.20484323078E-01  0.10192272729E+01  0.10189278724E+01 0.  0.
     999903    2    3    3    0    0  0.24718952731E-01  0.10715129778E+00 -0.60473574708E-01  0.12690432006E+00  0.18847439355E-01 0.  0.
         14    1    1    2    0    0  0.50602785569E-02  0.12845653561E-01 -0.20484323078E-01  0.24702727105E-01  0.00000000000E+00 0.  1.
     999901    1    3    3    0    0 -0.29779231288E-01 -0.11999695134E+00  0.80957897786E-01  0.89232295284E+00  0.88000000000E+00 0.  1.
        -11    1    4    4    0    0  0.17202965337E-01  0.97028968869E-01 -0.49982350446E-01  0.11049461206E+00  0.51100000000E-03 0.  1.
         11    1    4    4    0    0  0.75159873944E-02  0.10122328914E-01 -0.10491224262E-01  0.16409708001E-01  0.51100000000E-03 0. -1.
</event>
<event>
 8    1  0.5489035E+004  0.1043930E+01  0.7957747E-01            NaN
         13   -1    0    0    0    0  0.00000000000E+00  0.00000000000E+00  0.74505805969E-08  0.10566000000E+00  0.10566000000E+00 0.  1.
     999900   -1    0    0    0    0 -0.00000000000E+00 -0.00000000000E+00 -0.74505805969E-08  0.93827000000E+00  0.93827000000E+00 0.  1.
     999902    2    1    2    0    0 -0.20703645890E-01  0.12863201632E-01  0.51879583832E-02  0.10190097708E+01  0.10187050089E+01 0.  0.
     999903    2    3    3    0    0  0.10522825731E+00  0.53208899176E-01 -0.44783838442E-01  0.12772766060E+00  0.20114422861E-01 0.  0.
         14    1    1    2    0    0  0.20703645890E-01 -0.12863201632E-01 -0.51879583832E-02  0.24920229163E-01  0.00000000000E+00 0. -1.
     999901    1    3    3    0    0 -0.12593190320E+00 -0.40345697544E-01  0.49971796825E-01  0.89128211024E+00  0.88000000000E+00 0. -1.
        -11    1    4    4    0    0  0.69150000181E-01  0.42285914615E-01 -0.23307589796E-01  0.84340535705E-01  0.51100000000E-03 0. -1.
         11    1    4    4    0    0  0.36078257134E-01  0.10922984561E-01 -0.21476248646E-01  0.43387124893E-01  0.51100000000E-03 0.  1.
</event>
<event>
 8    1  0.5489035E+004  0.1043930E+01  0.7957747E-01            NaN
         13   -1    0    0    0    0  0.00000000000E+00  0.00000000000E+00  0.74505805969E-08  0.10566000000E+00  0.10566000000E+00 0.  1.
     999900   -1    0    0    0    0 -0.00000000000E+00 -0.00000000000E+00 -0.74505805969E-08  0.93827000000E+00  0.93827000000E+00 0.  1.
     999902    2    1    2    0    0  0.28278101700E-02 -0.40681448037E-02 -0.24501186267E-01  0.10189329114E+01  0.10186262432E+01 0.  0.
     999903    2    3    3    0    0  0.88451074801E-01  0.67259326165E-01 -0.66220361983E-01  0.13092421703E+00  0.20213972267E-01 0.  0.
         14    1    1    2    0    0 -0.28278101700E-02  0.40681448037E-02  0.24501186267E-01  0.24997088650E-01  0.00000000000E+00 0.  1.
     999901    1    3    3    0    0 -0.85623264631E-01 -0.71327470969E-01  0.41719175716E-01  0.88800869432E+00  0.88000000000E+00 0. -1.
        -11    1    4    4    0    0  0.64394704115E-01  0.36963655961E-01 -0.43972023185E-01  0.86294783875E-01  0.51100000000E-03 0.  1.
         11    1    4    4    0    0  0.24056370685E-01  0.30295670204E-01 -0.22248338798E-01  0.44629433157E-01  0.51100000000E-03 0. -1.
</event>
<event>
 8    1  0.5489035E+004  0.1043930E+01  0.7957747E-01            NaN
         13   -1    0    0    0    0  0.00000000000E+00  0.00000000000E+00  0.74505805969E-08  0.10566000000E+00  0.10566000000E+00 0.  1.
     999900   -1    0    0    0    0 -0.00000000000E+00 -0.00000000000E+00 -0.74505805969E-08  0.93827000000E+00  0.93827000000E+00 0.  1.
     999902    2    1    2    0    0 -0.19193213821E-01 -0.13469257088E-01  0.30203021414E-02  0.10202884567E+01  0.10200145158E+01 0.  0.
     999903    2    3    3    0    0  0.57678337845E-01 -0.10073715864E+00 -0.56617141113E-01  0.13063597023E+00  0.19633905918E-01 0.  0.
         14    1    1    2    0    0  0.19193213821E-01  0.13469257088E-01 -0.30203021414E-02  0.23641543273E-01  0.00000000000E+00 0.  1.
     999901    1    3    3    0    0 -0.76871551667E-01  0.87267901554E-01  0.59637443255E-01  0.88965248650E+00  0.88000000000E+00 0. -1.
        -11    1    4    4    0    0  0.29281766699E-01 -0.69601552970E-01 -0.38553323783E-01  0.84784538287E-01  0.51100000000E-03 0. -1.
         11    1    4    4    0    0  0.28396571147E-01 -0.31135605672E-01 -0.18063817330E-01  0.45851431940E-01  0.51100000000E-03 0.  1.
</event>
<event>
 8    1  0.5489035E+004  0.1043930E+01  0.7957747E-01            NaN
         13   -1    0    0    0    0  0.00000000000E+00  0.00000000000E+00  0.74505805969E-08  0.10566000000E+00  0.10566000000E+00 0. -1.
     999900   -1    0    0    0    0 -0.00000000000E+00 -0.00000000000E+00 -0.74505805969E-08  0.93827000000E+00  0.93827000000E+00 0. -1.
     999902    2    1    2    0    0 -0.20416970406E-01  0.10318094262E-01 -0.42388254898E-02  0.10206645021E+01  0.10203993054E+01 0.  0.
     999903    2    3    3    0    0 -0.10409499558E+00 -0.75587788577E-01  0.21896153525E-01  0.13214614569E+00  0.20829795816E-01 0.  0.
         14    1    1    2    0    0  0.20416970406E-01 -0.10318094262E-01  0.42388254898E-02  0.23265497873E-01  0.00000000000E+00 0. -1.
     999901    1    3    3    0    0  0.83678025175E-01  0.85905882839E-01 -0.26134979015E-01  0.88851835644E+00  0.88000000000E+00 0.  1.
        -11    1    4    4    0    0 -0.49655958681E-01 -0.23367637584E-01  0.92971429461E-02  0.55663800686E-01  0.51100000000E-03 0. -1.
         11    1    4    4    0    0 -0.54439036899E-01 -0.52220150993E-01  0.12599010579E-01  0.76482345001E-01  0.51100000000E-03 0.  1.
</event>
<event>
 8    1  0.5489035E+004  0.1043930E+01  0.7957747E-01            NaN
         13   -1    0    0    0    0  0.00000000000E+00  0.00000000000E+00  0.74505805969E-08  0.10566000000E+00  0.10566000000E+00 0.  1.
     999900   -1    0    0    0    0 -0.00000000000E+00 -0.00000000000E+00 -0.74505805969E-08  0.93827000000E+00  0.93827000000E+00 0. -1.
     999902    2    1    2    0    0  0.41140637656E-02 -0.17597167837E-01 -0.13903084237E-01  0.10211290880E+01  0.10208744941E+01 0.  0.
     999903    2    3    3    0    0 -0.11555515970E+00  0.15034378067E-01 -0.57212917912E-01  0.13137559263E+00  0.20179219687E-01 0.  0.
         14    1    1    2    0    0 -0.41140637656E-02  0.17597167837E-01  0.13903084237E-01  0.22800911996E-01  0.00000000000E+00 0.  1.
     999901    1    3    3    0    0  0.11966922346E+00 -0.32631545904E-01  0.43309833676E-01  0.88975349537E+00  0.88000000000E+00 0.  1.
        -11    1    4    4    0    0 -0.66002983933E-01  0.10626362370E-01 -0.21840210014E-01  0.70331851673E-01  0.51100000000E-03 0.  1.
         11    1    4    4    0    0 -0.49552175764E-01  0.44080156977E-02 -0.35372707899E-01  0.61043740960E-01  0.51100000000E-03 0. -1.
</event>
<event>
 8    1  0.5489035E+004  0.1043930E+01  0.7957747E-01            NaN
         13   -1    0    0    0    0  0.00000000000E+00  0.00000000000E+00  0.74505805969E-08  0.10566000000E+00  0.10566000000E+00 0. -1.
     999900   -1    0    0    0    0 -0.00000000000E+00 -0.00000000000E+00 -0.74505805969E-08  0.93827000000E+00  0.93827000000E+00 0.  1.
     999902    2    1    2    0    0 -0.40883780317E-02  0.10062275471E-01 -0.20588986313E-01  0.10206518862E+01  0.10203863985E+01 0.  0.
     999903    2    3    3    0    0  0.42672686311E-01 -0.37622774081E-01  0.11268973088E+00  0.12811411251E+00  0.21859073464E-01 0.  0.
         14    1    1    2    0    0  0.40883780317E-02 -0.10062275471E-01  0.20588986313E-01  0.23278113755E-01  0.00000000000E+00 0. -1.
     999901    1    3    3    0    0 -0.46761064343E-01  0.47685049553E-01 -0.13327871719E+00  0.89253777374E+00  0.88000000000E+00 0.  1.
        -11    1    4    4    0    0  0.15588090566E-01 -0.22946333440E-01  0.35882140488E-01  0.45357600387E-01  0.51100000000E-03 0. -1.
         11    1    4    4    0    0  0.27084595745E-01 -0.14676440641E-01  0.76807590388E-01  0.82756512123E-01  0.51100000000E-03 0.  1.
</event>
<event>
 8    1  0.5489035E+004  0.1043930E+01  0.7957747E-01            NaN
         13   -1    0    0    0    0  0.00000000000E+00  0.00000000000E+00  0.74505805969E-08  0.10566000000E+00  0.10566000000E+00 0.  1.
     999900   -1    0    0    0    0 -0.00000000000E+00 -0.00000000000E+00 -0.74505805969E-08  0.93827000000E+00  0.93827000000E+00 0. -1.
     999902    2    1    2    0    0 -0.15161693740E-02  0.98452220162E-02 -0.20626150409E-01  0.10210244276E+01  0.10207674645E+01 0.  0.
     999903    2    3    3    0    0 -0.12142731592E+00  0.14142941072E-01  0.41451995697E-01  0.13071501528E+00  0.20579879417E-01 0.  0.
         14    1    1    2    0    0  0.15161693740E-02 -0.98452220162E-02  0.20626150409E-01  0.22905572396E-01  0.00000000000E+00 0.  1.
     999901    1    3    3    0    0  0.11991114655E+00 -0.42977190558E-02 -0.62078146106E-01  0.89030941233E+00  0.88000000000E+00 0. -1.
        -11    1    4    4    0    0 -0.10940609262E+00  0.79023806047E-02  0.32259106065E-01  0.11433744692E+00  0.51100000000E-03 0.  1.
         11    1    4    4    0    0 -0.12021223300E-01  0.62405604673E-02  0.91928896316E-02  0.16377568359E-01  0.51100000000E-03 0. -1.
</event>
<event>
 8    1  0.5489035E+004  0.1043930E+01  0.7957747E-01            NaN
         13   -1    0    0    0    0  0.00000000000E+00  0.00000000000E+00  0.74505805969E-08  0.10566000000E+00  0.10566000000E+00 0. -1.
     999900   -1    0    0    0    0 -0.00000000000E+00 -0.00000000000E+00 -0.74505805969E-08  0.93827000000E+00  0.93827000000E+00 0.  1.
     999902    2    1    2    0    0  0.10100702728E-01 -0.63261063403E-02 -0.18391683487E-01  0.10220143016E+01  0.10217792984E+01 0.  0.
     999903    2    3    3    0    0  0.82878900001E-01 -0.64254852918E-01  0.77465074993E-01  0.13193513438E+00  0.20209988920E-01 0.  0.
         14    1    1    2    0    0 -0.10100702728E-01  0.63261063403E-02  0.18391683487E-01  0.21915698449E-01  0.00000000000E+00 0. -1.
     999901    1    3    3    0    0 -0.72778197273E-01  0.57928746578E-01 -0.95856758480E-01  0.89007916717E+00  0.88000000000E+00 0.  1.
        -11    1    4    4    0    0  0.62487194237E-01 -0.43256136468E-01  0.45451019917E-01  0.88553933387E-01  0.51100000000E-03 0. -1.
         11    1    4    4    0    0  0.20391705765E-01 -0.20998716450E-01  0.32014055076E-01  0.43381200997E-01  0.51100000000E-03 0.  1.
</event>
<event>
 8    1  0.5489035E+004  0.1043930E+01  0.7957747E-01            NaN
         13   -1    0    0    0    0  0.00000000000E+00  0.00000000000E+00  0.74505805969E-08  0.10566000000E+00  0.10566000000E+00 0.  1.
     999900   -1    0    0    0    0 -0.00000000000E+00 -0.00000000000E+00 -0.74505805969E-08  0.93827000000E+00  0.93827000000E+00 0.  1.
     999902    2    1    2    0    0 -0.25591079407E-02 -0.17486708152E-02 -0.20819156717E-01  0.10228813856E+01  0.10226647959E+01 0.  0.
     999903    2    3    3    0    0 -0.85221870120E-01 -0.22461505456E-01  0.94448237656E-01  0.13128241407E+00  0.23394791602E-01 0.  0.
         14    1    1    2    0    0  0.25591079407E-02  0.17486708152E-02  0.20819156717E-01  0.21048614431E-01  0.00000000000E+00 0.  1.
     999901    1    3    3    0    0  0.82662762179E-01  0.20712834641E-01 -0.11526739437E+00  0.89159897150E+00  0.88000000000E+00 0.  1.
        -11    1    4    4    0    0 -0.35531912908E-01 -0.18531935899E-01  0.53042474243E-01  0.66480934695E-01  0.51100000000E-03 0. -1.
         11    1    4    4    0    0 -0.49689957212E-01 -0.39295695575E-02  0.41405763412E-01  0.64801479377E-01  0.51100000000E-03 0.  1.
</event>
<event>
 8    1  0.5489035E+004  0.1043930E+01  0.7957747E-01            NaN
         13   -1    0    0    0    0  0.00000000000E+00  0.00000000000E+00  0.74505805969E-08  0.10566000000E+00  0.10566000000E+00 0. -1.
     999900   -1    0    0    0    0 -0.00000000000E+00 -0.00000000000E+00 -0.74505805969E-08  0.93827000000E+00  0.93827000000E+00 0. -1.
     999902    2    1    2    0    0 -0.19927318555E-01 -0.91078458749E-02 -0.80536494341E-02  0.10205866465E+01  0.10203196514E+01 0.  0.
     999903    2    3    3    0    0 -0.57841448474E-01 -0.24385361165E-01 -0.11394677210E+00  0.13329625600E+00  0.29047306104E-01 0.  0.
         14    1    1    2    0    0  0.19927318555E-01  0.91078458749E-02  0.80536494341E-02  0.23343353454E-01  0.00000000000E+00 0.  1.
     999901    1    3    3    0    0  0.37914129919E-01  0.15277515290E-01  0.10589312267E+00  0.88729039054E+00  0.88000000000E+00 0.  1.
        -11    1    4    4    0    0 -0.54987450277E-01 -0.14274978040E-01 -0.82760019030E-01  0.10038364686E+00  0.51100000000E-03 0. -1.
         11    1    4    4    0    0 -0.28539981973E-02 -0.10110383125E-01 -0.31186753069E-01  0.32912609143E-01  0.51100000000E-03 0.  1.
</event>
<event>
 8    1  0.5489035E+004  0.1043930E+01  0.7957747E-01            NaN
         13   -1    0    0    0    0  0.00000000000E+00  0.00000000000E+00  0.74505805969E-08  0.10566000000E+00  0.10566000000E+00 0. -1.
     999900   -1    0    0    0    0 -0.00000000000E+00 -0.00000000000E+00 -0.74505805969E-08  0.93827000000E+00  0.93827000000E+00 0.  1.
     999902    2    1    2    0    0 -0.14784415683E-01  0.17905886012E-01  0.91891971914E-03  0.10206911508E+01  0.10204265682E+01 0.  0.
     999903    2    3    3    0    0 -0.10042273978E+00 -0.33195356584E-02 -0.83142522023E-01  0.13229328545E+00  0.22205594481E-01 0.  0.
         14    1    1    2    0    0  0.14784415683E-01 -0.17905886012E-01 -0.91891971914E-03  0.23238849249E-01  0.00000000000E+00 0.  1.
     999901    1    3    3    0    0  0.85638324093E-01  0.21225421671E-01  0.84061441743E-01  0.88839786530E+00  0.88000000000E+00 0. -1.
        -11    1    4    4    0    0 -0.55730608100E-01  0.91830934552E-02 -0.44882816205E-01  0.72145396222E-01  0.51100000000E-03 0. -1.
         11    1    4    4    0    0 -0.44692131677E-01 -0.12502629114E-01 -0.38259705819E-01  0.60147889230E-01  0.51100000000E-03 0.  1.
</event>
<event>
 8    1  0.5489035E+004  0.1043930E+01  0.7957747E-01            NaN
         13   -1    0    0    0    0  0.00000000000E+00  0.00000000000E+00  0.74505805969E-08  0.10566000000E+00  0.10566000000E+00 0.  1.
     999900   -1    0    0    0    0 -0.00000000000E+00 -0.00000000000E+00 -0.74505805969E-08  0.93827000000E+00  0.93827000000E+00 0.  1.
     999902    2    1    2    0    0 -0.18510238251E-01  0.68292203517E-02  0.12138266934E-01  0.10207652705E+01  0.10205023923E+01 0.  0.
     999903    2    3    3    0    0  0.72556464404E-01  0.10142523044E+00 -0.30964856422E-01  0.12997942150E+00  0.19603820607E-01 0.  0.
         14    1    1    2    0    0  0.18510238251E-01 -0.68292203517E-02 -0.12138266934E-01  0.23164729545E-01  0.00000000000E+00 0.  1.
     999901    1    3    3    0    0 -0.91066702655E-01 -0.94596010092E-01  0.43103123356E-01  0.89078584896E+00  0.88000000000E+00 0. -1.
        -11    1    4    4    0    0  0.63153746865E-01  0.79701252239E-01 -0.18997343392E-01  0.10344972464E+00  0.51100000000E-03 0.  1.
         11    1    4    4    0    0  0.94027175395E-02  0.21723978205E-01 -0.11967513031E-01  0.26529696857E-01  0.51100000000E-03 0. -1.
</event>
<event>
 8    1  0.5489035E+004  0.1043930E+01  0.7957747E-01            NaN
         13   -1    0    0    0    0  0.00000000000E+00  0.00000000000E+00  0.74505805969E-08  0.10566000000E+00  0.10566000000E+00 0.  1.
     999900   -1    0    0    0    0 -0.00000000000E+00 -0.00000000000E+00 -0.74505805969E-08  0.93827000000E+00  0.93827000000E+00 0.  1.
     999902    2    1    2    0    0 -0.97900085075E-02  0.17508259198E-01 -0.52160304376E-02  0.10232034378E+01  0.10229934920E+01 0.  0.
     999903    2    3    3    0    0 -0.61971328757E-01  0.46089450169E-01 -0.10894040176E+00  0.13511643764E+00  0.20585372960E-01 0.  0.
         14    1    1    2    0    0  0.97900085075E-02 -0.17508259198E-01  0.52160304376E-02  0.20726562191E-01  0.00000000000E+00 0. -1.
     999901    1    3    3    0    0  0.52181320250E-01 -0.28581190971E-01  0.10372437133E+00  0.88808700017E+00  0.88000000000E+00 0. -1.
        -11    1    4    4    0    0 -0.28983637663E-01  0.29019518271E-01 -0.71149022973E-01  0.82125685896E-01  0.51100000000E-03 0.  1.
         11    1    4    4    0    0 -0.32987691094E-01  0.17069931898E-01 -0.37791378790E-01  0.52990751746E-01  0.51100000000E-03 0. -1.
</event>
<event>
 8    1  0.5489035E+004  0.1043930E+01  0.7957747E-01            NaN
         13   -1    0    0    0    0  0.00000000000E+00  0.00000000000E+00  0.74505805969E-08  0.10566000000E+00  0.10566000000E+00 0. -1.
     999900   -1    0    0    0    0 -0.00000000000E+00 -0.00000000000E+00 -0.74505805969E-08  0.93827000000E+00  0.93827000000E+00 0. -1.
     999902    2    1    2    0    0 -0.24028077212E-01 -0.72889506761E-02  0.12320406915E-02  0.10187904849E+01  0.10184802683E+01 0.  0.
     999903    2    3    3    0    0  0.70847844460E-01  0.90455604942E-01  0.50149356560E-01  0.12696744051E+00  0.20103220049E-01 0.  0.
         14    1    1    2    0    0  0.24028077212E-01  0.72889506761E-02 -0.12320406915E-02  0.25139515125E-01  0.00000000000E+00 0. -1.
     999901    1    3    3    0    0 -0.94875921673E-01 -0.97744555618E-01 -0.48917315869E-01  0.89182304436E+00  0.88000000000E+00 0. -1.
        -11    1    4    4    0    0  0.46313031566E-01  0.51724027286E-01  0.20609720846E-01  0.72424399244E-01  0.51100000000E-03 0. -1.
         11    1    4    4    0    0  0.24534812894E-01  0.38731577656E-01  0.29539635714E-01  0.54543041267E-01  0.51100000000E-03 0.  1.
</event>
<event>
 8    1  0.5489035E+004  0.1043930E+01  0.7957747E-01            NaN
         13   -1    0    0    0    0  0.00000000000E+00  0.00000000000E+00  0.74505805969E-08  0.10566000000E+00  0.10566000000E+00 0. -1.
     999900   -1    0    0    0    0 -0.00000000000E+00 -0.00000000000E+00 -0.74505805969E-08  0.93827000000E+00  0.93827000000E+00 0.  1.
     999902    2    1    2    0    0 -0.19450371688E-01  0.11049887989E-01  0.59949603604E-02  0.10207706275E+01  0.10205078723E+01 0.  0.
     999903    2    3    3    0    0 -0.11822897640E-02 -0.12671344163E+00 -0.18726224236E-01  0.12952229246E+00  0.19174427509E-01 0.  0.
         14    1    1    2    0    0  0.19450371688E-01 -0.11049887989E-01 -0.59949603604E-02  0.23159372467E-01  0.00000000000E+00 0. -1.
     999901    1    3    3    0    0 -0.18268081924E-01  0.13776332962E+00  0.24721184596E-01  0.89124833507E+00  0.88000000000E+00 0.  1.
        -11    1    4    4    0    0 -0.63574576173E-02 -0.18241916220E-01 -0.56991805651E-02  0.20147619087E-01  0.51100000000E-03 0.  1.
         11    1    4    4    0    0  0.51751678533E-02 -0.10847152541E+00 -0.13027043670E-01  0.10937467337E+00  0.51100000000E-03 0. -1.
</event>
<event>
 8    1  0.5489035E+004  0.1043930E+01  0.7957747E-01            NaN
         13   -1    0    0    0    0  0.00000000000E+00  0.00000000000E+00  0.74505805969E-08  0.10566000000E+00  0.10566000000E+00 0.  1.
     999900   -1    0    0    0    0 -0.00000000000E+00 -0.00000000000E+00 -0.74505805969E-08  0.93827000000E+00  0.93827000000E+00 0. -1.
     999902    2    1    2    0    0 -0.20781169477E-01 -0.71439628640E-02  0.52661527826E-03  0.10219488596E+01  0.10217124356E+01 0.  0.
     999903    2    3    3    0    0  0.12053720477E+00 -0.44062251779E-01 -0.38723855679E-03  0.12990924270E+00  0.20138560527E-01 0.  0.
         14    1    1    2    0    0  0.20781169477E-01  0.71439628640E-02 -0.52661527826E-03  0.21981140414E-01  0.00000000000E+00 0.  1.
     999901    1    3    3    0    0 -0.14131837425E+00  0.36918288915E-01  0.91385383505E-03  0.89203961688E+00  0.88000000000E+00 0.  1.
        -11    1    4    4    0    0  0.92468179752E-01 -0.42326655224E-01  0.16322446989E-02  0.10170956372E+00  0.51100000000E-03 0.  1.
         11    1    4    4    0    0  0.28069025021E-01 -0.17355965556E-02 -0.20194832557E-02  0.28199678981E-01  0.51100000000E-03 0. -1.
</event>
<event>
 8    1  0.5489035E+004  0.1043930E+01  0.7957747E-01            NaN
         13   -1    0    0    0    0  0.00000000000E+00  0.00000000000E+00  0.74505805969E-08  0.10566000000E+00  0.10566000000E+00 0.  1.
     999900   -1    0    0    0    0 -0.00000000000E+00 -0.00000000000E+00 -0.74505805969E-08  0.93827000000E+00  0.93827000000E+00 0. -1.
     999902    2    1    2    0    0  0.20467669290E-01  0.11636620181E-01 -0.91863183605E-03  0.10203677357E+01  0.10200956503E+01 0.  0.
     999903    2    3    3    0    0 -0.75562866424E-02  0.57701681276E-01 -0.11614862967E+00  0.13121910673E+00  0.18476155118E-01 0.  0.
         14    1    1    2    0    0 -0.20467669290E-01 -0.11636620181E-01  0.91863183605E-03  0.23562264319E-01  0.00000000000E+00 0. -1.
     999901    1    3    3    0    0  0.28023955933E-01 -0.46065061096E-01  0.11522999783E+00  0.88914862895E+00  0.88000000000E+00 0.  1.
        -11    1    4    4    0    0  0.26696502062E-02  0.21554274027E-02 -0.14731485879E-01  0.15134420924E-01  0.51100000000E-03 0. -1.
         11    1    4    4    0    0 -0.10225936849E-01  0.55546253873E-01 -0.10141714379E+00  0.11608468581E+00  0.51100000000E-03 0.  1.
</event>
<event>
 8    1  0.5489035E+004  0.1043930E+01  0.7957747E-01            NaN
         13   -1    0    0    0    0  0.00000000000E+00  0.00000000000E+00  0.74505805969E-08  0.10566000000E+00  0.10566000000E+00 0. -1.
     999900   -1    0    0    0    0 -0.00000000000E+00 -0.00000000000E+00 -0.74505805969E-08  0.93827000000E+00  0.93827000000E+00 0.  1.
     999902    2    1    2    0    0 -0.33353552277E-02  0.22850037931E-01  0.61071042953E-02  0.10200439047E+01  0.10197641992E+01 0.  0.
     999903    2    3    3    0    0 -0.71179178467E-01 -0.19701022435E-01  0.10625287626E+00  0.13075061629E+00  0.18746845471E-01 0.  0.
         14    1    1    2    0    0  0.33353552277E-02 -0.22850037931E-01 -0.61071042953E-02  0.23886095344E-01  0.00000000000E+00 0. -1.
     999901    1    3    3    0    0  0.67843823239E-01  0.42551060366E-01 -0.10014577196E+00  0.88929328837E+00  0.88000000000E+00 0.  1.
        -11    1    4    4    0    0 -0.20979138350E-01 -0.23970516482E-02  0.17986741275E-01  0.27742640198E-01  0.51100000000E-03 0. -1.
         11    1    4    4    0    0 -0.50200040117E-01 -0.17303970787E-01  0.88266134983E-01  0.10300797609E+00  0.51100000000E-03 0.  1.
</event>
<event>
 8    1  0.5489035E+004  0.1043930E+01  0.7957747E-01            NaN
         13   -1    0    0    0    0  0.00000000000E+00  0.00000000000E+00  0.74505805969E-08  0.10566000000E+00  0.10566000000E+00 0. -1.
     999900   -1    0    0    0    0 -0.00000000000E+00 -0.00000000000E+00 -0.74505805969E-08  0.93827000000E+00  0.93827000000E+00 0.  1.
     999902    2    1    2    0    0  0.22412536410E-01  0.44215440706E-02 -0.53698783760E-02  0.10204628435E+01  0.10201929756E+01 0.  0.
     999903    2    3    3    0    0  0.93866082768E-01  0.49743479606E-01  0.76739908922E-01  0.13259928174E+00  0.20206450462E-01 0.  0.
         14    1    1    2    0    0 -0.22412536410E-01 -0.44215440706E-02  0.53698783760E-02  0.23467156498E-01  0.00000000000E+00 0. -1.
     999901    1    3    3    0    0 -0.71453546358E-01 -0.45321935535E-01 -0.82109787298E-01  0.88786356176E+00  0.88000000000E+00 0.  1.
        -11    1    4    4    0    0  0.71440173434E-01  0.36045632032E-01  0.46565375183E-01  0.92582834564E-01  0.51100000000E-03 0.  1.
         11    1    4    4    0    0  0.22425909334E-01  0.13697847573E-01  0.30174533739E-01  0.40016447180E-01  0.51100000000E-03 0. -1.
</event>
<event>
 8    1  0.5489035E+004  0.1043930E+01  0.7957747E-01            NaN
         13   -1    0    0    0    0  0.00000000000E+00  0.00000000000E+00  0.74505805969E-08  0.10566000000E+00  0.10566000000E+00 0. -1.
     999900   -1    0    0    0    0 -0.00000000000E+00 -0.00000000000E+00 -0.74505805969E-08  0.93827000000E+00  0.93827000000E+00 0. -1.
     999902    2    1    2    0    0  0.88287568836E-02  0.15674251646E-01  0.15499408746E-01  0.10201842470E+01  0.10199078572E+01 0.  0.
     999903    2    3    3    0    0 -0.11315007877E+00  0.60393655372E-01 -0.12110170510E-01  0.13021742164E+00  0.18962772373E-01 0.  0.
         14    1    1    2    0    0 -0.88287568836E-02 -0.15674251646E-01 -0.15499408746E-01  0.23745752973E-01  0.00000000000E+00 0.  1.
     999901    1    3    3    0    0  0.12197883565E+00 -0.44719403726E-01  0.27609579255E-01  0.88996682538E+00  0.88000000000E+00 0.  1.
        -11    1    4    4    0    0 -0.43100878274E-01  0.33284374571E-01 -0.28295556293E-02  0.54532584797E-01  0.51100000000E-03 0. -1.
         11    1    4    4    0    0 -0.70049200491E-01  0.27109280801E-01 -0.92806148803E-02  0.75684836847E-01  0.51100000000E-03 0.  1.
</event>
<event>
 8    1  0.5489035E+004  0.1043930E+01  0.7957747E-01            NaN
         13   -1    0    0    0    0  0.00000000000E+00  0.00000000000E+00  0.74505805969E-08  0.10566000000E+00  0.10566000000E+00 0.  1.
     999900   -1    0    0    0    0 -0.00000000000E+00 -0.00000000000E+00 -0.74505805969E-08  0.93827000000E+00  0.93827000000E+00 0. -1.
     999902    2    1    2    0    0 -0.70388484540E-03  0.10970722446E-01  0.22079960375E-01  0.10192647034E+01  0.10189662206E+01 0.  0.
     999903    2    3    3    0    0  0.93424130631E-01  0.59006508436E-01  0.68779918983E-01  0.13171278598E+00  0.20192684635E-01 0.  0.
         14    1    1    2    0    0  0.70388484540E-03 -0.10970722446E-01 -0.22079960375E-01  0.24665296573E-01  0.00000000000E+00 0. -1.
     999901    1    3    3    0    0 -0.94128015477E-01 -0.48035785990E-01 -0.46699958607E-01  0.88755191745E+00  0.88000000000E+00 0.  1.
        -11    1    4    4    0    0  0.87429610194E-02  0.13762497444E-01  0.96058467215E-02  0.18930903716E-01  0.51100000000E-03 0.  1.
         11    1    4    4    0    0  0.84681169612E-01  0.45244010992E-01  0.59174072261E-01  0.11278188226E+00  0.51100000000E-03 0. -1.
</event>
<event>
 8    1  0.5489035E+004  0.1043930E+01  0.7957747E-01            NaN
         13   -1    0    0    0    0  0.00000000000E+00  0.00000000000E+00  0.74505805969E-08  0.10566000000E+00  0.10566000000E+00 0. -1.
     999900   -1    0    0    0    0 -0.00000000000E+00 -0.00000000000E+00 -0.74505805969E-08  0.93827000000E+00  0.93827000000E+00 0.  1.
     999902    2    1    2    0    0  0.65872762531E-02 -0.11536730157E-01  0.99893166861E-02  0.10273084839E+01  0.10271740097E+01 0.  0.
     999903    2    3    3    0    0 -0.13038351184E+00 -0.70454390930E-02 -0.20098066729E-01  0.13619321683E+00  0.33093226672E-01 0.  0.
         14    1    1    2    0    0 -0.65872762531E-02  0.11536730157E-01 -0.99893166861E-02  0.16621516147E-01  0.00000000000E+00 0.  1.
     999901    1    3    3    0    0  0.13697078809E+00 -0.44912910642E-02  0.30087383415E-01  0.89111526703E+00  0.88000000000E+00 0.  1.
        -11    1    4    4    0    0 -0.10397989442E+00  0.69042536295E-02 -0.10103227407E-01  0.10469872725E+00  0.51100000000E-03 0.  1.
         11    1    4    4    0    0 -0.26403617421E-01 -0.13949692722E-01 -0.99948393223E-02  0.31494489582E-01  0.51100000000E-03 0. -1.
</event>
<event>
 8    1  0.5489035E+004  0.1043930E+01  0.7957747E-01            NaN
         13   -1    0    0    0    0  0.00000000000E+00  0.00000000000E+00  0.74505805969E-08  0.10566000000E+00  0.10566000000E+00 0. -1.
     999900   -1    0    0    0    0 -0.00000000000E+00 -0.00000000000E+00 -0.74505805969E-08  0.93827000000E+00  0.93827000000E+00 0. -1.
     999902    2    1    2    0    0 -0.11085161322E-01 -0.16208398029E-01  0.12369538911E-01  0.10207222758E+01  0.10204584097E+01 0.  0.
     999903    2    3    3    0    0  0.16311922768E-01  0.12260440234E+00 -0.28152607333E-01  0.12849941236E+00  0.20533177520E-01 0.  0.
         14    1    1    2    0    0  0.11085161322E-01  0.16208398029E-01 -0.12369538911E-01  0.23207724168E-01  0.00000000000E+00 0. -1.
     999901    1    3    3    0    0 -0.27397084089E-01 -0.13881280037E+00  0.40522146244E-01  0.89222286347E+00  0.88000000000E+00 0. -1.
        -11    1    4    4    0    0  0.10163902060E-01  0.11377496145E+00 -0.22843656998E-01  0.11649094619E+00  0.51100000000E-03 0.  1.
         11    1    4    4    0    0  0.61480207077E-02  0.88294408895E-02 -0.53089503350E-02  0.12008466168E-01  0.51100000000E-03 0. -1.
</event>
<event>
 8    1  0.5489035E+004  0.1043930E+01  0.7957747E-01            NaN
         13   -1    0    0    0    0  0.00000000000E+00  0.00000000000E+00  0.74505805969E-08  0.10566000000E+00  0.10566000000E+00 0. -1.
     999900   -1    0    0    0    0 -0.00000000000E+00 -0.00000000000E+00 -0.74505805969E-08  0.93827000000E+00  0.93827000000E+00 0. -1.
     999902    2    1    2    0    0 -0.35845775074E-02  0.23701077241E-01  0.79206157669E-02  0.10186846754E+01  0.10183718091E+01 0.  0.
     999903    2    3    3    0    0 -0.54895783342E-01 -0.97403390265E-01 -0.56296085565E-01  0.12659560106E+00  0.18874042841E-01 0.  0.
         14    1    1    2    0    0  0.35845775074E-02 -0.23701077241E-01 -0.79206157669E-02  0.25245324566E-01  0.00000000000E+00 0.  1.
     999901    1    3    3    0    0  0.51311205834E-01  0.12110446751E+00  0.64216701332E-01  0.89208907438E+00  0.88000000000E+00 0.  1.
        -11    1    4    4    0    0 -0.29012144877E-01 -0.33344029024E-01 -0.19446748869E-01  0.48290433675E-01  0.51100000000E-03 0.  1.
         11    1    4    4    0    0 -0.25883638464E-01 -0.64059361240E-01 -0.36849336696E-01  0.78305167381E-01  0.51100000000E-03 0. -1.
</event>
<event>
 8    1  0.5489035E+004  0.1043930E+01  0.7957747E-01            NaN
         13   -1    0    0    0    0  0.00000000000E+00  0.00000000000E+00  0.74505805969E-08  0.10566000000E+00  0.10566000000E+00 0. -1.
     999900   -1    0    0    0    0 -0.00000000000E+00 -0.00000000000E+00 -0.74505805969E-08  0.93827000000E+00  0.93827000000E+00 0. -1.
     999902    2    1    2    0    0  0.23377066525E-01 -0.37541186899E-02 -0.60352795694E-03  0.10202457248E+01  0.10199707810E+01 0.  0.
     999903    2    3    3    0    0  0.88758886052E-02  0.18885002238E-01 -0.12750560985E+00  0.13073633622E+00  0.19972089433E-01 0.  0.
         14    1    1    2    0    0 -0.23377066525E-01  0.37541186899E-02  0.60352795694E-03  0.23684275215E-01  0.00000000000E+00 0. -1.
     999901    1    3    3    0    0  0.14501177920E-01 -0.22639120927E-01  0.12690208189E+00  0.88950938857E+00  0.88000000000E+00 0.  1.
        -11    1    4    4    0    0 -0.46594987344E-03  0.46821973138E-02 -0.82320940694E-01  0.82456888607E-01  0.51100000000E-03 0. -1.
         11    1    4    4    0    0  0.93418384786E-02  0.14202804924E-01 -0.45184669157E-01  0.48279447612E-01  0.51100000000E-03 0.  1.
</event>
<event>
 8    1  0.5489035E+004  0.1043930E+01  0.7957747E-01            NaN
         13   -1    0    0    0    0  0.00000000000E+00  0.00000000000E+00  0.74505805969E-08  0.10566000000E+00  0.10566000000E+00 0. -1.
     999900   -1    0    0    0    0 -0.00000000000E+00 -0.00000000000E+00 -0.74505805969E-08  0.93827000000E+00  0.93827000000E+00 0.  1.
     999902    2    1    2    0    0  0.11155045993E-01 -0.17809947220E-01  0.11175993470E-01  0.10201280652E+01  0.10198503504E+01 0.  0.
     999903    2    3    3    0    0  0.39887362719E-01 -0.24110553238E-01  0.12259180318E+00  0.13261540256E+00  0.19641138123E-01 0.  0.
         14    1    1    2    0    0 -0.11155045993E-01  0.17809947220E-01 -0.11175993470E-01  0.23801934819E-01  0.00000000000E+00 0.  1.
     999901    1    3    3    0    0 -0.28732316726E-01  0.63006060179E-02 -0.11141580971E+00  0.88751266262E+00  0.88000000000E+00 0.  1.
        -11    1    4    4    0    0  0.15422988870E-02  0.31382198386E-02  0.86449433027E-02  0.93393401972E-02  0.51100000000E-03 0. -1.
         11    1    4    4    0    0  0.38345063832E-01 -0.27248773076E-01  0.11394685988E+00  0.12327606236E+00  0.51100000000E-03 0.  1.
</event>
<event>
 8    1  0.5489035E+004  0.1043930E+01  0.7957747E-01            NaN
         13   -1    0    0    0    0  0.00000000000E+00  0.00000000000E+00  0.74505805969E-08  0.10566000000E+00  0.10566000000E+00 0. -1.
     999900   -1    0    0    0    0 -0.00000000000E+00 -0.00000000000E+00 -0.74505805969E-08  0.93827000000E+00  0.93827000000E+00 0. -1.
     999902    2    1    2    0    0 -0.18418064046E-02  0.43140154224E-02 -0.28119032176E-01  0.10154224054E+01  0.10150221566E+01 0.  0.
     999903    2    3    3    0    0  0.76525730745E-01 -0.92738801490E-01 -0.34335910740E-01  0.12660331821E+00  0.19818492591E-01 0.  0.
         14    1    1    2    0    0  0.18418064046E-02 -0.43140154224E-02  0.28119032176E-01  0.28507594609E-01  0.00000000000E+00 0. -1.
     999901    1    3    3    0    0 -0.78367537150E-01  0.97052816913E-01  0.62168785646E-02  0.88881908718E+00  0.88000000000E+00 0.  1.
        -11    1    4    4    0    0  0.25349917105E-01 -0.38354124875E-01 -0.21784475007E-01  0.50877123194E-01  0.51100000000E-03 0.  1.
         11    1    4    4    0    0  0.51175813641E-01 -0.54384676615E-01 -0.12551435733E-01  0.75726195020E-01  0.51100000000E-03 0. -1.
</event>
<event>
 8    1  0.5489035E+004  0.1043930E+01  0.7957747E-01            NaN
         13   -1    0    0    0    0  0.00000000000E+00  0.00000000000E+00  0.74505805969E-08  0.10566000000E+00  0.10566000000E+00 0.  1.
     999900   -1    0    0    0    0 -0.00000000000E+00 -0.00000000000E+00 -0.74505805969E-08  0.93827000000E+00  0.93827000000E+00 0.  1.
     999902    2    1    2    0    0  0.20974792000E-02 -0.18915952379E-01  0.14161920640E-01  0.10202071699E+01  0.10199313196E+01 0.  0.
     999903    2    3    3    0    0  0.20752904719E-01 -0.74162894371E-01  0.10761168798E+00  0.13334015136E+00  0.16386049476E-01 0.  0.
         14    1    1    2    0    0 -0.20974792000E-02  0.18915952379E-01 -0.14161920640E-01  0.23722830135E-01  0.00000000000E+00 0.  1.
     999901    1    3    3    0    0 -0.18655425519E-01  0.55246941992E-01 -0.93449767343E-01  0.88686701851E+00  0.88000000000E+00 0.  1.
        -11    1    4    4    0    0  0.14585815356E-01 -0.30816621052E-01  0.56964369430E-01  0.66389838441E-01  0.51100000000E-03 0. -1.
         11    1    4    4    0    0  0.61670893627E-02 -0.43346273320E-01  0.50647318553E-01  0.66950312916E-01  0.51100000000E-03 0.  1.
</event>
<event>
 8    1  0.5489035E+004  0.1043930E+01  0.7957747E-01            NaN
         13   -1    0    0    0    0  0.00000000000E+00  0.00000000000E+00  0.74505805969E-08  0.10566000000E+00  0.10566000000E+00 0.  1.
     999900   -1    0    0    0    0 -0.00000000000E+00 -0.00000000000E+00 -0.74505805969E-08  0.93827000000E+00  0.93827000000E+00 0.  1.
     999902    2    1    2    0    0 -0.22726945358E-01 -0.73944083821E-02  0.41605523382E-04  0.10200303546E+01  0.10197503279E+01 0.  0.
     999903    2    3    3    0    0 -0.50016515393E-01 -0.12031514732E+00 -0.10436504248E-01  0.13233355684E+00  0.20636452166E-01 0.  0.
         14    1    1    2    0    0  0.22726945358E-01  0.73944083821E-02 -0.41605523382E-04  0.23899645430E-01  0.00000000000E+00 0.  1.
     999901    1    3    3    0    0  0.27289570034E-01  0.11292073894E+00  0.10478109772E-01  0.88769679773E+00  0.88000000000E+00 0. -1.
        -11    1    4    4    0    0 -0.38773498748E-01 -0.85196520288E-01 -0.16231922428E-01  0.95002987853E-01  0.51100000000E-03 0. -1.
         11    1    4    4    0    0 -0.11243016645E-01 -0.35118627035E-01  0.57954181798E-02  0.37330568988E-01  0.51100000000E-03 0.  1.
</event>
<event>
 8    1  0.5489035E+004  0.1043930E+01  0.7957747E-01            NaN
         13   -1    0    0    0    0  0.00000000000E+00  0.00000000000E+00  0.74505805969E-08  0.10566000000E+00  0.10566000000E+00 0. -1.
     999900   -1    0    0    0    0 -0.00000000000E+00 -0.00000000000E+00 -0.74505805969E-08  0.93827000000E+00  0.93827000000E+00 0.  1.
     999902    2    1    2    0    0 -0.68074841646E-02  0.23109109060E-01 -0.22698696375E-02  0.10197323747E+01  0.10194452368E+01 0.  0.
     999903    2    3    3    0    0 -0.42105958519E-01 -0.83412900058E-01  0.85439345873E-01  0.12828084645E+00  0.20626926695E-01 0.  0.
         14    1    1    2    0    0  0.68074841646E-02 -0.23109109060E-01  0.22698696375E-02  0.24197625304E-01  0.00000000000E+00 0.  1.
     999901    1    3    3    0    0  0.35298474355E-01  0.10652200912E+00 -0.87709215510E-01  0.89145152824E+00  0.88000000000E+00 0.  1.
        -11    1    4    4    0    0 -0.28885743855E-01 -0.34421724621E-01  0.39667309243E-01  0.59941620495E-01  0.51100000000E-03 0. -1.
         11    1    4    4    0    0 -0.13220214664E-01 -0.48991175437E-01  0.45772036630E-01  0.68339225959E-01  0.51100000000E-03 0.  1.
</event>
<event>
 8    1  0.5489035E+004  0.1043930E+01  0.7957747E-01            NaN
         13   -1    0    0    0    0  0.00000000000E+00  0.00000000000E+00  0.74505805969E-08  0.10566000000E+00  0.10566000000E+00 0.  1.
     999900   -1    0    0    0    0 -0.00000000000E+00 -0.00000000000E+00 -0.74505805969E-08  0.93827000000E+00  0.93827000000E+00 0.  1.
     999902    2    1    2    0    0  0.91337227953E-02  0.82257634346E-02 -0.18586666321E-01  0.10216465478E+01  0.10214035032E+01 0.  0.
     999903    2    3    3    0    0 -0.71774519406E-01 -0.10589916651E+00 -0.17295436455E-01  0.13059530880E+00  0.19743035592E-01 0.  0.
         14    1    1    2    0    0 -0.91337227953E-02 -0.82257634346E-02  0.18586666321E-01  0.22283452181E-01  0.00000000000E+00 0.  1.
     999901    1    3    3    0    0  0.80908242201E-01  0.11412492994E+00 -0.12912298658E-02  0.89105123902E+00  0.88000000000E+00 0. -1.
        -11    1    4    4    0    0 -0.28496383446E-01 -0.26018881021E-01 -0.48671206601E-02  0.38896992475E-01  0.51100000000E-03 0.  1.
         11    1    4    4    0    0 -0.43278135960E-01 -0.79880285487E-01 -0.12428315795E-01  0.91698316321E-01  0.51100000000E-03 0. -1.
</event>
<event>
 8    1  0.5489035E+004  0.1043930E+01  0.7957747E-01            NaN
         13   -1    0    0    0    0  0.00000000000E+00  0.00000000000E+00  0.74505805969E-08  0.10566000000E+00  0.10566000000E+00 0.  1.
     999900   -1    0    0    0    0 -0.00000000000E+00 -0.00000000000E+00 -0.74505805969E-08  0.93827000000E+00  0.93827000000E+00 0. -1.
     999902    2    1    2    0    0 -0.41822659289E-02  0.22656763243E-01 -0.19210824575E-02  0.10208105098E+01  0.10205486692E+01 0.  0.
     999903    2    3    3    0    0  0.77321752063E-02  0.11334434875E+00 -0.67099872724E-01  0.13367215150E+00  0.21427161286E-01 0.  0.
         14    1    1    2    0    0  0.41822659289E-02 -0.22656763243E-01  0.19210824575E-02  0.23119490193E-01  0.00000000000E+00 0. -1.
     999901    1    3    3    0    0 -0.11914441135E-01 -0.90687585508E-01  0.65178790267E-01  0.88713835830E+00  0.88000000000E+00 0.  1.
        -11    1    4    4    0    0  0.49160140205E-02  0.52244351168E-01 -0.43310340508E-01  0.68041796998E-01  0.51100000000E-03 0. -1.
         11    1    4    4    0    0  0.28161611858E-02  0.61099997583E-01 -0.23789532217E-01  0.65630354506E-01  0.51100000000E-03 0.  1.
</event>
<event>
 8    1  0.5489035E+004  0.1043930E+01  0.7957747E-01            NaN
         13   -1    0    0    0    0  0.00000000000E+00  0.00000000000E+00  0.74505805969E-08  0.10566000000E+00  0.10566000000E+00 0.  1.
     999900   -1    0    0    0    0 -0.00000000000E+00 -0.00000000000E+00 -0.74505805969E-08  0.93827000000E+00  0.93827000000E+00 0.  1.
     999902    2    1    2    0    0 -0.11625255663E-01 -0.12068508988E-02  0.20956094013E-01  0.10199349810E+01  0.10196526882E+01 0.  0.
     999903    2    3    3    0    0  0.67679954994E-01  0.89933274596E-01  0.63220492670E-01  0.13067567224E+00  0.20266485469E-01 0.  0.
         14    1    1    2    0    0  0.11625255663E-01  0.12068508988E-02 -0.20956094013E-01  0.23995018954E-01  0.00000000000E+00 0. -1.
     999901    1    3    3    0    0 -0.79305210657E-01 -0.91140125495E-01 -0.42264398658E-01  0.88925930881E+00  0.88000000000E+00 0. -1.
        -11    1    4    4    0    0  0.14275447555E-01  0.16567626786E-01  0.37915326032E-02  0.22201610318E-01  0.51100000000E-03 0.  1.
         11    1    4    4    0    0  0.53404507439E-01  0.73365647810E-01  0.59428960067E-01  0.10847406192E+00  0.51100000000E-03 0. -1.
</event>
<event>
 8    1  0.5489035E+004  0.1043930E+01  0.7957747E-01            NaN
         13   -1    0    0    0    0  0.00000000000E+00  0.00000000000E+00  0.74505805969E-08  0.10566000000E+00  0.10566000000E+00 0. -1.
     999900   -1    0    0    0    0 -0.00000000000E+00 -0.00000000000E+00 -0.74505805969E-08  0.93827000000E+00  0.93827000000E+00 0. -1.
     999902    2    1    2    0    0  0.62904566310E-02  0.21130044929E-01 -0.92255829509E-02  0.10200310455E+01  0.10197510352E+01 0.  0.
     999903    2    3    3    0    0  0.50921495643E-01 -0.96523100906E-01  0.64057772974E-01  0.12806431824E+00  0.19681554809E-01 0.  0.
         14    1    1    2    0    0 -0.62904566310E-02 -0.21130044929E-01  0.92255829509E-02  0.23898954457E-01  0.00000000000E+00 0.  1.
     999901    1    3    3    0    0 -0.44631039012E-01  0.11765314584E+00 -0.73283355925E-01  0.89196672731E+00  0.88000000000E+00 0. -1.
        -11    1    4    4    0    0  0.65461542019E-02 -0.29500451661E-01  0.21681223959E-01  0.37194964396E-01  0.51100000000E-03 0.  1.
         11    1    4    4    0    0  0.44375341441E-01 -0.67022649245E-01  0.42376549015E-01  0.90869353840E-01  0.51100000000E-03 0. -1.
</event>
<event>
 8    1  0.5489035E+004  0.1043930E+01  0.7957747E-01            NaN
         13   -1    0    0    0    0  0.00000000000E+00  0.00000000000E+00  0.74505805969E-08  0.10566000000E+00  0.10566000000E+00 0.  1.
     999900   -1    0    0    0    0 -0.00000000000E+00 -0.00000000000E+00 -0.74505805969E-08  0.93827000000E+00  0.93827000000E+00 0.  1.
     999902    2    1    2    0    0 -0.17776069251E-01 -0.33378316245E-02 -0.13853229841E-01  0.10211475125E+01  0.10208933346E+01 0.  0.
     999903    2    3    3    0    0  0.12206284823E+00  0.14553853825E-01 -0.34906418865E-01  0.12967778674E+00  0.22061657117E-01 0.  0.
         14    1    1    2    0    0  0.17776069251E-01  0.33378316245E-02  0.13853229841E-01  0.22782487463E-01  0.00000000000E+00 0.  1.
     999901    1    3    3    0    0 -0.13983891748E+00 -0.17891685449E-01  0.21053189024E-01  0.89146972580E+00  0.88000000000E+00 0. -1.
        -11    1    4    4    0    0  0.72236382952E-01  0.16111134835E-01 -0.12668280892E-01  0.75089347776E-01  0.51100000000E-03 0.  1.
         11    1    4    4    0    0  0.49826465282E-01 -0.15572810104E-02 -0.22238137973E-01  0.54588438960E-01  0.51100000000E-03 0. -1.
</event>
<event>
 8    1  0.5489035E+004  0.1043930E+01  0.7957747E-01            NaN
         13   -1    0    0    0    0  0.00000000000E+00  0.00000000000E+00  0.74505805969E-08  0.10566000000E+00  0.10566000000E+00 0. -1.
     999900   -1    0    0    0    0 -0.00000000000E+00 -0.00000000000E+00 -0.74505805969E-08  0.93827000000E+00  0.93827000000E+00 0. -1.
     999902    2    1    2    0    0  0.11952081871E-01  0.20184428108E-01 -0.72196023120E-02  0.10193864457E+01  0.10190909379E+01 0.  0.
     999903    2    3    3    0    0 -0.60867359131E-01  0.11017304662E+00  0.30982973231E-01  0.13098335071E+00  0.18808453498E-01 0.  0.
         14    1    1    2    0    0 -0.11952081871E-01 -0.20184428108E-01  0.72196023120E-02  0.24543554279E-01  0.00000000000E+00 0.  1.
     999901    1    3    3    0    0  0.72819441002E-01 -0.89988618514E-01 -0.38202575542E-01  0.88840309501E+00  0.88000000000E+00 0. -1.
        -11    1    4    4    0    0 -0.44266124244E-01  0.61276283379E-01  0.19827463981E-01  0.78151532993E-01  0.51100000000E-03 0. -1.
         11    1    4    4    0    0 -0.16601234887E-01  0.48896763243E-01  0.11155509249E-01  0.52831817715E-01  0.51100000000E-03 0.  1.
</event>
<event>
 8    1  0.5489035E+004  0.1043930E+01  0.7957747E-01            NaN
         13   -1    0    0    0    0  0.00000000000E+00  0.00000000000E+00  0.74505805969E-08  0.10566000000E+00  0.10566000000E+00 0.  1.
     999900   -1    0    0    0    0 -0.00000000000E+00 -0.00000000000E+00 -0.74505805969E-08  0.93827000000E+00  0.93827000000E+00 0. -1.
     999902    2    1    2    0    0 -0.18345580354E-01 -0.11393182692E-02 -0.14770587995E-01  0.10203497406E+01  0.10200772346E+01 0.  0.
     999903    2    3    3    0    0 -0.10279383132E+00  0.42425511004E-01 -0.71251972476E-01  0.13343399022E+00  0.19007641177E-01 0.  0.
         14    1    1    2    0    0  0.18345580354E-01  0.11393182692E-02  0.14770587995E-01  0.23580259420E-01  0.00000000000E+00 0.  1.
     999901    1    3    3    0    0  0.84448250967E-01 -0.43564829273E-01  0.56481384481E-01  0.88691575036E+00  0.88000000000E+00 0.  1.
        -11    1    4    4    0    0 -0.57341314418E-01  0.17344127762E-01 -0.29320461600E-01  0.66699293073E-01  0.51100000000E-03 0.  1.
         11    1    4    4    0    0 -0.45452516902E-01  0.25081383242E-01 -0.41931510876E-01  0.66734697148E-01  0.51100000000E-03 0. -1.
</event>
<event>
 8    1  0.5489035E+004  0.1043930E+01  0.7957747E-01            NaN
         13   -1    0    0    0    0  0.00000000000E+00  0.00000000000E+00  0.74505805969E-08  0.10566000000E+00  0.10566000000E+00 0.  1.
     999900   -1    0    0    0    0 -0.00000000000E+00 -0.00000000000E+00 -0.74505805969E-08  0.93827000000E+00  0.93827000000E+00 0.  1.
     999902    2    1    2    0    0 -0.18250223051E-01  0.12481989330E-01 -0.20478863113E-02  0.10217249434E+01  0.10214836247E+01 0.  0.
     999903    2    3    3    0    0  0.57050419561E-01 -0.10273742928E+00 -0.50848726679E-01  0.12968950510E+00  0.20592352494E-01 0.  0.
         14    1    1    2    0    0  0.18250223051E-01 -0.12481989330E-01  0.20478863113E-02  0.22205056572E-01  0.00000000000E+00 0.  1.
     999901    1    3    3    0    0 -0.75300642612E-01  0.11521941861E+00  0.48800840368E-01  0.89203543832E+00  0.88000000000E+00 0. -1.
        -11    1    4    4    0    0  0.96619264801E-02 -0.55628192474E-02 -0.56138055258E-02  0.12492946601E-01  0.51100000000E-03 0.  1.
         11    1    4    4    0    0  0.47388493081E-01 -0.97174610037E-01 -0.45234921153E-01  0.11719655850E+00  0.51100000000E-03 0. -1.
</event>
<event>
 8    1  0.5489035E+004  0.1043930E+01  0.7957747E-01            NaN
         13   -1    0    0    0    0  0.00000000000E+00  0.00000000000E+00  0.74505805969E-08  0.10566000000E+00  0.10566000000E+00 0. -1.
     999900   -1    0    0    0    0 -0.00000000000E+00 -0.00000000000E+00 -0.74505805969E-08  0.93827000000E+00  0.93827000000E+00 0.  1.
     999902    2    1    2    0    0 -0.22976242006E-01  0.47057624528E-02  0.12124647331E-02  0.10204454952E+01  0.10201752235E+01 0.  0.
     999903    2    3    3    0    0  0.92782888622E-01 -0.86116056365E-01  0.49706837202E-02  0.12822192267E+00  0.19786717035E-01 0.  0.
         14    1    1    2    0    0  0.22976242006E-01 -0.47057624528E-02 -0.12124647331E-02  0.23484504843E-01  0.00000000000E+00 0. -1.
     999901    1    3    3    0    0 -0.11575913063E+00  0.90821818817E-01 -0.37582189871E-02  0.89222357249E+00  0.88000000000E+00 0.  1.
        -11    1    4    4    0    0  0.73815529175E-01 -0.66190662864E-01 -0.41529018055E-02  0.99234287986E-01  0.51100000000E-03 0. -1.
         11    1    4    4    0    0  0.18967359447E-01 -0.19925393501E-01  0.91235855257E-02  0.28987634681E-01  0.51100000000E-03 0.  1.
</event>
<event>
 8    1  0.5489035E+004  0.1043930E+01  0.7957747E-01            NaN
         13   -1    0    0    0    0  0.00000000000E+00  0.00000000000E+00  0.74505805969E-08  0.10566000000E+00  0.10566000000E+00 0. -1.
     999900   -1    0    0    0    0 -0.00000000000E+00 -0.00000000000E+00 -0.74505805969E-08  0.93827000000E+00  0.93827000000E+00 0. -1.
     999902    2    1    2    0    0 -0.50526546819E-02 -0.10573829846E-01 -0.20087942743E-01  0.10206735893E+01  0.10204086021E+01 0.  0.
     999903    2    3    3    0    0 -0.60989813846E-01 -0.10110216404E-01 -0.11680584910E+00  0.13360902897E+00  0.19641597898E-01 0.  0.
         14    1    1    2    0    0  0.50526546819E-02  0.10573829846E-01  0.20087942743E-01  0.23256410742E-01  0.00000000000E+00 0. -1.
     999901    1    3    3    0    0  0.55937159164E-01 -0.46361344197E-03  0.96717906362E-01  0.88706456029E+00  0.88000000000E+00 0.  1.
        -11    1    4    4    0    0 -0.37644301418E-01 -0.78610842206E-02 -0.90666727001E-01  0.98486580712E-01  0.51100000000E-03 0.  1.
         11    1    4    4    0    0 -0.23345512428E-01 -0.22491321831E-02 -0.26139122104E-01  0.35122448256E-01  0.51100000000E-03 0. -1.
</event>
<event>
 8    1  0.5489035E+004  0.1043930E+01  0.7957747E-01            NaN
         13   -1    0    0    0    0  0.00000000000E+00  0.00000000000E+00  0.74505805969E-08  0.10566000000E+00  0.10566000000E+00 0.  1.
     999900   -1    0    0    0    0 -0.00000000000E+00 -0.00000000000E+00 -0.74505805969E-08  0.93827000000E+00  0.93827000000E+00 0. -1.
     999902    2    1    2    0    0  0.13227959814E-01  0.18824906750E-01 -0.55837991994E-02  0.10202543828E+01  0.10199796424E+01 0.  0.
     999903    2    3    3    0    0 -0.92392791608E-01 -0.53476403339E-01  0.68187127117E-01  0.12793976783E+00  0.17970704832E-01 0.  0.
         14    1    1    2    0    0 -0.13227959814E-01 -0.18824906750E-01  0.55837991994E-02  0.23675617172E-01  0.00000000000E+00 0.  1.
     999901    1    3    3    0    0  0.10562075142E+00  0.72301310089E-01 -0.73770926317E-01  0.89231461500E+00  0.88000000000E+00 0.  1.
        -11    1    4    4    0    0 -0.36436123721E-01 -0.19725825819E-01  0.36909378530E-01  0.55491104337E-01  0.51100000000E-03 0.  1.
         11    1    4    4    0    0 -0.55956667887E-01 -0.33750577520E-01  0.31277748587E-01  0.72448663491E-01  0.51100000000E-03 0. -1.
</event>
<event>
 8    1  0.5489035E+004  0.1043930E+01  0.7957747E-01            NaN
         13   -1    0    0    0    0  0.00000000000E+00  0.00000000000E+00  0.74505805969E-08  0.10566000000E+00  0.10566000000E+00 0. -1.
     999900   -1    0    0    0    0 -0.00000000000E+00 -0.00000000000E+00 -0.74505805969E-08  0.93827000000E+00  0.93827000000E+00 0. -1.
     999902    2    1    2    0    0  0.21849601489E-01 -0.77425761942E-02  0.64603340210E-02  0.10198657425E+01  0.10195817987E+01 0.  0.
     999903    2    3    3    0    0  0.71069182936E-01  0.36356811319E-01 -0.10157238288E+00  0.13079972075E+00  0.20468793124E-01 0.  0.
         14    1    1    2    0    0 -0.21849601489E-01  0.77425761942E-02 -0.64603340210E-02  0.24064257458E-01  0.00000000000E+00 0.  1.
     999901    1    3    3    0    0 -0.49219581446E-01 -0.44099387514E-01  0.10803271690E+00  0.88906602179E+00  0.88000000000E+00 0.  1.
        -11    1    4    4    0    0  0.55625449908E-01  0.25609354530E-01 -0.62887732433E-01  0.87779027839E-01  0.51100000000E-03 0.  1.
         11    1    4    4    0    0  0.15443733028E-01  0.10747456790E-01 -0.38684650451E-01  0.43020692914E-01  0.51100000000E-03 0. -1.
</event>
<event>
 8    1  0.5489035E+004  0.1043930E+01  0.7957747E-01            NaN
         13   -1    0    0    0    0  0.00000000000E+00  0.00000000000E+00  0.74505805969E-08  0.10566000000E+00  0.10566000000E+00 0. -1.
     999900   -1    0    0    0    0 -0.00000000000E+00 -0.00000000000E+00 -0.74505805969E-08  0.93827000000E+00  0.93827000000E+00 0.  1.
     999902    2    1    2    0    0  0.12861103579E-01  0.47819853922E-02  0.18581532361E-01  0.10208313266E+01  0.10205699626E+01 0.  0.
     999903    2    3    3    0    0  0.51055823723E-01  0.44572867520E-01 -0.10918804858E+00  0.12989518028E+00  0.18902122934E-01 0.  0.
         14    1    1    2    0    0 -0.12861103579E-01 -0.47819853922E-02 -0.18581532361E-01  0.23098673435E-01  0.00000000000E+00 0.  1.
     999901    1    3    3    0    0 -0.38194720144E-01 -0.39790882128E-01  0.12776958094E+00  0.89093614629E+00  0.88000000000E+00 0. -1.
        -11    1    4    4    0    0  0.14591897949E-01  0.67819316211E-02 -0.14737184951E-01  0.21825760550E-01  0.51100000000E-03 0.  1.
         11    1    4    4    0    0  0.36463925774E-01  0.37790935899E-01 -0.94450863630E-01  0.10806941973E+00  0.51100000000E-03 0. -1.
</event>
<event>
 8    1  0.5489035E+004  0.1043930E+01  0.7957747E-01            NaN
         13   -1    0    0    0    0  0.00000000000E+00  0.00000000000E+00  0.74505805969E-08  0.10566000000E+00  0.10566000000E+00 0.  1.
     999900   -1    0    0    0    0 -0.00000000000E+00 -0.00000000000E+00 -0.74505805969E-08  0.93827000000E+00  0.93827000000E+00 0.  1.
     999902    2    1    2    0    0 -0.99518819359E-02  0.25546722995E-03  0.20325014577E-01  0.10212979114E+01  0.10210471156E+01 0.  0.
     999903    2    3    3    0    0 -0.83925655771E-01  0.16257864364E-01  0.10311761278E+00  0.13417739519E+00  0.79055337895E-02 0.  0.
         14    1    1    2    0    0  0.99518819359E-02 -0.25546722995E-03 -0.20325014577E-01  0.22632088616E-01  0.00000000000E+00 0. -1.
     999901    1    3    3    0    0  0.73973773835E-01 -0.16002397134E-01 -0.82792598206E-01  0.88712051619E+00  0.88000000000E+00 0.  1.
        -11    1    4    4    0    0 -0.42817101874E-01  0.10366429282E-01  0.58304101045E-01  0.73078015768E-01  0.51100000000E-03 0.  1.
         11    1    4    4    0    0 -0.41108553898E-01  0.58914350820E-02  0.44813511738E-01  0.61099379425E-01  0.51100000000E-03 0. -1.
</event>
<event>
 8    1  0.5489035E+004  0.1043930E+01  0.7957747E-01            NaN
         13   -1    0    0    0    0  0.00000000000E+00  0.00000000000E+00  0.74505805969E-08  0.10566000000E+00  0.10566000000E+00 0. -1.
     999900   -1    0    0    0    0 -0.00000000000E+00 -0.00000000000E+00 -0.74505805969E-08  0.93827000000E+00  0.93827000000E+00 0.  1.
     999902    2    1    2    0    0  0.23382804560E-01  0.11334022508E-02 -0.44909649219E-03  0.10205154354E+01  0.10202467897E+01 0.  0.
     999903    2    3    3    0    0  0.14625688475E-01 -0.30182391708E-01 -0.12506055680E+00  0.13114184565E+00  0.20812334812E-01 0.  0.
         14    1    1    2    0    0 -0.23382804560E-01 -0.11334022508E-02  0.44909649219E-03  0.23414564643E-01  0.00000000000E+00 0.  1.
     999901    1    3    3    0    0  0.87571160857E-02  0.31315793959E-01  0.12461146031E+00  0.88937358971E+00  0.88000000000E+00 0. -1.
        -11    1    4    4    0    0  0.14699550018E-01 -0.27217412612E-01 -0.12422354336E+00  0.12801802282E+00  0.51100000000E-03 0. -1.
         11    1    4    4    0    0 -0.73861543339E-04 -0.29649790965E-02 -0.83701343701E-03  0.31238228286E-02  0.51100000000E-03 0.  1.
</event>
<event>
 8    1  0.5489035E+004  0.1043930E+01  0.7957747E-01            NaN
         13   -1    0    0    0    0  0.00000000000E+00  0.00000000000E+00  0.74505805969E-08  0.10566000000E+00  0.10566000000E+00 0. -1.
     999900   -1    0    0    0    0 -0.00000000000E+00 -0.00000000000E+00 -0.74505805969E-08  0.93827000000E+00  0.93827000000E+00 0.  1.
     999902    2    1    2    0    0 -0.13322934005E-01 -0.41739753690E-02 -0.18306531626E-01  0.10209071474E+01  0.10206475160E+01 0.  0.
     999903    2    3    3    0    0  0.82792094486E-01  0.91599700534E-02  0.95975257157E-01  0.12822791049E+00  0.17108801254E-01 0.  0.
         14    1    1    2    0    0  0.13322934005E-01  0.41739753690E-02  0.18306531626E-01  0.23022852583E-01  0.00000000000E+00 0. -1.
     999901    1    3    3    0    0 -0.96115028491E-01 -0.13333945422E-01 -0.11428178878E+00  0.89267923693E+00  0.88000000000E+00 0.  1.
        -11    1    4    4    0    0  0.23843550514E-01 -0.49469398600E-02  0.29796733351E-01  0.38484978297E-01  0.51100000000E-03 0.  1.
         11    1    4    4    0    0  0.58948543972E-01  0.14106909913E-01  0.66178523805E-01  0.89742932189E-01  0.51100000000E-03 0. -1.
</event>
<event>
 8    1  0.5489035E+004  0.1043930E+01  0.7957747E-01            NaN
         13   -1    0    0    0    0  0.00000000000E+00  0.00000000000E+00  0.74505805969E-08  0.10566000000E+00  0.10566000000E+00 0. -1.
     999900   -1    0    0    0    0 -0.00000000000E+00 -0.00000000000E+00 -0.74505805969E-08  0.93827000000E+00  0.93827000000E+00 0. -1.
     999902    2    1    2    0    0 -0.18083168985E-01 -0.52631588530E-02 -0.12444417346E-01  0.10213564455E+01  0.10211069598E+01 0.  0.
     999903    2    3    3    0    0  0.16643863432E-01 -0.58974639707E-01  0.11301730134E+00  0.13015975964E+00  0.20337804908E-01 0.  0.
         14    1    1    2    0    0  0.18083168985E-01  0.52631588530E-02  0.12444417346E-01  0.22573554543E-01  0.00000000000E+00 0.  1.
     999901    1    3    3    0    0 -0.34727032417E-01  0.53711480854E-01 -0.12546171869E+00  0.89119668582E+00  0.88000000000E+00 0. -1.
        -11    1    4    4    0    0  0.14597280577E-01 -0.33740464618E-01  0.48571217476E-01  0.60917352544E-01  0.51100000000E-03 0. -1.
         11    1    4    4    0    0  0.20465828552E-02 -0.25234175088E-01  0.64446083865E-01  0.69242407095E-01  0.51100000000E-03 0.  1.
</event>
<event>
 8    1  0.5489035E+004  0.1043930E+01  0.7957747E-01            NaN
         13   -1    0    0    0    0  0.00000000000E+00  0.00000000000E+00  0.74505805969E-08  0.10566000000E+00  0.10566000000E+00 0.  1.
     999900   -1    0    0    0    0 -0.00000000000E+00 -0.00000000000E+00 -0.74505805969E-08  0.93827000000E+00  0.93827000000E+00 0. -1.
     999902    2    1    2    0    0 -0.70373946207E-02 -0.22200386362E-01  0.27876409875E-02  0.10204746590E+01  0.10202050660E+01 0.  0.
     999903    2    3    3    0    0 -0.11019370051E+00 -0.53931653497E-01 -0.45976581929E-01  0.13254107695E+00  0.20050339413E-01 0.  0.
         14    1    1    2    0    0  0.70373946207E-02  0.22200386362E-01 -0.27876409875E-02  0.23455340968E-01  0.00000000000E+00 0. -1.
     999901    1    3    3    0    0  0.10315630589E+00  0.31731267135E-01  0.48764222916E-01  0.88793358209E+00  0.88000000000E+00 0.  1.
        -11    1    4    4    0    0 -0.73772415634E-01 -0.25365196317E-01 -0.28138199173E-01  0.82932393348E-01  0.51100000000E-03 0. -1.
         11    1    4    4    0    0 -0.36421284879E-01 -0.28566457180E-01 -0.17838382756E-01  0.49608683598E-01  0.51100000000E-03 0.  1.
</event>
<event>
 8    1  0.5489035E+004  0.1043930E+01  0.7957747E-01            NaN
         13   -1    0    0    0    0  0.00000000000E+00  0.00000000000E+00  0.74505805969E-08  0.10566000000E+00  0.10566000000E+00 0. -1.
     999900   -1    0    0    0    0 -0.00000000000E+00 -0.00000000000E+00 -0.74505805969E-08  0.93827000000E+00  0.93827000000E+00 0. -1.
     999902    2    1    2    0    0  0.14499855714E-01  0.43350728735E-02 -0.18448352433E-01  0.10200683073E+01  0.10197891797E+01 0.  0.
     999903    2    3    3    0    0 -0.32953295505E-01 -0.62883229618E-01 -0.10889386377E+00  0.13161431731E+00  0.20596958590E-01 0.  0.
         14    1    1    2    0    0 -0.14499855714E-01 -0.43350728735E-02  0.18448352433E-01  0.23861692732E-01  0.00000000000E+00 0. -1.
     999901    1    3    3    0    0  0.47453151219E-01  0.67218302491E-01  0.90445511335E-01  0.88845398996E+00  0.88000000000E+00 0.  1.
        -11    1    4    4    0    0 -0.10418123072E-01 -0.31827997811E-01 -0.35577760935E-01  0.48863042549E-01  0.51100000000E-03 0.  1.
         11    1    4    4    0    0 -0.22535172433E-01 -0.31055231807E-01 -0.73316102832E-01  0.82751274762E-01  0.51100000000E-03 0. -1.
</event>
<event>
 8    1  0.5489035E+004  0.1043930E+01  0.7957747E-01            NaN
         13   -1    0    0    0    0  0.00000000000E+00  0.00000000000E+00  0.74505805969E-08  0.10566000000E+00  0.10566000000E+00 0.  1.
     999900   -1    0    0    0    0 -0.00000000000E+00 -0.00000000000E+00 -0.74505805969E-08  0.93827000000E+00  0.93827000000E+00 0.  1.
     999902    2    1    2    0    0  0.96982772278E-02 -0.79918822367E-02  0.21655139085E-01  0.10188925918E+01  0.10185849212E+01 0.  0.
     999903    2    3    3    0    0  0.63980920213E-02  0.95270259619E-01  0.86361295171E-01  0.13048905293E+00  0.21254686097E-01 0.  0.
         14    1    1    2    0    0 -0.96982772278E-02  0.79918822367E-02 -0.21655139085E-01  0.25037408246E-01  0.00000000000E+00 0. -1.
     999901    1    3    3    0    0  0.33001852064E-02 -0.10326214186E+00 -0.64706156086E-01  0.88840353883E+00  0.88000000000E+00 0. -1.
        -11    1    4    4    0    0  0.10532255854E-01  0.26298663320E-01  0.19963053767E-01  0.34660247294E-01  0.51100000000E-03 0. -1.
         11    1    4    4    0    0 -0.41341638331E-02  0.68971596299E-01  0.66398241404E-01  0.95828805634E-01  0.51100000000E-03 0.  1.
</event>
<event>
 8    1  0.5489035E+004  0.1043930E+01  0.7957747E-01            NaN
         13   -1    0    0    0    0  0.00000000000E+00  0.00000000000E+00  0.74505805969E-08  0.10566000000E+00  0.10566000000E+00 0. -1.
     999900   -1    0    0    0    0 -0.00000000000E+00 -0.00000000000E+00 -0.74505805969E-08  0.93827000000E+00  0.93827000000E+00 0. -1.
     999902    2    1    2    0    0 -0.35196699630E-02  0.68631684763E-02  0.44777399282E-02  0.10350114063E+01  0.10349729803E+01 0.  0.
     999903    2    3    3    0    0 -0.70895553052E-01 -0.47106390197E-01 -0.11294330558E+00  0.14302490149E+00  0.21324650800E-01 0.  0.
         14    1    1    2    0    0  0.35196699630E-02 -0.68631684763E-02 -0.44777399282E-02  0.89185936698E-02  0.00000000000E+00 0.  1.
     999901    1    3    3    0    0  0.67375883089E-01  0.53969558673E-01  0.11742104551E+00  0.89198650484E+00  0.88000000000E+00 0.  1.
        -11    1    4    4    0    0 -0.13926855687E-01 -0.17867784132E-01 -0.39905874984E-01  0.45890685311E-01  0.51100000000E-03 0.  1.
         11    1    4    4    0    0 -0.56968697365E-01 -0.29238606064E-01 -0.73037430595E-01  0.97134216181E-01  0.51100000000E-03 0. -1.
</event>
<event>
 8    1  0.5489035E+004  0.1043930E+01  0.7957747E-01            NaN
         13   -1    0    0    0    0  0.00000000000E+00  0.00000000000E+00  0.74505805969E-08  0.10566000000E+00  0.10566000000E+00 0.  1.
     999900   -1    0    0    0    0 -0.00000000000E+00 -0.00000000000E+00 -0.74505805969E-08  0.93827000000E+00  0.93827000000E+00 0. -1.
     999902    2    1    2    0    0  0.71769955096E-02  0.51148658944E-03  0.27638360517E-01  0.10153704157E+01  0.10149686849E+01 0.  0.
     999903    2    3    3    0    0  0.81325358413E-01 -0.67132157803E-01 -0.63847802873E-01  0.12495289541E+00  0.20399598235E-01 0.  0.
         14    1    1    2    0    0 -0.71769955096E-02 -0.51148658944E-03 -0.27638360517E-01  0.28559584296E-01  0.00000000000E+00 0. -1.
     999901    1    3    3    0    0 -0.74148362903E-01  0.67643644393E-01  0.91486163391E-01  0.89041752029E+00  0.88000000000E+00 0.  1.
        -11    1    4    4    0    0  0.18854416270E-01 -0.21046753035E-01 -0.81699234802E-02  0.29418762667E-01  0.51100000000E-03 0. -1.
         11    1    4    4    0    0  0.62470942143E-01 -0.46085404769E-01 -0.55677879393E-01  0.95534132747E-01  0.51100000000E-03 0.  1.
</event>
<event>
 8    1  0.5489035E+004  0.1043930E+01  0.7957747E-01            NaN
         13   -1    0    0    0    0  0.00000000000E+00  0.00000000000E+00  0.74505805969E-08  0.10566000000E+00  0.10566000000E+00 0. -1.
     999900   -1    0    0    0    0 -0.00000000000E+00 -0.00000000000E+00 -0.74505805969E-08  0.93827000000E+00  0.93827000000E+00 0.  1.
     999902    2    1    2    0    0  0.14304958603E-01  0.68799604439E-02  0.16800598026E-01  0.10208166750E+01  0.10205549756E+01 0.  0.
     999903    2    3    3    0    0  0.86226081646E-01 -0.46365241506E-02  0.99971312190E-01  0.13389917885E+00  0.21869895402E-01 0.  0.
         14    1    1    2    0    0 -0.14304958603E-01 -0.68799604439E-02 -0.16800598026E-01  0.23113324953E-01  0.00000000000E+00 0.  1.
     999901    1    3    3    0    0 -0.71921123042E-01  0.11516484595E-01 -0.83170714164E-01  0.88691749619E+00  0.88000000000E+00 0.  1.
        -11    1    4    4    0    0  0.20649103751E-01 -0.17380406431E-02  0.11405917445E-01  0.23659297216E-01  0.51100000000E-03 0. -1.
         11    1    4    4    0    0  0.65576977895E-01 -0.28984835075E-02  0.88565394745E-01  0.11023988164E+00  0.51100000000E-03 0.  1.
</event>
<event>
 8    1  0.5489035E+004  0.1043930E+01  0.7957747E-01            NaN
         13   -1    0    0    0    0  0.00000000000E+00  0.00000000000E+00  0.74505805969E-08  0.10566000000E+00  0.10566000000E+00 0. -1.
     999900   -1    0    0    0    0 -0.00000000000E+00 -0.00000000000E+00 -0.74505805969E-08  0.93827000000E+00  0.93827000000E+00 0. -1.
     999902    2    1    2    0    0 -0.15231814445E-01  0.13737716011E-01 -0.80183082928E-02  0.10219066878E+01  0.10216693459E+01 0.  0.
     999903    2    3    3    0    0  0.59620151360E-01 -0.10520614830E+00  0.41986965059E-01  0.12935361542E+00  0.18616028057E-01 0.  0.
         14    1    1    2    0    0  0.15231814445E-01 -0.13737716011E-01  0.80183082928E-02  0.22023312202E-01  0.00000000000E+00 0. -1.
     999901    1    3    3    0    0 -0.74851965805E-01  0.11894386431E+00 -0.50005273352E-01  0.89255307237E+00  0.88000000000E+00 0. -1.
        -11    1    4    4    0    0  0.50197124516E-01 -0.98421629110E-01  0.35524713784E-01  0.11605530921E+00  0.51100000000E-03 0.  1.
         11    1    4    4    0    0  0.94230268436E-02 -0.67845191869E-02  0.64622512752E-02  0.13298306209E-01  0.51100000000E-03 0. -1.
</event>
<event>
 8    1  0.5489035E+004  0.1043930E+01  0.7957747E-01            NaN
         13   -1    0    0    0    0  0.00000000000E+00  0.00000000000E+00  0.74505805969E-08  0.10566000000E+00  0.10566000000E+00 0.  1.
     999900   -1    0    0    0    0 -0.00000000000E+00 -0.00000000000E+00 -0.74505805969E-08  0.93827000000E+00  0.93827000000E+00 0. -1.
     999902    2    1    2    0    0 -0.53702961605E-02  0.16412895996E-01  0.18168879849E-01  0.10188634599E+01  0.10185550641E+01 0.  0.
     999903    2    3    3    0    0  0.10564298374E+00  0.70978341865E-01 -0.14979913726E-01  0.12959399644E+00  0.19283181018E-01 0.  0.
         14    1    1    2    0    0  0.53702961605E-02 -0.16412895996E-01 -0.18168879849E-01  0.25066540064E-01  0.00000000000E+00 0. -1.
     999901    1    3    3    0    0 -0.11101327990E+00 -0.54565445870E-01  0.33148793575E-01  0.88926946350E+00  0.88000000000E+00 0. -1.
        -11    1    4    4    0    0  0.31797539204E-01  0.11288525573E-01 -0.27958651148E-02  0.33861368723E-01  0.51100000000E-03 0.  1.
         11    1    4    4    0    0  0.73845444534E-01  0.59689816293E-01 -0.12184048611E-01  0.95732627714E-01  0.51100000000E-03 0. -1.
</event>
<event>
 8    1  0.5489035E+004  0.1043930E+01  0.7957747E-01            NaN
         13   -1    0    0    0    0  0.00000000000E+00  0.00000000000E+00  0.74505805969E-08  0.10566000000E+00  0.10566000000E+00 0. -1.
     999900   -1    0    0    0    0 -0.00000000000E+00 -0.00000000000E+00 -0.74505805969E-08  0.93827000000E+00  0.93827000000E+00 0. -1.
     999902    2    1    2    0    0 -0.20080606598E-01  0.12395613489E-01  0.43105541672E-02  0.10199411928E+01  0.10196590478E+01 0.  0.
     999903    2    3    3    0    0  0.11943206730E-01  0.31592822844E-01  0.12497706311E+00  0.13092237191E+00  0.19510369549E-01 0.  0.
         14    1    1    2    0    0  0.20080606598E-01 -0.12395613489E-01 -0.43105541672E-02  0.23988807231E-01  0.00000000000E+00 0.  1.
     999901    1    3    3    0    0 -0.32023813329E-01 -0.19197209355E-01 -0.12066650894E+00  0.88901882086E+00  0.88000000000E+00 0. -1.
        -11    1    4    4    0    0  0.77940581238E-02  0.83154325775E-02  0.72105669747E-01  0.73002619759E-01  0.51100000000E-03 0.  1.
         11    1    4    4    0    0  0.41491486066E-02  0.23277390266E-01  0.52871393363E-01  0.57919752148E-01  0.51100000000E-03 0. -1.
</event>
<event>
 8    1  0.5489035E+004  0.1043930E+01  0.7957747E-01            NaN
         13   -1    0    0    0    0  0.00000000000E+00  0.00000000000E+00  0.74505805969E-08  0.10566000000E+00  0.10566000000E+00 0.  1.
     999900   -1    0    0    0    0 -0.00000000000E+00 -0.00000000000E+00 -0.74505805969E-08  0.93827000000E+00  0.93827000000E+00 0. -1.
     999902    2    1    2    0    0 -0.68858626079E-02 -0.13153865405E-01  0.16464514877E-01  0.10217597603E+01  0.10215192060E+01 0.  0.
     999903    2    3    3    0    0  0.10400879940E+00 -0.78256412991E-01  0.11702274935E-01  0.13240120116E+00  0.21242370466E-01 0.  0.
         14    1    1    2    0    0  0.68858626079E-02  0.13153865405E-01 -0.16464514877E-01  0.22170239717E-01  0.00000000000E+00 0. -1.
     999901    1    3    3    0    0 -0.11089466200E+00  0.65102547586E-01  0.47622399425E-02  0.88935855913E+00  0.88000000000E+00 0.  1.
        -11    1    4    4    0    0  0.69864615188E-01 -0.43036908402E-01  0.39515589561E-03  0.82058864295E-01  0.51100000000E-03 0. -1.
         11    1    4    4    0    0  0.34144184208E-01 -0.35219504589E-01  0.11307119039E-01  0.50342336861E-01  0.51100000000E-03 0.  1.
</event>
<event>
 8    1  0.5489035E+004  0.1043930E+01  0.7957747E-01            NaN
         13   -1    0    0    0    0  0.00000000000E+00  0.00000000000E+00  0.74505805969E-08  0.10566000000E+00  0.10566000000E+00 0. -1.
     999900   -1    0    0    0    0 -0.00000000000E+00 -0.00000000000E+00 -0.74505805969E-08  0.93827000000E+00  0.93827000000E+00 0.  1.
     999902    2    1    2    0    0 -0.10649891985E-01  0.15331008799E-01 -0.14569657372E-01  0.10202501574E+01  0.10199753177E+01 0.  0.
     999903    2    3    3    0    0  0.15668872906E-01 -0.11191474640E+00 -0.60015504041E-01  0.12954847636E+00  0.20261366262E-01 0.  0.
         14    1    1    2    0    0  0.10649891985E-01 -0.15331008799E-01  0.14569657372E-01  0.23679842610E-01  0.00000000000E+00 0. -1.
     999901    1    3    3    0    0 -0.26318764891E-01  0.12724575520E+00  0.45445846669E-01  0.89070168103E+00  0.88000000000E+00 0.  1.
        -11    1    4    4    0    0  0.92470471788E-02 -0.33929817687E-01 -0.95802290130E-02  0.36452466566E-01  0.51100000000E-03 0.  1.
         11    1    4    4    0    0  0.64218257277E-02 -0.77984928715E-01 -0.50435275028E-01  0.93096009799E-01  0.51100000000E-03 0. -1.
</event>
<event>
 8    1  0.5489035E+004  0.1043930E+01  0.7957747E-01            NaN
         13   -1    0    0    0    0  0.00000000000E+00  0.00000000000E+00  0.74505805969E-08  0.10566000000E+00  0.10566000000E+00 0. -1.
     999900   -1    0    0    0    0 -0.00000000000E+00 -0.00000000000E+00 -0.74505805969E-08  0.93827000000E+00  0.93827000000E+00 0.  1.
     999902    2    1    2    0    0 -0.11233858171E-01 -0.16952759121E-01  0.11754474942E-01  0.10204403578E+01  0.10201699665E+01 0.  0.
     999903    2    3    3    0    0 -0.20701387230E-01  0.11509736906E+00 -0.49409465150E-01  0.12843817277E+00  0.19470931710E-01 0.  0.
         14    1    1    2    0    0  0.11233858171E-01  0.16952759121E-01 -0.11754474942E-01  0.23489642236E-01  0.00000000000E+00 0. -1.
     999901    1    3    3    0    0  0.94675290589E-02 -0.13205012818E+00  0.61163940093E-01  0.89200218499E+00  0.88000000000E+00 0. -1.
        -11    1    4    4    0    0 -0.27376101785E-02  0.38035522020E-01 -0.25110800430E-01  0.45661897289E-01  0.51100000000E-03 0. -1.
         11    1    4    4    0    0 -0.17963777051E-01  0.77061847039E-01 -0.24298664720E-01  0.82776275485E-01  0.51100000000E-03 0.  1.
</event>
<event>
 8    1  0.5489035E+004  0.1043930E+01  0.7957747E-01            NaN
         13   -1    0    0    0    0  0.00000000000E+00  0.00000000000E+00  0.74505805969E-08  0.10566000000E+00  0.10566000000E+00 0.  1.
     999900   -1    0    0    0    0 -0.00000000000E+00 -0.00000000000E+00 -0.74505805969E-08  0.93827000000E+00  0.93827000000E+00 0. -1.
     999902    2    1    2    0    0  0.11348444759E-01  0.17297387871E-01 -0.12834709441E-01  0.10195842285E+01  0.10192935212E+01 0.  0.
     999903    2    3    3    0    0  0.16455283432E-01 -0.50662054227E-01 -0.11774518563E+00  0.13073622481E+00  0.19763897597E-01 0.  0.
         14    1    1    2    0    0 -0.11348444759E-01 -0.17297387871E-01  0.12834709441E-01  0.24345771543E-01  0.00000000000E+00 0.  1.
     999901    1    3    3    0    0 -0.51068386733E-02  0.67959442098E-01  0.10491047619E+00  0.88884800365E+00  0.88000000000E+00 0.  1.
        -11    1    4    4    0    0  0.18982055406E-01 -0.27192256023E-01 -0.71141711992E-01  0.78492939307E-01  0.51100000000E-03 0. -1.
         11    1    4    4    0    0 -0.25267719734E-02 -0.23469798204E-01 -0.46603473635E-01  0.52243285503E-01  0.51100000000E-03 0.  1.
</event>
<event>
 8    1  0.5489035E+004  0.1043930E+01  0.7957747E-01            NaN
         13   -1    0    0    0    0  0.00000000000E+00  0.00000000000E+00  0.74505805969E-08  0.10566000000E+00  0.10566000000E+00 0. -1.
     999900   -1    0    0    0    0 -0.00000000000E+00 -0.00000000000E+00 -0.74505805969E-08  0.93827000000E+00  0.93827000000E+00 0.  1.
     999902    2    1    2    0    0  0.49063763363E-02 -0.58653163388E-02 -0.22077796694E-01  0.10205654206E+01  0.10202979340E+01 0.  0.
     999903    2    3    3    0    0  0.83271059278E-01 -0.66593887084E-01  0.71660884119E-01  0.13005100570E+00  0.20227868398E-01 0.  0.
         14    1    1    2    0    0 -0.49063763363E-02  0.58653163388E-02  0.22077796694E-01  0.23364579418E-01  0.00000000000E+00 0. -1.
     999901    1    3    3    0    0 -0.78364682942E-01  0.60728570745E-01 -0.93738680813E-01  0.89051441488E+00  0.88000000000E+00 0.  1.
        -11    1    4    4    0    0  0.50849865749E-01 -0.43457264942E-01  0.33190024279E-01  0.74673164896E-01  0.51100000000E-03 0. -1.
         11    1    4    4    0    0  0.32421193529E-01 -0.23136622142E-01  0.38470859840E-01  0.55377840802E-01  0.51100000000E-03 0.  1.
</event>
<event>
 8    1  0.5489035E+004  0.1043930E+01  0.7957747E-01            NaN
         13   -1    0    0    0    0  0.00000000000E+00  0.00000000000E+00  0.74505805969E-08  0.10566000000E+00  0.10566000000E+00 0.  1.
     999900   -1    0    0    0    0 -0.00000000000E+00 -0.00000000000E+00 -0.74505805969E-08  0.93827000000E+00  0.93827000000E+00 0. -1.
     999902    2    1    2    0    0 -0.23160061138E-03  0.16223750872E-01 -0.15299909625E-01  0.10216286331E+01  0.10213851933E+01 0.  0.
     999903    2    3    3    0    0  0.40615316681E-02 -0.11146897680E+00 -0.65690379789E-01  0.13097546650E+00  0.19937853434E-01 0.  0.
         14    1    1    2    0    0  0.23160061138E-03 -0.16223750872E-01  0.15299909625E-01  0.22301366903E-01  0.00000000000E+00 0.  1.
     999901    1    3    3    0    0 -0.42931322795E-02  0.12769272767E+00  0.50390470164E-01  0.89065316660E+00  0.88000000000E+00 0.  1.
        -11    1    4    4    0    0  0.73769338552E-02 -0.19397070323E-01 -0.78621780220E-02  0.22197757870E-01  0.51100000000E-03 0.  1.
         11    1    4    4    0    0 -0.33154021870E-02 -0.92071906479E-01 -0.57828201767E-01  0.10877770863E+00  0.51100000000E-03 0. -1.
</event>
<event>
 8    1  0.5489035E+004  0.1043930E+01  0.7957747E-01            NaN
         13   -1    0    0    0    0  0.00000000000E+00  0.00000000000E+00  0.74505805969E-08  0.10566000000E+00  0.10566000000E+00 0.  1.
     999900   -1    0    0    0    0 -0.00000000000E+00 -0.00000000000E+00 -0.74505805969E-08  0.93827000000E+00  0.93827000000E+00 0.  1.
     999902    2    1    2    0    0  0.29524401161E-02  0.13866500938E-01  0.24312459598E-01  0.10157858631E+01  0.10153958968E+01 0.  0.
     999903    2    3    3    0    0  0.88177794791E-01  0.82691460926E-01  0.40112229678E-01  0.12885301956E+00  0.19516876668E-01 0.  0.
         14    1    1    2    0    0 -0.29524401161E-02 -0.13866500938E-01 -0.24312459598E-01  0.28144136913E-01  0.00000000000E+00 0. -1.
     999901    1    3    3    0    0 -0.85225354675E-01 -0.68824959988E-01 -0.15799770080E-01  0.88693284353E+00  0.88000000000E+00 0. -1.
        -11    1    4    4    0    0  0.74928162273E-01  0.62214281330E-01  0.37325565025E-01  0.10429911423E+00  0.51100000000E-03 0.  1.
         11    1    4    4    0    0  0.13249632518E-01  0.20477179597E-01  0.27866646531E-02  0.24553905330E-01  0.51100000000E-03 0. -1.
</event>
<event>
 8    1  0.5489035E+004  0.1043930E+01  0.7957747E-01            NaN
         13   -1    0    0    0    0  0.00000000000E+00  0.00000000000E+00  0.74505805969E-08  0.10566000000E+00  0.10566000000E+00 0. -1.
     999900   -1    0    0    0    0 -0.00000000000E+00 -0.00000000000E+00 -0.74505805969E-08  0.93827000000E+00  0.93827000000E+00 0. -1.
     999902    2    1    2    0    0 -0.10153491309E-01 -0.18303760239E-01 -0.91910138991E-02  0.10210696465E+01  0.10208137084E+01 0.  0.
     999903    2    3    3    0    0 -0.35469752366E-02 -0.53626783839E-04  0.12854524317E+00  0.13014429054E+00  0.20026804742E-01 0.  0.
         14    1    1    2    0    0  0.10153491309E-01  0.18303760239E-01  0.91910138991E-02  0.22860353478E-01  0.00000000000E+00 0. -1.
     999901    1    3    3    0    0 -0.66065160719E-02 -0.18250133456E-01 -0.13773625707E+00  0.89092535599E+00  0.88000000000E+00 0. -1.
        -11    1    4    4    0    0 -0.26830054267E-03 -0.89649136453E-02  0.89841984367E-01  0.90290004640E-01  0.51100000000E-03 0. -1.
         11    1    4    4    0    0 -0.32786746940E-02  0.89112868615E-02  0.38703258804E-01  0.39854285897E-01  0.51100000000E-03 0.  1.
</event>
<event>
 8    1  0.5489035E+004  0.1043930E+01  0.7957747E-01            NaN
         13   -1    0    0    0    0  0.00000000000E+00  0.00000000000E+00  0.74505805969E-08  0.10566000000E+00  0.10566000000E+00 0.  1.
     999900   -1    0    0    0    0 -0.00000000000E+00 -0.00000000000E+00 -0.74505805969E-08  0.93827000000E+00  0.93827000000E+00 0. -1.
     999902    2    1    2    0    0 -0.23317555152E-01 -0.49777249897E-02 -0.68904073673E-02  0.10191113812E+01  0.10188091301E+01 0.  0.
     999903    2    3    3    0    0  0.63756311988E-01  0.31182478942E-01 -0.10535243608E+00  0.12861478393E+00  0.20134858987E-01 0.  0.
         14    1    1    2    0    0  0.23317555152E-01  0.49777249897E-02  0.68904073673E-02  0.24818618778E-01  0.00000000000E+00 0. -1.
     999901    1    3    3    0    0 -0.87073867140E-01 -0.36160203932E-01  0.98462028714E-01  0.89049659729E+00  0.88000000000E+00 0.  1.
        -11    1    4    4    0    0  0.39480010877E-01  0.83267379992E-02 -0.54769234090E-01  0.68028934641E-01  0.51100000000E-03 0.  1.
         11    1    4    4    0    0  0.24276301111E-01  0.22855740943E-01 -0.50583201991E-01  0.60585849291E-01  0.51100000000E-03 0. -1.
</event>
<event>
 8    1  0.5489035E+004  0.1043930E+01  0.7957747E-01            NaN
         13   -1    0    0    0    0  0.00000000000E+00  0.00000000000E+00  0.74505805969E-08  0.10566000000E+00  0.10566000000E+00 0.  1.
     999900   -1    0    0    0    0 -0.00000000000E+00 -0.00000000000E+00 -0.74505805969E-08  0.93827000000E+00  0.93827000000E+00 0.  1.
     999902    2    1    2    0    0 -0.12155825176E-01 -0.17084319366E-01 -0.10775066104E-01  0.10203558594E+01  0.10200834965E+01 0.  0.
     999903    2    3    3    0    0  0.10743805260E+00  0.60606966984E-01 -0.28464181643E-01  0.12869923473E+00  0.23176362719E-01 0.  0.
         14    1    1    2    0    0  0.12155825176E-01  0.17084319366E-01  0.10775066104E-01  0.23574140567E-01  0.00000000000E+00 0. -1.
     999901    1    3    3    0    0 -0.11959387778E+00 -0.77691286350E-01  0.17689115539E-01  0.89165662471E+00  0.88000000000E+00 0. -1.
        -11    1    4    4    0    0  0.70779796901E-01  0.51567449279E-01 -0.23017890866E-01  0.90548693505E-01  0.51100000000E-03 0. -1.
         11    1    4    4    0    0  0.36658255699E-01  0.90395177054E-02 -0.54462907770E-02  0.38150541221E-01  0.51100000000E-03 0.  1.
</event>
<event>
 7    1  0.5489035E+004  0.1043930E+01  0.7957747E-01            NaN
         13   -1    0    0    0    0  0.00000000000E+00  0.00000000000E+00  0.74505805969E-08  0.10566000000E+00  0.10566000000E+00 0. -1.
     999900   -1    0    0    0    0 -0.00000000000E+00 -0.00000000000E+00 -0.74505805969E-08  0.93827000000E+00  0.93827000000E+00 0.  1.
     999902    2    1    2    0    0  0.18673113458E-01 -0.42631887356E-02 -0.14389019514E-01  0.10199737101E+01  0.10196923386E+01 0.  0.
         14    1    1    2    0    0 -0.18673113458E-01  0.42631887356E-02  0.14389019514E-01  0.23956289925E-01  0.00000000000E+00 0. -1.
     999901    1    3    3    0    0  0.86687016696E-01 -0.49331048321E-01 -0.80845449947E-01  0.88931669161E+00  0.88000000000E+00 0.  1.
        -11    1    3    3    0    0 -0.64835293868E-01  0.23229747314E-01  0.79367552959E-01  0.10508428082E+00  0.51100000000E-03 0. -1.
         11    1    3    3    0    0 -0.31786093700E-02  0.21838112271E-01 -0.12911122526E-01  0.25572737651E-01  0.51100000000E-03 0.  1.
</event>
<event>
 8    1  0.5489035E+004  0.1043930E+01  0.7957747E-01            NaN
         13   -1    0    0    0    0  0.00000000000E+00  0.00000000000E+00  0.74505805969E-08  0.10566000000E+00  0.10566000000E+00 0. -1.
     999900   -1    0    0    0    0 -0.00000000000E+00 -0.00000000000E+00 -0.74505805969E-08  0.93827000000E+00  0.93827000000E+00 0.  1.
     999902    2    1    2    0    0 -0.18673820712E-01  0.11204581107E-01  0.86186671762E-02  0.10205091622E+01  0.10202403710E+01 0.  0.
     999903    2    3    3    0    0  0.10456143242E+00  0.43218601323E-01  0.60369358471E-01  0.12984089674E+00  0.20328757318E-01 0.  0.
         14    1    1    2    0    0  0.18673820712E-01 -0.11204581107E-01 -0.86186671762E-02  0.23420837766E-01  0.00000000000E+00 0.  1.
     999901    1    3    3    0    0 -0.12323525313E+00 -0.32014020215E-01 -0.51750691294E-01  0.89066826549E+00  0.88000000000E+00 0.  1.
        -11    1    4    4    0    0  0.60049422234E-01  0.14144506110E-01  0.34978706937E-01  0.70920880026E-01  0.51100000000E-03 0. -1.
         11    1    4    4    0    0  0.44512010188E-01  0.29074095213E-01  0.25390651533E-01  0.58920016715E-01  0.51100000000E-03 0.  1.
</event>
<event>
 8    1  0.5489035E+004  0.1043930E+01  0.7957747E-01            NaN
         13   -1    0    0    0    0  0.00000000000E+00  0.00000000000E+00  0.74505805969E-08  0.10566000000E+00  0.10566000000E+00 0. -1.
     999900   -1    0    0    0    0 -0.00000000000E+00 -0.00000000000E+00 -0.74505805969E-08  0.93827000000E+00  0.93827000000E+00 0.  1.
     999902    2    1    2    0    0 -0.83154737746E-02  0.31861916029E-02 -0.19691686869E-01  0.10223183954E+01  0.10220899374E+01 0.  0.
     999903    2    3    3    0    0 -0.57849359323E-01 -0.42732986369E-01  0.10695279830E+00  0.13069010832E+00  0.21641322773E-01 0.  0.
         14    1    1    2    0    0  0.83154737746E-02 -0.31861916029E-02  0.19691686869E-01  0.21611604586E-01  0.00000000000E+00 0. -1.
     999901    1    3    3    0    0  0.49533885548E-01  0.45919177972E-01 -0.12664448516E+00  0.89162828709E+00  0.88000000000E+00 0.  1.
        -11    1    4    4    0    0 -0.13476265021E-01 -0.22157581370E-01  0.42281952693E-01  0.49604362465E-01  0.51100000000E-03 0.  1.
         11    1    4    4    0    0 -0.44373094303E-01 -0.20575404999E-01  0.64670845603E-01  0.81085745855E-01  0.51100000000E-03 0. -1.
</event>
<event>
 8    1  0.5489035E+004  0.1043930E+01  0.7957747E-01            NaN
         13   -1    0    0    0    0  0.00000000000E+00  0.00000000000E+00  0.74505805969E-08  0.10566000000E+00  0.10566000000E+00 0. -1.
     999900   -1    0    0    0    0 -0.00000000000E+00 -0.00000000000E+00 -0.74505805969E-08  0.93827000000E+00  0.93827000000E+00 0.  1.
     999902    2    1    2    0    0 -0.12118493520E-01  0.81811422809E-02 -0.16886900140E-01  0.10215926687E+01  0.10213484343E+01 0.  0.
     999903    2    3    3    0    0  0.75623732967E-02 -0.87865380489E-01  0.92638561138E-01  0.12939980964E+00  0.19618693794E-01 0.  0.
         14    1    1    2    0    0  0.12118493520E-01 -0.81811422809E-02  0.16886900140E-01  0.22337331322E-01  0.00000000000E+00 0. -1.
     999901    1    3    3    0    0 -0.19680866817E-01  0.96046522770E-01 -0.10952546128E+00  0.89219285904E+00  0.88000000000E+00 0.  1.
        -11    1    4    4    0    0  0.11453275468E-01 -0.72984791283E-01  0.83540131184E-01  0.11152206919E+00  0.51100000000E-03 0. -1.
         11    1    4    4    0    0 -0.38909021709E-02 -0.14880589206E-01  0.90984299539E-02  0.17877740446E-01  0.51100000000E-03 0.  1.
</event>
<event>
 8    1  0.5489035E+004  0.1043930E+01  0.7957747E-01            NaN
         13   -1    0    0    0    0  0.00000000000E+00  0.00000000000E+00  0.74505805969E-08  0.10566000000E+00  0.10566000000E+00 0. -1.
     999900   -1    0    0    0    0 -0.00000000000E+00 -0.00000000000E+00 -0.74505805969E-08  0.93827000000E+00  0.93827000000E+00 0.  1.
     999902    2    1    2    0    0  0.70096592161E-02  0.13205158673E-01  0.18594233945E-01  0.10200708912E+01  0.10197918248E+01 0.  0.
     999903    2    3    3    0    0  0.11740949772E+00  0.14727140115E-01  0.55915237352E-01  0.13238665787E+00  0.19945791563E-01 0.  0.
         14    1    1    2    0    0 -0.70096592161E-02 -0.13205158673E-01 -0.18594233945E-01  0.23859108824E-01  0.00000000000E+00 0.  1.
     999901    1    3    3    0    0 -0.11039983851E+00 -0.15219814424E-02 -0.37321003407E-01  0.88768423331E+00  0.88000000000E+00 0. -1.
        -11    1    4    4    0    0  0.72657176921E-01  0.76619617232E-02  0.23765453573E-01  0.76829869973E-01  0.51100000000E-03 0.  1.
         11    1    4    4    0    0  0.44752320804E-01  0.70651783919E-02  0.32149783779E-01  0.55556787894E-01  0.51100000000E-03 0. -1.
</event>
<event>
 8    1  0.5489035E+004  0.1043930E+01  0.7957747E-01            NaN
         13   -1    0    0    0    0  0.00000000000E+00  0.00000000000E+00  0.74505805969E-08  0.10566000000E+00  0.10566000000E+00 0. -1.
     999900   -1    0    0    0    0 -0.00000000000E+00 -0.00000000000E+00 -0.74505805969E-08  0.93827000000E+00  0.93827000000E+00 0. -1.
     999902    2    1    2    0    0  0.88825170996E-02 -0.55592690915E-03 -0.22481712271E-01  0.10197507620E+01  0.10194640656E+01 0.  0.
     999903    2    3    3    0    0  0.18591582452E-01 -0.12706831874E+00 -0.13747935001E-01  0.13060739328E+00  0.19423719962E-01 0.  0.
         14    1    1    2    0    0 -0.88825170996E-02  0.55592690915E-03  0.22481712271E-01  0.24179238024E-01  0.00000000000E+00 0. -1.
     999901    1    3    3    0    0 -0.97090653524E-02  0.12651239183E+00 -0.87337772705E-02  0.88914336870E+00  0.88000000000E+00 0. -1.
        -11    1    4    4    0    0  0.17998949364E-01 -0.56313024904E-01 -0.64298524206E-02  0.59470354592E-01  0.51100000000E-03 0.  1.
         11    1    4    4    0    0  0.59263308782E-03 -0.70755293833E-01 -0.73180825801E-02  0.71137038686E-01  0.51100000000E-03 0. -1.
</event>
<event>
 8    1  0.5489035E+004  0.1043930E+01  0.7957747E-01            NaN
         13   -1    0    0    0    0  0.00000000000E+00  0.00000000000E+00  0.74505805969E-08  0.10566000000E+00  0.10566000000E+00 0.  1.
     999900   -1    0    0    0    0 -0.00000000000E+00 -0.00000000000E+00 -0.74505805969E-08  0.93827000000E+00  0.93827000000E+00 0.  1.
     999902    2    1    2    0    0 -0.16171637449E-01 -0.67556083363E-02  0.16400806477E-03  0.10264032490E+01  0.10262535956E+01 0.  0.
     999903    2    3    3    0    0  0.12618677864E+00 -0.26942749937E-01 -0.31063605474E-01  0.13418769032E+00  0.19808426719E-01 0.  0.
         14    1    1    2    0    0  0.16171637449E-01  0.67556083363E-02 -0.16400806477E-03  0.17526750994E-01  0.00000000000E+00 0.  1.
     999901    1    3    3    0    0 -0.14235841609E+00  0.20187141601E-01  0.31227613539E-01  0.89221555869E+00  0.88000000000E+00 0.  1.
        -11    1    4    4    0    0  0.12829818458E-01  0.27642724431E-02 -0.80861049651E-03  0.13159043117E-01  0.51100000000E-03 0. -1.
         11    1    4    4    0    0  0.11335696019E+00 -0.29707022380E-01 -0.30254994978E-01  0.12102864720E+00  0.51100000000E-03 0.  1.
</event>
<event>
 8    1  0.5489035E+004  0.1043930E+01  0.7957747E-01            NaN
         13   -1    0    0    0    0  0.00000000000E+00  0.00000000000E+00  0.74505805969E-08  0.10566000000E+00  0.10566000000E+00 0. -1.
     999900   -1    0    0    0    0 -0.00000000000E+00 -0.00000000000E+00 -0.74505805969E-08  0.93827000000E+00  0.93827000000E+00 0.  1.
     999902    2    1    2    0    0 -0.21868709312E-01  0.40173172552E-02  0.29171587836E-02  0.10215048110E+01  0.10212586303E+01 0.  0.
     999903    2    3    3    0    0 -0.79450780883E-02 -0.88081045172E-01  0.95560993287E-01  0.13175267929E+00  0.20136292545E-01 0.  0.
         14    1    1    2    0    0  0.21868709312E-01 -0.40173172552E-02 -0.29171587836E-02  0.22425188969E-01  0.00000000000E+00 0.  1.
     999901    1    3    3    0    0 -0.13923631224E-01  0.92098362427E-01 -0.92643834504E-01  0.88975213174E+00  0.88000000000E+00 0.  1.
        -11    1    4    4    0    0 -0.15429987314E-02 -0.69029299791E-01  0.83327588472E-01  0.10821817406E+00  0.51100000000E-03 0.  1.
         11    1    4    4    0    0 -0.64020793570E-02 -0.19051745380E-01  0.12233404815E-01  0.23534505232E-01  0.51100000000E-03 0. -1.
</event>
<event>
 8    1  0.5489035E+004  0.1043930E+01  0.7957747E-01            NaN
         13   -1    0    0    0    0  0.00000000000E+00  0.00000000000E+00  0.74505805969E-08  0.10566000000E+00  0.10566000000E+00 0.  1.
     999900   -1    0    0    0    0 -0.00000000000E+00 -0.00000000000E+00 -0.74505805969E-08  0.93827000000E+00  0.93827000000E+00 0. -1.
     999902    2    1    2    0    0 -0.22409100812E-01 -0.42768827335E-02 -0.97879342842E-03  0.10210954306E+01  0.10208400760E+01 0.  0.
     999903    2    3    3    0    0  0.53919623820E-01 -0.11672833728E+00 -0.74615944595E-02  0.13063856437E+00  0.21861577034E-01 0.  0.
         14    1    1    2    0    0  0.22409100812E-01  0.42768827335E-02  0.97879342842E-03  0.22834569444E-01  0.00000000000E+00 0. -1.
     999901    1    3    3    0    0 -0.76328724632E-01  0.11245145455E+00  0.64828010311E-02  0.89045686619E+00  0.88000000000E+00 0.  1.
        -11    1    4    4    0    0  0.32137870444E-01 -0.87844060794E-01 -0.11455483384E-01  0.94238585272E-01  0.51100000000E-03 0.  1.
         11    1    4    4    0    0  0.21781753376E-01 -0.28884276487E-01  0.39938889245E-02  0.36399979095E-01  0.51100000000E-03 0. -1.
</event>
<event>
 7    1  0.5489035E+004  0.1043930E+01  0.7957747E-01            NaN
         13   -1    0    0    0    0  0.00000000000E+00  0.00000000000E+00  0.74505805969E-08  0.10566000000E+00  0.10566000000E+00 0.  1.
     999900   -1    0    0    0    0 -0.00000000000E+00 -0.00000000000E+00 -0.74505805969E-08  0.93827000000E+00  0.93827000000E+00 0. -1.
     999903    2    1    2    0    0 -0.29855385048E-01 -0.10288960078E+00 -0.97336211675E-01  0.14614408703E+00  0.20152967679E-01 0.  0.
         14    1    1    2    0    0 -0.12437884960E-02  0.45494326640E-02 -0.37349215067E-02  0.60161437855E-02  0.00000000000E+00 0. -1.
     999901    1    1    2    0    0  0.31099173544E-01  0.98340168119E-01  0.10107113318E+00  0.89176976918E+00  0.88000000000E+00 0.  1.
        -11    1    3    3    0    0 -0.22065977289E-01 -0.42332399087E-01 -0.47270180587E-01  0.67183855650E-01  0.51100000000E-03 0. -1.
         11    1    3    3    0    0 -0.77894077585E-02 -0.60557201696E-01 -0.50066031087E-01  0.78960231385E-01  0.51100000000E-03 0.  1.
</event>
<event>
 8    1  0.5489035E+004  0.1043930E+01  0.7957747E-01            NaN
         13   -1    0    0    0    0  0.00000000000E+00  0.00000000000E+00  0.74505805969E-08  0.10566000000E+00  0.10566000000E+00 0.  1.
     999900   -1    0    0    0    0 -0.00000000000E+00 -0.00000000000E+00 -0.74505805969E-08  0.93827000000E+00  0.93827000000E+00 0.  1.
     999902    2    1    2    0    0 -0.16052338141E-01  0.88848934847E-02 -0.11422564975E-01  0.10223176451E+01  0.10220891711E+01 0.  0.
     999903    2    3    3    0    0 -0.43323403331E-01 -0.12184071823E+00 -0.19148853803E-01  0.13220945391E+00  0.19763178037E-01 0.  0.
         14    1    1    2    0    0  0.16052338141E-01 -0.88848934847E-02  0.11422564975E-01  0.21612354861E-01  0.00000000000E+00 0.  1.
     999901    1    3    3    0    0  0.27271065191E-01  0.13072561171E+00  0.77262888279E-02  0.89010819123E+00  0.88000000000E+00 0.  1.
        -11    1    4    4    0    0 -0.19134284417E-02 -0.26459653765E-01 -0.32446589976E-03  0.26535653090E-01  0.51100000000E-03 0.  1.
         11    1    4    4    0    0 -0.41409974890E-01 -0.95381064464E-01 -0.18824387904E-01  0.10567380082E+00  0.51100000000E-03 0. -1.
</event>
<event>
 8    1  0.5489035E+004  0.1043930E+01  0.7957747E-01            NaN
         13   -1    0    0    0    0  0.00000000000E+00  0.00000000000E+00  0.74505805969E-08  0.10566000000E+00  0.10566000000E+00 0. -1.
     999900   -1    0    0    0    0 -0.00000000000E+00 -0.00000000000E+00 -0.74505805969E-08  0.93827000000E+00  0.93827000000E+00 0.  1.
     999902    2    1    2    0    0 -0.12280278638E-01 -0.18707044758E-01 -0.95679485303E-02  0.10195926952E+01  0.10193021925E+01 0.  0.
     999903    2    3    3    0    0 -0.12742642373E+00  0.10333595069E-01  0.21355533913E-01  0.13107806094E+00  0.19522361004E-01 0.  0.
         14    1    1    2    0    0  0.12280278638E-01  0.18707044758E-01  0.95679485303E-02  0.24337304824E-01  0.00000000000E+00 0. -1.
     999901    1    3    3    0    0  0.11514614509E+00 -0.29040639826E-01 -0.30923482443E-01  0.88851463424E+00  0.88000000000E+00 0.  1.
        -11    1    4    4    0    0 -0.98103611357E-01  0.15596752637E-01  0.13385809778E-01  0.10023481570E+00  0.51100000000E-03 0.  1.
         11    1    4    4    0    0 -0.29322812371E-01 -0.52631575686E-02  0.79697241347E-02  0.30843245237E-01  0.51100000000E-03 0. -1.
</event>
<event>
 8    1  0.5489035E+004  0.1043930E+01  0.7957747E-01            NaN
         13   -1    0    0    0    0  0.00000000000E+00  0.00000000000E+00  0.74505805969E-08  0.10566000000E+00  0.10566000000E+00 0. -1.
     999900   -1    0    0    0    0 -0.00000000000E+00 -0.00000000000E+00 -0.74505805969E-08  0.93827000000E+00  0.93827000000E+00 0. -1.
     999902    2    1    2    0    0  0.17141066915E-01  0.19506419931E-01  0.79053547316E-02  0.10167857331E+01  0.10164233448E+01 0.  0.
     999903    2    3    3    0    0 -0.19011967911E-01  0.45101875945E-01 -0.11348754523E+00  0.12734860463E+00  0.30701954989E-01 0.  0.
         14    1    1    2    0    0 -0.17141066915E-01 -0.19506419931E-01 -0.79053547316E-02  0.27144266926E-01  0.00000000000E+00 0.  1.
     999901    1    3    3    0    0  0.36153034827E-01 -0.25595456014E-01  0.12139289996E+00  0.88943712845E+00  0.88000000000E+00 0.  1.
        -11    1    4    4    0    0 -0.51124952084E-02  0.39231225608E-01 -0.60797988746E-01  0.72538839434E-01  0.51100000000E-03 0. -1.
         11    1    4    4    0    0 -0.13899472703E-01  0.58706503371E-02 -0.52689556488E-01  0.54809765194E-01  0.51100000000E-03 0.  1.
</event>
<event>
 8    1  0.5489035E+004  0.1043930E+01  0.7957747E-01            NaN
         13   -1    0    0    0    0  0.00000000000E+00  0.00000000000E+00  0.74505805969E-08  0.10566000000E+00  0.10566000000E+00 0. -1.
     999900   -1    0    0    0    0 -0.00000000000E+00 -0.00000000000E+00 -0.74505805969E-08  0.93827000000E+00  0.93827000000E+00 0. -1.
     999902    2    1    2    0    0 -0.19792788865E-01  0.75886955680E-02 -0.11284921574E-01  0.10199155825E+01  0.10196328277E+01 0.  0.
     999903    2    3    3    0    0  0.11558048027E+00  0.35517749058E-01 -0.39289553600E-01  0.12868597494E+00  0.19901085590E-01 0.  0.
         14    1    1    2    0    0  0.19792788865E-01 -0.75886955680E-02  0.11284921574E-01  0.24014417470E-01  0.00000000000E+00 0. -1.
     999901    1    3    3    0    0 -0.13537326913E+00 -0.27929053490E-01  0.28004632026E-01  0.89122960759E+00  0.88000000000E+00 0.  1.
        -11    1    4    4    0    0  0.23671890286E-01  0.35232743680E-02 -0.15443732736E-01  0.28487573674E-01  0.51100000000E-03 0. -1.
         11    1    4    4    0    0  0.91908589983E-01  0.31994474690E-01 -0.23845820864E-01  0.10019840127E+00  0.51100000000E-03 0.  1.
</event>
<event>
 8    1  0.5489035E+004  0.1043930E+01  0.7957747E-01            NaN
         13   -1    0    0    0    0  0.00000000000E+00  0.00000000000E+00  0.74505805969E-08  0.10566000000E+00  0.10566000000E+00 0. -1.
     999900   -1    0    0    0    0 -0.00000000000E+00 -0.00000000000E+00 -0.74505805969E-08  0.93827000000E+00  0.93827000000E+00 0.  1.
     999902    2    1    2    0    0 -0.17873311978E-01  0.14942073558E-01 -0.51851806304E-02  0.10200635604E+01  0.10197843204E+01 0.  0.
     999903    2    3    3    0    0  0.24140284041E-01  0.12404214048E+00 -0.36705474755E-01  0.13177222538E+00  0.68863323983E-02 0.  0.
         14    1    1    2    0    0  0.17873311978E-01 -0.14942073558E-01  0.51851806304E-02  0.23866439648E-01  0.00000000000E+00 0.  1.
     999901    1    3    3    0    0 -0.42013596019E-01 -0.10910006693E+00  0.31520294125E-01  0.88829133498E+00  0.88000000000E+00 0. -1.
        -11    1    4    4    0    0  0.12727378434E-01  0.53771881798E-01 -0.18693249809E-01  0.58336096401E-01  0.51100000000E-03 0.  1.
         11    1    4    4    0    0  0.11412905607E-01  0.70270258686E-01 -0.18012224947E-01  0.73436128974E-01  0.51100000000E-03 0. -1.
</event>
<event>
 8    1  0.5489035E+004  0.1043930E+01  0.7957747E-01            NaN
         13   -1    0    0    0    0  0.00000000000E+00  0.00000000000E+00  0.74505805969E-08  0.10566000000E+00  0.10566000000E+00 0.  1.
     999900   -1    0    0    0    0 -0.00000000000E+00 -0.00000000000E+00 -0.74505805969E-08  0.93827000000E+00  0.93827000000E+00 0.  1.
     999902    2    1    2    0    0  0.91516547350E-02 -0.15838680881E-01  0.13178147525E-01  0.10213849303E+01  0.10211360809E+01 0.  0.
     999903    2    3    3    0    0 -0.67910255154E-02 -0.11244184534E+00  0.70070010269E-01  0.13412903456E+00  0.19786484336E-01 0.  0.
         14    1    1    2    0    0 -0.91516547350E-02  0.15838680881E-01 -0.13178147525E-01  0.22545069719E-01  0.00000000000E+00 0. -1.
     999901    1    3    3    0    0  0.15942680250E-01  0.96603164463E-01 -0.56891862744E-01  0.88725589572E+00  0.88000000000E+00 0. -1.
        -11    1    4    4    0    0 -0.13618460729E-01 -0.63278525336E-01  0.39092931256E-01  0.75618467563E-01  0.51100000000E-03 0.  1.
         11    1    4    4    0    0  0.68274352134E-02 -0.49163320007E-01  0.30977079013E-01  0.58510567002E-01  0.51100000000E-03 0. -1.
</event>
<event>
 7    1  0.5489035E+004  0.1043930E+01  0.7957747E-01            NaN
         13   -1    0    0    0    0  0.00000000000E+00  0.00000000000E+00  0.74505805969E-08  0.10566000000E+00  0.10566000000E+00 0.  1.
     999900   -1    0    0    0    0 -0.00000000000E+00 -0.00000000000E+00 -0.74505805969E-08  0.93827000000E+00  0.93827000000E+00 0.  1.
     999902    2    1    2    0    0  0.51163422298E-02 -0.22628020231E-01 -0.79380270618E-03  0.10207171936E+01  0.10204532106E+01 0.  0.
         14    1    1    2    0    0 -0.51163422298E-02  0.22628020231E-01  0.79380270618E-03  0.23212806382E-01  0.00000000000E+00 0. -1.
     999901    1    3    3    0    0  0.72512747704E-01 -0.78106783033E-01 -0.83189156229E-01  0.89032533596E+00  0.88000000000E+00 0.  1.
        -11    1    3    3    0    0 -0.58067523718E-01  0.64588201899E-01  0.64223721096E-01  0.10802046384E+00  0.51100000000E-03 0. -1.
         11    1    3    3    0    0 -0.93288817561E-02 -0.91094390965E-02  0.18171632427E-01  0.22371393822E-01  0.51100000000E-03 0.  1.
</event>
<event>
 8    1  0.5489035E+004  0.1043930E+01  0.7957747E-01            NaN
         13   -1    0    0    0    0  0.00000000000E+00  0.00000000000E+00  0.74505805969E-08  0.10566000000E+00  0.10566000000E+00 0. -1.
     999900   -1    0    0    0    0 -0.00000000000E+00 -0.00000000000E+00 -0.74505805969E-08  0.93827000000E+00  0.93827000000E+00 0. -1.
     999902    2    1    2    0    0 -0.17781027529E-01  0.15065132217E-01  0.29669653472E-02  0.10204368939E+01  0.10201664220E+01 0.  0.
     999903    2    3    3    0    0 -0.11329685594E+00 -0.56236163953E-01 -0.31450918490E-01  0.13173461588E+00  0.19135439474E-01 0.  0.
         14    1    1    2    0    0  0.17781027529E-01 -0.15065132217E-01 -0.29669653472E-02  0.23493106054E-01  0.00000000000E+00 0.  1.
     999901    1    3    3    0    0  0.95515828416E-01  0.71301296170E-01  0.34417883837E-01  0.88870227807E+00  0.88000000000E+00 0. -1.
        -11    1    4    4    0    0 -0.27789501689E-01 -0.55385736867E-02 -0.41279701293E-02  0.28639718243E-01  0.51100000000E-03 0. -1.
         11    1    4    4    0    0 -0.85507354255E-01 -0.50697590267E-01 -0.27322948360E-01  0.10309489764E+00  0.51100000000E-03 0.  1.
</event>
<event>
 8    1  0.5489035E+004  0.1043930E+01  0.7957747E-01            NaN
         13   -1    0    0    0    0  0.00000000000E+00  0.00000000000E+00  0.74505805969E-08  0.10566000000E+00  0.10566000000E+00 0.  1.
     999900   -1    0    0    0    0 -0.00000000000E+00 -0.00000000000E+00 -0.74505805969E-08  0.93827000000E+00  0.93827000000E+00 0. -1.
     999902    2    1    2    0    0  0.85533191109E-02 -0.10467924535E-01 -0.19567984620E-01  0.10201467552E+01  0.10198694815E+01 0.  0.
     999903    2    3    3    0    0 -0.76873567901E-01 -0.37690870988E-01 -0.98719885679E-01  0.13205674551E+00  0.19058357984E-01 0.  0.
         14    1    1    2    0    0 -0.85533191109E-02  0.10467924535E-01  0.19567984620E-01  0.23783244816E-01  0.00000000000E+00 0.  1.
     999901    1    3    3    0    0  0.85426887012E-01  0.27222946453E-01  0.79151901059E-01  0.88809000967E+00  0.88000000000E+00 0. -1.
        -11    1    4    4    0    0 -0.39613268303E-01 -0.29891101587E-01 -0.56962391518E-01  0.75549084363E-01  0.51100000000E-03 0.  1.
         11    1    4    4    0    0 -0.37260299598E-01 -0.77997694012E-02 -0.41757494161E-01  0.56507661149E-01  0.51100000000E-03 0. -1.
</event>
<event>
 8    1  0.5489035E+004  0.1043930E+01  0.7957747E-01            NaN
         13   -1    0    0    0    0  0.00000000000E+00  0.00000000000E+00  0.74505805969E-08  0.10566000000E+00  0.10566000000E+00 0. -1.
     999900   -1    0    0    0    0 -0.00000000000E+00 -0.00000000000E+00 -0.74505805969E-08  0.93827000000E+00  0.93827000000E+00 0.  1.
     999902    2    1    2    0    0 -0.66340928286E-02 -0.21398582919E-01  0.52363694143E-02  0.10209228250E+01  0.10206635510E+01 0.  0.
     999903    2    3    3    0    0 -0.44473074317E-02 -0.12131471106E+00  0.52526913412E-01  0.13400433364E+00  0.21472008302E-01 0.  0.
         14    1    1    2    0    0  0.66340928286E-02  0.21398582919E-01 -0.52363694143E-02  0.23007175038E-01  0.00000000000E+00 0.  1.
     999901    1    3    3    0    0 -0.21867853969E-02  0.99916128136E-01 -0.47290543998E-01  0.88691849132E+00  0.88000000000E+00 0.  1.
        -11    1    4    4    0    0 -0.11777002449E-01 -0.79165908856E-01  0.28674164195E-01  0.85020043078E-01  0.51100000000E-03 0.  1.
         11    1    4    4    0    0  0.73296950177E-02 -0.42148802199E-01  0.23852749217E-01  0.48984290564E-01  0.51100000000E-03 0. -1.
</event>
<event>
 8    1  0.5489035E+004  0.1043930E+01  0.7957747E-01            NaN
         13   -1    0    0    0    0  0.00000000000E+00  0.00000000000E+00  0.74505805969E-08  0.10566000000E+00  0.10566000000E+00 0. -1.
     999900   -1    0    0    0    0 -0.00000000000E+00 -0.00000000000E+00 -0.74505805969E-08  0.93827000000E+00  0.93827000000E+00 0. -1.
     999902    2    1    2    0    0 -0.18651889041E-01  0.14885805190E-01 -0.32766484099E-02  0.10198423146E+01  0.10195578111E+01 0.  0.
     999903    2    3    3    0    0 -0.16143100617E-01  0.90677862353E-01 -0.92678670471E-01  0.13206787736E+00  0.19222743086E-01 0.  0.
         14    1    1    2    0    0  0.18651889041E-01 -0.14885805190E-01  0.32766484099E-02  0.24087685355E-01  0.00000000000E+00 0. -1.
     999901    1    3    3    0    0 -0.25087884245E-02 -0.75792057162E-01  0.89402022061E-01  0.88777443729E+00  0.88000000000E+00 0.  1.
        -11    1    4    4    0    0 -0.25442387443E-02  0.58895483808E-01 -0.65237114803E-01  0.87927773955E-01  0.51100000000E-03 0.  1.
         11    1    4    4    0    0 -0.13598861872E-01  0.31782378544E-01 -0.27441555667E-01  0.44140103405E-01  0.51100000000E-03 0. -1.
</event>
<event>
 8    1  0.5489035E+004  0.1043930E+01  0.7957747E-01            NaN
         13   -1    0    0    0    0  0.00000000000E+00  0.00000000000E+00  0.74505805969E-08  0.10566000000E+00  0.10566000000E+00 0.  1.
     999900   -1    0    0    0    0 -0.00000000000E+00 -0.00000000000E+00 -0.74505805969E-08  0.93827000000E+00  0.93827000000E+00 0.  1.
     999902    2    1    2    0    0  0.11160005543E-01  0.76122701169E-02 -0.18864221540E-01  0.10207276028E+01  0.10204638592E+01 0.  0.
     999903    2    3    3    0    0  0.52773340100E-01 -0.10801704314E+00  0.46095754374E-01  0.12981705392E+00  0.16581371565E-01 0.  0.
         14    1    1    2    0    0 -0.11160005543E-01 -0.76122701169E-02  0.18864221540E-01  0.23202397169E-01  0.00000000000E+00 0.  1.
     999901    1    3    3    0    0 -0.41613334556E-01  0.11562931325E+00 -0.64959975914E-01  0.89091054891E+00  0.88000000000E+00 0.  1.
        -11    1    4    4    0    0  0.25982089350E-01 -0.35102780331E-01  0.16586346816E-01  0.46718756144E-01  0.51100000000E-03 0. -1.
         11    1    4    4    0    0  0.26791250750E-01 -0.72914262806E-01  0.29509407558E-01  0.83098297773E-01  0.51100000000E-03 0.  1.
</event>
<event>
 8    1  0.5489035E+004  0.1043930E+01  0.7957747E-01            NaN
         13   -1    0    0    0    0  0.00000000000E+00  0.00000000000E+00  0.74505805969E-08  0.10566000000E+00  0.10566000000E+00 0. -1.
     999900   -1    0    0    0    0 -0.00000000000E+00 -0.00000000000E+00 -0.74505805969E-08  0.93827000000E+00  0.93827000000E+00 0. -1.
     999902    2    1    2    0    0 -0.12212124681E-01 -0.56582828345E-02  0.19122900795E-01  0.10205454434E+01  0.10202774939E+01 0.  0.
     999903    2    3    3    0    0 -0.12767321337E+00  0.27806247404E-01  0.98266005936E-03  0.13218729143E+00  0.19971919960E-01 0.  0.
         14    1    1    2    0    0  0.12212124681E-01  0.56582828345E-02 -0.19122900795E-01  0.23384556628E-01  0.00000000000E+00 0.  1.
     999901    1    3    3    0    0  0.11546108869E+00 -0.33464530238E-01  0.18140240736E-01  0.88835815194E+00  0.88000000000E+00 0.  1.
        -11    1    4    4    0    0 -0.90133423815E-01  0.28541538055E-01 -0.14644156049E-02  0.94557173801E-01  0.51100000000E-03 0. -1.
         11    1    4    4    0    0 -0.37539789560E-01 -0.73529065122E-03  0.24470756643E-02  0.37630117630E-01  0.51100000000E-03 0.  1.
</event>
<event>
 8    1  0.5489035E+004  0.1043930E+01  0.7957747E-01            NaN
         13   -1    0    0    0    0  0.00000000000E+00  0.00000000000E+00  0.74505805969E-08  0.10566000000E+00  0.10566000000E+00 0.  1.
     999900   -1    0    0    0    0 -0.00000000000E+00 -0.00000000000E+00 -0.74505805969E-08  0.93827000000E+00  0.93827000000E+00 0. -1.
     999902    2    1    2    0    0  0.15053884015E-01  0.54199018091E-03  0.10683202025E-01  0.10254626238E+01  0.10252963225E+01 0.  0.
     999903    2    3    3    0    0  0.11487401711E+00 -0.68382387436E-01  0.21429882263E-01  0.13707637903E+00  0.21412685878E-01 0.  0.
         14    1    1    2    0    0 -0.15053884015E-01 -0.54199018091E-03 -0.10683202025E-01  0.18467376175E-01  0.00000000000E+00 0. -1.
     999901    1    3    3    0    0 -0.99820133094E-01  0.68924377616E-01 -0.10746680238E-01  0.88838624479E+00  0.88000000000E+00 0.  1.
        -11    1    4    4    0    0  0.61782886149E-01 -0.30923670382E-01  0.20586127400E-01  0.72093329602E-01  0.51100000000E-03 0.  1.
         11    1    4    4    0    0  0.53091130960E-01 -0.37458717054E-01  0.84375486316E-03  0.64983049430E-01  0.51100000000E-03 0. -1.
</event>
<event>
 8    1  0.5489035E+004  0.1043930E+01  0.7957747E-01            NaN
         13   -1    0    0    0    0  0.00000000000E+00  0.00000000000E+00  0.74505805969E-08  0.10566000000E+00  0.10566000000E+00 0.  1.
     999900   -1    0    0    0    0 -0.00000000000E+00 -0.00000000000E+00 -0.74505805969E-08  0.93827000000E+00  0.93827000000E+00 0. -1.
     999902    2    1    2    0    0 -0.12585058650E-01 -0.17486567165E-01  0.96305311894E-02  0.10203310411E+01  0.10200580976E+01 0.  0.
     999903    2    3    3    0    0 -0.71314844554E-02  0.94169839574E-01  0.87270144083E-01  0.12986778851E+00  0.18186469924E-01 0.  0.
         14    1    1    2    0    0  0.12585058650E-01  0.17486567165E-01 -0.96305311894E-02  0.23598958948E-01  0.00000000000E+00 0.  1.
     999901    1    3    3    0    0 -0.54535741948E-02 -0.11165640674E+00 -0.77639612894E-01  0.89046325254E+00  0.88000000000E+00 0. -1.
        -11    1    4    4    0    0  0.25521161725E-02  0.24305807569E-01  0.31944632278E-01  0.40224448174E-01  0.51100000000E-03 0.  1.
         11    1    4    4    0    0 -0.96836006279E-02  0.69864032005E-01  0.55325511805E-01  0.89643340336E-01  0.51100000000E-03 0. -1.
</event>
<event>
 8    1  0.5489035E+004  0.1043930E+01  0.7957747E-01            NaN
         13   -1    0    0    0    0  0.00000000000E+00  0.00000000000E+00  0.74505805969E-08  0.10566000000E+00  0.10566000000E+00 0. -1.
     999900   -1    0    0    0    0 -0.00000000000E+00 -0.00000000000E+00 -0.74505805969E-08  0.93827000000E+00  0.93827000000E+00 0.  1.
     999902    2    1    2    0    0  0.12639625229E-01  0.20109919048E-01 -0.17601867672E-02  0.10201126276E+01  0.10198345482E+01 0.  0.
     999903    2    3    3    0    0  0.17797997699E-01  0.11238749212E+00  0.65252324095E-01  0.13273872901E+00  0.20346677206E-01 0.  0.
         14    1    1    2    0    0 -0.12639625229E-01 -0.20109919048E-01  0.17601867672E-02  0.23817372389E-01  0.00000000000E+00 0. -1.
     999901    1    3    3    0    0 -0.51583724697E-02 -0.92277573073E-01 -0.67012510862E-01  0.88737389860E+00  0.88000000000E+00 0.  1.
        -11    1    4    4    0    0  0.17424156992E-01  0.54150699832E-01  0.38194714266E-01  0.68520047125E-01  0.51100000000E-03 0. -1.
         11    1    4    4    0    0  0.37384070724E-03  0.58236792289E-01  0.27057609829E-01  0.64218681889E-01  0.51100000000E-03 0.  1.
</event>
<event>
 8    1  0.5489035E+004  0.1043930E+01  0.7957747E-01            NaN
         13   -1    0    0    0    0  0.00000000000E+00  0.00000000000E+00  0.74505805969E-08  0.10566000000E+00  0.10566000000E+00 0.  1.
     999900   -1    0    0    0    0 -0.00000000000E+00 -0.00000000000E+00 -0.74505805969E-08  0.93827000000E+00  0.93827000000E+00 0.  1.
     999902    2    1    2    0    0 -0.22542987881E-01  0.77395011065E-02 -0.31370772079E-02  0.10198898787E+01  0.10196065110E+01 0.  0.
     999903    2    3    3    0    0 -0.13148414912E+00 -0.58725078188E-02  0.12762937046E-02  0.13305678206E+00  0.19491293175E-01 0.  0.
         14    1    1    2    0    0  0.22542987881E-01 -0.77395011065E-02  0.31370772079E-02  0.24040121326E-01  0.00000000000E+00 0. -1.
     999901    1    3    3    0    0  0.10894116124E+00  0.13612008925E-01 -0.44133709125E-02  0.88683309661E+00  0.88000000000E+00 0.  1.
        -11    1    4    4    0    0 -0.17569850937E-01 -0.45864927767E-02  0.57269654070E-02  0.19047173851E-01  0.51100000000E-03 0.  1.
         11    1    4    4    0    0 -0.11391429818E+00 -0.12860150422E-02 -0.44506717024E-02  0.11400960821E+00  0.51100000000E-03 0. -1.
</event>
<event>
 8    1  0.5489035E+004  0.1043930E+01  0.7957747E-01            NaN
         13   -1    0    0    0    0  0.00000000000E+00  0.00000000000E+00  0.74505805969E-08  0.10566000000E+00  0.10566000000E+00 0.  1.
     999900   -1    0    0    0    0 -0.00000000000E+00 -0.00000000000E+00 -0.74505805969E-08  0.93827000000E+00  0.93827000000E+00 0.  1.
     999902    2    1    2    0    0 -0.23731020446E-01 -0.50496188593E-03 -0.50489440335E-03  0.10201882386E+01  0.10199119427E+01 0.  0.
     999903    2    3    3    0    0  0.46936268904E-01  0.11393649125E+00 -0.35097824098E-01  0.12929689683E+00  0.17357790647E-01 0.  0.
         14    1    1    2    0    0  0.23731020446E-01  0.50496188593E-03  0.50489440335E-03  0.23741761440E-01  0.00000000000E+00 0. -1.
     999901    1    3    3    0    0 -0.70667289350E-01 -0.11444145314E+00  0.34592929694E-01  0.89089134173E+00  0.88000000000E+00 0. -1.
        -11    1    4    4    0    0  0.44160547423E-01  0.91641432571E-01 -0.31805383185E-01  0.10658400271E+00  0.51100000000E-03 0.  1.
         11    1    4    4    0    0  0.27757214814E-02  0.22295058683E-01 -0.32924409132E-02  0.22712894126E-01  0.51100000000E-03 0. -1.
</event>
<event>
 8    1  0.5489035E+004  0.1043930E+01  0.7957747E-01            NaN
         13   -1    0    0    0    0  0.00000000000E+00  0.00000000000E+00  0.74505805969E-08  0.10566000000E+00  0.10566000000E+00 0. -1.
     999900   -1    0    0    0    0 -0.00000000000E+00 -0.00000000000E+00 -0.74505805969E-08  0.93827000000E+00  0.93827000000E+00 0.  1.
     999902    2    1    2    0    0  0.14692890596E-01 -0.92730256301E-02  0.15541877783E-01  0.10206186293E+01  0.10203523737E+01 0.  0.
     999903    2    3    3    0    0 -0.84793513475E-02  0.11668857915E+00 -0.50161378923E-01  0.12892350393E+00  0.20420137785E-01 0.  0.
         14    1    1    2    0    0 -0.14692890596E-01  0.92730256301E-02 -0.15541877783E-01  0.23311370690E-01  0.00000000000E+00 0.  1.
     999901    1    3    3    0    0  0.23172241943E-01 -0.12596160478E+00  0.65703256706E-01  0.89169512538E+00  0.88000000000E+00 0. -1.
        -11    1    4    4    0    0 -0.63422771363E-02  0.19505179849E-01 -0.25276431251E-02  0.20671879958E-01  0.51100000000E-03 0.  1.
         11    1    4    4    0    0 -0.21370742111E-02  0.97183399305E-01 -0.47633735798E-01  0.10825162398E+00  0.51100000000E-03 0. -1.
</event>
<event>
 8    1  0.5489035E+004  0.1043930E+01  0.7957747E-01            NaN
         13   -1    0    0    0    0  0.00000000000E+00  0.00000000000E+00  0.74505805969E-08  0.10566000000E+00  0.10566000000E+00 0. -1.
     999900   -1    0    0    0    0 -0.00000000000E+00 -0.00000000000E+00 -0.74505805969E-08  0.93827000000E+00  0.93827000000E+00 0.  1.
     999902    2    1    2    0    0  0.21353192871E-02  0.14909525984E-01 -0.31843356694E-01  0.10087042577E+01  0.10080889974E+01 0.  0.
     999903    2    3    3    0    0  0.43827793767E-01  0.11241841254E+00 -0.67358595614E-02  0.12198184806E+00  0.16595917191E-01 0.  0.
         14    1    1    2    0    0 -0.21353192871E-02 -0.14909525984E-01  0.31843356694E-01  0.35225742279E-01  0.00000000000E+00 0. -1.
     999901    1    3    3    0    0 -0.41692474480E-01 -0.97508886556E-01 -0.25107497133E-01  0.88672240966E+00  0.88000000000E+00 0. -1.
        -11    1    4    4    0    0  0.42150673220E-01  0.97380550473E-01 -0.20463063974E-02  0.10613246136E+00  0.51100000000E-03 0. -1.
         11    1    4    4    0    0  0.16771205463E-02  0.15037862066E-01 -0.46895531640E-02  0.15849386699E-01  0.51100000000E-03 0.  1.
</event>
<event>
 8    1  0.5489035E+004  0.1043930E+01  0.7957747E-01            NaN
         13   -1    0    0    0    0  0.00000000000E+00  0.00000000000E+00  0.74505805969E-08  0.10566000000E+00  0.10566000000E+00 0. -1.
     999900   -1    0    0    0    0 -0.00000000000E+00 -0.00000000000E+00 -0.74505805969E-08  0.93827000000E+00  0.93827000000E+00 0.  1.
     999902    2    1    2    0    0 -0.74174116125E-02 -0.21596136569E-01  0.49658736610E-02  0.10205618377E+01  0.10202942681E+01 0.  0.
     999903    2    3    3    0    0  0.12509829365E+00  0.24399039149E-01  0.11318913669E-01  0.12942978828E+00  0.19469363133E-01 0.  0.
         14    1    1    2    0    0  0.74174116125E-02  0.21596136569E-01 -0.49658736610E-02  0.23368162336E-01  0.00000000000E+00 0.  1.
     999901    1    3    3    0    0 -0.13251570526E+00 -0.45995175718E-01 -0.63530400077E-02  0.89113204939E+00  0.88000000000E+00 0. -1.
        -11    1    4    4    0    0  0.87476629672E-01  0.20336831376E-01  0.16239796997E-01  0.91267406979E-01  0.51100000000E-03 0. -1.
         11    1    4    4    0    0  0.37621663978E-01  0.40622077736E-02 -0.49208833284E-02  0.38162381296E-01  0.51100000000E-03 0.  1.
</event>
<event>
 8    1  0.5489035E+004  0.1043930E+01  0.7957747E-01            NaN
         13   -1    0    0    0    0  0.00000000000E+00  0.00000000000E+00  0.74505805969E-08  0.10566000000E+00  0.10566000000E+00 0.  1.
     999900   -1    0    0    0    0 -0.00000000000E+00 -0.00000000000E+00 -0.74505805969E-08  0.93827000000E+00  0.93827000000E+00 0.  1.
     999902    2    1    2    0    0  0.67162755007E-03  0.24236454440E-01 -0.34136460446E-02  0.10194451111E+01  0.10191510313E+01 0.  0.
     999903    2    3    3    0    0 -0.96156687067E-01  0.30015054571E-01  0.80470422742E-01  0.13015008030E+00  0.17791641207E-01 0.  0.
         14    1    1    2    0    0 -0.67162755007E-03 -0.24236454440E-01  0.34136460446E-02  0.24484888946E-01  0.00000000000E+00 0.  1.
     999901    1    3    3    0    0  0.96828314617E-01 -0.57786001316E-02 -0.83884068787E-01  0.88929503076E+00  0.88000000000E+00 0. -1.
        -11    1    4    4    0    0 -0.58654418804E-01  0.14970918561E-01  0.37738963935E-01  0.71336945321E-01  0.51100000000E-03 0.  1.
         11    1    4    4    0    0 -0.37502268263E-01  0.15044136010E-01  0.42731458807E-01  0.58813134978E-01  0.51100000000E-03 0. -1.
</event>
<event>
 8    1  0.5489035E+004  0.1043930E+01  0.7957747E-01            NaN
         13   -1    0    0    0    0  0.00000000000E+00  0.00000000000E+00  0.74505805969E-08  0.10566000000E+00  0.10566000000E+00 0.  1.
     999900   -1    0    0    0    0 -0.00000000000E+00 -0.00000000000E+00 -0.74505805969E-08  0.93827000000E+00  0.93827000000E+00 0.  1.
     999902    2    1    2    0    0  0.68927053078E-02  0.23297264783E-01  0.18944380059E-02  0.10195607401E+01  0.10192694648E+01 0.  0.
     999903    2    3    3    0    0 -0.12495736341E+00  0.19687050793E-01  0.19522349287E-01  0.12955612352E+00  0.20043562106E-01 0.  0.
         14    1    1    2    0    0 -0.68927053078E-02 -0.23297264783E-01 -0.18944380059E-02  0.24369259903E-01  0.00000000000E+00 0. -1.
     999901    1    3    3    0    0  0.13185006872E+00  0.36102139903E-02 -0.17627911281E-01  0.89000461657E+00  0.88000000000E+00 0.  1.
        -11    1    4    4    0    0 -0.73316550691E-01  0.65843724237E-02  0.26209385920E-02  0.73660036692E-01  0.51100000000E-03 0. -1.
         11    1    4    4    0    0 -0.51640812718E-01  0.13102678369E-01  0.16901410695E-01  0.55896086832E-01  0.51100000000E-03 0.  1.
</event>
<event>
 8    1  0.5489035E+004  0.1043930E+01  0.7957747E-01            NaN
         13   -1    0    0    0    0  0.00000000000E+00  0.00000000000E+00  0.74505805969E-08  0.10566000000E+00  0.10566000000E+00 0.  1.
     999900   -1    0    0    0    0 -0.00000000000E+00 -0.00000000000E+00 -0.74505805969E-08  0.93827000000E+00  0.93827000000E+00 0. -1.
     999902    2    1    2    0    0 -0.72372273210E-02 -0.11953909157E-01  0.18690174347E-01  0.10205934188E+01  0.10203265803E+01 0.  0.
     999903    2    3    3    0    0 -0.12576310291E+00 -0.25535495416E-01  0.25911681305E-01  0.13251403453E+00  0.20497183676E-01 0.  0.
         14    1    1    2    0    0  0.72372273210E-02  0.11953909157E-01 -0.18690174347E-01  0.23336581166E-01  0.00000000000E+00 0. -1.
     999901    1    3    3    0    0  0.11852587559E+00  0.13581586259E-01 -0.72215069582E-02  0.88807938431E+00  0.88000000000E+00 0. -1.
        -11    1    4    4    0    0 -0.40291532838E-01 -0.65504450569E-02 -0.12460608317E-02  0.40842744000E-01  0.51100000000E-03 0. -1.
         11    1    4    4    0    0 -0.85471570072E-01 -0.18985050359E-01  0.27157742137E-01  0.91671290526E-01  0.51100000000E-03 0.  1.
</event>
<event>
 8    1  0.5489035E+004  0.1043930E+01  0.7957747E-01            NaN
         13   -1    0    0    0    0  0.00000000000E+00  0.00000000000E+00  0.74505805969E-08  0.10566000000E+00  0.10566000000E+00 0. -1.
     999900   -1    0    0    0    0 -0.00000000000E+00 -0.00000000000E+00 -0.74505805969E-08  0.93827000000E+00  0.93827000000E+00 0.  1.
     999902    2    1    2    0    0  0.19721988234E-01  0.47997456055E-02  0.11484940448E-01  0.10206083741E+01  0.10203418814E+01 0.  0.
     999903    2    3    3    0    0  0.35566860303E-02  0.65519555536E-01 -0.11040585338E+00  0.12998747947E+00  0.20045702418E-01 0.  0.
         14    1    1    2    0    0 -0.19721988234E-01 -0.47997456055E-02 -0.11484940448E-01  0.23321625905E-01  0.00000000000E+00 0.  1.
     999901    1    3    3    0    0  0.16165302204E-01 -0.60719809931E-01  0.12189079383E+00  0.89062089462E+00  0.88000000000E+00 0. -1.
        -11    1    4    4    0    0 -0.57900616620E-02  0.30283319603E-01 -0.63388194244E-01  0.70490627396E-01  0.51100000000E-03 0. -1.
         11    1    4    4    0    0  0.93467476923E-02  0.35236235933E-01 -0.47017659141E-01  0.59496852078E-01  0.51100000000E-03 0.  1.
</event>
<event>
 8    1  0.5489035E+004  0.1043930E+01  0.7957747E-01            NaN
         13   -1    0    0    0    0  0.00000000000E+00  0.00000000000E+00  0.74505805969E-08  0.10566000000E+00  0.10566000000E+00 0. -1.
     999900   -1    0    0    0    0 -0.00000000000E+00 -0.00000000000E+00 -0.74505805969E-08  0.93827000000E+00  0.93827000000E+00 0.  1.
     999902    2    1    2    0    0  0.23918538172E-01 -0.67382391467E-02 -0.47693876996E-02  0.10186268896E+01  0.10183125713E+01 0.  0.
     999903    2    3    3    0    0 -0.87390795003E-01 -0.75292487306E-01  0.50195427356E-01  0.12727365803E+00  0.19310448099E-01 0.  0.
         14    1    1    2    0    0 -0.23918538172E-01  0.67382391467E-02  0.47693876996E-02  0.25303110365E-01  0.00000000000E+00 0.  1.
     999901    1    3    3    0    0  0.11130933318E+00  0.68554248159E-01 -0.54964815056E-01  0.89135323160E+00  0.88000000000E+00 0.  1.
        -11    1    4    4    0    0 -0.15600177724E-01 -0.11163615039E-01  0.11203156404E-02  0.19222592798E-01  0.51100000000E-03 0.  1.
         11    1    4    4    0    0 -0.71790617279E-01 -0.64128872268E-01  0.49075111716E-01  0.10805106524E+00  0.51100000000E-03 0. -1.
</event>
<event>
 8    1  0.5489035E+004  0.1043930E+01  0.7957747E-01            NaN
         13   -1    0    0    0    0  0.00000000000E+00  0.00000000000E+00  0.74505805969E-08  0.10566000000E+00  0.10566000000E+00 0.  1.
     999900   -1    0    0    0    0 -0.00000000000E+00 -0.00000000000E+00 -0.74505805969E-08  0.93827000000E+00  0.93827000000E+00 0.  1.
     999902    2    1    2    0    0  0.13928873860E-01  0.60374912688E-03  0.19159272599E-01  0.10202349421E+01  0.10199597450E+01 0.  0.
     999903    2    3    3    0    0  0.99989706329E-01  0.83078120661E-01  0.63319964574E-03  0.13200540863E+00  0.22915310606E-01 0.  0.
         14    1    1    2    0    0 -0.13928873860E-01 -0.60374912688E-03 -0.19159272599E-01  0.23695057851E-01  0.00000000000E+00 0. -1.
     999901    1    3    3    0    0 -0.86060832469E-01 -0.82474371534E-01  0.18526072953E-01  0.88822953352E+00  0.88000000000E+00 0. -1.
        -11    1    4    4    0    0  0.23773097965E-01  0.24654496584E-01 -0.92061226439E-02  0.35468552321E-01  0.51100000000E-03 0.  1.
         11    1    4    4    0    0  0.76216608365E-01  0.58423624077E-01  0.98393222896E-02  0.96536856304E-01  0.51100000000E-03 0. -1.
</event>
<event>
 8    1  0.5489035E+004  0.1043930E+01  0.7957747E-01            NaN
         13   -1    0    0    0    0  0.00000000000E+00  0.00000000000E+00  0.74505805969E-08  0.10566000000E+00  0.10566000000E+00 0.  1.
     999900   -1    0    0    0    0 -0.00000000000E+00 -0.00000000000E+00 -0.74505805969E-08  0.93827000000E+00  0.93827000000E+00 0.  1.
     999902    2    1    2    0    0 -0.16241077932E-03  0.18136177819E-01  0.14196635131E-01  0.10208975930E+01  0.10206377436E+01 0.  0.
     999903    2    3    3    0    0 -0.91230370105E-01 -0.88695550987E-01 -0.12086537435E-01  0.12938360172E+00  0.20103502466E-01 0.  0.
         14    1    1    2    0    0  0.16241077932E-03 -0.18136177819E-01 -0.14196635131E-01  0.23032407000E-01  0.00000000000E+00 0. -1.
     999901    1    3    3    0    0  0.91067959326E-01  0.10683172881E+00  0.26283172566E-01  0.89151399128E+00  0.88000000000E+00 0.  1.
        -11    1    4    4    0    0 -0.41888856077E-01 -0.30256710297E-01  0.15175102419E-02  0.51698246970E-01  0.51100000000E-03 0.  1.
         11    1    4    4    0    0 -0.49341514028E-01 -0.58438840691E-01 -0.13604047677E-01  0.77685354746E-01  0.51100000000E-03 0. -1.
</event>
<event>
 8    1  0.5489035E+004  0.1043930E+01  0.7957747E-01            NaN
         13   -1    0    0    0    0  0.00000000000E+00  0.00000000000E+00  0.74505805969E-08  0.10566000000E+00  0.10566000000E+00 0. -1.
     999900   -1    0    0    0    0 -0.00000000000E+00 -0.00000000000E+00 -0.74505805969E-08  0.93827000000E+00  0.93827000000E+00 0. -1.
     999902    2    1    2    0    0  0.37855417093E-02  0.18522418795E-01 -0.58821437763E-02  0.10241307591E+01  0.10239393546E+01 0.  0.
     999903    2    3    3    0    0 -0.37225125081E-01 -0.12029266831E+00 -0.34132348129E-01  0.13185861608E+00  0.19121753589E-01 0.  0.
         14    1    1    2    0    0 -0.37855417093E-02 -0.18522418795E-01  0.58821437763E-02  0.19799240881E-01  0.00000000000E+00 0. -1.
     999901    1    3    3    0    0  0.41010666790E-01  0.13881508710E+00  0.28250204353E-01  0.89227214304E+00  0.88000000000E+00 0.  1.
        -11    1    4    4    0    0 -0.93838648846E-02 -0.46912207285E-01 -0.21130723321E-01  0.52302779100E-01  0.51100000000E-03 0. -1.
         11    1    4    4    0    0 -0.27841260196E-01 -0.73380461021E-01 -0.13001624808E-01  0.79555836980E-01  0.51100000000E-03 0.  1.
</event>
<event>
 8    1  0.5489035E+004  0.1043930E+01  0.7957747E-01            NaN
         13   -1    0    0    0    0  0.00000000000E+00  0.00000000000E+00  0.74505805969E-08  0.10566000000E+00  0.10566000000E+00 0. -1.
     999900   -1    0    0    0    0 -0.00000000000E+00 -0.00000000000E+00 -0.74505805969E-08  0.93827000000E+00  0.93827000000E+00 0. -1.
     999902    2    1    2    0    0  0.15491127616E-01 -0.15509075471E-01  0.65350453711E-02  0.10210561443E+01  0.10207999003E+01 0.  0.
     999903    2    3    3    0    0 -0.96123191532E-01 -0.64167009428E-01 -0.56545672161E-01  0.13043583928E+00  0.21424800588E-01 0.  0.
         14    1    1    2    0    0 -0.15491127616E-01  0.15509075471E-01 -0.65350453711E-02  0.22873855704E-01  0.00000000000E+00 0.  1.
     999901    1    3    3    0    0  0.11161431915E+00  0.48657933957E-01  0.63080717532E-01  0.89062030501E+00  0.88000000000E+00 0.  1.
        -11    1    4    4    0    0 -0.37393531990E-01 -0.34316755276E-01 -0.16658465741E-01  0.53419860812E-01  0.51100000000E-03 0. -1.
         11    1    4    4    0    0 -0.58729659542E-01 -0.29850254151E-01 -0.39887206420E-01  0.77015978471E-01  0.51100000000E-03 0.  1.
</event>
<event>
 8    1  0.5489035E+004  0.1043930E+01  0.7957747E-01            NaN
         13   -1    0    0    0    0  0.00000000000E+00  0.00000000000E+00  0.74505805969E-08  0.10566000000E+00  0.10566000000E+00 0.  1.
     999900   -1    0    0    0    0 -0.00000000000E+00 -0.00000000000E+00 -0.74505805969E-08  0.93827000000E+00  0.93827000000E+00 0.  1.
     999902    2    1    2    0    0  0.34532576605E-03  0.39856662094E-02  0.22828409930E-01  0.10207536956E+01  0.10204905517E+01 0.  0.
     999903    2    3    3    0    0 -0.10033567037E+00 -0.63307389139E-01  0.53952417239E-01  0.13191528391E+00  0.20388882644E-01 0.  0.
         14    1    1    2    0    0 -0.34532576605E-03 -0.39856662094E-02 -0.22828409930E-01  0.23176304385E-01  0.00000000000E+00 0. -1.
     999901    1    3    3    0    0  0.10068099614E+00  0.67293055349E-01 -0.31124007309E-01  0.88883841170E+00  0.88000000000E+00 0. -1.
        -11    1    4    4    0    0 -0.53186768419E-01 -0.33722498990E-01  0.39727414021E-01  0.74461854790E-01  0.51100000000E-03 0.  1.
         11    1    4    4    0    0 -0.47148901954E-01 -0.29584890150E-01  0.14225003218E-01  0.57453429125E-01  0.51100000000E-03 0. -1.
</event>
<event>
 8    1  0.5489035E+004  0.1043930E+01  0.7957747E-01            NaN
         13   -1    0    0    0    0  0.00000000000E+00  0.00000000000E+00  0.74505805969E-08  0.10566000000E+00  0.10566000000E+00 0. -1.
     999900   -1    0    0    0    0 -0.00000000000E+00 -0.00000000000E+00 -0.74505805969E-08  0.93827000000E+00  0.93827000000E+00 0. -1.
     999902    2    1    2    0    0  0.52478964456E-02 -0.97327087277E-02 -0.20103535326E-01  0.10209861954E+01  0.10207283640E+01 0.  0.
     999903    2    3    3    0    0  0.11203781575E+00 -0.61577618460E-01 -0.30233538944E-01  0.13295770572E+00  0.20479486839E-01 0.  0.
         14    1    1    2    0    0 -0.52478964456E-02  0.97327087277E-02  0.20103535326E-01  0.22943804586E-01  0.00000000000E+00 0. -1.
     999901    1    3    3    0    0 -0.10678991930E+00  0.51844909732E-01  0.10130003618E-01  0.88802848969E+00  0.88000000000E+00 0.  1.
        -11    1    4    4    0    0  0.87664134358E-01 -0.39202342861E-01 -0.18162559577E-01  0.97734148740E-01  0.51100000000E-03 0.  1.
         11    1    4    4    0    0  0.24373681390E-01 -0.22375275600E-01 -0.12070979367E-01  0.35223556983E-01  0.51100000000E-03 0. -1.
</event>
<event>
 8    1  0.5489035E+004  0.1043930E+01  0.7957747E-01            NaN
         13   -1    0    0    0    0  0.00000000000E+00  0.00000000000E+00  0.74505805969E-08  0.10566000000E+00  0.10566000000E+00 0. -1.
     999900   -1    0    0    0    0 -0.00000000000E+00 -0.00000000000E+00 -0.74505805969E-08  0.93827000000E+00  0.93827000000E+00 0.  1.
     999902    2    1    2    0    0  0.27771125721E-01  0.28572111784E-02 -0.93056433282E-02  0.10145022227E+01  0.10140753255E+01 0.  0.
     999903    2    3    3    0    0 -0.53280345325E-01 -0.85485974837E-01  0.67758825073E-01  0.12303557062E+00  0.19996153872E-01 0.  0.
         14    1    1    2    0    0 -0.27771125721E-01 -0.28572111784E-02  0.93056433282E-02  0.29427777308E-01  0.00000000000E+00 0. -1.
     999901    1    3    3    0    0  0.81051471046E-01  0.88343186016E-01 -0.77064468401E-01  0.89146665208E+00  0.88000000000E+00 0. -1.
        -11    1    4    4    0    0 -0.13190973750E-01 -0.32154956387E-01  0.32432020095E-01  0.47539878599E-01  0.51100000000E-03 0.  1.
         11    1    4    4    0    0 -0.40089371575E-01 -0.53331018450E-01  0.35326804978E-01  0.75495692017E-01  0.51100000000E-03 0. -1.
</event>
<event>
 8    1  0.5489035E+004  0.1043930E+01  0.7957747E-01            NaN
         13   -1    0    0    0    0  0.00000000000E+00  0.00000000000E+00  0.74505805969E-08  0.10566000000E+00  0.10566000000E+00 0. -1.
     999900   -1    0    0    0    0 -0.00000000000E+00 -0.00000000000E+00 -0.74505805969E-08  0.93827000000E+00  0.93827000000E+00 0. -1.
     999902    2    1    2    0    0 -0.28808853802E-02  0.93085356556E-02 -0.23700278618E-01  0.10183047870E+01  0.10179823120E+01 0.  0.
     999903    2    3    3    0    0 -0.11937668330E+00  0.21189246231E-01  0.37328136999E-01  0.12845261400E+00  0.20171949799E-01 0.  0.
         14    1    1    2    0    0  0.28808853802E-02 -0.93085356556E-02  0.23700278618E-01  0.25625213037E-01  0.00000000000E+00 0. -1.
     999901    1    3    3    0    0  0.11649579792E+00 -0.11880710575E-01 -0.61028415617E-01  0.88985217296E+00  0.88000000000E+00 0. -1.
        -11    1    4    4    0    0 -0.54777411564E-01  0.34307041002E-02  0.25075130245E-01  0.60343664341E-01  0.51100000000E-03 0. -1.
         11    1    4    4    0    0 -0.64599271739E-01  0.17758542131E-01  0.12253006754E-01  0.68108949657E-01  0.51100000000E-03 0.  1.
</event>
<event>
 8    1  0.5489035E+004  0.1043930E+01  0.7957747E-01            NaN
         13   -1    0    0    0    0  0.00000000000E+00  0.00000000000E+00  0.74505805969E-08  0.10566000000E+00  0.10566000000E+00 0.  1.
     999900   -1    0    0    0    0 -0.00000000000E+00 -0.00000000000E+00 -0.74505805969E-08  0.93827000000E+00  0.93827000000E+00 0.  1.
     999902    2    1    2    0    0  0.11745439418E-01 -0.20668103694E-01  0.37417551419E-02  0.10198649509E+01  0.10195809882E+01 0.  0.
     999903    2    3    3    0    0  0.39415064461E-01 -0.75916653013E-01 -0.98143452209E-01  0.13183420489E+00  0.20766195038E-01 0.  0.
         14    1    1    2    0    0 -0.11745439418E-01  0.20668103694E-01 -0.37417551419E-02  0.24065049117E-01  0.00000000000E+00 0.  1.
     999901    1    3    3    0    0 -0.27669625042E-01  0.55248549319E-01  0.10188520735E+00  0.88803074599E+00  0.88000000000E+00 0. -1.
        -11    1    4    4    0    0  0.28608584824E-01 -0.32614463704E-01 -0.48957592108E-01  0.65416063122E-01  0.51100000000E-03 0. -1.
         11    1    4    4    0    0  0.10806479637E-01 -0.43302189310E-01 -0.49185860101E-01  0.66418141769E-01  0.51100000000E-03 0.  1.
</event>
<event>
 8    1  0.5489035E+004  0.1043930E+01  0.7957747E-01            NaN
         13   -1    0    0    0    0  0.00000000000E+00  0.00000000000E+00  0.74505805969E-08  0.10566000000E+00  0.10566000000E+00 0. -1.
     999900   -1    0    0    0    0 -0.00000000000E+00 -0.00000000000E+00 -0.74505805969E-08  0.93827000000E+00  0.93827000000E+00 0.  1.
     999902    2    1    2    0    0  0.69800060168E-02 -0.84129783881E-02 -0.20430098165E-01  0.10207591649E+01  0.10204961465E+01 0.  0.
     999903    2    3    3    0    0 -0.19270705816E-01  0.11028602341E+00 -0.65295254391E-01  0.13126974102E+00  0.20830448853E-01 0.  0.
         14    1    1    2    0    0 -0.69800060168E-02  0.84129783881E-02  0.20430098165E-01  0.23170835125E-01  0.00000000000E+00 0. -1.
     999901    1    3    3    0    0  0.26250711832E-01 -0.11869900180E+00  0.44865156226E-01  0.88948942385E+00  0.88000000000E+00 0. -1.
        -11    1    4    4    0    0  0.19664498926E-02  0.94297194874E-02 -0.78770782351E-03  0.96782301794E-02  0.51100000000E-03 0. -1.
         11    1    4    4    0    0 -0.21237155708E-01  0.10085630393E+00 -0.64507546567E-01  0.12159151084E+00  0.51100000000E-03 0.  1.
</event>
<event>
 8    1  0.5489035E+004  0.1043930E+01  0.7957747E-01            NaN
         13   -1    0    0    0    0  0.00000000000E+00  0.00000000000E+00  0.74505805969E-08  0.10566000000E+00  0.10566000000E+00 0. -1.
     999900   -1    0    0    0    0 -0.00000000000E+00 -0.00000000000E+00 -0.74505805969E-08  0.93827000000E+00  0.93827000000E+00 0. -1.
     999902    2    1    2    0    0 -0.61380428229E-03  0.42990333641E-02 -0.23762670020E-01  0.10197737807E+01  0.10194876365E+01 0.  0.
     999903    2    3    3    0    0  0.10486906669E+00  0.46579676753E-01 -0.61427208686E-01  0.13166742090E+00  0.19895233741E-01 0.  0.
         14    1    1    2    0    0  0.61380428229E-03 -0.42990333641E-02  0.23762670020E-01  0.24156219283E-01  0.00000000000E+00 0. -1.
     999901    1    3    3    0    0 -0.10548287097E+00 -0.42280643389E-01  0.37664538666E-01  0.88810635982E+00  0.88000000000E+00 0. -1.
        -11    1    4    4    0    0  0.61386511043E-02  0.85022448389E-02 -0.74681222132E-02  0.12884299557E-01  0.51100000000E-03 0. -1.
         11    1    4    4    0    0  0.98730415582E-01  0.38077431914E-01 -0.53959086473E-01  0.11878312134E+00  0.51100000000E-03 0.  1.
</event>
<event>
 8    1  0.5489035E+004  0.1043930E+01  0.7957747E-01            NaN
         13   -1    0    0    0    0  0.00000000000E+00  0.00000000000E+00  0.74505805969E-08  0.10566000000E+00  0.10566000000E+00 0.  1.
     999900   -1    0    0    0    0 -0.00000000000E+00 -0.00000000000E+00 -0.74505805969E-08  0.93827000000E+00  0.93827000000E+00 0.  1.
     999902    2    1    2    0    0  0.15088049474E-01  0.16219258566E-01  0.95754963671E-02  0.10197969580E+01  0.10195113692E+01 0.  0.
     999903    2    3    3    0    0  0.32471350277E-01  0.54687462509E-01 -0.11213890265E+00  0.13041718716E+00  0.19707919084E-01 0.  0.
         14    1    1    2    0    0 -0.15088049474E-01 -0.16219258566E-01 -0.95754963671E-02  0.24133041997E-01  0.00000000000E+00 0. -1.
     999901    1    3    3    0    0 -0.17383300803E-01 -0.38468203943E-01  0.12171439901E+00  0.88937977085E+00  0.88000000000E+00 0. -1.
        -11    1    4    4    0    0  0.44619960479E-02  0.25251523991E-01 -0.49540972233E-01  0.55786359653E-01  0.51100000000E-03 0.  1.
         11    1    4    4    0    0  0.28009354229E-01  0.29435938518E-01 -0.62597930415E-01  0.74630827504E-01  0.51100000000E-03 0. -1.
</event>
<event>
 8    1  0.5489035E+004  0.1043930E+01  0.7957747E-01            NaN
         13   -1    0    0    0    0  0.00000000000E+00  0.00000000000E+00  0.74505805969E-08  0.10566000000E+00  0.10566000000E+00 0.  1.
     999900   -1    0    0    0    0 -0.00000000000E+00 -0.00000000000E+00 -0.74505805969E-08  0.93827000000E+00  0.93827000000E+00 0.  1.
     999902    2    1    2    0    0  0.16274344186E-01 -0.92332289190E-02 -0.14735219931E-01  0.10201133356E+01  0.10198352730E+01 0.  0.
     999903    2    3    3    0    0  0.89596776928E-01  0.71666052482E-01  0.58688783304E-01  0.13033136396E+00  0.19449566348E-01 0.  0.
         14    1    1    2    0    0 -0.16274344186E-01  0.92332289190E-02  0.14735219931E-01  0.23816664363E-01  0.00000000000E+00 0.  1.
     999901    1    3    3    0    0 -0.73322432743E-01 -0.80899281401E-01 -0.73424003236E-01  0.88978197168E+00  0.88000000000E+00 0.  1.
        -11    1    4    4    0    0  0.72223233850E-01  0.63698516648E-01  0.54860869833E-01  0.11083173143E+00  0.51100000000E-03 0.  1.
         11    1    4    4    0    0  0.17373543078E-01  0.79675358333E-02  0.38279134714E-02  0.19499632532E-01  0.51100000000E-03 0. -1.
</event>
<event>
 8    1  0.5489035E+004  0.1043930E+01  0.7957747E-01            NaN
         13   -1    0    0    0    0  0.00000000000E+00  0.00000000000E+00  0.74505805969E-08  0.10566000000E+00  0.10566000000E+00 0. -1.
     999900   -1    0    0    0    0 -0.00000000000E+00 -0.00000000000E+00 -0.74505805969E-08  0.93827000000E+00  0.93827000000E+00 0. -1.
     999902    2    1    2    0    0  0.22055639476E-01  0.52632630003E-03  0.71504010334E-02  0.10207382668E+01  0.10204747684E+01 0.  0.
     999903    2    3    3    0    0 -0.87222587369E-01 -0.63477674939E-01 -0.66368989350E-01  0.12863774347E+00  0.22486247666E-01 0.  0.
         14    1    1    2    0    0 -0.22055639476E-01 -0.52632630003E-03 -0.71504010334E-02  0.23191733161E-01  0.00000000000E+00 0.  1.
     999901    1    3    3    0    0  0.10927822685E+00  0.64004001239E-01  0.73519390384E-01  0.89210052337E+00  0.88000000000E+00 0.  1.
        -11    1    4    4    0    0 -0.52663845422E-01 -0.25058858366E-01 -0.31385258448E-01  0.66232337767E-01  0.51100000000E-03 0.  1.
         11    1    4    4    0    0 -0.34558741947E-01 -0.38418816573E-01 -0.34983730903E-01  0.62405405701E-01  0.51100000000E-03 0. -1.
</event>
<event>
 8    1  0.5489035E+004  0.1043930E+01  0.7957747E-01            NaN
         13   -1    0    0    0    0  0.00000000000E+00  0.00000000000E+00  0.74505805969E-08  0.10566000000E+00  0.10566000000E+00 0. -1.
     999900   -1    0    0    0    0 -0.00000000000E+00 -0.00000000000E+00 -0.74505805969E-08  0.93827000000E+00  0.93827000000E+00 0. -1.
     999902    2    1    2    0    0 -0.22150949486E-01 -0.78085778547E-02  0.33733427899E-02  0.10202020019E+01  0.10199260301E+01 0.  0.
     999903    2    3    3    0    0 -0.17393089993E-02 -0.53855845507E-01 -0.11721522007E+00  0.13055117861E+00  0.20018120037E-01 0.  0.
         14    1    1    2    0    0  0.22150949486E-01  0.78085778547E-02 -0.33733427899E-02  0.23727998079E-01  0.00000000000E+00 0.  1.
     999901    1    3    3    0    0 -0.20411640487E-01  0.46047267652E-01  0.12058856286E+00  0.88965082331E+00  0.88000000000E+00 0.  1.
        -11    1    4    4    0    0  0.80934456520E-02 -0.13576776167E-01 -0.37449923777E-01  0.40652067912E-01  0.51100000000E-03 0. -1.
         11    1    4    4    0    0 -0.98327546513E-02 -0.40279069339E-01 -0.79765296292E-01  0.89899110699E-01  0.51100000000E-03 0.  1.
</event>
<event>
 8    1  0.5489035E+004  0.1043930E+01  0.7957747E-01            NaN
         13   -1    0    0    0    0  0.00000000000E+00  0.00000000000E+00  0.74505805969E-08  0.10566000000E+00  0.10566000000E+00 0. -1.
     999900   -1    0    0    0    0 -0.00000000000E+00 -0.00000000000E+00 -0.74505805969E-08  0.93827000000E+00  0.93827000000E+00 0.  1.
     999902    2    1    2    0    0  0.16937535633E-01  0.18215443888E-02 -0.17807848033E-01  0.10192861856E+01  0.10189882289E+01 0.  0.
     999903    2    3    3    0    0 -0.12010070683E+00 -0.26067196114E-02 -0.41059953008E-01  0.12836545409E+00  0.18994612289E-01 0.  0.
         14    1    1    2    0    0 -0.16937535633E-01 -0.18215443888E-02  0.17807848033E-01  0.24643814414E-01  0.00000000000E+00 0. -1.
     999901    1    3    3    0    0  0.13703824246E+00  0.44282640003E-02  0.23252104975E-01  0.89092073149E+00  0.88000000000E+00 0.  1.
        -11    1    4    4    0    0 -0.47516459546E-01  0.76344049431E-02 -0.19775890704E-01  0.52033114848E-01  0.51100000000E-03 0.  1.
         11    1    4    4    0    0 -0.72584247281E-01 -0.10241124555E-01 -0.21284062304E-01  0.76332339245E-01  0.51100000000E-03 0. -1.
</event>
<event>
 8    1  0.5489035E+004  0.1043930E+01  0.7957747E-01            NaN
         13   -1    0    0    0    0  0.00000000000E+00  0.00000000000E+00  0.74505805969E-08  0.10566000000E+00  0.10566000000E+00 0. -1.
     999900   -1    0    0    0    0 -0.00000000000E+00 -0.00000000000E+00 -0.74505805969E-08  0.93827000000E+00  0.93827000000E+00 0.  1.
     999902    2    1    2    0    0  0.53434917556E-02 -0.37707525388E-02  0.23415557780E-01  0.10196182780E+01  0.10193283931E+01 0.  0.
     999903    2    3    3    0    0 -0.10937803112E+00 -0.64313195884E-01  0.20786387873E-01  0.13010530579E+00  0.19889087886E-01 0.  0.
         14    1    1    2    0    0 -0.53434917556E-02  0.37707525388E-02 -0.23415557780E-01  0.24311721967E-01  0.00000000000E+00 0.  1.
     999901    1    3    3    0    0  0.11472152288E+00  0.60542443346E-01  0.26291699070E-02  0.88951297224E+00  0.88000000000E+00 0.  1.
        -11    1    4    4    0    0 -0.42447536034E-01 -0.35335837404E-01  0.48242755825E-02  0.55443209470E-01  0.51100000000E-03 0. -1.
         11    1    4    4    0    0 -0.66930495085E-01 -0.28977358480E-01  0.15962112291E-01  0.74662096318E-01  0.51100000000E-03 0.  1.
</event>
<event>
 7    1  0.5489035E+004  0.1043930E+01  0.7957747E-01            NaN
         13   -1    0    0    0    0  0.00000000000E+00  0.00000000000E+00  0.74505805969E-08  0.10566000000E+00  0.10566000000E+00 0. -1.
     999900   -1    0    0    0    0 -0.00000000000E+00 -0.00000000000E+00 -0.74505805969E-08  0.93827000000E+00  0.93827000000E+00 0.  1.
     999903    2    1    2    0    0  0.13703598232E+00  0.41103556437E-01 -0.41403700889E-02  0.14457811171E+00  0.20428531976E-01 0.  0.
         14    1    1    2    0    0 -0.38364927762E-03 -0.41663522757E-02 -0.67861310428E-02  0.79722802625E-02  0.00000000000E+00 0.  1.
     999901    1    1    2    0    0 -0.13665233304E+00 -0.36937204161E-01  0.10926501132E-01  0.89137960803E+00  0.88000000000E+00 0.  1.
        -11    1    3    3    0    0  0.51292938715E-02 -0.15955448669E-02 -0.24379778680E-02  0.59211718542E-02  0.51100000000E-03 0.  1.
         11    1    3    3    0    0  0.13190668845E+00  0.42699101304E-01 -0.17023922208E-02  0.13865693986E+00  0.51100000000E-03 0. -1.
</event>
<event>
 8    1  0.5489035E+004  0.1043930E+01  0.7957747E-01            NaN
         13   -1    0    0    0    0  0.00000000000E+00  0.00000000000E+00  0.74505805969E-08  0.10566000000E+00  0.10566000000E+00 0. -1.
     999900   -1    0    0    0    0 -0.00000000000E+00 -0.00000000000E+00 -0.74505805969E-08  0.93827000000E+00  0.93827000000E+00 0.  1.
     999902    2    1    2    0    0  0.19379500813E-01 -0.93725913707E-02 -0.86944618787E-02  0.10207135363E+01  0.10204494691E+01 0.  0.
     999903    2    3    3    0    0 -0.94091483818E-01 -0.70664072436E-01  0.49654914683E-01  0.12940160448E+00  0.20797745786E-01 0.  0.
         14    1    1    2    0    0 -0.19379500813E-01  0.93725913707E-02  0.86944618787E-02  0.23216463730E-01  0.00000000000E+00 0. -1.
     999901    1    3    3    0    0  0.11347098463E+00  0.61291481065E-01 -0.58349376562E-01  0.89131193179E+00  0.88000000000E+00 0.  1.
        -11    1    4    4    0    0 -0.81707644184E-01 -0.55261896290E-01  0.47596392226E-01  0.10952485551E+00  0.51100000000E-03 0.  1.
         11    1    4    4    0    0 -0.12383839634E-01 -0.15402176146E-01  0.20585224573E-02  0.19876748976E-01  0.51100000000E-03 0. -1.
</event>
<event>
 8    1  0.5489035E+004  0.1043930E+01  0.7957747E-01            NaN
         13   -1    0    0    0    0  0.00000000000E+00  0.00000000000E+00  0.74505805969E-08  0.10566000000E+00  0.10566000000E+00 0.  1.
     999900   -1    0    0    0    0 -0.00000000000E+00 -0.00000000000E+00 -0.74505805969E-08  0.93827000000E+00  0.93827000000E+00 0.  1.
     999902    2    1    2    0    0  0.21268681929E-01  0.11568705084E-01  0.17701062433E-02  0.10196539821E+01  0.10193649583E+01 0.  0.
     999903    2    3    3    0    0  0.11786180315E+00 -0.22096190905E-01  0.51957884903E-01  0.13230829445E+00  0.20645015924E-01 0.  0.
         14    1    1    2    0    0 -0.21268681929E-01 -0.11568705084E-01 -0.17701062433E-02  0.24276017886E-01  0.00000000000E+00 0.  1.
     999901    1    3    3    0    0 -0.96593121220E-01  0.33664895989E-01 -0.50187778660E-01  0.88734568766E+00  0.88000000000E+00 0. -1.
        -11    1    4    4    0    0  0.80374410018E-02 -0.64876922320E-02  0.76227932715E-02  0.12847517527E-01  0.51100000000E-03 0. -1.
         11    1    4    4    0    0  0.10982436215E+00 -0.15608498673E-01  0.44335091632E-01  0.11946077692E+00  0.51100000000E-03 0.  1.
</event>
<event>
 8    1  0.5489035E+004  0.1043930E+01  0.7957747E-01            NaN
         13   -1    0    0    0    0  0.00000000000E+00  0.00000000000E+00  0.74505805969E-08  0.10566000000E+00  0.10566000000E+00 0.  1.
     999900   -1    0    0    0    0 -0.00000000000E+00 -0.00000000000E+00 -0.74505805969E-08  0.93827000000E+00  0.93827000000E+00 0. -1.
     999902    2    1    2    0    0 -0.13594238136E-01  0.92973853321E-02 -0.17919341369E-01  0.10195918103E+01  0.10193012862E+01 0.  0.
     999903    2    3    3    0    0 -0.56148887299E-02  0.17974602317E-01 -0.12960403975E+00  0.13245459655E+00  0.19809081809E-01 0.  0.
         14    1    1    2    0    0  0.13594238136E-01 -0.92973853321E-02  0.17919341369E-01  0.24338189736E-01  0.00000000000E+00 0.  1.
     999901    1    3    3    0    0 -0.79793494065E-02 -0.86772169845E-02  0.11168469838E+00  0.88713721372E+00  0.88000000000E+00 0.  1.
        -11    1    4    4    0    0 -0.46993919929E-03 -0.19253751854E-02 -0.55872214377E-01  0.55909689436E-01  0.51100000000E-03 0.  1.
         11    1    4    4    0    0 -0.51449495306E-02  0.19899977502E-01 -0.73731825375E-01  0.76544907109E-01  0.51100000000E-03 0. -1.
</event>
<event>
 8    1  0.5489035E+004  0.1043930E+01  0.7957747E-01            NaN
         13   -1    0    0    0    0  0.00000000000E+00  0.00000000000E+00  0.74505805969E-08  0.10566000000E+00  0.10566000000E+00 0. -1.
     999900   -1    0    0    0    0 -0.00000000000E+00 -0.00000000000E+00 -0.74505805969E-08  0.93827000000E+00  0.93827000000E+00 0.  1.
     999902    2    1    2    0    0  0.20365828274E-01 -0.12597549365E-01 -0.72292227242E-02  0.10189154668E+01  0.10186083652E+01 0.  0.
     999903    2    3    3    0    0  0.93502926289E-01 -0.76251266121E-01  0.49321117497E-01  0.13178595439E+00  0.19439967438E-01 0.  0.
         14    1    1    2    0    0 -0.20365828274E-01  0.12597549365E-01  0.72292227242E-02  0.25014533225E-01  0.00000000000E+00 0. -1.
     999901    1    3    3    0    0 -0.73137098015E-01  0.63653716756E-01 -0.56550340222E-01  0.88712951238E+00  0.88000000000E+00 0. -1.
        -11    1    4    4    0    0  0.56449645446E-01 -0.55361716733E-01  0.38226879826E-01  0.87823901148E-01  0.51100000000E-03 0. -1.
         11    1    4    4    0    0  0.37053280843E-01 -0.20889549387E-01  0.11094237672E-01  0.43962053243E-01  0.51100000000E-03 0.  1.
</event>
<event>
 8    1  0.5489035E+004  0.1043930E+01  0.7957747E-01            NaN
         13   -1    0    0    0    0  0.00000000000E+00  0.00000000000E+00  0.74505805969E-08  0.10566000000E+00  0.10566000000E+00 0. -1.
     999900   -1    0    0    0    0 -0.00000000000E+00 -0.00000000000E+00 -0.74505805969E-08  0.93827000000E+00  0.93827000000E+00 0.  1.
     999902    2    1    2    0    0 -0.10446511743E-01  0.97997646411E-02 -0.19145800488E-01  0.10200191934E+01  0.10197389020E+01 0.  0.
     999903    2    3    3    0    0 -0.73708262356E-01  0.87864914469E-01 -0.64352431244E-01  0.13314837072E+00  0.20835116600E-01 0.  0.
         14    1    1    2    0    0  0.10446511743E-01 -0.97997646411E-02  0.19145800488E-01  0.23910806573E-01  0.00000000000E+00 0.  1.
     999901    1    3    3    0    0  0.63261750613E-01 -0.78065149828E-01  0.45206630756E-01  0.88687082271E+00  0.88000000000E+00 0.  1.
        -11    1    4    4    0    0 -0.64323560354E-01  0.64142327743E-01 -0.46890110735E-01  0.10222867617E+00  0.51100000000E-03 0.  1.
         11    1    4    4    0    0 -0.93847020017E-02  0.23722586727E-01 -0.17462320510E-01  0.30919694553E-01  0.51100000000E-03 0. -1.
</event>
<event>
 8    1  0.5489035E+004  0.1043930E+01  0.7957747E-01            NaN
         13   -1    0    0    0    0  0.00000000000E+00  0.00000000000E+00  0.74505805969E-08  0.10566000000E+00  0.10566000000E+00 0. -1.
     999900   -1    0    0    0    0 -0.00000000000E+00 -0.00000000000E+00 -0.74505805969E-08  0.93827000000E+00  0.93827000000E+00 0.  1.
     999902    2    1    2    0    0  0.36161762462E-02  0.20105342045E-01  0.11939196229E-01  0.10202689367E+01  0.10199945379E+01 0.  0.
     999903    2    3    3    0    0 -0.59054172850E-01 -0.10993548082E+00 -0.17568529669E-01  0.12801959143E+00  0.22520152772E-01 0.  0.
         14    1    1    2    0    0 -0.36161762462E-02 -0.20105342045E-01 -0.11939196229E-01  0.23661063289E-01  0.00000000000E+00 0.  1.
     999901    1    3    3    0    0  0.62670349096E-01  0.13004082286E+00  0.29507725898E-01  0.89224934528E+00  0.88000000000E+00 0.  1.
        -11    1    4    4    0    0 -0.10850595577E-02 -0.66557853612E-02 -0.59607527161E-02  0.90149058210E-02  0.51100000000E-03 0. -1.
         11    1    4    4    0    0 -0.57969113292E-01 -0.10327969546E+00 -0.11607776953E-01  0.11900468561E+00  0.51100000000E-03 0.  1.
</event>
<event>
 8    1  0.5489035E+004  0.1043930E+01  0.7957747E-01            NaN
         13   -1    0    0    0    0  0.00000000000E+00  0.00000000000E+00  0.74505805969E-08  0.10566000000E+00  0.10566000000E+00 0.  1.
     999900   -1    0    0    0    0 -0.00000000000E+00 -0.00000000000E+00 -0.74505805969E-08  0.93827000000E+00  0.93827000000E+00 0. -1.
     999902    2    1    2    0    0 -0.13118598423E-01 -0.15880749889E-01 -0.13295056237E-01  0.10194135899E+01  0.10191187433E+01 0.  0.
     999903    2    3    3    0    0 -0.95394027223E-01  0.30146684564E-03 -0.89480004381E-01  0.13215080100E+00  0.18895811939E-01 0.  0.
         14    1    1    2    0    0  0.13118598423E-01  0.15880749889E-01  0.13295056237E-01  0.24516410055E-01  0.00000000000E+00 0.  1.
     999901    1    3    3    0    0  0.82275428800E-01 -0.16182216735E-01  0.76184948144E-01  0.88726278894E+00  0.88000000000E+00 0.  1.
        -11    1    4    4    0    0 -0.25929144441E-01  0.16892673040E-02 -0.36347091716E-01  0.44682729915E-01  0.51100000000E-03 0.  1.
         11    1    4    4    0    0 -0.69464882782E-01 -0.13878004584E-02 -0.53132912665E-01  0.87468071085E-01  0.51100000000E-03 0. -1.
</event>
<event>
 8    1  0.5489035E+004  0.1043930E+01  0.7957747E-01            NaN
         13   -1    0    0    0    0  0.00000000000E+00  0.00000000000E+00  0.74505805969E-08  0.10566000000E+00  0.10566000000E+00 0.  1.
     999900   -1    0    0    0    0 -0.00000000000E+00 -0.00000000000E+00 -0.74505805969E-08  0.93827000000E+00  0.93827000000E+00 0. -1.
     999902    2    1    2    0    0  0.93516413021E-02 -0.93868949284E-02  0.19889651728E-01  0.10200309365E+01  0.10197509236E+01 0.  0.
     999903    2    3    3    0    0  0.89139580112E-01  0.60492177722E-01 -0.68646373314E-01  0.12925159921E+00  0.19709972623E-01 0.  0.
         14    1    1    2    0    0 -0.93516413021E-02  0.93868949284E-02 -0.19889651728E-01  0.23899063523E-01  0.00000000000E+00 0. -1.
     999901    1    3    3    0    0 -0.79787938809E-01 -0.69879072651E-01  0.88536025041E-01  0.89077933727E+00  0.88000000000E+00 0.  1.
        -11    1    4    4    0    0  0.46831285871E-01  0.33187234050E-01 -0.24985765427E-01  0.62602806927E-01  0.51100000000E-03 0. -1.
         11    1    4    4    0    0  0.42308294240E-01  0.27304943672E-01 -0.43660607887E-01  0.66648792281E-01  0.51100000000E-03 0.  1.
</event>
<event>
 8    1  0.5489035E+004  0.1043930E+01  0.7957747E-01            NaN
         13   -1    0    0    0    0  0.00000000000E+00  0.00000000000E+00  0.74505805969E-08  0.10566000000E+00  0.10566000000E+00 0.  1.
     999900   -1    0    0    0    0 -0.00000000000E+00 -0.00000000000E+00 -0.74505805969E-08  0.93827000000E+00  0.93827000000E+00 0. -1.
     999902    2    1    2    0    0  0.20650609008E-01  0.95579753776E-02  0.82630985897E-02  0.10197208830E+01  0.10194334691E+01 0.  0.
     999903    2    3    3    0    0  0.10997460347E+00 -0.61482134382E-01  0.33918807789E-01  0.13198010522E+00  0.19844303889E-01 0.  0.
         14    1    1    2    0    0 -0.20650609008E-01 -0.95579753776E-02 -0.82630985897E-02  0.24209116961E-01  0.00000000000E+00 0. -1.
     999901    1    3    3    0    0 -0.89323994461E-01  0.71040109760E-01 -0.25655709199E-01  0.88774077782E+00  0.88000000000E+00 0.  1.
        -11    1    4    4    0    0  0.84440499346E-01 -0.55680686419E-01  0.23848396488E-01  0.10392085405E+00  0.51100000000E-03 0. -1.
         11    1    4    4    0    0  0.25534104122E-01 -0.58014479629E-02  0.10070411301E-01  0.28059251176E-01  0.51100000000E-03 0.  1.
</event>
<event>
 8    1  0.5489035E+004  0.1043930E+01  0.7957747E-01            NaN
         13   -1    0    0    0    0  0.00000000000E+00  0.00000000000E+00  0.74505805969E-08  0.10566000000E+00  0.10566000000E+00 0. -1.
     999900   -1    0    0    0    0 -0.00000000000E+00 -0.00000000000E+00 -0.74505805969E-08  0.93827000000E+00  0.93827000000E+00 0. -1.
     999902    2    1    2    0    0  0.40306548304E-02  0.22232831483E-01  0.61123048702E-02  0.10205226241E+01  0.10202541454E+01 0.  0.
     999903    2    3    3    0    0  0.10132768498E+00  0.45192436816E-01 -0.68117050967E-01  0.13175727106E+00  0.20258078807E-01 0.  0.
         14    1    1    2    0    0 -0.40306548304E-02 -0.22232831483E-01 -0.61123048702E-02  0.23407375866E-01  0.00000000000E+00 0.  1.
     999901    1    3    3    0    0 -0.97297030148E-01 -0.22959605333E-01  0.74229355837E-01  0.88876535307E+00  0.88000000000E+00 0.  1.
        -11    1    4    4    0    0  0.50449056360E-01  0.26213091105E-01 -0.23686109641E-01  0.61591609362E-01  0.51100000000E-03 0.  1.
         11    1    4    4    0    0  0.50878628618E-01  0.18979345711E-01 -0.44430941327E-01  0.70165661700E-01  0.51100000000E-03 0. -1.
</event>
<event>
 8    1  0.5489035E+004  0.1043930E+01  0.7957747E-01            NaN
         13   -1    0    0    0    0  0.00000000000E+00  0.00000000000E+00  0.74505805969E-08  0.10566000000E+00  0.10566000000E+00 0.  1.
     999900   -1    0    0    0    0 -0.00000000000E+00 -0.00000000000E+00 -0.74505805969E-08  0.93827000000E+00  0.93827000000E+00 0. -1.
     999902    2    1    2    0    0 -0.94470408494E-02 -0.13297378585E-01 -0.16447488037E-01  0.10207656584E+01  0.10205027892E+01 0.  0.
     999903    2    3    3    0    0  0.12432313905E+00  0.22721310904E-01 -0.24499788641E-01  0.12989156711E+00  0.17293891699E-01 0.  0.
         14    1    1    2    0    0  0.94470408494E-02  0.13297378585E-01  0.16447488037E-01  0.23164341579E-01  0.00000000000E+00 0. -1.
     999901    1    3    3    0    0 -0.13377017990E+00 -0.36018689489E-01  0.80523006037E-02  0.89087409131E+00  0.88000000000E+00 0. -1.
        -11    1    4    4    0    0  0.44226253070E-01  0.16503122010E-01 -0.81803201708E-02  0.47911306138E-01  0.51100000000E-03 0. -1.
         11    1    4    4    0    0  0.80096885982E-01  0.62181888945E-02 -0.16319468470E-01  0.81980260973E-01  0.51100000000E-03 0.  1.
</event>
<event>
 8    1  0.5489035E+004  0.1043930E+01  0.7957747E-01            NaN
         13   -1    0    0    0    0  0.00000000000E+00  0.00000000000E+00  0.74505805969E-08  0.10566000000E+00  0.10566000000E+00 0. -1.
     999900   -1    0    0    0    0 -0.00000000000E+00 -0.00000000000E+00 -0.74505805969E-08  0.93827000000E+00  0.93827000000E+00 0.  1.
     999902    2    1    2    0    0  0.83337335932E-02 -0.11586221735E-01 -0.20703299196E-01  0.10187840610E+01  0.10184736839E+01 0.  0.
     999903    2    3    3    0    0 -0.49431070738E-01  0.21911672067E-02  0.11351922644E+00  0.12662809065E+00  0.26454236016E-01 0.  0.
         14    1    1    2    0    0 -0.83337335932E-02  0.11586221735E-01  0.20703299196E-01  0.25145938982E-01  0.00000000000E+00 0. -1.
     999901    1    3    3    0    0  0.57764804331E-01 -0.13777388942E-01 -0.13422252564E+00  0.89215597036E+00  0.88000000000E+00 0.  1.
        -11    1    4    4    0    0 -0.20255485019E-01 -0.26843826110E-02  0.20219999054E-01  0.28750653316E-01  0.51100000000E-03 0. -1.
         11    1    4    4    0    0 -0.29175585719E-01  0.48755498177E-02  0.93299227387E-01  0.97877437339E-01  0.51100000000E-03 0.  1.
</event>
<event>
 8    1  0.5489035E+004  0.1043930E+01  0.7957747E-01            NaN
         13   -1    0    0    0    0  0.00000000000E+00  0.00000000000E+00  0.74505805969E-08  0.10566000000E+00  0.10566000000E+00 0.  1.
     999900   -1    0    0    0    0 -0.00000000000E+00 -0.00000000000E+00 -0.74505805969E-08  0.93827000000E+00  0.93827000000E+00 0. -1.
     999902    2    1    2    0    0  0.18136846246E-01  0.47163128697E-03 -0.17078084180E-01  0.10190135679E+01  0.10187089000E+01 0.  0.
     999903    2    3    3    0    0 -0.24443816136E-01  0.36925161171E-01 -0.12179011963E+00  0.13103463630E+00  0.19397809040E-01 0.  0.
         14    1    1    2    0    0 -0.18136846246E-01 -0.47163128697E-03  0.17078084180E-01  0.24916432070E-01  0.00000000000E+00 0.  1.
     999901    1    3    3    0    0  0.42580662382E-01 -0.36453529884E-01  0.10471203545E+00  0.88797893163E+00  0.88000000000E+00 0.  1.
        -11    1    4    4    0    0  0.16321154215E-02  0.28628869579E-02 -0.24233782471E-01  0.24462159683E-01  0.51100000000E-03 0. -1.
         11    1    4    4    0    0 -0.26075931557E-01  0.34062274213E-01 -0.97556337161E-01  0.10657247662E+00  0.51100000000E-03 0.  1.
</event>
<event>
 8    1  0.5489035E+004  0.1043930E+01  0.7957747E-01            NaN
         13   -1    0    0    0    0  0.00000000000E+00  0.00000000000E+00  0.74505805969E-08  0.10566000000E+00  0.10566000000E+00 0. -1.
     999900   -1    0    0    0    0 -0.00000000000E+00 -0.00000000000E+00 -0.74505805969E-08  0.93827000000E+00  0.93827000000E+00 0.  1.
     999902    2    1    2    0    0 -0.15315589587E-01  0.16362699844E-01  0.85883318105E-02  0.10199286527E+01  0.10196462092E+01 0.  0.
     999903    2    3    3    0    0 -0.12425080374E+00  0.43186670526E-01  0.35778894404E-02  0.13279196037E+00  0.17820008582E-01 0.  0.
         14    1    1    2    0    0  0.15315589587E-01 -0.16362699844E-01 -0.85883318105E-02  0.24001347335E-01  0.00000000000E+00 0.  1.
     999901    1    3    3    0    0  0.10893521415E+00 -0.26823970682E-01  0.50104423701E-02  0.88713669230E+00  0.88000000000E+00 0. -1.
        -11    1    4    4    0    0 -0.11986582798E+00  0.39351895749E-01  0.63492377417E-02  0.12632087063E+00  0.51100000000E-03 0.  1.
         11    1    4    4    0    0 -0.43849757522E-02  0.38347747777E-02 -0.27713483013E-02  0.64710897343E-02  0.51100000000E-03 0. -1.
</event>
<event>
 8    1  0.5489035E+004  0.1043930E+01  0.7957747E-01            NaN
         13   -1    0    0    0    0  0.00000000000E+00  0.00000000000E+00  0.74505805969E-08  0.10566000000E+00  0.10566000000E+00 0.  1.
     999900   -1    0    0    0    0 -0.00000000000E+00 -0.00000000000E+00 -0.74505805969E-08  0.93827000000E+00  0.93827000000E+00 0.  1.
     999902    2    1    2    0    0  0.50348525613E-02 -0.99201395974E-02  0.19680043518E-01  0.10213232969E+01  0.10210730698E+01 0.  0.
     999903    2    3    3    0    0 -0.55037897390E-01  0.51872686833E-01 -0.10221616568E+00  0.12875073715E+00  0.20215390229E-01 0.  0.
         14    1    1    2    0    0 -0.50348525613E-02  0.99201395974E-02 -0.19680043518E-01  0.22606703051E-01  0.00000000000E+00 0. -1.
     999901    1    3    3    0    0  0.60072749951E-01 -0.61792826430E-01  0.12189620920E+00  0.89257255980E+00  0.88000000000E+00 0. -1.
        -11    1    4    4    0    0 -0.43220233677E-01  0.29750630097E-01 -0.77021601060E-01  0.93196978175E-01  0.51100000000E-03 0. -1.
         11    1    4    4    0    0 -0.11817663713E-01  0.22122056736E-01 -0.25194564623E-01  0.35553758977E-01  0.51100000000E-03 0.  1.
</event>
<event>
 8    1  0.5489035E+004  0.1043930E+01  0.7957747E-01            NaN
         13   -1    0    0    0    0  0.00000000000E+00  0.00000000000E+00  0.74505805969E-08  0.10566000000E+00  0.10566000000E+00 0. -1.
     999900   -1    0    0    0    0 -0.00000000000E+00 -0.00000000000E+00 -0.74505805969E-08  0.93827000000E+00  0.93827000000E+00 0. -1.
     999902    2    1    2    0    0  0.40450272722E-02  0.22201550382E-01  0.44991914159E-02  0.10209188330E+01  0.10206594680E+01 0.  0.
     999903    2    3    3    0    0  0.73171041683E-01 -0.71411365167E-01 -0.77024466038E-01  0.12952223742E+00  0.19739736601E-01 0.  0.
         14    1    1    2    0    0 -0.40450272722E-02 -0.22201550382E-01 -0.44991914159E-02  0.23011167037E-01  0.00000000000E+00 0.  1.
     999901    1    3    3    0    0 -0.69126014410E-01  0.93612915550E-01  0.81523657454E-01  0.89139659555E+00  0.88000000000E+00 0. -1.
        -11    1    4    4    0    0  0.57137304471E-01 -0.46336245008E-01 -0.61843325683E-01  0.96107113244E-01  0.51100000000E-03 0.  1.
         11    1    4    4    0    0  0.16033737212E-01 -0.25075120160E-01 -0.15181140355E-01  0.33415124173E-01  0.51100000000E-03 0. -1.
</event>
<event>
 8    1  0.5489035E+004  0.1043930E+01  0.7957747E-01            NaN
         13   -1    0    0    0    0  0.00000000000E+00  0.00000000000E+00  0.74505805969E-08  0.10566000000E+00  0.10566000000E+00 0.  1.
     999900   -1    0    0    0    0 -0.00000000000E+00 -0.00000000000E+00 -0.74505805969E-08  0.93827000000E+00  0.93827000000E+00 0. -1.
     999902    2    1    2    0    0 -0.14443930853E-01 -0.73198132543E-03  0.18033682551E-01  0.10208134120E+01  0.10205516378E+01 0.  0.
     999903    2    3    3    0    0 -0.97812757854E-01  0.20226348560E-01 -0.81624962087E-01  0.13102610124E+00  0.22994868902E-01 0.  0.
         14    1    1    2    0    0  0.14443930853E-01  0.73198132543E-03 -0.18033682551E-01  0.23116588016E-01  0.00000000000E+00 0. -1.
     999901    1    3    3    0    0  0.83368827001E-01 -0.20958329886E-01  0.99658644638E-01  0.88978731074E+00  0.88000000000E+00 0. -1.
        -11    1    4    4    0    0 -0.83948321030E-01  0.18244080335E-01 -0.79114245245E-01  0.11678823568E+00  0.51100000000E-03 0. -1.
         11    1    4    4    0    0 -0.13864436824E-01  0.19822682254E-02 -0.25107168425E-02  0.14237865564E-01  0.51100000000E-03 0.  1.
</event>
<event>
 8    1  0.5489035E+004  0.1043930E+01  0.7957747E-01            NaN
         13   -1    0    0    0    0  0.00000000000E+00  0.00000000000E+00  0.74505805969E-08  0.10566000000E+00  0.10566000000E+00 0. -1.
     999900   -1    0    0    0    0 -0.00000000000E+00 -0.00000000000E+00 -0.74505805969E-08  0.93827000000E+00  0.93827000000E+00 0.  1.
     999902    2    1    2    0    0 -0.11831724033E-01 -0.19299453590E-01 -0.23498016744E-02  0.10211708223E+01  0.10209171701E+01 0.  0.
     999903    2    3    3    0    0 -0.11139165416E+00 -0.69429719572E-01 -0.18327139313E-01  0.13399524858E+00  0.19754898888E-01 0.  0.
         14    1    1    2    0    0  0.11831724033E-01  0.19299453590E-01  0.23498016744E-02  0.22759177717E-01  0.00000000000E+00 0. -1.
     999901    1    3    3    0    0  0.99559930130E-01  0.50130265982E-01  0.15977337638E-01  0.88717557370E+00  0.88000000000E+00 0.  1.
        -11    1    4    4    0    0 -0.73463971398E-01 -0.35117080409E-01 -0.14457982706E-01  0.82701020640E-01  0.51100000000E-03 0.  1.
         11    1    4    4    0    0 -0.37927682764E-01 -0.34312639163E-01 -0.38691566066E-02  0.51294227941E-01  0.51100000000E-03 0. -1.
</event>
<event>
 8    1  0.5489035E+004  0.1043930E+01  0.7957747E-01            NaN
         13   -1    0    0    0    0  0.00000000000E+00  0.00000000000E+00  0.74505805969E-08  0.10566000000E+00  0.10566000000E+00 0.  1.
     999900   -1    0    0    0    0 -0.00000000000E+00 -0.00000000000E+00 -0.74505805969E-08  0.93827000000E+00  0.93827000000E+00 0. -1.
     999902    2    1    2    0    0  0.14713747048E-01  0.15703638606E-01  0.94645334142E-02  0.10204209377E+01  0.10201500939E+01 0.  0.
     999903    2    3    3    0    0 -0.28429361464E-01  0.72838131540E-01 -0.10241012139E+00  0.13045373803E+00  0.20413789560E-01 0.  0.
         14    1    1    2    0    0 -0.14713747048E-01 -0.15703638606E-01 -0.94645334142E-02  0.23509062304E-01  0.00000000000E+00 0.  1.
     999901    1    3    3    0    0  0.43143108512E-01 -0.57134492934E-01  0.11187465480E+00  0.88996719967E+00  0.88000000000E+00 0.  1.
        -11    1    4    4    0    0 -0.27212110619E-01  0.69897017731E-01 -0.10274565549E+00  0.12721251076E+00  0.51100000000E-03 0. -1.
         11    1    4    4    0    0 -0.12172508450E-02  0.29411138085E-02  0.33553410290E-03  0.32412272657E-02  0.51100000000E-03 0.  1.
</event>
<event>
 8    1  0.5489035E+004  0.1043930E+01  0.7957747E-01            NaN
         13   -1    0    0    0    0  0.00000000000E+00  0.00000000000E+00  0.74505805969E-08  0.10566000000E+00  0.10566000000E+00 0.  1.
     999900   -1    0    0    0    0 -0.00000000000E+00 -0.00000000000E+00 -0.74505805969E-08  0.93827000000E+00  0.93827000000E+00 0. -1.
     999902    2    1    2    0    0 -0.35331959013E-02  0.26793739247E-01  0.34895347040E-02  0.10166799580E+01  0.10163147014E+01 0.  0.
     999903    2    3    3    0    0 -0.89328824634E-01 -0.84769196479E-01  0.13760210435E-01  0.12543775450E+00  0.19489260641E-01 0.  0.
         14    1    1    2    0    0  0.35331959013E-02 -0.26793739247E-01 -0.34895347040E-02  0.27250041991E-01  0.00000000000E+00 0.  1.
     999901    1    3    3    0    0  0.85795628732E-01  0.11156293573E+00 -0.10270675731E-01  0.89124220351E+00  0.88000000000E+00 0. -1.
        -11    1    4    4    0    0 -0.61156736775E-01 -0.57805102831E-01  0.21903569515E-03  0.84153939088E-01  0.51100000000E-03 0.  1.
         11    1    4    4    0    0 -0.28172087858E-01 -0.26964093647E-01  0.13541174740E-01  0.41283815411E-01  0.51100000000E-03 0. -1.
</event>
<event>
 7    1  0.5489035E+004  0.1043930E+01  0.7957747E-01            NaN
         13   -1    0    0    0    0  0.00000000000E+00  0.00000000000E+00  0.74505805969E-08  0.10566000000E+00  0.10566000000E+00 0.  1.
     999900   -1    0    0    0    0 -0.00000000000E+00 -0.00000000000E+00 -0.74505805969E-08  0.93827000000E+00  0.93827000000E+00 0. -1.
     999903    2    1    2    0    0 -0.34782916732E-01  0.27772638499E-01 -0.74882173271E-01  0.89376434897E-01  0.19990910323E-01 0.  0.
         14    1    1    2    0    0  0.61255978385E-01 -0.15254946416E-01  0.37174349050E-01  0.73259405576E-01  0.00000000000E+00 0.  1.
     999901    1    1    2    0    0 -0.26473061654E-01 -0.12517692084E-01  0.37707824221E-01  0.88129415953E+00  0.88000000000E+00 0.  1.
        -11    1    3    3    0    0 -0.15227960254E-01  0.21963522349E-01 -0.30681827228E-01  0.40693030490E-01  0.51100000000E-03 0. -1.
         11    1    3    3    0    0 -0.19554956478E-01  0.58091161509E-02 -0.44200346043E-01  0.48683404407E-01  0.51100000000E-03 0.  1.
</event>
<event>
 8    1  0.5489035E+004  0.1043930E+01  0.7957747E-01            NaN
         13   -1    0    0    0    0  0.00000000000E+00  0.00000000000E+00  0.74505805969E-08  0.10566000000E+00  0.10566000000E+00 0.  1.
     999900   -1    0    0    0    0 -0.00000000000E+00 -0.00000000000E+00 -0.74505805969E-08  0.93827000000E+00  0.93827000000E+00 0. -1.
     999902    2    1    2    0    0  0.21319354469E-01 -0.35606269234E-02 -0.11606938841E-01  0.10193960650E+01  0.10191007915E+01 0.  0.
     999903    2    3    3    0    0  0.19702025968E-01 -0.11688745999E+00  0.46858136856E-01  0.13020331200E+00  0.26577609674E-01 0.  0.
         14    1    1    2    0    0 -0.21319354469E-01  0.35606269234E-02  0.11606938841E-01  0.24533935036E-01  0.00000000000E+00 0.  1.
     999901    1    3    3    0    0  0.16173285014E-02  0.11332683307E+00 -0.58465075697E-01  0.88919275296E+00  0.88000000000E+00 0. -1.
        -11    1    4    4    0    0  0.21310472712E-01 -0.51295730059E-01  0.26178565787E-01  0.61408196498E-01  0.51100000000E-03 0. -1.
         11    1    4    4    0    0 -0.16084467444E-02 -0.65591729933E-01  0.20679571069E-01  0.68795115503E-01  0.51100000000E-03 0.  1.
</event>
<event>
 8    1  0.5489035E+004  0.1043930E+01  0.7957747E-01            NaN
         13   -1    0    0    0    0  0.00000000000E+00  0.00000000000E+00  0.74505805969E-08  0.10566000000E+00  0.10566000000E+00 0. -1.
     999900   -1    0    0    0    0 -0.00000000000E+00 -0.00000000000E+00 -0.74505805969E-08  0.93827000000E+00  0.93827000000E+00 0. -1.
     999902    2    1    2    0    0 -0.97065036486E-02  0.95213445347E-02  0.19186516795E-01  0.10204141619E+01  0.10201431601E+01 0.  0.
     999903    2    3    3    0    0  0.29953482736E-01 -0.11576803121E+00  0.47406731593E-01  0.13020816174E+00  0.20182145699E-01 0.  0.
         14    1    1    2    0    0  0.97065036486E-02 -0.95213445347E-02 -0.19186516795E-01  0.23515838101E-01  0.00000000000E+00 0.  1.
     999901    1    3    3    0    0 -0.39659986384E-01  0.12528937575E+00 -0.28220214797E-01  0.89020600016E+00  0.88000000000E+00 0.  1.
        -11    1    4    4    0    0  0.11823949231E-01 -0.64295465917E-01  0.16244956950E-01  0.67363732529E-01  0.51100000000E-03 0. -1.
         11    1    4    4    0    0  0.18129533505E-01 -0.51472565295E-01  0.31161774643E-01  0.62844429212E-01  0.51100000000E-03 0.  1.
</event>
<event>
 8    1  0.5489035E+004  0.1043930E+01  0.7957747E-01            NaN
         13   -1    0    0    0    0  0.00000000000E+00  0.00000000000E+00  0.74505805969E-08  0.10566000000E+00  0.10566000000E+00 0. -1.
     999900   -1    0    0    0    0 -0.00000000000E+00 -0.00000000000E+00 -0.74505805969E-08  0.93827000000E+00  0.93827000000E+00 0. -1.
     999902    2    1    2    0    0 -0.26315506484E-02 -0.18639530243E-01  0.14236026719E-01  0.10203286949E+01  0.10200556965E+01 0.  0.
     999903    2    3    3    0    0 -0.14387603820E-01 -0.97107128666E-02 -0.12641324923E+00  0.12903741399E+00  0.19210506033E-01 0.  0.
         14    1    1    2    0    0  0.26315506484E-02  0.18639530243E-01 -0.14236026719E-01  0.23601305117E-01  0.00000000000E+00 0.  1.
     999901    1    3    3    0    0  0.11756053172E-01 -0.89288173763E-02  0.14064927595E+00  0.89129128089E+00  0.88000000000E+00 0.  1.
        -11    1    4    4    0    0 -0.18437303511E-01 -0.61851120257E-02 -0.11137392460E+00  0.11306016971E+00  0.51100000000E-03 0. -1.
         11    1    4    4    0    0  0.40496996912E-02 -0.35256008409E-02 -0.15039324623E-01  0.15977244287E-01  0.51100000000E-03 0.  1.
</event>
<event>
 8    1  0.5489035E+004  0.1043930E+01  0.7957747E-01            NaN
         13   -1    0    0    0    0  0.00000000000E+00  0.00000000000E+00  0.74505805969E-08  0.10566000000E+00  0.10566000000E+00 0.  1.
     999900   -1    0    0    0    0 -0.00000000000E+00 -0.00000000000E+00 -0.74505805969E-08  0.93827000000E+00  0.93827000000E+00 0.  1.
     999902    2    1    2    0    0 -0.34277370250E-02  0.10656448115E-01 -0.22079495851E-01  0.10191749317E+01  0.10188742455E+01 0.  0.
     999903    2    3    3    0    0 -0.87780236506E-01  0.71202968311E-01 -0.66413033864E-01  0.13196205544E+00  0.15101668514E-01 0.  0.
         14    1    1    2    0    0  0.34277370250E-02 -0.10656448115E-01  0.22079495851E-01  0.24755068260E-01  0.00000000000E+00 0.  1.
     999901    1    3    3    0    0  0.84352499481E-01 -0.60546520197E-01  0.44333538013E-01  0.88721287630E+00  0.88000000000E+00 0. -1.
        -11    1    4    4    0    0 -0.58108755968E-01  0.46356135741E-01 -0.35242455233E-01  0.82266704157E-01  0.51100000000E-03 0.  1.
         11    1    4    4    0    0 -0.29671480537E-01  0.24846832571E-01 -0.31170578631E-01  0.49695351285E-01  0.51100000000E-03 0. -1.
</event>
<event>
 8    1  0.5489035E+004  0.1043930E+01  0.7957747E-01            NaN
         13   -1    0    0    0    0  0.00000000000E+00  0.00000000000E+00  0.74505805969E-08  0.10566000000E+00  0.10566000000E+00 0.  1.
     999900   -1    0    0    0    0 -0.00000000000E+00 -0.00000000000E+00 -0.74505805969E-08  0.93827000000E+00  0.93827000000E+00 0. -1.
     999902    2    1    2    0    0 -0.20909330869E-01 -0.45711196073E-02  0.10150236447E-01  0.10202419745E+01  0.10199669426E+01 0.  0.
     999903    2    3    3    0    0  0.44728437177E-01 -0.31497638937E-01  0.11726147207E+00  0.13091291795E+00  0.19879761176E-01 0.  0.
         14    1    1    2    0    0  0.20909330869E-01  0.45711196073E-02 -0.10150236447E-01  0.23688025494E-01  0.00000000000E+00 0.  1.
     999901    1    3    3    0    0 -0.65637768046E-01  0.26926519330E-01 -0.10711123562E+00  0.88932905656E+00  0.88000000000E+00 0.  1.
        -11    1    4    4    0    0  0.26290136768E-01 -0.15246169150E-01  0.42774987466E-01  0.52474542769E-01  0.51100000000E-03 0.  1.
         11    1    4    4    0    0  0.18438300409E-01 -0.16251469787E-01  0.74486484600E-01  0.78438375182E-01  0.51100000000E-03 0. -1.
</event>
<event>
 8    1  0.5489035E+004  0.1043930E+01  0.7957747E-01            NaN
         13   -1    0    0    0    0  0.00000000000E+00  0.00000000000E+00  0.74505805969E-08  0.10566000000E+00  0.10566000000E+00 0.  1.
     999900   -1    0    0    0    0 -0.00000000000E+00 -0.00000000000E+00 -0.74505805969E-08  0.93827000000E+00  0.93827000000E+00 0. -1.
     999902    2    1    2    0    0  0.16870508135E-01 -0.87362986121E-02 -0.21721519826E-01  0.10150723947E+01  0.10146621138E+01 0.  0.
     999903    2    3    3    0    0  0.27135036199E-01 -0.77292808877E-01 -0.97823999341E-01  0.12907186255E+00  0.19481333681E-01 0.  0.
         14    1    1    2    0    0 -0.16870508135E-01  0.87362986121E-02  0.21721519826E-01  0.28857605267E-01  0.00000000000E+00 0. -1.
     999901    1    3    3    0    0 -0.10264528064E-01  0.68556510265E-01  0.76102479515E-01  0.88600053218E+00  0.88000000000E+00 0. -1.
        -11    1    4    4    0    0  0.10263559467E-01 -0.34333724797E-01 -0.28506175818E-01  0.45793105291E-01  0.51100000000E-03 0. -1.
         11    1    4    4    0    0  0.16871476732E-01 -0.42959084080E-01 -0.69317823523E-01  0.83278757262E-01  0.51100000000E-03 0.  1.
</event>
<event>
 8    1  0.5489035E+004  0.1043930E+01  0.7957747E-01            NaN
         13   -1    0    0    0    0  0.00000000000E+00  0.00000000000E+00  0.74505805969E-08  0.10566000000E+00  0.10566000000E+00 0. -1.
     999900   -1    0    0    0    0 -0.00000000000E+00 -0.00000000000E+00 -0.74505805969E-08  0.93827000000E+00  0.93827000000E+00 0.  1.
     999902    2    1    2    0    0  0.33441927208E-02 -0.17917363661E-01 -0.14828911732E-01  0.10204329328E+01  0.10201623685E+01 0.  0.
     999903    2    3    3    0    0 -0.72313279312E-01  0.86987904206E-01  0.56688285317E-01  0.12810794837E+00  0.20049411472E-01 0.  0.
         14    1    1    2    0    0 -0.33441927208E-02  0.17917363661E-01  0.14828911732E-01  0.23497067235E-01  0.00000000000E+00 0. -1.
     999901    1    3    3    0    0  0.75657472033E-01 -0.10490526787E+00 -0.71517197049E-01  0.89232498439E+00  0.88000000000E+00 0.  1.
        -11    1    4    4    0    0 -0.13109192699E-01  0.24948811111E-01  0.71867897805E-02  0.29089606003E-01  0.51100000000E-03 0. -1.
         11    1    4    4    0    0 -0.59204086613E-01  0.62039093095E-01  0.49501495537E-01  0.99018342367E-01  0.51100000000E-03 0.  1.
</event>
<event>
 8    1  0.5489035E+004  0.1043930E+01  0.7957747E-01            NaN
         13   -1    0    0    0    0  0.00000000000E+00  0.00000000000E+00  0.74505805969E-08  0.10566000000E+00  0.10566000000E+00 0.  1.
     999900   -1    0    0    0    0 -0.00000000000E+00 -0.00000000000E+00 -0.74505805969E-08  0.93827000000E+00  0.93827000000E+00 0. -1.
     999902    2    1    2    0    0  0.68309840163E-02 -0.20338153044E-01  0.69746496536E-02  0.10213701119E+01  0.10211209316E+01 0.  0.
     999903    2    3    3    0    0 -0.11314732086E+00 -0.29164497663E-01 -0.55761940999E-01  0.13097212350E+00  0.19784310146E-01 0.  0.
         14    1    1    2    0    0 -0.68309840163E-02  0.20338153044E-01 -0.69746496536E-02  0.22559888068E-01  0.00000000000E+00 0. -1.
     999901    1    3    3    0    0  0.11997830488E+00  0.88263446188E-02  0.62736590653E-01  0.89039798843E+00  0.88000000000E+00 0. -1.
        -11    1    4    4    0    0 -0.56927945652E-01 -0.15436956204E-01 -0.17252286574E-01  0.61457246326E-01  0.51100000000E-03 0.  1.
         11    1    4    4    0    0 -0.56219375208E-01 -0.13727541459E-01 -0.38509654425E-01  0.69514877172E-01  0.51100000000E-03 0. -1.
</event>
<event>
 8    1  0.5489035E+004  0.1043930E+01  0.7957747E-01            NaN
         13   -1    0    0    0    0  0.00000000000E+00  0.00000000000E+00  0.74505805969E-08  0.10566000000E+00  0.10566000000E+00 0.  1.
     999900   -1    0    0    0    0 -0.00000000000E+00 -0.00000000000E+00 -0.74505805969E-08  0.93827000000E+00  0.93827000000E+00 0. -1.
     999902    2    1    2    0    0 -0.53547836468E-02  0.20580298692E-01 -0.10637699858E-01  0.10201522150E+01  0.10198750701E+01 0.  0.
     999903    2    3    3    0    0 -0.97621237846E-01  0.18966106872E-01  0.82038732806E-01  0.13048675799E+00  0.20169805227E-01 0.  0.
         14    1    1    2    0    0  0.53547836468E-02 -0.20580298692E-01  0.10637699858E-01  0.23777785019E-01  0.00000000000E+00 0.  1.
     999901    1    3    3    0    0  0.92266454199E-01  0.16141918199E-02 -0.92676432663E-01  0.88966545699E+00  0.88000000000E+00 0. -1.
        -11    1    4    4    0    0 -0.56573840496E-01  0.15009385141E-01  0.59602237346E-01  0.83537829087E-01  0.51100000000E-03 0. -1.
         11    1    4    4    0    0 -0.41047397349E-01  0.39567217306E-02  0.22436495459E-01  0.46948928907E-01  0.51100000000E-03 0.  1.
</event>
<event>
 8    1  0.5489035E+004  0.1043930E+01  0.7957747E-01            NaN
         13   -1    0    0    0    0  0.00000000000E+00  0.00000000000E+00  0.74505805969E-08  0.10566000000E+00  0.10566000000E+00 0. -1.
     999900   -1    0    0    0    0 -0.00000000000E+00 -0.00000000000E+00 -0.74505805969E-08  0.93827000000E+00  0.93827000000E+00 0. -1.
     999902    2    1    2    0    0  0.21679029352E-01 -0.50524911618E-02  0.78235605948E-02  0.10203351683E+01  0.10200623215E+01 0.  0.
     999903    2    3    3    0    0 -0.37332847962E-02  0.10514052182E-01  0.12938300814E+00  0.13147927323E+00  0.20551247771E-01 0.  0.
         14    1    1    2    0    0 -0.21679029352E-01  0.50524911618E-02 -0.78235605948E-02  0.23594831658E-01  0.00000000000E+00 0.  1.
     999901    1    3    3    0    0  0.25412314148E-01 -0.15566543343E-01 -0.12155944755E+00  0.88885589511E+00  0.88000000000E+00 0. -1.
        -11    1    4    4    0    0 -0.44418081306E-02 -0.53893784280E-02  0.28559254914E-01  0.29405224392E-01  0.51100000000E-03 0.  1.
         11    1    4    4    0    0  0.70852333440E-03  0.15903430610E-01  0.10082375323E+00  0.10207404884E+00  0.51100000000E-03 0. -1.
</event>
<event>
 8    1  0.5489035E+004  0.1043930E+01  0.7957747E-01            NaN
         13   -1    0    0    0    0  0.00000000000E+00  0.00000000000E+00  0.74505805969E-08  0.10566000000E+00  0.10566000000E+00 0.  1.
     999900   -1    0    0    0    0 -0.00000000000E+00 -0.00000000000E+00 -0.74505805969E-08  0.93827000000E+00  0.93827000000E+00 0.  1.
     999902    2    1    2    0    0  0.20567454759E-01  0.10575127490E-01  0.15593227955E-02  0.10207505909E+01  0.10204873757E+01 0.  0.
     999903    2    3    3    0    0 -0.48110623763E-01  0.80732852597E-01  0.89049750713E-01  0.13097906980E+00  0.19830103782E-01 0.  0.
         14    1    1    2    0    0 -0.20567454759E-01 -0.10575127490E-01 -0.15593227955E-02  0.23179409057E-01  0.00000000000E+00 0. -1.
     999901    1    3    3    0    0  0.68678078522E-01 -0.70157725107E-01 -0.87490427918E-01  0.88977152114E+00  0.88000000000E+00 0.  1.
        -11    1    4    4    0    0 -0.48794206433E-02  0.19616239778E-01  0.11826523136E-01  0.23425058790E-01  0.51100000000E-03 0. -1.
         11    1    4    4    0    0 -0.43231203120E-01  0.61116612819E-01  0.77223227577E-01  0.10755401101E+00  0.51100000000E-03 0.  1.
</event>
<event>
 8    1  0.5489035E+004  0.1043930E+01  0.7957747E-01            NaN
         13   -1    0    0    0    0  0.00000000000E+00  0.00000000000E+00  0.74505805969E-08  0.10566000000E+00  0.10566000000E+00 0.  1.
     999900   -1    0    0    0    0 -0.00000000000E+00 -0.00000000000E+00 -0.74505805969E-08  0.93827000000E+00  0.93827000000E+00 0.  1.
     999902    2    1    2    0    0 -0.15107147670E-01  0.17620362357E-01 -0.75167050306E-02  0.10195331983E+01  0.10192412562E+01 0.  0.
     999903    2    3    3    0    0  0.98012975060E-01 -0.19619109224E-01 -0.78554149489E-01  0.12867447831E+00  0.19872449245E-01 0.  0.
         14    1    1    2    0    0  0.15107147670E-01 -0.17620362357E-01  0.75167050306E-02  0.24396801733E-01  0.00000000000E+00 0. -1.
     999901    1    3    3    0    0 -0.11312012273E+00  0.37239471581E-01  0.71037444459E-01  0.89085871996E+00  0.88000000000E+00 0. -1.
        -11    1    4    4    0    0  0.79977196706E-01 -0.14304198312E-01 -0.53242030076E-01  0.97138751124E-01  0.51100000000E-03 0.  1.
         11    1    4    4    0    0  0.18035778354E-01 -0.53149109125E-02 -0.25312119413E-01  0.31535727184E-01  0.51100000000E-03 0. -1.
</event>
<event>
 8    1  0.5489035E+004  0.1043930E+01  0.7957747E-01            NaN
         13   -1    0    0    0    0  0.00000000000E+00  0.00000000000E+00  0.74505805969E-08  0.10566000000E+00  0.10566000000E+00 0.  1.
     999900   -1    0    0    0    0 -0.00000000000E+00 -0.00000000000E+00 -0.74505805969E-08  0.93827000000E+00  0.93827000000E+00 0. -1.
     999902    2    1    2    0    0  0.92687431296E-02  0.19027147356E-01  0.10874452098E-01  0.10201351341E+01  0.10198575862E+01 0.  0.
     999903    2    3    3    0    0 -0.40874355358E-01  0.83487324214E-01 -0.89415430844E-01  0.13068164719E+00  0.21017312101E-01 0.  0.
         14    1    1    2    0    0 -0.92687431296E-02 -0.19027147356E-01 -0.10874452098E-01  0.23794865920E-01  0.00000000000E+00 0.  1.
     999901    1    3    3    0    0  0.50143098488E-01 -0.64460176858E-01  0.10028988294E+00  0.88945348689E+00  0.88000000000E+00 0.  1.
        -11    1    4    4    0    0 -0.87205485008E-02  0.21125441975E-01 -0.10720878535E-01  0.25249368752E-01  0.51100000000E-03 0.  1.
         11    1    4    4    0    0 -0.32153806857E-01  0.62361882239E-01 -0.78694552309E-01  0.10543227843E+00  0.51100000000E-03 0. -1.
</event>
<event>
 8    1  0.5489035E+004  0.1043930E+01  0.7957747E-01            NaN
         13   -1    0    0    0    0  0.00000000000E+00  0.00000000000E+00  0.74505805969E-08  0.10566000000E+00  0.10566000000E+00 0.  1.
     999900   -1    0    0    0    0 -0.00000000000E+00 -0.00000000000E+00 -0.74505805969E-08  0.93827000000E+00  0.93827000000E+00 0.  1.
     999902    2    1    2    0    0  0.93545768236E-02 -0.18998630626E-01 -0.69006517446E-02  0.10216572573E+01  0.10214144488E+01 0.  0.
     999903    2    3    3    0    0  0.32024398499E-01  0.59501408285E-01  0.10945007851E+00  0.13024620208E+00  0.20463963017E-01 0.  0.
         14    1    1    2    0    0 -0.93545768236E-02  0.18998630626E-01  0.69006517446E-02  0.22272742708E-01  0.00000000000E+00 0.  1.
     999901    1    3    3    0    0 -0.22669821676E-01 -0.78500038912E-01 -0.11635073026E+00  0.89141105521E+00  0.88000000000E+00 0.  1.
        -11    1    4    4    0    0 -0.10596101851E-02  0.14597246354E-02 -0.15776121208E-03  0.18813769839E-02  0.51100000000E-03 0.  1.
         11    1    4    4    0    0  0.33084008684E-01  0.58041683650E-01  0.10960783973E+00  0.12836482510E+00  0.51100000000E-03 0. -1.
</event>
<event>
 8    1  0.5489035E+004  0.1043930E+01  0.7957747E-01            NaN
         13   -1    0    0    0    0  0.00000000000E+00  0.00000000000E+00  0.74505805969E-08  0.10566000000E+00  0.10566000000E+00 0. -1.
     999900   -1    0    0    0    0 -0.00000000000E+00 -0.00000000000E+00 -0.74505805969E-08  0.93827000000E+00  0.93827000000E+00 0. -1.
     999902    2    1    2    0    0 -0.19384487627E-01 -0.22526438401E-02 -0.94692097670E-02  0.10222390180E+01  0.10220088607E+01 0.  0.
     999903    2    3    3    0    0  0.12487976575E+00 -0.30010800316E-01  0.84034824263E-02  0.12988139736E+00  0.17405597813E-01 0.  0.
         14    1    1    2    0    0  0.19384487627E-01  0.22526438401E-02  0.94692097670E-02  0.21690981961E-01  0.00000000000E+00 0. -1.
     999901    1    3    3    0    0 -0.14426425337E+00  0.27758156476E-01 -0.17872692193E-01  0.89235762068E+00  0.88000000000E+00 0.  1.
        -11    1    4    4    0    0  0.47998278175E-01 -0.72140742046E-02  0.10497929414E-01  0.49662311841E-01  0.51100000000E-03 0. -1.
         11    1    4    4    0    0  0.76881487573E-01 -0.22796726112E-01 -0.20944469879E-02  0.80219085522E-01  0.51100000000E-03 0.  1.
</event>
<event>
 8    1  0.5489035E+004  0.1043930E+01  0.7957747E-01            NaN
         13   -1    0    0    0    0  0.00000000000E+00  0.00000000000E+00  0.74505805969E-08  0.10566000000E+00  0.10566000000E+00 0.  1.
     999900   -1    0    0    0    0 -0.00000000000E+00 -0.00000000000E+00 -0.74505805969E-08  0.93827000000E+00  0.93827000000E+00 0. -1.
     999902    2    1    2    0    0  0.21775956793E-02  0.12588344648E-01  0.19631424941E-01  0.10205077629E+01  0.10202389392E+01 0.  0.
     999903    2    3    3    0    0 -0.71714414725E-01 -0.97261126113E-01 -0.38885555906E-01  0.12868313193E+00  0.21085019606E-01 0.  0.
         14    1    1    2    0    0 -0.21775956793E-02 -0.12588344648E-01 -0.19631424941E-01  0.23422237065E-01  0.00000000000E+00 0. -1.
     999901    1    3    3    0    0  0.73892010404E-01  0.10984947076E+00  0.58516980847E-01  0.89182463101E+00  0.88000000000E+00 0.  1.
        -11    1    4    4    0    0 -0.35828438052E-01 -0.31506393424E-01 -0.13490987992E-01  0.49584248284E-01  0.51100000000E-03 0.  1.
         11    1    4    4    0    0 -0.35885976673E-01 -0.65754732689E-01 -0.25394567914E-01  0.79098883642E-01  0.51100000000E-03 0. -1.
</event>
<event>
 8    1  0.5489035E+004  0.1043930E+01  0.7957747E-01            NaN
         13   -1    0    0    0    0  0.00000000000E+00  0.00000000000E+00  0.74505805969E-08  0.10566000000E+00  0.10566000000E+00 0.  1.
     999900   -1    0    0    0    0 -0.00000000000E+00 -0.00000000000E+00 -0.74505805969E-08  0.93827000000E+00  0.93827000000E+00 0. -1.
     999902    2    1    2    0    0  0.26077096753E-01  0.74127201510E-02 -0.17997704104E-02  0.10167601165E+01  0.10163970346E+01 0.  0.
     999903    2    3    3    0    0  0.10361734389E+00  0.42414284908E-01 -0.63907948944E-01  0.13047854427E+00  0.20122103701E-01 0.  0.
         14    1    1    2    0    0 -0.26077096753E-01 -0.74127201510E-02  0.17997704104E-02  0.27169883486E-01  0.00000000000E+00 0. -1.
     999901    1    3    3    0    0 -0.77540247135E-01 -0.35001564757E-01  0.62108178534E-01  0.88628157225E+00  0.88000000000E+00 0.  1.
        -11    1    4    4    0    0  0.23577464526E-01  0.92795095421E-03 -0.13080645588E-01  0.26983742076E-01  0.51100000000E-03 0. -1.
         11    1    4    4    0    0  0.80039879363E-01  0.41486333954E-01 -0.50827303356E-01  0.10349480219E+00  0.51100000000E-03 0.  1.
</event>
<event>
 8    1  0.5489035E+004  0.1043930E+01  0.7957747E-01            NaN
         13   -1    0    0    0    0  0.00000000000E+00  0.00000000000E+00  0.74505805969E-08  0.10566000000E+00  0.10566000000E+00 0. -1.
     999900   -1    0    0    0    0 -0.00000000000E+00 -0.00000000000E+00 -0.74505805969E-08  0.93827000000E+00  0.93827000000E+00 0.  1.
     999902    2    1    2    0    0 -0.22735761114E-01 -0.24053591323E-02  0.68828603845E-02  0.10200537701E+01  0.10197742984E+01 0.  0.
     999903    2    3    3    0    0  0.87702652176E-01  0.63800023964E-01  0.65993750296E-01  0.12872112000E+00  0.21254491244E-01 0.  0.
         14    1    1    2    0    0  0.22735761114E-01  0.24053591323E-02 -0.68828603845E-02  0.23876229875E-01  0.00000000000E+00 0.  1.
     999901    1    3    3    0    0 -0.11043841329E+00 -0.66205383097E-01 -0.59110889911E-01  0.89133265013E+00  0.88000000000E+00 0.  1.
        -11    1    4    4    0    0  0.69932623067E-01  0.51252268774E-01  0.42036642188E-01  0.96357185673E-01  0.51100000000E-03 0. -1.
         11    1    4    4    0    0  0.17770029110E-01  0.12547755190E-01  0.23957108108E-01  0.32363934322E-01  0.51100000000E-03 0.  1.
</event>
<event>
 8    1  0.5489035E+004  0.1043930E+01  0.7957747E-01            NaN
         13   -1    0    0    0    0  0.00000000000E+00  0.00000000000E+00  0.74505805969E-08  0.10566000000E+00  0.10566000000E+00 0.  1.
     999900   -1    0    0    0    0 -0.00000000000E+00 -0.00000000000E+00 -0.74505805969E-08  0.93827000000E+00  0.93827000000E+00 0.  1.
     999902    2    1    2    0    0  0.65921871845E-02 -0.66507839289E-02 -0.21876725783E-01  0.10201333408E+01  0.10198557506E+01 0.  0.
     999903    2    3    3    0    0 -0.19223295968E-01 -0.10149177214E+00 -0.81132437189E-01  0.13268052990E+00  0.18749286134E-01 0.  0.
         14    1    1    2    0    0 -0.65921871845E-02  0.66507839289E-02  0.21876725783E-01  0.23796659213E-01  0.00000000000E+00 0.  1.
     999901    1    3    3    0    0  0.25815483152E-01  0.94840988211E-01  0.59255711406E-01  0.88745281089E+00  0.88000000000E+00 0. -1.
        -11    1    4    4    0    0 -0.19412974467E-01 -0.52341216683E-01 -0.43629559947E-01  0.70853836619E-01  0.51100000000E-03 0.  1.
         11    1    4    4    0    0  0.18967849969E-03 -0.49150555457E-01 -0.37502877242E-01  0.61826693281E-01  0.51100000000E-03 0. -1.
</event>
<event>
 8    1  0.5489035E+004  0.1043930E+01  0.7957747E-01            NaN
         13   -1    0    0    0    0  0.00000000000E+00  0.00000000000E+00  0.74505805969E-08  0.10566000000E+00  0.10566000000E+00 0.  1.
     999900   -1    0    0    0    0 -0.00000000000E+00 -0.00000000000E+00 -0.74505805969E-08  0.93827000000E+00  0.93827000000E+00 0. -1.
     999902    2    1    2    0    0 -0.23254346497E-01  0.32226983468E-02  0.30652319408E-02  0.10202541460E+01  0.10199794000E+01 0.  0.
     999903    2    3    3    0    0 -0.58612261656E-02 -0.15980637542E-01 -0.12750849114E+00  0.13024246861E+00  0.20370335466E-01 0.  0.
         14    1    1    2    0    0  0.23254346497E-01 -0.32226983468E-02 -0.30652319408E-02  0.23675853997E-01  0.00000000000E+00 0. -1.
     999901    1    3    3    0    0 -0.17393120331E-01  0.19203335889E-01  0.13057372308E+00  0.89001167740E+00  0.88000000000E+00 0.  1.
        -11    1    4    4    0    0 -0.12408704177E-01 -0.12237770476E-01 -0.65727845205E-01  0.68001100887E-01  0.51100000000E-03 0. -1.
         11    1    4    4    0    0  0.65474780113E-02 -0.37428670665E-02 -0.61780645936E-01  0.62241367719E-01  0.51100000000E-03 0.  1.
</event>
<event>
 8    1  0.5489035E+004  0.1043930E+01  0.7957747E-01            NaN
         13   -1    0    0    0    0  0.00000000000E+00  0.00000000000E+00  0.74505805969E-08  0.10566000000E+00  0.10566000000E+00 0. -1.
     999900   -1    0    0    0    0 -0.00000000000E+00 -0.00000000000E+00 -0.74505805969E-08  0.93827000000E+00  0.93827000000E+00 0.  1.
     999902    2    1    2    0    0  0.20000147622E-01 -0.74691558483E-02 -0.87296042650E-02  0.10208648708E+01  0.10206042741E+01 0.  0.
     999903    2    3    3    0    0 -0.88559611801E-01 -0.19475764521E-01  0.89026020746E-01  0.12874069658E+00  0.20650044565E-01 0.  0.
         14    1    1    2    0    0 -0.20000147622E-01  0.74691558483E-02  0.87296042650E-02  0.23065129191E-01  0.00000000000E+00 0. -1.
     999901    1    3    3    0    0  0.10855975942E+00  0.12006608672E-01 -0.97755625011E-01  0.89212417423E+00  0.88000000000E+00 0.  1.
        -11    1    4    4    0    0 -0.42838193211E-01 -0.12749167984E-01  0.57348589081E-01  0.72710204734E-01  0.51100000000E-03 0. -1.
         11    1    4    4    0    0 -0.45721418590E-01 -0.67265965364E-02  0.31677431666E-01  0.56030491848E-01  0.51100000000E-03 0.  1.
</event>
<event>
 8    1  0.5489035E+004  0.1043930E+01  0.7957747E-01            NaN
         13   -1    0    0    0    0  0.00000000000E+00  0.00000000000E+00  0.74505805969E-08  0.10566000000E+00  0.10566000000E+00 0. -1.
     999900   -1    0    0    0    0 -0.00000000000E+00 -0.00000000000E+00 -0.74505805969E-08  0.93827000000E+00  0.93827000000E+00 0.  1.
     999902    2    1    2    0    0  0.15700656349E-01  0.53478849175E-02 -0.13316979162E-01  0.10226590711E+01  0.10224378334E+01 0.  0.
     999903    2    3    3    0    0  0.12359659985E+00 -0.44596603178E-01 -0.20421066139E-01  0.13463516681E+00  0.21086291511E-01 0.  0.
         14    1    1    2    0    0 -0.15700656349E-01 -0.53478849175E-02  0.13316979162E-01  0.21270928914E-01  0.00000000000E+00 0. -1.
     999901    1    3    3    0    0 -0.10789594350E+00  0.49944488095E-01  0.71040869776E-02  0.88802390428E+00  0.88000000000E+00 0.  1.
        -11    1    4    4    0    0  0.57545250551E-01 -0.11186923573E-01 -0.14408452301E-01  0.60369427186E-01  0.51100000000E-03 0. -1.
         11    1    4    4    0    0  0.66051349300E-01 -0.33409679605E-01 -0.60126138381E-02  0.74265739623E-01  0.51100000000E-03 0.  1.
</event>
<event>
 8    1  0.5489035E+004  0.1043930E+01  0.7957747E-01            NaN
         13   -1    0    0    0    0  0.00000000000E+00  0.00000000000E+00  0.74505805969E-08  0.10566000000E+00  0.10566000000E+00 0. -1.
     999900   -1    0    0    0    0 -0.00000000000E+00 -0.00000000000E+00 -0.74505805969E-08  0.93827000000E+00  0.93827000000E+00 0. -1.
     999902    2    1    2    0    0  0.39847178896E-02 -0.50576500569E-03 -0.22405192693E-01  0.10211676092E+01  0.10209138845E+01 0.  0.
     999903    2    3    3    0    0 -0.12106552826E+00 -0.31825294160E-01  0.29871681472E-01  0.13024036833E+00  0.20013113382E-01 0.  0.
         14    1    1    2    0    0 -0.39847178896E-02  0.50576500569E-03  0.22405192693E-01  0.22762390791E-01  0.00000000000E+00 0. -1.
     999901    1    3    3    0    0  0.12505024615E+00  0.31319529155E-01 -0.52276874165E-01  0.89092724088E+00  0.88000000000E+00 0.  1.
        -11    1    4    4    0    0 -0.29216202926E-01 -0.23065135894E-02  0.23182831315E-03  0.29312478293E-01  0.51100000000E-03 0. -1.
         11    1    4    4    0    0 -0.91849325335E-01 -0.29518780571E-01  0.29639853159E-01  0.10092789004E+00  0.51100000000E-03 0.  1.
</event>
<event>
 8    1  0.5489035E+004  0.1043930E+01  0.7957747E-01            NaN
         13   -1    0    0    0    0  0.00000000000E+00  0.00000000000E+00  0.74505805969E-08  0.10566000000E+00  0.10566000000E+00 0. -1.
     999900   -1    0    0    0    0 -0.00000000000E+00 -0.00000000000E+00 -0.74505805969E-08  0.93827000000E+00  0.93827000000E+00 0.  1.
     999902    2    1    2    0    0 -0.60347775285E-02 -0.50409786555E-02 -0.22434966334E-01  0.10201569539E+01  0.10198799208E+01 0.  0.
     999903    2    3    3    0    0  0.45074318826E-01  0.24175509874E-01  0.11626707276E+00  0.12735014470E+00  0.91584742736E-02 0.  0.
         14    1    1    2    0    0  0.60347775285E-02  0.50409786555E-02  0.22434966334E-01  0.23773046082E-01  0.00000000000E+00 0. -1.
     999901    1    3    3    0    0 -0.51109096355E-01 -0.29216488529E-01 -0.13870203910E+00  0.89280680922E+00  0.88000000000E+00 0.  1.
        -11    1    4    4    0    0  0.26287959120E-01  0.91739474947E-02  0.59136501588E-01  0.65365166935E-01  0.51100000000E-03 0.  1.
         11    1    4    4    0    0  0.18786359706E-01  0.15001562379E-01  0.57130571176E-01  0.61984977767E-01  0.51100000000E-03 0. -1.
</event>
<event>
 8    1  0.5489035E+004  0.1043930E+01  0.7957747E-01            NaN
         13   -1    0    0    0    0  0.00000000000E+00  0.00000000000E+00  0.74505805969E-08  0.10566000000E+00  0.10566000000E+00 0. -1.
     999900   -1    0    0    0    0 -0.00000000000E+00 -0.00000000000E+00 -0.74505805969E-08  0.93827000000E+00  0.93827000000E+00 0.  1.
     999902    2    1    2    0    0  0.57633826257E-02 -0.18103757109E-01  0.12121494853E-01  0.10213935132E+01  0.10211448553E+01 0.  0.
     999903    2    3    3    0    0  0.11696570694E+00 -0.36036011770E-01  0.49020331055E-01  0.13344697943E+00  0.20628444399E-01 0.  0.
         14    1    1    2    0    0 -0.57633826257E-02  0.18103757109E-01 -0.12121494853E-01  0.22536486821E-01  0.00000000000E+00 0.  1.
     999901    1    3    3    0    0 -0.11120232431E+00  0.17932254661E-01 -0.36898836202E-01  0.88794653375E+00  0.88000000000E+00 0.  1.
        -11    1    4    4    0    0  0.44633193469E-01 -0.20271988619E-01  0.28142312903E-01  0.56527218031E-01  0.51100000000E-03 0.  1.
         11    1    4    4    0    0  0.72332513466E-01 -0.15764023151E-01  0.20878018152E-01  0.76919761396E-01  0.51100000000E-03 0. -1.
</event>
<event>
 8    1  0.5489035E+004  0.1043930E+01  0.7957747E-01            NaN
         13   -1    0    0    0    0  0.00000000000E+00  0.00000000000E+00  0.74505805969E-08  0.10566000000E+00  0.10566000000E+00 0. -1.
     999900   -1    0    0    0    0 -0.00000000000E+00 -0.00000000000E+00 -0.74505805969E-08  0.93827000000E+00  0.93827000000E+00 0. -1.
     999902    2    1    2    0    0  0.39662263017E-02 -0.20759435639E-01 -0.10506636460E-01  0.10203275737E+01  0.10200545491E+01 0.  0.
     999903    2    3    3    0    0 -0.97947482467E-02  0.39989734478E-01 -0.12285780714E+00  0.13100051817E+00  0.19286757813E-01 0.  0.
         14    1    1    2    0    0 -0.39662263017E-02  0.20759435639E-01  0.10506636460E-01  0.23602426333E-01  0.00000000000E+00 0. -1.
     999901    1    3    3    0    0  0.13760974548E-01 -0.60749170117E-01  0.11235117068E+00  0.88932705550E+00  0.88000000000E+00 0.  1.
        -11    1    4    4    0    0  0.70416974824E-05  0.21558685377E-01 -0.38823036817E-01  0.44410204609E-01  0.51100000000E-03 0.  1.
         11    1    4    4    0    0 -0.98017899442E-02  0.18431049102E-01 -0.84034770327E-01  0.86590313557E-01  0.51100000000E-03 0. -1.
</event>
<event>
 8    1  0.5489035E+004  0.1043930E+01  0.7957747E-01            NaN
         13   -1    0    0    0    0  0.00000000000E+00  0.00000000000E+00  0.74505805969E-08  0.10566000000E+00  0.10566000000E+00 0. -1.
     999900   -1    0    0    0    0 -0.00000000000E+00 -0.00000000000E+00 -0.74505805969E-08  0.93827000000E+00  0.93827000000E+00 0.  1.
     999902    2    1    2    0    0  0.12352206992E-01 -0.18607394916E-01  0.85330413335E-02  0.10200213205E+01  0.10197410795E+01 0.  0.
     999903    2    3    3    0    0 -0.87755143304E-01  0.81857868151E-01  0.40383347299E-01  0.12809688831E+00  0.19399028360E-01 0.  0.
         14    1    1    2    0    0 -0.12352206992E-01  0.18607394916E-01 -0.85330413335E-02  0.23908679544E-01  0.00000000000E+00 0.  1.
     999901    1    3    3    0    0  0.10010735030E+00 -0.10046526307E+00 -0.31850305965E-01  0.89192443214E+00  0.88000000000E+00 0.  1.
        -11    1    4    4    0    0 -0.43120169120E-01  0.41593090633E-01  0.30310313110E-01  0.67143952633E-01  0.51100000000E-03 0.  1.
         11    1    4    4    0    0 -0.44634974184E-01  0.40264777518E-01  0.10073034189E-01  0.60952935678E-01  0.51100000000E-03 0. -1.
</event>
<event>
 8    1  0.5489035E+004  0.1043930E+01  0.7957747E-01            NaN
         13   -1    0    0    0    0  0.00000000000E+00  0.00000000000E+00  0.74505805969E-08  0.10566000000E+00  0.10566000000E+00 0. -1.
     999900   -1    0    0    0    0 -0.00000000000E+00 -0.00000000000E+00 -0.74505805969E-08  0.93827000000E+00  0.93827000000E+00 0.  1.
     999902    2    1    2    0    0 -0.76447645787E-02 -0.12091226283E-01  0.18533260267E-01  0.10205179964E+01  0.10202494102E+01 0.  0.
     999903    2    3    3    0    0  0.10918044798E+00 -0.28115829569E-01 -0.59827223213E-01  0.12920139516E+00  0.20070719479E-01 0.  0.
         14    1    1    2    0    0  0.76447645787E-02  0.12091226283E-01 -0.18533260267E-01  0.23412003644E-01  0.00000000000E+00 0.  1.
     999901    1    3    3    0    0 -0.11682521256E+00  0.16024603287E-01  0.78360483480E-01  0.89131660120E+00  0.88000000000E+00 0. -1.
        -11    1    4    4    0    0  0.46419545218E-01 -0.11740298387E-01 -0.14366587295E-01  0.49992686825E-01  0.51100000000E-03 0. -1.
         11    1    4    4    0    0  0.62760902760E-01 -0.16375531182E-01 -0.45460635919E-01  0.79208708334E-01  0.51100000000E-03 0.  1.
</event>
<event>
 8    1  0.5489035E+004  0.1043930E+01  0.7957747E-01            NaN
         13   -1    0    0    0    0  0.00000000000E+00  0.00000000000E+00  0.74505805969E-08  0.10566000000E+00  0.10566000000E+00 0.  1.
     999900   -1    0    0    0    0 -0.00000000000E+00 -0.00000000000E+00 -0.74505805969E-08  0.93827000000E+00  0.93827000000E+00 0. -1.
     999902    2    1    2    0    0 -0.18923265163E-01 -0.37428422971E-02  0.63426070032E-02  0.10236241512E+01  0.10234227256E+01 0.  0.
     999903    2    3    3    0    0  0.10925566113E+00  0.61546570170E-01  0.35024130160E-01  0.13148336952E+00  0.18341400663E-01 0.  0.
         14    1    1    2    0    0  0.18923265163E-01  0.37428422971E-02 -0.63426070032E-02  0.20305848824E-01  0.00000000000E+00 0. -1.
     999901    1    3    3    0    0 -0.12817892629E+00 -0.65289412467E-01 -0.28681523156E-01  0.89214078166E+00  0.88000000000E+00 0. -1.
        -11    1    4    4    0    0  0.29147411967E-01  0.77469807898E-02  0.10217765448E-01  0.31847310522E-01  0.51100000000E-03 0.  1.
         11    1    4    4    0    0  0.80108249160E-01  0.53799589380E-01  0.24806364711E-01  0.99636058996E-01  0.51100000000E-03 0. -1.
</event>
<event>
 8    1  0.5489035E+004  0.1043930E+01  0.7957747E-01            NaN
         13   -1    0    0    0    0  0.00000000000E+00  0.00000000000E+00  0.74505805969E-08  0.10566000000E+00  0.10566000000E+00 0. -1.
     999900   -1    0    0    0    0 -0.00000000000E+00 -0.00000000000E+00 -0.74505805969E-08  0.93827000000E+00  0.93827000000E+00 0.  1.
     999902    2    1    2    0    0  0.54846067619E-02  0.10709800568E-01  0.20868779670E-01  0.10198408592E+01  0.10195563209E+01 0.  0.
     999903    2    3    3    0    0  0.91111188473E-02 -0.65223593726E-01 -0.10668818951E+00  0.12740049013E+00  0.22613832932E-01 0.  0.
         14    1    1    2    0    0 -0.54846067619E-02 -0.10709800568E-01 -0.20868779670E-01  0.24089140799E-01  0.00000000000E+00 0. -1.
     999901    1    3    3    0    0 -0.36265120853E-02  0.75933394294E-01  0.12755696918E+00  0.89244036907E+00  0.88000000000E+00 0. -1.
        -11    1    4    4    0    0  0.99542008951E-02 -0.44970143789E-01 -0.54183205270E-01  0.71115967280E-01  0.51100000000E-03 0.  1.
         11    1    4    4    0    0 -0.84308204779E-03 -0.20253449937E-01 -0.52504984239E-01  0.56284522851E-01  0.51100000000E-03 0. -1.
</event>
<event>
 8    1  0.5489035E+004  0.1043930E+01  0.7957747E-01            NaN
         13   -1    0    0    0    0  0.00000000000E+00  0.00000000000E+00  0.74505805969E-08  0.10566000000E+00  0.10566000000E+00 0. -1.
     999900   -1    0    0    0    0 -0.00000000000E+00 -0.00000000000E+00 -0.74505805969E-08  0.93827000000E+00  0.93827000000E+00 0.  1.
     999902    2    1    2    0    0 -0.12948647772E-02  0.10188746350E-01  0.20844977141E-01  0.10206920935E+01  0.10204275327E+01 0.  0.
     999903    2    3    3    0    0  0.23239204468E-01 -0.12472233206E+00  0.20609569604E-01  0.13007266015E+00  0.19960506510E-01 0.  0.
         14    1    1    2    0    0  0.12948647772E-02 -0.10188746350E-01 -0.20844977141E-01  0.23237906510E-01  0.00000000000E+00 0.  1.
     999901    1    3    3    0    0 -0.24534069246E-01  0.13491107841E+00  0.23540753714E-03  0.89061943334E+00  0.88000000000E+00 0. -1.
        -11    1    4    4    0    0  0.25332124500E-01 -0.10368940542E+00  0.21611129906E-01  0.10890597497E+00  0.51100000000E-03 0. -1.
         11    1    4    4    0    0 -0.20929200312E-02 -0.21032926638E-01 -0.10015603018E-02  0.21166685174E-01  0.51100000000E-03 0.  1.
</event>
<event>
 8    1  0.5489035E+004  0.1043930E+01  0.7957747E-01            NaN
         13   -1    0    0    0    0  0.00000000000E+00  0.00000000000E+00  0.74505805969E-08  0.10566000000E+00  0.10566000000E+00 0.  1.
     999900   -1    0    0    0    0 -0.00000000000E+00 -0.00000000000E+00 -0.74505805969E-08  0.93827000000E+00  0.93827000000E+00 0.  1.
     999902    2    1    2    0    0 -0.23774216042E-02  0.20069513060E-01  0.13193130373E-01  0.10197950424E+01  0.10195094077E+01 0.  0.
     999903    2    3    3    0    0 -0.30648818352E-01 -0.11435270157E+00  0.45323993499E-01  0.12855938559E+00  0.21385995740E-01 0.  0.
         14    1    1    2    0    0  0.23774216042E-02 -0.20069513060E-01 -0.13193130373E-01  0.24134957572E-01  0.00000000000E+00 0. -1.
     999901    1    3    3    0    0  0.28271396748E-01  0.13442221463E+00 -0.32130863126E-01  0.89123565684E+00  0.88000000000E+00 0.  1.
        -11    1    4    4    0    0 -0.28071835814E-01 -0.68477345257E-01  0.23204693736E-01  0.77562192541E-01  0.51100000000E-03 0. -1.
         11    1    4    4    0    0 -0.25769825385E-02 -0.45875356311E-01  0.22119299763E-01  0.50997193047E-01  0.51100000000E-03 0.  1.
</event>
<event>
 8    1  0.5489035E+004  0.1043930E+01  0.7957747E-01            NaN
         13   -1    0    0    0    0  0.00000000000E+00  0.00000000000E+00  0.74505805969E-08  0.10566000000E+00  0.10566000000E+00 0. -1.
     999900   -1    0    0    0    0 -0.00000000000E+00 -0.00000000000E+00 -0.74505805969E-08  0.93827000000E+00  0.93827000000E+00 0. -1.
     999902    2    1    2    0    0 -0.76040557090E-02  0.21234084687E-01 -0.65310445312E-02  0.10204488893E+01  0.10201786967E+01 0.  0.
     999903    2    3    3    0    0  0.87715906437E-01  0.70088866652E-01 -0.66805254464E-01  0.13190757611E+00  0.18169676437E-01 0.  0.
         14    1    1    2    0    0  0.76040557090E-02 -0.21234084687E-01  0.65310445312E-02  0.23481110672E-01  0.00000000000E+00 0.  1.
     999901    1    3    3    0    0 -0.95319962146E-01 -0.48854781965E-01  0.60274209933E-01  0.88854131321E+00  0.88000000000E+00 0.  1.
        -11    1    4    4    0    0  0.41231864639E-01  0.31285638501E-01 -0.41231893572E-01  0.66175433558E-01  0.51100000000E-03 0.  1.
         11    1    4    4    0    0  0.46484041798E-01  0.38803228151E-01 -0.25573360892E-01  0.65732142557E-01  0.51100000000E-03 0. -1.
</event>
<event>
 8    1  0.5489035E+004  0.1043930E+01  0.7957747E-01            NaN
         13   -1    0    0    0    0  0.00000000000E+00  0.00000000000E+00  0.74505805969E-08  0.10566000000E+00  0.10566000000E+00 0. -1.
     999900   -1    0    0    0    0 -0.00000000000E+00 -0.00000000000E+00 -0.74505805969E-08  0.93827000000E+00  0.93827000000E+00 0. -1.
     999902    2    1    2    0    0  0.56411452997E-02  0.18262704645E-01 -0.16835719426E-01  0.10184586367E+01  0.10181400710E+01 0.  0.
     999903    2    3    3    0    0 -0.10096613016E+00  0.53465132946E-01  0.55114946496E-01  0.12841300837E+00  0.19989084777E-01 0.  0.
         14    1    1    2    0    0 -0.56411452997E-02 -0.18262704645E-01  0.16835719426E-01  0.25471363329E-01  0.00000000000E+00 0. -1.
     999901    1    3    3    0    0  0.10660727546E+00 -0.35202428301E-01 -0.71950665922E-01  0.89004562831E+00  0.88000000000E+00 0. -1.
        -11    1    4    4    0    0 -0.35970846078E-01  0.99033876225E-02  0.23012688760E-01  0.43838611052E-01  0.51100000000E-03 0. -1.
         11    1    4    4    0    0 -0.64995284080E-01  0.43561745324E-01  0.32102257736E-01  0.84574397314E-01  0.51100000000E-03 0.  1.
</event>
<event>
 8    1  0.5489035E+004  0.1043930E+01  0.7957747E-01            NaN
         13   -1    0    0    0    0  0.00000000000E+00  0.00000000000E+00  0.74505805969E-08  0.10566000000E+00  0.10566000000E+00 0.  1.
     999900   -1    0    0    0    0 -0.00000000000E+00 -0.00000000000E+00 -0.74505805969E-08  0.93827000000E+00  0.93827000000E+00 0.  1.
     999902    2    1    2    0    0  0.14247213651E-01 -0.41604391772E-02 -0.18702678290E-01  0.10200535990E+01  0.10197741231E+01 0.  0.
     999903    2    3    3    0    0  0.59211119844E-01 -0.67412630000E-01  0.91959538929E-01  0.12973415134E+00  0.17999272976E-01 0.  0.
         14    1    1    2    0    0 -0.14247213651E-01  0.41604391772E-02  0.18702678290E-01  0.23876401031E-01  0.00000000000E+00 0.  1.
     999901    1    3    3    0    0 -0.44963906193E-01  0.63252190823E-01 -0.11066221722E+00  0.89031944763E+00  0.88000000000E+00 0. -1.
        -11    1    4    4    0    0  0.31986780471E-01 -0.36989940632E-01  0.37281959766E-01  0.61494841067E-01  0.51100000000E-03 0.  1.
         11    1    4    4    0    0  0.27224339373E-01 -0.30422689368E-01  0.54677579163E-01  0.68239310275E-01  0.51100000000E-03 0. -1.
</event>
<event>
 8    1  0.5489035E+004  0.1043930E+01  0.7957747E-01            NaN
         13   -1    0    0    0    0  0.00000000000E+00  0.00000000000E+00  0.74505805969E-08  0.10566000000E+00  0.10566000000E+00 0. -1.
     999900   -1    0    0    0    0 -0.00000000000E+00 -0.00000000000E+00 -0.74505805969E-08  0.93827000000E+00  0.93827000000E+00 0. -1.
     999902    2    1    2    0    0 -0.14959349066E-01  0.10451001063E-01  0.16077841729E-01  0.10196091747E+01  0.10193190701E+01 0.  0.
     999903    2    3    3    0    0 -0.67036443916E-01  0.93336142644E-01  0.63577363186E-01  0.13290845010E+00  0.20421916209E-01 0.  0.
         14    1    1    2    0    0  0.14959349066E-01 -0.10451001063E-01 -0.16077841729E-01  0.24320825281E-01  0.00000000000E+00 0.  1.
     999901    1    3    3    0    0  0.52077094850E-01 -0.82885141581E-01 -0.47499521457E-01  0.88670072462E+00  0.88000000000E+00 0. -1.
        -11    1    4    4    0    0 -0.15754310744E-01  0.38033256724E-01  0.25388110884E-01  0.48368835207E-01  0.51100000000E-03 0. -1.
         11    1    4    4    0    0 -0.51282133172E-01  0.55302885920E-01  0.38189252302E-01  0.84539614892E-01  0.51100000000E-03 0.  1.
</event>
<event>
 8    1  0.5489035E+004  0.1043930E+01  0.7957747E-01            NaN
         13   -1    0    0    0    0  0.00000000000E+00  0.00000000000E+00  0.74505805969E-08  0.10566000000E+00  0.10566000000E+00 0. -1.
     999900   -1    0    0    0    0 -0.00000000000E+00 -0.00000000000E+00 -0.74505805969E-08  0.93827000000E+00  0.93827000000E+00 0. -1.
     999902    2    1    2    0    0  0.39743672392E-02 -0.22815306489E-01 -0.82991141984E-02  0.10193290020E+01  0.10190320924E+01 0.  0.
     999903    2    3    3    0    0  0.10934013195E+00 -0.70147528433E-01  0.80956956315E-02  0.13162912402E+00  0.19614938237E-01 0.  0.
         14    1    1    2    0    0 -0.39743672392E-02  0.22815306489E-01  0.82991141984E-02  0.24600997980E-01  0.00000000000E+00 0. -1.
     999901    1    3    3    0    0 -0.10536576472E+00  0.47332221945E-01 -0.16394809830E-01  0.88769987800E+00  0.88000000000E+00 0.  1.
        -11    1    4    4    0    0  0.16162793975E-01 -0.41327535532E-02  0.48825456781E-02  0.17390110244E-01  0.51100000000E-03 0. -1.
         11    1    4    4    0    0  0.93177337980E-01 -0.66014774880E-01  0.32131499534E-02  0.11423901378E+00  0.51100000000E-03 0.  1.
</event>
<event>
 8    1  0.5489035E+004  0.1043930E+01  0.7957747E-01            NaN
         13   -1    0    0    0    0  0.00000000000E+00  0.00000000000E+00  0.74505805969E-08  0.10566000000E+00  0.10566000000E+00 0. -1.
     999900   -1    0    0    0    0 -0.00000000000E+00 -0.00000000000E+00 -0.74505805969E-08  0.93827000000E+00  0.93827000000E+00 0.  1.
     999902    2    1    2    0    0 -0.16385364337E-01  0.11734346364E-01  0.11970716372E-01  0.10204891574E+01  0.10202199015E+01 0.  0.
     999903    2    3    3    0    0 -0.12207594711E-01  0.10819209065E+00  0.73818316499E-01  0.13305089152E+00  0.19971029901E-01 0.  0.
         14    1    1    2    0    0  0.16385364337E-01 -0.11734346364E-01 -0.11970716372E-01  0.23440842551E-01  0.00000000000E+00 0. -1.
     999901    1    3    3    0    0 -0.41777696256E-02 -0.96457744288E-01 -0.61847600127E-01  0.88743826593E+00  0.88000000000E+00 0.  1.
        -11    1    4    4    0    0  0.50583459439E-02  0.27190885040E-01  0.22106685460E-01  0.35410418749E-01  0.51100000000E-03 0. -1.
         11    1    4    4    0    0 -0.17265940655E-01  0.81001205612E-01  0.51711631039E-01  0.97640472771E-01  0.51100000000E-03 0.  1.
</event>
<event>
 8    1  0.5489035E+004  0.1043930E+01  0.7957747E-01            NaN
         13   -1    0    0    0    0  0.00000000000E+00  0.00000000000E+00  0.74505805969E-08  0.10566000000E+00  0.10566000000E+00 0. -1.
     999900   -1    0    0    0    0 -0.00000000000E+00 -0.00000000000E+00 -0.74505805969E-08  0.93827000000E+00  0.93827000000E+00 0. -1.
     999902    2    1    2    0    0 -0.41295614012E-02 -0.10085307477E-01  0.21376350910E-01  0.10199359365E+01  0.10196536665E+01 0.  0.
     999903    2    3    3    0    0 -0.62017854604E-01  0.95213636234E-01  0.61660623166E-01  0.13085678108E+00  0.20238920207E-01 0.  0.
         14    1    1    2    0    0  0.41295614012E-02  0.10085307477E-01 -0.21376350910E-01  0.23994063484E-01  0.00000000000E+00 0. -1.
     999901    1    3    3    0    0  0.57888293203E-01 -0.10529894371E+00 -0.40284272256E-01  0.88907915543E+00  0.88000000000E+00 0. -1.
        -11    1    4    4    0    0 -0.23479519210E-02  0.15389496755E-01  0.10906411715E-01  0.19014742336E-01  0.51100000000E-03 0. -1.
         11    1    4    4    0    0 -0.59669902683E-01  0.79824139478E-01  0.50754211452E-01  0.11184203875E+00  0.51100000000E-03 0.  1.
</event>
<event>
 8    1  0.5489035E+004  0.1043930E+01  0.7957747E-01            NaN
         13   -1    0    0    0    0  0.00000000000E+00  0.00000000000E+00  0.74505805969E-08  0.10566000000E+00  0.10566000000E+00 0.  1.
     999900   -1    0    0    0    0 -0.00000000000E+00 -0.00000000000E+00 -0.74505805969E-08  0.93827000000E+00  0.93827000000E+00 0. -1.
     999902    2    1    2    0    0 -0.17756266655E-01  0.16022104575E-02  0.16886895812E-01  0.10193735480E+01  0.10190777257E+01 0.  0.
     999903    2    3    3    0    0  0.98194746651E-01  0.79903010418E-01  0.17351689836E-02  0.12819162069E+00  0.20084358612E-01 0.  0.
         14    1    1    2    0    0  0.17756266655E-01 -0.16022104575E-02 -0.16886895812E-01  0.24556451984E-01  0.00000000000E+00 0. -1.
     999901    1    3    3    0    0 -0.11595101331E+00 -0.78300799960E-01  0.15151726829E-01  0.89118192732E+00  0.88000000000E+00 0.  1.
        -11    1    4    4    0    0  0.90892702171E-01  0.70405244288E-01  0.68031124168E-02  0.11517345697E+00  0.51100000000E-03 0.  1.
         11    1    4    4    0    0  0.73020444801E-02  0.94977661294E-02 -0.50679434332E-02  0.13018163722E-01  0.51100000000E-03 0. -1.
</event>
<event>
 8    1  0.5489035E+004  0.1043930E+01  0.7957747E-01            NaN
         13   -1    0    0    0    0  0.00000000000E+00  0.00000000000E+00  0.74505805969E-08  0.10566000000E+00  0.10566000000E+00 0. -1.
     999900   -1    0    0    0    0 -0.00000000000E+00 -0.00000000000E+00 -0.74505805969E-08  0.93827000000E+00  0.93827000000E+00 0.  1.
     999902    2    1    2    0    0  0.21097092286E-02 -0.93877601166E-02 -0.21891617948E-01  0.10200171614E+01  0.10197368218E+01 0.  0.
     999903    2    3    3    0    0 -0.80735775465E-01 -0.54322854839E-01  0.82124386871E-01  0.12889322708E+00  0.19995276224E-01 0.  0.
         14    1    1    2    0    0 -0.21097092286E-02  0.93877601166E-02  0.21891617948E-01  0.23912838589E-01  0.00000000000E+00 0. -1.
     999901    1    3    3    0    0  0.82845484694E-01  0.44935094722E-01 -0.10401600482E+00  0.89112393433E+00  0.88000000000E+00 0.  1.
        -11    1    4    4    0    0 -0.44535655569E-01 -0.41548811619E-01  0.52194940398E-01  0.80214096566E-01  0.51100000000E-03 0.  1.
         11    1    4    4    0    0 -0.36200119896E-01 -0.12774043220E-01  0.29929446474E-01  0.48679130517E-01  0.51100000000E-03 0. -1.
</event>
<event>
 8    1  0.5489035E+004  0.1043930E+01  0.7957747E-01            NaN
         13   -1    0    0    0    0  0.00000000000E+00  0.00000000000E+00  0.74505805969E-08  0.10566000000E+00  0.10566000000E+00 0.  1.
     999900   -1    0    0    0    0 -0.00000000000E+00 -0.00000000000E+00 -0.74505805969E-08  0.93827000000E+00  0.93827000000E+00 0. -1.
     999902    2    1    2    0    0 -0.86704269051E-02  0.33713321490E-02 -0.21399692831E-01  0.10205957111E+01  0.10203289257E+01 0.  0.
     999903    2    3    3    0    0 -0.55674337356E-01  0.40374484982E-02  0.11452466319E+00  0.12892018615E+00  0.19712510959E-01 0.  0.
         14    1    1    2    0    0  0.86704269051E-02 -0.33713321490E-02  0.21399692831E-01  0.23334288856E-01  0.00000000000E+00 0.  1.
     999901    1    3    3    0    0  0.47003910451E-01 -0.66611634920E-03 -0.13592435602E+00  0.89167552499E+00  0.88000000000E+00 0. -1.
        -11    1    4    4    0    0 -0.42818049384E-01  0.47914617649E-02  0.66842794476E-01  0.79527125896E-01  0.51100000000E-03 0. -1.
         11    1    4    4    0    0 -0.12856287972E-01 -0.75401326674E-03  0.47681868714E-01  0.49393060257E-01  0.51100000000E-03 0.  1.
</event>
<event>
 8    1  0.5489035E+004  0.1043930E+01  0.7957747E-01            NaN
         13   -1    0    0    0    0  0.00000000000E+00  0.00000000000E+00  0.74505805969E-08  0.10566000000E+00  0.10566000000E+00 0.  1.
     999900   -1    0    0    0    0 -0.00000000000E+00 -0.00000000000E+00 -0.74505805969E-08  0.93827000000E+00  0.93827000000E+00 0.  1.
     999902    2    1    2    0    0 -0.91539964318E-03  0.22220389818E-01 -0.78685760451E-02  0.10203397866E+01  0.10200670478E+01 0.  0.
     999903    2    3    3    0    0  0.84410034355E-01  0.20562629016E-01 -0.96941316053E-01  0.13173575166E+00  0.20219146786E-01 0.  0.
         14    1    1    2    0    0  0.91539964318E-03 -0.22220389818E-01  0.78685760451E-02  0.23590213418E-01  0.00000000000E+00 0. -1.
     999901    1    3    3    0    0 -0.85325433998E-01  0.16577608020E-02  0.89072740008E-01  0.88860403492E+00  0.88000000000E+00 0. -1.
        -11    1    4    4    0    0  0.33772548505E-01  0.14784415826E-02 -0.48397751649E-01  0.59037058766E-01  0.51100000000E-03 0.  1.
         11    1    4    4    0    0  0.50637485850E-01  0.19084187433E-01 -0.48543564404E-01  0.72698692899E-01  0.51100000000E-03 0. -1.
</event>
<event>
 8    1  0.5489035E+004  0.1043930E+01  0.7957747E-01            NaN
         13   -1    0    0    0    0  0.00000000000E+00  0.00000000000E+00  0.74505805969E-08  0.10566000000E+00  0.10566000000E+00 0.  1.
     999900   -1    0    0    0    0 -0.00000000000E+00 -0.00000000000E+00 -0.74505805969E-08  0.93827000000E+00  0.93827000000E+00 0.  1.
     999902    2    1    2    0    0  0.13518146984E-01  0.22300001945E-02 -0.20496828270E-01  0.10192757272E+01  0.10189775144E+01 0.  0.
     999903    2    3    3    0    0  0.86978867913E-01  0.86555938047E-01  0.39495366431E-01  0.13017145617E+00  0.18096136539E-01 0.  0.
         14    1    1    2    0    0 -0.13518146984E-01 -0.22300001945E-02  0.20496828270E-01  0.24654272812E-01  0.00000000000E+00 0.  1.
     999901    1    3    3    0    0 -0.73460720930E-01 -0.84325937853E-01 -0.59992194701E-01  0.88910427102E+00  0.88000000000E+00 0. -1.
        -11    1    4    4    0    0  0.56089114403E-01  0.66089560964E-01  0.23531131959E-01  0.89820900214E-01  0.51100000000E-03 0. -1.
         11    1    4    4    0    0  0.30889753510E-01  0.20466377083E-01  0.15964234472E-01  0.40350555958E-01  0.51100000000E-03 0.  1.
</event>
<event>
 8    1  0.5489035E+004  0.1043930E+01  0.7957747E-01            NaN
         13   -1    0    0    0    0  0.00000000000E+00  0.00000000000E+00  0.74505805969E-08  0.10566000000E+00  0.10566000000E+00 0. -1.
     999900   -1    0    0    0    0 -0.00000000000E+00 -0.00000000000E+00 -0.74505805969E-08  0.93827000000E+00  0.93827000000E+00 0.  1.
     999902    2    1    2    0    0  0.95499195083E-02 -0.21349274771E-01  0.23436832471E-02  0.10204249931E+01  0.10201542439E+01 0.  0.
     999903    2    3    3    0    0 -0.46651106429E-02  0.10746861166E+00 -0.66677204444E-01  0.12825909048E+00  0.20815353701E-01 0.  0.
         14    1    1    2    0    0 -0.95499195083E-02  0.21349274771E-01 -0.23436832471E-02  0.23505006850E-01  0.00000000000E+00 0.  1.
     999901    1    3    3    0    0  0.14215030151E-01 -0.12881788643E+00  0.69020887691E-01  0.89216590267E+00  0.88000000000E+00 0. -1.
        -11    1    4    4    0    0 -0.64819755763E-02  0.64141961439E-01 -0.28530144207E-01  0.70501329591E-01  0.51100000000E-03 0. -1.
         11    1    4    4    0    0  0.18168649334E-02  0.43326650219E-01 -0.38147060237E-01  0.57757760891E-01  0.51100000000E-03 0.  1.
</event>
<event>
 8    1  0.5489035E+004  0.1043930E+01  0.7957747E-01            NaN
         13   -1    0    0    0    0  0.00000000000E+00  0.00000000000E+00  0.74505805969E-08  0.10566000000E+00  0.10566000000E+00 0. -1.
     999900   -1    0    0    0    0 -0.00000000000E+00 -0.00000000000E+00 -0.74505805969E-08  0.93827000000E+00  0.93827000000E+00 0. -1.
     999902    2    1    2    0    0 -0.14225478082E-01  0.80928086332E-02  0.18621300674E-01  0.10191386584E+01  0.10188370795E+01 0.  0.
     999903    2    3    3    0    0 -0.44383249763E-01  0.73387903533E-01  0.98965123309E-01  0.13255641721E+00  0.20529268535E-01 0.  0.
         14    1    1    2    0    0  0.14225478082E-01 -0.80928086332E-02 -0.18621300674E-01  0.24791341573E-01  0.00000000000E+00 0.  1.
     999901    1    3    3    0    0  0.30157771681E-01 -0.65295094899E-01 -0.80343822636E-01  0.88658224122E+00  0.88000000000E+00 0. -1.
        -11    1    4    4    0    0 -0.38334733625E-01  0.56651009230E-01  0.65799410371E-01  0.94914235893E-01  0.51100000000E-03 0. -1.
         11    1    4    4    0    0 -0.60485161375E-02  0.16736894302E-01  0.33165712938E-01  0.37642181314E-01  0.51100000000E-03 0.  1.
</event>
<event>
 8    1  0.5489035E+004  0.1043930E+01  0.7957747E-01            NaN
         13   -1    0    0    0    0  0.00000000000E+00  0.00000000000E+00  0.74505805969E-08  0.10566000000E+00  0.10566000000E+00 0. -1.
     999900   -1    0    0    0    0 -0.00000000000E+00 -0.00000000000E+00 -0.74505805969E-08  0.93827000000E+00  0.93827000000E+00 0.  1.
     999902    2    1    2    0    0 -0.44740631788E-02 -0.18248273150E-01 -0.13318556367E-01  0.10208995710E+01  0.10206397668E+01 0.  0.
     999903    2    3    3    0    0 -0.14577342880E-01  0.10986249567E-01 -0.12972746237E+00  0.13269477091E+00  0.21106660780E-01 0.  0.
         14    1    1    2    0    0  0.44740631788E-02  0.18248273150E-01  0.13318556367E-01  0.23030428958E-01  0.00000000000E+00 0. -1.
     999901    1    3    3    0    0  0.10103279702E-01 -0.29234522717E-01  0.11640890600E+00  0.88820480013E+00  0.88000000000E+00 0. -1.
        -11    1    4    4    0    0 -0.17673862103E-01  0.60225539497E-02 -0.63035530728E-01  0.65744777837E-01  0.51100000000E-03 0.  1.
         11    1    4    4    0    0  0.30965192227E-02  0.49636956173E-02 -0.66691931642E-01  0.66949993074E-01  0.51100000000E-03 0. -1.
</event>
<event>
 8    1  0.5489035E+004  0.1043930E+01  0.7957747E-01            NaN
         13   -1    0    0    0    0  0.00000000000E+00  0.00000000000E+00  0.74505805969E-08  0.10566000000E+00  0.10566000000E+00 0. -1.
     999900   -1    0    0    0    0 -0.00000000000E+00 -0.00000000000E+00 -0.74505805969E-08  0.93827000000E+00  0.93827000000E+00 0.  1.
     999902    2    1    2    0    0  0.16859514329E-01 -0.12536685318E-01 -0.72593522493E-02  0.10217014171E+01  0.10214595811E+01 0.  0.
     999903    2    3    3    0    0 -0.13549300789E-01  0.26899088647E-02 -0.12991492817E+00  0.13254398700E+00  0.22342801253E-01 0.  0.
         14    1    1    2    0    0 -0.16859514329E-01  0.12536685318E-01  0.72593522493E-02  0.22228582889E-01  0.00000000000E+00 0. -1.
     999901    1    3    3    0    0  0.30408815119E-01 -0.15226594183E-01  0.12265557592E+00  0.88915743011E+00  0.88000000000E+00 0. -1.
        -11    1    4    4    0    0 -0.62279451054E-03  0.10681039660E-01 -0.43351754210E-01  0.44655438586E-01  0.51100000000E-03 0.  1.
         11    1    4    4    0    0 -0.12926506279E-01 -0.79911307949E-02 -0.86563173961E-01  0.87888548419E-01  0.51100000000E-03 0. -1.
</event>
<event>
 8    1  0.5489035E+004  0.1043930E+01  0.7957747E-01            NaN
         13   -1    0    0    0    0  0.00000000000E+00  0.00000000000E+00  0.74505805969E-08  0.10566000000E+00  0.10566000000E+00 0.  1.
     999900   -1    0    0    0    0 -0.00000000000E+00 -0.00000000000E+00 -0.74505805969E-08  0.93827000000E+00  0.93827000000E+00 0. -1.
     999902    2    1    2    0    0 -0.18102508500E-01  0.71691989442E-03 -0.17938136009E-01  0.10184350689E+01  0.10181159060E+01 0.  0.
     999903    2    3    3    0    0 -0.11952457334E+00 -0.31911837386E-01 -0.40540839492E-01  0.13172093614E+00  0.20058822367E-01 0.  0.
         14    1    1    2    0    0  0.18102508500E-01 -0.71691989442E-03  0.17938136009E-01  0.25494931096E-01  0.00000000000E+00 0.  1.
     999901    1    3    3    0    0  0.10142206484E+00  0.32628757280E-01  0.22602703483E-01  0.88671413276E+00  0.88000000000E+00 0. -1.
        -11    1    4    4    0    0 -0.44286841056E-01 -0.15408176597E-01 -0.24997523518E-01  0.53140130784E-01  0.51100000000E-03 0. -1.
         11    1    4    4    0    0 -0.75237732279E-01 -0.16503660789E-01 -0.15543315974E-01  0.78580805356E-01  0.51100000000E-03 0.  1.
</event>
<event>
 8    1  0.5489035E+004  0.1043930E+01  0.7957747E-01            NaN
         13   -1    0    0    0    0  0.00000000000E+00  0.00000000000E+00  0.74505805969E-08  0.10566000000E+00  0.10566000000E+00 0. -1.
     999900   -1    0    0    0    0 -0.00000000000E+00 -0.00000000000E+00 -0.74505805969E-08  0.93827000000E+00  0.93827000000E+00 0. -1.
     999902    2    1    2    0    0 -0.15559260867E-01  0.14685090687E-01 -0.86095383304E-02  0.10208677660E+01  0.10206072354E+01 0.  0.
     999903    2    3    3    0    0 -0.10960322642E+00  0.69377934022E-01  0.24747766524E-01  0.13354128473E+00  0.19865996276E-01 0.  0.
         14    1    1    2    0    0  0.15559260867E-01 -0.14685090687E-01  0.86095383304E-02  0.23062234009E-01  0.00000000000E+00 0. -1.
     999901    1    3    3    0    0  0.94043965549E-01 -0.54692843335E-01 -0.33357304855E-01  0.88732648127E+00  0.88000000000E+00 0. -1.
        -11    1    4    4    0    0 -0.67364342417E-01  0.41761294766E-01  0.24876677117E-01  0.83072682365E-01  0.51100000000E-03 0. -1.
         11    1    4    4    0    0 -0.42238883999E-01  0.27616639256E-01 -0.12891059275E-03  0.50468602361E-01  0.51100000000E-03 0.  1.
</event>
<event>
 8    1  0.5489035E+004  0.1043930E+01  0.7957747E-01            NaN
         13   -1    0    0    0    0  0.00000000000E+00  0.00000000000E+00  0.74505805969E-08  0.10566000000E+00  0.10566000000E+00 0. -1.
     999900   -1    0    0    0    0 -0.00000000000E+00 -0.00000000000E+00 -0.74505805969E-08  0.93827000000E+00  0.93827000000E+00 0. -1.
     999902    2    1    2    0    0 -0.13981462289E-01 -0.17360419525E-01  0.33746972396E-02  0.10213855099E+01  0.10211366734E+01 0.  0.
     999903    2    3    3    0    0 -0.35083726550E-01  0.12207542998E+00  0.19057932210E-01  0.13001935304E+00  0.20212592898E-01 0.  0.
         14    1    1    2    0    0  0.13981462289E-01  0.17360419525E-01 -0.33746972396E-02  0.22544490131E-01  0.00000000000E+00 0.  1.
     999901    1    3    3    0    0  0.21102264261E-01 -0.13943584950E+00 -0.15683234971E-01  0.89136615683E+00  0.88000000000E+00 0. -1.
        -11    1    4    4    0    0 -0.19545398514E-01  0.34436435165E-01  0.52047064748E-02  0.39940465201E-01  0.51100000000E-03 0.  1.
         11    1    4    4    0    0 -0.15538328036E-01  0.87638994812E-01  0.13853225735E-01  0.90078887838E-01  0.51100000000E-03 0. -1.
</event>
<event>
 8    1  0.5489035E+004  0.1043930E+01  0.7957747E-01            NaN
         13   -1    0    0    0    0  0.00000000000E+00  0.00000000000E+00  0.74505805969E-08  0.10566000000E+00  0.10566000000E+00 0.  1.
     999900   -1    0    0    0    0 -0.00000000000E+00 -0.00000000000E+00 -0.74505805969E-08  0.93827000000E+00  0.93827000000E+00 0. -1.
     999902    2    1    2    0    0 -0.20658095423E-01 -0.12529411745E-01  0.53125689042E-02  0.10191920443E+01  0.10188917787E+01 0.  0.
     999903    2    3    3    0    0 -0.41819805192E-01  0.11965986006E+00 -0.11513270088E-01  0.12890842070E+00  0.20431527672E-01 0.  0.
         14    1    1    2    0    0  0.20658095423E-01  0.12529411745E-01 -0.53125689042E-02  0.24737955727E-01  0.00000000000E+00 0. -1.
     999901    1    3    3    0    0  0.21161709769E-01 -0.13218927181E+00  0.16825838992E-01  0.89028362357E+00  0.88000000000E+00 0. -1.
        -11    1    4    4    0    0 -0.71637951865E-02  0.41858107430E-01  0.27099871402E-02  0.42556154319E-01  0.51100000000E-03 0. -1.
         11    1    4    4    0    0 -0.34656010005E-01  0.77801752634E-01 -0.14223257228E-01  0.86352266383E-01  0.51100000000E-03 0.  1.
</event>
<event>
 8    1  0.5489035E+004  0.1043930E+01  0.7957747E-01            NaN
         13   -1    0    0    0    0  0.00000000000E+00  0.00000000000E+00  0.74505805969E-08  0.10566000000E+00  0.10566000000E+00 0.  1.
     999900   -1    0    0    0    0 -0.00000000000E+00 -0.00000000000E+00 -0.74505805969E-08  0.93827000000E+00  0.93827000000E+00 0.  1.
     999902    2    1    2    0    0 -0.18093781041E-01  0.86120528757E-02  0.13799969448E-01  0.10195991241E+01  0.10193087767E+01 0.  0.
     999903    2    3    3    0    0 -0.10328442478E+00 -0.74041039942E-01  0.27050514257E-01  0.13153124576E+00  0.20469252375E-01 0.  0.
         14    1    1    2    0    0  0.18093781041E-01 -0.86120528757E-02 -0.13799969448E-01  0.24330875937E-01  0.00000000000E+00 0. -1.
     999901    1    3    3    0    0  0.85190643737E-01  0.82653092817E-01 -0.13250544809E-01  0.88806787830E+00  0.88000000000E+00 0.  1.
        -11    1    4    4    0    0 -0.35383288703E-01 -0.21518385926E-01  0.18174006619E-01  0.45228018859E-01  0.51100000000E-03 0.  1.
         11    1    4    4    0    0 -0.67901136075E-01 -0.52522654015E-01  0.88765076387E-02  0.86303226903E-01  0.51100000000E-03 0. -1.
</event>
<event>
 8    1  0.5489035E+004  0.1043930E+01  0.7957747E-01            NaN
         13   -1    0    0    0    0  0.00000000000E+00  0.00000000000E+00  0.74505805969E-08  0.10566000000E+00  0.10566000000E+00 0.  1.
     999900   -1    0    0    0    0 -0.00000000000E+00 -0.00000000000E+00 -0.74505805969E-08  0.93827000000E+00  0.93827000000E+00 0.  1.
     999902    2    1    2    0    0  0.14548827291E-01 -0.17624172576E-01  0.10854184443E-01  0.10186299377E+01  0.10183156960E+01 0.  0.
     999903    2    3    3    0    0  0.39482267372E-01 -0.42155171114E-01 -0.11382367126E+00  0.12915367939E+00  0.19721482539E-01 0.  0.
         14    1    1    2    0    0 -0.14548827291E-01  0.17624172576E-01 -0.10854184443E-01  0.25300062340E-01  0.00000000000E+00 0. -1.
     999901    1    3    3    0    0 -0.24933440081E-01  0.24530998539E-01  0.12467785570E+00  0.88947625827E+00  0.88000000000E+00 0. -1.
        -11    1    4    4    0    0  0.30892675299E-01 -0.31456435367E-01 -0.65809043277E-01  0.79214619934E-01  0.51100000000E-03 0. -1.
         11    1    4    4    0    0  0.85895920725E-02 -0.10698735747E-01 -0.48014627978E-01  0.49939059456E-01  0.51100000000E-03 0.  1.
</event>
<event>
 8    1  0.5489035E+004  0.1043930E+01  0.7957747E-01            NaN
         13   -1    0    0    0    0  0.00000000000E+00  0.00000000000E+00  0.74505805969E-08  0.10566000000E+00  0.10566000000E+00 0.  1.
     999900   -1    0    0    0    0 -0.00000000000E+00 -0.00000000000E+00 -0.74505805969E-08  0.93827000000E+00  0.93827000000E+00 0.  1.
     999902    2    1    2    0    0 -0.18609336226E-01  0.13387859799E-01  0.53504443005E-02  0.10203891963E+01  0.10201176121E+01 0.  0.
     999903    2    3    3    0    0  0.66307005463E-01  0.74133556850E-01 -0.81162201459E-01  0.13000430050E+00  0.20528321336E-01 0.  0.
         14    1    1    2    0    0  0.18609336226E-01 -0.13387859799E-01 -0.53504443005E-02  0.23540803703E-01  0.00000000000E+00 0. -1.
     999901    1    3    3    0    0 -0.84916341689E-01 -0.60745697050E-01  0.86512645759E-01  0.89038489580E+00  0.88000000000E+00 0. -1.
        -11    1    4    4    0    0  0.13271101525E-01  0.22709567368E-01 -0.12415343285E-01  0.29090349871E-01  0.51100000000E-03 0.  1.
         11    1    4    4    0    0  0.53035903938E-01  0.51423989481E-01 -0.68746858174E-01  0.10091395062E+00  0.51100000000E-03 0. -1.
</event>
<event>
 8    1  0.5489035E+004  0.1043930E+01  0.7957747E-01            NaN
         13   -1    0    0    0    0  0.00000000000E+00  0.00000000000E+00  0.74505805969E-08  0.10566000000E+00  0.10566000000E+00 0.  1.
     999900   -1    0    0    0    0 -0.00000000000E+00 -0.00000000000E+00 -0.74505805969E-08  0.93827000000E+00  0.93827000000E+00 0. -1.
     999902    2    1    2    0    0 -0.96881764734E-02 -0.21205045492E-01  0.42566985559E-02  0.10202311772E+01  0.10199558916E+01 0.  0.
     999903    2    3    3    0    0  0.92526525853E-01  0.32664114161E-01  0.81549772753E-01  0.12931931232E+00  0.21095420416E-01 0.  0.
         14    1    1    2    0    0  0.96881764734E-02  0.21205045492E-01 -0.42566985559E-02  0.23698822762E-01  0.00000000000E+00 0. -1.
     999901    1    3    3    0    0 -0.10221470233E+00 -0.53869159653E-01 -0.77293074197E-01  0.89091186492E+00  0.88000000000E+00 0. -1.
        -11    1    4    4    0    0  0.40810807295E-01  0.44521968175E-02  0.39197527979E-01  0.56763116275E-01  0.51100000000E-03 0. -1.
         11    1    4    4    0    0  0.51715718557E-01  0.28211917343E-01  0.42352244775E-01  0.72556196045E-01  0.51100000000E-03 0.  1.
</event>
<event>
 8    1  0.5489035E+004  0.1043930E+01  0.7957747E-01            NaN
         13   -1    0    0    0    0  0.00000000000E+00  0.00000000000E+00  0.74505805969E-08  0.10566000000E+00  0.10566000000E+00 0.  1.
     999900   -1    0    0    0    0 -0.00000000000E+00 -0.00000000000E+00 -0.74505805969E-08  0.93827000000E+00  0.93827000000E+00 0.  1.
     999902    2    1    2    0    0  0.17890292350E-01  0.14887256117E-01 -0.52788773423E-02  0.10200645542E+01  0.10197853379E+01 0.  0.
     999903    2    3    3    0    0  0.22132567535E-01  0.18728064343E-01 -0.12597528444E+00  0.13180762554E+00  0.25746590476E-01 0.  0.
         14    1    1    2    0    0 -0.17890292350E-01 -0.14887256117E-01  0.52788773423E-02  0.23865445754E-01  0.00000000000E+00 0.  1.
     999901    1    3    3    0    0 -0.42422751850E-02 -0.38408082259E-02  0.12069640710E+00  0.88825692871E+00  0.88000000000E+00 0. -1.
        -11    1    4    4    0    0 -0.25646960398E-03 -0.84773645243E-03 -0.52909878666E-01  0.52919758268E-01  0.51100000000E-03 0.  1.
         11    1    4    4    0    0  0.22389037139E-01  0.19575800795E-01 -0.73065405775E-01  0.78887867272E-01  0.51100000000E-03 0. -1.
</event>
<event>
 8    1  0.5489035E+004  0.1043930E+01  0.7957747E-01            NaN
         13   -1    0    0    0    0  0.00000000000E+00  0.00000000000E+00  0.74505805969E-08  0.10566000000E+00  0.10566000000E+00 0.  1.
     999900   -1    0    0    0    0 -0.00000000000E+00 -0.00000000000E+00 -0.74505805969E-08  0.93827000000E+00  0.93827000000E+00 0.  1.
     999902    2    1    2    0    0  0.14586100712E-02 -0.14639804357E-01 -0.17074633045E-01  0.10213912665E+01  0.10211425585E+01 0.  0.
     999903    2    3    3    0    0 -0.39513311892E-01 -0.12489636182E+00 -0.16708705565E-01  0.13356507811E+00  0.20001155889E-01 0.  0.
         14    1    1    2    0    0 -0.14586100712E-02  0.14639804357E-01  0.17074633045E-01  0.22538733518E-01  0.00000000000E+00 0.  1.
     999901    1    3    3    0    0  0.40971921963E-01  0.11025655746E+00 -0.36592748041E-03  0.88782618837E+00  0.88000000000E+00 0. -1.
        -11    1    4    4    0    0 -0.18795310104E-01 -0.37321208003E-01  0.11973774853E-02  0.41807069767E-01  0.51100000000E-03 0.  1.
         11    1    4    4    0    0 -0.20718001788E-01 -0.87575153817E-01 -0.17906083050E-01  0.91758008345E-01  0.51100000000E-03 0. -1.
</event>
<event>
 8    1  0.5489035E+004  0.1043930E+01  0.7957747E-01            NaN
         13   -1    0    0    0    0  0.00000000000E+00  0.00000000000E+00  0.74505805969E-08  0.10566000000E+00  0.10566000000E+00 0.  1.
     999900   -1    0    0    0    0 -0.00000000000E+00 -0.00000000000E+00 -0.74505805969E-08  0.93827000000E+00  0.93827000000E+00 0. -1.
     999902    2    1    2    0    0  0.63383803047E-02  0.25866347583E-01 -0.59178217353E-02  0.10166488047E+01  0.10162827011E+01 0.  0.
     999903    2    3    3    0    0  0.65938903415E-01  0.41771292795E-01  0.99781817177E-01  0.12817955747E+00  0.19514303165E-01 0.  0.
         14    1    1    2    0    0 -0.63383803047E-02 -0.25866347583E-01  0.59178217353E-02  0.27281195286E-01  0.00000000000E+00 0. -1.
     999901    1    3    3    0    0 -0.59600523110E-01 -0.15904945213E-01 -0.10569963891E+00  0.88846924725E+00  0.88000000000E+00 0. -1.
        -11    1    4    4    0    0  0.52488444638E-01  0.33491328593E-01  0.90504667328E-01  0.10985473062E+00  0.51100000000E-03 0. -1.
         11    1    4    4    0    0  0.13450458777E-01  0.82799642026E-02  0.92771498491E-02  0.18324826843E-01  0.51100000000E-03 0.  1.
</event>
<event>
 8    1  0.5489035E+004  0.1043930E+01  0.7957747E-01            NaN
         13   -1    0    0    0    0  0.00000000000E+00  0.00000000000E+00  0.74505805969E-08  0.10566000000E+00  0.10566000000E+00 0.  1.
     999900   -1    0    0    0    0 -0.00000000000E+00 -0.00000000000E+00 -0.74505805969E-08  0.93827000000E+00  0.93827000000E+00 0.  1.
     999902    2    1    2    0    0  0.19647293867E-01 -0.80772412756E-02 -0.13248542361E-01  0.10188943882E+01  0.10185867624E+01 0.  0.
     999903    2    3    3    0    0 -0.26517233789E-01  0.68830917321E-01  0.10134936263E+00  0.12694219874E+00  0.20044192424E-01 0.  0.
         14    1    1    2    0    0 -0.19647293867E-01  0.80772412756E-02  0.13248542361E-01  0.25035611788E-01  0.00000000000E+00 0.  1.
     999901    1    3    3    0    0  0.46164527655E-01 -0.76908158597E-01 -0.11459790499E+00  0.89195218947E+00  0.88000000000E+00 0.  1.
        -11    1    4    4    0    0 -0.57279167653E-02  0.41068456977E-01  0.60566653614E-01  0.73403050617E-01  0.51100000000E-03 0.  1.
         11    1    4    4    0    0 -0.20789317023E-01  0.27762460344E-01  0.40782709011E-01  0.53539148125E-01  0.51100000000E-03 0. -1.
</event>
<event>
 8    1  0.5489035E+004  0.1043930E+01  0.7957747E-01            NaN
         13   -1    0    0    0    0  0.00000000000E+00  0.00000000000E+00  0.74505805969E-08  0.10566000000E+00  0.10566000000E+00 0.  1.
     999900   -1    0    0    0    0 -0.00000000000E+00 -0.00000000000E+00 -0.74505805969E-08  0.93827000000E+00  0.93827000000E+00 0. -1.
     999902    2    1    2    0    0 -0.58752502938E-03  0.23727791818E-01 -0.52924534082E-02  0.10196120364E+01  0.10193220009E+01 0.  0.
     999903    2    3    3    0    0 -0.38380328562E-02 -0.41843837384E-01 -0.12095621504E+00  0.12961860378E+00  0.20123102783E-01 0.  0.
         14    1    1    2    0    0  0.58752502938E-03 -0.23727791818E-01  0.52924534082E-02  0.24317963593E-01  0.00000000000E+00 0.  1.
     999901    1    3    3    0    0  0.32505078268E-02  0.65571629202E-01  0.11566376164E+00  0.88999343262E+00  0.88000000000E+00 0.  1.
        -11    1    4    4    0    0  0.54492158168E-02 -0.30163743103E-01 -0.67867324141E-01  0.74469995018E-01  0.51100000000E-03 0.  1.
         11    1    4    4    0    0 -0.92872486730E-02 -0.11680094281E-01 -0.53088890904E-01  0.55148608765E-01  0.51100000000E-03 0. -1.
</event>
<event>
 8    1  0.5489035E+004  0.1043930E+01  0.7957747E-01            NaN
         13   -1    0    0    0    0  0.00000000000E+00  0.00000000000E+00  0.74505805969E-08  0.10566000000E+00  0.10566000000E+00 0.  1.
     999900   -1    0    0    0    0 -0.00000000000E+00 -0.00000000000E+00 -0.74505805969E-08  0.93827000000E+00  0.93827000000E+00 0.  1.
     999902    2    1    2    0    0  0.79527621570E-02  0.11343219775E-01 -0.21605460376E-01  0.10182646346E+01  0.10179411354E+01 0.  0.
     999903    2    3    3    0    0 -0.92081262124E-01 -0.46800239829E-01 -0.74856277637E-01  0.12909473106E+00  0.19818324912E-01 0.  0.
         14    1    1    2    0    0 -0.79527621570E-02 -0.11343219775E-01  0.21605460376E-01  0.25665365356E-01  0.00000000000E+00 0.  1.
     999901    1    3    3    0    0  0.10003402428E+00  0.58143459604E-01  0.53250817260E-01  0.88916990359E+00  0.88000000000E+00 0. -1.
        -11    1    4    4    0    0 -0.74294068018E-01 -0.29734401522E-01 -0.51718158357E-01  0.95282591282E-01  0.51100000000E-03 0.  1.
         11    1    4    4    0    0 -0.17787194105E-01 -0.17065838306E-01 -0.23138119279E-01  0.33812139773E-01  0.51100000000E-03 0. -1.
</event>
<event>
 8    1  0.5489035E+004  0.1043930E+01  0.7957747E-01            NaN
         13   -1    0    0    0    0  0.00000000000E+00  0.00000000000E+00  0.74505805969E-08  0.10566000000E+00  0.10566000000E+00 0. -1.
     999900   -1    0    0    0    0 -0.00000000000E+00 -0.00000000000E+00 -0.74505805969E-08  0.93827000000E+00  0.93827000000E+00 0.  1.
     999902    2    1    2    0    0 -0.26154270271E-02  0.22608084608E-01 -0.68364360706E-02  0.10201665237E+01  0.10198897162E+01 0.  0.
     999903    2    3    3    0    0 -0.97594553237E-01  0.24871821631E-01  0.81033727352E-01  0.13070189565E+00  0.19318804937E-01 0.  0.
         14    1    1    2    0    0  0.26154270271E-02 -0.22608084608E-01  0.68364360706E-02  0.23763476310E-01  0.00000000000E+00 0. -1.
     999901    1    3    3    0    0  0.94979126210E-01 -0.22637370225E-02 -0.87870163422E-01  0.88946462804E+00  0.88000000000E+00 0.  1.
        -11    1    4    4    0    0 -0.34400247497E-01 -0.59020552595E-03  0.27967256983E-01  0.44341334605E-01  0.51100000000E-03 0. -1.
         11    1    4    4    0    0 -0.63194305741E-01  0.25462027157E-01  0.53066470368E-01  0.86360561041E-01  0.51100000000E-03 0.  1.
</event>
<event>
 8    1  0.5489035E+004  0.1043930E+01  0.7957747E-01            NaN
         13   -1    0    0    0    0  0.00000000000E+00  0.00000000000E+00  0.74505805969E-08  0.10566000000E+00  0.10566000000E+00 0.  1.
     999900   -1    0    0    0    0 -0.00000000000E+00 -0.00000000000E+00 -0.74505805969E-08  0.93827000000E+00  0.93827000000E+00 0. -1.
     999902    2    1    2    0    0 -0.18122898804E-01 -0.13407731655E-01 -0.14713665193E-02  0.10213385935E+01  0.10210887086E+01 0.  0.
     999903    2    3    3    0    0 -0.94214818259E-01 -0.84792771683E-01  0.39421716020E-01  0.13423203373E+00  0.19947959208E-01 0.  0.
         14    1    1    2    0    0  0.18122898804E-01  0.13407731655E-01  0.14713665193E-02  0.22591406522E-01  0.00000000000E+00 0.  1.
     999901    1    3    3    0    0  0.76091919455E-01  0.71385040027E-01 -0.40893082539E-01  0.88710655975E+00  0.88000000000E+00 0. -1.
        -11    1    4    4    0    0 -0.25790186039E-01 -0.13078601330E-01  0.12590333850E-01  0.31543004551E-01  0.51100000000E-03 0.  1.
         11    1    4    4    0    0 -0.68424632220E-01 -0.71714170353E-01  0.26831382170E-01  0.10268902918E+00  0.51100000000E-03 0. -1.
</event>
<event>
 8    1  0.5489035E+004  0.1043930E+01  0.7957747E-01            NaN
         13   -1    0    0    0    0  0.00000000000E+00  0.00000000000E+00  0.74505805969E-08  0.10566000000E+00  0.10566000000E+00 0. -1.
     999900   -1    0    0    0    0 -0.00000000000E+00 -0.00000000000E+00 -0.74505805969E-08  0.93827000000E+00  0.93827000000E+00 0.  1.
     999902    2    1    2    0    0  0.15070561192E-01 -0.15809722335E-01 -0.81628892180E-02  0.10206125839E+01  0.10203461885E+01 0.  0.
     999903    2    3    3    0    0  0.89381053034E-01 -0.96883221251E-01  0.14131261100E-01  0.13348689347E+00  0.15611757917E-01 0.  0.
         14    1    1    2    0    0 -0.15070561192E-01  0.15809722335E-01  0.81628892180E-02  0.23317416137E-01  0.00000000000E+00 0. -1.
     999901    1    3    3    0    0 -0.74310491843E-01  0.81073498917E-01 -0.22294150318E-01  0.88712569040E+00  0.88000000000E+00 0.  1.
        -11    1    4    4    0    0  0.68922638726E-01 -0.71124556853E-01  0.42361936771E-02  0.99132432504E-01  0.51100000000E-03 0.  1.
         11    1    4    4    0    0  0.20458414309E-01 -0.25758664399E-01  0.98950674225E-02  0.34354460961E-01  0.51100000000E-03 0. -1.
</event>
<event>
 8    1  0.5489035E+004  0.1043930E+01  0.7957747E-01            NaN
         13   -1    0    0    0    0  0.00000000000E+00  0.00000000000E+00  0.74505805969E-08  0.10566000000E+00  0.10566000000E+00 0. -1.
     999900   -1    0    0    0    0 -0.00000000000E+00 -0.00000000000E+00 -0.74505805969E-08  0.93827000000E+00  0.93827000000E+00 0. -1.
     999902    2    1    2    0    0  0.20386057498E-01 -0.48773582377E-02  0.78768395498E-02  0.10215374886E+01  0.10212920327E+01 0.  0.
     999903    2    3    3    0    0 -0.11902858535E+00 -0.46414936411E-01  0.28149672078E-02  0.12958040694E+00  0.21471082211E-01 0.  0.
         14    1    1    2    0    0 -0.20386057498E-01  0.48773582377E-02 -0.78768395498E-02  0.22392511359E-01  0.00000000000E+00 0. -1.
     999901    1    3    3    0    0  0.13941464284E+00  0.41537578173E-01  0.50618723420E-02  0.89195708170E+00  0.88000000000E+00 0.  1.
        -11    1    4    4    0    0 -0.26735045178E-01 -0.18283208294E-01  0.64332032844E-02  0.33025529090E-01  0.51100000000E-03 0. -1.
         11    1    4    4    0    0 -0.92293540169E-01 -0.28131728117E-01 -0.36182360766E-02  0.96554877852E-01  0.51100000000E-03 0.  1.
</event>
<event>
 8    1  0.5489035E+004  0.1043930E+01  0.7957747E-01            NaN
         13   -1    0    0    0    0  0.00000000000E+00  0.00000000000E+00  0.74505805969E-08  0.10566000000E+00  0.10566000000E+00 0. -1.
     999900   -1    0    0    0    0 -0.00000000000E+00 -0.00000000000E+00 -0.74505805969E-08  0.93827000000E+00  0.93827000000E+00 0.  1.
     999902    2    1    2    0    0 -0.13429924431E-01 -0.19901133169E-01  0.92010923518E-03  0.10199036692E+01  0.10196206304E+01 0.  0.
     999903    2    3    3    0    0  0.72430097593E-01 -0.56987452812E-01  0.90238813440E-01  0.13045149542E+00  0.19515644771E-01 0.  0.
         14    1    1    2    0    0  0.13429924431E-01  0.19901133169E-01 -0.92010923518E-03  0.24026330819E-01  0.00000000000E+00 0. -1.
     999901    1    3    3    0    0 -0.85860022024E-01  0.37086319643E-01 -0.89318704205E-01  0.88945217376E+00  0.88000000000E+00 0.  1.
        -11    1    4    4    0    0  0.54880400990E-01 -0.32277006003E-01  0.56876046764E-01  0.85374523987E-01  0.51100000000E-03 0.  1.
         11    1    4    4    0    0  0.17549696603E-01 -0.24710446808E-01  0.33362766676E-01  0.45076971433E-01  0.51100000000E-03 0. -1.
</event>
<event>
 8    1  0.5489035E+004  0.1043930E+01  0.7957747E-01            NaN
         13   -1    0    0    0    0  0.00000000000E+00  0.00000000000E+00  0.74505805969E-08  0.10566000000E+00  0.10566000000E+00 0. -1.
     999900   -1    0    0    0    0 -0.00000000000E+00 -0.00000000000E+00 -0.74505805969E-08  0.93827000000E+00  0.93827000000E+00 0.  1.
     999902    2    1    2    0    0 -0.11493391220E-01  0.50517041616E-02  0.19630750514E-01  0.10206279803E+01  0.10203619407E+01 0.  0.
     999903    2    3    3    0    0  0.12296398390E+00  0.35271047630E-01  0.92959539938E-02  0.12984248285E+00  0.20210577741E-01 0.  0.
         14    1    1    2    0    0  0.11493391220E-01 -0.50517041616E-02 -0.19630750514E-01  0.23302019707E-01  0.00000000000E+00 0.  1.
     999901    1    3    3    0    0 -0.13445737512E+00 -0.30219343468E-01  0.10334796520E-01  0.89078549745E+00  0.88000000000E+00 0. -1.
        -11    1    4    4    0    0  0.42716783711E-01  0.71445898203E-02  0.11375099727E-01  0.44781947134E-01  0.51100000000E-03 0. -1.
         11    1    4    4    0    0  0.80247200192E-01  0.28126457809E-01 -0.20791457330E-02  0.85060535711E-01  0.51100000000E-03 0.  1.
</event>
<event>
 8    1  0.5489035E+004  0.1043930E+01  0.7957747E-01            NaN
         13   -1    0    0    0    0  0.00000000000E+00  0.00000000000E+00  0.74505805969E-08  0.10566000000E+00  0.10566000000E+00 0. -1.
     999900   -1    0    0    0    0 -0.00000000000E+00 -0.00000000000E+00 -0.74505805969E-08  0.93827000000E+00  0.93827000000E+00 0. -1.
     999902    2    1    2    0    0 -0.78604335603E-02 -0.18682276001E-01  0.12920982848E-01  0.10198932438E+01  0.10196099563E+01 0.  0.
     999903    2    3    3    0    0 -0.12084251419E+00 -0.14788120978E-01 -0.43190960539E-01  0.13088893266E+00  0.21091511577E-01 0.  0.
         14    1    1    2    0    0  0.78604335603E-02  0.18682276001E-01 -0.12920982848E-01  0.24036756231E-01  0.00000000000E+00 0.  1.
     999901    1    3    3    0    0  0.11298208063E+00 -0.38941550233E-02  0.56111943387E-01  0.88900431111E+00  0.88000000000E+00 0.  1.
        -11    1    4    4    0    0 -0.15153765454E-01 -0.70175869105E-02 -0.11477935824E-01  0.20270354345E-01  0.51100000000E-03 0. -1.
         11    1    4    4    0    0 -0.10568874874E+00 -0.77705340676E-02 -0.31713024716E-01  0.11061857831E+00  0.51100000000E-03 0.  1.
</event>
<event>
 8    1  0.5489035E+004  0.1043930E+01  0.7957747E-01            NaN
         13   -1    0    0    0    0  0.00000000000E+00  0.00000000000E+00  0.74505805969E-08  0.10566000000E+00  0.10566000000E+00 0. -1.
     999900   -1    0    0    0    0 -0.00000000000E+00 -0.00000000000E+00 -0.74505805969E-08  0.93827000000E+00  0.93827000000E+00 0. -1.
     999902    2    1    2    0    0  0.17677877299E-01  0.11331697370E-01 -0.10842167191E-01  0.10202980872E+01  0.10200243720E+01 0.  0.
     999903    2    3    3    0    0  0.98088269059E-01 -0.80115710111E-01  0.27261395513E-01  0.13109600620E+00  0.20078436775E-01 0.  0.
         14    1    1    2    0    0 -0.17677877299E-01 -0.11331697370E-01  0.10842167191E-01  0.23631912756E-01  0.00000000000E+00 0. -1.
     999901    1    3    3    0    0 -0.80410391760E-01  0.91447407481E-01 -0.38103562705E-01  0.88920208104E+00  0.88000000000E+00 0.  1.
        -11    1    4    4    0    0  0.27233570605E-01 -0.11441792799E-01  0.55512574465E-02  0.30060930967E-01  0.51100000000E-03 0. -1.
         11    1    4    4    0    0  0.70854698454E-01 -0.68673917313E-01  0.21710138067E-01  0.10103507524E+00  0.51100000000E-03 0.  1.
</event>
<event>
 8    1  0.5489035E+004  0.1043930E+01  0.7957747E-01            NaN
         13   -1    0    0    0    0  0.00000000000E+00  0.00000000000E+00  0.74505805969E-08  0.10566000000E+00  0.10566000000E+00 0.  1.
     999900   -1    0    0    0    0 -0.00000000000E+00 -0.00000000000E+00 -0.74505805969E-08  0.93827000000E+00  0.93827000000E+00 0.  1.
     999902    2    1    2    0    0  0.12475624508E-01 -0.36698919165E-02  0.20080486577E-01  0.10200064707E+01  0.10197258774E+01 0.  0.
     999903    2    3    3    0    0 -0.82367917514E-01  0.15048564781E-02 -0.94927927806E-01  0.12745450533E+00  0.21132936925E-01 0.  0.
         14    1    1    2    0    0 -0.12475624508E-01  0.36698919165E-02 -0.20080486577E-01  0.23923529311E-01  0.00000000000E+00 0. -1.
     999901    1    3    3    0    0  0.94843542022E-01 -0.51747483946E-02  0.11500841438E+00  0.89255196536E+00  0.88000000000E+00 0. -1.
        -11    1    4    4    0    0 -0.81647851868E-01  0.39184573057E-02 -0.88212098942E-01  0.12026371665E+00  0.51100000000E-03 0.  1.
         11    1    4    4    0    0 -0.72006564582E-03 -0.24136008276E-02 -0.67158288644E-02  0.71907886790E-02  0.51100000000E-03 0. -1.
</event>
<event>
 8    1  0.5489035E+004  0.1043930E+01  0.7957747E-01            NaN
         13   -1    0    0    0    0  0.00000000000E+00  0.00000000000E+00  0.74505805969E-08  0.10566000000E+00  0.10566000000E+00 0.  1.
     999900   -1    0    0    0    0 -0.00000000000E+00 -0.00000000000E+00 -0.74505805969E-08  0.93827000000E+00  0.93827000000E+00 0. -1.
     999902    2    1    2    0    0 -0.14892833650E-01  0.19594176952E-01  0.50192598007E-02  0.10188118545E+01  0.10185021716E+01 0.  0.
     999903    2    3    3    0    0  0.11340803774E+00  0.27896828073E-01  0.51427309941E-01  0.12825935479E+00  0.12887119253E-01 0.  0.
         14    1    1    2    0    0  0.14892833650E-01 -0.19594176952E-01 -0.50192598007E-02  0.25118145503E-01  0.00000000000E+00 0.  1.
     999901    1    3    3    0    0 -0.12830087139E+00 -0.83026511209E-02 -0.46408050140E-01  0.89055249971E+00  0.88000000000E+00 0. -1.
        -11    1    4    4    0    0  0.72189546290E-01  0.16595064678E-01  0.39173210317E-01  0.83794560042E-01  0.51100000000E-03 0. -1.
         11    1    4    4    0    0  0.41218491452E-01  0.11301763395E-01  0.12254099624E-01  0.44464794748E-01  0.51100000000E-03 0.  1.
</event>
<event>
 8    1  0.5489035E+004  0.1043930E+01  0.7957747E-01            NaN
         13   -1    0    0    0    0  0.00000000000E+00  0.00000000000E+00  0.74505805969E-08  0.10566000000E+00  0.10566000000E+00 0. -1.
     999900   -1    0    0    0    0 -0.00000000000E+00 -0.00000000000E+00 -0.74505805969E-08  0.93827000000E+00  0.93827000000E+00 0. -1.
     999902    2    1    2    0    0  0.19052678476E-01 -0.10894884979E-01 -0.78948783283E-02  0.10206055026E+01  0.10203389436E+01 0.  0.
     999903    2    3    3    0    0  0.19872858667E-01  0.41340428937E-01  0.11966644108E+00  0.12987485254E+00  0.21058457327E-01 0.  0.
         14    1    1    2    0    0 -0.19052678476E-01  0.10894884979E-01  0.78948783283E-02  0.23324497414E-01  0.00000000000E+00 0.  1.
     999901    1    3    3    0    0 -0.82018019087E-03 -0.52235313916E-01 -0.12756131941E+00  0.89073065004E+00  0.88000000000E+00 0. -1.
        -11    1    4    4    0    0  0.10867793585E-02  0.62578892465E-02  0.43236435872E-01  0.43703464109E-01  0.51100000000E-03 0. -1.
         11    1    4    4    0    0  0.18786079308E-01  0.35082539691E-01  0.76430005212E-01  0.86171388434E-01  0.51100000000E-03 0.  1.
</event>
<event>
 8    1  0.5489035E+004  0.1043930E+01  0.7957747E-01            NaN
         13   -1    0    0    0    0  0.00000000000E+00  0.00000000000E+00  0.74505805969E-08  0.10566000000E+00  0.10566000000E+00 0.  1.
     999900   -1    0    0    0    0 -0.00000000000E+00 -0.00000000000E+00 -0.74505805969E-08  0.93827000000E+00  0.93827000000E+00 0.  1.
     999902    2    1    2    0    0 -0.15497772736E-01  0.12928883299E-01 -0.10869987444E-01  0.10210063526E+01  0.10207489792E+01 0.  0.
     999903    2    3    3    0    0  0.46778874466E-01 -0.78005115543E-01 -0.91417192577E-01  0.13048110018E+00  0.19878462206E-01 0.  0.
         14    1    1    2    0    0  0.15497772736E-01 -0.12928883299E-01  0.10869987444E-01  0.22923647401E-01  0.00000000000E+00 0.  1.
     999901    1    3    3    0    0 -0.62276647202E-01  0.90933998842E-01  0.80547205134E-01  0.89052525241E+00  0.88000000000E+00 0. -1.
        -11    1    4    4    0    0  0.49827431538E-02 -0.25077135195E-01 -0.27702503670E-01  0.37701197189E-01  0.51100000000E-03 0.  1.
         11    1    4    4    0    0  0.41796131312E-01 -0.52927980348E-01 -0.63714688907E-01  0.92779902996E-01  0.51100000000E-03 0. -1.
</event>
<event>
 8    1  0.5489035E+004  0.1043930E+01  0.7957747E-01            NaN
         13   -1    0    0    0    0  0.00000000000E+00  0.00000000000E+00  0.74505805969E-08  0.10566000000E+00  0.10566000000E+00 0. -1.
     999900   -1    0    0    0    0 -0.00000000000E+00 -0.00000000000E+00 -0.74505805969E-08  0.93827000000E+00  0.93827000000E+00 0. -1.
     999902    2    1    2    0    0  0.24081134272E-02 -0.19261047460E-01 -0.13170640085E-01  0.10204725338E+01  0.10202028914E+01 0.  0.
     999903    2    3    3    0    0 -0.35806926576E-01 -0.12260895634E+00 -0.32609165082E-01  0.13338796299E+00  0.20344504350E-01 0.  0.
         14    1    1    2    0    0 -0.24081134272E-02  0.19261047460E-01  0.13170640085E-01  0.23457466184E-01  0.00000000000E+00 0. -1.
     999901    1    3    3    0    0  0.38215040004E-01  0.10334790888E+00  0.19438524997E-01  0.88708457083E+00  0.88000000000E+00 0.  1.
        -11    1    4    4    0    0 -0.20049566876E-01 -0.96659582745E-01 -0.21322937689E-01  0.10099499424E+00  0.51100000000E-03 0. -1.
         11    1    4    4    0    0 -0.15757359701E-01 -0.25949373592E-01 -0.11286227393E-01  0.32392968748E-01  0.51100000000E-03 0.  1.
</event>
<event>
 8    1  0.5489035E+004  0.1043930E+01  0.7957747E-01            NaN
         13   -1    0    0    0    0  0.00000000000E+00  0.00000000000E+00  0.74505805969E-08  0.10566000000E+00  0.10566000000E+00 0. -1.
     999900   -1    0    0    0    0 -0.00000000000E+00 -0.00000000000E+00 -0.74505805969E-08  0.93827000000E+00  0.93827000000E+00 0.  1.
     999902    2    1    2    0    0  0.12798532295E-01  0.63685251059E-02 -0.19427290099E-01  0.10198098810E+01  0.10195246016E+01 0.  0.
     999903    2    3    3    0    0 -0.11920715468E-02  0.92690020230E-01  0.87584011543E-01  0.12902452176E+00  0.19583341219E-01 0.  0.
         14    1    1    2    0    0 -0.12798532295E-01 -0.63685251059E-02  0.19427290099E-01  0.24120119020E-01  0.00000000000E+00 0. -1.
     999901    1    3    3    0    0  0.13990603842E-01 -0.86321495124E-01 -0.10701130164E+00  0.89078535922E+00  0.88000000000E+00 0.  1.
        -11    1    4    4    0    0  0.91851496504E-02  0.45203651084E-01  0.42071081659E-01  0.62433757522E-01  0.51100000000E-03 0. -1.
         11    1    4    4    0    0 -0.10377221197E-01  0.47486369146E-01  0.45512929884E-01  0.66590764240E-01  0.51100000000E-03 0.  1.
</event>
<event>
 8    1  0.5489035E+004  0.1043930E+01  0.7957747E-01            NaN
         13   -1    0    0    0    0  0.00000000000E+00  0.00000000000E+00  0.74505805969E-08  0.10566000000E+00  0.10566000000E+00 0.  1.
     999900   -1    0    0    0    0 -0.00000000000E+00 -0.00000000000E+00 -0.74505805969E-08  0.93827000000E+00  0.93827000000E+00 0. -1.
     999902    2    1    2    0    0 -0.53595316883E-02  0.16360362510E-01 -0.17626030913E-01  0.10192913514E+01  0.10189935210E+01 0.  0.
     999903    2    3    3    0    0 -0.74498684776E-01  0.65767738774E-01 -0.85459949908E-01  0.13259932371E+00  0.20092986673E-01 0.  0.
         14    1    1    2    0    0  0.53595316883E-02 -0.16360362510E-01  0.17626030913E-01  0.24638648647E-01  0.00000000000E+00 0.  1.
     999901    1    3    3    0    0  0.69139153088E-01 -0.49407376264E-01  0.67833918994E-01  0.88669202764E+00  0.88000000000E+00 0.  1.
        -11    1    4    4    0    0 -0.33494696151E-01  0.39679193597E-01 -0.52707886530E-01  0.73991320425E-01  0.51100000000E-03 0.  1.
         11    1    4    4    0    0 -0.41003988626E-01  0.26088545177E-01 -0.32752063378E-01  0.58608003286E-01  0.51100000000E-03 0. -1.
</event>
<event>
 8    1  0.5489035E+004  0.1043930E+01  0.7957747E-01            NaN
         13   -1    0    0    0    0  0.00000000000E+00  0.00000000000E+00  0.74505805969E-08  0.10566000000E+00  0.10566000000E+00 0. -1.
     999900   -1    0    0    0    0 -0.00000000000E+00 -0.00000000000E+00 -0.74505805969E-08  0.93827000000E+00  0.93827000000E+00 0.  1.
     999902    2    1    2    0    0 -0.12800541955E-01  0.41583888291E-02 -0.19247364166E-01  0.10204436827E+01  0.10201733688E+01 0.  0.
     999903    2    3    3    0    0 -0.36867947437E-01  0.11843231426E+00  0.37015257850E-01  0.13094761602E+00  0.19791165146E-01 0.  0.
         14    1    1    2    0    0  0.12800541955E-01 -0.41583888291E-02  0.19247364166E-01  0.23486317279E-01  0.00000000000E+00 0. -1.
     999901    1    3    3    0    0  0.24067405482E-01 -0.11427392543E+00 -0.56262622016E-01  0.88949606670E+00  0.88000000000E+00 0.  1.
        -11    1    4    4    0    0 -0.27267884324E-01  0.66375030272E-01  0.29038866000E-01  0.77412524947E-01  0.51100000000E-03 0.  1.
         11    1    4    4    0    0 -0.96000631130E-02  0.52057283991E-01  0.79763918499E-02  0.53535091073E-01  0.51100000000E-03 0. -1.
</event>
<event>
 8    1  0.5489035E+004  0.1043930E+01  0.7957747E-01            NaN
         13   -1    0    0    0    0  0.00000000000E+00  0.00000000000E+00  0.74505805969E-08  0.10566000000E+00  0.10566000000E+00 0.  1.
     999900   -1    0    0    0    0 -0.00000000000E+00 -0.00000000000E+00 -0.74505805969E-08  0.93827000000E+00  0.93827000000E+00 0.  1.
     999902    2    1    2    0    0 -0.22304331929E-01  0.68542523528E-02 -0.57438121611E-02  0.10198996988E+01  0.10196165653E+01 0.  0.
     999903    2    3    3    0    0  0.11440772770E+00 -0.52195664553E-01 -0.17255714739E-02  0.12737898408E+00  0.20221583291E-01 0.  0.
         14    1    1    2    0    0  0.22304331929E-01 -0.68542523528E-02  0.57438121611E-02  0.24030301210E-01  0.00000000000E+00 0.  1.
     999901    1    3    3    0    0 -0.13671205963E+00  0.59049916906E-01 -0.40182406873E-02  0.89252071471E+00  0.88000000000E+00 0.  1.
        -11    1    4    4    0    0  0.54424090482E-01 -0.14029193234E-01  0.12336687284E-02  0.56219062133E-01  0.51100000000E-03 0. -1.
         11    1    4    4    0    0  0.59983637221E-01 -0.38166471320E-01 -0.29592402023E-02  0.71159921943E-01  0.51100000000E-03 0.  1.
</event>
<event>
 7    1  0.5489035E+004  0.1043930E+01  0.7957747E-01            NaN
         13   -1    0    0    0    0  0.00000000000E+00  0.00000000000E+00  0.74505805969E-08  0.10566000000E+00  0.10566000000E+00 0. -1.
     999900   -1    0    0    0    0 -0.00000000000E+00 -0.00000000000E+00 -0.74505805969E-08  0.93827000000E+00  0.93827000000E+00 0.  1.
     999902    2    1    2    0    0 -0.16238018908E-01 -0.52232549582E-02 -0.17491638969E-01  0.10194981952E+01  0.10192054047E+01 0.  0.
         14    1    1    2    0    0  0.16238018908E-01  0.52232549582E-02  0.17491638969E-01  0.24431804768E-01  0.00000000000E+00 0. -1.
     999901    1    3    3    0    0 -0.64593353899E-01 -0.86129574867E-01 -0.95625607364E-01  0.89170334855E+00  0.88000000000E+00 0.  1.
        -11    1    3    3    0    0  0.28200709732E-01  0.62402957051E-01  0.72738951495E-01  0.99903079351E-01  0.51100000000E-03 0. -1.
         11    1    3    3    0    0  0.20154625259E-01  0.18503362857E-01  0.53950169001E-02  0.27891767329E-01  0.51100000000E-03 0.  1.
</event>
<event>
 8    1  0.5489035E+004  0.1043930E+01  0.7957747E-01            NaN
         13   -1    0    0    0    0  0.00000000000E+00  0.00000000000E+00  0.74505805969E-08  0.10566000000E+00  0.10566000000E+00 0.  1.
     999900   -1    0    0    0    0 -0.00000000000E+00 -0.00000000000E+00 -0.74505805969E-08  0.93827000000E+00  0.93827000000E+00 0. -1.
     999902    2    1    2    0    0  0.20426018940E-01 -0.13128131177E-01  0.20784580348E-02  0.10195601402E+01  0.10192688504E+01 0.  0.
     999903    2    3    3    0    0  0.52675609688E-01  0.11444423801E+00 -0.25936133154E-01  0.12933569503E+00  0.13521669175E-01 0.  0.
         14    1    1    2    0    0 -0.20426018940E-01  0.13128131177E-01 -0.20784580348E-02  0.24369859781E-01  0.00000000000E+00 0.  1.
     999901    1    3    3    0    0 -0.32249590748E-01 -0.12757236919E+00  0.28014591189E-01  0.89022444518E+00  0.88000000000E+00 0.  1.
        -11    1    4    4    0    0  0.34175628346E-01  0.58447619194E-01 -0.15140489445E-01  0.69380064168E-01  0.51100000000E-03 0. -1.
         11    1    4    4    0    0  0.18499981342E-01  0.55996618817E-01 -0.10795643709E-01  0.59955630867E-01  0.51100000000E-03 0.  1.
</event>
<event>
 8    1  0.5489035E+004  0.1043930E+01  0.7957747E-01            NaN
         13   -1    0    0    0    0  0.00000000000E+00  0.00000000000E+00  0.74505805969E-08  0.10566000000E+00  0.10566000000E+00 0. -1.
     999900   -1    0    0    0    0 -0.00000000000E+00 -0.00000000000E+00 -0.74505805969E-08  0.93827000000E+00  0.93827000000E+00 0.  1.
     999902    2    1    2    0    0 -0.13538889673E-01  0.17380628649E-01  0.68888855273E-02  0.10208465746E+01  0.10205855595E+01 0.  0.
     999903    2    3    3    0    0 -0.85836782072E-01 -0.38455966396E-02  0.99318838177E-01  0.13280331322E+00  0.19742001284E-01 0.  0.
         14    1    1    2    0    0  0.13538889673E-01 -0.17380628649E-01 -0.68888855273E-02  0.23083425431E-01  0.00000000000E+00 0.  1.
     999901    1    3    3    0    0  0.72297892399E-01  0.21226225288E-01 -0.92429952650E-01  0.88804326135E+00  0.88000000000E+00 0. -1.
        -11    1    4    4    0    0 -0.71558929844E-01  0.41086113840E-02  0.77958681051E-01  0.10590268269E+00  0.51100000000E-03 0. -1.
         11    1    4    4    0    0 -0.14277852228E-01 -0.79542080235E-02  0.21360157126E-01  0.26900630531E-01  0.51100000000E-03 0.  1.
</event>
<event>
 8    1  0.5489035E+004  0.1043930E+01  0.7957747E-01            NaN
         13   -1    0    0    0    0  0.00000000000E+00  0.00000000000E+00  0.74505805969E-08  0.10566000000E+00  0.10566000000E+00 0.  1.
     999900   -1    0    0    0    0 -0.00000000000E+00 -0.00000000000E+00 -0.74505805969E-08  0.93827000000E+00  0.93827000000E+00 0. -1.
     999902    2    1    2    0    0  0.12691819824E-01  0.87974159731E-02  0.16659866730E-01  0.10212137508E+01  0.10209610653E+01 0.  0.
     999903    2    3    3    0    0  0.11159561430E+00  0.28309359571E-01  0.65812632678E-01  0.13409556763E+00  0.19882597106E-01 0.  0.
         14    1    1    2    0    0 -0.12691819824E-01 -0.87974159731E-02 -0.16659866730E-01  0.22716249200E-01  0.00000000000E+00 0. -1.
     999901    1    3    3    0    0 -0.98903794479E-01 -0.19511943598E-01 -0.49152765949E-01  0.88711818317E+00  0.88000000000E+00 0. -1.
        -11    1    4    4    0    0  0.57127490516E-01  0.99775536059E-02  0.43279909414E-01  0.72363757700E-01  0.51100000000E-03 0.  1.
         11    1    4    4    0    0  0.54468123787E-01  0.18331805965E-01  0.22532723264E-01  0.61731809933E-01  0.51100000000E-03 0. -1.
</event>
<event>
 8    1  0.5489035E+004  0.1043930E+01  0.7957747E-01            NaN
         13   -1    0    0    0    0  0.00000000000E+00  0.00000000000E+00  0.74505805969E-08  0.10566000000E+00  0.10566000000E+00 0. -1.
     999900   -1    0    0    0    0 -0.00000000000E+00 -0.00000000000E+00 -0.74505805969E-08  0.93827000000E+00  0.93827000000E+00 0.  1.
     999902    2    1    2    0    0  0.22126949997E-01 -0.87440473442E-02  0.37090992687E-02  0.10198505960E+01  0.10195662904E+01 0.  0.
     999903    2    3    3    0    0 -0.11123953916E-01 -0.12190037509E+00 -0.41619231555E-01  0.13082605488E+00  0.19996309733E-01 0.  0.
         14    1    1    2    0    0 -0.22126949997E-01  0.87440473442E-02 -0.37090992687E-02  0.24079404010E-01  0.00000000000E+00 0. -1.
     999901    1    3    3    0    0  0.33250903913E-01  0.11315632774E+00  0.45328330824E-01  0.88902454111E+00  0.88000000000E+00 0. -1.
        -11    1    4    4    0    0 -0.36938684525E-02 -0.70111112320E-01 -0.13747596326E-01  0.71543485103E-01  0.51100000000E-03 0.  1.
         11    1    4    4    0    0 -0.74300854640E-02 -0.51789262767E-01 -0.27871635230E-01  0.59282569777E-01  0.51100000000E-03 0. -1.
</event>
<event>
 8    1  0.5489035E+004  0.1043930E+01  0.7957747E-01            NaN
         13   -1    0    0    0    0  0.00000000000E+00  0.00000000000E+00  0.74505805969E-08  0.10566000000E+00  0.10566000000E+00 0. -1.
     999900   -1    0    0    0    0 -0.00000000000E+00 -0.00000000000E+00 -0.74505805969E-08  0.93827000000E+00  0.93827000000E+00 0. -1.
     999902    2    1    2    0    0 -0.11802497802E-02 -0.54629489198E-02 -0.23944475956E-01  0.10193418986E+01  0.10190453040E+01 0.  0.
     999903    2    3    3    0    0  0.16580522671E-01 -0.12572508257E+00  0.19274860018E-01  0.12993404121E+00  0.20727390528E-01 0.  0.
         14    1    1    2    0    0  0.11802497802E-02  0.54629489198E-02  0.23944475956E-01  0.24588101375E-01  0.00000000000E+00 0. -1.
     999901    1    3    3    0    0 -0.17760772451E-01  0.12026213365E+00 -0.43219335974E-01  0.88940785741E+00  0.88000000000E+00 0. -1.
        -11    1    4    4    0    0  0.33427842020E-02 -0.38930096700E-01  0.15543627016E-01  0.42054632291E-01  0.51100000000E-03 0. -1.
         11    1    4    4    0    0  0.13237738469E-01 -0.86794985867E-01  0.37312330026E-02  0.87879408920E-01  0.51100000000E-03 0.  1.
</event>
<event>
 8    1  0.5489035E+004  0.1043930E+01  0.7957747E-01            NaN
         13   -1    0    0    0    0  0.00000000000E+00  0.00000000000E+00  0.74505805969E-08  0.10566000000E+00  0.10566000000E+00 0.  1.
     999900   -1    0    0    0    0 -0.00000000000E+00 -0.00000000000E+00 -0.74505805969E-08  0.93827000000E+00  0.93827000000E+00 0.  1.
     999902    2    1    2    0    0 -0.19974213168E-01 -0.53101091449E-02  0.64864936276E-02  0.10222680276E+01  0.10220384920E+01 0.  0.
     999903    2    3    3    0    0 -0.58428663137E-01 -0.10985487186E+00  0.45898116693E-01  0.13437072033E+00  0.21606754000E-01 0.  0.
         14    1    1    2    0    0  0.19974213168E-01  0.53101091449E-02 -0.64864936276E-02  0.21661972449E-01  0.00000000000E+00 0. -1.
     999901    1    3    3    0    0  0.38454449969E-01  0.10454476272E+00 -0.39411623065E-01  0.88789730722E+00  0.88000000000E+00 0. -1.
        -11    1    4    4    0    0 -0.41182138458E-01 -0.94111301416E-01  0.34388384735E-01  0.10833156377E+00  0.51100000000E-03 0.  1.
         11    1    4    4    0    0 -0.17246524679E-01 -0.15743570447E-01  0.11509731958E-01  0.26039156566E-01  0.51100000000E-03 0. -1.
</event>
<event>
 8    1  0.5489035E+004  0.1043930E+01  0.7957747E-01            NaN
         13   -1    0    0    0    0  0.00000000000E+00  0.00000000000E+00  0.74505805969E-08  0.10566000000E+00  0.10566000000E+00 0.  1.
     999900   -1    0    0    0    0 -0.00000000000E+00 -0.00000000000E+00 -0.74505805969E-08  0.93827000000E+00  0.93827000000E+00 0. -1.
     999902    2    1    2    0    0  0.18095721847E-01  0.87069313977E-02  0.13758174575E-01  0.10195875849E+01  0.10192969588E+01 0.  0.
     999903    2    3    3    0    0  0.94408910808E-01  0.90500703754E-01  0.40319743449E-02  0.13245257662E+00  0.20591464654E-01 0.  0.
         14    1    1    2    0    0 -0.18095721847E-01 -0.87069313977E-02 -0.13758174575E-01  0.24342415065E-01  0.00000000000E+00 0.  1.
     999901    1    3    3    0    0 -0.76313188960E-01 -0.81793772356E-01  0.97262002301E-02  0.88713500831E+00  0.88000000000E+00 0.  1.
        -11    1    4    4    0    0  0.46941235415E-01  0.51243812633E-01  0.11360658807E-01  0.70418276072E-01  0.51100000000E-03 0.  1.
         11    1    4    4    0    0  0.47467675393E-01  0.39256891121E-01 -0.73286844617E-02  0.62034300550E-01  0.51100000000E-03 0. -1.
</event>
<event>
 8    1  0.5489035E+004  0.1043930E+01  0.7957747E-01            NaN
         13   -1    0    0    0    0  0.00000000000E+00  0.00000000000E+00  0.74505805969E-08  0.10566000000E+00  0.10566000000E+00 0. -1.
     999900   -1    0    0    0    0 -0.00000000000E+00 -0.00000000000E+00 -0.74505805969E-08  0.93827000000E+00  0.93827000000E+00 0. -1.
     999902    2    1    2    0    0  0.18413808227E-01  0.51022786543E-02  0.12615707253E-01  0.10210333267E+01  0.10207765654E+01 0.  0.
     999903    2    3    3    0    0 -0.10807278241E+00  0.59810704148E-01 -0.32528957991E-01  0.12916455254E+00  0.19191193194E-01 0.  0.
         14    1    1    2    0    0 -0.18413808227E-01 -0.51022786543E-02 -0.12615707253E-01  0.22896673347E-01  0.00000000000E+00 0. -1.
     999901    1    3    3    0    0  0.12648659064E+00 -0.54708425493E-01  0.45144665243E-01  0.89186877411E+00  0.88000000000E+00 0.  1.
        -11    1    4    4    0    0 -0.85575120411E-01  0.44869930021E-01 -0.17323275169E-01  0.98167045576E-01  0.51100000000E-03 0.  1.
         11    1    4    4    0    0 -0.22497662004E-01  0.14940774127E-01 -0.15205682821E-01  0.30997506968E-01  0.51100000000E-03 0. -1.
</event>
<event>
 8    1  0.5489035E+004  0.1043930E+01  0.7957747E-01            NaN
         13   -1    0    0    0    0  0.00000000000E+00  0.00000000000E+00  0.74505805969E-08  0.10566000000E+00  0.10566000000E+00 0.  1.
     999900   -1    0    0    0    0 -0.00000000000E+00 -0.00000000000E+00 -0.74505805969E-08  0.93827000000E+00  0.93827000000E+00 0.  1.
     999902    2    1    2    0    0 -0.19832995913E-02 -0.15339264692E-01 -0.19819363013E-01  0.10187897202E+01  0.10184794845E+01 0.  0.
     999903    2    3    3    0    0 -0.45548741069E-01  0.11741304429E+00 -0.74427986755E-02  0.12768125172E+00  0.19662044819E-01 0.  0.
         14    1    1    2    0    0  0.19832995913E-02  0.15339264692E-01  0.19819363013E-01  0.25140279807E-01  0.00000000000E+00 0.  1.
     999901    1    3    3    0    0  0.43565441478E-01 -0.13275230899E+00 -0.12376564337E-01  0.89110846847E+00  0.88000000000E+00 0.  1.
        -11    1    4    4    0    0 -0.15593616475E-01  0.20958850340E-01 -0.52890211698E-02  0.26658378576E-01  0.51100000000E-03 0. -1.
         11    1    4    4    0    0 -0.29955124594E-01  0.96454193953E-01 -0.21537775057E-02  0.10102287315E+00  0.51100000000E-03 0.  1.
</event>
<event>
 8    1  0.5489035E+004  0.1043930E+01  0.7957747E-01            NaN
         13   -1    0    0    0    0  0.00000000000E+00  0.00000000000E+00  0.74505805969E-08  0.10566000000E+00  0.10566000000E+00 0.  1.
     999900   -1    0    0    0    0 -0.00000000000E+00 -0.00000000000E+00 -0.74505805969E-08  0.93827000000E+00  0.93827000000E+00 0.  1.
     999902    2    1    2    0    0 -0.10245324252E-01  0.18840141547E-01 -0.58142651364E-02  0.10217101152E+01  0.10214684705E+01 0.  0.
     999903    2    3    3    0    0  0.12542097954E+00 -0.10172031128E-01  0.27214256992E-01  0.13022936080E+00  0.19625959950E-01 0.  0.
         14    1    1    2    0    0  0.10245324252E-01 -0.18840141547E-01  0.58142651364E-02  0.22219884824E-01  0.00000000000E+00 0. -1.
     999901    1    3    3    0    0 -0.13566630379E+00  0.29012172675E-01 -0.33028522129E-01  0.89148075438E+00  0.88000000000E+00 0.  1.
        -11    1    4    4    0    0  0.58850925439E-01 -0.16918967277E-02  0.32430180922E-02  0.58966704392E-01  0.51100000000E-03 0.  1.
         11    1    4    4    0    0  0.66570054104E-01 -0.84801344001E-02  0.23971238900E-01  0.71262656408E-01  0.51100000000E-03 0. -1.
</event>
<event>
 8    1  0.5489035E+004  0.1043930E+01  0.7957747E-01            NaN
         13   -1    0    0    0    0  0.00000000000E+00  0.00000000000E+00  0.74505805969E-08  0.10566000000E+00  0.10566000000E+00 0.  1.
     999900   -1    0    0    0    0 -0.00000000000E+00 -0.00000000000E+00 -0.74505805969E-08  0.93827000000E+00  0.93827000000E+00 0.  1.
     999902    2    1    2    0    0  0.37954068284E-02  0.69220282698E-02 -0.23216671174E-01  0.10194078996E+01  0.10191129144E+01 0.  0.
     999903    2    3    3    0    0  0.52150863344E-01  0.10130925323E+00  0.57707467066E-01  0.12935401663E+00  0.20470283961E-01 0.  0.
         14    1    1    2    0    0 -0.37954068284E-02 -0.69220282698E-02  0.23216671174E-01  0.24522100415E-01  0.00000000000E+00 0.  1.
     999901    1    3    3    0    0 -0.48355456515E-01 -0.94387224962E-01 -0.80924138240E-01  0.89005388295E+00  0.88000000000E+00 0.  1.
        -11    1    4    4    0    0  0.74849881706E-02  0.25819839063E-01  0.60572050485E-02  0.27561567284E-01  0.51100000000E-03 0.  1.
         11    1    4    4    0    0  0.44665875173E-01  0.75489414169E-01  0.51650262018E-01  0.10179244935E+00  0.51100000000E-03 0. -1.
</event>
<event>
 8    1  0.5489035E+004  0.1043930E+01  0.7957747E-01            NaN
         13   -1    0    0    0    0  0.00000000000E+00  0.00000000000E+00  0.74505805969E-08  0.10566000000E+00  0.10566000000E+00 0. -1.
     999900   -1    0    0    0    0 -0.00000000000E+00 -0.00000000000E+00 -0.74505805969E-08  0.93827000000E+00  0.93827000000E+00 0. -1.
     999902    2    1    2    0    0 -0.25644809432E-01  0.89687017725E-02 -0.54823464425E-02  0.10162144812E+01  0.10158364641E+01 0.  0.
     999903    2    3    3    0    0  0.62128705130E-01 -0.97209074947E-01  0.38425315618E-01  0.12441529248E+00  0.26326410134E-01 0.  0.
         14    1    1    2    0    0  0.25644809432E-01 -0.89687017725E-02  0.54823464425E-02  0.27715518844E-01  0.00000000000E+00 0.  1.
     999901    1    3    3    0    0 -0.87773514561E-01  0.10617777672E+00 -0.43907662061E-01  0.89179918867E+00  0.88000000000E+00 0.  1.
        -11    1    4    4    0    0  0.34064707151E-01 -0.74584783002E-01  0.30624547133E-01  0.87529527229E-01  0.51100000000E-03 0. -1.
         11    1    4    4    0    0  0.28063997979E-01 -0.22624291945E-01  0.78007684847E-02  0.36885765256E-01  0.51100000000E-03 0.  1.
</event>
<event>
 8    1  0.5489035E+004  0.1043930E+01  0.7957747E-01            NaN
         13   -1    0    0    0    0  0.00000000000E+00  0.00000000000E+00  0.74505805969E-08  0.10566000000E+00  0.10566000000E+00 0. -1.
     999900   -1    0    0    0    0 -0.00000000000E+00 -0.00000000000E+00 -0.74505805969E-08  0.93827000000E+00  0.93827000000E+00 0. -1.
     999902    2    1    2    0    0  0.15294984398E-01  0.21667261818E-01 -0.20286518846E-02  0.10173307103E+01  0.10169829163E+01 0.  0.
     999903    2    3    3    0    0  0.56140093426E-01 -0.10663003025E+00  0.28211359425E-01  0.12657654875E+00  0.26534288258E-01 0.  0.
         14    1    1    2    0    0 -0.15294984398E-01 -0.21667261818E-01  0.20286518846E-02  0.26599289669E-01  0.00000000000E+00 0. -1.
     999901    1    3    3    0    0 -0.40845109028E-01  0.12829729207E+00 -0.30240011310E-01  0.89075416158E+00  0.88000000000E+00 0. -1.
        -11    1    4    4    0    0  0.22131929171E-01 -0.26840657509E-01 -0.16837069468E-02  0.34833018451E-01  0.51100000000E-03 0. -1.
         11    1    4    4    0    0  0.34008164255E-01 -0.79789372739E-01  0.29895066372E-01  0.91743530303E-01  0.51100000000E-03 0.  1.
</event>
<event>
 8    1  0.5489035E+004  0.1043930E+01  0.7957747E-01            NaN
         13   -1    0    0    0    0  0.00000000000E+00  0.00000000000E+00  0.74505805969E-08  0.10566000000E+00  0.10566000000E+00 0. -1.
     999900   -1    0    0    0    0 -0.00000000000E+00 -0.00000000000E+00 -0.74505805969E-08  0.93827000000E+00  0.93827000000E+00 0.  1.
     999902    2    1    2    0    0  0.72618959491E-02 -0.10520341578E-01 -0.19120805405E-01  0.10209296105E+01  0.10206704912E+01 0.  0.
     999903    2    3    3    0    0  0.12358551667E-01  0.16707919847E-01  0.12547725521E+00  0.12869872484E+00  0.19670582485E-01 0.  0.
         14    1    1    2    0    0 -0.72618959491E-02  0.10520341578E-01  0.19120805405E-01  0.23000389541E-01  0.00000000000E+00 0. -1.
     999901    1    3    3    0    0 -0.50966557177E-02 -0.27228261425E-01 -0.14459806062E+00  0.89223088562E+00  0.88000000000E+00 0.  1.
        -11    1    4    4    0    0  0.11037446449E-01  0.37177761480E-03  0.69334976888E-01  0.70210850898E-01  0.51100000000E-03 0.  1.
         11    1    4    4    0    0  0.13211052175E-02  0.16336142232E-01  0.56142278322E-01  0.58487873942E-01  0.51100000000E-03 0. -1.
</event>
<event>
 8    1  0.5489035E+004  0.1043930E+01  0.7957747E-01            NaN
         13   -1    0    0    0    0  0.00000000000E+00  0.00000000000E+00  0.74505805969E-08  0.10566000000E+00  0.10566000000E+00 0. -1.
     999900   -1    0    0    0    0 -0.00000000000E+00 -0.00000000000E+00 -0.74505805969E-08  0.93827000000E+00  0.93827000000E+00 0. -1.
     999902    2    1    2    0    0  0.15343589096E-02  0.23493882197E-01  0.62769680631E-02  0.10195636895E+01  0.10192724856E+01 0.  0.
     999903    2    3    3    0    0  0.76731865607E-01 -0.33775046841E-01  0.95516221529E-01  0.13001434317E+00  0.27419844387E-01 0.  0.
         14    1    1    2    0    0 -0.15343589096E-02 -0.23493882197E-01 -0.62769680631E-02  0.24366310472E-01  0.00000000000E+00 0. -1.
     999901    1    3    3    0    0 -0.75197506697E-01  0.57268929038E-01 -0.89239253466E-01  0.88954934636E+00  0.88000000000E+00 0. -1.
        -11    1    4    4    0    0  0.45672451844E-01 -0.82314884142E-02  0.63263493874E-01  0.78461844467E-01  0.51100000000E-03 0.  1.
         11    1    4    4    0    0  0.31059413763E-01 -0.25543558427E-01  0.32252727654E-01  0.51552498703E-01  0.51100000000E-03 0. -1.
</event>
<event>
 7    1  0.5489035E+004  0.1043930E+01  0.7957747E-01            NaN
         13   -1    0    0    0    0  0.00000000000E+00  0.00000000000E+00  0.74505805969E-08  0.10566000000E+00  0.10566000000E+00 0. -1.
     999900   -1    0    0    0    0 -0.00000000000E+00 -0.00000000000E+00 -0.74505805969E-08  0.93827000000E+00  0.93827000000E+00 0.  1.
     999903    2    1    2    0    0  0.41006268987E-01 -0.65479592418E-01 -0.30347698858E-01  0.85338509539E-01  0.19813815004E-01 0.  0.
         14    1    1    2    0    0  0.14287865784E-01  0.25774970284E-01 -0.64467861260E-01  0.70884394173E-01  0.00000000000E+00 0.  1.
     999901    1    1    2    0    0 -0.55294134771E-01  0.39704622134E-01  0.94815560119E-01  0.88770709629E+00  0.88000000000E+00 0. -1.
        -11    1    3    3    0    0  0.85019979990E-02 -0.24427102639E-01 -0.18063739023E-01  0.31551974610E-01  0.51100000000E-03 0. -1.
         11    1    3    3    0    0  0.32504270988E-01 -0.41052489779E-01 -0.12283959836E-01  0.53786534929E-01  0.51100000000E-03 0.  1.
</event>
<event>
 8    1  0.5489035E+004  0.1043930E+01  0.7957747E-01            NaN
         13   -1    0    0    0    0  0.00000000000E+00  0.00000000000E+00  0.74505805969E-08  0.10566000000E+00  0.10566000000E+00 0.  1.
     999900   -1    0    0    0    0 -0.00000000000E+00 -0.00000000000E+00 -0.74505805969E-08  0.93827000000E+00  0.93827000000E+00 0.  1.
     999902    2    1    2    0    0 -0.19317568384E-01 -0.11972462641E-01 -0.71697273023E-02  0.10200990684E+01  0.10198206686E+01 0.  0.
     999903    2    3    3    0    0 -0.16113146114E-01 -0.68310979543E-01  0.10840774856E+00  0.13074961533E+00  0.20425438952E-01 0.  0.
         14    1    1    2    0    0  0.19317568384E-01  0.11972462641E-01  0.71697273023E-02  0.23830931571E-01  0.00000000000E+00 0. -1.
     999901    1    3    3    0    0 -0.32044222703E-02  0.56338516901E-01 -0.11557747586E+00  0.88934945310E+00  0.88000000000E+00 0.  1.
        -11    1    4    4    0    0 -0.18136898852E-01 -0.48337526090E-01  0.65731659683E-01  0.83584542436E-01  0.51100000000E-03 0. -1.
         11    1    4    4    0    0  0.20237527382E-02 -0.19973453452E-01  0.42676088876E-01  0.47165072889E-01  0.51100000000E-03 0.  1.
</event>
<event>
 8    1  0.5489035E+004  0.1043930E+01  0.7957747E-01            NaN
         13   -1    0    0    0    0  0.00000000000E+00  0.00000000000E+00  0.74505805969E-08  0.10566000000E+00  0.10566000000E+00 0. -1.
     999900   -1    0    0    0    0 -0.00000000000E+00 -0.00000000000E+00 -0.74505805969E-08  0.93827000000E+00  0.93827000000E+00 0. -1.
     999902    2    1    2    0    0 -0.47313826371E-02 -0.11557624040E-01 -0.21421857900E-01  0.10191336162E+01  0.10188319130E+01 0.  0.
     999903    2    3    3    0    0  0.25444352655E-01 -0.62129400175E-01  0.10674963806E+00  0.12790075551E+00  0.21345739291E-01 0.  0.
         14    1    1    2    0    0  0.47313826371E-02  0.11557624040E-01  0.21421857900E-01  0.24796383829E-01  0.00000000000E+00 0. -1.
     999901    1    3    3    0    0 -0.30175735292E-01  0.50571776135E-01 -0.12817149596E+00  0.89123286066E+00  0.88000000000E+00 0. -1.
        -11    1    4    4    0    0  0.20278570460E-02 -0.19473580275E-01  0.17587754298E-01  0.26323425977E-01  0.51100000000E-03 0. -1.
         11    1    4    4    0    0  0.23416495609E-01 -0.42655819900E-01  0.89161883764E-01  0.10157732953E+00  0.51100000000E-03 0.  1.
</event>
<event>
 8    1  0.5489035E+004  0.1043930E+01  0.7957747E-01            NaN
         13   -1    0    0    0    0  0.00000000000E+00  0.00000000000E+00  0.74505805969E-08  0.10566000000E+00  0.10566000000E+00 0.  1.
     999900   -1    0    0    0    0 -0.00000000000E+00 -0.00000000000E+00 -0.74505805969E-08  0.93827000000E+00  0.93827000000E+00 0. -1.
     999902    2    1    2    0    0  0.11217144401E-01  0.12163729607E-01  0.14188482858E-01  0.10221333559E+01  0.10219009265E+01 0.  0.
     999903    2    3    3    0    0  0.92620195393E-01 -0.90840182671E-01  0.12904235235E-01  0.13239299384E+00  0.23042268747E-01 0.  0.
         14    1    1    2    0    0 -0.11217144401E-01 -0.12163729607E-01 -0.14188482858E-01  0.21796644060E-01  0.00000000000E+00 0. -1.
     999901    1    3    3    0    0 -0.81403050992E-01  0.10300391228E+00  0.12842476233E-02  0.88974036210E+00  0.88000000000E+00 0. -1.
        -11    1    4    4    0    0  0.42002473279E-01 -0.30592477973E-01  0.13539201876E-01  0.53699893654E-01  0.51100000000E-03 0.  1.
         11    1    4    4    0    0  0.50617722114E-01 -0.60247704698E-01 -0.63496664143E-03  0.78693100187E-01  0.51100000000E-03 0. -1.
</event>
<event>
 8    1  0.5489035E+004  0.1043930E+01  0.7957747E-01            NaN
         13   -1    0    0    0    0  0.00000000000E+00  0.00000000000E+00  0.74505805969E-08  0.10566000000E+00  0.10566000000E+00 0.  1.
     999900   -1    0    0    0    0 -0.00000000000E+00 -0.00000000000E+00 -0.74505805969E-08  0.93827000000E+00  0.93827000000E+00 0. -1.
     999902    2    1    2    0    0  0.30936161888E-01  0.35331893513E-03  0.83626128427E-02  0.10118815330E+01  0.10113738836E+01 0.  0.
     999903    2    3    3    0    0 -0.94682907144E-01 -0.27523599578E-01 -0.64479494966E-01  0.11954569608E+00  0.20277246898E-01 0.  0.
         14    1    1    2    0    0 -0.30936161888E-01 -0.35331893513E-03 -0.83626128427E-02  0.32048467049E-01  0.00000000000E+00 0. -1.
     999901    1    3    3    0    0  0.12561906903E+00  0.27876918513E-01  0.72842107809E-01  0.89233583687E+00  0.88000000000E+00 0.  1.
        -11    1    4    4    0    0 -0.34425812474E-01 -0.53054007357E-02 -0.12810122643E-01  0.37116629758E-01  0.51100000000E-03 0. -1.
         11    1    4    4    0    0 -0.60257094670E-01 -0.22218198842E-01 -0.51669372323E-01  0.82429066324E-01  0.51100000000E-03 0.  1.
</event>
<event>
 8    1  0.5489035E+004  0.1043930E+01  0.7957747E-01            NaN
         13   -1    0    0    0    0  0.00000000000E+00  0.00000000000E+00  0.74505805969E-08  0.10566000000E+00  0.10566000000E+00 0.  1.
     999900   -1    0    0    0    0 -0.00000000000E+00 -0.00000000000E+00 -0.74505805969E-08  0.93827000000E+00  0.93827000000E+00 0.  1.
     999902    2    1    2    0    0  0.33003312190E-02 -0.23713404952E-01  0.19608099326E-02  0.10199078740E+01  0.10196249354E+01 0.  0.
     999903    2    3    3    0    0  0.46842213289E-01 -0.21776814446E-01  0.11889600993E+00  0.13110334722E+00  0.19580701790E-01 0.  0.
         14    1    1    2    0    0 -0.33003312190E-02  0.23713404952E-01 -0.19608099326E-02  0.24022125971E-01  0.00000000000E+00 0. -1.
     999901    1    3    3    0    0 -0.43541882070E-01 -0.19365905057E-02 -0.11693520000E+00  0.88880452681E+00  0.88000000000E+00 0.  1.
        -11    1    4    4    0    0  0.20288159081E-01 -0.73530458961E-02  0.28257223005E-01  0.35558521564E-01  0.51100000000E-03 0.  1.
         11    1    4    4    0    0  0.26554054208E-01 -0.14423768550E-01  0.90638786923E-01  0.95544825657E-01  0.51100000000E-03 0. -1.
</event>
<event>
 8    1  0.5489035E+004  0.1043930E+01  0.7957747E-01            NaN
         13   -1    0    0    0    0  0.00000000000E+00  0.00000000000E+00  0.74505805969E-08  0.10566000000E+00  0.10566000000E+00 0.  1.
     999900   -1    0    0    0    0 -0.00000000000E+00 -0.00000000000E+00 -0.74505805969E-08  0.93827000000E+00  0.93827000000E+00 0. -1.
     999902    2    1    2    0    0 -0.10725189716E-01  0.15392865454E-01 -0.13703464910E-01  0.10206973731E+01  0.10204329339E+01 0.  0.
     999903    2    3    3    0    0 -0.67610281948E-01  0.60500282326E-01 -0.96238956737E-01  0.13385877439E+00  0.20610684162E-01 0.  0.
         14    1    1    2    0    0  0.10725189716E-01 -0.15392865454E-01  0.13703464910E-01  0.23232626883E-01  0.00000000000E+00 0.  1.
     999901    1    3    3    0    0  0.56885092233E-01 -0.45107416872E-01  0.82535491828E-01  0.88683859872E+00  0.88000000000E+00 0. -1.
        -11    1    4    4    0    0 -0.17359235349E-01  0.59786573229E-02 -0.25103709107E-01  0.31105381001E-01  0.51100000000E-03 0.  1.
         11    1    4    4    0    0 -0.50251046599E-01  0.54521625003E-01 -0.71135247631E-01  0.10275339339E+00  0.51100000000E-03 0. -1.
</event>
<event>
 8    1  0.5489035E+004  0.1043930E+01  0.7957747E-01            NaN
         13   -1    0    0    0    0  0.00000000000E+00  0.00000000000E+00  0.74505805969E-08  0.10566000000E+00  0.10566000000E+00 0.  1.
     999900   -1    0    0    0    0 -0.00000000000E+00 -0.00000000000E+00 -0.74505805969E-08  0.93827000000E+00  0.93827000000E+00 0.  1.
     999902    2    1    2    0    0  0.83256062184E-02  0.20779901787E-01  0.75089624703E-02  0.10203184656E+01  0.10200452278E+01 0.  0.
     999903    2    3    3    0    0  0.69264920897E-01  0.84157788907E-01  0.74294963588E-01  0.13341896368E+00  0.20017880833E-01 0.  0.
         14    1    1    2    0    0 -0.83256062184E-02 -0.20779901787E-01 -0.75089624703E-02  0.23611534354E-01  0.00000000000E+00 0. -1.
     999901    1    3    3    0    0 -0.60939314679E-01 -0.63377887120E-01 -0.66786001118E-01  0.88689950197E+00  0.88000000000E+00 0.  1.
        -11    1    4    4    0    0  0.25654521200E-01  0.24979343183E-01  0.14409276600E-01  0.38600653065E-01  0.51100000000E-03 0. -1.
         11    1    4    4    0    0  0.43610399697E-01  0.59178445724E-01  0.59885686989E-01  0.94818310611E-01  0.51100000000E-03 0.  1.
</event>
<event>
 8    1  0.5489035E+004  0.1043930E+01  0.7957747E-01            NaN
         13   -1    0    0    0    0  0.00000000000E+00  0.00000000000E+00  0.74505805969E-08  0.10566000000E+00  0.10566000000E+00 0.  1.
     999900   -1    0    0    0    0 -0.00000000000E+00 -0.00000000000E+00 -0.74505805969E-08  0.93827000000E+00  0.93827000000E+00 0.  1.
     999902    2    1    2    0    0 -0.85203081151E-03 -0.25593623651E-02  0.20876260820E-01  0.10228801886E+01  0.10226635741E+01 0.  0.
     999903    2    3    3    0    0 -0.11094706478E+00 -0.66269245691E-01 -0.22516284018E-01  0.13267640373E+00  0.19879158709E-01 0.  0.
         14    1    1    2    0    0  0.85203081151E-03  0.25593623651E-02 -0.20876260820E-01  0.21049811354E-01  0.00000000000E+00 0. -1.
     999901    1    3    3    0    0  0.11009503397E+00  0.63709883326E-01  0.43392544838E-01  0.89020378492E+00  0.88000000000E+00 0. -1.
        -11    1    4    4    0    0 -0.29052993932E-01 -0.27224490278E-01 -0.34501278104E-02  0.39967659804E-01  0.51100000000E-03 0. -1.
         11    1    4    4    0    0 -0.81894070852E-01 -0.39044755413E-01 -0.19066156208E-01  0.92708743922E-01  0.51100000000E-03 0.  1.
</event>
<event>
 8    1  0.5489035E+004  0.1043930E+01  0.7957747E-01            NaN
         13   -1    0    0    0    0  0.00000000000E+00  0.00000000000E+00  0.74505805969E-08  0.10566000000E+00  0.10566000000E+00 0.  1.
     999900   -1    0    0    0    0 -0.00000000000E+00 -0.00000000000E+00 -0.74505805969E-08  0.93827000000E+00  0.93827000000E+00 0.  1.
     999902    2    1    2    0    0  0.11541884140E-01 -0.17516854455E-01 -0.12321123623E-01  0.10196017167E+01  0.10193114320E+01 0.  0.
     999903    2    3    3    0    0 -0.57889133870E-01 -0.74742505957E-01  0.86235211809E-01  0.12954059933E+00  0.20165839991E-01 0.  0.
         14    1    1    2    0    0 -0.11541884140E-01  0.17516854455E-01  0.12321123623E-01  0.24328283269E-01  0.00000000000E+00 0.  1.
     999901    1    3    3    0    0  0.69431018010E-01  0.57225651501E-01 -0.98556335432E-01  0.89006111740E+00  0.88000000000E+00 0.  1.
        -11    1    4    4    0    0 -0.29241672476E-01 -0.43390491997E-01  0.34826201005E-01  0.62856468262E-01  0.51100000000E-03 0. -1.
         11    1    4    4    0    0 -0.28647461394E-01 -0.31352013960E-01  0.51409010805E-01  0.66684131070E-01  0.51100000000E-03 0.  1.
</event>
<event>
 8    1  0.5489035E+004  0.1043930E+01  0.7957747E-01            NaN
         13   -1    0    0    0    0  0.00000000000E+00  0.00000000000E+00  0.74505805969E-08  0.10566000000E+00  0.10566000000E+00 0. -1.
     999900   -1    0    0    0    0 -0.00000000000E+00 -0.00000000000E+00 -0.74505805969E-08  0.93827000000E+00  0.93827000000E+00 0. -1.
     999902    2    1    2    0    0  0.19432332514E-01  0.47233659343E-02 -0.12144650312E-01  0.10205330287E+01  0.10202647914E+01 0.  0.
     999903    2    3    3    0    0  0.19004258107E-01  0.44609076216E-01  0.11879075696E+00  0.12995168265E+00  0.20617089488E-01 0.  0.
         14    1    1    2    0    0 -0.19432332514E-01 -0.47233659343E-02  0.12144650312E-01  0.23396971254E-01  0.00000000000E+00 0.  1.
     999901    1    3    3    0    0  0.42807440659E-03 -0.39885710282E-01 -0.13093540727E+00  0.89058134609E+00  0.88000000000E+00 0. -1.
        -11    1    4    4    0    0  0.79410132463E-02  0.17689155026E-02  0.23881775800E-01  0.25234680299E-01  0.51100000000E-03 0. -1.
         11    1    4    4    0    0  0.11063244861E-01  0.42840160714E-01  0.94908981156E-01  0.10471700235E+00  0.51100000000E-03 0.  1.
</event>
<event>
 8    1  0.5489035E+004  0.1043930E+01  0.7957747E-01            NaN
         13   -1    0    0    0    0  0.00000000000E+00  0.00000000000E+00  0.74505805969E-08  0.10566000000E+00  0.10566000000E+00 0.  1.
     999900   -1    0    0    0    0 -0.00000000000E+00 -0.00000000000E+00 -0.74505805969E-08  0.93827000000E+00  0.93827000000E+00 0.  1.
     999902    2    1    2    0    0 -0.15083524460E-01  0.12794323324E-01  0.13180422923E-01  0.10201617235E+01  0.10198848029E+01 0.  0.
     999903    2    3    3    0    0 -0.10065906596E+00  0.23576799424E-01 -0.78319169024E-01  0.13122324958E+00  0.19938303900E-01 0.  0.
         14    1    1    2    0    0  0.15083524460E-01 -0.12794323324E-01 -0.13180422923E-01  0.23768276502E-01  0.00000000000E+00 0.  1.
     999901    1    3    3    0    0  0.85575541495E-01 -0.10782476100E-01  0.91499591947E-01  0.88893847392E+00  0.88000000000E+00 0. -1.
        -11    1    4    4    0    0 -0.30004773754E-01 -0.27338549770E-03 -0.29564756190E-01  0.42127154156E-01  0.51100000000E-03 0.  1.
         11    1    4    4    0    0 -0.70654292201E-01  0.23850184922E-01 -0.48754412834E-01  0.89096095419E-01  0.51100000000E-03 0. -1.
</event>
<event>
 8    1  0.5489035E+004  0.1043930E+01  0.7957747E-01            NaN
         13   -1    0    0    0    0  0.00000000000E+00  0.00000000000E+00  0.74505805969E-08  0.10566000000E+00  0.10566000000E+00 0. -1.
     999900   -1    0    0    0    0 -0.00000000000E+00 -0.00000000000E+00 -0.74505805969E-08  0.93827000000E+00  0.93827000000E+00 0. -1.
     999902    2    1    2    0    0  0.25335723495E-03  0.11744751747E-01 -0.20446885783E-01  0.10203486828E+01  0.10200761520E+01 0.  0.
     999903    2    3    3    0    0 -0.14173541958E-01  0.40084263695E-01 -0.12533751491E+00  0.13354920859E+00  0.17839870601E-01 0.  0.
         14    1    1    2    0    0 -0.25335723495E-03 -0.11744751747E-01  0.20446885783E-01  0.23581317218E-01  0.00000000000E+00 0. -1.
     999901    1    3    3    0    0  0.14426899192E-01 -0.28339511948E-01  0.10489062912E+00  0.88679947420E+00  0.88000000000E+00 0. -1.
        -11    1    4    4    0    0 -0.17499684140E-01  0.24189162924E-01 -0.81313177061E-01  0.86622447626E-01  0.51100000000E-03 0.  1.
         11    1    4    4    0    0  0.33261421826E-02  0.15895100771E-01 -0.44024337846E-01  0.46926760960E-01  0.51100000000E-03 0. -1.
</event>
<event>
 8    1  0.5489035E+004  0.1043930E+01  0.7957747E-01            NaN
         13   -1    0    0    0    0  0.00000000000E+00  0.00000000000E+00  0.74505805969E-08  0.10566000000E+00  0.10566000000E+00 0.  1.
     999900   -1    0    0    0    0 -0.00000000000E+00 -0.00000000000E+00 -0.74505805969E-08  0.93827000000E+00  0.93827000000E+00 0.  1.
     999902    2    1    2    0    0  0.18877560044E-01 -0.13939214600E-01  0.47223456620E-03  0.10204590183E+01  0.10201890614E+01 0.  0.
     999903    2    3    3    0    0 -0.42667377022E-01  0.97304330321E-01 -0.69790173942E-01  0.12855111295E+00  0.19133282524E-01 0.  0.
         14    1    1    2    0    0 -0.18877560044E-01  0.13939214600E-01 -0.47223456620E-03  0.23470981708E-01  0.00000000000E+00 0. -1.
     999901    1    3    3    0    0  0.61544937067E-01 -0.11124354492E+00  0.70262408508E-01  0.89190790534E+00  0.88000000000E+00 0.  1.
        -11    1    4    4    0    0 -0.13837260356E-01  0.52617641385E-01 -0.40577086931E-01  0.67873758286E-01  0.51100000000E-03 0.  1.
         11    1    4    4    0    0 -0.28830116666E-01  0.44686688936E-01 -0.29213087011E-01  0.60677354662E-01  0.51100000000E-03 0. -1.
</event>
<event>
 8    1  0.5489035E+004  0.1043930E+01  0.7957747E-01            NaN
         13   -1    0    0    0    0  0.00000000000E+00  0.00000000000E+00  0.74505805969E-08  0.10566000000E+00  0.10566000000E+00 0.  1.
     999900   -1    0    0    0    0 -0.00000000000E+00 -0.00000000000E+00 -0.74505805969E-08  0.93827000000E+00  0.93827000000E+00 0. -1.
     999902    2    1    2    0    0  0.21822663681E-01  0.98264489382E-02 -0.17280355814E-04  0.10199970092E+01  0.10197161913E+01 0.  0.
     999903    2    3    3    0    0 -0.45500672151E-01  0.58230029676E-01  0.10505593455E+00  0.12987582721E+00  0.19233657684E-01 0.  0.
         14    1    1    2    0    0 -0.21822663681E-01 -0.98264489382E-02  0.17280355814E-04  0.23932990776E-01  0.00000000000E+00 0. -1.
     999901    1    3    3    0    0  0.67323335832E-01 -0.48403580738E-01 -0.10507321490E+00  0.89012118201E+00  0.88000000000E+00 0. -1.
        -11    1    4    4    0    0 -0.26242413826E-01  0.31639379168E-01  0.41930470516E-01  0.58720865766E-01  0.51100000000E-03 0.  1.
         11    1    4    4    0    0 -0.19258258325E-01  0.26590650508E-01  0.63125464033E-01  0.71154961447E-01  0.51100000000E-03 0. -1.
</event>
<event>
 8    1  0.5489035E+004  0.1043930E+01  0.7957747E-01            NaN
         13   -1    0    0    0    0  0.00000000000E+00  0.00000000000E+00  0.74505805969E-08  0.10566000000E+00  0.10566000000E+00 0. -1.
     999900   -1    0    0    0    0 -0.00000000000E+00 -0.00000000000E+00 -0.74505805969E-08  0.93827000000E+00  0.93827000000E+00 0. -1.
     999902    2    1    2    0    0 -0.17698957684E-01  0.12109452978E-01  0.71239091672E-02  0.10213326100E+01  0.10210825912E+01 0.  0.
     999903    2    3    3    0    0 -0.22947311566E-01  0.23533223039E-01 -0.12538493522E+00  0.13132326081E+00  0.21071904387E-01 0.  0.
         14    1    1    2    0    0  0.17698957684E-01 -0.12109452978E-01 -0.71239091672E-02  0.22597390034E-01  0.00000000000E+00 0.  1.
     999901    1    3    3    0    0  0.52483538814E-02 -0.11423770061E-01  0.13250884439E+00  0.89000934915E+00  0.88000000000E+00 0.  1.
        -11    1    4    4    0    0 -0.17506445761E-01  0.30140869187E-02 -0.60023292063E-01  0.62598858409E-01  0.51100000000E-03 0.  1.
         11    1    4    4    0    0 -0.54408658046E-02  0.20519136121E-01 -0.65361643160E-01  0.68724402402E-01  0.51100000000E-03 0. -1.
</event>
<event>
 8    1  0.5489035E+004  0.1043930E+01  0.7957747E-01            NaN
         13   -1    0    0    0    0  0.00000000000E+00  0.00000000000E+00  0.74505805969E-08  0.10566000000E+00  0.10566000000E+00 0.  1.
     999900   -1    0    0    0    0 -0.00000000000E+00 -0.00000000000E+00 -0.74505805969E-08  0.93827000000E+00  0.93827000000E+00 0. -1.
     999902    2    1    2    0    0  0.17742236992E-01  0.16639240957E-03 -0.15227954320E-01  0.10205482710E+01  0.10202803870E+01 0.  0.
     999903    2    3    3    0    0 -0.12049411914E+00  0.29793535305E-01 -0.29395492379E-01  0.12915173917E+00  0.20238311866E-01 0.  0.
         14    1    1    2    0    0 -0.17742236992E-01 -0.16639240957E-03  0.15227954320E-01  0.23381729036E-01  0.00000000000E+00 0.  1.
     999901    1    3    3    0    0  0.13823635613E+00 -0.29627142895E-01  0.14167538058E-01  0.89139653179E+00  0.88000000000E+00 0. -1.
        -11    1    4    4    0    0 -0.72286180089E-01  0.81330470559E-02 -0.20283381887E-01  0.75518971047E-01  0.51100000000E-03 0. -1.
         11    1    4    4    0    0 -0.48207939048E-01  0.21660488249E-01 -0.91121104917E-02  0.53632768128E-01  0.51100000000E-03 0.  1.
</event>
<event>
 8    1  0.5489035E+004  0.1043930E+01  0.7957747E-01            NaN
         13   -1    0    0    0    0  0.00000000000E+00  0.00000000000E+00  0.74505805969E-08  0.10566000000E+00  0.10566000000E+00 0.  1.
     999900   -1    0    0    0    0 -0.00000000000E+00 -0.00000000000E+00 -0.74505805969E-08  0.93827000000E+00  0.93827000000E+00 0.  1.
     999902    2    1    2    0    0 -0.46381937852E-02 -0.12455645207E-01  0.19711347634E-01  0.10201562084E+01  0.10198791578E+01 0.  0.
     999903    2    3    3    0    0  0.50402790484E-01  0.11682067112E+00 -0.30917089331E-03  0.12878496308E+00  0.19948950858E-01 0.  0.
         14    1    1    2    0    0  0.46381937852E-02  0.12455645207E-01 -0.19711347634E-01  0.23773791550E-01  0.00000000000E+00 0. -1.
     999901    1    3    3    0    0 -0.55040984269E-01 -0.12927631632E+00  0.20020518527E-01  0.89137124537E+00  0.88000000000E+00 0.  1.
        -11    1    4    4    0    0  0.39149073840E-01  0.68985209297E-01 -0.45955805628E-02  0.79454323771E-01  0.51100000000E-03 0.  1.
         11    1    4    4    0    0  0.11253716644E-01  0.47835461818E-01  0.42864096695E-02  0.49330639308E-01  0.51100000000E-03 0. -1.
</event>
<event>
 8    1  0.5489035E+004  0.1043930E+01  0.7957747E-01            NaN
         13   -1    0    0    0    0  0.00000000000E+00  0.00000000000E+00  0.74505805969E-08  0.10566000000E+00  0.10566000000E+00 0. -1.
     999900   -1    0    0    0    0 -0.00000000000E+00 -0.00000000000E+00 -0.74505805969E-08  0.93827000000E+00  0.93827000000E+00 0.  1.
     999902    2    1    2    0    0  0.22573113536E-02 -0.20290043097E-01  0.11881622890E-01  0.10203089444E+01  0.10200354836E+01 0.  0.
     999903    2    3    3    0    0  0.12885480711E+00  0.27214824450E-02 -0.12437025933E-01  0.13061919350E+00  0.17196694898E-01 0.  0.
         14    1    1    2    0    0 -0.22573113536E-02  0.20290043097E-01 -0.11881622890E-01  0.23621055564E-01  0.00000000000E+00 0.  1.
     999901    1    3    3    0    0 -0.12659749575E+00 -0.23011525542E-01  0.24318648824E-01  0.88968975094E+00  0.88000000000E+00 0. -1.
        -11    1    4    4    0    0  0.85489363640E-01  0.12369135443E-02 -0.78782787950E-04  0.85499874728E-01  0.51100000000E-03 0.  1.
         11    1    4    4    0    0  0.43365443467E-01  0.14845689007E-02 -0.12358243146E-01  0.45119318773E-01  0.51100000000E-03 0. -1.
</event>
<event>
 8    1  0.5489035E+004  0.1043930E+01  0.7957747E-01            NaN
         13   -1    0    0    0    0  0.00000000000E+00  0.00000000000E+00  0.74505805969E-08  0.10566000000E+00  0.10566000000E+00 0.  1.
     999900   -1    0    0    0    0 -0.00000000000E+00 -0.00000000000E+00 -0.74505805969E-08  0.93827000000E+00  0.93827000000E+00 0.  1.
     999902    2    1    2    0    0  0.27379330444E-02 -0.66399949451E-02  0.22393115873E-01  0.10204132517E+01  0.10201422287E+01 0.  0.
     999903    2    3    3    0    0  0.52157900067E-01  0.24457021780E-01  0.11852477709E+00  0.13325449826E+00  0.19749584035E-01 0.  0.
         14    1    1    2    0    0 -0.27379330444E-02  0.66399949451E-02 -0.22393115873E-01  0.23516748260E-01  0.00000000000E+00 0. -1.
     999901    1    3    3    0    0 -0.49419967023E-01 -0.31097016725E-01 -0.96131661213E-01  0.88715875348E+00  0.88000000000E+00 0.  1.
        -11    1    4    4    0    0  0.28412632648E-01  0.16872142543E-01  0.86975658136E-01  0.93042856347E-01  0.51100000000E-03 0. -1.
         11    1    4    4    0    0  0.23745267419E-01  0.75848792371E-02  0.31549118949E-01  0.40211641913E-01  0.51100000000E-03 0.  1.
</event>
<event>
 8    1  0.5489035E+004  0.1043930E+01  0.7957747E-01            NaN
         13   -1    0    0    0    0  0.00000000000E+00  0.00000000000E+00  0.74505805969E-08  0.10566000000E+00  0.10566000000E+00 0. -1.
     999900   -1    0    0    0    0 -0.00000000000E+00 -0.00000000000E+00 -0.74505805969E-08  0.93827000000E+00  0.93827000000E+00 0. -1.
     999902    2    1    2    0    0  0.50466938066E-02 -0.19904820943E-01 -0.12163993633E-01  0.10200629986E+01  0.10197837454E+01 0.  0.
     999903    2    3    3    0    0 -0.10251217698E+00 -0.80447685708E-02 -0.78391467780E-01  0.13096477575E+00  0.20810707241E-01 0.  0.
         14    1    1    2    0    0 -0.50466938066E-02  0.19904820943E-01  0.12163993633E-01  0.23867001408E-01  0.00000000000E+00 0.  1.
     999901    1    3    3    0    0  0.10755887079E+00 -0.11860052372E-01  0.66227474147E-01  0.88909822284E+00  0.88000000000E+00 0.  1.
        -11    1    4    4    0    0 -0.48005894079E-01 -0.24074561000E-02 -0.23894447887E-01  0.53680233532E-01  0.51100000000E-03 0. -1.
         11    1    4    4    0    0 -0.54506282902E-01 -0.56373124708E-02 -0.54497019893E-01  0.77284542219E-01  0.51100000000E-03 0.  1.
</event>
<event>
 8    1  0.5489035E+004  0.1043930E+01  0.7957747E-01            NaN
         13   -1    0    0    0    0  0.00000000000E+00  0.00000000000E+00  0.74505805969E-08  0.10566000000E+00  0.10566000000E+00 0. -1.
     999900   -1    0    0    0    0 -0.00000000000E+00 -0.00000000000E+00 -0.74505805969E-08  0.93827000000E+00  0.93827000000E+00 0. -1.
     999902    2    1    2    0    0  0.50267243002E-02  0.15607420201E-01 -0.14541121176E-01  0.10220141672E+01  0.10217791612E+01 0.  0.
     999903    2    3    3    0    0 -0.23017957131E-01 -0.11805825562E+00 -0.47716895502E-01  0.13086117862E+00  0.19497894281E-01 0.  0.
         14    1    1    2    0    0 -0.50267243002E-02 -0.15607420201E-01  0.14541121176E-01  0.21915832806E-01  0.00000000000E+00 0. -1.
     999901    1    3    3    0    0  0.28044681431E-01  0.13366567582E+00  0.33175774327E-01  0.89115298858E+00  0.88000000000E+00 0.  1.
        -11    1    4    4    0    0 -0.26089304732E-01 -0.11023144311E+00 -0.42710010061E-01  0.12106208718E+00  0.51100000000E-03 0. -1.
         11    1    4    4    0    0  0.30713476009E-02 -0.78268125113E-02 -0.50068854417E-02  0.97990914374E-02  0.51100000000E-03 0.  1.
</event>
<event>
 8    1  0.5489035E+004  0.1043930E+01  0.7957747E-01            NaN
         13   -1    0    0    0    0  0.00000000000E+00  0.00000000000E+00  0.74505805969E-08  0.10566000000E+00  0.10566000000E+00 0.  1.
     999900   -1    0    0    0    0 -0.00000000000E+00 -0.00000000000E+00 -0.74505805969E-08  0.93827000000E+00  0.93827000000E+00 0. -1.
     999902    2    1    2    0    0  0.41264899923E-02 -0.68487570883E-02 -0.24171968079E-01  0.10184698854E+01  0.10181516047E+01 0.  0.
     999903    2    3    3    0    0  0.11234014025E-01  0.97827696304E-01  0.76067586145E-01  0.12658668398E+00  0.23269070965E-01 0.  0.
         14    1    1    2    0    0 -0.41264899923E-02  0.68487570883E-02  0.24171968079E-01  0.25460114574E-01  0.00000000000E+00 0.  1.
     999901    1    3    3    0    0 -0.71075240325E-02 -0.10467645339E+00 -0.10023955422E+00  0.89188320145E+00  0.88000000000E+00 0. -1.
        -11    1    4    4    0    0  0.35034409994E-02  0.59738018796E-01  0.59323027359E-01  0.84263798185E-01  0.51100000000E-03 0. -1.
         11    1    4    4    0    0  0.77305730254E-02  0.38089677509E-01  0.16744558785E-01  0.42322885794E-01  0.51100000000E-03 0.  1.
</event>
<event>
 8    1  0.5489035E+004  0.1043930E+01  0.7957747E-01            NaN
         13   -1    0    0    0    0  0.00000000000E+00  0.00000000000E+00  0.74505805969E-08  0.10566000000E+00  0.10566000000E+00 0. -1.
     999900   -1    0    0    0    0 -0.00000000000E+00 -0.00000000000E+00 -0.74505805969E-08  0.93827000000E+00  0.93827000000E+00 0.  1.
     999902    2    1    2    0    0  0.91495515103E-02  0.21752478484E-01 -0.15839150805E-02  0.10202785011E+01  0.10200043267E+01 0.  0.
     999903    2    3    3    0    0 -0.27289568330E-01 -0.12257192083E+00  0.11756660997E-01  0.12767819152E+00  0.19872221742E-01 0.  0.
         14    1    1    2    0    0 -0.91495515103E-02 -0.21752478484E-01  0.15839150805E-02  0.23651498896E-01  0.00000000000E+00 0.  1.
     999901    1    3    3    0    0  0.36439119840E-01  0.14432439932E+00 -0.13340576078E-01  0.89260030958E+00  0.88000000000E+00 0.  1.
        -11    1    4    4    0    0  0.22713892666E-02 -0.12464310125E-01  0.44437647196E-02  0.13436011386E-01  0.51100000000E-03 0. -1.
         11    1    4    4    0    0 -0.29560957596E-01 -0.11010761071E+00  0.73128962774E-02  0.11424218014E+00  0.51100000000E-03 0.  1.
</event>
<event>
 8    1  0.5489035E+004  0.1043930E+01  0.7957747E-01            NaN
         13   -1    0    0    0    0  0.00000000000E+00  0.00000000000E+00  0.74505805969E-08  0.10566000000E+00  0.10566000000E+00 0. -1.
     999900   -1    0    0    0    0 -0.00000000000E+00 -0.00000000000E+00 -0.74505805969E-08  0.93827000000E+00  0.93827000000E+00 0.  1.
     999902    2    1    2    0    0 -0.19375063384E-01 -0.90505915202E-02 -0.10306159417E-01  0.10201913562E+01  0.10199151337E+01 0.  0.
     999903    2    3    3    0    0 -0.71377729987E-01 -0.22676946535E-01  0.10552063323E+00  0.13097495914E+00  0.20268488901E-01 0.  0.
         14    1    1    2    0    0  0.19375063384E-01  0.90505915202E-02  0.10306159417E-01  0.23738643810E-01  0.00000000000E+00 0.  1.
     999901    1    3    3    0    0  0.52002666603E-01  0.13626355015E-01 -0.11582679265E+00  0.88921639705E+00  0.88000000000E+00 0.  1.
        -11    1    4    4    0    0 -0.50864220242E-01 -0.22844069892E-01  0.86980797000E-01  0.10331960413E+00  0.51100000000E-03 0.  1.
         11    1    4    4    0    0 -0.20513509745E-01  0.16712335635E-03  0.18539836232E-01  0.27655355011E-01  0.51100000000E-03 0. -1.
</event>
<event>
 8    1  0.5489035E+004  0.1043930E+01  0.7957747E-01            NaN
         13   -1    0    0    0    0  0.00000000000E+00  0.00000000000E+00  0.74505805969E-08  0.10566000000E+00  0.10566000000E+00 0. -1.
     999900   -1    0    0    0    0 -0.00000000000E+00 -0.00000000000E+00 -0.74505805969E-08  0.93827000000E+00  0.93827000000E+00 0. -1.
     999902    2    1    2    0    0  0.23326138788E-01  0.19178174729E-01  0.15674920426E-01  0.10099062691E+01  0.10093329768E+01 0.  0.
     999903    2    3    3    0    0  0.61585212119E-01 -0.91517304263E-01  0.46985582929E-01  0.12159461015E+00  0.20234843316E-01 0.  0.
         14    1    1    2    0    0 -0.23326138788E-01 -0.19178174729E-01 -0.15674920426E-01  0.34023730940E-01  0.00000000000E+00 0. -1.
     999901    1    3    3    0    0 -0.38259073331E-01  0.11069547899E+00 -0.31310662503E-01  0.88831165891E+00  0.88000000000E+00 0. -1.
        -11    1    4    4    0    0  0.33685620757E-01 -0.40172723855E-01  0.31406753261E-01  0.61116397629E-01  0.51100000000E-03 0.  1.
         11    1    4    4    0    0  0.27899591362E-01 -0.51344580408E-01  0.15578829668E-01  0.60478212525E-01  0.51100000000E-03 0. -1.
</event>
<event>
 8    1  0.5489035E+004  0.1043930E+01  0.7957747E-01            NaN
         13   -1    0    0    0    0  0.00000000000E+00  0.00000000000E+00  0.74505805969E-08  0.10566000000E+00  0.10566000000E+00 0. -1.
     999900   -1    0    0    0    0 -0.00000000000E+00 -0.00000000000E+00 -0.74505805969E-08  0.93827000000E+00  0.93827000000E+00 0.  1.
     999902    2    1    2    0    0 -0.22124836352E-01  0.23606144319E-02  0.77162557535E-02  0.10203795969E+01  0.10201077885E+01 0.  0.
     999903    2    3    3    0    0  0.27709979806E-01 -0.31344935351E-01 -0.12042029727E+00  0.12906677345E+00  0.20170177544E-01 0.  0.
         14    1    1    2    0    0  0.22124836352E-01 -0.23606144319E-02 -0.77162557535E-02  0.23550403116E-01  0.00000000000E+00 0.  1.
     999901    1    3    3    0    0 -0.49834816158E-01  0.33705549783E-01  0.12813655302E+00  0.89131282343E+00  0.88000000000E+00 0. -1.
        -11    1    4    4    0    0  0.63338808081E-02 -0.13951948240E-01 -0.69442081852E-01  0.71114265508E-01  0.51100000000E-03 0. -1.
         11    1    4    4    0    0  0.21376098998E-01 -0.17392987111E-01 -0.50978215419E-01  0.57952507947E-01  0.51100000000E-03 0.  1.
</event>
<event>
 8    1  0.5489035E+004  0.1043930E+01  0.7957747E-01            NaN
         13   -1    0    0    0    0  0.00000000000E+00  0.00000000000E+00  0.74505805969E-08  0.10566000000E+00  0.10566000000E+00 0. -1.
     999900   -1    0    0    0    0 -0.00000000000E+00 -0.00000000000E+00 -0.74505805969E-08  0.93827000000E+00  0.93827000000E+00 0.  1.
     999902    2    1    2    0    0 -0.20584856110E-01 -0.20789525437E-01  0.15406653705E-01  0.10108648273E+01  0.10103239052E+01 0.  0.
     999903    2    3    3    0    0 -0.68268412262E-01 -0.10323949005E+00 -0.74232956669E-02  0.12543107776E+00  0.18944168786E-01 0.  0.
         14    1    1    2    0    0  0.20584856110E-01  0.20789525437E-01 -0.15406653705E-01  0.33065172725E-01  0.00000000000E+00 0.  1.
     999901    1    3    3    0    0  0.47683556152E-01  0.82449964612E-01  0.22829949372E-01  0.88543374952E+00  0.88000000000E+00 0. -1.
        -11    1    4    4    0    0 -0.27312352840E-01 -0.26157605181E-01  0.73021019056E-04  0.37821308538E-01  0.51100000000E-03 0. -1.
         11    1    4    4    0    0 -0.40956059423E-01 -0.77081884869E-01 -0.74963166860E-02  0.87609769222E-01  0.51100000000E-03 0.  1.
</event>
<event>
 8    1  0.5489035E+004  0.1043930E+01  0.7957747E-01            NaN
         13   -1    0    0    0    0  0.00000000000E+00  0.00000000000E+00  0.74505805969E-08  0.10566000000E+00  0.10566000000E+00 0. -1.
     999900   -1    0    0    0    0 -0.00000000000E+00 -0.00000000000E+00 -0.74505805969E-08  0.93827000000E+00  0.93827000000E+00 0.  1.
     999902    2    1    2    0    0  0.21403237404E-01  0.42574992407E-02  0.87231486805E-02  0.10204285491E+01  0.10201578827E+01 0.  0.
     999903    2    3    3    0    0 -0.59069724326E-01  0.99491957790E-01  0.56184115978E-01  0.13037347043E+00  0.21276863177E-01 0.  0.
         14    1    1    2    0    0 -0.21403237404E-01 -0.42574992407E-02 -0.87231486805E-02  0.23501450893E-01  0.00000000000E+00 0.  1.
     999901    1    3    3    0    0  0.80472961730E-01 -0.95234458549E-01 -0.47460967297E-01  0.89005507868E+00  0.88000000000E+00 0.  1.
        -11    1    4    4    0    0 -0.26757159548E-01  0.35767745528E-01  0.11595559295E-01  0.46151872374E-01  0.51100000000E-03 0. -1.
         11    1    4    4    0    0 -0.32312564777E-01  0.63724212262E-01  0.44588556682E-01  0.84221598055E-01  0.51100000000E-03 0.  1.
</event>
<event>
 8    1  0.5489035E+004  0.1043930E+01  0.7957747E-01            NaN
         13   -1    0    0    0    0  0.00000000000E+00  0.00000000000E+00  0.74505805969E-08  0.10566000000E+00  0.10566000000E+00 0.  1.
     999900   -1    0    0    0    0 -0.00000000000E+00 -0.00000000000E+00 -0.74505805969E-08  0.93827000000E+00  0.93827000000E+00 0. -1.
     999902    2    1    2    0    0 -0.26451771951E-01  0.33485841827E-02  0.18070355813E-01  0.10117205757E+01  0.10112077315E+01 0.  0.
     999903    2    3    3    0    0 -0.12197353789E+00 -0.10979911395E-01  0.24021895828E-01  0.12641546761E+00  0.20142407324E-01 0.  0.
         14    1    1    2    0    0  0.26451771951E-01 -0.33485841827E-02 -0.18070355813E-01  0.32209424313E-01  0.00000000000E+00 0. -1.
     999901    1    3    3    0    0  0.95521765940E-01  0.14328495578E-01 -0.59515400142E-02  0.88530510807E+00  0.88000000000E+00 0.  1.
        -11    1    4    4    0    0 -0.24537336883E-01 -0.10050320868E-01  0.77000391112E-02  0.27615965929E-01  0.51100000000E-03 0.  1.
         11    1    4    4    0    0 -0.97436201007E-01 -0.92959052681E-03  0.16321856716E-01  0.98799501684E-01  0.51100000000E-03 0. -1.
</event>
<event>
 8    1  0.5489035E+004  0.1043930E+01  0.7957747E-01            NaN
         13   -1    0    0    0    0  0.00000000000E+00  0.00000000000E+00  0.74505805969E-08  0.10566000000E+00  0.10566000000E+00 0.  1.
     999900   -1    0    0    0    0 -0.00000000000E+00 -0.00000000000E+00 -0.74505805969E-08  0.93827000000E+00  0.93827000000E+00 0.  1.
     999902    2    1    2    0    0  0.21126794994E-01  0.61578913487E-02  0.11334826830E-01  0.10191764267E+01  0.10188757772E+01 0.  0.
     999903    2    3    3    0    0 -0.10526672547E+00 -0.23491376934E-01 -0.63284162667E-01  0.12652733846E+00  0.19270543619E-01 0.  0.
         14    1    1    2    0    0 -0.21126794994E-01 -0.61578913487E-02 -0.11334826830E-01  0.24753573315E-01  0.00000000000E+00 0. -1.
     999901    1    3    3    0    0  0.12639352046E+00  0.29649268283E-01  0.74618989497E-01  0.89264908823E+00  0.88000000000E+00 0. -1.
        -11    1    4    4    0    0 -0.37579099117E-01 -0.17656800569E-01 -0.26640714983E-01  0.49334978592E-01  0.51100000000E-03 0. -1.
         11    1    4    4    0    0 -0.67687626349E-01 -0.58345763649E-02 -0.36643447684E-01  0.77192359864E-01  0.51100000000E-03 0.  1.
</event>
<event>
 8    1  0.5489035E+004  0.1043930E+01  0.7957747E-01            NaN
         13   -1    0    0    0    0  0.00000000000E+00  0.00000000000E+00  0.74505805969E-08  0.10566000000E+00  0.10566000000E+00 0. -1.
     999900   -1    0    0    0    0 -0.00000000000E+00 -0.00000000000E+00 -0.74505805969E-08  0.93827000000E+00  0.93827000000E+00 0. -1.
     999902    2    1    2    0    0  0.28897178453E-02 -0.12341574717E-01 -0.20207019072E-01  0.10200765190E+01  0.10197975858E+01 0.  0.
     999903    2    3    3    0    0 -0.95757527177E-02  0.12682557111E+00  0.26372531214E-02  0.12876022094E+00  0.19895196991E-01 0.  0.
         14    1    1    2    0    0 -0.28897178453E-02  0.12341574717E-01  0.20207019072E-01  0.23853480993E-01  0.00000000000E+00 0. -1.
     999901    1    3    3    0    0  0.12465470563E-01 -0.13916714583E+00 -0.22844272193E-01  0.89131629807E+00  0.88000000000E+00 0.  1.
        -11    1    4    4    0    0 -0.10514757299E-01  0.29474822263E-01  0.25687245932E-02  0.31403578387E-01  0.51100000000E-03 0.  1.
         11    1    4    4    0    0  0.93900458151E-03  0.97350748850E-01  0.68528528143E-04  0.97356642549E-01  0.51100000000E-03 0. -1.
</event>
<event>
 8    1  0.5489035E+004  0.1043930E+01  0.7957747E-01            NaN
         13   -1    0    0    0    0  0.00000000000E+00  0.00000000000E+00  0.74505805969E-08  0.10566000000E+00  0.10566000000E+00 0.  1.
     999900   -1    0    0    0    0 -0.00000000000E+00 -0.00000000000E+00 -0.74505805969E-08  0.93827000000E+00  0.93827000000E+00 0. -1.
     999902    2    1    2    0    0 -0.15004398864E-01 -0.83860444088E-03  0.17734411130E-01  0.10206846869E+01  0.10204199555E+01 0.  0.
     999903    2    3    3    0    0 -0.68107457651E-01 -0.10730155188E+00 -0.28407636380E-01  0.13148089554E+00  0.18110308210E-01 0.  0.
         14    1    1    2    0    0  0.15004398864E-01  0.83860444088E-03 -0.17734411130E-01  0.23245313093E-01  0.00000000000E+00 0. -1.
     999901    1    3    3    0    0  0.53103058788E-01  0.10646294744E+00  0.46142047510E-01  0.88920379137E+00  0.88000000000E+00 0. -1.
        -11    1    4    4    0    0 -0.47597588314E-01 -0.74224122146E-01 -0.11061023789E-01  0.88867081025E-01  0.51100000000E-03 0. -1.
         11    1    4    4    0    0 -0.20509869337E-01 -0.33077429737E-01 -0.17346612592E-01  0.42613814516E-01  0.51100000000E-03 0.  1.
</event>
<event>
 8    1  0.5489035E+004  0.1043930E+01  0.7957747E-01            NaN
         13   -1    0    0    0    0  0.00000000000E+00  0.00000000000E+00  0.74505805969E-08  0.10566000000E+00  0.10566000000E+00 0. -1.
     999900   -1    0    0    0    0 -0.00000000000E+00 -0.00000000000E+00 -0.74505805969E-08  0.93827000000E+00  0.93827000000E+00 0. -1.
     999902    2    1    2    0    0 -0.17252576091E-01 -0.12641924138E-01 -0.10905271774E-01  0.10199217810E+01  0.10196391738E+01 0.  0.
     999903    2    3    3    0    0  0.52893113129E-01  0.11364860168E+00  0.14802485324E-01  0.12777235213E+00  0.19823579870E-01 0.  0.
         14    1    1    2    0    0  0.17252576091E-01  0.12641924138E-01  0.10905271774E-01  0.24008219013E-01  0.00000000000E+00 0. -1.
     999901    1    3    3    0    0 -0.70145689220E-01 -0.12629052581E+00 -0.25707757098E-01  0.89214942885E+00  0.88000000000E+00 0. -1.
        -11    1    4    4    0    0  0.13440754682E-01  0.44791073290E-01 -0.13417337500E-02  0.46786274733E-01  0.51100000000E-03 0. -1.
         11    1    4    4    0    0  0.39452358447E-01  0.68857528386E-01  0.16144219074E-01  0.80986077402E-01  0.51100000000E-03 0.  1.
</event>
<event>
 8    1  0.5489035E+004  0.1043930E+01  0.7957747E-01            NaN
         13   -1    0    0    0    0  0.00000000000E+00  0.00000000000E+00  0.74505805969E-08  0.10566000000E+00  0.10566000000E+00 0.  1.
     999900   -1    0    0    0    0 -0.00000000000E+00 -0.00000000000E+00 -0.74505805969E-08  0.93827000000E+00  0.93827000000E+00 0. -1.
     999902    2    1    2    0    0  0.87499686159E-02 -0.44735713697E-02 -0.21462469511E-01  0.10203246534E+01  0.10200515604E+01 0.  0.
     999903    2    3    3    0    0  0.16708848449E-01  0.10282574586E+00 -0.77004886853E-01  0.13203334566E+00  0.25509451945E-01 0.  0.
         14    1    1    2    0    0 -0.87499686159E-02  0.44735713697E-02  0.21462469511E-01  0.23605346621E-01  0.00000000000E+00 0.  1.
     999901    1    3    3    0    0 -0.79588798326E-02 -0.10729931723E+00  0.55542417343E-01  0.88829130772E+00  0.88000000000E+00 0.  1.
        -11    1    4    4    0    0 -0.32692676941E-02  0.58610009675E-01 -0.40692919255E-01  0.71428258720E-01  0.51100000000E-03 0. -1.
         11    1    4    4    0    0  0.19978116143E-01  0.44215736186E-01 -0.36311967599E-01  0.60605086939E-01  0.51100000000E-03 0.  1.
</event>
<event>
 8    1  0.5489035E+004  0.1043930E+01  0.7957747E-01            NaN
         13   -1    0    0    0    0  0.00000000000E+00  0.00000000000E+00  0.74505805969E-08  0.10566000000E+00  0.10566000000E+00 0. -1.
     999900   -1    0    0    0    0 -0.00000000000E+00 -0.00000000000E+00 -0.74505805969E-08  0.93827000000E+00  0.93827000000E+00 0.  1.
     999902    2    1    2    0    0 -0.21538527872E-01  0.95750207383E-02  0.11116342164E-02  0.10203328617E+01  0.10200599609E+01 0.  0.
     999903    2    3    3    0    0 -0.75426862218E-01 -0.80673912357E-01  0.67801741304E-01  0.13157170544E+00  0.22727645490E-01 0.  0.
         14    1    1    2    0    0  0.21538527872E-01 -0.95750207383E-02 -0.11116342164E-02  0.23597138294E-01  0.00000000000E+00 0. -1.
     999901    1    3    3    0    0  0.53888334345E-01  0.90248933095E-01 -0.66690107088E-01  0.88876115627E+00  0.88000000000E+00 0.  1.
        -11    1    4    4    0    0 -0.39440989201E-02 -0.23176518138E-02 -0.15371699768E-02  0.48529824603E-02  0.51100000000E-03 0.  1.
         11    1    4    4    0    0 -0.71482763297E-01 -0.78356260543E-01  0.69338911281E-01  0.12671872298E+00  0.51100000000E-03 0. -1.
</event>
<event>
 8    1  0.5489035E+004  0.1043930E+01  0.7957747E-01            NaN
         13   -1    0    0    0    0  0.00000000000E+00  0.00000000000E+00  0.74505805969E-08  0.10566000000E+00  0.10566000000E+00 0. -1.
     999900   -1    0    0    0    0 -0.00000000000E+00 -0.00000000000E+00 -0.74505805969E-08  0.93827000000E+00  0.93827000000E+00 0.  1.
     999902    2    1    2    0    0  0.68107221126E-03  0.23073487208E-01  0.86235753565E-02  0.10192882524E+01  0.10189903463E+01 0.  0.
     999903    2    3    3    0    0  0.51821313387E-01  0.11966745546E+00 -0.88634465120E-02  0.13235448100E+00  0.20818250173E-01 0.  0.
         14    1    1    2    0    0 -0.68107221126E-03 -0.23073487208E-01 -0.86235753565E-02  0.24641747568E-01  0.00000000000E+00 0.  1.
     999901    1    3    3    0    0 -0.51140241176E-01 -0.96593968249E-01  0.17487021869E-01  0.88693377143E+00  0.88000000000E+00 0.  1.
        -11    1    4    4    0    0  0.21052260163E-01  0.38170519825E-01 -0.11896761545E-01  0.45188276112E-01  0.51100000000E-03 0. -1.
         11    1    4    4    0    0  0.30769053225E-01  0.81496935632E-01  0.30333150334E-02  0.87166204890E-01  0.51100000000E-03 0.  1.
</event>
<event>
 8    1  0.5489035E+004  0.1043930E+01  0.7957747E-01            NaN
         13   -1    0    0    0    0  0.00000000000E+00  0.00000000000E+00  0.74505805969E-08  0.10566000000E+00  0.10566000000E+00 0. -1.
     999900   -1    0    0    0    0 -0.00000000000E+00 -0.00000000000E+00 -0.74505805969E-08  0.93827000000E+00  0.93827000000E+00 0.  1.
     999902    2    1    2    0    0 -0.19907957895E-01 -0.48934877724E-02 -0.10823803069E-01  0.10207475126E+01  0.10204842266E+01 0.  0.
     999903    2    3    3    0    0 -0.39495057747E-01 -0.10875927087E+00  0.59376454265E-01  0.13164693812E+00  0.20418482001E-01 0.  0.
         14    1    1    2    0    0  0.19907957895E-01  0.48934877724E-02  0.10823803069E-01  0.23182487420E-01  0.00000000000E+00 0.  1.
     999901    1    3    3    0    0  0.19587099852E-01  0.10386578310E+00 -0.70200257333E-01  0.88910057446E+00  0.88000000000E+00 0. -1.
        -11    1    4    4    0    0 -0.25410686773E-01 -0.63398794064E-01  0.23910773416E-01  0.72367784942E-01  0.51100000000E-03 0. -1.
         11    1    4    4    0    0 -0.14084370973E-01 -0.45360476809E-01  0.35465680849E-01  0.59279153175E-01  0.51100000000E-03 0.  1.
</event>
<event>
 8    1  0.5489035E+004  0.1043930E+01  0.7957747E-01            NaN
         13   -1    0    0    0    0  0.00000000000E+00  0.00000000000E+00  0.74505805969E-08  0.10566000000E+00  0.10566000000E+00 0. -1.
     999900   -1    0    0    0    0 -0.00000000000E+00 -0.00000000000E+00 -0.74505805969E-08  0.93827000000E+00  0.93827000000E+00 0.  1.
     999902    2    1    2    0    0 -0.22310430701E-02  0.23517972850E-01 -0.26173187204E-02  0.10201618920E+01  0.10198849754E+01 0.  0.
     999903    2    3    3    0    0  0.62749001608E-03 -0.24933880114E-01  0.12547742917E+00  0.12956432986E+00  0.20499712679E-01 0.  0.
         14    1    1    2    0    0  0.22310430701E-02 -0.23517972850E-01  0.26173187204E-02  0.23768107990E-01  0.00000000000E+00 0. -1.
     999901    1    3    3    0    0 -0.28585330862E-02  0.48451852964E-01 -0.12809474789E+00  0.89059756215E+00  0.88000000000E+00 0.  1.
        -11    1    4    4    0    0 -0.57981514981E-02 -0.25147295462E-01  0.98358564839E-01  0.10168910181E+00  0.51100000000E-03 0. -1.
         11    1    4    4    0    0  0.64256415142E-02  0.21341534786E-03  0.27118864332E-01  0.27875228047E-01  0.51100000000E-03 0.  1.
</event>
<event>
 8    1  0.5489035E+004  0.1043930E+01  0.7957747E-01            NaN
         13   -1    0    0    0    0  0.00000000000E+00  0.00000000000E+00  0.74505805969E-08  0.10566000000E+00  0.10566000000E+00 0.  1.
     999900   -1    0    0    0    0 -0.00000000000E+00 -0.00000000000E+00 -0.74505805969E-08  0.93827000000E+00  0.93827000000E+00 0. -1.
     999902    2    1    2    0    0  0.58700791547E-02 -0.16315912917E-01  0.14012890942E-01  0.10216358762E+01  0.10213925962E+01 0.  0.
     999903    2    3    3    0    0 -0.33101190998E-01 -0.27330608172E-01  0.12495940318E+00  0.13374556091E+00  0.20745400252E-01 0.  0.
         14    1    1    2    0    0 -0.58700791547E-02  0.16315912917E-01 -0.14012890942E-01  0.22294123803E-01  0.00000000000E+00 0. -1.
     999901    1    3    3    0    0  0.38971270153E-01  0.11014695255E-01 -0.11094651223E+00  0.88789031529E+00  0.88000000000E+00 0. -1.
        -11    1    4    4    0    0 -0.22507499972E-02 -0.78340545817E-02  0.46507084244E-01  0.47218728198E-01  0.51100000000E-03 0.  1.
         11    1    4    4    0    0 -0.30850441001E-01 -0.19496553590E-01  0.78452318932E-01  0.86526832709E-01  0.51100000000E-03 0. -1.
</event>
<event>
 8    1  0.5489035E+004  0.1043930E+01  0.7957747E-01            NaN
         13   -1    0    0    0    0  0.00000000000E+00  0.00000000000E+00  0.74505805969E-08  0.10566000000E+00  0.10566000000E+00 0. -1.
     999900   -1    0    0    0    0 -0.00000000000E+00 -0.00000000000E+00 -0.74505805969E-08  0.93827000000E+00  0.93827000000E+00 0. -1.
     999902    2    1    2    0    0  0.58852037921E-02 -0.12234365162E-01  0.19226650617E-01  0.10203932328E+01  0.10201217428E+01 0.  0.
     999903    2    3    3    0    0 -0.34101937352E-01  0.29316054194E-01  0.12309522877E+00  0.13241007402E+00  0.18910822099E-01 0.  0.
         14    1    1    2    0    0 -0.58852037921E-02  0.12234365162E-01 -0.19226650617E-01  0.23536767164E-01  0.00000000000E+00 0. -1.
     999901    1    3    3    0    0  0.39987141144E-01 -0.41550419356E-01 -0.10386857815E+00  0.88798315881E+00  0.88000000000E+00 0. -1.
        -11    1    4    4    0    0 -0.13358328230E-01  0.18075270625E-01  0.81947664235E-01  0.84975532572E-01  0.51100000000E-03 0. -1.
         11    1    4    4    0    0 -0.20743609121E-01  0.11240783568E-01  0.41147564535E-01  0.47434541452E-01  0.51100000000E-03 0.  1.
</event>
<event>
 8    1  0.5489035E+004  0.1043930E+01  0.7957747E-01            NaN
         13   -1    0    0    0    0  0.00000000000E+00  0.00000000000E+00  0.74505805969E-08  0.10566000000E+00  0.10566000000E+00 0. -1.
     999900   -1    0    0    0    0 -0.00000000000E+00 -0.00000000000E+00 -0.74505805969E-08  0.93827000000E+00  0.93827000000E+00 0. -1.
     999902    2    1    2    0    0  0.21062764616E-01 -0.69335439419E-02  0.82466383191E-02  0.10202715738E+01  0.10199972369E+01 0.  0.
     999903    2    3    3    0    0 -0.91428168288E-01 -0.83452891076E-01 -0.30223086983E-01  0.12898635561E+00  0.20013744300E-01 0.  0.
         14    1    1    2    0    0 -0.21062764616E-01  0.69335439419E-02 -0.82466383191E-02  0.23658426161E-01  0.00000000000E+00 0.  1.
     999901    1    3    3    0    0  0.11249093290E+00  0.76519347134E-01  0.38469725303E-01  0.89128521823E+00  0.88000000000E+00 0.  1.
        -11    1    4    4    0    0 -0.50871199110E-01 -0.35859161730E-01 -0.86630400828E-02  0.62841608536E-01  0.51100000000E-03 0.  1.
         11    1    4    4    0    0 -0.40556969177E-01 -0.47593729345E-01 -0.21560046901E-01  0.66144747072E-01  0.51100000000E-03 0. -1.
</event>
<event>
 8    1  0.5489035E+004  0.1043930E+01  0.7957747E-01            NaN
         13   -1    0    0    0    0  0.00000000000E+00  0.00000000000E+00  0.74505805969E-08  0.10566000000E+00  0.10566000000E+00 0.  1.
     999900   -1    0    0    0    0 -0.00000000000E+00 -0.00000000000E+00 -0.74505805969E-08  0.93827000000E+00  0.93827000000E+00 0. -1.
     999902    2    1    2    0    0  0.12407425038E-01 -0.18637264528E-01  0.92154329357E-02  0.10197181015E+01  0.10194306207E+01 0.  0.
     999903    2    3    3    0    0  0.61562176331E-02  0.11241120564E+00  0.57960127401E-01  0.12865759605E+00  0.22786453933E-01 0.  0.
         14    1    1    2    0    0 -0.12407425038E-01  0.18637264528E-01 -0.92154329357E-02  0.24211898508E-01  0.00000000000E+00 0. -1.
     999901    1    3    3    0    0  0.62512074053E-02 -0.13104847017E+00 -0.48744694465E-01  0.89106050545E+00  0.88000000000E+00 0. -1.
        -11    1    4    4    0    0  0.47791010927E-02  0.30713595942E-01  0.27335595681E-01  0.41396385050E-01  0.51100000000E-03 0.  1.
         11    1    4    4    0    0  0.13771165404E-02  0.81697609699E-01  0.30624531720E-01  0.87261210996E-01  0.51100000000E-03 0. -1.
</event>
<event>
 8    1  0.5489035E+004  0.1043930E+01  0.7957747E-01            NaN
         13   -1    0    0    0    0  0.00000000000E+00  0.00000000000E+00  0.74505805969E-08  0.10566000000E+00  0.10566000000E+00 0. -1.
     999900   -1    0    0    0    0 -0.00000000000E+00 -0.00000000000E+00 -0.74505805969E-08  0.93827000000E+00  0.93827000000E+00 0. -1.
     999902    2    1    2    0    0 -0.62884907100E-02  0.55910033151E-02 -0.22294108067E-01  0.10201007808E+01  0.10198224214E+01 0.  0.
     999903    2    3    3    0    0  0.66204993321E-01 -0.84157553284E-01 -0.73066428979E-01  0.13111937648E+00  0.19697536146E-01 0.  0.
         14    1    1    2    0    0  0.62884907100E-02 -0.55910033151E-02  0.22294108067E-01  0.23829219207E-01  0.00000000000E+00 0. -1.
     999901    1    3    3    0    0 -0.72493484031E-01  0.89748556599E-01  0.50772320912E-01  0.88898140431E+00  0.88000000000E+00 0. -1.
        -11    1    4    4    0    0  0.60978280437E-01 -0.66020427153E-01 -0.62644468372E-01  0.10955198777E+00  0.51100000000E-03 0.  1.
         11    1    4    4    0    0  0.52267128843E-02 -0.18137126131E-01 -0.10421960607E-01  0.21567388710E-01  0.51100000000E-03 0. -1.
</event>
<event>
 8    1  0.5489035E+004  0.1043930E+01  0.7957747E-01            NaN
         13   -1    0    0    0    0  0.00000000000E+00  0.00000000000E+00  0.74505805969E-08  0.10566000000E+00  0.10566000000E+00 0.  1.
     999900   -1    0    0    0    0 -0.00000000000E+00 -0.00000000000E+00 -0.74505805969E-08  0.93827000000E+00  0.93827000000E+00 0.  1.
     999902    2    1    2    0    0 -0.77732170311E-02  0.17160120730E-01  0.14143184259E-01  0.10203732110E+01  0.10201012535E+01 0.  0.
     999903    2    3    3    0    0 -0.11511926205E+00  0.42388296490E-01 -0.43049557945E-01  0.13164904458E+00  0.20712178177E-01 0.  0.
         14    1    1    2    0    0  0.77732170311E-02 -0.17160120730E-01 -0.14143184259E-01  0.23556788989E-01  0.00000000000E+00 0. -1.
     999901    1    3    3    0    0  0.10734604502E+00 -0.25228175760E-01  0.57192742204E-01  0.88872416643E+00  0.88000000000E+00 0. -1.
        -11    1    4    4    0    0 -0.37916935631E-01  0.14836522483E-01 -0.24773625041E-01  0.47663508323E-01  0.51100000000E-03 0.  1.
         11    1    4    4    0    0 -0.77202326423E-01  0.27551774007E-01 -0.18275932904E-01  0.83985536258E-01  0.51100000000E-03 0. -1.
</event>
<event>
 7    1  0.5489035E+004  0.1043930E+01  0.7957747E-01            NaN
         13   -1    0    0    0    0  0.00000000000E+00  0.00000000000E+00  0.74505805969E-08  0.10566000000E+00  0.10566000000E+00 0. -1.
     999900   -1    0    0    0    0 -0.00000000000E+00 -0.00000000000E+00 -0.74505805969E-08  0.93827000000E+00  0.93827000000E+00 0. -1.
     999903    2    1    2    0    0 -0.25134618017E-01  0.70126311380E-02 -0.10269019539E+00  0.10746306941E+00  0.17947396459E-01 0.  0.
         14    1    1    2    0    0  0.60962692164E-02 -0.48388160919E-01  0.14534546532E-01  0.50890388664E-01  0.00000000000E+00 0. -1.
     999901    1    1    2    0    0  0.19038348801E-01  0.41375529781E-01  0.88155648855E-01  0.88557654193E+00  0.88000000000E+00 0.  1.
        -11    1    3    3    0    0 -0.22197966332E-01  0.21596239489E-02 -0.53794295104E-01  0.58236594952E-01  0.51100000000E-03 0.  1.
         11    1    3    3    0    0 -0.29366516854E-02  0.48530071891E-02 -0.48895900282E-01  0.49226474455E-01  0.51100000000E-03 0. -1.
</event>
<event>
 8    1  0.5489035E+004  0.1043930E+01  0.7957747E-01            NaN
         13   -1    0    0    0    0  0.00000000000E+00  0.00000000000E+00  0.74505805969E-08  0.10566000000E+00  0.10566000000E+00 0.  1.
     999900   -1    0    0    0    0 -0.00000000000E+00 -0.00000000000E+00 -0.74505805969E-08  0.93827000000E+00  0.93827000000E+00 0. -1.
     999902    2    1    2    0    0  0.14922607577E-02 -0.24122839032E-01  0.70459752480E-02  0.10187549335E+01  0.10184438279E+01 0.  0.
     999903    2    3    3    0    0 -0.10179778234E+00  0.54804349074E-01  0.50910153722E-01  0.12812459484E+00  0.21395393962E-01 0.  0.
         14    1    1    2    0    0 -0.14922607577E-02  0.24122839032E-01 -0.70459752480E-02  0.25175066481E-01  0.00000000000E+00 0. -1.
     999901    1    3    3    0    0  0.10329004310E+00 -0.78927188105E-01 -0.43864178474E-01  0.89063033868E+00  0.88000000000E+00 0. -1.
        -11    1    4    4    0    0 -0.24656559507E-01  0.35091154955E-02  0.97103478512E-02  0.26735964442E-01  0.51100000000E-03 0. -1.
         11    1    4    4    0    0 -0.77141222838E-01  0.51295233578E-01  0.41199805870E-01  0.10138863040E+00  0.51100000000E-03 0.  1.
</event>
<event>
 8    1  0.5489035E+004  0.1043930E+01  0.7957747E-01            NaN
         13   -1    0    0    0    0  0.00000000000E+00  0.00000000000E+00  0.74505805969E-08  0.10566000000E+00  0.10566000000E+00 0.  1.
     999900   -1    0    0    0    0 -0.00000000000E+00 -0.00000000000E+00 -0.74505805969E-08  0.93827000000E+00  0.93827000000E+00 0. -1.
     999902    2    1    2    0    0 -0.12076832275E-01 -0.22705110475E-02 -0.22548902136E-01  0.10182500840E+01  0.10179262132E+01 0.  0.
     999903    2    3    3    0    0 -0.12356713208E+00  0.32155329765E-01  0.12365869617E-01  0.12986150531E+00  0.20206297673E-01 0.  0.
         14    1    1    2    0    0  0.12076832275E-01  0.22705110475E-02  0.22548902136E-01  0.25679916000E-01  0.00000000000E+00 0.  1.
     999901    1    3    3    0    0  0.11149029981E+00 -0.34425840813E-01 -0.34914771753E-01  0.88838857869E+00  0.88000000000E+00 0. -1.
        -11    1    4    4    0    0 -0.37774996163E-01  0.15402861054E-01  0.11710142023E-01  0.42445105854E-01  0.51100000000E-03 0.  1.
         11    1    4    4    0    0 -0.85792135919E-01  0.16752468712E-01  0.65572759464E-03  0.87416399452E-01  0.51100000000E-03 0. -1.
</event>
<event>
 8    1  0.5489035E+004  0.1043930E+01  0.7957747E-01            NaN
         13   -1    0    0    0    0  0.00000000000E+00  0.00000000000E+00  0.74505805969E-08  0.10566000000E+00  0.10566000000E+00 0.  1.
     999900   -1    0    0    0    0 -0.00000000000E+00 -0.00000000000E+00 -0.74505805969E-08  0.93827000000E+00  0.93827000000E+00 0. -1.
     999902    2    1    2    0    0  0.15708218067E-01 -0.20829405020E-02  0.16997999667E-01  0.10206916965E+01  0.10204271265E+01 0.  0.
     999903    2    3    3    0    0 -0.84962923877E-01 -0.71000008600E-01 -0.62094249673E-01  0.12876130406E+00  0.21542467936E-01 0.  0.
         14    1    1    2    0    0 -0.15708218067E-01  0.20829405020E-02 -0.16997999667E-01  0.23238303480E-01  0.00000000000E+00 0. -1.
     999901    1    3    3    0    0  0.10067114194E+00  0.68917068098E-01  0.79092249339E-01  0.89193039246E+00  0.88000000000E+00 0.  1.
        -11    1    4    4    0    0 -0.58370805704E-01 -0.53870761221E-01 -0.33821051416E-01  0.86332696662E-01  0.51100000000E-03 0. -1.
         11    1    4    4    0    0 -0.26592118173E-01 -0.17129247379E-01 -0.28273198257E-01  0.42428607394E-01  0.51100000000E-03 0.  1.
</event>
<event>
 8    1  0.5489035E+004  0.1043930E+01  0.7957747E-01            NaN
         13   -1    0    0    0    0  0.00000000000E+00  0.00000000000E+00  0.74505805969E-08  0.10566000000E+00  0.10566000000E+00 0.  1.
     999900   -1    0    0    0    0 -0.00000000000E+00 -0.00000000000E+00 -0.74505805969E-08  0.93827000000E+00  0.93827000000E+00 0. -1.
     999902    2    1    2    0    0 -0.11650076306E-01 -0.37547728140E-03  0.19824401495E-01  0.10209327794E+01  0.10206737323E+01 0.  0.
     999903    2    3    3    0    0  0.75619255439E-01  0.27041183259E-01  0.10321317469E+00  0.13227013416E+00  0.19822501709E-01 0.  0.
         14    1    1    2    0    0  0.11650076306E-01  0.37547728140E-03 -0.19824401495E-01  0.22997220609E-01  0.00000000000E+00 0. -1.
     999901    1    3    3    0    0 -0.87269331745E-01 -0.27416660541E-01 -0.83388773200E-01  0.88866264523E+00  0.88000000000E+00 0. -1.
        -11    1    4    4    0    0  0.58696609123E-01  0.21345419959E-01  0.65312207936E-01  0.90370705997E-01  0.51100000000E-03 0.  1.
         11    1    4    4    0    0  0.16922646316E-01  0.56957632999E-02  0.37900966759E-01  0.41899428160E-01  0.51100000000E-03 0. -1.
</event>
<event>
 8    1  0.5489035E+004  0.1043930E+01  0.7957747E-01            NaN
         13   -1    0    0    0    0  0.00000000000E+00  0.00000000000E+00  0.74505805969E-08  0.10566000000E+00  0.10566000000E+00 0.  1.
     999900   -1    0    0    0    0 -0.00000000000E+00 -0.00000000000E+00 -0.74505805969E-08  0.93827000000E+00  0.93827000000E+00 0.  1.
     999902    2    1    2    0    0 -0.10712513204E-01 -0.13499784826E-01 -0.17246632846E-01  0.10195486860E+01  0.10192571190E+01 0.  0.
     999903    2    3    3    0    0  0.90836197472E-02 -0.74355276116E-01  0.10328850725E+00  0.12902973743E+00  0.19207763492E-01 0.  0.
         14    1    1    2    0    0  0.10712513204E-01  0.13499784826E-01  0.17246632846E-01  0.24381314034E-01  0.00000000000E+00 0.  1.
     999901    1    3    3    0    0 -0.19796132951E-01  0.60855491289E-01 -0.12053514009E+00  0.89051894853E+00  0.88000000000E+00 0.  1.
        -11    1    4    4    0    0 -0.20022754660E-02 -0.40949217983E-01  0.66413954502E-01  0.78050765750E-01  0.51100000000E-03 0. -1.
         11    1    4    4    0    0  0.11085895213E-01 -0.33406058132E-01  0.36874552746E-01  0.50978971683E-01  0.51100000000E-03 0.  1.
</event>
<event>
 8    1  0.5489035E+004  0.1043930E+01  0.7957747E-01            NaN
         13   -1    0    0    0    0  0.00000000000E+00  0.00000000000E+00  0.74505805969E-08  0.10566000000E+00  0.10566000000E+00 0. -1.
     999900   -1    0    0    0    0 -0.00000000000E+00 -0.00000000000E+00 -0.74505805969E-08  0.93827000000E+00  0.93827000000E+00 0.  1.
     999902    2    1    2    0    0 -0.14841335972E-01  0.16319122102E-01 -0.70131117282E-02  0.10207834509E+01  0.10205209899E+01 0.  0.
     999903    2    3    3    0    0  0.84881227042E-01  0.97560155298E-01  0.51431766508E-02  0.13134965886E+00  0.22438226575E-01 0.  0.
         14    1    1    2    0    0  0.14841335972E-01 -0.16319122102E-01  0.70131117282E-02  0.23146549111E-01  0.00000000000E+00 0. -1.
     999901    1    3    3    0    0 -0.99722563013E-01 -0.81241033196E-01 -0.12156288379E-01  0.88943379202E+00  0.88000000000E+00 0. -1.
        -11    1    4    4    0    0  0.12213889952E-01  0.27902988740E-01 -0.12056529383E-02  0.30487220411E-01  0.51100000000E-03 0.  1.
         11    1    4    4    0    0  0.72667337090E-01  0.69657166558E-01  0.63488295892E-02  0.10086243845E+00  0.51100000000E-03 0. -1.
</event>
<event>
 8    1  0.5489035E+004  0.1043930E+01  0.7957747E-01            NaN
         13   -1    0    0    0    0  0.00000000000E+00  0.00000000000E+00  0.74505805969E-08  0.10566000000E+00  0.10566000000E+00 0. -1.
     999900   -1    0    0    0    0 -0.00000000000E+00 -0.00000000000E+00 -0.74505805969E-08  0.93827000000E+00  0.93827000000E+00 0. -1.
     999902    2    1    2    0    0  0.43076210386E-02 -0.25487567564E-01  0.19631219503E-02  0.10180065445E+01  0.10176764216E+01 0.  0.
     999903    2    3    3    0    0 -0.10821812655E-01  0.64103286662E-01 -0.10693022428E+00  0.12665185536E+00  0.19500682331E-01 0.  0.
         14    1    1    2    0    0 -0.43076210386E-02  0.25487567564E-01 -0.19631219503E-02  0.25923455540E-01  0.00000000000E+00 0.  1.
     999901    1    3    3    0    0  0.15129433694E-01 -0.89590854226E-01  0.10889334623E+00  0.89135468910E+00  0.88000000000E+00 0.  1.
        -11    1    4    4    0    0 -0.13527914653E-01  0.48165732295E-01 -0.67394845958E-01  0.83936098462E-01  0.51100000000E-03 0.  1.
         11    1    4    4    0    0  0.27061019975E-02  0.15937554367E-01 -0.39535378324E-01  0.42715756899E-01  0.51100000000E-03 0. -1.
</event>
<event>
 8    1  0.5489035E+004  0.1043930E+01  0.7957747E-01            NaN
         13   -1    0    0    0    0  0.00000000000E+00  0.00000000000E+00  0.74505805969E-08  0.10566000000E+00  0.10566000000E+00 0.  1.
     999900   -1    0    0    0    0 -0.00000000000E+00 -0.00000000000E+00 -0.74505805969E-08  0.93827000000E+00  0.93827000000E+00 0. -1.
     999902    2    1    2    0    0 -0.28814757803E-02 -0.12598220211E-01  0.19341753000E-01  0.10206679824E+01  0.10204028659E+01 0.  0.
     999903    2    3    3    0    0 -0.11838702929E+00 -0.37390345035E-01 -0.37759909732E-01  0.13093949444E+00  0.17487533137E-01 0.  0.
         14    1    1    2    0    0  0.28814757803E-02  0.12598220211E-01 -0.19341753000E-01  0.23262017631E-01  0.00000000000E+00 0. -1.
     999901    1    3    3    0    0  0.11550555351E+00  0.24792124825E-01  0.57101662732E-01  0.88972848793E+00  0.88000000000E+00 0.  1.
        -11    1    4    4    0    0 -0.41898329796E-01 -0.46047018798E-02 -0.13080234077E-01  0.44136458439E-01  0.51100000000E-03 0. -1.
         11    1    4    4    0    0 -0.76488699495E-01 -0.32785643155E-01 -0.24679675655E-01  0.86803036001E-01  0.51100000000E-03 0.  1.
</event>
<event>
 8    1  0.5489035E+004  0.1043930E+01  0.7957747E-01            NaN
         13   -1    0    0    0    0  0.00000000000E+00  0.00000000000E+00  0.74505805969E-08  0.10566000000E+00  0.10566000000E+00 0. -1.
     999900   -1    0    0    0    0 -0.00000000000E+00 -0.00000000000E+00 -0.74505805969E-08  0.93827000000E+00  0.93827000000E+00 0.  1.
     999902    2    1    2    0    0  0.13833661076E-02 -0.39114607504E-02  0.13171658731E-01  0.10301203722E+01  0.10300278032E+01 0.  0.
     999903    2    3    3    0    0  0.32385548523E-01  0.13323895789E+00 -0.57474015039E-02  0.13875663975E+00  0.20467750183E-01 0.  0.
         14    1    1    2    0    0 -0.13833661076E-02  0.39114607504E-02 -0.13171658731E-01  0.13809627827E-01  0.00000000000E+00 0.  1.
     999901    1    3    3    0    0 -0.31002182416E-01 -0.13715041864E+00  0.18919060235E-01  0.89136373243E+00  0.88000000000E+00 0.  1.
        -11    1    4    4    0    0  0.17001774792E-01  0.55032740817E-01  0.70429256006E-02  0.58030395741E-01  0.51100000000E-03 0.  1.
         11    1    4    4    0    0  0.15383773732E-01  0.78206217070E-01 -0.12790327104E-01  0.80726244004E-01  0.51100000000E-03 0. -1.
</event>
<event>
 8    1  0.5489035E+004  0.1043930E+01  0.7957747E-01            NaN
         13   -1    0    0    0    0  0.00000000000E+00  0.00000000000E+00  0.74505805969E-08  0.10566000000E+00  0.10566000000E+00 0. -1.
     999900   -1    0    0    0    0 -0.00000000000E+00 -0.00000000000E+00 -0.74505805969E-08  0.93827000000E+00  0.93827000000E+00 0. -1.
     999902    2    1    2    0    0  0.62940020282E-03 -0.39508470263E-02 -0.22841975668E-01  0.10207403215E+01  0.10204768703E+01 0.  0.
     999903    2    3    3    0    0  0.72554873111E-01 -0.54419280849E-01  0.89884515803E-01  0.12920927978E+00  0.19752064674E-01 0.  0.
         14    1    1    2    0    0 -0.62940020282E-03  0.39508470263E-02  0.22841975668E-01  0.23189678507E-01  0.00000000000E+00 0. -1.
     999901    1    3    3    0    0 -0.71925472908E-01  0.50468433823E-01 -0.11272649147E+00  0.89153104172E+00  0.88000000000E+00 0. -1.
        -11    1    4    4    0    0  0.57951682688E-01 -0.32936023406E-01  0.60978036362E-01  0.90342466226E-01  0.51100000000E-03 0. -1.
         11    1    4    4    0    0  0.14603190423E-01 -0.21483257443E-01  0.28906479441E-01  0.38866813551E-01  0.51100000000E-03 0.  1.
</event>
<event>
 8    1  0.5489035E+004  0.1043930E+01  0.7957747E-01            NaN
         13   -1    0    0    0    0  0.00000000000E+00  0.00000000000E+00  0.74505805969E-08  0.10566000000E+00  0.10566000000E+00 0. -1.
     999900   -1    0    0    0    0 -0.00000000000E+00 -0.00000000000E+00 -0.74505805969E-08  0.93827000000E+00  0.93827000000E+00 0. -1.
     999902    2    1    2    0    0  0.12695497550E-01  0.81768382963E-02  0.18701416201E-01  0.10198929596E+01  0.10196096654E+01 0.  0.
     999903    2    3    3    0    0  0.12233521523E+00 -0.12527012475E-01 -0.39954622613E-01  0.13091036810E+00  0.20452913759E-01 0.  0.
         14    1    1    2    0    0 -0.12695497550E-01 -0.81768382963E-02 -0.18701416201E-01  0.24037040386E-01  0.00000000000E+00 0.  1.
     999901    1    3    3    0    0 -0.10963971768E+00  0.20703850772E-01  0.58656038814E-01  0.88898259152E+00  0.88000000000E+00 0.  1.
        -11    1    4    4    0    0  0.58499450987E-01 -0.15776221343E-01 -0.16212625165E-01  0.62723083959E-01  0.51100000000E-03 0.  1.
         11    1    4    4    0    0  0.63835764240E-01  0.32492088681E-02 -0.23741997448E-01  0.68187284139E-01  0.51100000000E-03 0. -1.
</event>
<event>
 8    1  0.5489035E+004  0.1043930E+01  0.7957747E-01            NaN
         13   -1    0    0    0    0  0.00000000000E+00  0.00000000000E+00  0.74505805969E-08  0.10566000000E+00  0.10566000000E+00 0.  1.
     999900   -1    0    0    0    0 -0.00000000000E+00 -0.00000000000E+00 -0.74505805969E-08  0.93827000000E+00  0.93827000000E+00 0.  1.
     999902    2    1    2    0    0 -0.11255762668E-01 -0.60397543730E-02 -0.20089284792E-01  0.10201234843E+01  0.10198456614E+01 0.  0.
     999903    2    3    3    0    0  0.10247729501E+00 -0.60594966733E-01 -0.49253097718E-01  0.13065060243E+00  0.21687929691E-01 0.  0.
         14    1    1    2    0    0  0.11255762668E-01  0.60397543730E-02  0.20089284792E-01  0.23806515696E-01  0.00000000000E+00 0.  1.
     999901    1    3    3    0    0 -0.11373305768E+00  0.54555212360E-01  0.29163812926E-01  0.88947288187E+00  0.88000000000E+00 0.  1.
        -11    1    4    4    0    0  0.45165944207E-01 -0.33542765681E-01 -0.32989084563E-01  0.65219785855E-01  0.51100000000E-03 0.  1.
         11    1    4    4    0    0  0.57311350805E-01 -0.27052201051E-01 -0.16264013155E-01  0.65430816575E-01  0.51100000000E-03 0. -1.
</event>
<event>
 8    1  0.5489035E+004  0.1043930E+01  0.7957747E-01            NaN
         13   -1    0    0    0    0  0.00000000000E+00  0.00000000000E+00  0.74505805969E-08  0.10566000000E+00  0.10566000000E+00 0. -1.
     999900   -1    0    0    0    0 -0.00000000000E+00 -0.00000000000E+00 -0.74505805969E-08  0.93827000000E+00  0.93827000000E+00 0.  1.
     999902    2    1    2    0    0  0.92119280001E-02 -0.19577451559E-01  0.88031535884E-02  0.10205712385E+01  0.10203038866E+01 0.  0.
     999903    2    3    3    0    0 -0.61934374673E-01  0.11028363740E+00  0.55041013998E-02  0.12819430995E+00  0.20128053245E-01 0.  0.
         14    1    1    2    0    0 -0.92119280001E-02  0.19577451559E-01 -0.88031535884E-02  0.23358761528E-01  0.00000000000E+00 0.  1.
     999901    1    3    3    0    0  0.71146302673E-01 -0.12986108896E+00  0.32990521885E-02  0.89237692852E+00  0.88000000000E+00 0. -1.
        -11    1    4    4    0    0 -0.54757492014E-01  0.10355285762E+00  0.95814069681E-02  0.11753144998E+00  0.51100000000E-03 0.  1.
         11    1    4    4    0    0 -0.71768826584E-02  0.67307797761E-02 -0.40773055683E-02  0.10662859972E-01  0.51100000000E-03 0. -1.
</event>
<event>
 8    1  0.5489035E+004  0.1043930E+01  0.7957747E-01            NaN
         13   -1    0    0    0    0  0.00000000000E+00  0.00000000000E+00  0.74505805969E-08  0.10566000000E+00  0.10566000000E+00 0. -1.
     999900   -1    0    0    0    0 -0.00000000000E+00 -0.00000000000E+00 -0.74505805969E-08  0.93827000000E+00  0.93827000000E+00 0.  1.
     999902    2    1    2    0    0  0.17631085112E-01 -0.14689078959E-01  0.63988817816E-02  0.10201062746E+01  0.10198280451E+01 0.  0.
     999903    2    3    3    0    0  0.49616509858E-01 -0.28954233636E-04 -0.11886876891E+00  0.13053898039E+00  0.21185898420E-01 0.  0.
         14    1    1    2    0    0 -0.17631085112E-01  0.14689078959E-01 -0.63988817816E-02  0.23823725379E-01  0.00000000000E+00 0.  1.
     999901    1    3    3    0    0 -0.31985424745E-01 -0.14660124725E-01  0.12526765069E+00  0.88956729423E+00  0.88000000000E+00 0. -1.
        -11    1    4    4    0    0  0.47782468676E-01 -0.18412534658E-02 -0.93356123127E-01  0.10489128359E+00  0.51100000000E-03 0.  1.
         11    1    4    4    0    0  0.18340411817E-02  0.18122992322E-02 -0.25512645779E-01  0.25647696801E-01  0.51100000000E-03 0. -1.
</event>
<event>
 8    1  0.5489035E+004  0.1043930E+01  0.7957747E-01            NaN
         13   -1    0    0    0    0  0.00000000000E+00  0.00000000000E+00  0.74505805969E-08  0.10566000000E+00  0.10566000000E+00 0. -1.
     999900   -1    0    0    0    0 -0.00000000000E+00 -0.00000000000E+00 -0.74505805969E-08  0.93827000000E+00  0.93827000000E+00 0. -1.
     999902    2    1    2    0    0  0.13182922368E-01 -0.66319721121E-02 -0.18438044973E-01  0.10203136074E+01  0.10200402558E+01 0.  0.
     999903    2    3    3    0    0  0.12474984980E+00 -0.31218363631E-01 -0.26916517128E-01  0.13288836863E+00  0.19942626972E-01 0.  0.
         14    1    1    2    0    0 -0.13182922368E-01  0.66319721121E-02  0.18438044973E-01  0.23616392584E-01  0.00000000000E+00 0. -1.
     999901    1    3    3    0    0 -0.11156692743E+00  0.24586391519E-01  0.84784721546E-02  0.88742523879E+00  0.88000000000E+00 0. -1.
        -11    1    4    4    0    0  0.39436881764E-01 -0.12222562699E-01 -0.17958043571E-01  0.45026782386E-01  0.51100000000E-03 0.  1.
         11    1    4    4    0    0  0.85312968034E-01 -0.18995800933E-01 -0.89584735572E-02  0.87861586244E-01  0.51100000000E-03 0. -1.
</event>
<event>
 8    1  0.5489035E+004  0.1043930E+01  0.7957747E-01            NaN
         13   -1    0    0    0    0  0.00000000000E+00  0.00000000000E+00  0.74505805969E-08  0.10566000000E+00  0.10566000000E+00 0.  1.
     999900   -1    0    0    0    0 -0.00000000000E+00 -0.00000000000E+00 -0.74505805969E-08  0.93827000000E+00  0.93827000000E+00 0.  1.
     999902    2    1    2    0    0 -0.20636351081E-01 -0.33586822090E-02  0.94726975067E-02  0.10209763134E+01  0.10207182573E+01 0.  0.
     999903    2    3    3    0    0 -0.11819488385E+00  0.32950729206E-01  0.49852076298E-01  0.13392133485E+00  0.19847249015E-01 0.  0.
         14    1    1    2    0    0  0.20636351081E-01  0.33586822090E-02 -0.94726975067E-02  0.22953686635E-01  0.00000000000E+00 0. -1.
     999901    1    3    3    0    0  0.97558532770E-01 -0.36309411415E-01 -0.40379378791E-01  0.88705497851E+00  0.88000000000E+00 0.  1.
        -11    1    4    4    0    0 -0.10697212036E+00  0.23585491429E-01  0.41977024696E-01  0.11731002372E+00  0.51100000000E-03 0.  1.
         11    1    4    4    0    0 -0.11222763489E-01  0.93652377764E-02  0.78750516019E-02  0.16611311136E-01  0.51100000000E-03 0. -1.
</event>
<event>
 8    1  0.5489035E+004  0.1043930E+01  0.7957747E-01            NaN
         13   -1    0    0    0    0  0.00000000000E+00  0.00000000000E+00  0.74505805969E-08  0.10566000000E+00  0.10566000000E+00 0.  1.
     999900   -1    0    0    0    0 -0.00000000000E+00 -0.00000000000E+00 -0.74505805969E-08  0.93827000000E+00  0.93827000000E+00 0. -1.
     999902    2    1    2    0    0 -0.17384839931E-01 -0.12395861558E-01  0.89154200099E-02  0.10207918333E+01  0.10205295646E+01 0.  0.
     999903    2    3    3    0    0  0.41024930115E-01  0.31356615010E-01 -0.11643082197E+00  0.12891871408E+00  0.19940319463E-01 0.  0.
         14    1    1    2    0    0  0.17384839931E-01  0.12395861558E-01 -0.89154200099E-02  0.23138166676E-01  0.00000000000E+00 0. -1.
     999901    1    3    3    0    0 -0.58409770046E-01 -0.43752476568E-01  0.12534624198E+00  0.89187311924E+00  0.88000000000E+00 0.  1.
        -11    1    4    4    0    0  0.37197402147E-02  0.13343767843E-01 -0.26629057161E-01  0.30020999547E-01  0.51100000000E-03 0. -1.
         11    1    4    4    0    0  0.37305189901E-01  0.18012847167E-01 -0.89801764811E-01  0.98897714537E-01  0.51100000000E-03 0.  1.
</event>
<event>
 8    1  0.5489035E+004  0.1043930E+01  0.7957747E-01            NaN
         13   -1    0    0    0    0  0.00000000000E+00  0.00000000000E+00  0.74505805969E-08  0.10566000000E+00  0.10566000000E+00 0.  1.
     999900   -1    0    0    0    0 -0.00000000000E+00 -0.00000000000E+00 -0.74505805969E-08  0.93827000000E+00  0.93827000000E+00 0.  1.
     999902    2    1    2    0    0  0.30887584930E-02 -0.22799801769E-01  0.69258466463E-02  0.10199021257E+01  0.10196190501E+01 0.  0.
     999903    2    3    3    0    0 -0.74103104961E-01  0.63781393722E-01 -0.80146514526E-01  0.12802966665E+00  0.20218689433E-01 0.  0.
         14    1    1    2    0    0 -0.30887584930E-02  0.22799801769E-01 -0.69258466463E-02  0.24027874261E-01  0.00000000000E+00 0.  1.
     999901    1    3    3    0    0  0.77191863454E-01 -0.86581195492E-01  0.87072361172E-01  0.89187245909E+00  0.88000000000E+00 0. -1.
        -11    1    4    4    0    0 -0.62363055263E-01  0.59327411875E-01 -0.62536108620E-01  0.10639510545E+00  0.51100000000E-03 0. -1.
         11    1    4    4    0    0 -0.11740049698E-01  0.44539818472E-02 -0.17610405906E-01  0.21634561202E-01  0.51100000000E-03 0.  1.
</event>
<event>
 8    1  0.5489035E+004  0.1043930E+01  0.7957747E-01            NaN
         13   -1    0    0    0    0  0.00000000000E+00  0.00000000000E+00  0.74505805969E-08  0.10566000000E+00  0.10566000000E+00 0.  1.
     999900   -1    0    0    0    0 -0.00000000000E+00 -0.00000000000E+00 -0.74505805969E-08  0.93827000000E+00  0.93827000000E+00 0. -1.
     999902    2    1    2    0    0  0.75131630123E-02 -0.39745891445E-02 -0.22726857304E-01  0.10196657254E+01  0.10193769845E+01 0.  0.
     999903    2    3    3    0    0  0.66020765121E-01 -0.36262272212E-01  0.10204838699E+00  0.12835517598E+00  0.19684615824E-01 0.  0.
         14    1    1    2    0    0 -0.75131630123E-02  0.39745891445E-02  0.22726857304E-01  0.24264274566E-01  0.00000000000E+00 0.  1.
     999901    1    3    3    0    0 -0.58507602109E-01  0.32287683067E-01 -0.12477524429E+00  0.89131054946E+00  0.88000000000E+00 0. -1.
        -11    1    4    4    0    0  0.31891982482E-01 -0.67322247413E-02  0.46351299813E-01  0.56666793733E-01  0.51100000000E-03 0. -1.
         11    1    4    4    0    0  0.34128782639E-01 -0.29530047470E-01  0.55697087176E-01  0.71688382245E-01  0.51100000000E-03 0.  1.
</event>
<event>
 8    1  0.5489035E+004  0.1043930E+01  0.7957747E-01            NaN
         13   -1    0    0    0    0  0.00000000000E+00  0.00000000000E+00  0.74505805969E-08  0.10566000000E+00  0.10566000000E+00 0.  1.
     999900   -1    0    0    0    0 -0.00000000000E+00 -0.00000000000E+00 -0.74505805969E-08  0.93827000000E+00  0.93827000000E+00 0. -1.
     999902    2    1    2    0    0 -0.18709170013E-01  0.12397683660E-01 -0.14166625181E-01  0.10173889211E+01  0.10170426676E+01 0.  0.
     999903    2    3    3    0    0 -0.68959020677E-01  0.42970707267E-01 -0.10101816680E+00  0.13115929644E+00  0.19906350824E-01 0.  0.
         14    1    1    2    0    0  0.18709170013E-01 -0.12397683660E-01  0.14166625181E-01  0.26541078948E-01  0.00000000000E+00 0.  1.
     999901    1    3    3    0    0  0.50249850665E-01 -0.30573023607E-01  0.86851541616E-01  0.88622962462E+00  0.88000000000E+00 0.  1.
        -11    1    4    4    0    0 -0.41714696154E-01  0.17793769727E-01 -0.44404162864E-01  0.63472237372E-01  0.51100000000E-03 0.  1.
         11    1    4    4    0    0 -0.27244324523E-01  0.25176937540E-01 -0.56614003933E-01  0.67687059066E-01  0.51100000000E-03 0. -1.
</event>
<event>
 8    1  0.5489035E+004  0.1043930E+01  0.7957747E-01            NaN
         13   -1    0    0    0    0  0.00000000000E+00  0.00000000000E+00  0.74505805969E-08  0.10566000000E+00  0.10566000000E+00 0. -1.
     999900   -1    0    0    0    0 -0.00000000000E+00 -0.00000000000E+00 -0.74505805969E-08  0.93827000000E+00  0.93827000000E+00 0. -1.
     999902    2    1    2    0    0  0.93945102305E-02  0.20534651580E-01 -0.54195070793E-02  0.10207071708E+01  0.10204429571E+01 0.  0.
     999903    2    3    3    0    0  0.11054636375E+00  0.45791614423E-01 -0.54908774148E-01  0.13317193254E+00  0.20060399966E-01 0.  0.
         14    1    1    2    0    0 -0.93945102305E-02 -0.20534651580E-01  0.54195070793E-02  0.23222829176E-01  0.00000000000E+00 0. -1.
     999901    1    3    3    0    0 -0.10115185352E+00 -0.25256962844E-01  0.49489267069E-01  0.88753523829E+00  0.88000000000E+00 0.  1.
        -11    1    4    4    0    0  0.19312758176E-01  0.10574941023E-01 -0.18686042218E-01  0.28883235636E-01  0.51100000000E-03 0. -1.
         11    1    4    4    0    0  0.91233605579E-01  0.35216673400E-01 -0.36222731930E-01  0.10428869690E+00  0.51100000000E-03 0.  1.
</event>
<event>
 8    1  0.5489035E+004  0.1043930E+01  0.7957747E-01            NaN
         13   -1    0    0    0    0  0.00000000000E+00  0.00000000000E+00  0.74505805969E-08  0.10566000000E+00  0.10566000000E+00 0.  1.
     999900   -1    0    0    0    0 -0.00000000000E+00 -0.00000000000E+00 -0.74505805969E-08  0.93827000000E+00  0.93827000000E+00 0. -1.
     999902    2    1    2    0    0  0.14817378439E-01 -0.17363648507E-01  0.80539072509E-02  0.10197242896E+01  0.10194369575E+01 0.  0.
     999903    2    3    3    0    0  0.82404056971E-01  0.43205838398E-01  0.90310581064E-01  0.13124087264E+00  0.20272950472E-01 0.  0.
         14    1    1    2    0    0 -0.14817378439E-01  0.17363648507E-01 -0.80539072509E-02  0.24205710386E-01  0.00000000000E+00 0. -1.
     999901    1    3    3    0    0 -0.67586678532E-01 -0.60569486905E-01 -0.82256673813E-01  0.88848341698E+00  0.88000000000E+00 0. -1.
        -11    1    4    4    0    0  0.63861151632E-01  0.35633804428E-01  0.58521460757E-01  0.93664492717E-01  0.51100000000E-03 0.  1.
         11    1    4    4    0    0  0.18542905340E-01  0.75720339703E-02  0.31789120307E-01  0.37576379918E-01  0.51100000000E-03 0. -1.
</event>
<event>
 8    1  0.5489035E+004  0.1043930E+01  0.7957747E-01            NaN
         13   -1    0    0    0    0  0.00000000000E+00  0.00000000000E+00  0.74505805969E-08  0.10566000000E+00  0.10566000000E+00 0. -1.
     999900   -1    0    0    0    0 -0.00000000000E+00 -0.00000000000E+00 -0.74505805969E-08  0.93827000000E+00  0.93827000000E+00 0.  1.
     999902    2    1    2    0    0 -0.11624680653E-01  0.53268049010E-02  0.20018913456E-01  0.10201757383E+01  0.10198991480E+01 0.  0.
     999903    2    3    3    0    0  0.47100797614E-01 -0.88904668281E-01  0.81570961606E-01  0.13106556128E+00  0.20045807486E-01 0.  0.
         14    1    1    2    0    0  0.11624680653E-01 -0.53268049010E-02 -0.20018913456E-01  0.23754261654E-01  0.00000000000E+00 0.  1.
     999901    1    3    3    0    0 -0.58725478267E-01  0.94231473182E-01 -0.61552048150E-01  0.88911017707E+00  0.88000000000E+00 0. -1.
        -11    1    4    4    0    0  0.93098162662E-02 -0.31283865972E-01  0.35197018791E-01  0.48004626879E-01  0.51100000000E-03 0.  1.
         11    1    4    4    0    0  0.37790981347E-01 -0.57620802309E-01  0.46373942815E-01  0.83060934398E-01  0.51100000000E-03 0. -1.
</event>
<event>
 8    1  0.5489035E+004  0.1043930E+01  0.7957747E-01            NaN
         13   -1    0    0    0    0  0.00000000000E+00  0.00000000000E+00  0.74505805969E-08  0.10566000000E+00  0.10566000000E+00 0.  1.
     999900   -1    0    0    0    0 -0.00000000000E+00 -0.00000000000E+00 -0.74505805969E-08  0.93827000000E+00  0.93827000000E+00 0.  1.
     999902    2    1    2    0    0 -0.34570046998E-02  0.18022364811E-01 -0.12177360624E-01  0.10219062713E+01  0.10216689203E+01 0.  0.
     999903    2    3    3    0    0  0.10702880517E+00 -0.45853542771E-01  0.54720531974E-01  0.13018738408E+00  0.19917475626E-01 0.  0.
         14    1    1    2    0    0  0.34570046998E-02 -0.18022364811E-01  0.12177360624E-01  0.22023728718E-01  0.00000000000E+00 0.  1.
     999901    1    3    3    0    0 -0.11048580987E+00  0.63875907582E-01 -0.66897892599E-01  0.89171888720E+00  0.88000000000E+00 0.  1.
        -11    1    4    4    0    0  0.98220483930E-01 -0.35634962412E-01  0.46373888106E-01  0.11431497115E+00  0.51100000000E-03 0.  1.
         11    1    4    4    0    0  0.88083212359E-02 -0.10218580359E-01  0.83466438688E-02  0.15872412937E-01  0.51100000000E-03 0. -1.
</event>
<event>
 8    1  0.5489035E+004  0.1043930E+01  0.7957747E-01            NaN
         13   -1    0    0    0    0  0.00000000000E+00  0.00000000000E+00  0.74505805969E-08  0.10566000000E+00  0.10566000000E+00 0.  1.
     999900   -1    0    0    0    0 -0.00000000000E+00 -0.00000000000E+00 -0.74505805969E-08  0.93827000000E+00  0.93827000000E+00 0.  1.
     999902    2    1    2    0    0  0.96708563035E-02  0.35038923333E-02 -0.20137345229E-02  0.10334486905E+01  0.10333955380E+01 0.  0.
     999903    2    3    3    0    0 -0.10595772971E+00  0.52326024529E-01 -0.74835620809E-01  0.14156495497E+00  0.21799380846E-01 0.  0.
         14    1    1    2    0    0 -0.96708563035E-02 -0.35038923333E-02  0.20137345229E-02  0.10481309549E-01  0.00000000000E+00 0. -1.
     999901    1    3    3    0    0  0.11562858601E+00 -0.48822132196E-01  0.72821886286E-01  0.89188373548E+00  0.88000000000E+00 0. -1.
        -11    1    4    4    0    0 -0.40318143576E-01  0.84317443082E-02 -0.26469498288E-01  0.48964706413E-01  0.51100000000E-03 0. -1.
         11    1    4    4    0    0 -0.65639586134E-01  0.43894280221E-01 -0.48366122522E-01  0.92600248556E-01  0.51100000000E-03 0.  1.
</event>
<event>
 8    1  0.5489035E+004  0.1043930E+01  0.7957747E-01            NaN
         13   -1    0    0    0    0  0.00000000000E+00  0.00000000000E+00  0.74505805969E-08  0.10566000000E+00  0.10566000000E+00 0.  1.
     999900   -1    0    0    0    0 -0.00000000000E+00 -0.00000000000E+00 -0.74505805969E-08  0.93827000000E+00  0.93827000000E+00 0.  1.
     999902    2    1    2    0    0  0.16944359468E-01  0.90996694139E-02  0.15409466025E-01  0.10192851842E+01  0.10189872030E+01 0.  0.
     999903    2    3    3    0    0 -0.78475684809E-01 -0.90442237982E-01  0.40988932594E-01  0.12818031650E+00  0.20294566411E-01 0.  0.
         14    1    1    2    0    0 -0.16944359468E-01 -0.90996694139E-02 -0.15409466025E-01  0.24644815771E-01  0.00000000000E+00 0.  1.
     999901    1    3    3    0    0  0.95420044277E-01  0.99541907396E-01 -0.25579466570E-01  0.89110486773E+00  0.88000000000E+00 0. -1.
        -11    1    4    4    0    0 -0.65041337023E-01 -0.73819412173E-01  0.41534274518E-01  0.10679437352E+00  0.51100000000E-03 0. -1.
         11    1    4    4    0    0 -0.13434347786E-01 -0.16622825808E-01 -0.54534192319E-03  0.21385942979E-01  0.51100000000E-03 0.  1.
</event>
<event>
 8    1  0.5489035E+004  0.1043930E+01  0.7957747E-01            NaN
         13   -1    0    0    0    0  0.00000000000E+00  0.00000000000E+00  0.74505805969E-08  0.10566000000E+00  0.10566000000E+00 0. -1.
     999900   -1    0    0    0    0 -0.00000000000E+00 -0.00000000000E+00 -0.74505805969E-08  0.93827000000E+00  0.93827000000E+00 0.  1.
     999902    2    1    2    0    0 -0.18849267111E-01 -0.14392047695E-01  0.79307518997E-02  0.10189235462E+01  0.10186166454E+01 0.  0.
     999903    2    3    3    0    0 -0.21109600557E-01 -0.88170504529E-01  0.93453897972E-01  0.13170171466E+00  0.19800441730E-01 0.  0.
         14    1    1    2    0    0  0.18849267111E-01  0.14392047695E-01 -0.79307518997E-02  0.25006453830E-01  0.00000000000E+00 0.  1.
     999901    1    3    3    0    0  0.22603334464E-02  0.73778456834E-01 -0.85523146072E-01  0.88722183151E+00  0.88000000000E+00 0. -1.
        -11    1    4    4    0    0 -0.13840362747E-01 -0.82243702014E-01  0.83598109854E-01  0.11808677849E+00  0.51100000000E-03 0. -1.
         11    1    4    4    0    0 -0.72692378101E-02 -0.59268025146E-02  0.98557881175E-02  0.13614936166E-01  0.51100000000E-03 0.  1.
</event>
<event>
 8    1  0.5489035E+004  0.1043930E+01  0.7957747E-01            NaN
         13   -1    0    0    0    0  0.00000000000E+00  0.00000000000E+00  0.74505805969E-08  0.10566000000E+00  0.10566000000E+00 0. -1.
     999900   -1    0    0    0    0 -0.00000000000E+00 -0.00000000000E+00 -0.74505805969E-08  0.93827000000E+00  0.93827000000E+00 0.  1.
     999902    2    1    2    0    0 -0.10368386066E-01  0.14296847486E-01  0.18302530955E-01  0.10184960479E+01  0.10181784292E+01 0.  0.
     999903    2    3    3    0    0  0.11552373770E+00 -0.14643050671E-01  0.50654251540E-01  0.12847752097E+00  0.19505570783E-01 0.  0.
         14    1    1    2    0    0  0.10368386066E-01 -0.14296847486E-01 -0.18302530955E-01  0.25433952052E-01  0.00000000000E+00 0.  1.
     999901    1    3    3    0    0 -0.12589212377E+00  0.28939898157E-01 -0.32351720585E-01  0.89001852697E+00  0.88000000000E+00 0.  1.
        -11    1    4    4    0    0  0.95664893594E-01 -0.53585389629E-02  0.44854912120E-01  0.10579560515E+00  0.51100000000E-03 0.  1.
         11    1    4    4    0    0  0.19858844105E-01 -0.92845117086E-02  0.57993394201E-02  0.22681915827E-01  0.51100000000E-03 0. -1.
</event>
<event>
 8    1  0.5489035E+004  0.1043930E+01  0.7957747E-01            NaN
         13   -1    0    0    0    0  0.00000000000E+00  0.00000000000E+00  0.74505805969E-08  0.10566000000E+00  0.10566000000E+00 0.  1.
     999900   -1    0    0    0    0 -0.00000000000E+00 -0.00000000000E+00 -0.74505805969E-08  0.93827000000E+00  0.93827000000E+00 0.  1.
     999902    2    1    2    0    0 -0.16848427618E-01 -0.60153489139E-02 -0.15548259429E-01  0.10202276308E+01  0.10199522618E+01 0.  0.
     999903    2    3    3    0    0 -0.47387256985E-01 -0.63826794206E-02 -0.12210813217E+00  0.13327342592E+00  0.23772239951E-01 0.  0.
         14    1    1    2    0    0  0.16848427618E-01  0.60153489139E-02  0.15548259429E-01  0.23702369228E-01  0.00000000000E+00 0.  1.
     999901    1    3    3    0    0  0.30538829367E-01  0.36733050671E-03  0.10655987274E+00  0.88695420485E+00  0.88000000000E+00 0. -1.
        -11    1    4    4    0    0 -0.29225296773E-01  0.70161316215E-02 -0.58374082437E-01  0.65659262072E-01  0.51100000000E-03 0. -1.
         11    1    4    4    0    0 -0.18161960212E-01 -0.13398811042E-01 -0.63734049734E-01  0.67614163846E-01  0.51100000000E-03 0.  1.
</event>
<event>
 8    1  0.5489035E+004  0.1043930E+01  0.7957747E-01            NaN
         13   -1    0    0    0    0  0.00000000000E+00  0.00000000000E+00  0.74505805969E-08  0.10566000000E+00  0.10566000000E+00 0.  1.
     999900   -1    0    0    0    0 -0.00000000000E+00 -0.00000000000E+00 -0.74505805969E-08  0.93827000000E+00  0.93827000000E+00 0.  1.
     999902    2    1    2    0    0  0.10319638144E-01 -0.13427143577E-01 -0.14663515216E-01  0.10215290671E+01  0.10212834245E+01 0.  0.
     999903    2    3    3    0    0  0.36831017493E-01 -0.73205513955E-01  0.10101498320E+00  0.13155276304E+00  0.19660404636E-01 0.  0.
         14    1    1    2    0    0 -0.10319638144E-01  0.13427143577E-01  0.14663515216E-01  0.22400932894E-01  0.00000000000E+00 0.  1.
     999901    1    3    3    0    0 -0.26511379350E-01  0.59778370378E-01 -0.11567849841E+00  0.88997630406E+00  0.88000000000E+00 0.  1.
        -11    1    4    4    0    0  0.69777327578E-04 -0.17622423899E-01  0.21521078001E-01  0.27820363266E-01  0.51100000000E-03 0.  1.
         11    1    4    4    0    0  0.36761240166E-01 -0.55583090056E-01  0.79493905197E-01  0.10373239978E+00  0.51100000000E-03 0. -1.
</event>
<event>
 8    1  0.5489035E+004  0.1043930E+01  0.7957747E-01            NaN
         13   -1    0    0    0    0  0.00000000000E+00  0.00000000000E+00  0.74505805969E-08  0.10566000000E+00  0.10566000000E+00 0.  1.
     999900   -1    0    0    0    0 -0.00000000000E+00 -0.00000000000E+00 -0.74505805969E-08  0.93827000000E+00  0.93827000000E+00 0.  1.
     999902    2    1    2    0    0 -0.13459437544E-01 -0.20687006537E-01 -0.30387824211E-02  0.10190634985E+01  0.10187600655E+01 0.  0.
     999903    2    3    3    0    0 -0.60050958488E-01 -0.30735265078E-01 -0.11073949621E+00  0.13121712605E+00  0.20097860906E-01 0.  0.
         14    1    1    2    0    0  0.13459437544E-01  0.20687006537E-01  0.30387824211E-02  0.24866501505E-01  0.00000000000E+00 0. -1.
     999901    1    3    3    0    0  0.46591520944E-01  0.10048258540E-01  0.10770071378E+00  0.88784637245E+00  0.88000000000E+00 0. -1.
        -11    1    4    4    0    0 -0.54846691722E-01 -0.24415850271E-01 -0.10578407208E+00  0.12163397702E+00  0.51100000000E-03 0.  1.
         11    1    4    4    0    0 -0.52042667660E-02 -0.63194148069E-02 -0.49554241214E-02  0.95831490282E-02  0.51100000000E-03 0. -1.
</event>
<event>
 8    1  0.5489035E+004  0.1043930E+01  0.7957747E-01            NaN
         13   -1    0    0    0    0  0.00000000000E+00  0.00000000000E+00  0.74505805969E-08  0.10566000000E+00  0.10566000000E+00 0.  1.
     999900   -1    0    0    0    0 -0.00000000000E+00 -0.00000000000E+00 -0.74505805969E-08  0.93827000000E+00  0.93827000000E+00 0.  1.
     999902    2    1    2    0    0 -0.33858956577E-02 -0.21653257917E-01 -0.72204964811E-02  0.10208548307E+01  0.10205940045E+01 0.  0.
     999903    2    3    3    0    0 -0.62538127193E-01 -0.11102329749E+00 -0.35476323915E-01  0.13390253085E+00  0.20835745021E-01 0.  0.
         14    1    1    2    0    0  0.33858956577E-02  0.21653257917E-01  0.72204964811E-02  0.23075169279E-01  0.00000000000E+00 0.  1.
     999901    1    3    3    0    0  0.59152231535E-01  0.89370039571E-01  0.28255827434E-01  0.88695229987E+00  0.88000000000E+00 0. -1.
        -11    1    4    4    0    0 -0.58967435719E-01 -0.89003178623E-01 -0.30562709228E-01  0.11105433173E+00  0.51100000000E-03 0.  1.
         11    1    4    4    0    0 -0.35706914742E-02 -0.22020118865E-01 -0.49136146866E-02  0.22848199114E-01  0.51100000000E-03 0. -1.
</event>
<event>
 8    1  0.5489035E+004  0.1043930E+01  0.7957747E-01            NaN
         13   -1    0    0    0    0  0.00000000000E+00  0.00000000000E+00  0.74505805969E-08  0.10566000000E+00  0.10566000000E+00 0.  1.
     999900   -1    0    0    0    0 -0.00000000000E+00 -0.00000000000E+00 -0.74505805969E-08  0.93827000000E+00  0.93827000000E+00 0.  1.
     999902    2    1    2    0    0  0.18123037861E-01 -0.11234398017E-01 -0.74152129872E-02  0.10213547573E+01  0.10211052339E+01 0.  0.
     999903    2    3    3    0    0  0.24895940759E-01 -0.80605676099E-01 -0.10153516930E+00  0.13359532331E+00  0.20524057100E-01 0.  0.
         14    1    1    2    0    0 -0.18123037861E-01  0.11234398017E-01  0.74152129872E-02  0.22575242717E-01  0.00000000000E+00 0. -1.
     999901    1    3    3    0    0 -0.67729028983E-02  0.69371278082E-01  0.94119956309E-01  0.88775943398E+00  0.88000000000E+00 0. -1.
        -11    1    4    4    0    0  0.16039415478E-01 -0.38656797556E-01 -0.64756911111E-01  0.77105962830E-01  0.51100000000E-03 0. -1.
         11    1    4    4    0    0  0.88565252808E-02 -0.41948878543E-01 -0.36778258185E-01  0.56489360478E-01  0.51100000000E-03 0.  1.
</event>
<event>
 8    1  0.5489035E+004  0.1043930E+01  0.7957747E-01            NaN
         13   -1    0    0    0    0  0.00000000000E+00  0.00000000000E+00  0.74505805969E-08  0.10566000000E+00  0.10566000000E+00 0.  1.
     999900   -1    0    0    0    0 -0.00000000000E+00 -0.00000000000E+00 -0.74505805969E-08  0.93827000000E+00  0.93827000000E+00 0.  1.
     999902    2    1    2    0    0 -0.61763570090E-02  0.22257535507E-01  0.77481778932E-02  0.10195665123E+01  0.10192753767E+01 0.  0.
     999903    2    3    3    0    0 -0.21131679834E-01 -0.30647514110E-01  0.12327666979E+00  0.13031433299E+00  0.19971731383E-01 0.  0.
         14    1    1    2    0    0  0.61763570090E-02 -0.22257535507E-01 -0.77481778932E-02  0.24363487710E-01  0.00000000000E+00 0.  1.
     999901    1    3    3    0    0  0.14955322825E-01  0.52905049617E-01 -0.11552849189E+00  0.88925217930E+00  0.88000000000E+00 0.  1.
        -11    1    4    4    0    0 -0.23785775434E-01 -0.20064927609E-01  0.96540959541E-01  0.10143363556E+00  0.51100000000E-03 0. -1.
         11    1    4    4    0    0  0.26540955997E-02 -0.10582586501E-01  0.26735710246E-01  0.28880697427E-01  0.51100000000E-03 0.  1.
</event>
<event>
 8    1  0.5489035E+004  0.1043930E+01  0.7957747E-01            NaN
         13   -1    0    0    0    0  0.00000000000E+00  0.00000000000E+00  0.74505805969E-08  0.10566000000E+00  0.10566000000E+00 0.  1.
     999900   -1    0    0    0    0 -0.00000000000E+00 -0.00000000000E+00 -0.74505805969E-08  0.93827000000E+00  0.93827000000E+00 0.  1.
     999902    2    1    2    0    0  0.11196145206E-02 -0.17148489085E-01 -0.17405382074E-01  0.10194704101E+01  0.10191769451E+01 0.  0.
     999903    2    3    3    0    0  0.26315042721E-01  0.12270406806E+00  0.10974950219E-01  0.12761897031E+00  0.20429935310E-01 0.  0.
         14    1    1    2    0    0 -0.11196145206E-02  0.17148489085E-01  0.17405382074E-01  0.24459589934E-01  0.00000000000E+00 0.  1.
     999901    1    3    3    0    0 -0.25195428200E-01 -0.13985255715E+00 -0.28380332293E-01  0.89185143976E+00  0.88000000000E+00 0.  1.
        -11    1    4    4    0    0  0.78578531073E-02  0.81936958503E-01  0.49712318111E-02  0.82464448649E-01  0.51100000000E-03 0.  1.
         11    1    4    4    0    0  0.18457189613E-01  0.40767109560E-01  0.60037184076E-02  0.45154521657E-01  0.51100000000E-03 0. -1.
</event>
<event>
 8    1  0.5489035E+004  0.1043930E+01  0.7957747E-01            NaN
         13   -1    0    0    0    0  0.00000000000E+00  0.00000000000E+00  0.74505805969E-08  0.10566000000E+00  0.10566000000E+00 0. -1.
     999900   -1    0    0    0    0 -0.00000000000E+00 -0.00000000000E+00 -0.74505805969E-08  0.93827000000E+00  0.93827000000E+00 0.  1.
     999902    2    1    2    0    0 -0.18046891729E-01 -0.10318652525E-02  0.16271374057E-01  0.10196089667E+01  0.10193188570E+01 0.  0.
     999903    2    3    3    0    0  0.10026933924E+00 -0.14688242870E-01 -0.74718379039E-01  0.12693637144E+00  0.16134477325E-01 0.  0.
         14    1    1    2    0    0  0.18046891729E-01  0.10318652525E-02 -0.16271374057E-01  0.24321033297E-01  0.00000000000E+00 0.  1.
     999901    1    3    3    0    0 -0.11831623097E+00  0.13656377618E-01  0.90989753095E-01  0.89267259526E+00  0.88000000000E+00 0. -1.
        -11    1    4    4    0    0  0.53781401368E-01 -0.10533636098E-01 -0.49666851725E-01  0.73962516884E-01  0.51100000000E-03 0. -1.
         11    1    4    4    0    0  0.46487937872E-01 -0.41546067719E-02 -0.25051527314E-01  0.52973854558E-01  0.51100000000E-03 0.  1.
</event>
<event>
 8    1  0.5489035E+004  0.1043930E+01  0.7957747E-01            NaN
         13   -1    0    0    0    0  0.00000000000E+00  0.00000000000E+00  0.74505805969E-08  0.10566000000E+00  0.10566000000E+00 0. -1.
     999900   -1    0    0    0    0 -0.00000000000E+00 -0.00000000000E+00 -0.74505805969E-08  0.93827000000E+00  0.93827000000E+00 0. -1.
     999902    2    1    2    0    0  0.21045681959E-01 -0.12216327572E-01  0.37708127186E-02  0.10193052479E+01  0.10190077575E+01 0.  0.
     999903    2    3    3    0    0  0.12354222102E+00  0.38811879947E-01  0.12004719373E-01  0.13184977536E+00  0.21707316223E-01 0.  0.
         14    1    1    2    0    0 -0.21045681959E-01  0.12216327572E-01 -0.37708127186E-02  0.24624752121E-01  0.00000000000E+00 0.  1.
     999901    1    3    3    0    0 -0.10249653906E+00 -0.51028207519E-01 -0.82339066539E-02  0.88745547252E+00  0.88000000000E+00 0. -1.
        -11    1    4    4    0    0  0.69359325049E-01  0.29997747464E-01 -0.38691749118E-03  0.75571103276E-01  0.51100000000E-03 0. -1.
         11    1    4    4    0    0  0.54182895966E-01  0.88141324829E-02  0.12391636864E-01  0.56278672087E-01  0.51100000000E-03 0.  1.
</event>
<event>
 8    1  0.5489035E+004  0.1043930E+01  0.7957747E-01            NaN
         13   -1    0    0    0    0  0.00000000000E+00  0.00000000000E+00  0.74505805969E-08  0.10566000000E+00  0.10566000000E+00 0. -1.
     999900   -1    0    0    0    0 -0.00000000000E+00 -0.00000000000E+00 -0.74505805969E-08  0.93827000000E+00  0.93827000000E+00 0. -1.
     999902    2    1    2    0    0 -0.17104259371E-02 -0.19511339758E-01  0.13086884108E-01  0.10203740141E+01  0.10201020754E+01 0.  0.
     999903    2    3    3    0    0  0.16608606864E-01 -0.10955421806E+00  0.72311516105E-01  0.13360974783E+00  0.18564397058E-01 0.  0.
         14    1    1    2    0    0  0.17104259371E-02  0.19511339758E-01 -0.13086884108E-01  0.23555985899E-01  0.00000000000E+00 0.  1.
     999901    1    3    3    0    0 -0.18319032801E-01  0.90042878300E-01 -0.59224631997E-01  0.88676426627E+00  0.88000000000E+00 0. -1.
        -11    1    4    4    0    0  0.12242235135E-01 -0.82011257461E-01  0.44020981361E-01  0.93881982256E-01  0.51100000000E-03 0. -1.
         11    1    4    4    0    0  0.43663717288E-02 -0.27542960597E-01  0.28290534745E-01  0.39727765576E-01  0.51100000000E-03 0.  1.
</event>
<event>
 8    1  0.5489035E+004  0.1043930E+01  0.7957747E-01            NaN
         13   -1    0    0    0    0  0.00000000000E+00  0.00000000000E+00  0.74505805969E-08  0.10566000000E+00  0.10566000000E+00 0.  1.
     999900   -1    0    0    0    0 -0.00000000000E+00 -0.00000000000E+00 -0.74505805969E-08  0.93827000000E+00  0.93827000000E+00 0. -1.
     999902    2    1    2    0    0 -0.13168750310E-01  0.17572475761E-01 -0.86958487883E-02  0.10203116665E+01  0.10200382695E+01 0.  0.
     999903    2    3    3    0    0  0.12198604368E+00  0.39751927390E-01  0.65154609358E-02  0.12958716909E+00  0.17016832205E-01 0.  0.
         14    1    1    2    0    0  0.13168750310E-01 -0.17572475761E-01  0.86958487883E-02  0.23618333457E-01  0.00000000000E+00 0. -1.
     999901    1    3    3    0    0 -0.13515479399E+00 -0.22179451629E-01 -0.15211309724E-01  0.89072449745E+00  0.88000000000E+00 0.  1.
        -11    1    4    4    0    0  0.96548754665E-01  0.30125835294E-01 -0.17517582309E-02  0.10115610588E+00  0.51100000000E-03 0. -1.
         11    1    4    4    0    0  0.25437289016E-01  0.96260920955E-02  0.82672191667E-02  0.28431063210E-01  0.51100000000E-03 0.  1.
</event>
<event>
 8    1  0.5489035E+004  0.1043930E+01  0.7957747E-01            NaN
         13   -1    0    0    0    0  0.00000000000E+00  0.00000000000E+00  0.74505805969E-08  0.10566000000E+00  0.10566000000E+00 0. -1.
     999900   -1    0    0    0    0 -0.00000000000E+00 -0.00000000000E+00 -0.74505805969E-08  0.93827000000E+00  0.93827000000E+00 0.  1.
     999902    2    1    2    0    0  0.22541110183E-01 -0.98763022584E-03 -0.42460695677E-02  0.10209712072E+01  0.10207130349E+01 0.  0.
     999903    2    3    3    0    0  0.11126994167E+00 -0.70948200015E-01 -0.22359428398E-02  0.13374444502E+00  0.21631692675E-01 0.  0.
         14    1    1    2    0    0 -0.22541110183E-01  0.98763022584E-03  0.42460695677E-02  0.22958792837E-01  0.00000000000E+00 0. -1.
     999901    1    3    3    0    0 -0.88728831484E-01  0.69960569790E-01 -0.20101267279E-02  0.88722676215E+00  0.88000000000E+00 0.  1.
        -11    1    4    4    0    0  0.64211156148E-01 -0.42836490469E-01  0.92295301677E-02  0.77739840736E-01  0.51100000000E-03 0. -1.
         11    1    4    4    0    0  0.47058785519E-01 -0.28111709547E-01 -0.11465473008E-01  0.56004604279E-01  0.51100000000E-03 0.  1.
</event>
<event>
 8    1  0.5489035E+004  0.1043930E+01  0.7957747E-01            NaN
         13   -1    0    0    0    0  0.00000000000E+00  0.00000000000E+00  0.74505805969E-08  0.10566000000E+00  0.10566000000E+00 0.  1.
     999900   -1    0    0    0    0 -0.00000000000E+00 -0.00000000000E+00 -0.74505805969E-08  0.93827000000E+00  0.93827000000E+00 0.  1.
     999902    2    1    2    0    0 -0.14482397560E-01 -0.14632249184E-01 -0.95710969115E-02  0.10212265102E+01  0.10209741116E+01 0.  0.
     999903    2    3    3    0    0  0.11410220990E+00 -0.30420798629E-01 -0.53932406077E-01  0.13063614117E+00  0.14572496782E-01 0.  0.
         14    1    1    2    0    0  0.14482397560E-01  0.14632249184E-01  0.95710969115E-02  0.22703489850E-01  0.00000000000E+00 0. -1.
     999901    1    3    3    0    0 -0.12858460745E+00  0.15788549445E-01  0.44361309166E-01  0.89059036898E+00  0.88000000000E+00 0.  1.
        -11    1    4    4    0    0  0.72894770462E-01 -0.19284860008E-01 -0.41994630790E-01  0.86309695414E-01  0.51100000000E-03 0.  1.
         11    1    4    4    0    0  0.41207439434E-01 -0.11135938621E-01 -0.11937775287E-01  0.44326445757E-01  0.51100000000E-03 0. -1.
</event>
<event>
 8    1  0.5489035E+004  0.1043930E+01  0.7957747E-01            NaN
         13   -1    0    0    0    0  0.00000000000E+00  0.00000000000E+00  0.74505805969E-08  0.10566000000E+00  0.10566000000E+00 0. -1.
     999900   -1    0    0    0    0 -0.00000000000E+00 -0.00000000000E+00 -0.74505805969E-08  0.93827000000E+00  0.93827000000E+00 0. -1.
     999902    2    1    2    0    0  0.94268410125E-02 -0.19631719964E-01  0.97249960997E-02  0.10200795218E+01  0.10198006597E+01 0.  0.
     999903    2    3    3    0    0 -0.88180834270E-01 -0.25443533966E-01 -0.88084435513E-01  0.12927779283E+00  0.23035776243E-01 0.  0.
         14    1    1    2    0    0 -0.94268410125E-02  0.19631719964E-01 -0.97249960997E-02  0.23850478178E-01  0.00000000000E+00 0. -1.
     999901    1    3    3    0    0  0.97607675282E-01  0.58118140022E-02  0.97809431612E-01  0.89080172899E+00  0.88000000000E+00 0.  1.
        -11    1    4    4    0    0 -0.32661551374E-01 -0.20717609158E-01 -0.31785704736E-01  0.50065840789E-01  0.51100000000E-03 0.  1.
         11    1    4    4    0    0 -0.55519282896E-01 -0.47259248074E-02 -0.56298730777E-01  0.79211952044E-01  0.51100000000E-03 0. -1.
</event>
<event>
 8    1  0.5489035E+004  0.1043930E+01  0.7957747E-01            NaN
         13   -1    0    0    0    0  0.00000000000E+00  0.00000000000E+00  0.74505805969E-08  0.10566000000E+00  0.10566000000E+00 0.  1.
     999900   -1    0    0    0    0 -0.00000000000E+00 -0.00000000000E+00 -0.74505805969E-08  0.93827000000E+00  0.93827000000E+00 0.  1.
     999902    2    1    2    0    0  0.12437150278E-02 -0.10464510635E-01 -0.19231053404E-01  0.10220008818E+01  0.10217655877E+01 0.  0.
     999903    2    3    3    0    0  0.29748509319E-01  0.11721383500E-01 -0.12931019976E+00  0.13440741875E+00  0.17940507623E-01 0.  0.
         14    1    1    2    0    0 -0.12437150278E-02  0.10464510635E-01  0.19231053404E-01  0.21929118198E-01  0.00000000000E+00 0.  1.
     999901    1    3    3    0    0 -0.28504794291E-01 -0.22185894135E-01  0.11007914636E+00  0.88759346306E+00  0.88000000000E+00 0. -1.
        -11    1    4    4    0    0  0.25957873225E-01  0.19157038782E-02 -0.96529010094E-01  0.99977957643E-01  0.51100000000E-03 0.  1.
         11    1    4    4    0    0  0.37906360943E-02  0.98056796220E-02 -0.32781189668E-01  0.34429461104E-01  0.51100000000E-03 0. -1.
</event>
<event>
 8    1  0.5489035E+004  0.1043930E+01  0.7957747E-01            NaN
         13   -1    0    0    0    0  0.00000000000E+00  0.00000000000E+00  0.74505805969E-08  0.10566000000E+00  0.10566000000E+00 0. -1.
     999900   -1    0    0    0    0 -0.00000000000E+00 -0.00000000000E+00 -0.74505805969E-08  0.93827000000E+00  0.93827000000E+00 0.  1.
     999902    2    1    2    0    0 -0.11889587586E-01 -0.16661519144E-01 -0.12696303824E-01  0.10198433929E+01  0.10195589151E+01 0.  0.
     999903    2    3    3    0    0  0.88368201002E-01 -0.67277996195E-01 -0.66755725856E-01  0.13105991358E+00  0.19624125242E-01 0.  0.
         14    1    1    2    0    0  0.11889587586E-01  0.16661519144E-01  0.12696303824E-01  0.24086607149E-01  0.00000000000E+00 0. -1.
     999901    1    3    3    0    0 -0.10025778859E+00  0.50616477051E-01  0.54059422032E-01  0.88878347927E+00  0.88000000000E+00 0. -1.
        -11    1    4    4    0    0  0.34500920210E-01 -0.20247773770E-01 -0.33564339814E-01  0.52221756636E-01  0.51100000000E-03 0. -1.
         11    1    4    4    0    0  0.53867280792E-01 -0.47030222425E-01 -0.33191386042E-01  0.78838156940E-01  0.51100000000E-03 0.  1.
</event>
<event>
 8    1  0.5489035E+004  0.1043930E+01  0.7957747E-01            NaN
         13   -1    0    0    0    0  0.00000000000E+00  0.00000000000E+00  0.74505805969E-08  0.10566000000E+00  0.10566000000E+00 0. -1.
     999900   -1    0    0    0    0 -0.00000000000E+00 -0.00000000000E+00 -0.74505805969E-08  0.93827000000E+00  0.93827000000E+00 0.  1.
     999902    2    1    2    0    0  0.25241153512E-01 -0.49300657249E-02  0.17042392994E-02  0.10181554814E+01  0.10178291892E+01 0.  0.
     999903    2    3    3    0    0 -0.12168521449E+00  0.13870920165E-01 -0.18518906136E-01  0.12554705082E+00  0.20479702948E-01 0.  0.
         14    1    1    2    0    0 -0.25241153512E-01  0.49300657249E-02 -0.17042392994E-02  0.25774518623E-01  0.00000000000E+00 0.  1.
     999901    1    3    3    0    0  0.14692636801E+00 -0.18800985890E-01  0.20223145435E-01  0.89260843055E+00  0.88000000000E+00 0.  1.
        -11    1    4    4    0    0 -0.69153195059E-01 -0.22356626854E-02 -0.11788635208E-01  0.70188286883E-01  0.51100000000E-03 0.  1.
         11    1    4    4    0    0 -0.52532019436E-01  0.16106582851E-01 -0.67302709280E-02  0.55358763939E-01  0.51100000000E-03 0. -1.
</event>
<event>
 8    1  0.5489035E+004  0.1043930E+01  0.7957747E-01            NaN
         13   -1    0    0    0    0  0.00000000000E+00  0.00000000000E+00  0.74505805969E-08  0.10566000000E+00  0.10566000000E+00 0. -1.
     999900   -1    0    0    0    0 -0.00000000000E+00 -0.00000000000E+00 -0.74505805969E-08  0.93827000000E+00  0.93827000000E+00 0. -1.
     999902    2    1    2    0    0  0.44718437543E-02 -0.95980270120E-02 -0.23845415338E-01  0.10178393246E+01  0.10175048734E+01 0.  0.
     999903    2    3    3    0    0 -0.93146134492E-02 -0.99503700167E-01 -0.82711806617E-01  0.13119489279E+00  0.19573159449E-01 0.  0.
         14    1    1    2    0    0 -0.44718437543E-02  0.95980270120E-02  0.23845415338E-01  0.26090675378E-01  0.00000000000E+00 0. -1.
     999901    1    3    3    0    0  0.13786457204E-01  0.89905673155E-01  0.58866391280E-01  0.88664443183E+00  0.88000000000E+00 0.  1.
        -11    1    4    4    0    0 -0.82472628274E-02 -0.36891957838E-01 -0.20872857630E-01  0.43185312363E-01  0.51100000000E-03 0.  1.
         11    1    4    4    0    0 -0.10673506218E-02 -0.62611742329E-01 -0.61838948988E-01  0.88009580432E-01  0.51100000000E-03 0. -1.
</event>
<event>
 8    1  0.5489035E+004  0.1043930E+01  0.7957747E-01            NaN
         13   -1    0    0    0    0  0.00000000000E+00  0.00000000000E+00  0.74505805969E-08  0.10566000000E+00  0.10566000000E+00 0.  1.
     999900   -1    0    0    0    0 -0.00000000000E+00 -0.00000000000E+00 -0.74505805969E-08  0.93827000000E+00  0.93827000000E+00 0. -1.
     999902    2    1    2    0    0 -0.19835668029E-01  0.10223852281E-01 -0.54435500412E-02  0.10209601694E+01  0.10207017460E+01 0.  0.
     999903    2    3    3    0    0 -0.36954974738E-01 -0.12002970701E+00  0.29324833787E-01  0.13052886889E+00  0.20125581104E-01 0.  0.
         14    1    1    2    0    0  0.19835668029E-01 -0.10223852281E-01  0.54435500412E-02  0.22969830619E-01  0.00000000000E+00 0.  1.
     999901    1    3    3    0    0  0.17119306709E-01  0.13025355929E+00 -0.34768383829E-01  0.89043130049E+00  0.88000000000E+00 0. -1.
        -11    1    4    4    0    0 -0.16549418831E-01 -0.53692226230E-01  0.23415064249E-01  0.60870886111E-01  0.51100000000E-03 0. -1.
         11    1    4    4    0    0 -0.20405555907E-01 -0.66337480783E-01  0.59097695389E-02  0.69657982783E-01  0.51100000000E-03 0.  1.
</event>
<event>
 8    1  0.5489035E+004  0.1043930E+01  0.7957747E-01            NaN
         13   -1    0    0    0    0  0.00000000000E+00  0.00000000000E+00  0.74505805969E-08  0.10566000000E+00  0.10566000000E+00 0.  1.
     999900   -1    0    0    0    0 -0.00000000000E+00 -0.00000000000E+00 -0.74505805969E-08  0.93827000000E+00  0.93827000000E+00 0.  1.
     999902    2    1    2    0    0  0.14957331935E-02 -0.22329737094E-01 -0.57084280021E-04  0.10215501511E+01  0.10213049758E+01 0.  0.
     999903    2    3    3    0    0  0.95949878795E-02 -0.79298923459E-01  0.10501075426E+00  0.13343397810E+00  0.19924481068E-01 0.  0.
         14    1    1    2    0    0 -0.14957331935E-02  0.22329737094E-01  0.57084280021E-04  0.22379848862E-01  0.00000000000E+00 0.  1.
     999901    1    3    3    0    0 -0.80992546860E-02  0.56969186366E-01 -0.10506783854E+00  0.88811617304E+00  0.88000000000E+00 0.  1.
        -11    1    4    4    0    0  0.75743666094E-02 -0.41690096084E-01  0.71001503906E-01  0.82685608294E-01  0.51100000000E-03 0. -1.
         11    1    4    4    0    0  0.20206212701E-02 -0.37608827375E-01  0.34009250356E-01  0.50748369803E-01  0.51100000000E-03 0.  1.
</event>
<event>
 8    1  0.5489035E+004  0.1043930E+01  0.7957747E-01            NaN
         13   -1    0    0    0    0  0.00000000000E+00  0.00000000000E+00  0.74505805969E-08  0.10566000000E+00  0.10566000000E+00 0. -1.
     999900   -1    0    0    0    0 -0.00000000000E+00 -0.00000000000E+00 -0.74505805969E-08  0.93827000000E+00  0.93827000000E+00 0. -1.
     999902    2    1    2    0    0 -0.16383742078E-01 -0.17629610798E-01  0.73661409223E-03  0.10198515287E+01  0.10195672453E+01 0.  0.
     999903    2    3    3    0    0  0.11029110710E+00 -0.28064130234E-01 -0.56323429826E-01  0.12889067362E+00  0.22107765346E-01 0.  0.
         14    1    1    2    0    0  0.16383742078E-01  0.17629610798E-01 -0.73661409223E-03  0.24078471332E-01  0.00000000000E+00 0.  1.
     999901    1    3    3    0    0 -0.12667484918E+00  0.10434519437E-01  0.57060043918E-01  0.89096085504E+00  0.88000000000E+00 0.  1.
        -11    1    4    4    0    0  0.10808092869E+00 -0.30381362799E-01 -0.52688701659E-01  0.12401965471E+00  0.51100000000E-03 0. -1.
         11    1    4    4    0    0  0.22101784110E-02  0.23172325650E-02 -0.36347281673E-02  0.48710189097E-02  0.51100000000E-03 0.  1.
</event>
<event>
 8    1  0.5489035E+004  0.1043930E+01  0.7957747E-01            NaN
         13   -1    0    0    0    0  0.00000000000E+00  0.00000000000E+00  0.74505805969E-08  0.10566000000E+00  0.10566000000E+00 0. -1.
     999900   -1    0    0    0    0 -0.00000000000E+00 -0.00000000000E+00 -0.74505805969E-08  0.93827000000E+00  0.93827000000E+00 0. -1.
     999902    2    1    2    0    0  0.32359785946E-02 -0.22109676423E-01  0.80708377674E-02  0.10201718904E+01  0.10198952094E+01 0.  0.
     999903    2    3    3    0    0 -0.81918865700E-01 -0.12942373360E-01  0.99797263690E-01  0.13126856374E+00  0.19842792161E-01 0.  0.
         14    1    1    2    0    0 -0.32359785946E-02  0.22109676423E-01 -0.80708377674E-02  0.23758109589E-01  0.00000000000E+00 0.  1.
     999901    1    3    3    0    0  0.85154844295E-01 -0.91673030626E-02 -0.91726425922E-01  0.88890332667E+00  0.88000000000E+00 0. -1.
        -11    1    4    4    0    0 -0.52282014806E-01 -0.16173371561E-01  0.56155225322E-01  0.78413375592E-01  0.51100000000E-03 0.  1.
         11    1    4    4    0    0 -0.29636850894E-01  0.32309982007E-02  0.43642038368E-01  0.52855188148E-01  0.51100000000E-03 0. -1.
</event>
<event>
 8    1  0.5489035E+004  0.1043930E+01  0.7957747E-01            NaN
         13   -1    0    0    0    0  0.00000000000E+00  0.00000000000E+00  0.74505805969E-08  0.10566000000E+00  0.10566000000E+00 0.  1.
     999900   -1    0    0    0    0 -0.00000000000E+00 -0.00000000000E+00 -0.74505805969E-08  0.93827000000E+00  0.93827000000E+00 0. -1.
     999902    2    1    2    0    0 -0.50796618739E-02  0.14975295964E-01 -0.16407941172E-01  0.10211422185E+01  0.10208879210E+01 0.  0.
     999903    2    3    3    0    0  0.12842564247E-01 -0.85492585421E-01 -0.97126884495E-01  0.13157459923E+00  0.20107954930E-01 0.  0.
         14    1    1    2    0    0  0.50796618739E-02 -0.14975295964E-01  0.16407941172E-01  0.22787781539E-01  0.00000000000E+00 0.  1.
     999901    1    3    3    0    0 -0.17922226121E-01  0.10046788139E+00  0.80718943322E-01  0.88956761923E+00  0.88000000000E+00 0. -1.
        -11    1    4    4    0    0  0.14981381740E-01 -0.57470928594E-01 -0.55110058485E-01  0.81023015863E-01  0.51100000000E-03 0. -1.
         11    1    4    4    0    0 -0.21388174929E-02 -0.28021656827E-01 -0.42016826010E-01  0.50551583364E-01  0.51100000000E-03 0.  1.
</event>
<event>
 8    1  0.5489035E+004  0.1043930E+01  0.7957747E-01            NaN
         13   -1    0    0    0    0  0.00000000000E+00  0.00000000000E+00  0.74505805969E-08  0.10566000000E+00  0.10566000000E+00 0.  1.
     999900   -1    0    0    0    0 -0.00000000000E+00 -0.00000000000E+00 -0.74505805969E-08  0.93827000000E+00  0.93827000000E+00 0.  1.
     999902    2    1    2    0    0  0.11542204332E-01 -0.82668888576E-02 -0.14812810273E-01  0.10234121229E+01  0.10232064259E+01 0.  0.
     999903    2    3    3    0    0 -0.12425192492E+00  0.23233696530E-01 -0.33159203131E-01  0.13225056486E+00  0.20306000405E-01 0.  0.
         14    1    1    2    0    0 -0.11542204332E-01  0.82668888576E-02  0.14812810273E-01  0.20517877093E-01  0.00000000000E+00 0. -1.
     999901    1    3    3    0    0  0.13579412925E+00 -0.31500585387E-01  0.18346392858E-01  0.89116155805E+00  0.88000000000E+00 0.  1.
        -11    1    4    4    0    0 -0.93606139799E-01  0.22995696842E-01 -0.18004648382E-01  0.98057839899E-01  0.51100000000E-03 0. -1.
         11    1    4    4    0    0 -0.30645785117E-01  0.23799968809E-03 -0.15154554749E-01  0.34192724956E-01  0.51100000000E-03 0.  1.
</event>
<event>
 8    1  0.5489035E+004  0.1043930E+01  0.7957747E-01            NaN
         13   -1    0    0    0    0  0.00000000000E+00  0.00000000000E+00  0.74505805969E-08  0.10566000000E+00  0.10566000000E+00 0.  1.
     999900   -1    0    0    0    0 -0.00000000000E+00 -0.00000000000E+00 -0.74505805969E-08  0.93827000000E+00  0.93827000000E+00 0. -1.
     999902    2    1    2    0    0  0.18720399640E-01  0.94597022669E-02  0.10663650408E-01  0.10204001728E+01  0.10201288447E+01 0.  0.
     999903    2    3    3    0    0 -0.89726466771E-01  0.19492928803E-01 -0.86958948230E-01  0.12832867326E+00  0.21807718594E-01 0.  0.
         14    1    1    2    0    0 -0.18720399640E-01 -0.94597022669E-02 -0.10663650408E-01  0.23529827234E-01  0.00000000000E+00 0. -1.
     999901    1    3    3    0    0  0.10844686641E+00 -0.10033226536E-01  0.97622598638E-01  0.89207149951E+00  0.88000000000E+00 0.  1.
        -11    1    4    4    0    0 -0.56272350470E-01  0.13580307882E-01 -0.68416300512E-01  0.89621724411E-01  0.51100000000E-03 0.  1.
         11    1    4    4    0    0 -0.33454116302E-01  0.59126209215E-02 -0.18542647718E-01  0.38706948847E-01  0.51100000000E-03 0. -1.
</event>
<event>
 8    1  0.5489035E+004  0.1043930E+01  0.7957747E-01            NaN
         13   -1    0    0    0    0  0.00000000000E+00  0.00000000000E+00  0.74505805969E-08  0.10566000000E+00  0.10566000000E+00 0. -1.
     999900   -1    0    0    0    0 -0.00000000000E+00 -0.00000000000E+00 -0.74505805969E-08  0.93827000000E+00  0.93827000000E+00 0. -1.
     999902    2    1    2    0    0 -0.12885387070E-01  0.10412273264E-01  0.17053155588E-01  0.10201548291E+01  0.10198777459E+01 0.  0.
     999903    2    3    3    0    0 -0.41800270182E-01  0.10028846712E+00  0.74621365897E-01  0.13323437073E+00  0.19442481066E-01 0.  0.
         14    1    1    2    0    0  0.12885387070E-01 -0.10412273264E-01 -0.17053155588E-01  0.23775170872E-01  0.00000000000E+00 0.  1.
     999901    1    3    3    0    0  0.28914883112E-01 -0.89876193860E-01 -0.57568210308E-01  0.88692045840E+00  0.88000000000E+00 0. -1.
        -11    1    4    4    0    0 -0.29579392291E-01  0.57003518259E-01  0.34205091725E-01  0.72763939991E-01  0.51100000000E-03 0. -1.
         11    1    4    4    0    0 -0.12220877891E-01  0.43284948865E-01  0.40416274172E-01  0.60470430738E-01  0.51100000000E-03 0.  1.
</event>
<event>
 8    1  0.5489035E+004  0.1043930E+01  0.7957747E-01            NaN
         13   -1    0    0    0    0  0.00000000000E+00  0.00000000000E+00  0.74505805969E-08  0.10566000000E+00  0.10566000000E+00 0.  1.
     999900   -1    0    0    0    0 -0.00000000000E+00 -0.00000000000E+00 -0.74505805969E-08  0.93827000000E+00  0.93827000000E+00 0. -1.
     999902    2    1    2    0    0 -0.37958629414E-02  0.14712834378E-02 -0.22624891150E-01  0.10209417650E+01  0.10206829226E+01 0.  0.
     999903    2    3    3    0    0 -0.10364208515E-01 -0.24039853513E-02  0.12634810282E+00  0.12838862156E+00  0.20164302509E-01 0.  0.
         14    1    1    2    0    0  0.37958629414E-02 -0.14712834378E-02  0.22624891150E-01  0.22988235034E-01  0.00000000000E+00 0.  1.
     999901    1    3    3    0    0  0.65683455736E-02  0.38752687891E-02 -0.14897299397E+00  0.89255314341E+00  0.88000000000E+00 0. -1.
        -11    1    4    4    0    0  0.39169996357E-02 -0.48553705235E-02  0.67137367056E-01  0.67428515372E-01  0.51100000000E-03 0. -1.
         11    1    4    4    0    0 -0.14281208151E-01  0.24513851722E-02  0.59210735766E-01  0.60960106188E-01  0.51100000000E-03 0.  1.
</event>
<event>
 8    1  0.5489035E+004  0.1043930E+01  0.7957747E-01            NaN
         13   -1    0    0    0    0  0.00000000000E+00  0.00000000000E+00  0.74505805969E-08  0.10566000000E+00  0.10566000000E+00 0. -1.
     999900   -1    0    0    0    0 -0.00000000000E+00 -0.00000000000E+00 -0.74505805969E-08  0.93827000000E+00  0.93827000000E+00 0. -1.
     999902    2    1    2    0    0  0.21570715762E-03 -0.97869914594E-02  0.21218812028E-01  0.10205618654E+01  0.10202942964E+01 0.  0.
     999903    2    3    3    0    0  0.93014575182E-01 -0.86232292230E-01  0.31693493607E-01  0.13232471638E+00  0.20436085961E-01 0.  0.
         14    1    1    2    0    0 -0.21570715762E-03  0.97869914594E-02 -0.21218812028E-01  0.23368134613E-01  0.00000000000E+00 0.  1.
     999901    1    3    3    0    0 -0.92798868024E-01  0.76445300770E-01 -0.10474681578E-01  0.88823714900E+00  0.88000000000E+00 0.  1.
        -11    1    4    4    0    0  0.23978788776E-01 -0.35186814039E-01  0.91589410916E-02  0.43557335964E-01  0.51100000000E-03 0. -1.
         11    1    4    4    0    0  0.69035786405E-01 -0.51045478191E-01  0.22534552515E-01  0.88767380419E-01  0.51100000000E-03 0.  1.
</event>
<event>
 8    1  0.5489035E+004  0.1043930E+01  0.7957747E-01            NaN
         13   -1    0    0    0    0  0.00000000000E+00  0.00000000000E+00  0.74505805969E-08  0.10566000000E+00  0.10566000000E+00 0. -1.
     999900   -1    0    0    0    0 -0.00000000000E+00 -0.00000000000E+00 -0.74505805969E-08  0.93827000000E+00  0.93827000000E+00 0. -1.
     999902    2    1    2    0    0  0.51081742272E-02 -0.92556121738E-02 -0.21384158203E-01  0.10200753983E+01  0.10197964386E+01 0.  0.
     999903    2    3    3    0    0 -0.30613272970E-01 -0.61022548097E-01 -0.11268406207E+00  0.13311908037E+00  0.19028080729E-01 0.  0.
         14    1    1    2    0    0 -0.51081742272E-02  0.92556121738E-02  0.21384158203E-01  0.23854601709E-01  0.00000000000E+00 0. -1.
     999901    1    3    3    0    0  0.35721447197E-01  0.51766935923E-01  0.91299903870E-01  0.88695631792E+00  0.88000000000E+00 0.  1.
        -11    1    4    4    0    0 -0.92233041854E-02 -0.39087371250E-01 -0.66767478318E-01  0.77916937909E-01  0.51100000000E-03 0.  1.
         11    1    4    4    0    0 -0.21389968785E-01 -0.21935176847E-01 -0.45916583756E-01  0.55202142465E-01  0.51100000000E-03 0. -1.
</event>
<event>
 8    1  0.5489035E+004  0.1043930E+01  0.7957747E-01            NaN
         13   -1    0    0    0    0  0.00000000000E+00  0.00000000000E+00  0.74505805969E-08  0.10566000000E+00  0.10566000000E+00 0.  1.
     999900   -1    0    0    0    0 -0.00000000000E+00 -0.00000000000E+00 -0.74505805969E-08  0.93827000000E+00  0.93827000000E+00 0.  1.
     999902    2    1    2    0    0 -0.12203714531E-01  0.20417548687E-02  0.30606590074E-01  0.10109169304E+01  0.10103777399E+01 0.  0.
     999903    2    3    3    0    0  0.30609301823E-01  0.39610514725E-02  0.11947966020E+00  0.12540292106E+00  0.22313317123E-01 0.  0.
         14    1    1    2    0    0  0.12203714531E-01 -0.20417548687E-02 -0.30606590074E-01  0.33013069643E-01  0.00000000000E+00 0. -1.
     999901    1    3    3    0    0 -0.42813016353E-01 -0.19192966039E-02 -0.88873070130E-01  0.88551400930E+00  0.88000000000E+00 0.  1.
        -11    1    4    4    0    0  0.29845967913E-01  0.88116632855E-02  0.83984555425E-01  0.89566142496E-01  0.51100000000E-03 0. -1.
         11    1    4    4    0    0  0.76333390921E-03 -0.48506118130E-02  0.35495104778E-01  0.35836778564E-01  0.51100000000E-03 0.  1.
</event>
<event>
 8    1  0.5489035E+004  0.1043930E+01  0.7957747E-01            NaN
         13   -1    0    0    0    0  0.00000000000E+00  0.00000000000E+00  0.74505805969E-08  0.10566000000E+00  0.10566000000E+00 0. -1.
     999900   -1    0    0    0    0 -0.00000000000E+00 -0.00000000000E+00 -0.74505805969E-08  0.93827000000E+00  0.93827000000E+00 0.  1.
     999902    2    1    2    0    0 -0.12607574532E-01  0.18689332537E-01  0.32325885471E-02  0.10211551956E+01  0.10209011910E+01 0.  0.
     999903    2    3    3    0    0  0.76889609808E-02 -0.10453670622E+00 -0.72575955527E-01  0.12911061077E+00  0.20377375364E-01 0.  0.
         14    1    1    2    0    0  0.12607574532E-01 -0.18689332537E-01 -0.32325885471E-02  0.22774804390E-01  0.00000000000E+00 0. -1.
     999901    1    3    3    0    0 -0.20296535513E-01  0.12322603875E+00  0.75808544074E-01  0.89204458484E+00  0.88000000000E+00 0. -1.
        -11    1    4    4    0    0  0.11169428807E-01 -0.61997078091E-01 -0.52190593428E-01  0.81807780773E-01  0.51100000000E-03 0.  1.
         11    1    4    4    0    0 -0.34804678264E-02 -0.42539628124E-01 -0.20385362099E-01  0.47302830001E-01  0.51100000000E-03 0. -1.
</event>
<event>
 8    1  0.5489035E+004  0.1043930E+01  0.7957747E-01            NaN
         13   -1    0    0    0    0  0.00000000000E+00  0.00000000000E+00  0.74505805969E-08  0.10566000000E+00  0.10566000000E+00 0. -1.
     999900   -1    0    0    0    0 -0.00000000000E+00 -0.00000000000E+00 -0.74505805969E-08  0.93827000000E+00  0.93827000000E+00 0.  1.
     999902    2    1    2    0    0  0.11925427531E-01 -0.20175291632E-01 -0.54855836003E-02  0.10198603128E+01  0.10195762393E+01 0.  0.
     999903    2    3    3    0    0  0.68482057855E-01 -0.10569609464E+00  0.37194890944E-01  0.13287999561E+00  0.20302134170E-01 0.  0.
         14    1    1    2    0    0 -0.11925427531E-01  0.20175291632E-01  0.54855836003E-02  0.24069687195E-01  0.00000000000E+00 0. -1.
     999901    1    3    3    0    0 -0.56556630324E-01  0.85520803005E-01 -0.42680474545E-01  0.88698031719E+00  0.88000000000E+00 0.  1.
        -11    1    4    4    0    0  0.22024557631E-01 -0.27189974024E-01  0.19138831535E-01  0.39886486682E-01  0.51100000000E-03 0. -1.
         11    1    4    4    0    0  0.46457500225E-01 -0.78506120613E-01  0.18056059409E-01  0.92993508930E-01  0.51100000000E-03 0.  1.
</event>
<event>
 8    1  0.5489035E+004  0.1043930E+01  0.7957747E-01            NaN
         13   -1    0    0    0    0  0.00000000000E+00  0.00000000000E+00  0.74505805969E-08  0.10566000000E+00  0.10566000000E+00 0. -1.
     999900   -1    0    0    0    0 -0.00000000000E+00 -0.00000000000E+00 -0.74505805969E-08  0.93827000000E+00  0.93827000000E+00 0. -1.
     999902    2    1    2    0    0 -0.17629591262E-01 -0.61799438427E-02 -0.14983071492E-01  0.10199824192E+01  0.10197012547E+01 0.  0.
     999903    2    3    3    0    0 -0.17165209500E-01 -0.11714770984E+00  0.51442657368E-01  0.13052953222E+00  0.19323080617E-01 0.  0.
         14    1    1    2    0    0  0.17629591262E-01  0.61799438427E-02  0.14983071492E-01  0.23947580782E-01  0.00000000000E+00 0. -1.
     999901    1    3    3    0    0 -0.46438176210E-03  0.11096776600E+00 -0.66425728860E-01  0.88945288700E+00  0.88000000000E+00 0. -1.
        -11    1    4    4    0    0 -0.65736602319E-02 -0.88983531524E-01  0.44204865966E-01  0.99577172019E-01  0.51100000000E-03 0.  1.
         11    1    4    4    0    0 -0.10591549268E-01 -0.28164178320E-01  0.72377914016E-02  0.30952360196E-01  0.51100000000E-03 0. -1.
</event>
<event>
 8    1  0.5489035E+004  0.1043930E+01  0.7957747E-01            NaN
         13   -1    0    0    0    0  0.00000000000E+00  0.00000000000E+00  0.74505805969E-08  0.10566000000E+00  0.10566000000E+00 0.  1.
     999900   -1    0    0    0    0 -0.00000000000E+00 -0.00000000000E+00 -0.74505805969E-08  0.93827000000E+00  0.93827000000E+00 0. -1.
     999902    2    1    2    0    0  0.21985193955E-02 -0.58224714262E-02 -0.20817466292E-01  0.10222021017E+01  0.10219711518E+01 0.  0.
     999903    2    3    3    0    0  0.48877045300E-01  0.55349635654E-02 -0.12412438947E+00  0.13485763845E+00  0.18976754425E-01 0.  0.
         14    1    1    2    0    0 -0.21985193955E-02  0.58224714262E-02  0.20817466292E-01  0.21727898284E-01  0.00000000000E+00 0.  1.
     999901    1    3    3    0    0 -0.46678525905E-01 -0.11357434992E-01  0.10330692318E+00  0.88734446326E+00  0.88000000000E+00 0.  1.
        -11    1    4    4    0    0  0.35773121746E-01  0.12122620666E-01 -0.82955564068E-01  0.91151307736E-01  0.51100000000E-03 0.  1.
         11    1    4    4    0    0  0.13103923555E-01 -0.65876571008E-02 -0.41168825402E-01  0.43706330715E-01  0.51100000000E-03 0. -1.
</event>
<event>
 8    1  0.5489035E+004  0.1043930E+01  0.7957747E-01            NaN
         13   -1    0    0    0    0  0.00000000000E+00  0.00000000000E+00  0.74505805969E-08  0.10566000000E+00  0.10566000000E+00 0. -1.
     999900   -1    0    0    0    0 -0.00000000000E+00 -0.00000000000E+00 -0.74505805969E-08  0.93827000000E+00  0.93827000000E+00 0. -1.
     999902    2    1    2    0    0  0.17902978722E-01  0.90521038789E-02 -0.13050900308E-01  0.10199971099E+01  0.10197162943E+01 0.  0.
     999903    2    3    3    0    0 -0.53443455177E-01 -0.85980229266E-01  0.75154340456E-01  0.12763976973E+00  0.19872926363E-01 0.  0.
         14    1    1    2    0    0 -0.17902978722E-01 -0.90521038789E-02  0.13050900308E-01  0.23932890143E-01  0.00000000000E+00 0. -1.
     999901    1    3    3    0    0  0.71346433900E-01  0.95032333145E-01 -0.88205240764E-01  0.89235734012E+00  0.88000000000E+00 0.  1.
        -11    1    4    4    0    0 -0.39787817391E-01 -0.63130440168E-01  0.43887117846E-01  0.86572877521E-01  0.51100000000E-03 0. -1.
         11    1    4    4    0    0 -0.13655637787E-01 -0.22849789098E-01  0.31267222610E-01  0.41066892212E-01  0.51100000000E-03 0.  1.
</event>
<event>
 7    1  0.5489035E+004  0.1043930E+01  0.7957747E-01            NaN
         13   -1    0    0    0    0  0.00000000000E+00  0.00000000000E+00  0.74505805969E-08  0.10566000000E+00  0.10566000000E+00 0.  1.
     999900   -1    0    0    0    0 -0.00000000000E+00 -0.00000000000E+00 -0.74505805969E-08  0.93827000000E+00  0.93827000000E+00 0. -1.
     999903    2    1    2    0    0  0.79451599869E-01 -0.24192387828E-01  0.24019003474E-01  0.88702889504E-01  0.19835869728E-01 0.  0.
         14    1    1    2    0    0  0.41221454545E-01  0.51785761823E-01 -0.46536755086E-02  0.66352318257E-01  0.00000000000E+00 0.  1.
     999901    1    1    2    0    0 -0.12067305441E+00 -0.27593373995E-01 -0.19365327965E-01  0.88887479224E+00  0.88000000000E+00 0.  1.
        -11    1    3    3    0    0  0.70525510085E-01 -0.24368004625E-01  0.15214874297E-01  0.76153796643E-01  0.51100000000E-03 0.  1.
         11    1    3    3    0    0  0.89260897842E-02  0.17561679730E-03  0.88041291762E-02  0.12549092861E-01  0.51100000000E-03 0. -1.
</event>
<event>
 8    1  0.5489035E+004  0.1043930E+01  0.7957747E-01            NaN
         13   -1    0    0    0    0  0.00000000000E+00  0.00000000000E+00  0.74505805969E-08  0.10566000000E+00  0.10566000000E+00 0. -1.
     999900   -1    0    0    0    0 -0.00000000000E+00 -0.00000000000E+00 -0.74505805969E-08  0.93827000000E+00  0.93827000000E+00 0.  1.
     999902    2    1    2    0    0  0.20539543397E-01  0.10091752024E-01  0.41339343813E-02  0.10206747702E+01  0.10204098102E+01 0.  0.
     999903    2    3    3    0    0  0.11184796333E+00  0.70251022695E-01 -0.66020847291E-02  0.13384241423E+00  0.20616285662E-01 0.  0.
         14    1    1    2    0    0 -0.20539543397E-01 -0.10091752024E-01 -0.41339343813E-02  0.23255229849E-01  0.00000000000E+00 0.  1.
     999901    1    3    3    0    0 -0.91308419931E-01 -0.60159270671E-01  0.10736019110E-01  0.88683235592E+00  0.88000000000E+00 0.  1.
        -11    1    4    4    0    0  0.74353868328E-01  0.37436904625E-01  0.20255707851E-02  0.83272946515E-01  0.51100000000E-03 0. -1.
         11    1    4    4    0    0  0.37494094999E-01  0.32814118070E-01 -0.86276555142E-02  0.50569467717E-01  0.51100000000E-03 0.  1.
</event>
<event>
 8    1  0.5489035E+004  0.1043930E+01  0.7957747E-01            NaN
         13   -1    0    0    0    0  0.00000000000E+00  0.00000000000E+00  0.74505805969E-08  0.10566000000E+00  0.10566000000E+00 0.  1.
     999900   -1    0    0    0    0 -0.00000000000E+00 -0.00000000000E+00 -0.74505805969E-08  0.93827000000E+00  0.93827000000E+00 0. -1.
     999902    2    1    2    0    0 -0.10743067489E-01  0.21258183943E-02  0.19225564723E-01  0.10218041115E+01  0.10215645292E+01 0.  0.
     999903    2    3    3    0    0 -0.96109049046E-01  0.89873620083E-01 -0.20684635697E-02  0.13307442079E+00  0.19756164415E-01 0.  0.
         14    1    1    2    0    0  0.10743067489E-01 -0.21258183943E-02 -0.19225564723E-01  0.22125888498E-01  0.00000000000E+00 0. -1.
     999901    1    3    3    0    0  0.85365981557E-01 -0.87747801688E-01  0.21294028292E-01  0.88872969071E+00  0.88000000000E+00 0.  1.
        -11    1    4    4    0    0 -0.25180302847E-01  0.15589142822E-01 -0.62799438302E-02  0.30278174332E-01  0.51100000000E-03 0.  1.
         11    1    4    4    0    0 -0.70928746199E-01  0.74284477261E-01  0.42114802605E-02  0.10279624646E+00  0.51100000000E-03 0. -1.
</event>
<event>
 8    1  0.5489035E+004  0.1043930E+01  0.7957747E-01            NaN
         13   -1    0    0    0    0  0.00000000000E+00  0.00000000000E+00  0.74505805969E-08  0.10566000000E+00  0.10566000000E+00 0. -1.
     999900   -1    0    0    0    0 -0.00000000000E+00 -0.00000000000E+00 -0.74505805969E-08  0.93827000000E+00  0.93827000000E+00 0. -1.
     999902    2    1    2    0    0  0.26303619793E-02  0.10171344747E-01  0.21009161839E-01  0.10204404291E+01  0.10201700395E+01 0.  0.
     999903    2    3    3    0    0 -0.10046501769E+00  0.41335443493E-01  0.72847511500E-01  0.13235987375E+00  0.20261726986E-01 0.  0.
         14    1    1    2    0    0 -0.26303619793E-02 -0.10171344747E-01 -0.21009161839E-01  0.23489570862E-01  0.00000000000E+00 0.  1.
     999901    1    3    3    0    0  0.10309537967E+00 -0.31164098746E-01 -0.51838349661E-01  0.88808055539E+00  0.88000000000E+00 0. -1.
        -11    1    4    4    0    0 -0.27255694836E-01  0.18230765265E-01  0.29974286083E-01  0.44429186919E-01  0.51100000000E-03 0. -1.
         11    1    4    4    0    0 -0.73209322850E-01  0.23104678228E-01  0.42873225418E-01  0.87930686833E-01  0.51100000000E-03 0.  1.
</event>
<event>
 8    1  0.5489035E+004  0.1043930E+01  0.7957747E-01            NaN
         13   -1    0    0    0    0  0.00000000000E+00  0.00000000000E+00  0.74505805969E-08  0.10566000000E+00  0.10566000000E+00 0. -1.
     999900   -1    0    0    0    0 -0.00000000000E+00 -0.00000000000E+00 -0.74505805969E-08  0.93827000000E+00  0.93827000000E+00 0. -1.
     999902    2    1    2    0    0 -0.18565077645E-01 -0.10477270941E-01 -0.10801060825E-01  0.10200323384E+01  0.10197523588E+01 0.  0.
     999903    2    3    3    0    0 -0.32821841242E-01  0.82446154754E-01 -0.94520048292E-01  0.13107402262E+00  0.19279994329E-01 0.  0.
         14    1    1    2    0    0  0.18565077645E-01  0.10477270941E-01  0.10801060825E-01  0.23897661586E-01  0.00000000000E+00 0. -1.
     999901    1    3    3    0    0  0.14256763597E-01 -0.92923425695E-01  0.83718987467E-01  0.88895831579E+00  0.88000000000E+00 0.  1.
        -11    1    4    4    0    0 -0.50169949330E-02  0.19528943033E-01 -0.11354312966E-01  0.23145872160E-01  0.51100000000E-03 0. -1.
         11    1    4    4    0    0 -0.27804846309E-01  0.62917211721E-01 -0.83165735326E-01  0.10792815046E+00  0.51100000000E-03 0.  1.
</event>
<event>
 8    1  0.5489035E+004  0.1043930E+01  0.7957747E-01            NaN
         13   -1    0    0    0    0  0.00000000000E+00  0.00000000000E+00  0.74505805969E-08  0.10566000000E+00  0.10566000000E+00 0.  1.
     999900   -1    0    0    0    0 -0.00000000000E+00 -0.00000000000E+00 -0.74505805969E-08  0.93827000000E+00  0.93827000000E+00 0.  1.
     999902    2    1    2    0    0 -0.15298507125E-01 -0.10108011915E-01 -0.15440995099E-01  0.10199583385E+01  0.10196766015E+01 0.  0.
     999903    2    3    3    0    0  0.21147578073E-01 -0.38936091362E-01  0.11901763745E+00  0.12853335616E+00  0.19808744331E-01 0.  0.
         14    1    1    2    0    0  0.15298507125E-01  0.10108011915E-01  0.15440995099E-01  0.23971661494E-01  0.00000000000E+00 0.  1.
     999901    1    3    3    0    0 -0.36446085198E-01  0.28828079447E-01 -0.13445863255E+00  0.89142498235E+00  0.88000000000E+00 0.  1.
        -11    1    4    4    0    0  0.12688727978E-01 -0.12800657142E-01  0.26732420343E-01  0.32245062558E-01  0.51100000000E-03 0. -1.
         11    1    4    4    0    0  0.84588500946E-02 -0.26135434221E-01  0.92285217105E-01  0.96288293598E-01  0.51100000000E-03 0.  1.
</event>
<event>
 8    1  0.5489035E+004  0.1043930E+01  0.7957747E-01            NaN
         13   -1    0    0    0    0  0.00000000000E+00  0.00000000000E+00  0.74505805969E-08  0.10566000000E+00  0.10566000000E+00 0. -1.
     999900   -1    0    0    0    0 -0.00000000000E+00 -0.00000000000E+00 -0.74505805969E-08  0.93827000000E+00  0.93827000000E+00 0.  1.
     999902    2    1    2    0    0 -0.11422140068E-01 -0.12190834118E-02  0.16647750878E-01  0.10237038027E+01  0.10235039700E+01 0.  0.
     999903    2    3    3    0    0 -0.52843414545E-01  0.12125463055E+00  0.10932575169E-01  0.13423868487E+00  0.20134334516E-01 0.  0.
         14    1    1    2    0    0  0.11422140068E-01  0.12190834118E-02 -0.16647750878E-01  0.20226197304E-01  0.00000000000E+00 0.  1.
     999901    1    3    3    0    0  0.41421274477E-01 -0.12247371396E+00  0.57151757092E-02  0.88946511782E+00  0.88000000000E+00 0. -1.
        -11    1    4    4    0    0 -0.36367067153E-01  0.10281848921E+00  0.89269081713E-02  0.10942648723E+00  0.51100000000E-03 0.  1.
         11    1    4    4    0    0 -0.16476347392E-01  0.18436141339E-01  0.20056669980E-02  0.24812197645E-01  0.51100000000E-03 0. -1.
</event>
<event>
 8    1  0.5489035E+004  0.1043930E+01  0.7957747E-01            NaN
         13   -1    0    0    0    0  0.00000000000E+00  0.00000000000E+00  0.74505805969E-08  0.10566000000E+00  0.10566000000E+00 0.  1.
     999900   -1    0    0    0    0 -0.00000000000E+00 -0.00000000000E+00 -0.74505805969E-08  0.93827000000E+00  0.93827000000E+00 0. -1.
     999902    2    1    2    0    0 -0.23576947670E-01 -0.91273255490E-03  0.63899860131E-02  0.10194854206E+01  0.10191923201E+01 0.  0.
     999903    2    3    3    0    0 -0.11157846083E+00  0.52378790955E-01  0.44669244097E-01  0.13266550966E+00  0.20285596407E-01 0.  0.
         14    1    1    2    0    0  0.23576947670E-01  0.91273255490E-03 -0.63899860131E-02  0.24444579428E-01  0.00000000000E+00 0.  1.
     999901    1    3    3    0    0  0.88001513158E-01 -0.53291523510E-01 -0.38279258084E-01  0.88681991092E+00  0.88000000000E+00 0. -1.
        -11    1    4    4    0    0 -0.40432913516E-01  0.18872592685E-01  0.26682679442E-01  0.51992516320E-01  0.51100000000E-03 0.  1.
         11    1    4    4    0    0 -0.71145547312E-01  0.33506198270E-01  0.17986564655E-01  0.80672993337E-01  0.51100000000E-03 0. -1.
</event>
<event>
 8    1  0.5489035E+004  0.1043930E+01  0.7957747E-01            NaN
         13   -1    0    0    0    0  0.00000000000E+00  0.00000000000E+00  0.74505805969E-08  0.10566000000E+00  0.10566000000E+00 0. -1.
     999900   -1    0    0    0    0 -0.00000000000E+00 -0.00000000000E+00 -0.74505805969E-08  0.93827000000E+00  0.93827000000E+00 0. -1.
     999902    2    1    2    0    0 -0.39056554316E-02  0.22759704306E-01  0.69393692698E-02  0.10198174902E+01  0.10195323929E+01 0.  0.
     999903    2    3    3    0    0  0.46601833451E-01 -0.11625463608E+00  0.12883534118E-01  0.12745471284E+00  0.19795127747E-01 0.  0.
         14    1    1    2    0    0  0.39056554316E-02 -0.22759704306E-01 -0.69393692698E-02  0.24112509830E-01  0.00000000000E+00 0.  1.
     999901    1    3    3    0    0 -0.50507488883E-01  0.13901434039E+00 -0.59441648482E-02  0.89236277733E+00  0.88000000000E+00 0. -1.
        -11    1    4    4    0    0  0.79931381345E-02 -0.23158110395E-01 -0.52242226176E-02  0.25054779130E-01  0.51100000000E-03 0.  1.
         11    1    4    4    0    0  0.38608695317E-01 -0.93096525687E-01  0.18107756736E-01  0.10239993371E+00  0.51100000000E-03 0. -1.
</event>
<event>
 8    1  0.5489035E+004  0.1043930E+01  0.7957747E-01            NaN
         13   -1    0    0    0    0  0.00000000000E+00  0.00000000000E+00  0.74505805969E-08  0.10566000000E+00  0.10566000000E+00 0. -1.
     999900   -1    0    0    0    0 -0.00000000000E+00 -0.00000000000E+00 -0.74505805969E-08  0.93827000000E+00  0.93827000000E+00 0. -1.
     999902    2    1    2    0    0  0.19099781264E-01  0.14597305169E-01  0.26611697004E-02  0.10197439547E+01  0.10194570949E+01 0.  0.
     999903    2    3    3    0    0  0.21830582529E-01  0.12585218645E+00 -0.28349038074E-01  0.13219297653E+00  0.18867112065E-01 0.  0.
         14    1    1    2    0    0 -0.19099781264E-01 -0.14597305169E-01 -0.26611697004E-02  0.24186045288E-01  0.00000000000E+00 0. -1.
     999901    1    3    3    0    0 -0.27308012650E-02 -0.11125488128E+00  0.31010207774E-01  0.88755097818E+00  0.88000000000E+00 0.  1.
        -11    1    4    4    0    0  0.15291895649E-01  0.60770389938E-01 -0.22242333428E-01  0.66497104321E-01  0.51100000000E-03 0. -1.
         11    1    4    4    0    0  0.65386868800E-02  0.65081796508E-01 -0.61067046455E-02  0.65695872210E-01  0.51100000000E-03 0.  1.
</event>
<event>
 8    1  0.5489035E+004  0.1043930E+01  0.7957747E-01            NaN
         13   -1    0    0    0    0  0.00000000000E+00  0.00000000000E+00  0.74505805969E-08  0.10566000000E+00  0.10566000000E+00 0. -1.
     999900   -1    0    0    0    0 -0.00000000000E+00 -0.00000000000E+00 -0.74505805969E-08  0.93827000000E+00  0.93827000000E+00 0. -1.
     999902    2    1    2    0    0 -0.12949931707E-01 -0.19795557113E-01 -0.48570136649E-02  0.10197813894E+01  0.10194954275E+01 0.  0.
     999903    2    3    3    0    0 -0.25893638033E-01  0.11763357367E+00 -0.39817040871E-01  0.12833508757E+00  0.19399995186E-01 0.  0.
         14    1    1    2    0    0  0.12949931707E-01  0.19795557113E-01  0.48570136649E-02  0.24148610610E-01  0.00000000000E+00 0.  1.
     999901    1    3    3    0    0  0.12943706326E-01 -0.13742913079E+00  0.34960027206E-01  0.89144630182E+00  0.88000000000E+00 0.  1.
        -11    1    4    4    0    0 -0.53194038740E-02  0.67700612183E-01 -0.24525115447E-01  0.72203956652E-01  0.51100000000E-03 0.  1.
         11    1    4    4    0    0 -0.20574234159E-01  0.49932961489E-01 -0.15291925424E-01  0.56131130921E-01  0.51100000000E-03 0. -1.
</event>
<event>
 8    1  0.5489035E+004  0.1043930E+01  0.7957747E-01            NaN
         13   -1    0    0    0    0  0.00000000000E+00  0.00000000000E+00  0.74505805969E-08  0.10566000000E+00  0.10566000000E+00 0. -1.
     999900   -1    0    0    0    0 -0.00000000000E+00 -0.00000000000E+00 -0.74505805969E-08  0.93827000000E+00  0.93827000000E+00 0.  1.
     999902    2    1    2    0    0 -0.13039711990E-02  0.55242217631E-02  0.23441128565E-01  0.10198114620E+01  0.10195262204E+01 0.  0.
     999903    2    3    3    0    0 -0.61253774697E-01 -0.46887620356E-02 -0.11010628642E+00  0.12766058012E+00  0.19995499575E-01 0.  0.
         14    1    1    2    0    0  0.13039711990E-02 -0.55242217631E-02 -0.23441128565E-01  0.24118538003E-01  0.00000000000E+00 0.  1.
     999901    1    3    3    0    0  0.59949803498E-01  0.10212983799E-01  0.13354741499E+00  0.89215088187E+00  0.88000000000E+00 0. -1.
        -11    1    4    4    0    0 -0.44181165821E-01 -0.10789841301E-01 -0.88062278587E-01  0.99114187276E-01  0.51100000000E-03 0. -1.
         11    1    4    4    0    0 -0.17072608876E-01  0.61010792649E-02 -0.22044007838E-01  0.28546392847E-01  0.51100000000E-03 0.  1.
</event>
<event>
 8    1  0.5489035E+004  0.1043930E+01  0.7957747E-01            NaN
         13   -1    0    0    0    0  0.00000000000E+00  0.00000000000E+00  0.74505805969E-08  0.10566000000E+00  0.10566000000E+00 0.  1.
     999900   -1    0    0    0    0 -0.00000000000E+00 -0.00000000000E+00 -0.74505805969E-08  0.93827000000E+00  0.93827000000E+00 0. -1.
     999902    2    1    2    0    0 -0.25779136765E-02 -0.21371618464E-02  0.21721253034E-01  0.10219521490E+01  0.10217157966E+01 0.  0.
     999903    2    3    3    0    0 -0.16168055649E-01  0.12948788386E+00 -0.32156945652E-02  0.13170965624E+00  0.17566296303E-01 0.  0.
         14    1    1    2    0    0  0.25779136765E-02  0.21371618464E-02 -0.21721253034E-01  0.21977850966E-01  0.00000000000E+00 0. -1.
     999901    1    3    3    0    0  0.13590141973E-01 -0.13162504571E+00  0.24936947600E-01  0.89024249279E+00  0.88000000000E+00 0.  1.
        -11    1    4    4    0    0 -0.27265498709E-03  0.32257185711E-01  0.57838006830E-02  0.32776727141E-01  0.51100000000E-03 0. -1.
         11    1    4    4    0    0 -0.15895400662E-01  0.97230698150E-01 -0.89994952483E-02  0.98932929102E-01  0.51100000000E-03 0.  1.
</event>
<event>
 8    1  0.5489035E+004  0.1043930E+01  0.7957747E-01            NaN
         13   -1    0    0    0    0  0.00000000000E+00  0.00000000000E+00  0.74505805969E-08  0.10566000000E+00  0.10566000000E+00 0.  1.
     999900   -1    0    0    0    0 -0.00000000000E+00 -0.00000000000E+00 -0.74505805969E-08  0.93827000000E+00  0.93827000000E+00 0.  1.
     999902    2    1    2    0    0 -0.52011346664E-02  0.12645672479E-02 -0.24732140450E-01  0.10186252632E+01  0.10183109040E+01 0.  0.
     999903    2    3    3    0    0 -0.65954207022E-01  0.51155512781E-01  0.93869264563E-01  0.12719588547E+00  0.20012759415E-01 0.  0.
         14    1    1    2    0    0  0.52011346664E-02 -0.12645672479E-02  0.24732140450E-01  0.25304736777E-01  0.00000000000E+00 0.  1.
     999901    1    3    3    0    0  0.60753072356E-01 -0.49890945533E-01 -0.11860140501E+00  0.89142937775E+00  0.88000000000E+00 0. -1.
        -11    1    4    4    0    0 -0.45783628403E-01  0.25481706377E-01  0.65959228653E-01  0.84239770626E-01  0.51100000000E-03 0.  1.
         11    1    4    4    0    0 -0.20170578619E-01  0.25673806404E-01  0.27910035911E-01  0.42956114845E-01  0.51100000000E-03 0. -1.
</event>
<event>
 8    1  0.5489035E+004  0.1043930E+01  0.7957747E-01            NaN
         13   -1    0    0    0    0  0.00000000000E+00  0.00000000000E+00  0.74505805969E-08  0.10566000000E+00  0.10566000000E+00 0. -1.
     999900   -1    0    0    0    0 -0.00000000000E+00 -0.00000000000E+00 -0.74505805969E-08  0.93827000000E+00  0.93827000000E+00 0.  1.
     999902    2    1    2    0    0  0.81265010235E-02  0.11935355397E-01 -0.21644047154E-02  0.10293294050E+01  0.10292258482E+01 0.  0.
     999903    2    3    3    0    0 -0.36859267142E-01  0.13185942537E+00  0.20423311131E-01  0.13977012825E+00  0.19314851286E-01 0.  0.
         14    1    1    2    0    0 -0.81265010235E-02 -0.11935355397E-01  0.21644047154E-02  0.14600595026E-01  0.00000000000E+00 0. -1.
     999901    1    3    3    0    0  0.44985768166E-01 -0.11992406997E+00 -0.22587715847E-01  0.88955927672E+00  0.88000000000E+00 0.  1.
        -11    1    4    4    0    0 -0.15121664472E-01  0.87722301885E-01  0.11350851272E-01  0.89738341471E-01  0.51100000000E-03 0.  1.
         11    1    4    4    0    0 -0.21737602670E-01  0.44137123487E-01  0.90724598590E-02  0.50031786780E-01  0.51100000000E-03 0. -1.
</event>
<event>
 8    1  0.5489035E+004  0.1043930E+01  0.7957747E-01            NaN
         13   -1    0    0    0    0  0.00000000000E+00  0.00000000000E+00  0.74505805969E-08  0.10566000000E+00  0.10566000000E+00 0. -1.
     999900   -1    0    0    0    0 -0.00000000000E+00 -0.00000000000E+00 -0.74505805969E-08  0.93827000000E+00  0.93827000000E+00 0.  1.
     999902    2    1    2    0    0  0.60286653540E-02  0.13439696022E-01 -0.18998370464E-01  0.10198902763E+01  0.10196069181E+01 0.  0.
     999903    2    3    3    0    0 -0.11077120937E+00  0.41337545341E-01  0.48010590763E-01  0.12921036656E+00  0.20279263326E-01 0.  0.
         14    1    1    2    0    0 -0.60286653540E-02 -0.13439696022E-01  0.18998370464E-01  0.24039723697E-01  0.00000000000E+00 0. -1.
     999901    1    3    3    0    0  0.11679987473E+00 -0.27897849319E-01 -0.67008961227E-01  0.89067990974E+00  0.88000000000E+00 0.  1.
        -11    1    4    4    0    0 -0.70062135162E-01  0.15862226847E-01  0.26225706237E-01  0.76474582788E-01  0.51100000000E-03 0. -1.
         11    1    4    4    0    0 -0.40709074210E-01  0.25475318494E-01  0.21784884526E-01  0.52735783773E-01  0.51100000000E-03 0.  1.
</event>
<event>
 8    1  0.5489035E+004  0.1043930E+01  0.7957747E-01            NaN
         13   -1    0    0    0    0  0.00000000000E+00  0.00000000000E+00  0.74505805969E-08  0.10566000000E+00  0.10566000000E+00 0.  1.
     999900   -1    0    0    0    0 -0.00000000000E+00 -0.00000000000E+00 -0.74505805969E-08  0.93827000000E+00  0.93827000000E+00 0. -1.
     999902    2    1    2    0    0  0.13087791703E-01  0.14851314854E-01 -0.15725725342E-01  0.10186485783E+01  0.10183348054E+01 0.  0.
     999903    2    3    3    0    0  0.97779687944E-01 -0.80954671250E-01 -0.14299580284E-01  0.12940533930E+00  0.20657629835E-01 0.  0.
         14    1    1    2    0    0 -0.13087791703E-01 -0.14851314854E-01  0.15725725342E-01  0.25281421679E-01  0.00000000000E+00 0.  1.
     999901    1    3    3    0    0 -0.84691896241E-01  0.95805986104E-01 -0.14261450580E-02  0.88924323903E+00  0.88000000000E+00 0. -1.
        -11    1    4    4    0    0  0.47835266813E-01 -0.41926253440E-01  0.30604743345E-02  0.63683994086E-01  0.51100000000E-03 0. -1.
         11    1    4    4    0    0  0.49944421130E-01 -0.39028417810E-01 -0.17360054619E-01  0.65721345210E-01  0.51100000000E-03 0.  1.
</event>
<event>
 8    1  0.5489035E+004  0.1043930E+01  0.7957747E-01            NaN
         13   -1    0    0    0    0  0.00000000000E+00  0.00000000000E+00  0.74505805969E-08  0.10566000000E+00  0.10566000000E+00 0.  1.
     999900   -1    0    0    0    0 -0.00000000000E+00 -0.00000000000E+00 -0.74505805969E-08  0.93827000000E+00  0.93827000000E+00 0.  1.
     999902    2    1    2    0    0  0.10002725936E-01  0.11962555002E-01  0.16501938972E-01  0.10212260083E+01  0.10209735985E+01 0.  0.
     999903    2    3    3    0    0  0.11757068129E+00 -0.95612925216E-02  0.59042036038E-01  0.13339505544E+00  0.19849316925E-01 0.  0.
         14    1    1    2    0    0 -0.10002725936E-01 -0.11962555002E-01 -0.16501938972E-01  0.22703991679E-01  0.00000000000E+00 0. -1.
     999901    1    3    3    0    0 -0.10756795536E+00  0.21523847524E-01 -0.42540097066E-01  0.88783095288E+00  0.88000000000E+00 0.  1.
        -11    1    4    4    0    0  0.26530865815E-01 -0.42198486315E-02  0.22874298245E-01  0.35287230049E-01  0.51100000000E-03 0. -1.
         11    1    4    4    0    0  0.91039815478E-01 -0.53414438901E-02  0.36167737793E-01  0.98107825392E-01  0.51100000000E-03 0.  1.
</event>
<event>
 8    1  0.5489035E+004  0.1043930E+01  0.7957747E-01            NaN
         13   -1    0    0    0    0  0.00000000000E+00  0.00000000000E+00  0.74505805969E-08  0.10566000000E+00  0.10566000000E+00 0. -1.
     999900   -1    0    0    0    0 -0.00000000000E+00 -0.00000000000E+00 -0.74505805969E-08  0.93827000000E+00  0.93827000000E+00 0.  1.
     999902    2    1    2    0    0  0.31459911583E-02  0.36198022183E-02 -0.22208570505E-01  0.10212095063E+01  0.10209567253E+01 0.  0.
     999903    2    3    3    0    0  0.12240664280E+00  0.43639088589E-01  0.86079267254E-02  0.13172971297E+00  0.19770296402E-01 0.  0.
         14    1    1    2    0    0 -0.31459911583E-02 -0.36198022183E-02  0.22208570505E-01  0.22720493664E-01  0.00000000000E+00 0. -1.
     999901    1    3    3    0    0 -0.11926065165E+00 -0.40019286370E-01 -0.30816497230E-01  0.88947979337E+00  0.88000000000E+00 0.  1.
        -11    1    4    4    0    0  0.50137671674E-01  0.24916898382E-01 -0.34925086038E-02  0.56098990038E-01  0.51100000000E-03 0. -1.
         11    1    4    4    0    0  0.72268971130E-01  0.18722190206E-01  0.12100435329E-01  0.75630722927E-01  0.51100000000E-03 0.  1.
</event>
<event>
 8    1  0.5489035E+004  0.1043930E+01  0.7957747E-01            NaN
         13   -1    0    0    0    0  0.00000000000E+00  0.00000000000E+00  0.74505805969E-08  0.10566000000E+00  0.10566000000E+00 0. -1.
     999900   -1    0    0    0    0 -0.00000000000E+00 -0.00000000000E+00 -0.74505805969E-08  0.93827000000E+00  0.93827000000E+00 0.  1.
     999902    2    1    2    0    0  0.69432528907E-02  0.20161870341E-01 -0.12108646634E-01  0.10194079874E+01  0.10191130044E+01 0.  0.
     999903    2    3    3    0    0  0.11308920226E-01  0.11460843405E+00  0.60122594330E-01  0.13140091280E+00  0.19710116808E-01 0.  0.
         14    1    1    2    0    0 -0.69432528907E-02 -0.20161870341E-01  0.12108646634E-01  0.24522012553E-01  0.00000000000E+00 0. -1.
     999901    1    3    3    0    0 -0.43656673354E-02 -0.94446563707E-01 -0.72231240964E-01  0.88800707464E+00  0.88000000000E+00 0.  1.
        -11    1    4    4    0    0  0.12484746393E-01  0.57529512692E-01  0.38541573709E-01  0.70364961082E-01  0.51100000000E-03 0.  1.
         11    1    4    4    0    0 -0.11758261667E-02  0.57078921356E-01  0.21581020621E-01  0.61035951721E-01  0.51100000000E-03 0. -1.
</event>
<event>
 8    1  0.5489035E+004  0.1043930E+01  0.7957747E-01            NaN
         13   -1    0    0    0    0  0.00000000000E+00  0.00000000000E+00  0.74505805969E-08  0.10566000000E+00  0.10566000000E+00 0. -1.
     999900   -1    0    0    0    0 -0.00000000000E+00 -0.00000000000E+00 -0.74505805969E-08  0.93827000000E+00  0.93827000000E+00 0.  1.
     999902    2    1    2    0    0  0.79749826372E-02  0.96992641858E-02 -0.19611339293E-01  0.10206430787E+01  0.10203773878E+01 0.  0.
     999903    2    3    3    0    0 -0.74039998682E-01 -0.80562127969E-01 -0.68714251269E-01  0.13087643963E+00  0.20852248203E-01 0.  0.
         14    1    1    2    0    0 -0.79749826372E-02 -0.96992641858E-02  0.19611339293E-01  0.23286921279E-01  0.00000000000E+00 0. -1.
     999901    1    3    3    0    0  0.82014981319E-01  0.90261392155E-01  0.49102911976E-01  0.88976663909E+00  0.88000000000E+00 0. -1.
        -11    1    4    4    0    0 -0.23377288156E-01 -0.21389100355E-01 -0.30984666210E-01  0.44320445357E-01  0.51100000000E-03 0.  1.
         11    1    4    4    0    0 -0.50662710526E-01 -0.59173027615E-01 -0.37729585059E-01  0.86555994273E-01  0.51100000000E-03 0. -1.
</event>
<event>
 8    1  0.5489035E+004  0.1043930E+01  0.7957747E-01            NaN
         13   -1    0    0    0    0  0.00000000000E+00  0.00000000000E+00  0.74505805969E-08  0.10566000000E+00  0.10566000000E+00 0. -1.
     999900   -1    0    0    0    0 -0.00000000000E+00 -0.00000000000E+00 -0.74505805969E-08  0.93827000000E+00  0.93827000000E+00 0. -1.
     999902    2    1    2    0    0  0.12882495949E-01 -0.69552128064E-02 -0.16813093387E-01  0.10216361938E+01  0.10213929208E+01 0.  0.
     999903    2    3    3    0    0  0.20747244313E-01 -0.88415208203E-02  0.12638207651E+00  0.13002514117E+00  0.20627346808E-01 0.  0.
         14    1    1    2    0    0 -0.12882495949E-01  0.69552128064E-02  0.16813093387E-01  0.22293806232E-01  0.00000000000E+00 0. -1.
     999901    1    3    3    0    0 -0.78647483646E-02  0.18863080139E-02 -0.14319516990E+00  0.89161105259E+00  0.88000000000E+00 0. -1.
        -11    1    4    4    0    0  0.17172721296E-01 -0.54354224786E-02  0.44742925739E-01  0.48235222596E-01  0.51100000000E-03 0.  1.
         11    1    4    4    0    0  0.35745230179E-02 -0.34060983417E-02  0.81639150775E-01  0.81789918578E-01  0.51100000000E-03 0. -1.
</event>
<event>
 8    1  0.5489035E+004  0.1043930E+01  0.7957747E-01            NaN
         13   -1    0    0    0    0  0.00000000000E+00  0.00000000000E+00  0.74505805969E-08  0.10566000000E+00  0.10566000000E+00 0. -1.
     999900   -1    0    0    0    0 -0.00000000000E+00 -0.00000000000E+00 -0.74505805969E-08  0.93827000000E+00  0.93827000000E+00 0. -1.
     999902    2    1    2    0    0 -0.16944991663E-01 -0.55128688757E-02  0.19013416403E-01  0.10178717102E+01  0.10175380995E+01 0.  0.
     999903    2    3    3    0    0  0.33767916357E-01  0.92114371694E-01 -0.76542556008E-01  0.12588862681E+00  0.19074952976E-01 0.  0.
         14    1    1    2    0    0  0.16944991663E-01  0.55128688757E-02 -0.19013416403E-01  0.26058289833E-01  0.00000000000E+00 0.  1.
     999901    1    3    3    0    0 -0.50712908020E-01 -0.97627240569E-01  0.95555972411E-01  0.89198308336E+00  0.88000000000E+00 0.  1.
        -11    1    4    4    0    0  0.26076200060E-01  0.80794735042E-01 -0.72405734044E-01  0.11158229637E+00  0.51100000000E-03 0. -1.
         11    1    4    4    0    0  0.76917162974E-02  0.11319636652E-01 -0.41368219646E-02  0.14306330434E-01  0.51100000000E-03 0.  1.
</event>
<event>
 8    1  0.5489035E+004  0.1043930E+01  0.7957747E-01            NaN
         13   -1    0    0    0    0  0.00000000000E+00  0.00000000000E+00  0.74505805969E-08  0.10566000000E+00  0.10566000000E+00 0.  1.
     999900   -1    0    0    0    0 -0.00000000000E+00 -0.00000000000E+00 -0.74505805969E-08  0.93827000000E+00  0.93827000000E+00 0. -1.
     999902    2    1    2    0    0  0.25223196553E-01 -0.13930047297E-01 -0.49578065571E-02  0.10146924264E+01  0.10142711100E+01 0.  0.
     999903    2    3    3    0    0  0.11480293137E+00 -0.36480202037E-01 -0.41440215107E-01  0.12910561279E+00  0.20986891989E-01 0.  0.
         14    1    1    2    0    0 -0.25223196553E-01  0.13930047297E-01  0.49578065571E-02  0.29237573564E-01  0.00000000000E+00 0. -1.
     999901    1    3    3    0    0 -0.89579734812E-01  0.22550154740E-01  0.36482408550E-01  0.88558681364E+00  0.88000000000E+00 0.  1.
        -11    1    4    4    0    0  0.28760416836E-01 -0.86741833918E-02 -0.20246948151E-01  0.36229864263E-01  0.51100000000E-03 0.  1.
         11    1    4    4    0    0  0.86042514529E-01 -0.27806018645E-01 -0.21193266956E-01  0.92875748528E-01  0.51100000000E-03 0. -1.
</event>
<event>
 8    1  0.5489035E+004  0.1043930E+01  0.7957747E-01            NaN
         13   -1    0    0    0    0  0.00000000000E+00  0.00000000000E+00  0.74505805969E-08  0.10566000000E+00  0.10566000000E+00 0. -1.
     999900   -1    0    0    0    0 -0.00000000000E+00 -0.00000000000E+00 -0.74505805969E-08  0.93827000000E+00  0.93827000000E+00 0. -1.
     999902    2    1    2    0    0  0.22105816552E-01 -0.88356031552E-02 -0.31808315346E-02  0.10199122420E+01  0.10196294076E+01 0.  0.
     999903    2    3    3    0    0 -0.65868391081E-01  0.43162401271E-01 -0.99503171535E-01  0.12877743357E+00  0.21934183910E-01 0.  0.
         14    1    1    2    0    0 -0.22105816552E-01  0.88356031552E-02  0.31808315346E-02  0.24017757968E-01  0.00000000000E+00 0.  1.
     999901    1    3    3    0    0  0.87974207633E-01 -0.51998004426E-01  0.96322340001E-01  0.89113480846E+00  0.88000000000E+00 0.  1.
        -11    1    4    4    0    0 -0.27699574167E-01  0.29232108700E-01 -0.40334392271E-01  0.56999183406E-01  0.51100000000E-03 0. -1.
         11    1    4    4    0    0 -0.38168816914E-01  0.13930292571E-01 -0.59168779265E-01  0.71778250163E-01  0.51100000000E-03 0.  1.
</event>
<event>
 8    1  0.5489035E+004  0.1043930E+01  0.7957747E-01            NaN
         13   -1    0    0    0    0  0.00000000000E+00  0.00000000000E+00  0.74505805969E-08  0.10566000000E+00  0.10566000000E+00 0.  1.
     999900   -1    0    0    0    0 -0.00000000000E+00 -0.00000000000E+00 -0.74505805969E-08  0.93827000000E+00  0.93827000000E+00 0.  1.
     999902    2    1    2    0    0  0.19088932702E-01 -0.12847083368E-01  0.44889305048E-02  0.10204867622E+01  0.10202174505E+01 0.  0.
     999903    2    3    3    0    0 -0.87270122005E-01 -0.21609141705E-01 -0.90314484935E-01  0.12898426091E+00  0.19929981753E-01 0.  0.
         14    1    1    2    0    0 -0.19088932702E-01  0.12847083368E-01 -0.44889305048E-02  0.23443237827E-01  0.00000000000E+00 0. -1.
     999901    1    3    3    0    0  0.10635905471E+00  0.87620583376E-02  0.94803415440E-01  0.89150250127E+00  0.88000000000E+00 0. -1.
        -11    1    4    4    0    0 -0.84714037046E-02  0.37497407643E-02 -0.10111470761E-01  0.13723272149E-01  0.51100000000E-03 0. -1.
         11    1    4    4    0    0 -0.78798718300E-01 -0.25358882470E-01 -0.80203014174E-01  0.11526098876E+00  0.51100000000E-03 0.  1.
</event>
<event>
 8    1  0.5489035E+004  0.1043930E+01  0.7957747E-01            NaN
         13   -1    0    0    0    0  0.00000000000E+00  0.00000000000E+00  0.74505805969E-08  0.10566000000E+00  0.10566000000E+00 0.  1.
     999900   -1    0    0    0    0 -0.00000000000E+00 -0.00000000000E+00 -0.74505805969E-08  0.93827000000E+00  0.93827000000E+00 0. -1.
     999902    2    1    2    0    0 -0.47446873731E-02 -0.11078007626E-01  0.26720133864E-01  0.10146178888E+01  0.10141943898E+01 0.  0.
     999903    2    3    3    0    0 -0.11260116487E+00  0.17658939813E-01 -0.46560633035E-01  0.12454547448E+00  0.18783561399E-01 0.  0.
         14    1    1    2    0    0  0.47446873731E-02  0.11078007626E-01 -0.26720133864E-01  0.29312111233E-01  0.00000000000E+00 0. -1.
     999901    1    3    3    0    0  0.10785647749E+00 -0.28736947439E-01  0.73280766899E-01  0.89007241429E+00  0.88000000000E+00 0.  1.
        -11    1    4    4    0    0 -0.10729378704E+00  0.20847931992E-01 -0.43984231943E-01  0.11781963668E+00  0.51100000000E-03 0.  1.
         11    1    4    4    0    0 -0.53073778255E-02 -0.31889921787E-02 -0.25764010919E-02  0.67258377980E-02  0.51100000000E-03 0. -1.
</event>
<event>
 8    1  0.5489035E+004  0.1043930E+01  0.7957747E-01            NaN
         13   -1    0    0    0    0  0.00000000000E+00  0.00000000000E+00  0.74505805969E-08  0.10566000000E+00  0.10566000000E+00 0.  1.
     999900   -1    0    0    0    0 -0.00000000000E+00 -0.00000000000E+00 -0.74505805969E-08  0.93827000000E+00  0.93827000000E+00 0.  1.
     999902    2    1    2    0    0  0.94870936909E-02 -0.52180993959E-02  0.20750653423E-01  0.10205243783E+01  0.10202559403E+01 0.  0.
     999903    2    3    3    0    0 -0.22906208237E-02 -0.88819321502E-01 -0.91816495329E-01  0.12934580932E+00  0.20148219724E-01 0.  0.
         14    1    1    2    0    0 -0.94870936909E-02  0.52180993959E-02 -0.20750653423E-01  0.23405621664E-01  0.00000000000E+00 0. -1.
     999901    1    3    3    0    0  0.11777714515E-01  0.83601222106E-01  0.11256714875E+00  0.89117856902E+00  0.88000000000E+00 0. -1.
        -11    1    4    4    0    0  0.20611945758E-02 -0.76355219700E-01 -0.85658339201E-01  0.11476924803E+00  0.51100000000E-03 0. -1.
         11    1    4    4    0    0 -0.43518153995E-02 -0.12464101802E-01 -0.61581561273E-02  0.14576561285E-01  0.51100000000E-03 0.  1.
</event>
<event>
 8    1  0.5489035E+004  0.1043930E+01  0.7957747E-01            NaN
         13   -1    0    0    0    0  0.00000000000E+00  0.00000000000E+00  0.74505805969E-08  0.10566000000E+00  0.10566000000E+00 0.  1.
     999900   -1    0    0    0    0 -0.00000000000E+00 -0.00000000000E+00 -0.74505805969E-08  0.93827000000E+00  0.93827000000E+00 0. -1.
     999902    2    1    2    0    0  0.21058952471E-01  0.65668003746E-02 -0.80491775800E-02  0.10204482708E+01  0.10201780638E+01 0.  0.
     999903    2    3    3    0    0  0.66694408882E-01  0.74288465979E-01 -0.85738733689E-01  0.13325917822E+00  0.20975170349E-01 0.  0.
         14    1    1    2    0    0 -0.21058952471E-01 -0.65668003746E-02  0.80491775800E-02  0.23481729196E-01  0.00000000000E+00 0.  1.
     999901    1    3    3    0    0 -0.45635456412E-01 -0.67721665604E-01  0.77689556109E-01  0.88718909259E+00  0.88000000000E+00 0.  1.
        -11    1    4    4    0    0  0.26133661119E-01  0.35409463810E-01 -0.25421511959E-01  0.50826299906E-01  0.51100000000E-03 0. -1.
         11    1    4    4    0    0  0.40560747763E-01  0.38879002169E-01 -0.60317221730E-01  0.82432878313E-01  0.51100000000E-03 0.  1.
</event>
<event>
 8    1  0.5489035E+004  0.1043930E+01  0.7957747E-01            NaN
         13   -1    0    0    0    0  0.00000000000E+00  0.00000000000E+00  0.74505805969E-08  0.10566000000E+00  0.10566000000E+00 0. -1.
     999900   -1    0    0    0    0 -0.00000000000E+00 -0.00000000000E+00 -0.74505805969E-08  0.93827000000E+00  0.93827000000E+00 0.  1.
     999902    2    1    2    0    0 -0.37629320034E-02  0.22163867091E-01  0.10033124485E-01  0.10193117091E+01  0.10190143767E+01 0.  0.
     999903    2    3    3    0    0 -0.96355691674E-01  0.39905120098E-01  0.77815251914E-01  0.13168420386E+00  0.20215790534E-01 0.  0.
         14    1    1    2    0    0  0.37629320034E-02 -0.22163867091E-01 -0.10033124485E-01  0.24618290936E-01  0.00000000000E+00 0. -1.
     999901    1    3    3    0    0  0.92592759670E-01 -0.17741253007E-01 -0.67782127429E-01  0.88762750521E+00  0.88000000000E+00 0.  1.
        -11    1    4    4    0    0 -0.29260470793E-01  0.21718272800E-01  0.22353258438E-01  0.42752635103E-01  0.51100000000E-03 0. -1.
         11    1    4    4    0    0 -0.67095220881E-01  0.18186847298E-01  0.55461993475E-01  0.88931568753E-01  0.51100000000E-03 0.  1.
</event>
<event>
 8    1  0.5489035E+004  0.1043930E+01  0.7957747E-01            NaN
         13   -1    0    0    0    0  0.00000000000E+00  0.00000000000E+00  0.74505805969E-08  0.10566000000E+00  0.10566000000E+00 0.  1.
     999900   -1    0    0    0    0 -0.00000000000E+00 -0.00000000000E+00 -0.74505805969E-08  0.93827000000E+00  0.93827000000E+00 0. -1.
     999902    2    1    2    0    0  0.14543342943E-01 -0.10464432203E-01 -0.19352377611E-01  0.10175571411E+01  0.10172153203E+01 0.  0.
     999903    2    3    3    0    0 -0.49761044146E-01 -0.11508186189E+00 -0.23266217351E-01  0.12902172883E+00  0.19628886574E-01 0.  0.
         14    1    1    2    0    0 -0.14543342943E-01  0.10464432203E-01  0.19352377611E-01  0.26372858861E-01  0.00000000000E+00 0.  1.
     999901    1    3    3    0    0  0.64304387089E-01  0.10461742969E+00  0.39138397400E-02  0.88853541231E+00  0.88000000000E+00 0.  1.
        -11    1    4    4    0    0  0.10121293098E-03 -0.88149744242E-02 -0.52204148266E-02  0.10258063663E-01  0.51100000000E-03 0. -1.
         11    1    4    4    0    0 -0.49862257077E-01 -0.10626688747E+00 -0.18045802525E-01  0.11876366516E+00  0.51100000000E-03 0.  1.
</event>
<event>
 8    1  0.5489035E+004  0.1043930E+01  0.7957747E-01            NaN
         13   -1    0    0    0    0  0.00000000000E+00  0.00000000000E+00  0.74505805969E-08  0.10566000000E+00  0.10566000000E+00 0.  1.
     999900   -1    0    0    0    0 -0.00000000000E+00 -0.00000000000E+00 -0.74505805969E-08  0.93827000000E+00  0.93827000000E+00 0. -1.
     999902    2    1    2    0    0 -0.20174031330E-01 -0.44299293829E-02  0.11908323202E-01  0.10200883563E+01  0.10198097031E+01 0.  0.
     999903    2    3    3    0    0  0.12483672284E+00 -0.20166464085E-01 -0.20327941019E-02  0.12797283006E+00  0.19545315019E-01 0.  0.
         14    1    1    2    0    0  0.20174031330E-01  0.44299293829E-02 -0.11908323202E-01  0.23841643733E-01  0.00000000000E+00 0.  1.
     999901    1    3    3    0    0 -0.14501075417E+00  0.15736534702E-01  0.13941117304E-01  0.89211552621E+00  0.88000000000E+00 0.  1.
        -11    1    4    4    0    0  0.33303175139E-01 -0.83813156445E-02  0.76146777414E-02  0.35179430985E-01  0.51100000000E-03 0. -1.
         11    1    4    4    0    0  0.91533547698E-01 -0.11785148441E-01 -0.96474718433E-02  0.92793399075E-01  0.51100000000E-03 0.  1.
</event>
<event>
 8    1  0.5489035E+004  0.1043930E+01  0.7957747E-01            NaN
         13   -1    0    0    0    0  0.00000000000E+00  0.00000000000E+00  0.74505805969E-08  0.10566000000E+00  0.10566000000E+00 0.  1.
     999900   -1    0    0    0    0 -0.00000000000E+00 -0.00000000000E+00 -0.74505805969E-08  0.93827000000E+00  0.93827000000E+00 0. -1.
     999902    2    1    2    0    0  0.17127240753E-01  0.43571641510E-02  0.15938340378E-01  0.10201317238E+01  0.10198540954E+01 0.  0.
     999903    2    3    3    0    0  0.41253860376E-01  0.19992205098E-01  0.12315222598E+00  0.13315857566E+00  0.21521297582E-01 0.  0.
         14    1    1    2    0    0 -0.17127240753E-01 -0.43571641510E-02 -0.15938340378E-01  0.23798276183E-01  0.00000000000E+00 0. -1.
     999901    1    3    3    0    0 -0.24126619623E-01 -0.15635040947E-01 -0.10721388560E+00  0.88697314815E+00  0.88000000000E+00 0. -1.
        -11    1    4    4    0    0  0.35822550098E-01  0.22045530517E-01  0.88129926315E-01  0.97654521373E-01  0.51100000000E-03 0.  1.
         11    1    4    4    0    0  0.54313102783E-02 -0.20533254188E-02  0.35022299660E-01  0.35504054291E-01  0.51100000000E-03 0. -1.
</event>
<event>
 8    1  0.5489035E+004  0.1043930E+01  0.7957747E-01            NaN
         13   -1    0    0    0    0  0.00000000000E+00  0.00000000000E+00  0.74505805969E-08  0.10566000000E+00  0.10566000000E+00 0.  1.
     999900   -1    0    0    0    0 -0.00000000000E+00 -0.00000000000E+00 -0.74505805969E-08  0.93827000000E+00  0.93827000000E+00 0.  1.
     999902    2    1    2    0    0 -0.13132328618E-01 -0.21506617492E-01 -0.20080619246E-02  0.10186510569E+01  0.10183373463E+01 0.  0.
     999903    2    3    3    0    0 -0.46428068520E-01  0.44446010122E-01 -0.10983574502E+00  0.12899653710E+00  0.21099818444E-01 0.  0.
         14    1    1    2    0    0  0.13132328618E-01  0.21506617492E-01  0.20080619246E-02  0.25278943086E-01  0.00000000000E+00 0.  1.
     999901    1    3    3    0    0  0.33295739902E-01 -0.65952627613E-01  0.10782768309E+00  0.88965451981E+00  0.88000000000E+00 0. -1.
        -11    1    4    4    0    0 -0.19352491792E-01  0.13634256551E-01 -0.59657056498E-01  0.64184401542E-01  0.51100000000E-03 0.  1.
         11    1    4    4    0    0 -0.27075576728E-01  0.30811753570E-01 -0.50178688517E-01  0.64812135558E-01  0.51100000000E-03 0. -1.
</event>
<event>
 8    1  0.5489035E+004  0.1043930E+01  0.7957747E-01            NaN
         13   -1    0    0    0    0  0.00000000000E+00  0.00000000000E+00  0.74505805969E-08  0.10566000000E+00  0.10566000000E+00 0.  1.
     999900   -1    0    0    0    0 -0.00000000000E+00 -0.00000000000E+00 -0.74505805969E-08  0.93827000000E+00  0.93827000000E+00 0.  1.
     999902    2    1    2    0    0  0.19734303720E-01 -0.91427026256E-02 -0.81041332666E-02  0.10207199002E+01  0.10204559795E+01 0.  0.
     999903    2    3    3    0    0 -0.54238435774E-01 -0.10093986524E+00 -0.61201786312E-01  0.13127173087E+00  0.18866487920E-01 0.  0.
         14    1    1    2    0    0 -0.19734303720E-01  0.91427026256E-02  0.81041332666E-02  0.23210099755E-01  0.00000000000E+00 0. -1.
     999901    1    3    3    0    0  0.73972739494E-01  0.91797162617E-01  0.53097653045E-01  0.88944816938E+00  0.88000000000E+00 0. -1.
        -11    1    4    4    0    0 -0.51670304669E-01 -0.95312100206E-01 -0.52181196711E-01  0.12032188181E+00  0.51100000000E-03 0.  1.
         11    1    4    4    0    0 -0.25681311049E-02 -0.56277650362E-02 -0.90205896009E-02  0.10949849059E-01  0.51100000000E-03 0. -1.
</event>
<event>
 7    1  0.5489035E+004  0.1043930E+01  0.7957747E-01            NaN
         13   -1    0    0    0    0  0.00000000000E+00  0.00000000000E+00  0.74505805969E-08  0.10566000000E+00  0.10566000000E+00 0.  1.
     999900   -1    0    0    0    0 -0.00000000000E+00 -0.00000000000E+00 -0.74505805969E-08  0.93827000000E+00  0.93827000000E+00 0. -1.
     999903    2    1    2    0    0  0.39538202571E-01 -0.81374990057E-01 -0.10364532843E-02  0.92643741693E-01  0.19915576068E-01 0.  0.
         14    1    1    2    0    0 -0.12061278917E-01  0.23145420540E-01  0.61556370032E-01  0.66860837810E-01  0.00000000000E+00 0.  1.
     999901    1    1    2    0    0 -0.27476923655E-01  0.58229569516E-01 -0.60519916748E-01  0.88442542050E+00  0.88000000000E+00 0. -1.
        -11    1    3    3    0    0  0.21980635118E-01 -0.49888443807E-01 -0.10149767530E-01  0.55455243643E-01  0.51100000000E-03 0. -1.
         11    1    3    3    0    0  0.17557567453E-01 -0.31486546250E-01  0.91133142452E-02  0.37188498049E-01  0.51100000000E-03 0.  1.
</event>
<event>
 8    1  0.5489035E+004  0.1043930E+01  0.7957747E-01            NaN
         13   -1    0    0    0    0  0.00000000000E+00  0.00000000000E+00  0.74505805969E-08  0.10566000000E+00  0.10566000000E+00 0.  1.
     999900   -1    0    0    0    0 -0.00000000000E+00 -0.00000000000E+00 -0.74505805969E-08  0.93827000000E+00  0.93827000000E+00 0. -1.
     999902    2    1    2    0    0  0.17251553795E-01 -0.11126024313E-01  0.99658466823E-02  0.10211106524E+01  0.10208556420E+01 0.  0.
     999903    2    3    3    0    0 -0.81606713150E-01  0.62286343135E-01  0.77071850247E-01  0.13000709592E+00  0.20555551955E-01 0.  0.
         14    1    1    2    0    0 -0.17251553795E-01  0.11126024313E-01 -0.99658466823E-02  0.22819347613E-01  0.00000000000E+00 0.  1.
     999901    1    3    3    0    0  0.98858266945E-01 -0.73412367449E-01 -0.67106003565E-01  0.89110355647E+00  0.88000000000E+00 0. -1.
        -11    1    4    4    0    0 -0.59890292398E-01  0.48845689333E-01  0.67869738050E-01  0.10285577745E+00  0.51100000000E-03 0. -1.
         11    1    4    4    0    0 -0.21716420752E-01  0.13440653802E-01  0.92021121977E-02  0.27151318473E-01  0.51100000000E-03 0.  1.
</event>
<event>
 8    1  0.5489035E+004  0.1043930E+01  0.7957747E-01            NaN
         13   -1    0    0    0    0  0.00000000000E+00  0.00000000000E+00  0.74505805969E-08  0.10566000000E+00  0.10566000000E+00 0.  1.
     999900   -1    0    0    0    0 -0.00000000000E+00 -0.00000000000E+00 -0.74505805969E-08  0.93827000000E+00  0.93827000000E+00 0. -1.
     999902    2    1    2    0    0 -0.15394775102E-01 -0.17310473931E-01  0.71123300014E-02  0.10196970298E+01  0.10194090424E+01 0.  0.
     999903    2    3    3    0    0 -0.53406359855E-01 -0.40672715067E-01 -0.11047899637E+00  0.13075473978E+00  0.19613370747E-01 0.  0.
         14    1    1    2    0    0  0.15394775102E-01  0.17310473931E-01 -0.71123300014E-02  0.24232970230E-01  0.00000000000E+00 0. -1.
     999901    1    3    3    0    0  0.38011584753E-01  0.23362241136E-01  0.11759132638E+00  0.88894228999E+00  0.88000000000E+00 0.  1.
        -11    1    4    4    0    0 -0.41376153151E-01 -0.19875107912E-01 -0.72337924337E-01  0.85674047310E-01  0.51100000000E-03 0.  1.
         11    1    4    4    0    0 -0.12030206704E-01 -0.20797607155E-01 -0.38141072038E-01  0.45080692474E-01  0.51100000000E-03 0. -1.
</event>
<event>
 8    1  0.5489035E+004  0.1043930E+01  0.7957747E-01            NaN
         13   -1    0    0    0    0  0.00000000000E+00  0.00000000000E+00  0.74505805969E-08  0.10566000000E+00  0.10566000000E+00 0. -1.
     999900   -1    0    0    0    0 -0.00000000000E+00 -0.00000000000E+00 -0.74505805969E-08  0.93827000000E+00  0.93827000000E+00 0. -1.
     999902    2    1    2    0    0 -0.18114030427E-01  0.94585538385E-02 -0.12269997320E-01  0.10200944137E+01  0.10198159038E+01 0.  0.
     999903    2    3    3    0    0  0.63411012708E-01  0.63559079649E-01 -0.93154578363E-01  0.13098501944E+00  0.20459391699E-01 0.  0.
         14    1    1    2    0    0  0.18114030427E-01 -0.94585538385E-02  0.12269997320E-01  0.23835586279E-01  0.00000000000E+00 0. -1.
     999901    1    3    3    0    0 -0.81525043135E-01 -0.54100525811E-01  0.80884581042E-01  0.88910939428E+00  0.88000000000E+00 0.  1.
        -11    1    4    4    0    0  0.36187560079E-01  0.49839647898E-01 -0.62335524380E-01  0.87632806230E-01  0.51100000000E-03 0. -1.
         11    1    4    4    0    0  0.27223452629E-01  0.13719431752E-01 -0.30819053983E-01  0.43352213208E-01  0.51100000000E-03 0.  1.
</event>
<event>
 8    1  0.5489035E+004  0.1043930E+01  0.7957747E-01            NaN
         13   -1    0    0    0    0  0.00000000000E+00  0.00000000000E+00  0.74505805969E-08  0.10566000000E+00  0.10566000000E+00 0. -1.
     999900   -1    0    0    0    0 -0.00000000000E+00 -0.00000000000E+00 -0.74505805969E-08  0.93827000000E+00  0.93827000000E+00 0.  1.
     999902    2    1    2    0    0 -0.79392325618E-02  0.10220774659E-01  0.19648502830E-01  0.10204021588E+01  0.10201308771E+01 0.  0.
     999903    2    3    3    0    0  0.78910690279E-01  0.38593127479E-01 -0.91800526737E-01  0.12867978850E+00  0.20367246478E-01 0.  0.
         14    1    1    2    0    0  0.79392325618E-02 -0.10220774659E-01 -0.19648502830E-01  0.23527841204E-01  0.00000000000E+00 0.  1.
     999901    1    3    3    0    0 -0.86849922841E-01 -0.28372352820E-01  0.11144902957E+00  0.89172237030E+00  0.88000000000E+00 0. -1.
        -11    1    4    4    0    0  0.52675494056E-01  0.28372523085E-01 -0.74797609830E-01  0.95784400074E-01  0.51100000000E-03 0.  1.
         11    1    4    4    0    0  0.26235196224E-01  0.10220604394E-01 -0.17002916907E-01  0.32895388422E-01  0.51100000000E-03 0. -1.
</event>
<event>
 8    1  0.5489035E+004  0.1043930E+01  0.7957747E-01            NaN
         13   -1    0    0    0    0  0.00000000000E+00  0.00000000000E+00  0.74505805969E-08  0.10566000000E+00  0.10566000000E+00 0. -1.
     999900   -1    0    0    0    0 -0.00000000000E+00 -0.00000000000E+00 -0.74505805969E-08  0.93827000000E+00  0.93827000000E+00 0. -1.
     999902    2    1    2    0    0  0.20480255384E-01  0.95321202493E-02 -0.73742248860E-02  0.10201669747E+01  0.10198901779E+01 0.  0.
     999903    2    3    3    0    0  0.61312986012E-01 -0.11286897082E+00 -0.13279858071E-01  0.13073782326E+00  0.20428827009E-01 0.  0.
         14    1    1    2    0    0 -0.20480255384E-01 -0.95321202493E-02  0.73742248860E-02  0.23763025264E-01  0.00000000000E+00 0.  1.
     999901    1    3    3    0    0 -0.40832730628E-01  0.12240109107E+00  0.59056331853E-02  0.88942915147E+00  0.88000000000E+00 0. -1.
        -11    1    4    4    0    0  0.29658156948E-01 -0.39382311104E-01 -0.11856381966E-01  0.50709048658E-01  0.51100000000E-03 0.  1.
         11    1    4    4    0    0  0.31654829065E-01 -0.73486659718E-01 -0.14234761055E-02  0.80028774605E-01  0.51100000000E-03 0. -1.
</event>
<event>
 8    1  0.5489035E+004  0.1043930E+01  0.7957747E-01            NaN
         13   -1    0    0    0    0  0.00000000000E+00  0.00000000000E+00  0.74505805969E-08  0.10566000000E+00  0.10566000000E+00 0.  1.
     999900   -1    0    0    0    0 -0.00000000000E+00 -0.00000000000E+00 -0.74505805969E-08  0.93827000000E+00  0.93827000000E+00 0. -1.
     999902    2    1    2    0    0  0.29717272784E-01  0.15748549759E-02  0.23821643443E-01  0.10058108819E+01  0.10050882861E+01 0.  0.
     999903    2    3    3    0    0 -0.76985113205E-02  0.11290043782E+00 -0.21320370334E-01  0.11686143017E+00  0.19906273693E-01 0.  0.
         14    1    1    2    0    0 -0.29717272784E-01 -0.15748549759E-02 -0.23821643443E-01  0.38119118120E-01  0.00000000000E+00 0. -1.
     999901    1    3    3    0    0  0.37415784105E-01 -0.11132558285E+00  0.45142013777E-01  0.88894945171E+00  0.88000000000E+00 0. -1.
        -11    1    4    4    0    0 -0.93822277534E-02  0.85780382017E-01 -0.81976015107E-02  0.86681958493E-01  0.51100000000E-03 0.  1.
         11    1    4    4    0    0  0.16837164329E-02  0.27120055804E-01 -0.13122768823E-01  0.30179471673E-01  0.51100000000E-03 0. -1.
</event>
<event>
 8    1  0.5489035E+004  0.1043930E+01  0.7957747E-01            NaN
         13   -1    0    0    0    0  0.00000000000E+00  0.00000000000E+00  0.74505805969E-08  0.10566000000E+00  0.10566000000E+00 0. -1.
     999900   -1    0    0    0    0 -0.00000000000E+00 -0.00000000000E+00 -0.74505805969E-08  0.93827000000E+00  0.93827000000E+00 0.  1.
     999902    2    1    2    0    0 -0.39227950469E-02 -0.23192046798E-01 -0.71806682214E-02  0.10193368841E+01  0.10190401669E+01 0.  0.
     999903    2    3    3    0    0 -0.25864882217E-01  0.10414649945E+00  0.64628875767E-01  0.12700669228E+00  0.20936160630E-01 0.  0.
         14    1    1    2    0    0  0.39227950469E-02  0.23192046798E-01  0.71806682214E-02  0.24593115942E-01  0.00000000000E+00 0. -1.
     999901    1    3    3    0    0  0.21942087170E-01 -0.12733854624E+00 -0.71809543989E-01  0.89233019178E+00  0.88000000000E+00 0.  1.
        -11    1    4    4    0    0 -0.18265315373E-01  0.32781828655E-01  0.20714154620E-01  0.42867322733E-01  0.51100000000E-03 0. -1.
         11    1    4    4    0    0 -0.75995668439E-02  0.71364670792E-01  0.43914721147E-01  0.84139369547E-01  0.51100000000E-03 0.  1.
</event>
<event>
 8    1  0.5489035E+004  0.1043930E+01  0.7957747E-01            NaN
         13   -1    0    0    0    0  0.00000000000E+00  0.00000000000E+00  0.74505805969E-08  0.10566000000E+00  0.10566000000E+00 0.  1.
     999900   -1    0    0    0    0 -0.00000000000E+00 -0.00000000000E+00 -0.74505805969E-08  0.93827000000E+00  0.93827000000E+00 0.  1.
     999902    2    1    2    0    0  0.18215235973E-01 -0.13337002258E-01  0.16950107425E-02  0.10212905762E+01  0.10210396160E+01 0.  0.
     999903    2    3    3    0    0 -0.83018384686E-01 -0.72210881878E-01 -0.67704751904E-01  0.13082400928E+00  0.20603987894E-01 0.  0.
         14    1    1    2    0    0 -0.18215235973E-01  0.13337002258E-01 -0.16950107425E-02  0.22639423849E-01  0.00000000000E+00 0. -1.
     999901    1    3    3    0    0  0.10123362066E+00  0.58873879621E-01  0.69399762647E-01  0.89046656687E+00  0.88000000000E+00 0.  1.
        -11    1    4    4    0    0 -0.30225541553E-01 -0.29664053047E-01 -0.37602247953E-01  0.56636821746E-01  0.51100000000E-03 0. -1.
         11    1    4    4    0    0 -0.52792843133E-01 -0.42546828831E-01 -0.30102503951E-01  0.74187187538E-01  0.51100000000E-03 0.  1.
</event>
<event>
 7    1  0.5489035E+004  0.1043930E+01  0.7957747E-01            NaN
         13   -1    0    0    0    0  0.00000000000E+00  0.00000000000E+00  0.74505805969E-08  0.10566000000E+00  0.10566000000E+00 0.  1.
     999900   -1    0    0    0    0 -0.00000000000E+00 -0.00000000000E+00 -0.74505805969E-08  0.93827000000E+00  0.93827000000E+00 0. -1.
     999903    2    1    2    0    0  0.93678195268E-01  0.21454102761E-01 -0.43996754303E-01  0.10752235104E+00  0.19734710309E-01 0.  0.
         14    1    1    2    0    0  0.37802809314E-01  0.13464493140E-01  0.21821700043E-01  0.45678567844E-01  0.00000000000E+00 0. -1.
     999901    1    1    2    0    0 -0.13148100458E+00 -0.34918595901E-01  0.22175054260E-01  0.89072908111E+00  0.88000000000E+00 0.  1.
        -11    1    3    3    0    0  0.87424997475E-01  0.23854732305E-01 -0.37183527719E-01  0.97954347997E-01  0.51100000000E-03 0. -1.
         11    1    3    3    0    0  0.62531977929E-02 -0.24006295434E-02 -0.68132265831E-02  0.95680030474E-02  0.51100000000E-03 0.  1.
</event>
<event>
 8    1  0.5489035E+004  0.1043930E+01  0.7957747E-01            NaN
         13   -1    0    0    0    0  0.00000000000E+00  0.00000000000E+00  0.74505805969E-08  0.10566000000E+00  0.10566000000E+00 0.  1.
     999900   -1    0    0    0    0 -0.00000000000E+00 -0.00000000000E+00 -0.74505805969E-08  0.93827000000E+00  0.93827000000E+00 0. -1.
     999902    2    1    2    0    0  0.19798957154E-01 -0.12587938998E-01 -0.24076611775E-02  0.10203450102E+01  0.10200723935E+01 0.  0.
     999903    2    3    3    0    0  0.70809143042E-01  0.41330082928E-01  0.10080512665E+00  0.13120943462E+00  0.18224480243E-01 0.  0.
         14    1    1    2    0    0 -0.19798957154E-01  0.12587938998E-01  0.24076611775E-02  0.23584989823E-01  0.00000000000E+00 0.  1.
     999901    1    3    3    0    0 -0.51010185888E-01 -0.53918021926E-01 -0.10321278783E+00  0.88913557556E+00  0.88000000000E+00 0. -1.
        -11    1    4    4    0    0  0.46116801013E-01  0.36519191391E-01  0.70747300417E-01  0.92010066367E-01  0.51100000000E-03 0. -1.
         11    1    4    4    0    0  0.24692342029E-01  0.48108915363E-02  0.30057826235E-01  0.39199368251E-01  0.51100000000E-03 0.  1.
</event>
<event>
 8    1  0.5489035E+004  0.1043930E+01  0.7957747E-01            NaN
         13   -1    0    0    0    0  0.00000000000E+00  0.00000000000E+00  0.74505805969E-08  0.10566000000E+00  0.10566000000E+00 0. -1.
     999900   -1    0    0    0    0 -0.00000000000E+00 -0.00000000000E+00 -0.74505805969E-08  0.93827000000E+00  0.93827000000E+00 0. -1.
     999902    2    1    2    0    0  0.49505586253E-02 -0.20914056980E-01  0.92350437823E-02  0.10205378679E+01  0.10202697428E+01 0.  0.
     999903    2    3    3    0    0  0.28147673567E-01  0.12258430708E+00  0.17765293301E-01  0.12857225658E+00  0.19900141882E-01 0.  0.
         14    1    1    2    0    0 -0.49505586253E-02  0.20914056980E-01 -0.92350437823E-02  0.23392132090E-01  0.00000000000E+00 0.  1.
     999901    1    3    3    0    0 -0.23197114942E-01 -0.14349836406E+00 -0.85302495188E-02  0.89196561133E+00  0.88000000000E+00 0. -1.
        -11    1    4    4    0    0  0.27740818764E-01  0.96108369554E-01  0.19932664613E-01  0.10199972531E+00  0.51100000000E-03 0.  1.
         11    1    4    4    0    0  0.40685480349E-03  0.26475937529E-01 -0.21673713115E-02  0.26572531273E-01  0.51100000000E-03 0. -1.
</event>
<event>
 8    1  0.5489035E+004  0.1043930E+01  0.7957747E-01            NaN
         13   -1    0    0    0    0  0.00000000000E+00  0.00000000000E+00  0.74505805969E-08  0.10566000000E+00  0.10566000000E+00 0.  1.
     999900   -1    0    0    0    0 -0.00000000000E+00 -0.00000000000E+00 -0.74505805969E-08  0.93827000000E+00  0.93827000000E+00 0.  1.
     999902    2    1    2    0    0  0.11866413731E-01  0.55790238979E-03 -0.21895151240E-01  0.10190197475E+01  0.10187152326E+01 0.  0.
     999903    2    3    3    0    0 -0.99255142779E-01 -0.61415894344E-01  0.46436377238E-01  0.12724738332E+00  0.20299359198E-01 0.  0.
         14    1    1    2    0    0 -0.11866413731E-01 -0.55790238979E-03  0.21895151240E-01  0.24910252463E-01  0.00000000000E+00 0.  1.
     999901    1    3    3    0    0  0.11112155651E+00  0.61973796734E-01 -0.68331528479E-01  0.89177236422E+00  0.88000000000E+00 0.  1.
        -11    1    4    4    0    0 -0.12975352041E-01 -0.17052906940E-01  0.75212889418E-02  0.22715463984E-01  0.51100000000E-03 0. -1.
         11    1    4    4    0    0 -0.86279790738E-01 -0.44362987404E-01  0.38915088296E-01  0.10453191933E+00  0.51100000000E-03 0.  1.
</event>
<event>
 8    1  0.5489035E+004  0.1043930E+01  0.7957747E-01            NaN
         13   -1    0    0    0    0  0.00000000000E+00  0.00000000000E+00  0.74505805969E-08  0.10566000000E+00  0.10566000000E+00 0. -1.
     999900   -1    0    0    0    0 -0.00000000000E+00 -0.00000000000E+00 -0.74505805969E-08  0.93827000000E+00  0.93827000000E+00 0. -1.
     999902    2    1    2    0    0  0.72153648881E-02 -0.20977715729E-01 -0.79835316515E-02  0.10203532567E+01  0.10200808329E+01 0.  0.
     999903    2    3    3    0    0  0.93307470445E-02  0.38042327896E-01 -0.12322945064E+00  0.13087618434E+00  0.20218718257E-01 0.  0.
         14    1    1    2    0    0 -0.72153648881E-02  0.20977715729E-01  0.79835316515E-02  0.23576743314E-01  0.00000000000E+00 0. -1.
     999901    1    3    3    0    0 -0.21153821564E-02 -0.59020043626E-01  0.11524591899E+00  0.88947707235E+00  0.88000000000E+00 0.  1.
        -11    1    4    4    0    0  0.31968435434E-02  0.28567434492E-01 -0.58671885143E-01  0.65337350338E-01  0.51100000000E-03 0. -1.
         11    1    4    4    0    0  0.61339035012E-02  0.94748934048E-02 -0.64557565502E-01  0.65538833997E-01  0.51100000000E-03 0.  1.
</event>
<event>
 8    1  0.5489035E+004  0.1043930E+01  0.7957747E-01            NaN
         13   -1    0    0    0    0  0.00000000000E+00  0.00000000000E+00  0.74505805969E-08  0.10566000000E+00  0.10566000000E+00 0.  1.
     999900   -1    0    0    0    0 -0.00000000000E+00 -0.00000000000E+00 -0.74505805969E-08  0.93827000000E+00  0.93827000000E+00 0. -1.
     999902    2    1    2    0    0 -0.16193255722E-01  0.12811496992E-01 -0.11058905736E-01  0.10205066061E+01  0.10202377555E+01 0.  0.
     999903    2    3    3    0    0 -0.39170497518E-01  0.12449992798E+00  0.14338289755E-01  0.13278633664E+00  0.19800623802E-01 0.  0.
         14    1    1    2    0    0  0.16193255722E-01 -0.12811496992E-01  0.11058905736E-01  0.23423393907E-01  0.00000000000E+00 0. -1.
     999901    1    3    3    0    0  0.22977241796E-01 -0.11168843099E+00 -0.25397195491E-01  0.88772026945E+00  0.88000000000E+00 0.  1.
        -11    1    4    4    0    0 -0.20037969821E-01  0.78172903242E-01  0.18674757177E-03  0.80702038583E-01  0.51100000000E-03 0.  1.
         11    1    4    4    0    0 -0.19132527697E-01  0.46327024737E-01  0.14151542183E-01  0.52084298058E-01  0.51100000000E-03 0. -1.
</event>
<event>
 8    1  0.5489035E+004  0.1043930E+01  0.7957747E-01            NaN
         13   -1    0    0    0    0  0.00000000000E+00  0.00000000000E+00  0.74505805969E-08  0.10566000000E+00  0.10566000000E+00 0.  1.
     999900   -1    0    0    0    0 -0.00000000000E+00 -0.00000000000E+00 -0.74505805969E-08  0.93827000000E+00  0.93827000000E+00 0.  1.
     999902    2    1    2    0    0  0.17660435308E-01  0.12950613500E-01 -0.52647403983E-02  0.10214060826E+01  0.10211577051E+01 0.  0.
     999903    2    3    3    0    0  0.13106973463E+00  0.20066423267E-01  0.19745767297E-03  0.13408306385E+00  0.19907092781E-01 0.  0.
         14    1    1    2    0    0 -0.17660435308E-01 -0.12950613500E-01  0.52647403983E-02  0.22523917438E-01  0.00000000000E+00 0. -1.
     999901    1    3    3    0    0 -0.11340929933E+00 -0.71158097675E-02 -0.54621980712E-02  0.88732301871E+00  0.88000000000E+00 0.  1.
        -11    1    4    4    0    0  0.10454349644E+00  0.79969573137E-02  0.21279111922E-02  0.10487174596E+00  0.51100000000E-03 0. -1.
         11    1    4    4    0    0  0.26526238194E-01  0.12069465954E-01 -0.19304535192E-02  0.29211317890E-01  0.51100000000E-03 0.  1.
</event>
<event>
 8    1  0.5489035E+004  0.1043930E+01  0.7957747E-01            NaN
         13   -1    0    0    0    0  0.00000000000E+00  0.00000000000E+00  0.74505805969E-08  0.10566000000E+00  0.10566000000E+00 0.  1.
     999900   -1    0    0    0    0 -0.00000000000E+00 -0.00000000000E+00 -0.74505805969E-08  0.93827000000E+00  0.93827000000E+00 0. -1.
     999902    2    1    2    0    0 -0.19520827559E-01 -0.29918236662E-02 -0.13884507811E-01  0.10197888883E+01  0.10195031061E+01 0.  0.
     999903    2    3    3    0    0  0.30436225395E-01  0.12340262238E-01  0.12190637568E+00  0.12784161180E+00  0.20091475491E-01 0.  0.
         14    1    1    2    0    0  0.19520827559E-01  0.29918236662E-02  0.13884507811E-01  0.24141111710E-01  0.00000000000E+00 0.  1.
     999901    1    3    3    0    0 -0.49957052953E-01 -0.15332085904E-01 -0.13579088349E+00  0.89194727649E+00  0.88000000000E+00 0. -1.
        -11    1    4    4    0    0  0.16013823986E-01 -0.32518351749E-03  0.30644577734E-01  0.34581780875E-01  0.51100000000E-03 0.  1.
         11    1    4    4    0    0  0.14422401409E-01  0.12665445755E-01  0.91261797948E-01  0.93259830926E-01  0.51100000000E-03 0. -1.
</event>
<event>
 8    1  0.5489035E+004  0.1043930E+01  0.7957747E-01            NaN
         13   -1    0    0    0    0  0.00000000000E+00  0.00000000000E+00  0.74505805969E-08  0.10566000000E+00  0.10566000000E+00 0.  1.
     999900   -1    0    0    0    0 -0.00000000000E+00 -0.00000000000E+00 -0.74505805969E-08  0.93827000000E+00  0.93827000000E+00 0. -1.
     999902    2    1    2    0    0  0.12200403625E-01  0.16278410897E-01 -0.12115394820E-01  0.10202525993E+01  0.10199778170E+01 0.  0.
     999903    2    3    3    0    0 -0.63673813908E-01 -0.39934167518E-01 -0.10460457040E+00  0.13038126120E+00  0.20200614136E-01 0.  0.
         14    1    1    2    0    0 -0.12200403625E-01 -0.16278410897E-01  0.12115394820E-01  0.23677400651E-01  0.00000000000E+00 0.  1.
     999901    1    3    3    0    0  0.75874217533E-01  0.56212578415E-01  0.92489175577E-01  0.88987133815E+00  0.88000000000E+00 0.  1.
        -11    1    4    4    0    0 -0.49367470205E-01 -0.34670968422E-01 -0.69041215277E-01  0.91685187974E-01  0.51100000000E-03 0. -1.
         11    1    4    4    0    0 -0.14306343703E-01 -0.52631990963E-02 -0.35563355119E-01  0.38696073228E-01  0.51100000000E-03 0.  1.
</event>
<event>
 8    1  0.5489035E+004  0.1043930E+01  0.7957747E-01            NaN
         13   -1    0    0    0    0  0.00000000000E+00  0.00000000000E+00  0.74505805969E-08  0.10566000000E+00  0.10566000000E+00 0. -1.
     999900   -1    0    0    0    0 -0.00000000000E+00 -0.00000000000E+00 -0.74505805969E-08  0.93827000000E+00  0.93827000000E+00 0. -1.
     999902    2    1    2    0    0 -0.14260658606E-01  0.19833626177E-02 -0.18227785094E-01  0.10207017357E+01  0.10204373969E+01 0.  0.
     999903    2    3    3    0    0  0.48423285859E-01 -0.10365181732E+00  0.57450424987E-01  0.12895330730E+00  0.15488391988E-01 0.  0.
         14    1    1    2    0    0  0.14260658606E-01 -0.19833626177E-02  0.18227785094E-01  0.23228264261E-01  0.00000000000E+00 0. -1.
     999901    1    3    3    0    0 -0.62683944464E-01  0.10563517994E+00 -0.75678210081E-01  0.89174842843E+00  0.88000000000E+00 0. -1.
        -11    1    4    4    0    0  0.15195285741E-01 -0.34267522881E-01  0.10931132794E-01  0.39050103947E-01  0.51100000000E-03 0. -1.
         11    1    4    4    0    0  0.33228000118E-01 -0.69384294440E-01  0.46519292193E-01  0.89903203357E-01  0.51100000000E-03 0.  1.
</event>
<event>
 8    1  0.5489035E+004  0.1043930E+01  0.7957747E-01            NaN
         13   -1    0    0    0    0  0.00000000000E+00  0.00000000000E+00  0.74505805969E-08  0.10566000000E+00  0.10566000000E+00 0. -1.
     999900   -1    0    0    0    0 -0.00000000000E+00 -0.00000000000E+00 -0.74505805969E-08  0.93827000000E+00  0.93827000000E+00 0. -1.
     999902    2    1    2    0    0  0.61650085350E-03  0.18314298578E-01  0.14135178378E-01  0.10207870340E+01  0.10205246553E+01 0.  0.
     999903    2    3    3    0    0 -0.63768511882E-01  0.10508130515E+00 -0.42589242024E-01  0.13236618604E+00  0.24463439471E-01 0.  0.
         14    1    1    2    0    0 -0.61650085350E-03 -0.18314298578E-01 -0.14135178378E-01  0.23142965961E-01  0.00000000000E+00 0.  1.
     999901    1    3    3    0    0  0.64385012735E-01 -0.86767006570E-01  0.56724420402E-01  0.88842084800E+00  0.88000000000E+00 0. -1.
        -11    1    4    4    0    0 -0.28937681154E-01  0.37868578109E-01 -0.52356848217E-02  0.47948848945E-01  0.51100000000E-03 0.  1.
         11    1    4    4    0    0 -0.34830830728E-01  0.67212727039E-01 -0.37353557202E-01  0.84417337093E-01  0.51100000000E-03 0. -1.
</event>
<event>
 8    1  0.5489035E+004  0.1043930E+01  0.7957747E-01            NaN
         13   -1    0    0    0    0  0.00000000000E+00  0.00000000000E+00  0.74505805969E-08  0.10566000000E+00  0.10566000000E+00 0. -1.
     999900   -1    0    0    0    0 -0.00000000000E+00 -0.00000000000E+00 -0.74505805969E-08  0.93827000000E+00  0.93827000000E+00 0. -1.
     999902    2    1    2    0    0 -0.76212757261E-02 -0.11175654054E-01 -0.19651675540E-01  0.10200727697E+01  0.10197937478E+01 0.  0.
     999903    2    3    3    0    0 -0.90265450704E-01  0.86459750698E-01  0.26640752033E-01  0.12962023261E+00  0.21645668178E-01 0.  0.
         14    1    1    2    0    0  0.76212757261E-02  0.11175654054E-01  0.19651675540E-01  0.23857230325E-01  0.00000000000E+00 0. -1.
     999901    1    3    3    0    0  0.82644174978E-01 -0.97635404752E-01 -0.46292427573E-01  0.89045253707E+00  0.88000000000E+00 0.  1.
        -11    1    4    4    0    0 -0.53348717706E-01  0.42032349950E-01  0.23121362569E-01  0.71747213543E-01  0.51100000000E-03 0. -1.
         11    1    4    4    0    0 -0.36916732999E-01  0.44427400747E-01  0.35193894645E-02  0.57873019065E-01  0.51100000000E-03 0.  1.
</event>
<event>
 8    1  0.5489035E+004  0.1043930E+01  0.7957747E-01            NaN
         13   -1    0    0    0    0  0.00000000000E+00  0.00000000000E+00  0.74505805969E-08  0.10566000000E+00  0.10566000000E+00 0. -1.
     999900   -1    0    0    0    0 -0.00000000000E+00 -0.00000000000E+00 -0.74505805969E-08  0.93827000000E+00  0.93827000000E+00 0. -1.
     999902    2    1    2    0    0  0.11872495258E-01  0.19125397405E-01  0.90623900048E-02  0.10196634823E+01  0.10193746874E+01 0.  0.
     999903    2    3    3    0    0 -0.66538711063E-01  0.63856330643E-01 -0.89193791970E-01  0.12960536566E+00  0.18357212459E-01 0.  0.
         14    1    1    2    0    0 -0.11872495258E-01 -0.19125397405E-01 -0.90623900048E-02  0.24266517718E-01  0.00000000000E+00 0. -1.
     999901    1    3    3    0    0  0.78411206321E-01 -0.44730933237E-01  0.98256181975E-01  0.89005811662E+00  0.88000000000E+00 0. -1.
        -11    1    4    4    0    0 -0.48333417773E-01  0.54245211681E-01 -0.76032602795E-01  0.10516596442E+00  0.51100000000E-03 0.  1.
         11    1    4    4    0    0 -0.18205293291E-01  0.96111189620E-02 -0.13161189175E-01  0.24439401240E-01  0.51100000000E-03 0. -1.
</event>
<event>
 8    1  0.5489035E+004  0.1043930E+01  0.7957747E-01            NaN
         13   -1    0    0    0    0  0.00000000000E+00  0.00000000000E+00  0.74505805969E-08  0.10566000000E+00  0.10566000000E+00 0. -1.
     999900   -1    0    0    0    0 -0.00000000000E+00 -0.00000000000E+00 -0.74505805969E-08  0.93827000000E+00  0.93827000000E+00 0.  1.
     999902    2    1    2    0    0  0.21532606872E-01  0.20099588037E-02  0.10205230810E-01  0.10200168273E+01  0.10197364797E+01 0.  0.
     999903    2    3    3    0    0  0.77475611790E-01  0.40366804920E-01  0.98314476832E-01  0.13301958565E+00  0.19912921698E-01 0.  0.
         14    1    1    2    0    0 -0.21532606872E-01 -0.20099588037E-02 -0.10205230810E-01  0.23913172708E-01  0.00000000000E+00 0.  1.
     999901    1    3    3    0    0 -0.55943004918E-01 -0.38356846116E-01 -0.88109246022E-01  0.88699724164E+00  0.88000000000E+00 0.  1.
        -11    1    4    4    0    0  0.45936063479E-01  0.19692256759E-01  0.42231150279E-01  0.65434227122E-01  0.51100000000E-03 0. -1.
         11    1    4    4    0    0  0.31539548311E-01  0.20674548161E-01  0.56083326552E-01  0.67585358529E-01  0.51100000000E-03 0.  1.
</event>
<event>
 8    1  0.5489035E+004  0.1043930E+01  0.7957747E-01            NaN
         13   -1    0    0    0    0  0.00000000000E+00  0.00000000000E+00  0.74505805969E-08  0.10566000000E+00  0.10566000000E+00 0. -1.
     999900   -1    0    0    0    0 -0.00000000000E+00 -0.00000000000E+00 -0.74505805969E-08  0.93827000000E+00  0.93827000000E+00 0. -1.
     999902    2    1    2    0    0 -0.19210068898E-01 -0.80427314379E-02  0.10958765655E-01  0.10203968995E+01  0.10201254950E+01 0.  0.
     999903    2    3    3    0    0 -0.13067026709E+00  0.62464802475E-02 -0.15078610696E-01  0.13286915211E+00  0.17694910710E-01 0.  0.
         14    1    1    2    0    0  0.19210068898E-01  0.80427314379E-02 -0.10958765655E-01  0.23533100534E-01  0.00000000000E+00 0. -1.
     999901    1    3    3    0    0  0.11146019820E+00 -0.14289211685E-01  0.26037376351E-01  0.88752774735E+00  0.88000000000E+00 0. -1.
        -11    1    4    4    0    0 -0.71428562709E-01 -0.51453506724E-02 -0.10277915800E-01  0.72349228596E-01  0.51100000000E-03 0.  1.
         11    1    4    4    0    0 -0.59241704385E-01  0.11391830920E-01 -0.48006948963E-02  0.60519923518E-01  0.51100000000E-03 0. -1.
</event>
<event>
 8    1  0.5489035E+004  0.1043930E+01  0.7957747E-01            NaN
         13   -1    0    0    0    0  0.00000000000E+00  0.00000000000E+00  0.74505805969E-08  0.10566000000E+00  0.10566000000E+00 0. -1.
     999900   -1    0    0    0    0 -0.00000000000E+00 -0.00000000000E+00 -0.74505805969E-08  0.93827000000E+00  0.93827000000E+00 0.  1.
     999902    2    1    2    0    0 -0.19904882002E-01 -0.52987564387E-02  0.13093361068E-01  0.10195226804E+01  0.10192304835E+01 0.  0.
     999903    2    3    3    0    0 -0.11670792504E+00 -0.53886274460E-01 -0.22884109582E-01  0.13215243383E+00  0.20398846858E-01 0.  0.
         14    1    1    2    0    0  0.19904882002E-01  0.52987564387E-02 -0.13093361068E-01  0.24407319627E-01  0.00000000000E+00 0.  1.
     999901    1    3    3    0    0  0.96803043043E-01  0.48587518021E-01  0.35977470650E-01  0.88737024654E+00  0.88000000000E+00 0. -1.
        -11    1    4    4    0    0 -0.91955495509E-01 -0.48105881108E-01 -0.24651728878E-01  0.10666751056E+00  0.51100000000E-03 0.  1.
         11    1    4    4    0    0 -0.24752429536E-01 -0.57803933514E-02  0.17676192953E-02  0.25484923273E-01  0.51100000000E-03 0. -1.
</event>
<event>
 8    1  0.5489035E+004  0.1043930E+01  0.7957747E-01            NaN
         13   -1    0    0    0    0  0.00000000000E+00  0.00000000000E+00  0.74505805969E-08  0.10566000000E+00  0.10566000000E+00 0.  1.
     999900   -1    0    0    0    0 -0.00000000000E+00 -0.00000000000E+00 -0.74505805969E-08  0.93827000000E+00  0.93827000000E+00 0.  1.
     999902    2    1    2    0    0 -0.16331195474E-01  0.15131299014E-01 -0.10743054987E-01  0.10192100205E+01  0.10189101965E+01 0.  0.
     999903    2    3    3    0    0 -0.23372726324E-01 -0.12360476452E+00 -0.14799151150E-01  0.12830389167E+00  0.20456089446E-01 0.  0.
         14    1    1    2    0    0  0.16331195474E-01 -0.15131299014E-01  0.10743054987E-01  0.24719979488E-01  0.00000000000E+00 0. -1.
     999901    1    3    3    0    0  0.70415308504E-02  0.13873606354E+00  0.40560961633E-02  0.89090612884E+00  0.88000000000E+00 0. -1.
        -11    1    4    4    0    0 -0.17952743087E-01 -0.56377548460E-01 -0.14220940756E-01  0.60854130770E-01  0.51100000000E-03 0. -1.
         11    1    4    4    0    0 -0.54199832368E-02 -0.67227216063E-01 -0.57821039387E-03  0.67449760905E-01  0.51100000000E-03 0.  1.
</event>
<event>
 8    1  0.5489035E+004  0.1043930E+01  0.7957747E-01            NaN
         13   -1    0    0    0    0  0.00000000000E+00  0.00000000000E+00  0.74505805969E-08  0.10566000000E+00  0.10566000000E+00 0. -1.
     999900   -1    0    0    0    0 -0.00000000000E+00 -0.00000000000E+00 -0.74505805969E-08  0.93827000000E+00  0.93827000000E+00 0. -1.
     999902    2    1    2    0    0  0.77590278084E-02  0.21685426903E-02  0.18720694910E-01  0.10235493840E+01  0.10233464575E+01 0.  0.
     999903    2    3    3    0    0 -0.11969421533E+00  0.52341976216E-01  0.14348554894E-01  0.13294238976E+00  0.20035226687E-01 0.  0.
         14    1    1    2    0    0 -0.77590278084E-02 -0.21685426903E-02 -0.18720694910E-01  0.20380615983E-01  0.00000000000E+00 0.  1.
     999901    1    3    3    0    0  0.12745324314E+00 -0.50173433526E-01  0.43721400160E-02  0.89060699426E+00  0.88000000000E+00 0. -1.
        -11    1    4    4    0    0 -0.78722059456E-01  0.44548902152E-01  0.10103845884E-01  0.91017120096E-01  0.51100000000E-03 0.  1.
         11    1    4    4    0    0 -0.40972155875E-01  0.77930740640E-02  0.42447090099E-02  0.41925269659E-01  0.51100000000E-03 0. -1.
</event>
<event>
 8    1  0.5489035E+004  0.1043930E+01  0.7957747E-01            NaN
         13   -1    0    0    0    0  0.00000000000E+00  0.00000000000E+00  0.74505805969E-08  0.10566000000E+00  0.10566000000E+00 0.  1.
     999900   -1    0    0    0    0 -0.00000000000E+00 -0.00000000000E+00 -0.74505805969E-08  0.93827000000E+00  0.93827000000E+00 0.  1.
     999902    2    1    2    0    0 -0.22739066841E-01 -0.57525120074E-02  0.88634192791E-03  0.10204578429E+01  0.10201878587E+01 0.  0.
     999903    2    3    3    0    0 -0.13171202134E+00 -0.51998170663E-02  0.11052884906E-01  0.13367784267E+00  0.19300380638E-01 0.  0.
         14    1    1    2    0    0  0.22739066841E-01  0.57525120074E-02 -0.88634192791E-03  0.23472157063E-01  0.00000000000E+00 0.  1.
     999901    1    3    3    0    0  0.10897295450E+00 -0.55269494107E-03 -0.10166542978E-01  0.88678000027E+00  0.88000000000E+00 0.  1.
        -11    1    4    4    0    0 -0.39886128807E-01 -0.43435745588E-03  0.12213702173E-01  0.41719630624E-01  0.51100000000E-03 0. -1.
         11    1    4    4    0    0 -0.91825892531E-01 -0.47654596104E-02 -0.11608172662E-02  0.91958212043E-01  0.51100000000E-03 0.  1.
</event>
<event>
 8    1  0.5489035E+004  0.1043930E+01  0.7957747E-01            NaN
         13   -1    0    0    0    0  0.00000000000E+00  0.00000000000E+00  0.74505805969E-08  0.10566000000E+00  0.10566000000E+00 0. -1.
     999900   -1    0    0    0    0 -0.00000000000E+00 -0.00000000000E+00 -0.74505805969E-08  0.93827000000E+00  0.93827000000E+00 0.  1.
     999902    2    1    2    0    0  0.23085983907E-01 -0.57508810833E-02 -0.16069423954E-03  0.10201379612E+01  0.10198604801E+01 0.  0.
     999903    2    3    3    0    0 -0.88757059471E-01  0.75694859184E-01 -0.48938826961E-01  0.12799358884E+00  0.19489040160E-01 0.  0.
         14    1    1    2    0    0 -0.23085983907E-01  0.57508810833E-02  0.16069423955E-03  0.23792038770E-01  0.00000000000E+00 0. -1.
     999901    1    3    3    0    0  0.11184304338E+00 -0.81445740268E-01  0.48778132721E-01  0.89214437239E+00  0.88000000000E+00 0.  1.
        -11    1    4    4    0    0 -0.72453309834E-01  0.56010109218E-01 -0.30696779953E-01  0.96587617534E-01  0.51100000000E-03 0. -1.
         11    1    4    4    0    0 -0.16303749637E-01  0.19684749966E-01 -0.18242047007E-01  0.31405971303E-01  0.51100000000E-03 0.  1.
</event>
<event>
 8    1  0.5489035E+004  0.1043930E+01  0.7957747E-01            NaN
         13   -1    0    0    0    0  0.00000000000E+00  0.00000000000E+00  0.74505805969E-08  0.10566000000E+00  0.10566000000E+00 0.  1.
     999900   -1    0    0    0    0 -0.00000000000E+00 -0.00000000000E+00 -0.74505805969E-08  0.93827000000E+00  0.93827000000E+00 0.  1.
     999902    2    1    2    0    0 -0.60568319087E-02  0.16428180201E-01 -0.16024068756E-01  0.10201951923E+01  0.10199190602E+01 0.  0.
     999903    2    3    3    0    0 -0.12273470163E+00  0.17478051624E-01 -0.40962656519E-01  0.13214296372E+00  0.20360116860E-01 0.  0.
         14    1    1    2    0    0  0.60568319087E-02 -0.16428180201E-01  0.16024068756E-01  0.23734807709E-01  0.00000000000E+00 0.  1.
     999901    1    3    3    0    0  0.11667786972E+00 -0.10498714236E-02  0.24938587764E-01  0.88805222857E+00  0.88000000000E+00 0. -1.
        -11    1    4    4    0    0 -0.60973313155E-01 -0.15805664805E-02 -0.20092208676E-01  0.64219942993E-01  0.51100000000E-03 0.  1.
         11    1    4    4    0    0 -0.61761388475E-01  0.19058618105E-01 -0.20870447843E-01  0.67923020726E-01  0.51100000000E-03 0. -1.
</event>
<event>
 8    1  0.5489035E+004  0.1043930E+01  0.7957747E-01            NaN
         13   -1    0    0    0    0  0.00000000000E+00  0.00000000000E+00  0.74505805969E-08  0.10566000000E+00  0.10566000000E+00 0. -1.
     999900   -1    0    0    0    0 -0.00000000000E+00 -0.00000000000E+00 -0.74505805969E-08  0.93827000000E+00  0.93827000000E+00 0. -1.
     999902    2    1    2    0    0  0.19544152097E-01  0.96546054638E-02  0.76596565414E-02  0.10208246840E+01  0.10205631680E+01 0.  0.
     999903    2    3    3    0    0 -0.64251500962E-01 -0.41196616790E-01  0.10379954701E+00  0.13017860571E+00  0.18620064841E-01 0.  0.
         14    1    1    2    0    0 -0.19544152097E-01 -0.96546054638E-02 -0.76596565414E-02  0.23105315972E-01  0.00000000000E+00 0.  1.
     999901    1    3    3    0    0  0.83795653059E-01  0.50851222254E-01 -0.96139890472E-01  0.89064607831E+00  0.88000000000E+00 0.  1.
        -11    1    4    4    0    0 -0.53310030455E-01 -0.40976857008E-01  0.93290124024E-01  0.11499726309E+00  0.51100000000E-03 0.  1.
         11    1    4    4    0    0 -0.10941470507E-01 -0.21975978189E-03  0.10509422989E-01  0.15181342621E-01  0.51100000000E-03 0. -1.
</event>
<event>
 8    1  0.5489035E+004  0.1043930E+01  0.7957747E-01            NaN
         13   -1    0    0    0    0  0.00000000000E+00  0.00000000000E+00  0.74505805969E-08  0.10566000000E+00  0.10566000000E+00 0. -1.
     999900   -1    0    0    0    0 -0.00000000000E+00 -0.00000000000E+00 -0.74505805969E-08  0.93827000000E+00  0.93827000000E+00 0. -1.
     999902    2    1    2    0    0 -0.44315131558E-02 -0.22923569026E-01 -0.61358273246E-02  0.10197892315E+01  0.10195034576E+01 0.  0.
     999903    2    3    3    0    0  0.71801293362E-01 -0.92806982648E-01 -0.57385159395E-01  0.13225240055E+00  0.20714226431E-01 0.  0.
         14    1    1    2    0    0  0.44315131558E-02  0.22923569026E-01  0.61358273246E-02  0.24140768478E-01  0.00000000000E+00 0. -1.
     999901    1    3    3    0    0 -0.76232806518E-01  0.69883413622E-01  0.51249332070E-01  0.88753683097E+00  0.88000000000E+00 0.  1.
        -11    1    4    4    0    0  0.43810757574E-01 -0.46258313124E-01 -0.39955816358E-01  0.75205999722E-01  0.51100000000E-03 0.  1.
         11    1    4    4    0    0  0.27990535788E-01 -0.46548669524E-01 -0.17429343037E-01  0.57046400831E-01  0.51100000000E-03 0. -1.
</event>
<event>
 8    1  0.5489035E+004  0.1043930E+01  0.7957747E-01            NaN
         13   -1    0    0    0    0  0.00000000000E+00  0.00000000000E+00  0.74505805969E-08  0.10566000000E+00  0.10566000000E+00 0.  1.
     999900   -1    0    0    0    0 -0.00000000000E+00 -0.00000000000E+00 -0.74505805969E-08  0.93827000000E+00  0.93827000000E+00 0. -1.
     999902    2    1    2    0    0  0.44183847471E-02 -0.16860754137E-02  0.21324410285E-01  0.10220874853E+01  0.10218540660E+01 0.  0.
     999903    2    3    3    0    0  0.62684900491E-02  0.78431133652E-01 -0.10180139981E+00  0.12990916502E+00  0.17947965338E-01 0.  0.
         14    1    1    2    0    0 -0.44183847471E-02  0.16860754137E-02 -0.21324410285E-01  0.21842514693E-01  0.00000000000E+00 0. -1.
     999901    1    3    3    0    0 -0.18501053021E-02 -0.80117209066E-01  0.12312581009E+00  0.89217832029E+00  0.88000000000E+00 0.  1.
        -11    1    4    4    0    0 -0.12733302444E-02  0.10065159651E-01 -0.24007859806E-01  0.26068510932E-01  0.51100000000E-03 0. -1.
         11    1    4    4    0    0  0.75418202935E-02  0.68365974001E-01 -0.77793540003E-01  0.10384065409E+00  0.51100000000E-03 0.  1.
</event>
<event>
 8    1  0.5489035E+004  0.1043930E+01  0.7957747E-01            NaN
         13   -1    0    0    0    0  0.00000000000E+00  0.00000000000E+00  0.74505805969E-08  0.10566000000E+00  0.10566000000E+00 0.  1.
     999900   -1    0    0    0    0 -0.00000000000E+00 -0.00000000000E+00 -0.74505805969E-08  0.93827000000E+00  0.93827000000E+00 0.  1.
     999902    2    1    2    0    0 -0.23272007642E-01 -0.10526688419E-01  0.80054715087E-02  0.10171627610E+01  0.10168105022E+01 0.  0.
     999903    2    3    3    0    0 -0.57555931514E-02  0.12357347135E+00  0.19826115465E-01  0.12675307708E+00  0.19228573021E-01 0.  0.
         14    1    1    2    0    0  0.23272007642E-01  0.10526688419E-01 -0.80054715087E-02  0.26767238984E-01  0.00000000000E+00 0. -1.
     999901    1    3    3    0    0 -0.17516414490E-01 -0.13410015977E+00 -0.11820643956E-01  0.89040968394E+00  0.88000000000E+00 0.  1.
        -11    1    4    4    0    0  0.17757988967E-02  0.10028467862E+00  0.11820942640E-01  0.10099587137E+00  0.51100000000E-03 0. -1.
         11    1    4    4    0    0 -0.75313920481E-02  0.23288792726E-01  0.80051728247E-02  0.25757205706E-01  0.51100000000E-03 0.  1.
</event>
<event>
 8    1  0.5489035E+004  0.1043930E+01  0.7957747E-01            NaN
         13   -1    0    0    0    0  0.00000000000E+00  0.00000000000E+00  0.74505805969E-08  0.10566000000E+00  0.10566000000E+00 0. -1.
     999900   -1    0    0    0    0 -0.00000000000E+00 -0.00000000000E+00 -0.74505805969E-08  0.93827000000E+00  0.93827000000E+00 0. -1.
     999902    2    1    2    0    0 -0.18459804506E-01  0.97499218611E-02  0.10755500244E-01  0.10204458321E+01  0.10201755682E+01 0.  0.
     999903    2    3    3    0    0 -0.34945521450E-01 -0.12356730613E+00  0.85047253845E-02  0.13024904025E+00  0.20060247275E-01 0.  0.
         14    1    1    2    0    0  0.18459804506E-01 -0.97499218611E-02 -0.10755500244E-01  0.23484167948E-01  0.00000000000E+00 0.  1.
     999901    1    3    3    0    0  0.16485716944E-01  0.13331722799E+00  0.22507748592E-02  0.89019679180E+00  0.88000000000E+00 0.  1.
        -11    1    4    4    0    0 -0.39912181879E-02 -0.37358615773E-01  0.90469890339E-02  0.38648481558E-01  0.51100000000E-03 0. -1.
         11    1    4    4    0    0 -0.30954303262E-01 -0.86208690352E-01 -0.54226364947E-03  0.91600558696E-01  0.51100000000E-03 0.  1.
</event>
<event>
 8    1  0.5489035E+004  0.1043930E+01  0.7957747E-01            NaN
         13   -1    0    0    0    0  0.00000000000E+00  0.00000000000E+00  0.74505805969E-08  0.10566000000E+00  0.10566000000E+00 0.  1.
     999900   -1    0    0    0    0 -0.00000000000E+00 -0.00000000000E+00 -0.74505805969E-08  0.93827000000E+00  0.93827000000E+00 0. -1.
     999902    2    1    2    0    0 -0.19505893806E-01  0.67808096244E-02 -0.99825765344E-02  0.10209928880E+01  0.10207352087E+01 0.  0.
     999903    2    3    3    0    0  0.27510376523E-01 -0.12035522520E+00  0.33294150322E-01  0.12956315095E+00  0.20878423976E-01 0.  0.
         14    1    1    2    0    0  0.19505893806E-01 -0.67808096244E-02  0.99825765344E-02  0.22937111993E-01  0.00000000000E+00 0.  1.
     999901    1    3    3    0    0 -0.47016270328E-01  0.12713603483E+00 -0.43276726857E-01  0.89142973706E+00  0.88000000000E+00 0. -1.
        -11    1    4    4    0    0  0.85541514747E-03 -0.46772363222E-01  0.92424337877E-02  0.47687203732E-01  0.51100000000E-03 0. -1.
         11    1    4    4    0    0  0.26654961375E-01 -0.73582861980E-01  0.24051716534E-01  0.81875947215E-01  0.51100000000E-03 0.  1.
</event>
<event>
 8    1  0.5489035E+004  0.1043930E+01  0.7957747E-01            NaN
         13   -1    0    0    0    0  0.00000000000E+00  0.00000000000E+00  0.74505805969E-08  0.10566000000E+00  0.10566000000E+00 0.  1.
     999900   -1    0    0    0    0 -0.00000000000E+00 -0.00000000000E+00 -0.74505805969E-08  0.93827000000E+00  0.93827000000E+00 0.  1.
     999902    2    1    2    0    0  0.88115526517E-02 -0.17047000801E-01  0.12402354555E-01  0.10210813218E+01  0.10208256480E+01 0.  0.
     999903    2    3    3    0    0  0.10101170237E+00  0.65900912917E-01 -0.45320123916E-01  0.13051234160E+00  0.20814978735E-01 0.  0.
         14    1    1    2    0    0 -0.88115526517E-02  0.17047000801E-01 -0.12402354555E-01  0.22848678188E-01  0.00000000000E+00 0. -1.
     999901    1    3    3    0    0 -0.92200149714E-01 -0.82947913717E-01  0.57722478471E-01  0.89056898021E+00  0.88000000000E+00 0. -1.
        -11    1    4    4    0    0  0.72115634302E-01  0.35293550348E-01 -0.29185166559E-01  0.85430290150E-01  0.51100000000E-03 0. -1.
         11    1    4    4    0    0  0.28896068063E-01  0.30607362569E-01 -0.16134957357E-01  0.45082051449E-01  0.51100000000E-03 0.  1.
</event>
<event>
 8    1  0.5489035E+004  0.1043930E+01  0.7957747E-01            NaN
         13   -1    0    0    0    0  0.00000000000E+00  0.00000000000E+00  0.74505805969E-08  0.10566000000E+00  0.10566000000E+00 0.  1.
     999900   -1    0    0    0    0 -0.00000000000E+00 -0.00000000000E+00 -0.74505805969E-08  0.93827000000E+00  0.93827000000E+00 0. -1.
     999902    2    1    2    0    0  0.45545945524E-02  0.22627545848E-01  0.11429360030E-02  0.10208203383E+01  0.10205587227E+01 0.  0.
     999903    2    3    3    0    0 -0.12459415368E-01  0.10138502201E+00 -0.83422970668E-01  0.13310213458E+00  0.17961806027E-01 0.  0.
         14    1    1    2    0    0 -0.45545945524E-02 -0.22627545848E-01 -0.11429360030E-02  0.23109661731E-01  0.00000000000E+00 0. -1.
     999901    1    3    3    0    0  0.17014009920E-01 -0.78757476163E-01  0.84565906671E-01  0.88771820369E+00  0.88000000000E+00 0.  1.
        -11    1    4    4    0    0 -0.10173813534E-01  0.46234222721E-01 -0.48532126997E-01  0.67799250028E-01  0.51100000000E-03 0.  1.
         11    1    4    4    0    0 -0.22856018339E-02  0.55150799290E-01 -0.34890843670E-01  0.65302884554E-01  0.51100000000E-03 0. -1.
</event>
<event>
 8    1  0.5489035E+004  0.1043930E+01  0.7957747E-01            NaN
         13   -1    0    0    0    0  0.00000000000E+00  0.00000000000E+00  0.74505805969E-08  0.10566000000E+00  0.10566000000E+00 0. -1.
     999900   -1    0    0    0    0 -0.00000000000E+00 -0.00000000000E+00 -0.74505805969E-08  0.93827000000E+00  0.93827000000E+00 0.  1.
     999902    2    1    2    0    0  0.21994353899E-01  0.31243514949E-03 -0.11890874748E-01  0.10189251580E+01  0.10186182973E+01 0.  0.
     999903    2    3    3    0    0 -0.11468362244E+00 -0.12712772781E-01 -0.49781936786E-01  0.12747338826E+00  0.21384004209E-01 0.  0.
         14    1    1    2    0    0 -0.21994353899E-01 -0.31243514949E-03  0.11890874748E-01  0.25004841960E-01  0.00000000000E+00 0. -1.
     999901    1    3    3    0    0  0.13667797634E+00  0.13025207931E-01  0.37891062037E-01  0.89145176978E+00  0.88000000000E+00 0. -1.
        -11    1    4    4    0    0 -0.26996462724E-01  0.60219950074E-02 -0.10780708471E-01  0.29691046118E-01  0.51100000000E-03 0.  1.
         11    1    4    4    0    0 -0.87687159721E-01 -0.18734767789E-01 -0.39001228314E-01  0.97782342143E-01  0.51100000000E-03 0. -1.
</event>
<event>
 8    1  0.5489035E+004  0.1043930E+01  0.7957747E-01            NaN
         13   -1    0    0    0    0  0.00000000000E+00  0.00000000000E+00  0.74505805969E-08  0.10566000000E+00  0.10566000000E+00 0. -1.
     999900   -1    0    0    0    0 -0.00000000000E+00 -0.00000000000E+00 -0.74505805969E-08  0.93827000000E+00  0.93827000000E+00 0.  1.
     999902    2    1    2    0    0 -0.29229066109E-02 -0.99888635211E-02  0.21637148709E-01  0.10199198567E+01  0.10196372037E+01 0.  0.
     999903    2    3    3    0    0  0.21585009810E-01 -0.35287286899E-01  0.12499844038E+00  0.13317062223E+00  0.19967455135E-01 0.  0.
         14    1    1    2    0    0  0.29229066109E-02  0.99888635211E-02 -0.21637148709E-01  0.24010143310E-01  0.00000000000E+00 0.  1.
     999901    1    3    3    0    0 -0.24507916421E-01  0.25298423378E-01 -0.10336129167E+00  0.88674923446E+00  0.88000000000E+00 0.  1.
        -11    1    4    4    0    0  0.45993077607E-02 -0.23561018536E-01  0.51413406800E-01  0.56743940171E-01  0.51100000000E-03 0.  1.
         11    1    4    4    0    0  0.16985702049E-01 -0.11726268364E-01  0.73585033576E-01  0.76426682064E-01  0.51100000000E-03 0. -1.
</event>
<event>
 8    1  0.5489035E+004  0.1043930E+01  0.7957747E-01            NaN
         13   -1    0    0    0    0  0.00000000000E+00  0.00000000000E+00  0.74505805969E-08  0.10566000000E+00  0.10566000000E+00 0. -1.
     999900   -1    0    0    0    0 -0.00000000000E+00 -0.00000000000E+00 -0.74505805969E-08  0.93827000000E+00  0.93827000000E+00 0. -1.
     999902    2    1    2    0    0 -0.96513046078E-02  0.14274340097E-01  0.15145477197E-01  0.10209889899E+01  0.10207312220E+01 0.  0.
     999903    2    3    3    0    0  0.10964005802E+00  0.68897096626E-01  0.44279364692E-02  0.13119747474E+00  0.20625676048E-01 0.  0.
         14    1    1    2    0    0  0.96513046078E-02 -0.14274340097E-01 -0.15145477197E-01  0.22941010121E-01  0.00000000000E+00 0.  1.
     999901    1    3    3    0    0 -0.11929136262E+00 -0.54622756529E-01  0.10717540728E-01  0.88979151514E+00  0.88000000000E+00 0.  1.
        -11    1    4    4    0    0  0.46415835060E-01  0.29146599726E-01  0.12069252581E-01  0.56123809553E-01  0.51100000000E-03 0. -1.
         11    1    4    4    0    0  0.63224222957E-01  0.39750496900E-01 -0.76413161114E-02  0.75073665191E-01  0.51100000000E-03 0.  1.
</event>
<event>
 8    1  0.5489035E+004  0.1043930E+01  0.7957747E-01            NaN
         13   -1    0    0    0    0  0.00000000000E+00  0.00000000000E+00  0.74505805969E-08  0.10566000000E+00  0.10566000000E+00 0. -1.
     999900   -1    0    0    0    0 -0.00000000000E+00 -0.00000000000E+00 -0.74505805969E-08  0.93827000000E+00  0.93827000000E+00 0. -1.
     999902    2    1    2    0    0 -0.99678813336E-02  0.34196427578E-02 -0.20323605798E-01  0.10210367353E+01  0.10207800514E+01 0.  0.
     999903    2    3    3    0    0  0.63761686083E-01 -0.11062420593E+00 -0.15686003776E-01  0.13060787467E+00  0.22563214768E-01 0.  0.
         14    1    1    2    0    0  0.99678813336E-02 -0.34196427578E-02  0.20323605798E-01  0.22893264676E-01  0.00000000000E+00 0. -1.
     999901    1    3    3    0    0 -0.73729567417E-01  0.11404384869E+00 -0.46376020220E-02  0.89042886066E+00  0.88000000000E+00 0.  1.
        -11    1    4    4    0    0  0.38588105717E-01 -0.52102698169E-01  0.63873548169E-03  0.64841361516E-01  0.51100000000E-03 0.  1.
         11    1    4    4    0    0  0.25173580367E-01 -0.58521507764E-01 -0.16324739258E-01  0.65766513153E-01  0.51100000000E-03 0. -1.
</event>
<event>
 8    1  0.5489035E+004  0.1043930E+01  0.7957747E-01            NaN
         13   -1    0    0    0    0  0.00000000000E+00  0.00000000000E+00  0.74505805969E-08  0.10566000000E+00  0.10566000000E+00 0.  1.
     999900   -1    0    0    0    0 -0.00000000000E+00 -0.00000000000E+00 -0.74505805969E-08  0.93827000000E+00  0.93827000000E+00 0.  1.
     999902    2    1    2    0    0 -0.18009109644E-01  0.92456690655E-02 -0.10456119317E-01  0.10211453372E+01  0.10208911102E+01 0.  0.
     999903    2    3    3    0    0  0.76442707301E-01 -0.81097339013E-01 -0.63684295321E-01  0.12990112627E+00  0.19958638277E-01 0.  0.
         14    1    1    2    0    0  0.18009109644E-01 -0.92456690655E-02  0.10456119317E-01  0.22784662776E-01  0.00000000000E+00 0.  1.
     999901    1    3    3    0    0 -0.94451816946E-01  0.90343008079E-01  0.53228176003E-01  0.89124421095E+00  0.88000000000E+00 0. -1.
        -11    1    4    4    0    0  0.51109125129E-01 -0.66803127712E-01 -0.48187448354E-01  0.96938598316E-01  0.51100000000E-03 0. -1.
         11    1    4    4    0    0  0.25333582172E-01 -0.14294211301E-01 -0.15496846967E-01  0.32962527957E-01  0.51100000000E-03 0.  1.
</event>
<event>
 8    1  0.5489035E+004  0.1043930E+01  0.7957747E-01            NaN
         13   -1    0    0    0    0  0.00000000000E+00  0.00000000000E+00  0.74505805969E-08  0.10566000000E+00  0.10566000000E+00 0. -1.
     999900   -1    0    0    0    0 -0.00000000000E+00 -0.00000000000E+00 -0.74505805969E-08  0.93827000000E+00  0.93827000000E+00 0.  1.
     999902    2    1    2    0    0 -0.34623912370E-02  0.13240882881E-01 -0.19230952426E-01  0.10203262151E+01  0.10200531586E+01 0.  0.
     999903    2    3    3    0    0 -0.16441396349E-01  0.11780102319E+00 -0.56589896667E-01  0.13325408257E+00  0.20170114990E-01 0.  0.
         14    1    1    2    0    0  0.34623912370E-02 -0.13240882881E-01  0.19230952426E-01  0.23603784945E-01  0.00000000000E+00 0. -1.
     999901    1    3    3    0    0  0.12979005112E-01 -0.10456014031E+00  0.37358944241E-01  0.88707213248E+00  0.88000000000E+00 0.  1.
        -11    1    4    4    0    0  0.71324255482E-03  0.25416808536E-01 -0.20241712101E-01  0.32504013612E-01  0.51100000000E-03 0. -1.
         11    1    4    4    0    0 -0.17154638904E-01  0.92384214653E-01 -0.36348184565E-01  0.10075006896E+00  0.51100000000E-03 0.  1.
</event>
<event>
 8    1  0.5489035E+004  0.1043930E+01  0.7957747E-01            NaN
         13   -1    0    0    0    0  0.00000000000E+00  0.00000000000E+00  0.74505805969E-08  0.10566000000E+00  0.10566000000E+00 0.  1.
     999900   -1    0    0    0    0 -0.00000000000E+00 -0.00000000000E+00 -0.74505805969E-08  0.93827000000E+00  0.93827000000E+00 0.  1.
     999902    2    1    2    0    0 -0.11945597274E-01 -0.70945646067E-03 -0.20006114377E-01  0.10206180881E+01  0.10203518200E+01 0.  0.
     999903    2    3    3    0    0  0.84104644825E-01  0.62156881014E-01  0.71928379847E-01  0.12841307995E+00  0.19471983342E-01 0.  0.
         14    1    1    2    0    0  0.11945597274E-01  0.70945646067E-03  0.20006114377E-01  0.23311911873E-01  0.00000000000E+00 0.  1.
     999901    1    3    3    0    0 -0.96050242099E-01 -0.62866337475E-01 -0.91934494224E-01  0.89220500818E+00  0.88000000000E+00 0.  1.
        -11    1    4    4    0    0  0.18898788760E-01  0.14678113752E-01  0.27005566182E-01  0.36085633785E-01  0.51100000000E-03 0. -1.
         11    1    4    4    0    0  0.65205856065E-01  0.47478767263E-01  0.44922813665E-01  0.92327446161E-01  0.51100000000E-03 0.  1.
</event>
<event>
 8    1  0.5489035E+004  0.1043930E+01  0.7957747E-01            NaN
         13   -1    0    0    0    0  0.00000000000E+00  0.00000000000E+00  0.74505805969E-08  0.10566000000E+00  0.10566000000E+00 0.  1.
     999900   -1    0    0    0    0 -0.00000000000E+00 -0.00000000000E+00 -0.74505805969E-08  0.93827000000E+00  0.93827000000E+00 0.  1.
     999902    2    1    2    0    0 -0.15698029597E-01  0.10505239360E-01 -0.15268226852E-01  0.10196420001E+01  0.10193526875E+01 0.  0.
     999903    2    3    3    0    0  0.66059885008E-01  0.10196476567E-01 -0.11050968893E+00  0.13073515008E+00  0.20283283219E-01 0.  0.
         14    1    1    2    0    0  0.15698029597E-01 -0.10505239360E-01  0.15268226852E-01  0.24287999886E-01  0.00000000000E+00 0.  1.
     999901    1    3    3    0    0 -0.81757914605E-01  0.30876279339E-03  0.95241462078E-01  0.88890685003E+00  0.88000000000E+00 0. -1.
        -11    1    4    4    0    0  0.57499651763E-01  0.15725773916E-01 -0.95779770519E-01  0.11281637948E+00  0.51100000000E-03 0.  1.
         11    1    4    4    0    0  0.85602332442E-02 -0.55292973496E-02 -0.14729918411E-01  0.17918770598E-01  0.51100000000E-03 0. -1.
</event>
<event>
 7    1  0.5489035E+004  0.1043930E+01  0.7957747E-01            NaN
         13   -1    0    0    0    0  0.00000000000E+00  0.00000000000E+00  0.74505805969E-08  0.10566000000E+00  0.10566000000E+00 0.  1.
     999900   -1    0    0    0    0 -0.00000000000E+00 -0.00000000000E+00 -0.74505805969E-08  0.93827000000E+00  0.93827000000E+00 0.  1.
     999903    2    1    2    0    0  0.19783428737E-02  0.33897782051E-01 -0.98747149719E-01  0.10624863479E+00  0.19616303120E-01 0.  0.
         14    1    1    2    0    0 -0.42691328642E-01 -0.15664578808E-01 -0.17886390378E-01  0.48865647762E-01  0.00000000000E+00 0. -1.
     999901    1    1    2    0    0  0.40712985768E-01 -0.18233203243E-01  0.11663354010E+00  0.88881571745E+00  0.88000000000E+00 0. -1.
        -11    1    3    3    0    0  0.10618666626E-01  0.17975439784E-01 -0.47383275451E-01  0.51781352144E-01  0.51100000000E-03 0.  1.
         11    1    3    3    0    0 -0.86403237521E-02  0.15922342267E-01 -0.51363874268E-01  0.54467282644E-01  0.51100000000E-03 0. -1.
</event>
<event>
 8    1  0.5489035E+004  0.1043930E+01  0.7957747E-01            NaN
         13   -1    0    0    0    0  0.00000000000E+00  0.00000000000E+00  0.74505805969E-08  0.10566000000E+00  0.10566000000E+00 0.  1.
     999900   -1    0    0    0    0 -0.00000000000E+00 -0.00000000000E+00 -0.74505805969E-08  0.93827000000E+00  0.93827000000E+00 0.  1.
     999902    2    1    2    0    0 -0.12207761760E-01 -0.90997212032E-02  0.15822283146E-01  0.10219714250E+01  0.10217354914E+01 0.  0.
     999903    2    3    3    0    0  0.27210348709E-01  0.83213340356E-01 -0.93467405085E-01  0.12954791300E+00  0.19535681714E-01 0.  0.
         14    1    1    2    0    0  0.12207761760E-01  0.90997212032E-02 -0.15822283146E-01  0.21958575025E-01  0.00000000000E+00 0. -1.
     999901    1    3    3    0    0 -0.39418110469E-01 -0.92313061559E-01  0.10928968823E+00  0.89242351197E+00  0.88000000000E+00 0. -1.
        -11    1    4    4    0    0  0.51366545182E-03  0.25561793758E-01 -0.33837602108E-01  0.42413601471E-01  0.51100000000E-03 0. -1.
         11    1    4    4    0    0  0.26696683257E-01  0.57651546598E-01 -0.59629802978E-01  0.87134311532E-01  0.51100000000E-03 0.  1.
</event>
<event>
 8    1  0.5489035E+004  0.1043930E+01  0.7957747E-01            NaN
         13   -1    0    0    0    0  0.00000000000E+00  0.00000000000E+00  0.74505805969E-08  0.10566000000E+00  0.10566000000E+00 0. -1.
     999900   -1    0    0    0    0 -0.00000000000E+00 -0.00000000000E+00 -0.74505805969E-08  0.93827000000E+00  0.93827000000E+00 0. -1.
     999902    2    1    2    0    0 -0.80855505637E-03 -0.52931417829E-02  0.22171463708E-01  0.10211211220E+01  0.10208663482E+01 0.  0.
     999903    2    3    3    0    0  0.47333895810E-01 -0.10987003308E+00 -0.48390053159E-01  0.13082176259E+00  0.21466589383E-01 0.  0.
         14    1    1    2    0    0  0.80855505637E-03  0.52931417829E-02 -0.22171463708E-01  0.22808877968E-01  0.00000000000E+00 0.  1.
     999901    1    3    3    0    0 -0.48142450867E-01  0.10457689130E+00  0.70561516867E-01  0.89029935945E+00  0.88000000000E+00 0.  1.
        -11    1    4    4    0    0  0.35246931198E-01 -0.98239635320E-01 -0.37950355307E-01  0.11105792496E+00  0.51100000000E-03 0.  1.
         11    1    4    4    0    0  0.12086964612E-01 -0.11630397760E-01 -0.10439697852E-01  0.19763837629E-01  0.51100000000E-03 0. -1.
</event>
<event>
 8    1  0.5489035E+004  0.1043930E+01  0.7957747E-01            NaN
         13   -1    0    0    0    0  0.00000000000E+00  0.00000000000E+00  0.74505805969E-08  0.10566000000E+00  0.10566000000E+00 0.  1.
     999900   -1    0    0    0    0 -0.00000000000E+00 -0.00000000000E+00 -0.74505805969E-08  0.93827000000E+00  0.93827000000E+00 0.  1.
     999902    2    1    2    0    0 -0.14153894484E-01 -0.10133444177E-02 -0.18795092263E-01  0.10203797327E+01  0.10201079275E+01 0.  0.
     999903    2    3    3    0    0 -0.77086042870E-01  0.22280890292E-01  0.10001824912E+00  0.12986320465E+00  0.20545210790E-01 0.  0.
         14    1    1    2    0    0  0.14153894484E-01  0.10133444177E-02  0.18795092263E-01  0.23550267283E-01  0.00000000000E+00 0.  1.
     999901    1    3    3    0    0  0.62932148387E-01 -0.23294234710E-01 -0.11881334139E+00  0.89051652807E+00  0.88000000000E+00 0.  1.
        -11    1    4    4    0    0 -0.23749610788E-01 -0.10837296271E-02  0.21134155541E-01  0.31814024170E-01  0.51100000000E-03 0. -1.
         11    1    4    4    0    0 -0.53336432083E-01  0.23364619920E-01  0.78884093581E-01  0.98049180478E-01  0.51100000000E-03 0.  1.
</event>
<event>
 8    1  0.5489035E+004  0.1043930E+01  0.7957747E-01            NaN
         13   -1    0    0    0    0  0.00000000000E+00  0.00000000000E+00  0.74505805969E-08  0.10566000000E+00  0.10566000000E+00 0. -1.
     999900   -1    0    0    0    0 -0.00000000000E+00 -0.00000000000E+00 -0.74505805969E-08  0.93827000000E+00  0.93827000000E+00 0.  1.
     999902    2    1    2    0    0 -0.85208469338E-02  0.22260990464E-01  0.52210234771E-02  0.10195288604E+01  0.10192368133E+01 0.  0.
     999903    2    3    3    0    0  0.41707221552E-01 -0.21795345305E-02  0.12181109933E+00  0.13008327805E+00  0.18424782413E-01 0.  0.
         14    1    1    2    0    0  0.85208469338E-02 -0.22260990464E-01 -0.52210234771E-02  0.24401139626E-01  0.00000000000E+00 0.  1.
     999901    1    3    3    0    0 -0.50228068486E-01  0.24440524995E-01 -0.11659007586E+00  0.88944558232E+00  0.88000000000E+00 0.  1.
        -11    1    4    4    0    0  0.11445977604E-01  0.41934383396E-03  0.14112589317E-01  0.18182754213E-01  0.51100000000E-03 0.  1.
         11    1    4    4    0    0  0.30261243949E-01 -0.25988783645E-02  0.10769851002E+00  0.11190052384E+00  0.51100000000E-03 0. -1.
</event>
<event>
 8    1  0.5489035E+004  0.1043930E+01  0.7957747E-01            NaN
         13   -1    0    0    0    0  0.00000000000E+00  0.00000000000E+00  0.74505805969E-08  0.10566000000E+00  0.10566000000E+00 0.  1.
     999900   -1    0    0    0    0 -0.00000000000E+00 -0.00000000000E+00 -0.74505805969E-08  0.93827000000E+00  0.93827000000E+00 0.  1.
     999902    2    1    2    0    0 -0.93883745067E-02 -0.19211363243E-01 -0.12924041495E-01  0.10189450265E+01  0.10186386592E+01 0.  0.
     999903    2    3    3    0    0  0.48898912607E-01  0.10903552451E+00 -0.39282107545E-01  0.12735127386E+00  0.19885012478E-01 0.  0.
         14    1    1    2    0    0  0.93883745067E-02  0.19211363243E-01  0.12924041495E-01  0.24984973526E-01  0.00000000000E+00 0.  1.
     999901    1    3    3    0    0 -0.58287287114E-01 -0.12824688775E+00  0.26358066050E-01  0.89159375262E+00  0.88000000000E+00 0. -1.
        -11    1    4    4    0    0  0.43680769637E-01  0.80331188191E-01 -0.24628309519E-01  0.94699124510E-01  0.51100000000E-03 0. -1.
         11    1    4    4    0    0  0.52181429702E-02  0.28704336318E-01 -0.14653798025E-01  0.32652149348E-01  0.51100000000E-03 0.  1.
</event>
<event>
 8    1  0.5489035E+004  0.1043930E+01  0.7957747E-01            NaN
         13   -1    0    0    0    0  0.00000000000E+00  0.00000000000E+00  0.74505805969E-08  0.10566000000E+00  0.10566000000E+00 0.  1.
     999900   -1    0    0    0    0 -0.00000000000E+00 -0.00000000000E+00 -0.74505805969E-08  0.93827000000E+00  0.93827000000E+00 0.  1.
     999902    2    1    2    0    0 -0.16037158830E-01  0.39861813903E-02 -0.17529169359E-01  0.10198395064E+01  0.10195549357E+01 0.  0.
     999903    2    3    3    0    0 -0.95576993727E-01  0.48786409653E-01  0.71740072175E-01  0.13062488476E+00  0.20028656106E-01 0.  0.
         14    1    1    2    0    0  0.16037158830E-01 -0.39861813903E-02  0.17529169359E-01  0.24090493640E-01  0.00000000000E+00 0.  1.
     999901    1    3    3    0    0  0.79539834897E-01 -0.44800228263E-01 -0.89269241534E-01  0.88921462160E+00  0.88000000000E+00 0.  1.
        -11    1    4    4    0    0 -0.39433251604E-01  0.29640219476E-01  0.26340877434E-01  0.55925190099E-01  0.51100000000E-03 0.  1.
         11    1    4    4    0    0 -0.56143742123E-01  0.19146190178E-01  0.45399194740E-01  0.74699694658E-01  0.51100000000E-03 0. -1.
</event>
<event>
 8    1  0.5489035E+004  0.1043930E+01  0.7957747E-01            NaN
         13   -1    0    0    0    0  0.00000000000E+00  0.00000000000E+00  0.74505805969E-08  0.10566000000E+00  0.10566000000E+00 0.  1.
     999900   -1    0    0    0    0 -0.00000000000E+00 -0.00000000000E+00 -0.74505805969E-08  0.93827000000E+00  0.93827000000E+00 0. -1.
     999902    2    1    2    0    0 -0.23295976969E-01 -0.26948263337E-02 -0.10578588597E-03  0.10204784367E+01  0.10202089315E+01 0.  0.
     999903    2    3    3    0    0  0.12573483148E+00  0.24210346338E-02 -0.12309277498E-01  0.12785013827E+00  0.19468700181E-01 0.  0.
         14    1    1    2    0    0  0.23295976969E-01  0.26948263337E-02  0.10578588597E-03  0.23451563329E-01  0.00000000000E+00 0. -1.
     999901    1    3    3    0    0 -0.14903080845E+00 -0.51158609675E-02  0.12203491612E-01  0.89262829840E+00  0.88000000000E+00 0.  1.
        -11    1    4    4    0    0  0.48723314061E-01 -0.18871560807E-02  0.42892066517E-02  0.48950802914E-01  0.51100000000E-03 0. -1.
         11    1    4    4    0    0  0.77011517419E-01  0.43081907145E-02 -0.16598484150E-01  0.78899335355E-01  0.51100000000E-03 0.  1.
</event>
<event>
 8    1  0.5489035E+004  0.1043930E+01  0.7957747E-01            NaN
         13   -1    0    0    0    0  0.00000000000E+00  0.00000000000E+00  0.74505805969E-08  0.10566000000E+00  0.10566000000E+00 0. -1.
     999900   -1    0    0    0    0 -0.00000000000E+00 -0.00000000000E+00 -0.74505805969E-08  0.93827000000E+00  0.93827000000E+00 0.  1.
     999902    2    1    2    0    0  0.36114614713E-02  0.19921177827E-01 -0.14611552834E-01  0.10189621516E+01  0.10186562093E+01 0.  0.
     999903    2    3    3    0    0 -0.89759709133E-01  0.90028327342E-01  0.21520034568E-01  0.13051480954E+00  0.20226183879E-01 0.  0.
         14    1    1    2    0    0 -0.36114614713E-02 -0.19921177827E-01  0.14611552834E-01  0.24967848450E-01  0.00000000000E+00 0. -1.
     999901    1    3    3    0    0  0.93371170604E-01 -0.70107149515E-01 -0.36131587402E-01  0.88844734201E+00  0.88000000000E+00 0. -1.
        -11    1    4    4    0    0 -0.17686779986E-01  0.30237967074E-01  0.74399585652E-02  0.35815791817E-01  0.51100000000E-03 0.  1.
         11    1    4    4    0    0 -0.72072929147E-01  0.59790360268E-01  0.14080076003E-01  0.94699017725E-01  0.51100000000E-03 0. -1.
</event>
<event>
 8    1  0.5489035E+004  0.1043930E+01  0.7957747E-01            NaN
         13   -1    0    0    0    0  0.00000000000E+00  0.00000000000E+00  0.74505805969E-08  0.10566000000E+00  0.10566000000E+00 0. -1.
     999900   -1    0    0    0    0 -0.00000000000E+00 -0.00000000000E+00 -0.74505805969E-08  0.93827000000E+00  0.93827000000E+00 0.  1.
     999902    2    1    2    0    0 -0.40433200039E-02 -0.22944575247E-01 -0.49619886477E-02  0.10201093514E+01  0.10198311946E+01 0.  0.
     999903    2    3    3    0    0  0.12389951496E+00 -0.38444164259E-01 -0.19153045060E-02  0.13071692473E+00  0.15943727463E-01 0.  0.
         14    1    1    2    0    0  0.40433200039E-02  0.22944575247E-01  0.49619886477E-02  0.23820648633E-01  0.00000000000E+00 0. -1.
     999901    1    3    3    0    0 -0.12794283497E+00  0.15499589012E-01 -0.30466841418E-02  0.88939242664E+00  0.88000000000E+00 0.  1.
        -11    1    4    4    0    0  0.64865688218E-01 -0.24838880193E-01 -0.75607756355E-02  0.69870980575E-01  0.51100000000E-03 0.  1.
         11    1    4    4    0    0  0.59033826745E-01 -0.13605284066E-01  0.56454711295E-02  0.60845944153E-01  0.51100000000E-03 0. -1.
</event>
<event>
 8    1  0.5489035E+004  0.1043930E+01  0.7957747E-01            NaN
         13   -1    0    0    0    0  0.00000000000E+00  0.00000000000E+00  0.74505805969E-08  0.10566000000E+00  0.10566000000E+00 0.  1.
     999900   -1    0    0    0    0 -0.00000000000E+00 -0.00000000000E+00 -0.74505805969E-08  0.93827000000E+00  0.93827000000E+00 0.  1.
     999902    2    1    2    0    0  0.54164828796E-02 -0.56779810579E-02 -0.22324859612E-01  0.10202661645E+01  0.10199917006E+01 0.  0.
     999903    2    3    3    0    0  0.64021352809E-01 -0.44746559226E-01 -0.10638672556E+00  0.13345881115E+00  0.19802290756E-01 0.  0.
         14    1    1    2    0    0 -0.54164828796E-02  0.56779810579E-02  0.22324859612E-01  0.23663835538E-01  0.00000000000E+00 0.  1.
     999901    1    3    3    0    0 -0.58604869930E-01  0.39068578168E-01  0.84061865952E-01  0.88680735331E+00  0.88000000000E+00 0. -1.
        -11    1    4    4    0    0  0.31479045905E-01 -0.16157802311E-01 -0.62313119155E-01  0.71660245928E-01  0.51100000000E-03 0.  1.
         11    1    4    4    0    0  0.32542306904E-01 -0.28588756915E-01 -0.44073606410E-01  0.61798565223E-01  0.51100000000E-03 0. -1.
</event>
<event>
 8    1  0.5489035E+004  0.1043930E+01  0.7957747E-01            NaN
         13   -1    0    0    0    0  0.00000000000E+00  0.00000000000E+00  0.74505805969E-08  0.10566000000E+00  0.10566000000E+00 0. -1.
     999900   -1    0    0    0    0 -0.00000000000E+00 -0.00000000000E+00 -0.74505805969E-08  0.93827000000E+00  0.93827000000E+00 0. -1.
     999902    2    1    2    0    0 -0.19429025961E-01 -0.13189075974E-01 -0.61240461167E-02  0.10196618580E+01  0.10193730240E+01 0.  0.
     999903    2    3    3    0    0 -0.12997953503E+00 -0.17115167685E-01  0.35262702606E-02  0.13268386625E+00  0.20123749409E-01 0.  0.
         14    1    1    2    0    0  0.19429025961E-01  0.13189075974E-01  0.61240461167E-02  0.24268141991E-01  0.00000000000E+00 0. -1.
     999901    1    3    3    0    0  0.11055050907E+00  0.39260917114E-02 -0.96503163773E-02  0.88697799176E+00  0.88000000000E+00 0.  1.
        -11    1    4    4    0    0 -0.11629972199E+00 -0.21006012772E-01  0.75532046242E-03  0.11818506479E+00  0.51100000000E-03 0.  1.
         11    1    4    4    0    0 -0.13679813038E-01  0.38908450867E-02  0.27709497981E-02  0.14498801469E-01  0.51100000000E-03 0. -1.
</event>
<event>
 8    1  0.5489035E+004  0.1043930E+01  0.7957747E-01            NaN
         13   -1    0    0    0    0  0.00000000000E+00  0.00000000000E+00  0.74505805969E-08  0.10566000000E+00  0.10566000000E+00 0.  1.
     999900   -1    0    0    0    0 -0.00000000000E+00 -0.00000000000E+00 -0.74505805969E-08  0.93827000000E+00  0.93827000000E+00 0.  1.
     999902    2    1    2    0    0  0.12704562890E-01 -0.18284548166E-01 -0.30269717842E-02  0.10214601718E+01  0.10212129991E+01 0.  0.
     999903    2    3    3    0    0 -0.40310365272E-02 -0.14130156558E-01  0.12917965733E+00  0.13141751440E+00  0.19164254326E-01 0.  0.
         14    1    1    2    0    0 -0.12704562890E-01  0.18284548166E-01  0.30269717842E-02  0.22469828171E-01  0.00000000000E+00 0.  1.
     999901    1    3    3    0    0  0.16735599417E-01 -0.41543916078E-02 -0.13220662911E+00  0.89004265743E+00  0.88000000000E+00 0.  1.
        -11    1    4    4    0    0 -0.47439418036E-02 -0.95106850614E-04  0.83169913047E-01  0.83306719935E-01  0.51100000000E-03 0.  1.
         11    1    4    4    0    0  0.71290527641E-03 -0.14035049707E-01  0.46009744284E-01  0.48110794467E-01  0.51100000000E-03 0. -1.
</event>
<event>
 8    1  0.5489035E+004  0.1043930E+01  0.7957747E-01            NaN
         13   -1    0    0    0    0  0.00000000000E+00  0.00000000000E+00  0.74505805969E-08  0.10566000000E+00  0.10566000000E+00 0.  1.
     999900   -1    0    0    0    0 -0.00000000000E+00 -0.00000000000E+00 -0.74505805969E-08  0.93827000000E+00  0.93827000000E+00 0.  1.
     999902    2    1    2    0    0  0.18264154386E-01 -0.12090156862E-01 -0.73459006322E-02  0.10208277602E+01  0.10205663146E+01 0.  0.
     999903    2    3    3    0    0  0.11025929282E+00  0.60661412812E-01 -0.36101001574E-01  0.13258074937E+00  0.20915404195E-01 0.  0.
         14    1    1    2    0    0 -0.18264154386E-01  0.12090156862E-01  0.73459006322E-02  0.23102239815E-01  0.00000000000E+00 0.  1.
     999901    1    3    3    0    0 -0.91995138433E-01 -0.72751569674E-01  0.28755100942E-01  0.88824701081E+00  0.88000000000E+00 0. -1.
        -11    1    4    4    0    0  0.80972434121E-01  0.50644072698E-01 -0.19588507930E-01  0.97495271428E-01  0.51100000000E-03 0. -1.
         11    1    4    4    0    0  0.29286858698E-01  0.10017340114E-01 -0.16512493644E-01  0.35085477946E-01  0.51100000000E-03 0.  1.
</event>
<event>
 8    1  0.5489035E+004  0.1043930E+01  0.7957747E-01            NaN
         13   -1    0    0    0    0  0.00000000000E+00  0.00000000000E+00  0.74505805969E-08  0.10566000000E+00  0.10566000000E+00 0. -1.
     999900   -1    0    0    0    0 -0.00000000000E+00 -0.00000000000E+00 -0.74505805969E-08  0.93827000000E+00  0.93827000000E+00 0.  1.
     999902    2    1    2    0    0  0.15276166921E-01 -0.17926691664E-01 -0.54102485027E-02  0.10197639424E+01  0.10194775623E+01 0.  0.
     999903    2    3    3    0    0 -0.11336990601E-01  0.12591718754E+00 -0.80942110260E-02  0.12768405509E+00  0.15938513046E-01 0.  0.
         14    1    1    2    0    0 -0.15276166921E-01  0.17926691664E-01  0.54102485027E-02  0.24166057574E-01  0.00000000000E+00 0.  1.
     999901    1    3    3    0    0  0.26613157522E-01 -0.14384387920E+00  0.26839625233E-02  0.89207988734E+00  0.88000000000E+00 0.  1.
        -11    1    4    4    0    0 -0.63003505214E-02  0.78143127857E-01 -0.12707344033E-01  0.79421537138E-01  0.51100000000E-03 0. -1.
         11    1    4    4    0    0 -0.50366400797E-02  0.47774059682E-01  0.46131330074E-02  0.48262517951E-01  0.51100000000E-03 0.  1.
</event>
<event>
 8    1  0.5489035E+004  0.1043930E+01  0.7957747E-01            NaN
         13   -1    0    0    0    0  0.00000000000E+00  0.00000000000E+00  0.74505805969E-08  0.10566000000E+00  0.10566000000E+00 0. -1.
     999900   -1    0    0    0    0 -0.00000000000E+00 -0.00000000000E+00 -0.74505805969E-08  0.93827000000E+00  0.93827000000E+00 0.  1.
     999902    2    1    2    0    0  0.22618117604E-02 -0.15697186706E-01 -0.16759496392E-01  0.10208562447E+01  0.10205954508E+01 0.  0.
     999903    2    3    3    0    0 -0.86383300073E-01 -0.89920342332E-01 -0.41844937659E-01  0.13293940626E+00  0.19342813426E-01 0.  0.
         14    1    1    2    0    0 -0.22618117604E-02  0.15697186706E-01  0.16759496392E-01  0.23073755270E-01  0.00000000000E+00 0. -1.
     999901    1    3    3    0    0  0.88645111833E-01  0.74223155626E-01  0.25085441267E-01  0.88791683847E+00  0.88000000000E+00 0. -1.
        -11    1    4    4    0    0 -0.71909303744E-01 -0.69637518566E-01 -0.26063986212E-01  0.10344043917E+00  0.51100000000E-03 0. -1.
         11    1    4    4    0    0 -0.14473996329E-01 -0.20282823767E-01 -0.15780951447E-01  0.29498967088E-01  0.51100000000E-03 0.  1.
</event>
<event>
 8    1  0.5489035E+004  0.1043930E+01  0.7957747E-01            NaN
         13   -1    0    0    0    0  0.00000000000E+00  0.00000000000E+00  0.74505805969E-08  0.10566000000E+00  0.10566000000E+00 0.  1.
     999900   -1    0    0    0    0 -0.00000000000E+00 -0.00000000000E+00 -0.74505805969E-08  0.93827000000E+00  0.93827000000E+00 0. -1.
     999902    2    1    2    0    0  0.23453125432E-01 -0.98654305629E-02  0.11570103746E-01  0.10159792735E+01  0.10155947228E+01 0.  0.
     999903    2    3    3    0    0  0.69369534906E-01 -0.24122540601E-01  0.10506946111E+00  0.12972100881E+00  0.19847396095E-01 0.  0.
         14    1    1    2    0    0 -0.23453125432E-01  0.98654305629E-02 -0.11570103746E-01  0.27950726528E-01  0.00000000000E+00 0.  1.
     999901    1    3    3    0    0 -0.45916409474E-01  0.14257110038E-01 -0.93499357365E-01  0.88625826466E+00  0.88000000000E+00 0. -1.
        -11    1    4    4    0    0  0.34354668683E-01 -0.20449009944E-01  0.65634167108E-01  0.76853824115E-01  0.51100000000E-03 0. -1.
         11    1    4    4    0    0  0.35014866223E-01 -0.36735306564E-02  0.39435294002E-01  0.52867184700E-01  0.51100000000E-03 0.  1.
</event>
<event>
 8    1  0.5489035E+004  0.1043930E+01  0.7957747E-01            NaN
         13   -1    0    0    0    0  0.00000000000E+00  0.00000000000E+00  0.74505805969E-08  0.10566000000E+00  0.10566000000E+00 0. -1.
     999900   -1    0    0    0    0 -0.00000000000E+00 -0.00000000000E+00 -0.74505805969E-08  0.93827000000E+00  0.93827000000E+00 0.  1.
     999902    2    1    2    0    0 -0.30082342151E-03  0.23017906084E-01 -0.81285047815E-02  0.10195171533E+01  0.10192248225E+01 0.  0.
     999903    2    3    3    0    0  0.11522428529E+00 -0.31716750359E-01  0.43891441183E-01  0.12876016726E+00  0.19238864075E-01 0.  0.
         14    1    1    2    0    0  0.30082342151E-03 -0.23017906084E-01  0.81285047815E-02  0.24412846724E-01  0.00000000000E+00 0. -1.
     999901    1    3    3    0    0 -0.11552510871E+00  0.54734656443E-01 -0.52019945964E-01  0.89075698602E+00  0.88000000000E+00 0.  1.
        -11    1    4    4    0    0  0.46495370524E-01 -0.32639053918E-02  0.18684262185E-01  0.50217878618E-01  0.51100000000E-03 0. -1.
         11    1    4    4    0    0  0.68728914762E-01 -0.28452844967E-01  0.25207178998E-01  0.78542288642E-01  0.51100000000E-03 0.  1.
</event>
<event>
 8    1  0.5489035E+004  0.1043930E+01  0.7957747E-01            NaN
         13   -1    0    0    0    0  0.00000000000E+00  0.00000000000E+00  0.74505805969E-08  0.10566000000E+00  0.10566000000E+00 0. -1.
     999900   -1    0    0    0    0 -0.00000000000E+00 -0.00000000000E+00 -0.74505805969E-08  0.93827000000E+00  0.93827000000E+00 0. -1.
     999902    2    1    2    0    0 -0.16218937534E-01  0.65890847002E-02  0.16375757853E-01  0.10199584457E+01  0.10196767113E+01 0.  0.
     999903    2    3    3    0    0  0.11741820538E+00  0.48408363391E-01  0.80796333700E-02  0.12884870847E+00  0.20156998769E-01 0.  0.
         14    1    1    2    0    0  0.16218937534E-01 -0.65890847002E-02 -0.16375757853E-01  0.23971554334E-01  0.00000000000E+00 0.  1.
     999901    1    3    3    0    0 -0.13363714291E+00 -0.41819278691E-01  0.82961244834E-02  0.89110973719E+00  0.88000000000E+00 0. -1.
        -11    1    4    4    0    0  0.14873670025E-01  0.38880854639E-02 -0.52737905962E-02  0.16260911931E-01  0.51100000000E-03 0.  1.
         11    1    4    4    0    0  0.10254453535E+00  0.44520277927E-01  0.13353423966E-01  0.11258779654E+00  0.51100000000E-03 0. -1.
</event>
<event>
 8    1  0.5489035E+004  0.1043930E+01  0.7957747E-01            NaN
         13   -1    0    0    0    0  0.00000000000E+00  0.00000000000E+00  0.74505805969E-08  0.10566000000E+00  0.10566000000E+00 0. -1.
     999900   -1    0    0    0    0 -0.00000000000E+00 -0.00000000000E+00 -0.74505805969E-08  0.93827000000E+00  0.93827000000E+00 0. -1.
     999902    2    1    2    0    0  0.53983637585E-02 -0.44622866861E-03  0.23594697438E-01  0.10197215057E+01  0.10194341067E+01 0.  0.
     999903    2    3    3    0    0  0.65905418352E-01  0.12031602472E-02 -0.10802268775E+00  0.12787681053E+00  0.18401245593E-01 0.  0.
         14    1    1    2    0    0 -0.53983637585E-02  0.44622866861E-03 -0.23594697438E-01  0.24208494345E-01  0.00000000000E+00 0.  1.
     999901    1    3    3    0    0 -0.60507054594E-01 -0.16493889158E-02  0.13161738519E+00  0.89184469513E+00  0.88000000000E+00 0.  1.
        -11    1    4    4    0    0  0.46583514543E-01  0.92315154156E-02 -0.76196637278E-01  0.89785485227E-01  0.51100000000E-03 0. -1.
         11    1    4    4    0    0  0.19321903810E-01 -0.80283551685E-02 -0.31826050473E-01  0.38091325302E-01  0.51100000000E-03 0.  1.
</event>
<event>
 7    1  0.5489035E+004  0.1043930E+01  0.7957747E-01            NaN
         13   -1    0    0    0    0  0.00000000000E+00  0.00000000000E+00  0.74505805969E-08  0.10566000000E+00  0.10566000000E+00 0.  1.
     999900   -1    0    0    0    0 -0.00000000000E+00 -0.00000000000E+00 -0.74505805969E-08  0.93827000000E+00  0.93827000000E+00 0. -1.
     999903    2    1    2    0    0 -0.95390954268E-01 -0.19291675895E-01  0.54313400213E-01  0.11285090994E+00  0.17713822747E-01 0.  0.
         14    1    1    2    0    0 -0.24762620726E-01  0.23348560523E-01  0.20546838913E-01  0.39755694598E-01  0.00000000000E+00 0. -1.
     999901    1    1    2    0    0  0.12015357499E+00 -0.40568846281E-02 -0.74860239126E-01  0.89132339546E+00  0.88000000000E+00 0. -1.
        -11    1    3    3    0    0 -0.77549472614E-01 -0.18813632409E-01  0.36931213314E-01  0.87932070970E-01  0.51100000000E-03 0.  1.
         11    1    3    3    0    0 -0.17841481654E-01 -0.47804348537E-03  0.17382186899E-01  0.24918838969E-01  0.51100000000E-03 0. -1.
</event>
<event>
 8    1  0.5489035E+004  0.1043930E+01  0.7957747E-01            NaN
         13   -1    0    0    0    0  0.00000000000E+00  0.00000000000E+00  0.74505805969E-08  0.10566000000E+00  0.10566000000E+00 0.  1.
     999900   -1    0    0    0    0 -0.00000000000E+00 -0.00000000000E+00 -0.74505805969E-08  0.93827000000E+00  0.93827000000E+00 0. -1.
     999902    2    1    2    0    0  0.55565786057E-02  0.13205610815E-01 -0.18788348610E-01  0.10203023517E+01  0.10200287364E+01 0.  0.
     999903    2    3    3    0    0 -0.58478537158E-01  0.10719046176E+00  0.42524647667E-01  0.13086830027E+00  0.20214647017E-01 0.  0.
         14    1    1    2    0    0 -0.55565786057E-02 -0.13205610815E-01  0.18788348610E-01  0.23627648345E-01  0.00000000000E+00 0.  1.
     999901    1    3    3    0    0  0.64035115763E-01 -0.93984850949E-01 -0.61312996278E-01  0.88943405139E+00  0.88000000000E+00 0. -1.
        -11    1    4    4    0    0 -0.39773349787E-01  0.57801709706E-01  0.31515193290E-01  0.76918304241E-01  0.51100000000E-03 0. -1.
         11    1    4    4    0    0 -0.18705187371E-01  0.49388752057E-01  0.11009454377E-01  0.53949996024E-01  0.51100000000E-03 0.  1.
</event>
<event>
 8    1  0.5489035E+004  0.1043930E+01  0.7957747E-01            NaN
         13   -1    0    0    0    0  0.00000000000E+00  0.00000000000E+00  0.74505805969E-08  0.10566000000E+00  0.10566000000E+00 0.  1.
     999900   -1    0    0    0    0 -0.00000000000E+00 -0.00000000000E+00 -0.74505805969E-08  0.93827000000E+00  0.93827000000E+00 0. -1.
     999902    2    1    2    0    0 -0.22356575458E-01  0.59903577471E-02 -0.41963453220E-02  0.10204074541E+01  0.10201362959E+01 0.  0.
     999903    2    3    3    0    0  0.88591559300E-01 -0.90114050390E-01  0.80494690667E-02  0.12816561140E+00  0.19814730294E-01 0.  0.
         14    1    1    2    0    0  0.22356575458E-01 -0.59903577471E-02  0.41963453220E-02  0.23522545913E-01  0.00000000000E+00 0. -1.
     999901    1    3    3    0    0 -0.11094813476E+00  0.96104408138E-01 -0.12245814389E-01  0.89224184269E+00  0.88000000000E+00 0.  1.
        -11    1    4    4    0    0  0.35251318169E-01 -0.48169530276E-01 -0.10348130388E-02  0.59701683717E-01  0.51100000000E-03 0. -1.
         11    1    4    4    0    0  0.53340241131E-01 -0.41944520115E-01  0.90842821055E-02  0.68463927684E-01  0.51100000000E-03 0.  1.
</event>
<event>
 8    1  0.5489035E+004  0.1043930E+01  0.7957747E-01            NaN
         13   -1    0    0    0    0  0.00000000000E+00  0.00000000000E+00  0.74505805969E-08  0.10566000000E+00  0.10566000000E+00 0. -1.
     999900   -1    0    0    0    0 -0.00000000000E+00 -0.00000000000E+00 -0.74505805969E-08  0.93827000000E+00  0.93827000000E+00 0. -1.
     999902    2    1    2    0    0  0.32958196748E-02 -0.20935318353E-01  0.10358820473E-01  0.10203406985E+01  0.10200679810E+01 0.  0.
     999903    2    3    3    0    0  0.80539675759E-01  0.53333144004E-01 -0.83068373514E-01  0.12893110785E+00  0.19794248436E-01 0.  0.
         14    1    1    2    0    0 -0.32958196748E-02  0.20935318353E-01 -0.10358820473E-01  0.23589301462E-01  0.00000000000E+00 0.  1.
     999901    1    3    3    0    0 -0.77243856084E-01 -0.74268462357E-01  0.93427193987E-01  0.89140959069E+00  0.88000000000E+00 0.  1.
        -11    1    4    4    0    0  0.11114397551E-01  0.38545133901E-02 -0.18732227081E-01  0.22125653862E-01  0.51100000000E-03 0. -1.
         11    1    4    4    0    0  0.69425278208E-01  0.49478630614E-01 -0.64336146433E-01  0.10680545398E+00  0.51100000000E-03 0.  1.
</event>
<event>
 8    1  0.5489035E+004  0.1043930E+01  0.7957747E-01            NaN
         13   -1    0    0    0    0  0.00000000000E+00  0.00000000000E+00  0.74505805969E-08  0.10566000000E+00  0.10566000000E+00 0.  1.
     999900   -1    0    0    0    0 -0.00000000000E+00 -0.00000000000E+00 -0.74505805969E-08  0.93827000000E+00  0.93827000000E+00 0.  1.
     999902    2    1    2    0    0  0.91291292799E-02 -0.12349455080E-01 -0.18276441519E-01  0.10200578749E+01  0.10197785004E+01 0.  0.
     999903    2    3    3    0    0 -0.42444769378E-01  0.80877087245E-01 -0.91456530888E-01  0.13061626316E+00  0.18805570208E-01 0.  0.
         14    1    1    2    0    0 -0.91291292799E-02  0.12349455080E-01  0.18276441519E-01  0.23872125100E-01  0.00000000000E+00 0.  1.
     999901    1    3    3    0    0  0.51573898658E-01 -0.93226542325E-01  0.73180089369E-01  0.88944161174E+00  0.88000000000E+00 0. -1.
        -11    1    4    4    0    0 -0.39629908632E-01  0.68891235464E-01 -0.86114075986E-01  0.11718543931E+00  0.51100000000E-03 0. -1.
         11    1    4    4    0    0 -0.28148607456E-02  0.11985851781E-01 -0.53424549018E-02  0.13430823851E-01  0.51100000000E-03 0.  1.
</event>
<event>
 8    1  0.5489035E+004  0.1043930E+01  0.7957747E-01            NaN
         13   -1    0    0    0    0  0.00000000000E+00  0.00000000000E+00  0.74505805969E-08  0.10566000000E+00  0.10566000000E+00 0. -1.
     999900   -1    0    0    0    0 -0.00000000000E+00 -0.00000000000E+00 -0.74505805969E-08  0.93827000000E+00  0.93827000000E+00 0. -1.
     999902    2    1    2    0    0 -0.10000631932E-02 -0.17562907294E-01 -0.15167213300E-01  0.10207028564E+01  0.10204385434E+01 0.  0.
     999903    2    3    3    0    0  0.11135334096E+00  0.58557455905E-01  0.22885753706E-01  0.12948704339E+00  0.20361593702E-01 0.  0.
         14    1    1    2    0    0  0.10000631932E-02  0.17562907294E-01  0.15167213300E-01  0.23227143567E-01  0.00000000000E+00 0. -1.
     999901    1    3    3    0    0 -0.11235340415E+00 -0.76120363199E-01 -0.38052967005E-01  0.89121581304E+00  0.88000000000E+00 0. -1.
        -11    1    4    4    0    0  0.67714431028E-01  0.36619728838E-01  0.39032936540E-02  0.77082718763E-01  0.51100000000E-03 0. -1.
         11    1    4    4    0    0  0.43638909933E-01  0.21937727067E-01  0.18982460052E-01  0.52404324628E-01  0.51100000000E-03 0.  1.
</event>
<event>
 8    1  0.5489035E+004  0.1043930E+01  0.7957747E-01            NaN
         13   -1    0    0    0    0  0.00000000000E+00  0.00000000000E+00  0.74505805969E-08  0.10566000000E+00  0.10566000000E+00 0.  1.
     999900   -1    0    0    0    0 -0.00000000000E+00 -0.00000000000E+00 -0.74505805969E-08  0.93827000000E+00  0.93827000000E+00 0. -1.
     999902    2    1    2    0    0  0.10794048298E-01 -0.20964552939E-01 -0.53710491563E-02  0.10197458703E+01  0.10194590565E+01 0.  0.
     999903    2    3    3    0    0  0.27265471056E-01 -0.53530245082E-01 -0.11567466654E+00  0.13210927798E+00  0.21525329255E-01 0.  0.
         14    1    1    2    0    0 -0.10794048298E-01  0.20964552939E-01  0.53710491563E-02  0.24184129665E-01  0.00000000000E+00 0.  1.
     999901    1    3    3    0    0 -0.16471422758E-01  0.32565692143E-01  0.11030361739E+00  0.88763659235E+00  0.88000000000E+00 0.  1.
        -11    1    4    4    0    0  0.15623103245E-02 -0.25243000451E-01 -0.39977742677E-01  0.47308888339E-01  0.51100000000E-03 0.  1.
         11    1    4    4    0    0  0.25703160731E-01 -0.28287244631E-01 -0.75696923865E-01  0.84800389645E-01  0.51100000000E-03 0. -1.
</event>
<event>
 8    1  0.5489035E+004  0.1043930E+01  0.7957747E-01            NaN
         13   -1    0    0    0    0  0.00000000000E+00  0.00000000000E+00  0.74505805969E-08  0.10566000000E+00  0.10566000000E+00 0.  1.
     999900   -1    0    0    0    0 -0.00000000000E+00 -0.00000000000E+00 -0.74505805969E-08  0.93827000000E+00  0.93827000000E+00 0. -1.
     999902    2    1    2    0    0  0.19308288300E-01 -0.14072842791E-01 -0.92525525700E-03  0.10200195212E+01  0.10197392375E+01 0.  0.
     999903    2    3    3    0    0 -0.61665181511E-01 -0.10106510952E+00  0.51192455451E-01  0.13050245384E+00  0.19836128392E-01 0.  0.
         14    1    1    2    0    0 -0.19308288300E-01  0.14072842791E-01  0.92525525700E-03  0.23910478845E-01  0.00000000000E+00 0. -1.
     999901    1    3    3    0    0  0.80973469811E-01  0.86992266726E-01 -0.52117710708E-01  0.88951706732E+00  0.88000000000E+00 0. -1.
        -11    1    4    4    0    0 -0.36950921775E-01 -0.44099584107E-01  0.19250626932E-01  0.60671176820E-01  0.51100000000E-03 0.  1.
         11    1    4    4    0    0 -0.24714259736E-01 -0.56965525410E-01  0.31941828518E-01  0.69831277015E-01  0.51100000000E-03 0. -1.
</event>
<event>
 8    1  0.5489035E+004  0.1043930E+01  0.7957747E-01            NaN
         13   -1    0    0    0    0  0.00000000000E+00  0.00000000000E+00  0.74505805969E-08  0.10566000000E+00  0.10566000000E+00 0.  1.
     999900   -1    0    0    0    0 -0.00000000000E+00 -0.00000000000E+00 -0.74505805969E-08  0.93827000000E+00  0.93827000000E+00 0. -1.
     999902    2    1    2    0    0 -0.14619152364E-01 -0.16238641106E-01 -0.10829362235E-01  0.10195437710E+01  0.10192520850E+01 0.  0.
     999903    2    3    3    0    0  0.84401630013E-01 -0.50689855774E-02  0.93668892489E-01  0.12777599749E+00  0.20087666621E-01 0.  0.
         14    1    1    2    0    0  0.14619152364E-01  0.16238641106E-01  0.10829362235E-01  0.24386229049E-01  0.00000000000E+00 0.  1.
     999901    1    3    3    0    0 -0.99020782377E-01 -0.11169655529E-01 -0.10449825472E+00  0.89176777346E+00  0.88000000000E+00 0. -1.
        -11    1    4    4    0    0  0.76865349674E-01 -0.16660320752E-02  0.75260928253E-01  0.10758961886E+00  0.51100000000E-03 0. -1.
         11    1    4    4    0    0  0.75362803385E-02 -0.34029535022E-02  0.18407964236E-01  0.20186378630E-01  0.51100000000E-03 0.  1.
</event>
<event>
 8    1  0.5489035E+004  0.1043930E+01  0.7957747E-01            NaN
         13   -1    0    0    0    0  0.00000000000E+00  0.00000000000E+00  0.74505805969E-08  0.10566000000E+00  0.10566000000E+00 0.  1.
     999900   -1    0    0    0    0 -0.00000000000E+00 -0.00000000000E+00 -0.74505805969E-08  0.93827000000E+00  0.93827000000E+00 0. -1.
     999902    2    1    2    0    0 -0.40604996677E-02  0.20183646544E-01  0.10627691584E-01  0.10207607300E+01  0.10204977476E+01 0.  0.
     999903    2    3    3    0    0  0.40823392656E-01 -0.11290930914E+00  0.42511205992E-01  0.12905177682E+00  0.20786942688E-01 0.  0.
         14    1    1    2    0    0  0.40604996677E-02 -0.20183646544E-01 -0.10627691584E-01  0.23169270031E-01  0.00000000000E+00 0. -1.
     999901    1    3    3    0    0 -0.44883892324E-01  0.13309295568E+00 -0.31883514409E-01  0.89170895315E+00  0.88000000000E+00 0. -1.
        -11    1    4    4    0    0  0.19311925145E-01 -0.72261679711E-01  0.17994037244E-01  0.76933395250E-01  0.51100000000E-03 0.  1.
         11    1    4    4    0    0  0.21511467510E-01 -0.40647629428E-01  0.24517168748E-01  0.52118381565E-01  0.51100000000E-03 0. -1.
</event>
<event>
 8    1  0.5489035E+004  0.1043930E+01  0.7957747E-01            NaN
         13   -1    0    0    0    0  0.00000000000E+00  0.00000000000E+00  0.74505805969E-08  0.10566000000E+00  0.10566000000E+00 0.  1.
     999900   -1    0    0    0    0 -0.00000000000E+00 -0.00000000000E+00 -0.74505805969E-08  0.93827000000E+00  0.93827000000E+00 0. -1.
     999902    2    1    2    0    0 -0.91995855220E-02  0.20385411096E-01 -0.86453719090E-02  0.10199520974E+01  0.10196702119E+01 0.  0.
     999903    2    3    3    0    0  0.93532855451E-01  0.48933190799E-01 -0.74920525154E-01  0.13104190725E+00  0.20397160481E-01 0.  0.
         14    1    1    2    0    0  0.91995855220E-02 -0.20385411096E-01  0.86453719090E-02  0.23977902635E-01  0.00000000000E+00 0.  1.
     999901    1    3    3    0    0 -0.10273244097E+00 -0.28547779704E-01  0.66275153245E-01  0.88891019012E+00  0.88000000000E+00 0.  1.
        -11    1    4    4    0    0  0.53616133685E-01  0.32171176160E-01 -0.55429858564E-01  0.83560784511E-01  0.51100000000E-03 0.  1.
         11    1    4    4    0    0  0.39916721766E-01  0.16762014640E-01 -0.19490666590E-01  0.47481122738E-01  0.51100000000E-03 0. -1.
</event>
<event>
 8    1  0.5489035E+004  0.1043930E+01  0.7957747E-01            NaN
         13   -1    0    0    0    0  0.00000000000E+00  0.00000000000E+00  0.74505805969E-08  0.10566000000E+00  0.10566000000E+00 0.  1.
     999900   -1    0    0    0    0 -0.00000000000E+00 -0.00000000000E+00 -0.74505805969E-08  0.93827000000E+00  0.93827000000E+00 0.  1.
     999902    2    1    2    0    0 -0.71832267507E-02  0.13228117906E-01  0.19056985003E-01  0.10196452203E+01  0.10193559852E+01 0.  0.
     999903    2    3    3    0    0 -0.92626555868E-01  0.82428478297E-01 -0.38979968336E-01  0.13090592197E+00  0.15581706837E-01 0.  0.
         14    1    1    2    0    0  0.71832267507E-02 -0.13228117906E-01 -0.19056985003E-01  0.24284779746E-01  0.00000000000E+00 0. -1.
     999901    1    3    3    0    0  0.85443329117E-01 -0.69200360391E-01  0.58036953339E-01  0.88873929829E+00  0.88000000000E+00 0. -1.
        -11    1    4    4    0    0 -0.39005955368E-01  0.38516336325E-01 -0.97252480641E-02  0.55675975869E-01  0.51100000000E-03 0.  1.
         11    1    4    4    0    0 -0.53620600500E-01  0.43912141972E-01 -0.29254720272E-01  0.75229946096E-01  0.51100000000E-03 0. -1.
</event>
<event>
 8    1  0.5489035E+004  0.1043930E+01  0.7957747E-01            NaN
         13   -1    0    0    0    0  0.00000000000E+00  0.00000000000E+00  0.74505805969E-08  0.10566000000E+00  0.10566000000E+00 0.  1.
     999900   -1    0    0    0    0 -0.00000000000E+00 -0.00000000000E+00 -0.74505805969E-08  0.93827000000E+00  0.93827000000E+00 0.  1.
     999902    2    1    2    0    0 -0.12009810896E-01 -0.53451105050E-02  0.20227895325E-01  0.10198058728E+01  0.10195204974E+01 0.  0.
     999903    2    3    3    0    0 -0.11820534411E+00  0.51892039043E-01 -0.11100316464E-01  0.13102297500E+00  0.19455484086E-01 0.  0.
         14    1    1    2    0    0  0.12009810896E-01  0.53451105050E-02 -0.20227895325E-01  0.24124127204E-01  0.00000000000E+00 0. -1.
     999901    1    3    3    0    0  0.10619553321E+00 -0.57237149548E-01  0.31328211789E-01  0.88878289780E+00  0.88000000000E+00 0. -1.
        -11    1    4    4    0    0 -0.29385523075E-01  0.11208718951E-01  0.54864410545E-02  0.31929711920E-01  0.51100000000E-03 0. -1.
         11    1    4    4    0    0 -0.88819821031E-01  0.40683320092E-01 -0.16586757518E-01  0.99093263079E-01  0.51100000000E-03 0.  1.
</event>
<event>
 8    1  0.5489035E+004  0.1043930E+01  0.7957747E-01            NaN
         13   -1    0    0    0    0  0.00000000000E+00  0.00000000000E+00  0.74505805969E-08  0.10566000000E+00  0.10566000000E+00 0. -1.
     999900   -1    0    0    0    0 -0.00000000000E+00 -0.00000000000E+00 -0.74505805969E-08  0.93827000000E+00  0.93827000000E+00 0.  1.
     999902    2    1    2    0    0  0.60691873063E-02 -0.22078477616E-01 -0.14563245525E-02  0.10209862625E+01  0.10207284326E+01 0.  0.
     999903    2    3    3    0    0 -0.62958715021E-01 -0.91326305022E-01  0.71229612122E-01  0.13259256697E+00  0.14242099098E-01 0.  0.
         14    1    1    2    0    0 -0.60691873063E-02  0.22078477616E-01  0.14563245525E-02  0.22943737481E-01  0.00000000000E+00 0.  1.
     999901    1    3    3    0    0  0.69027902328E-01  0.69247827406E-01 -0.72685936675E-01  0.88839369555E+00  0.88000000000E+00 0.  1.
        -11    1    4    4    0    0 -0.48686450016E-01 -0.65105389410E-01  0.58376093278E-01  0.10008552110E+00  0.51100000000E-03 0. -1.
         11    1    4    4    0    0 -0.14272265005E-01 -0.26220915611E-01  0.12853518844E-01  0.32507045875E-01  0.51100000000E-03 0.  1.
</event>
<event>
 8    1  0.5489035E+004  0.1043930E+01  0.7957747E-01            NaN
         13   -1    0    0    0    0  0.00000000000E+00  0.00000000000E+00  0.74505805969E-08  0.10566000000E+00  0.10566000000E+00 0. -1.
     999900   -1    0    0    0    0 -0.00000000000E+00 -0.00000000000E+00 -0.74505805969E-08  0.93827000000E+00  0.93827000000E+00 0.  1.
     999902    2    1    2    0    0  0.21079173675E-01  0.74351087438E-02 -0.85598103056E-02  0.10199950307E+01  0.10197141657E+01 0.  0.
     999903    2    3    3    0    0 -0.82343018066E-01  0.71144034417E-01 -0.67835302846E-01  0.12967567168E+00  0.19295213306E-01 0.  0.
         14    1    1    2    0    0 -0.21079173675E-01 -0.74351087438E-02  0.85598103056E-02  0.23934969341E-01  0.00000000000E+00 0.  1.
     999901    1    3    3    0    0  0.10342219174E+00 -0.63708925673E-01  0.59275492540E-01  0.89031935898E+00  0.88000000000E+00 0. -1.
        -11    1    4    4    0    0 -0.33861194980E-01  0.39373329197E-01 -0.38910404959E-01  0.64893145344E-01  0.51100000000E-03 0. -1.
         11    1    4    4    0    0 -0.48481823086E-01  0.31770705221E-01 -0.28924897886E-01  0.64782526338E-01  0.51100000000E-03 0.  1.
</event>
<event>
 8    1  0.5489035E+004  0.1043930E+01  0.7957747E-01            NaN
         13   -1    0    0    0    0  0.00000000000E+00  0.00000000000E+00  0.74505805969E-08  0.10566000000E+00  0.10566000000E+00 0.  1.
     999900   -1    0    0    0    0 -0.00000000000E+00 -0.00000000000E+00 -0.74505805969E-08  0.93827000000E+00  0.93827000000E+00 0.  1.
     999902    2    1    2    0    0 -0.18538142159E-01  0.18429673579E-01  0.39852850620E-02  0.10174876461E+01  0.10171439976E+01 0.  0.
     999903    2    3    3    0    0 -0.79192099411E-01  0.10289419710E+00 -0.29524797224E-02  0.13133794608E+00  0.19553376603E-01 0.  0.
         14    1    1    2    0    0  0.18538142159E-01 -0.18429673579E-01 -0.39852850620E-02  0.26442353903E-01  0.00000000000E+00 0. -1.
     999901    1    3    3    0    0  0.60653957252E-01 -0.84464523525E-01  0.69377647843E-02  0.88614970002E+00  0.88000000000E+00 0.  1.
        -11    1    4    4    0    0 -0.20633686192E-01  0.34046525423E-01 -0.87618840434E-02  0.40766979681E-01  0.51100000000E-03 0.  1.
         11    1    4    4    0    0 -0.58558413218E-01  0.68847671680E-01  0.58094043210E-02  0.90570966397E-01  0.51100000000E-03 0. -1.
</event>
<event>
 8    1  0.5489035E+004  0.1043930E+01  0.7957747E-01            NaN
         13   -1    0    0    0    0  0.00000000000E+00  0.00000000000E+00  0.74505805969E-08  0.10566000000E+00  0.10566000000E+00 0.  1.
     999900   -1    0    0    0    0 -0.00000000000E+00 -0.00000000000E+00 -0.74505805969E-08  0.93827000000E+00  0.93827000000E+00 0.  1.
     999902    2    1    2    0    0 -0.12798995455E-01 -0.81544093295E-02  0.18345881708E-01  0.10201207570E+01  0.10198428697E+01 0.  0.
     999903    2    3    3    0    0  0.10780303631E+00  0.61500654214E-01 -0.24729676517E-01  0.12812738166E+00  0.20031074003E-01 0.  0.
         14    1    1    2    0    0  0.12798995455E-01  0.81544093295E-02 -0.18345881708E-01  0.23809242991E-01  0.00000000000E+00 0. -1.
     999901    1    3    3    0    0 -0.12060203176E+00 -0.69655063543E-01  0.43075558225E-01  0.89199337534E+00  0.88000000000E+00 0. -1.
        -11    1    4    4    0    0  0.83619736597E-01  0.42151503329E-01 -0.11149702809E-01  0.94305814111E-01  0.51100000000E-03 0. -1.
         11    1    4    4    0    0  0.24183299710E-01  0.19349150885E-01 -0.13579973708E-01  0.33821567553E-01  0.51100000000E-03 0.  1.
</event>
<event>
 8    1  0.5489035E+004  0.1043930E+01  0.7957747E-01            NaN
         13   -1    0    0    0    0  0.00000000000E+00  0.00000000000E+00  0.74505805969E-08  0.10566000000E+00  0.10566000000E+00 0.  1.
     999900   -1    0    0    0    0 -0.00000000000E+00 -0.00000000000E+00 -0.74505805969E-08  0.93827000000E+00  0.93827000000E+00 0. -1.
     999902    2    1    2    0    0  0.21540839885E-01  0.55995719166E-02 -0.11342668462E-01  0.10189496254E+01  0.10186433723E+01 0.  0.
     999903    2    3    3    0    0 -0.22412437018E-02 -0.11527176870E+00  0.52302566053E-01  0.12809263104E+00  0.19482296525E-01 0.  0.
         14    1    1    2    0    0 -0.21540839885E-01 -0.55995719166E-02  0.11342668462E-01  0.24980374626E-01  0.00000000000E+00 0.  1.
     999901    1    3    3    0    0  0.23782083587E-01  0.12087134062E+00 -0.63645234516E-01  0.89085699434E+00  0.88000000000E+00 0. -1.
        -11    1    4    4    0    0 -0.69576365480E-02 -0.15135372291E-01  0.67791396308E-02  0.17991833032E-01  0.51100000000E-03 0.  1.
         11    1    4    4    0    0  0.47163928462E-02 -0.10013639641E+00  0.45523426422E-01  0.11010079801E+00  0.51100000000E-03 0. -1.
</event>
<event>
 8    1  0.5489035E+004  0.1043930E+01  0.7957747E-01            NaN
         13   -1    0    0    0    0  0.00000000000E+00  0.00000000000E+00  0.74505805969E-08  0.10566000000E+00  0.10566000000E+00 0.  1.
     999900   -1    0    0    0    0 -0.00000000000E+00 -0.00000000000E+00 -0.74505805969E-08  0.93827000000E+00  0.93827000000E+00 0. -1.
     999902    2    1    2    0    0 -0.22147515797E-01  0.36903451910E-02  0.13821032899E-01  0.10175642636E+01  0.10172226298E+01 0.  0.
     999903    2    3    3    0    0 -0.11188559959E+00 -0.63141876365E-01  0.13972925097E-01  0.13047943534E+00  0.18009899040E-01 0.  0.
         14    1    1    2    0    0  0.22147515797E-01 -0.36903451910E-02 -0.13821032899E-01  0.26365736364E-01  0.00000000000E+00 0.  1.
     999901    1    3    3    0    0  0.89738083798E-01  0.66832221556E-01 -0.15189219764E-03  0.88708482830E+00  0.88000000000E+00 0. -1.
        -11    1    4    4    0    0 -0.43514670448E-01 -0.34715116405E-01  0.69562201314E-02  0.56100944473E-01  0.51100000000E-03 0. -1.
         11    1    4    4    0    0 -0.68370929146E-01 -0.28426759960E-01  0.70167049656E-02  0.74378490868E-01  0.51100000000E-03 0.  1.
</event>
<event>
 8    1  0.5489035E+004  0.1043930E+01  0.7957747E-01            NaN
         13   -1    0    0    0    0  0.00000000000E+00  0.00000000000E+00  0.74505805969E-08  0.10566000000E+00  0.10566000000E+00 0.  1.
     999900   -1    0    0    0    0 -0.00000000000E+00 -0.00000000000E+00 -0.74505805969E-08  0.93827000000E+00  0.93827000000E+00 0. -1.
     999902    2    1    2    0    0 -0.11797905530E-01 -0.19583397379E-01 -0.47822736576E-02  0.10205725565E+01  0.10203052351E+01 0.  0.
     999903    2    3    3    0    0  0.54069825058E-01 -0.86323236126E-01  0.80439901695E-01  0.13149686610E+00  0.21109261740E-01 0.  0.
         14    1    1    2    0    0  0.11797905530E-01  0.19583397379E-01  0.47822736576E-02  0.23357443549E-01  0.00000000000E+00 0. -1.
     999901    1    3    3    0    0 -0.65867730588E-01  0.66739838746E-01 -0.85222175353E-01  0.88907569036E+00  0.88000000000E+00 0. -1.
        -11    1    4    4    0    0  0.46035100195E-01 -0.59194219210E-01  0.51172188422E-01  0.90785681838E-01  0.51100000000E-03 0. -1.
         11    1    4    4    0    0  0.80347248631E-02 -0.27129016916E-01  0.29267713273E-01  0.40711184258E-01  0.51100000000E-03 0.  1.
</event>
<event>
 8    1  0.5489035E+004  0.1043930E+01  0.7957747E-01            NaN
         13   -1    0    0    0    0  0.00000000000E+00  0.00000000000E+00  0.74505805969E-08  0.10566000000E+00  0.10566000000E+00 0. -1.
     999900   -1    0    0    0    0 -0.00000000000E+00 -0.00000000000E+00 -0.74505805969E-08  0.93827000000E+00  0.93827000000E+00 0.  1.
     999902    2    1    2    0    0 -0.22246270217E-02 -0.52193448956E-02 -0.22414806437E-01  0.10208082770E+01  0.10205463852E+01 0.  0.
     999903    2    3    3    0    0 -0.97584254683E-03  0.42876861533E-01  0.11922273631E+00  0.12818517735E+00  0.19442255926E-01 0.  0.
         14    1    1    2    0    0  0.22246270217E-02  0.52193448956E-02  0.22414806437E-01  0.23121722993E-01  0.00000000000E+00 0. -1.
     999901    1    3    3    0    0 -0.12487844748E-02 -0.48096206428E-01 -0.14163754274E+00  0.89262309966E+00  0.88000000000E+00 0.  1.
        -11    1    4    4    0    0 -0.80845414716E-02  0.33913658200E-01  0.78755439719E-01  0.86128836226E-01  0.51100000000E-03 0.  1.
         11    1    4    4    0    0  0.71086989248E-02  0.89632033327E-02  0.40467296586E-01  0.42056341120E-01  0.51100000000E-03 0. -1.
</event>
<event>
 8    1  0.5489035E+004  0.1043930E+01  0.7957747E-01            NaN
         13   -1    0    0    0    0  0.00000000000E+00  0.00000000000E+00  0.74505805969E-08  0.10566000000E+00  0.10566000000E+00 0. -1.
     999900   -1    0    0    0    0 -0.00000000000E+00 -0.00000000000E+00 -0.74505805969E-08  0.93827000000E+00  0.93827000000E+00 0.  1.
     999902    2    1    2    0    0  0.12769443282E-01 -0.19876023841E-02 -0.20133460862E-01  0.10200058388E+01  0.10197252304E+01 0.  0.
     999903    2    3    3    0    0  0.92542841658E-01  0.52018145678E-01  0.72151750649E-01  0.12995135943E+00  0.20283384158E-01 0.  0.
         14    1    1    2    0    0 -0.12769443282E-01  0.19876023841E-02  0.20133460862E-01  0.23924161244E-01  0.00000000000E+00 0. -1.
     999901    1    3    3    0    0 -0.79773398376E-01 -0.54005748062E-01 -0.92285211511E-01  0.89005447933E+00  0.88000000000E+00 0.  1.
        -11    1    4    4    0    0  0.14893913698E-01  0.61381840000E-02  0.20287990596E-01  0.25910801830E-01  0.51100000000E-03 0. -1.
         11    1    4    4    0    0  0.77648927960E-01  0.45879961678E-01  0.51863760053E-01  0.10404055760E+00  0.51100000000E-03 0.  1.
</event>
<event>
 8    1  0.5489035E+004  0.1043930E+01  0.7957747E-01            NaN
         13   -1    0    0    0    0  0.00000000000E+00  0.00000000000E+00  0.74505805969E-08  0.10566000000E+00  0.10566000000E+00 0. -1.
     999900   -1    0    0    0    0 -0.00000000000E+00 -0.00000000000E+00 -0.74505805969E-08  0.93827000000E+00  0.93827000000E+00 0.  1.
     999902    2    1    2    0    0 -0.16923737924E-01 -0.72202344383E-02  0.14509273128E-01  0.10204978917E+01  0.10202288387E+01 0.  0.
     999903    2    3    3    0    0  0.63712738401E-01  0.56926903533E-01  0.96914856728E-01  0.13066207721E+00  0.19496245402E-01 0.  0.
         14    1    1    2    0    0  0.16923737924E-01  0.72202344383E-02 -0.14509273128E-01  0.23432108257E-01  0.00000000000E+00 0.  1.
     999901    1    3    3    0    0 -0.80636476325E-01 -0.64147137971E-01 -0.82405583600E-01  0.88983581454E+00  0.88000000000E+00 0.  1.
        -11    1    4    4    0    0  0.25432107908E-01  0.10703529903E-01  0.29244967238E-01  0.40210532138E-01  0.51100000000E-03 0. -1.
         11    1    4    4    0    0  0.38280630493E-01  0.46223373630E-01  0.67669889489E-01  0.90451545068E-01  0.51100000000E-03 0.  1.
</event>
<event>
 8    1  0.5489035E+004  0.1043930E+01  0.7957747E-01            NaN
         13   -1    0    0    0    0  0.00000000000E+00  0.00000000000E+00  0.74505805969E-08  0.10566000000E+00  0.10566000000E+00 0.  1.
     999900   -1    0    0    0    0 -0.00000000000E+00 -0.00000000000E+00 -0.74505805969E-08  0.93827000000E+00  0.93827000000E+00 0. -1.
     999902    2    1    2    0    0  0.86863609744E-02  0.21957254494E-01  0.43944338295E-02  0.10199115708E+01  0.10196287203E+01 0.  0.
     999903    2    3    3    0    0  0.11256353593E+00  0.56418364737E-01  0.36150667327E-01  0.13256355906E+00  0.20313663929E-01 0.  0.
         14    1    1    2    0    0 -0.86863609744E-02 -0.21957254494E-01 -0.43944338295E-02  0.24018429186E-01  0.00000000000E+00 0. -1.
     999901    1    3    3    0    0 -0.10387717495E+00 -0.34461110243E-01 -0.31756233498E-01  0.88734801175E+00  0.88000000000E+00 0. -1.
        -11    1    4    4    0    0  0.10209332663E+00  0.45021316045E-01  0.27891154967E-01  0.11501366826E+00  0.51100000000E-03 0.  1.
         11    1    4    4    0    0  0.10470209303E-01  0.11397048692E-01  0.82595123600E-02  0.17549890802E-01  0.51100000000E-03 0. -1.
</event>
<event>
 8    1  0.5489035E+004  0.1043930E+01  0.7957747E-01            NaN
         13   -1    0    0    0    0  0.00000000000E+00  0.00000000000E+00  0.74505805969E-08  0.10566000000E+00  0.10566000000E+00 0.  1.
     999900   -1    0    0    0    0 -0.00000000000E+00 -0.00000000000E+00 -0.74505805969E-08  0.93827000000E+00  0.93827000000E+00 0.  1.
     999902    2    1    2    0    0  0.13602179872E-01  0.10353508353E-02  0.19669658130E-01  0.10199928594E+01  0.10197119429E+01 0.  0.
     999903    2    3    3    0    0  0.23188710979E-01  0.93254936218E-01 -0.83669341391E-01  0.12910829768E+00  0.20837331775E-01 0.  0.
         14    1    1    2    0    0 -0.13602179872E-01 -0.10353508353E-02 -0.19669658130E-01  0.23937140589E-01  0.00000000000E+00 0. -1.
     999901    1    3    3    0    0 -0.95865311067E-02 -0.92219585383E-01  0.10333899952E+00  0.89088456173E+00  0.88000000000E+00 0. -1.
        -11    1    4    4    0    0  0.32355671628E-03  0.19279546072E-01 -0.26881329341E-01  0.33085836453E-01  0.51100000000E-03 0.  1.
         11    1    4    4    0    0  0.22865154262E-01  0.73975390146E-01 -0.56788012050E-01  0.96022461228E-01  0.51100000000E-03 0. -1.
</event>
<event>
 7    1  0.5489035E+004  0.1043930E+01  0.7957747E-01            NaN
         13   -1    0    0    0    0  0.00000000000E+00  0.00000000000E+00  0.74505805969E-08  0.10566000000E+00  0.10566000000E+00 0. -1.
     999900   -1    0    0    0    0 -0.00000000000E+00 -0.00000000000E+00 -0.74505805969E-08  0.93827000000E+00  0.93827000000E+00 0.  1.
     999903    2    1    2    0    0  0.79930390377E-01 -0.30857728315E-01 -0.40321079711E-02  0.88125060881E-01  0.20216373511E-01 0.  0.
         14    1    1    2    0    0 -0.29114897790E-01  0.47883644325E-01 -0.46366898996E-01  0.72735204610E-01  0.00000000000E+00 0.  1.
     999901    1    1    2    0    0 -0.50815492588E-01 -0.17025916010E-01  0.50399006968E-01  0.88306973451E+00  0.88000000000E+00 0. -1.
        -11    1    3    3    0    0  0.16721973853E-01 -0.15229686531E-01  0.21123750621E-02  0.22722037998E-01  0.51100000000E-03 0. -1.
         11    1    3    3    0    0  0.63208416524E-01 -0.15628041784E-01 -0.61444830331E-02  0.65403022883E-01  0.51100000000E-03 0.  1.
</event>
<event>
 8    1  0.5489035E+004  0.1043930E+01  0.7957747E-01            NaN
         13   -1    0    0    0    0  0.00000000000E+00  0.00000000000E+00  0.74505805969E-08  0.10566000000E+00  0.10566000000E+00 0. -1.
     999900   -1    0    0    0    0 -0.00000000000E+00 -0.00000000000E+00 -0.74505805969E-08  0.93827000000E+00  0.93827000000E+00 0. -1.
     999902    2    1    2    0    0 -0.19525365420E-01  0.50378198479E-02  0.11713015582E-01  0.10206101746E+01  0.10203437236E+01 0.  0.
     999903    2    3    3    0    0  0.23931113789E-01  0.11594289252E+00 -0.51138846153E-01  0.13036371587E+00  0.19080468964E-01 0.  0.
         14    1    1    2    0    0  0.19525365420E-01 -0.50378198479E-02 -0.11713015582E-01  0.23319825420E-01  0.00000000000E+00 0.  1.
     999901    1    3    3    0    0 -0.43456479209E-01 -0.11090507267E+00  0.62851861735E-01  0.89024645871E+00  0.88000000000E+00 0.  1.
        -11    1    4    4    0    0  0.27092478789E-01  0.98736120080E-01 -0.42717123455E-01  0.11094069394E+00  0.51100000000E-03 0. -1.
         11    1    4    4    0    0 -0.31613650002E-02  0.17206772438E-01 -0.84217226981E-02  0.19423021922E-01  0.51100000000E-03 0.  1.
</event>
<event>
 8    1  0.5489035E+004  0.1043930E+01  0.7957747E-01            NaN
         13   -1    0    0    0    0  0.00000000000E+00  0.00000000000E+00  0.74505805969E-08  0.10566000000E+00  0.10566000000E+00 0. -1.
     999900   -1    0    0    0    0 -0.00000000000E+00 -0.00000000000E+00 -0.74505805969E-08  0.93827000000E+00  0.93827000000E+00 0.  1.
     999902    2    1    2    0    0  0.59737887450E-02  0.10103906996E-01 -0.16989443129E-01  0.10232801509E+01  0.10230717722E+01 0.  0.
     999903    2    3    3    0    0 -0.70274130931E-01  0.10327325430E+00  0.41693918011E-01  0.13314644783E+00  0.19641161839E-01 0.  0.
         14    1    1    2    0    0 -0.59737887450E-02 -0.10103906996E-01  0.16989443129E-01  0.20649849064E-01  0.00000000000E+00 0. -1.
     999901    1    3    3    0    0  0.76247919676E-01 -0.93169347305E-01 -0.58683361140E-01  0.89013370311E+00  0.88000000000E+00 0.  1.
        -11    1    4    4    0    0 -0.28698266587E-01  0.54399204082E-01  0.27769736382E-01  0.67485430202E-01  0.51100000000E-03 0.  1.
         11    1    4    4    0    0 -0.41575864345E-01  0.48874050219E-01  0.13924181629E-01  0.65661017627E-01  0.51100000000E-03 0. -1.
</event>
<event>
 8    1  0.5489035E+004  0.1043930E+01  0.7957747E-01            NaN
         13   -1    0    0    0    0  0.00000000000E+00  0.00000000000E+00  0.74505805969E-08  0.10566000000E+00  0.10566000000E+00 0.  1.
     999900   -1    0    0    0    0 -0.00000000000E+00 -0.00000000000E+00 -0.74505805969E-08  0.93827000000E+00  0.93827000000E+00 0.  1.
     999902    2    1    2    0    0 -0.35087332676E-03 -0.24201171208E-01 -0.31816458802E-02  0.10195180630E+01  0.10192257542E+01 0.  0.
     999903    2    3    3    0    0  0.38408057465E-01 -0.11616940996E+00  0.46531551619E-01  0.13248265573E+00  0.20395050504E-01 0.  0.
         14    1    1    2    0    0  0.35087332676E-03  0.24201171208E-01  0.31816458802E-02  0.24411937048E-01  0.00000000000E+00 0.  1.
     999901    1    3    3    0    0 -0.38758930792E-01  0.91968238753E-01 -0.49713197499E-01  0.88703540722E+00  0.88000000000E+00 0.  1.
        -11    1    4    4    0    0  0.23437184381E-02 -0.24402751388E-01  0.15938722775E-01  0.29245363669E-01  0.51100000000E-03 0. -1.
         11    1    4    4    0    0  0.36064339027E-01 -0.91766658573E-01  0.30592828845E-01  0.10323729206E+00  0.51100000000E-03 0.  1.
</event>
<event>
 8    1  0.5489035E+004  0.1043930E+01  0.7957747E-01            NaN
         13   -1    0    0    0    0  0.00000000000E+00  0.00000000000E+00  0.74505805969E-08  0.10566000000E+00  0.10566000000E+00 0.  1.
     999900   -1    0    0    0    0 -0.00000000000E+00 -0.00000000000E+00 -0.74505805969E-08  0.93827000000E+00  0.93827000000E+00 0. -1.
     999902    2    1    2    0    0  0.13898642406E-01 -0.13118702675E-01 -0.14442543821E-01  0.10199746312E+01  0.10196932817E+01 0.  0.
     999903    2    3    3    0    0 -0.14964461412E-01 -0.96931655362E-01  0.82914699915E-01  0.13017908016E+00  0.21261809277E-01 0.  0.
         14    1    1    2    0    0 -0.13898642406E-01  0.13118702675E-01  0.14442543821E-01  0.23955368764E-01  0.00000000000E+00 0.  1.
     999901    1    3    3    0    0  0.28863103818E-01  0.83812952687E-01 -0.97357243736E-01  0.88979555107E+00  0.88000000000E+00 0. -1.
        -11    1    4    4    0    0 -0.21151660131E-02 -0.74110055026E-01  0.60094382491E-01  0.95437781361E-01  0.51100000000E-03 0.  1.
         11    1    4    4    0    0 -0.12849295399E-01 -0.22821600337E-01  0.22820317423E-01  0.34741298803E-01  0.51100000000E-03 0. -1.
</event>
<event>
 8    1  0.5489035E+004  0.1043930E+01  0.7957747E-01            NaN
         13   -1    0    0    0    0  0.00000000000E+00  0.00000000000E+00  0.74505805969E-08  0.10566000000E+00  0.10566000000E+00 0.  1.
     999900   -1    0    0    0    0 -0.00000000000E+00 -0.00000000000E+00 -0.74505805969E-08  0.93827000000E+00  0.93827000000E+00 0. -1.
     999902    2    1    2    0    0  0.40508252804E-02 -0.39908523412E-02 -0.24323056282E-01  0.10189510658E+01  0.10186448485E+01 0.  0.
     999903    2    3    3    0    0 -0.44701239810E-02 -0.44509741089E-01  0.11688453096E+00  0.12673249972E+00  0.19950785620E-01 0.  0.
         14    1    1    2    0    0 -0.40508252804E-02  0.39908523412E-02  0.24323056282E-01  0.24978934220E-01  0.00000000000E+00 0.  1.
     999901    1    3    3    0    0  0.85209492613E-02  0.40518888748E-01 -0.14120758725E+00  0.89221856606E+00  0.88000000000E+00 0. -1.
        -11    1    4    4    0    0  0.40609739049E-02 -0.24543839530E-01  0.81506250730E-01  0.85219842742E-01  0.51100000000E-03 0.  1.
         11    1    4    4    0    0 -0.85310978859E-02 -0.19965901559E-01  0.35378280235E-01  0.41512656980E-01  0.51100000000E-03 0. -1.
</event>
<event>
 8    1  0.5489035E+004  0.1043930E+01  0.7957747E-01            NaN
         13   -1    0    0    0    0  0.00000000000E+00  0.00000000000E+00  0.74505805969E-08  0.10566000000E+00  0.10566000000E+00 0. -1.
     999900   -1    0    0    0    0 -0.00000000000E+00 -0.00000000000E+00 -0.74505805969E-08  0.93827000000E+00  0.93827000000E+00 0.  1.
     999902    2    1    2    0    0  0.16469975596E-01  0.15183232595E-01 -0.77179742657E-02  0.10202370100E+01  0.10199618614E+01 0.  0.
     999903    2    3    3    0    0 -0.27738997055E-02  0.36564340826E-01 -0.12532222617E+00  0.13194750844E+00  0.18969424679E-01 0.  0.
         14    1    1    2    0    0 -0.16469975596E-01 -0.15183232595E-01  0.77179742657E-02  0.23692989995E-01  0.00000000000E+00 0. -1.
     999901    1    3    3    0    0  0.19243875301E-01 -0.21381108232E-01  0.11760425190E+00  0.88828950157E+00  0.88000000000E+00 0. -1.
        -11    1    4    4    0    0 -0.71231498149E-02  0.18522066003E-01 -0.40326792054E-01  0.44947941784E-01  0.51100000000E-03 0. -1.
         11    1    4    4    0    0  0.43492501094E-02  0.18042274823E-01 -0.84995434112E-01  0.86999566655E-01  0.51100000000E-03 0.  1.
</event>
<event>
 8    1  0.5489035E+004  0.1043930E+01  0.7957747E-01            NaN
         13   -1    0    0    0    0  0.00000000000E+00  0.00000000000E+00  0.74505805969E-08  0.10566000000E+00  0.10566000000E+00 0. -1.
     999900   -1    0    0    0    0 -0.00000000000E+00 -0.00000000000E+00 -0.74505805969E-08  0.93827000000E+00  0.93827000000E+00 0. -1.
     999902    2    1    2    0    0 -0.17668810915E-01  0.11953469737E-01 -0.11115255927E-01  0.10198754530E+01  0.10195917410E+01 0.  0.
     999903    2    3    3    0    0 -0.41819633511E-01 -0.12124053664E+00  0.26186669745E-02  0.12941909459E+00  0.17155032961E-01 0.  0.
         14    1    1    2    0    0  0.17668810915E-01 -0.11953469737E-01  0.11115255927E-01  0.24054547018E-01  0.00000000000E+00 0. -1.
     999901    1    3    3    0    0  0.24150822597E-01  0.13319400638E+00 -0.13733922902E-01  0.89045635839E+00  0.88000000000E+00 0. -1.
        -11    1    4    4    0    0 -0.34058297164E-01 -0.99741964687E-01 -0.44418196320E-02  0.10549131722E+00  0.51100000000E-03 0. -1.
         11    1    4    4    0    0 -0.77613363470E-02 -0.21498571951E-01  0.70604866065E-02  0.23927777372E-01  0.51100000000E-03 0.  1.
</event>
<event>
 8    1  0.5489035E+004  0.1043930E+01  0.7957747E-01            NaN
         13   -1    0    0    0    0  0.00000000000E+00  0.00000000000E+00  0.74505805969E-08  0.10566000000E+00  0.10566000000E+00 0. -1.
     999900   -1    0    0    0    0 -0.00000000000E+00 -0.00000000000E+00 -0.74505805969E-08  0.93827000000E+00  0.93827000000E+00 0.  1.
     999902    2    1    2    0    0 -0.21096522446E-04  0.13527050067E-01  0.19467646368E-01  0.10202240770E+01  0.10199486245E+01 0.  0.
     999903    2    3    3    0    0  0.77514253825E-01  0.39164197261E-01 -0.93356695669E-01  0.12927047217E+00  0.21285874535E-01 0.  0.
         14    1    1    2    0    0  0.21096522446E-04 -0.13527050067E-01 -0.19467646368E-01  0.23705922967E-01  0.00000000000E+00 0. -1.
     999901    1    3    3    0    0 -0.77535350347E-01 -0.25637147194E-01  0.11282434204E+00  0.89095360487E+00  0.88000000000E+00 0. -1.
        -11    1    4    4    0    0  0.52126111746E-01  0.34878539000E-01 -0.57245717297E-01  0.84917473339E-01  0.51100000000E-03 0. -1.
         11    1    4    4    0    0  0.25388142079E-01  0.42856582614E-02 -0.36110978372E-01  0.44352998827E-01  0.51100000000E-03 0.  1.
</event>
<event>
 8    1  0.5489035E+004  0.1043930E+01  0.7957747E-01            NaN
         13   -1    0    0    0    0  0.00000000000E+00  0.00000000000E+00  0.74505805969E-08  0.10566000000E+00  0.10566000000E+00 0.  1.
     999900   -1    0    0    0    0 -0.00000000000E+00 -0.00000000000E+00 -0.74505805969E-08  0.93827000000E+00  0.93827000000E+00 0.  1.
     999902    2    1    2    0    0  0.32183597714E-02 -0.16934569031E-01 -0.13826500021E-01  0.10218322723E+01  0.10215933061E+01 0.  0.
     999903    2    3    3    0    0 -0.10595210818E+00 -0.70317980558E-01  0.31952512989E-01  0.13230222909E+00  0.17676230274E-01 0.  0.
         14    1    1    2    0    0 -0.32183597714E-02  0.16934569031E-01  0.13826500021E-01  0.22097727728E-01  0.00000000000E+00 0.  1.
     999901    1    3    3    0    0  0.10917046795E+00  0.53383411526E-01 -0.45779013011E-01  0.88953004319E+00  0.88000000000E+00 0.  1.
        -11    1    4    4    0    0 -0.82262805792E-01 -0.62711145931E-01  0.27327008109E-01  0.10699010951E+00  0.51100000000E-03 0.  1.
         11    1    4    4    0    0 -0.23689302390E-01 -0.76068346263E-02  0.46255048804E-02  0.25312119571E-01  0.51100000000E-03 0. -1.
</event>
<event>
 8    1  0.5489035E+004  0.1043930E+01  0.7957747E-01            NaN
         13   -1    0    0    0    0  0.00000000000E+00  0.00000000000E+00  0.74505805969E-08  0.10566000000E+00  0.10566000000E+00 0. -1.
     999900   -1    0    0    0    0 -0.00000000000E+00 -0.00000000000E+00 -0.74505805969E-08  0.93827000000E+00  0.93827000000E+00 0.  1.
     999902    2    1    2    0    0 -0.16494683802E-01  0.15478877887E-01 -0.45784172037E-02  0.10208511751E+01  0.10205902653E+01 0.  0.
     999903    2    3    3    0    0 -0.13905281553E-01 -0.19868035247E-02  0.12829708589E+00  0.13070082019E+00  0.20621782365E-01 0.  0.
         14    1    1    2    0    0  0.16494683802E-01 -0.15478877887E-01  0.45784172037E-02  0.23078824893E-01  0.00000000000E+00 0. -1.
     999901    1    3    3    0    0 -0.25894022493E-02  0.17465681412E-01 -0.13287550309E+00  0.89015035491E+00  0.88000000000E+00 0.  1.
        -11    1    4    4    0    0 -0.16633334659E-01  0.10294300330E-04  0.58522948156E-01  0.60842949548E-01  0.51100000000E-03 0.  1.
         11    1    4    4    0    0  0.27280531064E-02 -0.19970978250E-02  0.69774137734E-01  0.69857870645E-01  0.51100000000E-03 0. -1.
</event>
<event>
 8    1  0.5489035E+004  0.1043930E+01  0.7957747E-01            NaN
         13   -1    0    0    0    0  0.00000000000E+00  0.00000000000E+00  0.74505805969E-08  0.10566000000E+00  0.10566000000E+00 0. -1.
     999900   -1    0    0    0    0 -0.00000000000E+00 -0.00000000000E+00 -0.74505805969E-08  0.93827000000E+00  0.93827000000E+00 0. -1.
     999902    2    1    2    0    0  0.11320671418E-01 -0.10334449023E-01  0.18525270203E-01  0.10198853733E+01  0.10196018981E+01 0.  0.
     999903    2    3    3    0    0 -0.59834087116E-01  0.46195101940E-01 -0.10039730840E+00  0.12724817402E+00  0.19959279398E-01 0.  0.
         14    1    1    2    0    0 -0.11320671418E-01  0.10334449023E-01 -0.18525270203E-01  0.24044626719E-01  0.00000000000E+00 0.  1.
     999901    1    3    3    0    0  0.71154758533E-01 -0.56529550963E-01  0.11892257860E+00  0.89263719926E+00  0.88000000000E+00 0.  1.
        -11    1    4    4    0    0 -0.22298058827E-01  0.15614980434E-01 -0.52508351779E-01  0.59147435861E-01  0.51100000000E-03 0. -1.
         11    1    4    4    0    0 -0.37536028289E-01  0.30580121506E-01 -0.47888956623E-01  0.68100738163E-01  0.51100000000E-03 0.  1.
</event>
<event>
 8    1  0.5489035E+004  0.1043930E+01  0.7957747E-01            NaN
         13   -1    0    0    0    0  0.00000000000E+00  0.00000000000E+00  0.74505805969E-08  0.10566000000E+00  0.10566000000E+00 0. -1.
     999900   -1    0    0    0    0 -0.00000000000E+00 -0.00000000000E+00 -0.74505805969E-08  0.93827000000E+00  0.93827000000E+00 0.  1.
     999902    2    1    2    0    0 -0.13386419225E-02  0.17757347993E-01 -0.15409169349E-01  0.10203809476E+01  0.10201091708E+01 0.  0.
     999903    2    3    3    0    0 -0.44930363054E-01  0.97170758285E-02 -0.12298080359E+00  0.13272305141E+00  0.19441482392E-01 0.  0.
         14    1    1    2    0    0  0.13386419225E-02 -0.17757347993E-01  0.15409169349E-01  0.23549052422E-01  0.00000000000E+00 0.  1.
     999901    1    3    3    0    0  0.43591721131E-01  0.80402721650E-02  0.10757163424E+00  0.88765789616E+00  0.88000000000E+00 0. -1.
        -11    1    4    4    0    0 -0.20459769776E-01 -0.52988035573E-02 -0.49082356874E-01  0.53441728787E-01  0.51100000000E-03 0.  1.
         11    1    4    4    0    0 -0.24470593278E-01  0.15015879386E-01 -0.73898446718E-01  0.79281322627E-01  0.51100000000E-03 0. -1.
</event>
<event>
 8    1  0.5489035E+004  0.1043930E+01  0.7957747E-01            NaN
         13   -1    0    0    0    0  0.00000000000E+00  0.00000000000E+00  0.74505805969E-08  0.10566000000E+00  0.10566000000E+00 0. -1.
     999900   -1    0    0    0    0 -0.00000000000E+00 -0.00000000000E+00 -0.74505805969E-08  0.93827000000E+00  0.93827000000E+00 0. -1.
     999902    2    1    2    0    0  0.14301604509E-01  0.45032087774E-02 -0.18218683397E-01  0.10203347631E+01  0.10200619067E+01 0.  0.
     999903    2    3    3    0    0  0.84918751641E-01  0.97072272381E-01 -0.23690409425E-01  0.13264914711E+00  0.20008505310E-01 0.  0.
         14    1    1    2    0    0 -0.14301604509E-01 -0.45032087774E-02  0.18218683397E-01  0.23595236925E-01  0.00000000000E+00 0. -1.
     999901    1    3    3    0    0 -0.70617147131E-01 -0.92569063604E-01  0.54717260280E-02  0.88768561597E+00  0.88000000000E+00 0.  1.
        -11    1    4    4    0    0  0.43926735198E-01  0.56460296217E-01 -0.22279170755E-01  0.74926268322E-01  0.51100000000E-03 0. -1.
         11    1    4    4    0    0  0.40992016443E-01  0.40611976164E-01 -0.14112386698E-02  0.57722878788E-01  0.51100000000E-03 0.  1.
</event>
<event>
 8    1  0.5489035E+004  0.1043930E+01  0.7957747E-01            NaN
         13   -1    0    0    0    0  0.00000000000E+00  0.00000000000E+00  0.74505805969E-08  0.10566000000E+00  0.10566000000E+00 0. -1.
     999900   -1    0    0    0    0 -0.00000000000E+00 -0.00000000000E+00 -0.74505805969E-08  0.93827000000E+00  0.93827000000E+00 0. -1.
     999902    2    1    2    0    0 -0.12617820399E-01  0.16311428399E-01 -0.12231948819E-01  0.10199530807E+01  0.10196712186E+01 0.  0.
     999903    2    3    3    0    0 -0.53987174916E-02  0.12125890816E+00  0.46923850430E-01  0.13171578269E+00  0.20355115114E-01 0.  0.
         14    1    1    2    0    0  0.12617820399E-01 -0.16311428399E-01  0.12231948819E-01  0.23976919317E-01  0.00000000000E+00 0. -1.
     999901    1    3    3    0    0 -0.72191029072E-02 -0.10494747977E+00 -0.59155799249E-01  0.88823729799E+00  0.88000000000E+00 0. -1.
        -11    1    4    4    0    0  0.67100096558E-02  0.30806878803E-01  0.82177956618E-02  0.32586520184E-01  0.51100000000E-03 0. -1.
         11    1    4    4    0    0 -0.12108727147E-01  0.90452029362E-01  0.38706054768E-01  0.99129262509E-01  0.51100000000E-03 0.  1.
</event>
<event>
 8    1  0.5489035E+004  0.1043930E+01  0.7957747E-01            NaN
         13   -1    0    0    0    0  0.00000000000E+00  0.00000000000E+00  0.74505805969E-08  0.10566000000E+00  0.10566000000E+00 0. -1.
     999900   -1    0    0    0    0 -0.00000000000E+00 -0.00000000000E+00 -0.74505805969E-08  0.93827000000E+00  0.93827000000E+00 0. -1.
     999902    2    1    2    0    0 -0.93520965872E-02 -0.95630458006E-03  0.21859039947E-01  0.10201351716E+01  0.10198576247E+01 0.  0.
     999903    2    3    3    0    0 -0.52672136829E-01  0.89424982444E-01  0.79881145527E-01  0.13254744772E+00  0.20411932843E-01 0.  0.
         14    1    1    2    0    0  0.93520965872E-02  0.95630458006E-03 -0.21859039947E-01  0.23794828355E-01  0.00000000000E+00 0. -1.
     999901    1    3    3    0    0  0.43320040242E-01 -0.90381287024E-01 -0.58022105580E-01  0.88758772393E+00  0.88000000000E+00 0. -1.
        -11    1    4    4    0    0 -0.25465847050E-01  0.41147087504E-01  0.50012577828E-01  0.69592465383E-01  0.51100000000E-03 0. -1.
         11    1    4    4    0    0 -0.27206289779E-01  0.48277894939E-01  0.29868567700E-01  0.62954982335E-01  0.51100000000E-03 0.  1.
</event>
<event>
 8    1  0.5489035E+004  0.1043930E+01  0.7957747E-01            NaN
         13   -1    0    0    0    0  0.00000000000E+00  0.00000000000E+00  0.74505805969E-08  0.10566000000E+00  0.10566000000E+00 0.  1.
     999900   -1    0    0    0    0 -0.00000000000E+00 -0.00000000000E+00 -0.74505805969E-08  0.93827000000E+00  0.93827000000E+00 0. -1.
     999902    2    1    2    0    0 -0.74669704928E-03 -0.22604580333E-01  0.24197922165E-02  0.10211840113E+01  0.10209306563E+01 0.  0.
     999903    2    3    3    0    0  0.12372596400E+00 -0.41247141716E-01  0.86367377074E-02  0.13220727432E+00  0.19867794959E-01 0.  0.
         14    1    1    2    0    0  0.74669704928E-03  0.22604580333E-01 -0.24197922165E-02  0.22745988721E-01  0.00000000000E+00 0.  1.
     999901    1    3    3    0    0 -0.12447266105E+00  0.18642561383E-01 -0.62169454909E-02  0.88897673696E+00  0.88000000000E+00 0.  1.
        -11    1    4    4    0    0  0.68793423865E-01 -0.21519952840E-01  0.14558378564E-01  0.73538092474E-01  0.51100000000E-03 0.  1.
         11    1    4    4    0    0  0.54932540138E-01 -0.19727188876E-01 -0.59216408570E-02  0.58669181846E-01  0.51100000000E-03 0. -1.
</event>
<event>
 8    1  0.5489035E+004  0.1043930E+01  0.7957747E-01            NaN
         13   -1    0    0    0    0  0.00000000000E+00  0.00000000000E+00  0.74505805969E-08  0.10566000000E+00  0.10566000000E+00 0. -1.
     999900   -1    0    0    0    0 -0.00000000000E+00 -0.00000000000E+00 -0.74505805969E-08  0.93827000000E+00  0.93827000000E+00 0. -1.
     999902    2    1    2    0    0 -0.20897124886E-01  0.10122375375E-01 -0.12190735337E-02  0.10206783667E+01  0.10204134896E+01 0.  0.
     999903    2    3    3    0    0  0.60143939326E-01  0.10304297314E+00  0.49281613314E-01  0.13064903517E+00  0.20133187263E-01 0.  0.
         14    1    1    2    0    0  0.20897124886E-01 -0.10122375375E-01  0.12190735337E-02  0.23251633319E-01  0.00000000000E+00 0. -1.
     999901    1    3    3    0    0 -0.81041064212E-01 -0.92920597763E-01 -0.50500686848E-01  0.89002933151E+00  0.88000000000E+00 0. -1.
        -11    1    4    4    0    0  0.39416344724E-01  0.83153300289E-01  0.33979709294E-01  0.98096897734E-01  0.51100000000E-03 0. -1.
         11    1    4    4    0    0  0.20727594601E-01  0.19889672848E-01  0.15301904021E-01  0.32552137436E-01  0.51100000000E-03 0.  1.
</event>
<event>
 8    1  0.5489035E+004  0.1043930E+01  0.7957747E-01            NaN
         13   -1    0    0    0    0  0.00000000000E+00  0.00000000000E+00  0.74505805969E-08  0.10566000000E+00  0.10566000000E+00 0.  1.
     999900   -1    0    0    0    0 -0.00000000000E+00 -0.00000000000E+00 -0.74505805969E-08  0.93827000000E+00  0.93827000000E+00 0.  1.
     999902    2    1    2    0    0 -0.98900337386E-02  0.18685188870E-01 -0.82306354312E-02  0.10212431666E+01  0.10209911424E+01 0.  0.
     999903    2    3    3    0    0 -0.44900442738E-01  0.12176917749E+00  0.25626099152E-01  0.13388849346E+00  0.20631271898E-01 0.  0.
         14    1    1    2    0    0  0.98900337386E-02 -0.18685188870E-01  0.82306354312E-02  0.22686833407E-01  0.00000000000E+00 0.  1.
     999901    1    3    3    0    0  0.35010408999E-01 -0.10308398862E+00 -0.33856734583E-01  0.88735467313E+00  0.88000000000E+00 0.  1.
        -11    1    4    4    0    0 -0.10433204285E-01  0.10060752983E-01  0.24875390475E-02  0.14714600700E-01  0.51100000000E-03 0.  1.
         11    1    4    4    0    0 -0.34467238453E-01  0.11170842450E+00  0.23138560104E-01  0.11917389276E+00  0.51100000000E-03 0. -1.
</event>
<event>
 8    1  0.5489035E+004  0.1043930E+01  0.7957747E-01            NaN
         13   -1    0    0    0    0  0.00000000000E+00  0.00000000000E+00  0.74505805969E-08  0.10566000000E+00  0.10566000000E+00 0. -1.
     999900   -1    0    0    0    0 -0.00000000000E+00 -0.00000000000E+00 -0.74505805969E-08  0.93827000000E+00  0.93827000000E+00 0.  1.
     999902    2    1    2    0    0  0.14315231744E-01 -0.15134814009E-01  0.12488346927E-01  0.10196411700E+01  0.10193518373E+01 0.  0.
     999903    2    3    3    0    0 -0.94178259388E-01  0.65290287399E-01  0.54289499152E-01  0.12835761752E+00  0.19898796113E-01 0.  0.
         14    1    1    2    0    0 -0.14315231744E-01  0.15134814009E-01 -0.12488346927E-01  0.24288830024E-01  0.00000000000E+00 0.  1.
     999901    1    3    3    0    0  0.10849349113E+00 -0.80425101408E-01 -0.41801152224E-01  0.89128355246E+00  0.88000000000E+00 0. -1.
        -11    1    4    4    0    0 -0.75571887409E-01  0.50412889039E-01  0.51336565370E-01  0.10434689077E+00  0.51100000000E-03 0. -1.
         11    1    4    4    0    0 -0.18606371980E-01  0.14877398360E-01  0.29529337820E-02  0.24010726751E-01  0.51100000000E-03 0.  1.
</event>
<event>
 8    1  0.5489035E+004  0.1043930E+01  0.7957747E-01            NaN
         13   -1    0    0    0    0  0.00000000000E+00  0.00000000000E+00  0.74505805969E-08  0.10566000000E+00  0.10566000000E+00 0. -1.
     999900   -1    0    0    0    0 -0.00000000000E+00 -0.00000000000E+00 -0.74505805969E-08  0.93827000000E+00  0.93827000000E+00 0. -1.
     999902    2    1    2    0    0 -0.14352185962E-01  0.94368525326E-02 -0.16059812368E-01  0.10204149622E+01  0.10201439791E+01 0.  0.
     999903    2    3    3    0    0 -0.27439301772E-01  0.59566865062E-01 -0.11456381551E+00  0.13340463006E+00  0.19256188667E-01 0.  0.
         14    1    1    2    0    0  0.14352185962E-01 -0.94368525326E-02  0.16059812368E-01  0.23515037762E-01  0.00000000000E+00 0. -1.
     999901    1    3    3    0    0  0.13087115810E-01 -0.50130012530E-01  0.98504003142E-01  0.88701033218E+00  0.88000000000E+00 0.  1.
        -11    1    4    4    0    0 -0.17325161979E-01  0.47963444429E-01 -0.99771393507E-01  0.11205019109E+00  0.51100000000E-03 0. -1.
         11    1    4    4    0    0 -0.10114139793E-01  0.11603420634E-01 -0.14792422003E-01  0.21354438974E-01  0.51100000000E-03 0.  1.
</event>
<event>
 8    1  0.5489035E+004  0.1043930E+01  0.7957747E-01            NaN
         13   -1    0    0    0    0  0.00000000000E+00  0.00000000000E+00  0.74505805969E-08  0.10566000000E+00  0.10566000000E+00 0.  1.
     999900   -1    0    0    0    0 -0.00000000000E+00 -0.00000000000E+00 -0.74505805969E-08  0.93827000000E+00  0.93827000000E+00 0. -1.
     999902    2    1    2    0    0  0.10759048988E-01 -0.87807207529E-02 -0.18696711227E-01  0.10206399763E+01  0.10203742137E+01 0.  0.
     999903    2    3    3    0    0  0.25323152768E-01 -0.11750973143E+00  0.48512728661E-01  0.13128559269E+00  0.20799590377E-01 0.  0.
         14    1    1    2    0    0 -0.10759048988E-01  0.87807207529E-02  0.18696711227E-01  0.23290023674E-01  0.00000000000E+00 0.  1.
     999901    1    3    3    0    0 -0.14564103780E-01  0.10872901067E+00 -0.67209439888E-01  0.88935438364E+00  0.88000000000E+00 0. -1.
        -11    1    4    4    0    0  0.21464639611E-01 -0.99359465600E-01  0.48712092771E-01  0.11272161843E+00  0.51100000000E-03 0.  1.
         11    1    4    4    0    0  0.38585131565E-02 -0.18150265827E-01 -0.19936410983E-03  0.18563974262E-01  0.51100000000E-03 0. -1.
</event>
<event>
 8    1  0.5489035E+004  0.1043930E+01  0.7957747E-01            NaN
         13   -1    0    0    0    0  0.00000000000E+00  0.00000000000E+00  0.74505805969E-08  0.10566000000E+00  0.10566000000E+00 0. -1.
     999900   -1    0    0    0    0 -0.00000000000E+00 -0.00000000000E+00 -0.74505805969E-08  0.93827000000E+00  0.93827000000E+00 0.  1.
     999902    2    1    2    0    0 -0.14170232802E-01  0.82416604917E-02 -0.15621003414E-01  0.10212863207E+01  0.10210352651E+01 0.  0.
     999903    2    3    3    0    0  0.40866841913E-01 -0.21332861101E-01 -0.12344617938E+00  0.13250625762E+00  0.13919747625E-01 0.  0.
         14    1    1    2    0    0  0.14170232802E-01 -0.82416604917E-02  0.15621003414E-01  0.22643679317E-01  0.00000000000E+00 0. -1.
     999901    1    3    3    0    0 -0.55037074715E-01  0.29574521593E-01  0.10782517597E+00  0.88878006306E+00  0.88000000000E+00 0. -1.
        -11    1    4    4    0    0  0.15373082646E-01 -0.20514120643E-02 -0.51277749580E-01  0.53574328596E-01  0.51100000000E-03 0. -1.
         11    1    4    4    0    0  0.25493759267E-01 -0.19281449037E-01 -0.72168429804E-01  0.78931929027E-01  0.51100000000E-03 0.  1.
</event>
<event>
 8    1  0.5489035E+004  0.1043930E+01  0.7957747E-01            NaN
         13   -1    0    0    0    0  0.00000000000E+00  0.00000000000E+00  0.74505805969E-08  0.10566000000E+00  0.10566000000E+00 0.  1.
     999900   -1    0    0    0    0 -0.00000000000E+00 -0.00000000000E+00 -0.74505805969E-08  0.93827000000E+00  0.93827000000E+00 0.  1.
     999902    2    1    2    0    0 -0.23801989894E-01  0.48549285120E-03 -0.28160309018E-02  0.10199570891E+01  0.10196753224E+01 0.  0.
     999903    2    3    3    0    0 -0.49885625815E-01  0.10220327012E+00 -0.63229426257E-01  0.13165722949E+00  0.20039502131E-01 0.  0.
         14    1    1    2    0    0  0.23801989894E-01 -0.48549285120E-03  0.28160309018E-02  0.23972910884E-01  0.00000000000E+00 0.  1.
     999901    1    3    3    0    0  0.26083635921E-01 -0.10171777727E+00  0.60413395356E-01  0.88829985963E+00  0.88000000000E+00 0. -1.
        -11    1    4    4    0    0 -0.43868958463E-01  0.86565485737E-01 -0.61291906724E-01  0.11478252388E+00  0.51100000000E-03 0.  1.
         11    1    4    4    0    0 -0.60166673524E-02  0.15637784382E-01 -0.19375195334E-02  0.16874705608E-01  0.51100000000E-03 0. -1.
</event>
<event>
 8    1  0.5489035E+004  0.1043930E+01  0.7957747E-01            NaN
         13   -1    0    0    0    0  0.00000000000E+00  0.00000000000E+00  0.74505805969E-08  0.10566000000E+00  0.10566000000E+00 0.  1.
     999900   -1    0    0    0    0 -0.00000000000E+00 -0.00000000000E+00 -0.74505805969E-08  0.93827000000E+00  0.93827000000E+00 0. -1.
     999902    2    1    2    0    0 -0.19453172582E-01  0.21614487208E-02 -0.16434155136E-01  0.10183726285E+01  0.10180518804E+01 0.  0.
     999903    2    3    3    0    0  0.10862501839E+00 -0.22901012621E-01  0.55888959803E-01  0.12581294816E+00  0.19531285109E-01 0.  0.
         14    1    1    2    0    0  0.19453172582E-01 -0.21614487208E-02  0.16434155136E-01  0.25557371521E-01  0.00000000000E+00 0.  1.
     999901    1    3    3    0    0 -0.12807819097E+00  0.25062461341E-01 -0.72323114939E-01  0.89255968032E+00  0.88000000000E+00 0. -1.
        -11    1    4    4    0    0  0.86011618527E-01 -0.14840823812E-01  0.51674506514E-01  0.10143354631E+00  0.51100000000E-03 0. -1.
         11    1    4    4    0    0  0.22613399864E-01 -0.80601888086E-02  0.42144532887E-02  0.24379401850E-01  0.51100000000E-03 0.  1.
</event>
<event>
 8    1  0.5489035E+004  0.1043930E+01  0.7957747E-01            NaN
         13   -1    0    0    0    0  0.00000000000E+00  0.00000000000E+00  0.74505805969E-08  0.10566000000E+00  0.10566000000E+00 0.  1.
     999900   -1    0    0    0    0 -0.00000000000E+00 -0.00000000000E+00 -0.74505805969E-08  0.93827000000E+00  0.93827000000E+00 0. -1.
     999902    2    1    2    0    0 -0.21605885952E-01  0.12996926437E-01  0.18317367575E-02  0.10186497772E+01  0.10183360344E+01 0.  0.
     999903    2    3    3    0    0 -0.15191515009E-01 -0.12478058221E+00  0.11540877548E-01  0.12785347420E+00  0.20306235168E-01 0.  0.
         14    1    1    2    0    0  0.21605885952E-01 -0.12996926437E-01 -0.18317367575E-02  0.25280222787E-01  0.00000000000E+00 0.  1.
     999901    1    3    3    0    0 -0.64143709436E-02  0.13777750864E+00 -0.97091407901E-02  0.89079630301E+00  0.88000000000E+00 0.  1.
        -11    1    4    4    0    0 -0.15474471547E-01 -0.78487440302E-01  0.15128408685E-01  0.81417856918E-01  0.51100000000E-03 0. -1.
         11    1    4    4    0    0  0.28295653828E-03 -0.46293141906E-01 -0.35875311372E-02  0.46435617284E-01  0.51100000000E-03 0.  1.
</event>
<event>
 8    1  0.5489035E+004  0.1043930E+01  0.7957747E-01            NaN
         13   -1    0    0    0    0  0.00000000000E+00  0.00000000000E+00  0.74505805969E-08  0.10566000000E+00  0.10566000000E+00 0. -1.
     999900   -1    0    0    0    0 -0.00000000000E+00 -0.00000000000E+00 -0.74505805969E-08  0.93827000000E+00  0.93827000000E+00 0. -1.
     999902    2    1    2    0    0 -0.14263558071E-01 -0.94251104408E-02  0.17533800216E-01  0.10194409015E+01  0.10191467194E+01 0.  0.
     999903    2    3    3    0    0  0.15478309546E-01  0.64689995499E-01  0.11114285227E+00  0.13088010884E+00  0.18774868727E-01 0.  0.
         14    1    1    2    0    0  0.14263558071E-01  0.94251104408E-02 -0.17533800216E-01  0.24489098506E-01  0.00000000000E+00 0.  1.
     999901    1    3    3    0    0 -0.29741867616E-01 -0.74115105940E-01 -0.93609052051E-01  0.88856079265E+00  0.88000000000E+00 0. -1.
        -11    1    4    4    0    0  0.14299670439E-01  0.48896150201E-01  0.68356083493E-01  0.85253324572E-01  0.51100000000E-03 0. -1.
         11    1    4    4    0    0  0.11786391070E-02  0.15793845298E-01  0.42786768773E-01  0.45626784266E-01  0.51100000000E-03 0.  1.
</event>
<event>
 8    1  0.5489035E+004  0.1043930E+01  0.7957747E-01            NaN
         13   -1    0    0    0    0  0.00000000000E+00  0.00000000000E+00  0.74505805969E-08  0.10566000000E+00  0.10566000000E+00 0. -1.
     999900   -1    0    0    0    0 -0.00000000000E+00 -0.00000000000E+00 -0.74505805969E-08  0.93827000000E+00  0.93827000000E+00 0. -1.
     999902    2    1    2    0    0 -0.10340268311E-01  0.61119323381E-02  0.19786504668E-01  0.10207830211E+01  0.10205205503E+01 0.  0.
     999903    2    3    3    0    0 -0.96597781379E-01 -0.52455928482E-01  0.72264249119E-01  0.13307559939E+00  0.20105662177E-01 0.  0.
         14    1    1    2    0    0  0.10340268311E-01 -0.61119323381E-02 -0.19786504668E-01  0.23146978910E-01  0.00000000000E+00 0.  1.
     999901    1    3    3    0    0  0.86257513069E-01  0.58567860820E-01 -0.52477744451E-01  0.88770742170E+00  0.88000000000E+00 0. -1.
        -11    1    4    4    0    0 -0.88764613022E-01 -0.42041788520E-01  0.67563295344E-01  0.11921295444E+00  0.51100000000E-03 0. -1.
         11    1    4    4    0    0 -0.78331683575E-02 -0.10414139962E-01  0.47009537754E-02  0.13862644952E-01  0.51100000000E-03 0.  1.
</event>
<event>
 8    1  0.5489035E+004  0.1043930E+01  0.7957747E-01            NaN
         13   -1    0    0    0    0  0.00000000000E+00  0.00000000000E+00  0.74505805969E-08  0.10566000000E+00  0.10566000000E+00 0. -1.
     999900   -1    0    0    0    0 -0.00000000000E+00 -0.00000000000E+00 -0.74505805969E-08  0.93827000000E+00  0.93827000000E+00 0.  1.
     999902    2    1    2    0    0  0.10336791845E-02 -0.14163499111E-01  0.20218212291E-01  0.10192227276E+01  0.10189232156E+01 0.  0.
     999903    2    3    3    0    0  0.59084017989E-01 -0.36011355358E-01  0.11126759268E+00  0.13235342479E+00  0.18687241008E-01 0.  0.
         14    1    1    2    0    0 -0.10336791845E-02  0.14163499111E-01 -0.20218212291E-01  0.24707272370E-01  0.00000000000E+00 0.  1.
     999901    1    3    3    0    0 -0.58050338804E-01  0.21847856247E-01 -0.91049380384E-01  0.88686930284E+00  0.88000000000E+00 0.  1.
        -11    1    4    4    0    0  0.50487848804E-01 -0.37326512983E-01  0.10051367780E+00  0.11851393165E+00  0.51100000000E-03 0. -1.
         11    1    4    4    0    0  0.85961691848E-02  0.13151576247E-02  0.10753914873E-01  0.13839493138E-01  0.51100000000E-03 0.  1.
</event>
<event>
 8    1  0.5489035E+004  0.1043930E+01  0.7957747E-01            NaN
         13   -1    0    0    0    0  0.00000000000E+00  0.00000000000E+00  0.74505805969E-08  0.10566000000E+00  0.10566000000E+00 0. -1.
     999900   -1    0    0    0    0 -0.00000000000E+00 -0.00000000000E+00 -0.74505805969E-08  0.93827000000E+00  0.93827000000E+00 0.  1.
     999902    2    1    2    0    0 -0.60775351821E-02 -0.22786510569E-01 -0.15607017623E-01  0.10156503165E+01  0.10152565316E+01 0.  0.
     999903    2    3    3    0    0  0.10389155579E+00 -0.47501613686E-01 -0.53426288170E-01  0.12765575883E+00  0.19793075230E-01 0.  0.
         14    1    1    2    0    0  0.60775351821E-02  0.22786510569E-01  0.15607017623E-01  0.28279683465E-01  0.00000000000E+00 0.  1.
     999901    1    3    3    0    0 -0.10996909097E+00  0.24715103117E-01  0.37819270547E-01  0.88799455771E+00  0.88000000000E+00 0. -1.
        -11    1    4    4    0    0  0.41140745381E-01 -0.29496507279E-01 -0.21934024427E-01  0.55172161647E-01  0.51100000000E-03 0. -1.
         11    1    4    4    0    0  0.62750810410E-01 -0.18005106407E-01 -0.31492263743E-01  0.72483597182E-01  0.51100000000E-03 0.  1.
</event>
<event>
 8    1  0.5489035E+004  0.1043930E+01  0.7957747E-01            NaN
         13   -1    0    0    0    0  0.00000000000E+00  0.00000000000E+00  0.74505805969E-08  0.10566000000E+00  0.10566000000E+00 0.  1.
     999900   -1    0    0    0    0 -0.00000000000E+00 -0.00000000000E+00 -0.74505805969E-08  0.93827000000E+00  0.93827000000E+00 0. -1.
     999902    2    1    2    0    0 -0.32137769387E-02 -0.36973257712E-02  0.22653273140E-01  0.10207530855E+01  0.10204899276E+01 0.  0.
     999903    2    3    3    0    0 -0.70380985293E-01 -0.44017243907E-01 -0.96953324258E-01  0.12921348024E+00  0.20128972611E-01 0.  0.
         14    1    1    2    0    0  0.32137769387E-02  0.36973257712E-02 -0.22653273140E-01  0.23176914463E-01  0.00000000000E+00 0. -1.
     999901    1    3    3    0    0  0.67167208354E-01  0.40319918136E-01  0.11960659740E+00  0.89153960530E+00  0.88000000000E+00 0.  1.
        -11    1    4    4    0    0 -0.48989293043E-01 -0.31309008175E-01 -0.80797104480E-01  0.99542142026E-01  0.51100000000E-03 0.  1.
         11    1    4    4    0    0 -0.21391692250E-01 -0.12708235733E-01 -0.16156219778E-01  0.29671338211E-01  0.51100000000E-03 0. -1.
</event>
<event>
 8    1  0.5489035E+004  0.1043930E+01  0.7957747E-01            NaN
         13   -1    0    0    0    0  0.00000000000E+00  0.00000000000E+00  0.74505805969E-08  0.10566000000E+00  0.10566000000E+00 0. -1.
     999900   -1    0    0    0    0 -0.00000000000E+00 -0.00000000000E+00 -0.74505805969E-08  0.93827000000E+00  0.93827000000E+00 0.  1.
     999902    2    1    2    0    0  0.16193029315E-01  0.16332456861E-01  0.11445398818E-01  0.10182403036E+01  0.10179161829E+01 0.  0.
     999903    2    3    3    0    0  0.21514231336E-01 -0.95158143680E-01 -0.78181541423E-01  0.12667344825E+00  0.20393004013E-01 0.  0.
         14    1    1    2    0    0 -0.16193029315E-01 -0.16332456861E-01 -0.11445398818E-01  0.25689696371E-01  0.00000000000E+00 0. -1.
     999901    1    3    3    0    0 -0.53212020205E-02  0.11149060054E+00  0.89626940241E-01  0.89156685538E+00  0.88000000000E+00 0. -1.
        -11    1    4    4    0    0  0.76044214088E-02 -0.92279652730E-02 -0.50862792820E-02  0.13004381030E-01  0.51100000000E-03 0.  1.
         11    1    4    4    0    0  0.13909809927E-01 -0.85930178407E-01 -0.73095262141E-01  0.11366906722E+00  0.51100000000E-03 0. -1.
</event>
<event>
 8    1  0.5489035E+004  0.1043930E+01  0.7957747E-01            NaN
         13   -1    0    0    0    0  0.00000000000E+00  0.00000000000E+00  0.74505805969E-08  0.10566000000E+00  0.10566000000E+00 0.  1.
     999900   -1    0    0    0    0 -0.00000000000E+00 -0.00000000000E+00 -0.74505805969E-08  0.93827000000E+00  0.93827000000E+00 0. -1.
     999902    2    1    2    0    0  0.13999688679E-01  0.91227560046E-02  0.17007767211E-01  0.10200871792E+01  0.10198084982E+01 0.  0.
     999903    2    3    3    0    0 -0.85679737443E-01 -0.36966744624E-01  0.88947617083E-01  0.13034813199E+00  0.19271723107E-01 0.  0.
         14    1    1    2    0    0 -0.13999688679E-01 -0.91227560046E-02 -0.17007767211E-01  0.23842820842E-01  0.00000000000E+00 0. -1.
     999901    1    3    3    0    0  0.99679426121E-01  0.46089500629E-01 -0.71939849873E-01  0.88973904717E+00  0.88000000000E+00 0. -1.
        -11    1    4    4    0    0 -0.59684751525E-01 -0.23053572589E-01  0.48481534251E-01  0.80277375755E-01  0.51100000000E-03 0. -1.
         11    1    4    4    0    0 -0.25994985917E-01 -0.13913172035E-01  0.40466082832E-01  0.50070756233E-01  0.51100000000E-03 0.  1.
</event>
<event>
 8    1  0.5489035E+004  0.1043930E+01  0.7957747E-01            NaN
         13   -1    0    0    0    0  0.00000000000E+00  0.00000000000E+00  0.74505805969E-08  0.10566000000E+00  0.10566000000E+00 0.  1.
     999900   -1    0    0    0    0 -0.00000000000E+00 -0.00000000000E+00 -0.74505805969E-08  0.93827000000E+00  0.93827000000E+00 0. -1.
     999902    2    1    2    0    0  0.99162402298E-02 -0.43333119938E-02 -0.19278253291E-01  0.10218220724E+01  0.10215828832E+01 0.  0.
     999903    2    3    3    0    0 -0.41363976199E-01  0.10838687714E+00  0.54952904945E-01  0.13005653903E+00  0.20885112389E-01 0.  0.
         14    1    1    2    0    0 -0.99162402298E-02  0.43333119938E-02  0.19278253291E-01  0.22107927607E-01  0.00000000000E+00 0.  1.
     999901    1    3    3    0    0  0.51280216428E-01 -0.11272018914E+00 -0.74231158236E-01  0.89176553336E+00  0.88000000000E+00 0. -1.
        -11    1    4    4    0    0 -0.92110660959E-02  0.19269065829E-01  0.19417826512E-01  0.28869598958E-01  0.51100000000E-03 0. -1.
         11    1    4    4    0    0 -0.32152910103E-01  0.89117811314E-01  0.35535078433E-01  0.10118694007E+00  0.51100000000E-03 0.  1.
</event>
<event>
 8    1  0.5489035E+004  0.1043930E+01  0.7957747E-01            NaN
         13   -1    0    0    0    0  0.00000000000E+00  0.00000000000E+00  0.74505805969E-08  0.10566000000E+00  0.10566000000E+00 0. -1.
     999900   -1    0    0    0    0 -0.00000000000E+00 -0.00000000000E+00 -0.74505805969E-08  0.93827000000E+00  0.93827000000E+00 0.  1.
     999902    2    1    2    0    0  0.22994236819E-01 -0.38441638094E-02 -0.43397342780E-02  0.10202161683E+01  0.10199405297E+01 0.  0.
     999903    2    3    3    0    0  0.58594060969E-01 -0.99555988997E-01 -0.61678889008E-01  0.13245725976E+00  0.19899281057E-01 0.  0.
         14    1    1    2    0    0 -0.22994236819E-01  0.38441638094E-02  0.43397342780E-02  0.23713831742E-01  0.00000000000E+00 0. -1.
     999901    1    3    3    0    0 -0.35599824150E-01  0.95711825188E-01  0.57339154730E-01  0.88775890850E+00  0.88000000000E+00 0. -1.
        -11    1    4    4    0    0  0.13560153004E-01 -0.23408186852E-01 -0.53595805700E-02  0.27582733477E-01  0.51100000000E-03 0.  1.
         11    1    4    4    0    0  0.45033907966E-01 -0.76147802145E-01 -0.56319308438E-01  0.10487452628E+00  0.51100000000E-03 0. -1.
</event>
<event>
 8    1  0.5489035E+004  0.1043930E+01  0.7957747E-01            NaN
         13   -1    0    0    0    0  0.00000000000E+00  0.00000000000E+00  0.74505805969E-08  0.10566000000E+00  0.10566000000E+00 0. -1.
     999900   -1    0    0    0    0 -0.00000000000E+00 -0.00000000000E+00 -0.74505805969E-08  0.93827000000E+00  0.93827000000E+00 0.  1.
     999902    2    1    2    0    0  0.12728030137E-02  0.18620263417E-01  0.13139419545E-01  0.10211050447E+01  0.10208499076E+01 0.  0.
     999903    2    3    3    0    0  0.55958427187E-01  0.11670601807E+00 -0.24581728010E-01  0.13316686122E+00  0.19429651296E-01 0.  0.
         14    1    1    2    0    0 -0.12728030137E-02 -0.18620263417E-01 -0.13139419545E-01  0.22824955273E-01  0.00000000000E+00 0.  1.
     999901    1    3    3    0    0 -0.54685624174E-01 -0.98085754648E-01  0.37721147555E-01  0.88793818351E+00  0.88000000000E+00 0. -1.
        -11    1    4    4    0    0  0.40092733617E-01  0.64980256517E-01 -0.91434804373E-02  0.76900750200E-01  0.51100000000E-03 0.  1.
         11    1    4    4    0    0  0.15865693571E-01  0.51725761548E-01 -0.15438247573E-01  0.56266111020E-01  0.51100000000E-03 0. -1.
</event>
<event>
 8    1  0.5489035E+004  0.1043930E+01  0.7957747E-01            NaN
         13   -1    0    0    0    0  0.00000000000E+00  0.00000000000E+00  0.74505805969E-08  0.10566000000E+00  0.10566000000E+00 0. -1.
     999900   -1    0    0    0    0 -0.00000000000E+00 -0.00000000000E+00 -0.74505805969E-08  0.93827000000E+00  0.93827000000E+00 0. -1.
     999902    2    1    2    0    0  0.17499917872E-01 -0.16032907711E-01  0.26203874611E-02  0.10200518157E+01  0.10197722976E+01 0.  0.
     999903    2    3    3    0    0 -0.37301093261E-02 -0.62426341508E-01  0.11394782791E+00  0.13157172940E+00  0.20397319933E-01 0.  0.
         14    1    1    2    0    0 -0.17499917872E-01  0.16032907711E-01 -0.26203874611E-02  0.23878184304E-01  0.00000000000E+00 0.  1.
     999901    1    3    3    0    0  0.21230027198E-01  0.46393433797E-01 -0.11132744045E+00  0.88848008630E+00  0.88000000000E+00 0. -1.
        -11    1    4    4    0    0  0.76788259492E-02 -0.38063702904E-01  0.69542228713E-01  0.79650439685E-01  0.51100000000E-03 0.  1.
         11    1    4    4    0    0 -0.11408935275E-01 -0.24362638604E-01  0.44405599201E-01  0.51921289711E-01  0.51100000000E-03 0. -1.
</event>
<event>
 8    1  0.5489035E+004  0.1043930E+01  0.7957747E-01            NaN
         13   -1    0    0    0    0  0.00000000000E+00  0.00000000000E+00  0.74505805969E-08  0.10566000000E+00  0.10566000000E+00 0. -1.
     999900   -1    0    0    0    0 -0.00000000000E+00 -0.00000000000E+00 -0.74505805969E-08  0.93827000000E+00  0.93827000000E+00 0.  1.
     999902    2    1    2    0    0 -0.59260956563E-02  0.19940086021E-01 -0.12546885199E-01  0.10196369975E+01  0.10193475643E+01 0.  0.
     999903    2    3    3    0    0 -0.28784777822E-01 -0.43673862351E-01 -0.11812230305E+00  0.13075262788E+00  0.20184190142E-01 0.  0.
         14    1    1    2    0    0  0.59260956563E-02 -0.19940086021E-01  0.12546885199E-01  0.24293002459E-01  0.00000000000E+00 0.  1.
     999901    1    3    3    0    0  0.22858682166E-01  0.63613948372E-01  0.10557541785E+00  0.88888436966E+00  0.88000000000E+00 0. -1.
        -11    1    4    4    0    0 -0.10533958219E-01 -0.26659591071E-01 -0.81834260080E-01  0.86711044946E-01  0.51100000000E-03 0. -1.
         11    1    4    4    0    0 -0.18250819603E-01 -0.17014271280E-01 -0.36288042972E-01  0.44041582931E-01  0.51100000000E-03 0.  1.
</event>
<event>
 8    1  0.5489035E+004  0.1043930E+01  0.7957747E-01            NaN
         13   -1    0    0    0    0  0.00000000000E+00  0.00000000000E+00  0.74505805969E-08  0.10566000000E+00  0.10566000000E+00 0. -1.
     999900   -1    0    0    0    0 -0.00000000000E+00 -0.00000000000E+00 -0.74505805969E-08  0.93827000000E+00  0.93827000000E+00 0. -1.
     999902    2    1    2    0    0  0.15621873313E-01  0.12231268276E-01 -0.10640265184E-01  0.10214164021E+01  0.10211682546E+01 0.  0.
     999903    2    3    3    0    0 -0.82419166586E-02  0.85495024565E-02 -0.13078887691E+00  0.13292401335E+00  0.20543607788E-01 0.  0.
         14    1    1    2    0    0 -0.15621873313E-01 -0.12231268276E-01  0.10640265184E-01  0.22513597949E-01  0.00000000000E+00 0. -1.
     999901    1    3    3    0    0  0.23863789971E-01  0.36817658195E-02  0.12014861172E+00  0.88849238870E+00  0.88000000000E+00 0.  1.
        -11    1    4    4    0    0 -0.27402150938E-02  0.63812208369E-02 -0.12266644063E+00  0.12286393098E+00  0.51100000000E-03 0. -1.
         11    1    4    4    0    0 -0.55017015648E-02  0.21682816195E-02 -0.81224362795E-02  0.10060082376E-01  0.51100000000E-03 0.  1.
</event>
<event>
 8    1  0.5489035E+004  0.1043930E+01  0.7957747E-01            NaN
         13   -1    0    0    0    0  0.00000000000E+00  0.00000000000E+00  0.74505805969E-08  0.10566000000E+00  0.10566000000E+00 0.  1.
     999900   -1    0    0    0    0 -0.00000000000E+00 -0.00000000000E+00 -0.74505805969E-08  0.93827000000E+00  0.93827000000E+00 0. -1.
     999902    2    1    2    0    0  0.16285148171E-01  0.10392632447E-01 -0.22515969909E-01  0.10142621426E+01  0.10138281473E+01 0.  0.
     999903    2    3    3    0    0  0.83230034139E-01  0.87353456185E-01 -0.38189196292E-01  0.12823153583E+00  0.20665119865E-01 0.  0.
         14    1    1    2    0    0 -0.16285148171E-01 -0.10392632447E-01  0.22515969909E-01  0.29667857373E-01  0.00000000000E+00 0.  1.
     999901    1    3    3    0    0 -0.66944885968E-01 -0.76960823737E-01  0.15673226383E-01  0.88603060679E+00  0.88000000000E+00 0.  1.
        -11    1    4    4    0    0  0.23455467905E-01  0.23147051313E-01 -0.20278444890E-01  0.38696529655E-01  0.51100000000E-03 0.  1.
         11    1    4    4    0    0  0.59774566234E-01  0.64206404871E-01 -0.17910751401E-01  0.89535006180E-01  0.51100000000E-03 0. -1.
</event>
<event>
 8    1  0.5489035E+004  0.1043930E+01  0.7957747E-01            NaN
         13   -1    0    0    0    0  0.00000000000E+00  0.00000000000E+00  0.74505805969E-08  0.10566000000E+00  0.10566000000E+00 0.  1.
     999900   -1    0    0    0    0 -0.00000000000E+00 -0.00000000000E+00 -0.74505805969E-08  0.93827000000E+00  0.93827000000E+00 0. -1.
     999902    2    1    2    0    0  0.17893446885E-01 -0.42518116743E-02  0.10002773245E-01  0.10229941739E+01  0.10227799230E+01 0.  0.
     999903    2    3    3    0    0  0.11976248011E+00  0.57067754443E-01  0.17715886991E-01  0.13496439888E+00  0.17371127580E-01 0.  0.
         14    1    1    2    0    0 -0.17893446885E-01  0.42518116743E-02 -0.10002773245E-01  0.20935826148E-01  0.00000000000E+00 0. -1.
     999901    1    3    3    0    0 -0.10186903322E+00 -0.61319566117E-01 -0.77131137457E-02  0.88802977498E+00  0.88000000000E+00 0. -1.
        -11    1    4    4    0    0  0.47045371019E-01  0.31074203534E-01  0.39496221905E-02  0.56521975338E-01  0.51100000000E-03 0. -1.
         11    1    4    4    0    0  0.72717109089E-01  0.25993550909E-01  0.13766264800E-01  0.78442423539E-01  0.51100000000E-03 0.  1.
</event>
<event>
 8    1  0.5489035E+004  0.1043930E+01  0.7957747E-01            NaN
         13   -1    0    0    0    0  0.00000000000E+00  0.00000000000E+00  0.74505805969E-08  0.10566000000E+00  0.10566000000E+00 0. -1.
     999900   -1    0    0    0    0 -0.00000000000E+00 -0.00000000000E+00 -0.74505805969E-08  0.93827000000E+00  0.93827000000E+00 0. -1.
     999902    2    1    2    0    0 -0.18980710931E-01  0.12094885323E-01 -0.88081550029E-02  0.10197610688E+01  0.10194746197E+01 0.  0.
     999903    2    3    3    0    0  0.98767938579E-02  0.63591055126E-01  0.11046265474E+00  0.12975537384E+00  0.22205530833E-01 0.  0.
         14    1    1    2    0    0  0.18980710931E-01 -0.12094885323E-01  0.88081550029E-02  0.24168931151E-01  0.00000000000E+00 0.  1.
     999901    1    3    3    0    0 -0.28857504789E-01 -0.51496169803E-01 -0.11927080974E+00  0.89000569501E+00  0.88000000000E+00 0. -1.
        -11    1    4    4    0    0  0.36973879510E-02  0.57181412852E-01  0.82832929896E-01  0.10072209315E+00  0.51100000000E-03 0.  1.
         11    1    4    4    0    0  0.61794059069E-02  0.64096422743E-02  0.27629724846E-01  0.29033280688E-01  0.51100000000E-03 0. -1.
</event>
<event>
 8    1  0.5489035E+004  0.1043930E+01  0.7957747E-01            NaN
         13   -1    0    0    0    0  0.00000000000E+00  0.00000000000E+00  0.74505805969E-08  0.10566000000E+00  0.10566000000E+00 0. -1.
     999900   -1    0    0    0    0 -0.00000000000E+00 -0.00000000000E+00 -0.74505805969E-08  0.93827000000E+00  0.93827000000E+00 0. -1.
     999902    2    1    2    0    0 -0.17267957160E-01  0.18861608752E-01 -0.30374797948E-02  0.10181779338E+01  0.10178522172E+01 0.  0.
     999903    2    3    3    0    0  0.74931405553E-01  0.14518833947E-01 -0.10073646430E+00  0.12797308450E+00  0.20093855770E-01 0.  0.
         14    1    1    2    0    0  0.17267957160E-01 -0.18861608752E-01  0.30374797948E-02  0.25752066183E-01  0.00000000000E+00 0. -1.
     999901    1    3    3    0    0 -0.92199362713E-01  0.43427748053E-02  0.97698984502E-01  0.89020484932E+00  0.88000000000E+00 0.  1.
        -11    1    4    4    0    0  0.52771702532E-01  0.15285242420E-02 -0.73890497991E-01  0.90814402981E-01  0.51100000000E-03 0. -1.
         11    1    4    4    0    0  0.22159703021E-01  0.12990309705E-01 -0.26845966306E-01  0.37158681517E-01  0.51100000000E-03 0.  1.
</event>
<event>
 8    1  0.5489035E+004  0.1043930E+01  0.7957747E-01            NaN
         13   -1    0    0    0    0  0.00000000000E+00  0.00000000000E+00  0.74505805969E-08  0.10566000000E+00  0.10566000000E+00 0.  1.
     999900   -1    0    0    0    0 -0.00000000000E+00 -0.00000000000E+00 -0.74505805969E-08  0.93827000000E+00  0.93827000000E+00 0.  1.
     999902    2    1    2    0    0 -0.87244189351E-02  0.16996512063E-01 -0.14019469239E-01  0.10202331136E+01  0.10199578735E+01 0.  0.
     999903    2    3    3    0    0 -0.89104252277E-01 -0.22468896020E-01  0.89483138586E-01  0.12965396164E+00  0.18934059696E-01 0.  0.
         14    1    1    2    0    0  0.87244189351E-02 -0.16996512063E-01  0.14019469239E-01  0.23696886416E-01  0.00000000000E+00 0.  1.
     999901    1    3    3    0    0  0.80379833342E-01  0.39465408083E-01 -0.10350260783E+00  0.89057915194E+00  0.88000000000E+00 0.  1.
        -11    1    4    4    0    0 -0.53938595937E-01 -0.18403453942E-01  0.65839147067E-01  0.87081075189E-01  0.51100000000E-03 0. -1.
         11    1    4    4    0    0 -0.35165656340E-01 -0.40654420784E-02  0.23643991519E-01  0.42572886455E-01  0.51100000000E-03 0.  1.
</event>
<event>
 8    1  0.5489035E+004  0.1043930E+01  0.7957747E-01            NaN
         13   -1    0    0    0    0  0.00000000000E+00  0.00000000000E+00  0.74505805969E-08  0.10566000000E+00  0.10566000000E+00 0. -1.
     999900   -1    0    0    0    0 -0.00000000000E+00 -0.00000000000E+00 -0.74505805969E-08  0.93827000000E+00  0.93827000000E+00 0. -1.
     999902    2    1    2    0    0 -0.16425097822E-01 -0.99037071752E-02 -0.13989104891E-01  0.10201905327E+01  0.10199142908E+01 0.  0.
     999903    2    3    3    0    0  0.40159438737E-01 -0.67892616727E-01 -0.10386735962E+00  0.13190982022E+00  0.19737891257E-01 0.  0.
         14    1    1    2    0    0  0.16425097822E-01  0.99037071752E-02  0.13989104891E-01  0.23739467347E-01  0.00000000000E+00 0. -1.
     999901    1    3    3    0    0 -0.56584536559E-01  0.57988909551E-01  0.89878254724E-01  0.88828071243E+00  0.88000000000E+00 0. -1.
        -11    1    4    4    0    0  0.32534039603E-01 -0.36466714193E-01 -0.65651880754E-01  0.81845681282E-01  0.51100000000E-03 0. -1.
         11    1    4    4    0    0  0.76253991343E-02 -0.31425902534E-01 -0.38215478861E-01  0.50064138938E-01  0.51100000000E-03 0.  1.
</event>
<event>
 8    1  0.5489035E+004  0.1043930E+01  0.7957747E-01            NaN
         13   -1    0    0    0    0  0.00000000000E+00  0.00000000000E+00  0.74505805969E-08  0.10566000000E+00  0.10566000000E+00 0. -1.
     999900   -1    0    0    0    0 -0.00000000000E+00 -0.00000000000E+00 -0.74505805969E-08  0.93827000000E+00  0.93827000000E+00 0. -1.
     999902    2    1    2    0    0  0.71401092954E-02 -0.24686795495E-01 -0.89627103944E-02  0.10167132917E+01  0.10163489402E+01 0.  0.
     999903    2    3    3    0    0  0.61081726039E-01  0.92795857922E-01  0.53465660082E-01  0.12508042258E+00  0.21082855634E-01 0.  0.
         14    1    1    2    0    0 -0.71401092954E-02  0.24686795495E-01  0.89627103944E-02  0.27216708290E-01  0.00000000000E+00 0.  1.
     999901    1    3    3    0    0 -0.53941616743E-01 -0.11748265342E+00 -0.62428370476E-01  0.89163286913E+00  0.88000000000E+00 0. -1.
        -11    1    4    4    0    0  0.39280052638E-01  0.41320269298E-01  0.30315166885E-01  0.64572112048E-01  0.51100000000E-03 0. -1.
         11    1    4    4    0    0  0.21801673401E-01  0.51475588624E-01  0.23150493197E-01  0.60508310532E-01  0.51100000000E-03 0.  1.
</event>
<event>
 8    1  0.5489035E+004  0.1043930E+01  0.7957747E-01            NaN
         13   -1    0    0    0    0  0.00000000000E+00  0.00000000000E+00  0.74505805969E-08  0.10566000000E+00  0.10566000000E+00 0.  1.
     999900   -1    0    0    0    0 -0.00000000000E+00 -0.00000000000E+00 -0.74505805969E-08  0.93827000000E+00  0.93827000000E+00 0.  1.
     999902    2    1    2    0    0 -0.34875859474E-02  0.77022619777E-02  0.21869099545E-01  0.10204833454E+01  0.10202139544E+01 0.  0.
     999903    2    3    3    0    0  0.23494726106E-01  0.11032227053E+00 -0.61808293861E-01  0.13016833518E+00  0.20013114779E-01 0.  0.
         14    1    1    2    0    0  0.34875859474E-02 -0.77022619777E-02 -0.21869099545E-01  0.23446654564E-01  0.00000000000E+00 0. -1.
     999901    1    3    3    0    0 -0.26982312053E-01 -0.10262000856E+00  0.83677393406E-01  0.89031501026E+00  0.88000000000E+00 0. -1.
        -11    1    4    4    0    0  0.63416247895E-02  0.65674430730E-01 -0.43080090081E-01  0.78800395551E-01  0.51100000000E-03 0.  1.
         11    1    4    4    0    0  0.17153101316E-01  0.44647839804E-01 -0.18728203779E-01  0.51367939629E-01  0.51100000000E-03 0. -1.
</event>
<event>
 8    1  0.5489035E+004  0.1043930E+01  0.7957747E-01            NaN
         13   -1    0    0    0    0  0.00000000000E+00  0.00000000000E+00  0.74505805969E-08  0.10566000000E+00  0.10566000000E+00 0. -1.
     999900   -1    0    0    0    0 -0.00000000000E+00 -0.00000000000E+00 -0.74505805969E-08  0.93827000000E+00  0.93827000000E+00 0. -1.
     999902    2    1    2    0    0 -0.19569549977E-02  0.25417113575E-02 -0.24212755856E-01  0.10195056778E+01  0.10192130688E+01 0.  0.
     999903    2    3    3    0    0 -0.15660520427E-01 -0.49652026946E-01  0.11411741846E+00  0.12706676607E+00  0.20312610952E-01 0.  0.
         14    1    1    2    0    0  0.19569549977E-02 -0.25417113575E-02  0.24212755856E-01  0.24424322214E-01  0.00000000000E+00 0. -1.
     999901    1    3    3    0    0  0.13703565429E-01  0.52193738303E-01 -0.13833017431E+00  0.89243891172E+00  0.88000000000E+00 0.  1.
        -11    1    4    4    0    0  0.35223638537E-02 -0.19378344121E-01  0.47374929352E-01  0.51308598890E-01  0.51100000000E-03 0.  1.
         11    1    4    4    0    0 -0.19182884280E-01 -0.30273682825E-01  0.66742489105E-01  0.75758167177E-01  0.51100000000E-03 0. -1.
</event>
<event>
 8    1  0.5489035E+004  0.1043930E+01  0.7957747E-01            NaN
         13   -1    0    0    0    0  0.00000000000E+00  0.00000000000E+00  0.74505805969E-08  0.10566000000E+00  0.10566000000E+00 0. -1.
     999900   -1    0    0    0    0 -0.00000000000E+00 -0.00000000000E+00 -0.74505805969E-08  0.93827000000E+00  0.93827000000E+00 0. -1.
     999902    2    1    2    0    0 -0.89728351022E-03 -0.16905706079E-01  0.14370248474E-01  0.10217238734E+01  0.10214825312E+01 0.  0.
     999903    2    3    3    0    0 -0.90781630902E-01 -0.24402036045E-01  0.92833622281E-01  0.13364060488E+00  0.20123766378E-01 0.  0.
         14    1    1    2    0    0  0.89728351022E-03  0.16905706079E-01 -0.14370248474E-01  0.22206126563E-01  0.00000000000E+00 0.  1.
     999901    1    3    3    0    0  0.89884347392E-01  0.74963299660E-02 -0.78463373807E-01  0.88808326856E+00  0.88000000000E+00 0. -1.
        -11    1    4    4    0    0 -0.52094606567E-01 -0.11226041441E-01  0.65631626528E-01  0.84543737565E-01  0.51100000000E-03 0.  1.
         11    1    4    4    0    0 -0.38687024335E-01 -0.13175994604E-01  0.27201995753E-01  0.49096867310E-01  0.51100000000E-03 0. -1.
</event>
<event>
 8    1  0.5489035E+004  0.1043930E+01  0.7957747E-01            NaN
         13   -1    0    0    0    0  0.00000000000E+00  0.00000000000E+00  0.74505805969E-08  0.10566000000E+00  0.10566000000E+00 0. -1.
     999900   -1    0    0    0    0 -0.00000000000E+00 -0.00000000000E+00 -0.74505805969E-08  0.93827000000E+00  0.93827000000E+00 0. -1.
     999902    2    1    2    0    0  0.19223150889E-02  0.23170190690E-01 -0.41516803796E-02  0.10203124328E+01  0.10200390537E+01 0.  0.
     999903    2    3    3    0    0 -0.98486578145E-01  0.22009714831E-01 -0.81252824690E-01  0.13125232288E+00  0.21002788370E-01 0.  0.
         14    1    1    2    0    0 -0.19223150889E-02 -0.23170190690E-01  0.41516803796E-02  0.23617567231E-01  0.00000000000E+00 0.  1.
     999901    1    3    3    0    0  0.10040889323E+00  0.11604758594E-02  0.77101144311E-01  0.88906010989E+00  0.88000000000E+00 0. -1.
        -11    1    4    4    0    0 -0.63824286979E-02  0.72761639060E-02 -0.94889184178E-02  0.13563873009E-01  0.51100000000E-03 0. -1.
         11    1    4    4    0    0 -0.92104149447E-01  0.14733550925E-01 -0.71763906272E-01  0.11768844987E+00  0.51100000000E-03 0.  1.
</event>
<event>
 8    1  0.5489035E+004  0.1043930E+01  0.7957747E-01            NaN
         13   -1    0    0    0    0  0.00000000000E+00  0.00000000000E+00  0.74505805969E-08  0.10566000000E+00  0.10566000000E+00 0.  1.
     999900   -1    0    0    0    0 -0.00000000000E+00 -0.00000000000E+00 -0.74505805969E-08  0.93827000000E+00  0.93827000000E+00 0.  1.
     999902    2    1    2    0    0  0.22209517536E-02  0.15592101795E-01  0.17486309491E-01  0.10203966771E+01  0.10201252675E+01 0.  0.
     999903    2    3    3    0    0 -0.39236016308E-01 -0.12064793347E+00 -0.61649522175E-02  0.12863470801E+00  0.20334518505E-01 0.  0.
         14    1    1    2    0    0 -0.22209517536E-02 -0.15592101795E-01 -0.17486309491E-01  0.23533322857E-01  0.00000000000E+00 0.  1.
     999901    1    3    3    0    0  0.41456968062E-01  0.13624003527E+00  0.23651261708E-01  0.89176196913E+00  0.88000000000E+00 0. -1.
        -11    1    4    4    0    0 -0.16589462392E-01 -0.35834974659E-01 -0.10091768744E-01  0.40761018003E-01  0.51100000000E-03 0.  1.
         11    1    4    4    0    0 -0.22646553917E-01 -0.84812958811E-01  0.39268165261E-02  0.87873690008E-01  0.51100000000E-03 0. -1.
</event>
<event>
 8    1  0.5489035E+004  0.1043930E+01  0.7957747E-01            NaN
         13   -1    0    0    0    0  0.00000000000E+00  0.00000000000E+00  0.74505805969E-08  0.10566000000E+00  0.10566000000E+00 0. -1.
     999900   -1    0    0    0    0 -0.00000000000E+00 -0.00000000000E+00 -0.74505805969E-08  0.93827000000E+00  0.93827000000E+00 0. -1.
     999902    2    1    2    0    0 -0.11504117882E-01 -0.74039855774E-02  0.18303954649E-01  0.10210783373E+01  0.10208225960E+01 0.  0.
     999903    2    3    3    0    0 -0.87186208502E-01 -0.21469552867E-01  0.97712580429E-01  0.13415593438E+00  0.19689837514E-01 0.  0.
         14    1    1    2    0    0  0.11504117882E-01  0.74039855774E-02 -0.18303954649E-01  0.22851662663E-01  0.00000000000E+00 0. -1.
     999901    1    3    3    0    0  0.75682090621E-01  0.14065567289E-01 -0.79408625780E-01  0.88692240296E+00  0.88000000000E+00 0. -1.
        -11    1    4    4    0    0 -0.23089332287E-03 -0.18147259475E-02  0.58303434207E-02  0.61319301524E-02  0.51100000000E-03 0. -1.
         11    1    4    4    0    0 -0.86955315179E-01 -0.19654826919E-01  0.91882237008E-01  0.12802400423E+00  0.51100000000E-03 0.  1.
</event>
<event>
 8    1  0.5489035E+004  0.1043930E+01  0.7957747E-01            NaN
         13   -1    0    0    0    0  0.00000000000E+00  0.00000000000E+00  0.74505805969E-08  0.10566000000E+00  0.10566000000E+00 0.  1.
     999900   -1    0    0    0    0 -0.00000000000E+00 -0.00000000000E+00 -0.74505805969E-08  0.93827000000E+00  0.93827000000E+00 0. -1.
     999902    2    1    2    0    0 -0.18732634133E-01 -0.92437671761E-02 -0.85557199864E-03  0.10230232830E+01  0.10228096337E+01 0.  0.
     999903    2    3    3    0    0 -0.93909933901E-01 -0.54191662803E-01  0.78126288185E-01  0.13515500786E+00  0.20182845231E-01 0.  0.
         14    1    1    2    0    0  0.18732634133E-01  0.92437671761E-02  0.85557199864E-03  0.20906717022E-01  0.00000000000E+00 0. -1.
     999901    1    3    3    0    0  0.75177299768E-01  0.44947895627E-01 -0.78981860183E-01  0.88786827512E+00  0.88000000000E+00 0. -1.
        -11    1    4    4    0    0 -0.59438132402E-01 -0.34988972809E-01  0.37463636380E-01  0.78491432485E-01  0.51100000000E-03 0. -1.
         11    1    4    4    0    0 -0.34471801499E-01 -0.19202689994E-01  0.40662651805E-01  0.56663575376E-01  0.51100000000E-03 0.  1.
</event>
<event>
 8    1  0.5489035E+004  0.1043930E+01  0.7957747E-01            NaN
         13   -1    0    0    0    0  0.00000000000E+00  0.00000000000E+00  0.74505805969E-08  0.10566000000E+00  0.10566000000E+00 0. -1.
     999900   -1    0    0    0    0 -0.00000000000E+00 -0.00000000000E+00 -0.74505805969E-08  0.93827000000E+00  0.93827000000E+00 0.  1.
     999902    2    1    2    0    0 -0.16240179474E-01  0.12415805933E-01  0.10521750062E-01  0.10209386344E+01  0.10206797208E+01 0.  0.
     999903    2    3    3    0    0  0.74783411265E-01  0.95280101303E-01  0.47553207669E-01  0.13160005191E+00  0.19657308999E-01 0.  0.
         14    1    1    2    0    0  0.16240179474E-01 -0.12415805933E-01 -0.10521750062E-01  0.22991365568E-01  0.00000000000E+00 0.  1.
     999901    1    3    3    0    0 -0.91023590739E-01 -0.82864295370E-01 -0.37031457607E-01  0.88933858253E+00  0.88000000000E+00 0. -1.
        -11    1    4    4    0    0  0.48922516135E-01  0.47042681988E-01  0.28969961984E-01  0.73796655290E-01  0.51100000000E-03 0. -1.
         11    1    4    4    0    0  0.25860895131E-01  0.48237419315E-01  0.18583245685E-01  0.57803396616E-01  0.51100000000E-03 0.  1.
</event>
<event>
 8    1  0.5489035E+004  0.1043930E+01  0.7957747E-01            NaN
         13   -1    0    0    0    0  0.00000000000E+00  0.00000000000E+00  0.74505805969E-08  0.10566000000E+00  0.10566000000E+00 0.  1.
     999900   -1    0    0    0    0 -0.00000000000E+00 -0.00000000000E+00 -0.74505805969E-08  0.93827000000E+00  0.93827000000E+00 0. -1.
     999902    2    1    2    0    0 -0.12690568667E-01 -0.15829118686E-01  0.12539949679E-01  0.10200791747E+01  0.10198003043E+01 0.  0.
     999903    2    3    3    0    0  0.64448596988E-01 -0.84850920248E-01  0.75035874379E-01  0.13181108418E+00  0.19760545211E-01 0.  0.
         14    1    1    2    0    0  0.12690568667E-01  0.15829118686E-01 -0.12539949679E-01  0.23850825340E-01  0.00000000000E+00 0. -1.
     999901    1    3    3    0    0 -0.77139165655E-01  0.69021801562E-01 -0.62495924700E-01  0.88826809048E+00  0.88000000000E+00 0.  1.
        -11    1    4    4    0    0  0.45980782980E-01 -0.66301000034E-01  0.65576651942E-01  0.10397409971E+00  0.51100000000E-03 0.  1.
         11    1    4    4    0    0  0.18467814008E-01 -0.18549920214E-01  0.94592224365E-02  0.27836984468E-01  0.51100000000E-03 0. -1.
</event>
<event>
 8    1  0.5489035E+004  0.1043930E+01  0.7957747E-01            NaN
         13   -1    0    0    0    0  0.00000000000E+00  0.00000000000E+00  0.74505805969E-08  0.10566000000E+00  0.10566000000E+00 0.  1.
     999900   -1    0    0    0    0 -0.00000000000E+00 -0.00000000000E+00 -0.74505805969E-08  0.93827000000E+00  0.93827000000E+00 0. -1.
     999902    2    1    2    0    0  0.14893423638E-01  0.10790135521E-01 -0.16505136261E-01  0.10192184518E+01  0.10189188348E+01 0.  0.
     999903    2    3    3    0    0  0.91978068568E-02  0.26173089117E-01  0.12344947435E+00  0.12800783226E+00  0.19406240191E-01 0.  0.
         14    1    1    2    0    0 -0.14893423638E-01 -0.10790135521E-01  0.16505136261E-01  0.24711548216E-01  0.00000000000E+00 0. -1.
     999901    1    3    3    0    0  0.56956167811E-02 -0.15382953596E-01 -0.13995461061E+00  0.89121061952E+00  0.88000000000E+00 0. -1.
        -11    1    4    4    0    0  0.12364396698E-01  0.14352188188E-01  0.48621713366E-01  0.52184248036E-01  0.51100000000E-03 0.  1.
         11    1    4    4    0    0 -0.31665898411E-02  0.11820900929E-01  0.74827760987E-01  0.75823584229E-01  0.51100000000E-03 0. -1.
</event>
<event>
 8    1  0.5489035E+004  0.1043930E+01  0.7957747E-01            NaN
         13   -1    0    0    0    0  0.00000000000E+00  0.00000000000E+00  0.74505805969E-08  0.10566000000E+00  0.10566000000E+00 0.  1.
     999900   -1    0    0    0    0 -0.00000000000E+00 -0.00000000000E+00 -0.74505805969E-08  0.93827000000E+00  0.93827000000E+00 0. -1.
     999902    2    1    2    0    0  0.80346581058E-02  0.14354813919E-01  0.13723262694E-01  0.10225070135E+01  0.10222825677E+01 0.  0.
     999903    2    3    3    0    0 -0.70474036570E-01  0.10455562657E+00 -0.36827618180E-01  0.13298175058E+00  0.20722057055E-01 0.  0.
         14    1    1    2    0    0 -0.80346581058E-02 -0.14354813919E-01 -0.13723262694E-01  0.21422986545E-01  0.00000000000E+00 0. -1.
     999901    1    3    3    0    0  0.78508694676E-01 -0.90200812646E-01  0.50550880874E-01  0.88952526288E+00  0.88000000000E+00 0.  1.
        -11    1    4    4    0    0 -0.18224388816E-01  0.27920929715E-01 -0.19483277732E-01  0.38620796160E-01  0.51100000000E-03 0. -1.
         11    1    4    4    0    0 -0.52249647754E-01  0.76634696851E-01 -0.17344340448E-01  0.94360954416E-01  0.51100000000E-03 0.  1.
</event>
<event>
 8    1  0.5489035E+004  0.1043930E+01  0.7957747E-01            NaN
         13   -1    0    0    0    0  0.00000000000E+00  0.00000000000E+00  0.74505805969E-08  0.10566000000E+00  0.10566000000E+00 0. -1.
     999900   -1    0    0    0    0 -0.00000000000E+00 -0.00000000000E+00 -0.74505805969E-08  0.93827000000E+00  0.93827000000E+00 0. -1.
     999902    2    1    2    0    0  0.47327543958E-02 -0.19299929466E-01 -0.13097567007E-01  0.10201301575E+01  0.10198524921E+01 0.  0.
     999903    2    3    3    0    0  0.11053377945E+00 -0.46861988795E-01  0.50033569116E-01  0.13111999762E+00  0.16593171593E-01 0.  0.
         14    1    1    2    0    0 -0.47327543958E-02  0.19299929466E-01  0.13097567007E-01  0.23799842501E-01  0.00000000000E+00 0.  1.
     999901    1    3    3    0    0 -0.10580102506E+00  0.27562059329E-01 -0.63131136123E-01  0.88901015988E+00  0.88000000000E+00 0. -1.
        -11    1    4    4    0    0  0.67075657095E-01 -0.31987021021E-01  0.22870598545E-01  0.77753705296E-01  0.51100000000E-03 0. -1.
         11    1    4    4    0    0  0.43458122360E-01 -0.14874967774E-01  0.27162970571E-01  0.53366292325E-01  0.51100000000E-03 0.  1.
</event>
<event>
 8    1  0.5489035E+004  0.1043930E+01  0.7957747E-01            NaN
         13   -1    0    0    0    0  0.00000000000E+00  0.00000000000E+00  0.74505805969E-08  0.10566000000E+00  0.10566000000E+00 0.  1.
     999900   -1    0    0    0    0 -0.00000000000E+00 -0.00000000000E+00 -0.74505805969E-08  0.93827000000E+00  0.93827000000E+00 0.  1.
     999902    2    1    2    0    0  0.11734434424E-01 -0.15621012785E-01  0.11879681914E-01  0.10210643088E+01  0.10208082498E+01 0.  0.
     999903    2    3    3    0    0  0.38591410323E-01  0.10764097467E+00  0.60428320431E-01  0.13074313922E+00  0.19139231034E-01 0.  0.
         14    1    1    2    0    0 -0.11734434424E-01  0.15621012785E-01 -0.11879681914E-01  0.22865691200E-01  0.00000000000E+00 0. -1.
     999901    1    3    3    0    0 -0.26856975899E-01 -0.12326198745E+00 -0.48548638516E-01  0.89032116958E+00  0.88000000000E+00 0.  1.
        -11    1    4    4    0    0  0.27861782543E-01  0.59405007571E-01  0.26323359337E-01  0.70699464063E-01  0.51100000000E-03 0.  1.
         11    1    4    4    0    0  0.10729627780E-01  0.48235967095E-01  0.34104961093E-01  0.60043675154E-01  0.51100000000E-03 0. -1.
</event>
<event>
 8    1  0.5489035E+004  0.1043930E+01  0.7957747E-01            NaN
         13   -1    0    0    0    0  0.00000000000E+00  0.00000000000E+00  0.74505805969E-08  0.10566000000E+00  0.10566000000E+00 0. -1.
     999900   -1    0    0    0    0 -0.00000000000E+00 -0.00000000000E+00 -0.74505805969E-08  0.93827000000E+00  0.93827000000E+00 0. -1.
     999902    2    1    2    0    0 -0.11284459790E-01  0.19695178686E-02  0.13490441035E-01  0.10262322591E+01  0.10260796458E+01 0.  0.
     999903    2    3    3    0    0  0.32967249073E-01  0.12520123388E+00  0.37649229454E-01  0.13621657575E+00  0.19372727074E-01 0.  0.
         14    1    1    2    0    0  0.11284459790E-01 -0.19695178686E-02 -0.13490441035E-01  0.17697740893E-01  0.00000000000E+00 0.  1.
     999901    1    3    3    0    0 -0.44251708863E-01 -0.12323171601E+00 -0.24158788419E-01  0.89001568336E+00  0.88000000000E+00 0.  1.
        -11    1    4    4    0    0  0.20823440033E-01  0.57964346036E-01  0.95135225568E-02  0.62323745864E-01  0.51100000000E-03 0. -1.
         11    1    4    4    0    0  0.12143809040E-01  0.67236887842E-01  0.28135706897E-01  0.73892829884E-01  0.51100000000E-03 0.  1.
</event>
<event>
 8    1  0.5489035E+004  0.1043930E+01  0.7957747E-01            NaN
         13   -1    0    0    0    0  0.00000000000E+00  0.00000000000E+00  0.74505805969E-08  0.10566000000E+00  0.10566000000E+00 0.  1.
     999900   -1    0    0    0    0 -0.00000000000E+00 -0.00000000000E+00 -0.74505805969E-08  0.93827000000E+00  0.93827000000E+00 0. -1.
     999902    2    1    2    0    0 -0.76509194854E-02 -0.76181865568E-02 -0.20726907361E-01  0.10205595481E+01  0.10202919254E+01 0.  0.
     999903    2    3    3    0    0 -0.39287320976E-01 -0.37488132767E-01 -0.12083177241E+00  0.13381603407E+00  0.18909258617E-01 0.  0.
         14    1    1    2    0    0  0.76509194854E-02  0.76181865568E-02  0.20726907361E-01  0.23370451946E-01  0.00000000000E+00 0.  1.
     999901    1    3    3    0    0  0.31636401491E-01  0.29869946210E-01  0.10010486505E+00  0.88674351398E+00  0.88000000000E+00 0.  1.
        -11    1    4    4    0    0 -0.12248295915E-01 -0.15099479279E-01 -0.65138614034E-01  0.67980255859E-01  0.51100000000E-03 0. -1.
         11    1    4    4    0    0 -0.27039025061E-01 -0.22388653488E-01 -0.55693158381E-01  0.65835778211E-01  0.51100000000E-03 0.  1.
</event>
<event>
 8    1  0.5489035E+004  0.1043930E+01  0.7957747E-01            NaN
         13   -1    0    0    0    0  0.00000000000E+00  0.00000000000E+00  0.74505805969E-08  0.10566000000E+00  0.10566000000E+00 0.  1.
     999900   -1    0    0    0    0 -0.00000000000E+00 -0.00000000000E+00 -0.74505805969E-08  0.93827000000E+00  0.93827000000E+00 0. -1.
     999902    2    1    2    0    0  0.13389474228E-01  0.84331443608E-02 -0.16665993416E-01  0.10209484578E+01  0.10206897679E+01 0.  0.
     999903    2    3    3    0    0 -0.54027583369E-01  0.11287517692E+00 -0.36635461682E-01  0.13198727899E+00  0.20462146375E-01 0.  0.
         14    1    1    2    0    0 -0.13389474228E-01 -0.84331443608E-02  0.16665993416E-01  0.22981542169E-01  0.00000000000E+00 0.  1.
     999901    1    3    3    0    0  0.67417057597E-01 -0.10444203256E+00  0.19969468266E-01  0.88896117884E+00  0.88000000000E+00 0. -1.
        -11    1    4    4    0    0 -0.34851057784E-01  0.88742675626E-01 -0.21931845783E-01  0.97832130133E-01  0.51100000000E-03 0. -1.
         11    1    4    4    0    0 -0.19176525585E-01  0.24132501292E-01 -0.14703615899E-01  0.34155148859E-01  0.51100000000E-03 0.  1.
</event>
<event>
 8    1  0.5489035E+004  0.1043930E+01  0.7957747E-01            NaN
         13   -1    0    0    0    0  0.00000000000E+00  0.00000000000E+00  0.74505805969E-08  0.10566000000E+00  0.10566000000E+00 0.  1.
     999900   -1    0    0    0    0 -0.00000000000E+00 -0.00000000000E+00 -0.74505805969E-08  0.93827000000E+00  0.93827000000E+00 0. -1.
     999902    2    1    2    0    0 -0.15868997466E-01 -0.17582391729E-01  0.11441025498E-02  0.10202176709E+01  0.10199420677E+01 0.  0.
     999903    2    3    3    0    0  0.11975057521E+00 -0.36073371681E-01  0.26158513792E-01  0.12928540324E+00  0.19722049554E-01 0.  0.
         14    1    1    2    0    0  0.15868997466E-01  0.17582391729E-01 -0.11441025498E-02  0.23712329075E-01  0.00000000000E+00 0. -1.
     999901    1    3    3    0    0 -0.13561957268E+00  0.18490979952E-01 -0.25014411243E-01  0.89093226769E+00  0.88000000000E+00 0. -1.
        -11    1    4    4    0    0  0.47316728875E-01 -0.24034735581E-01  0.13620467412E-01  0.54793426608E-01  0.51100000000E-03 0.  1.
         11    1    4    4    0    0  0.72433846338E-01 -0.12038636101E-01  0.12538046380E-01  0.74491976632E-01  0.51100000000E-03 0. -1.
</event>
<event>
 8    1  0.5489035E+004  0.1043930E+01  0.7957747E-01            NaN
         13   -1    0    0    0    0  0.00000000000E+00  0.00000000000E+00  0.74505805969E-08  0.10566000000E+00  0.10566000000E+00 0.  1.
     999900   -1    0    0    0    0 -0.00000000000E+00 -0.00000000000E+00 -0.74505805969E-08  0.93827000000E+00  0.93827000000E+00 0. -1.
     999902    2    1    2    0    0 -0.14468020641E-01 -0.24404424844E-02 -0.11329749060E-01  0.10253924005E+01  0.10252248204E+01 0.  0.
     999903    2    3    3    0    0  0.14100403484E-01  0.35219821934E-01 -0.12918636503E+00  0.13627787904E+00  0.21054362285E-01 0.  0.
         14    1    1    2    0    0  0.14468020641E-01  0.24404424844E-02  0.11329749060E-01  0.18537599482E-01  0.00000000000E+00 0.  1.
     999901    1    3    3    0    0 -0.28568424124E-01 -0.37660264419E-01  0.11785661597E+00  0.88911452148E+00  0.88000000000E+00 0.  1.
        -11    1    4    4    0    0  0.13976957454E-02  0.17196932412E-01 -0.86767605677E-01  0.88467884307E-01  0.51100000000E-03 0. -1.
         11    1    4    4    0    0  0.12702707738E-01  0.18022889522E-01 -0.42418759352E-01  0.47809994735E-01  0.51100000000E-03 0.  1.
</event>
<event>
 8    1  0.5489035E+004  0.1043930E+01  0.7957747E-01            NaN
         13   -1    0    0    0    0  0.00000000000E+00  0.00000000000E+00  0.74505805969E-08  0.10566000000E+00  0.10566000000E+00 0.  1.
     999900   -1    0    0    0    0 -0.00000000000E+00 -0.00000000000E+00 -0.74505805969E-08  0.93827000000E+00  0.93827000000E+00 0.  1.
     999902    2    1    2    0    0  0.14387238979E-01  0.15877210556E-01 -0.56693427893E-02  0.10217665186E+01  0.10215261125E+01 0.  0.
     999903    2    3    3    0    0  0.76255990721E-01  0.10226534635E+00  0.37369559241E-01  0.13433032396E+00  0.19364265872E-01 0.  0.
         14    1    1    2    0    0 -0.14387238979E-01 -0.15877210556E-01  0.56693427893E-02  0.22163481409E-01  0.00000000000E+00 0.  1.
     999901    1    3    3    0    0 -0.61868751742E-01 -0.86388135796E-01 -0.43038902030E-01  0.88743619463E+00  0.88000000000E+00 0.  1.
        -11    1    4    4    0    0  0.73710729002E-01  0.91365163034E-01  0.30899954199E-01  0.12139165077E+00  0.51100000000E-03 0.  1.
         11    1    4    4    0    0  0.25452617191E-02  0.10900183318E-01  0.64696050421E-02  0.12938673193E-01  0.51100000000E-03 0. -1.
</event>
<event>
 8    1  0.5489035E+004  0.1043930E+01  0.7957747E-01            NaN
         13   -1    0    0    0    0  0.00000000000E+00  0.00000000000E+00  0.74505805969E-08  0.10566000000E+00  0.10566000000E+00 0. -1.
     999900   -1    0    0    0    0 -0.00000000000E+00 -0.00000000000E+00 -0.74505805969E-08  0.93827000000E+00  0.93827000000E+00 0.  1.
     999902    2    1    2    0    0  0.21284358895E-01  0.33743651034E-02  0.87835247537E-02  0.10206585458E+01  0.10203932117E+01 0.  0.
     999903    2    3    3    0    0  0.47062947382E-01  0.11850168343E+00  0.29536265676E-01  0.13254283751E+00  0.20919913816E-01 0.  0.
         14    1    1    2    0    0 -0.21284358895E-01 -0.33743651034E-02 -0.87835247537E-02  0.23271454199E-01  0.00000000000E+00 0.  1.
     999901    1    3    3    0    0 -0.25778588487E-01 -0.11512731833E+00 -0.20752740922E-01  0.88811570829E+00  0.88000000000E+00 0.  1.
        -11    1    4    4    0    0  0.27482942745E-01  0.69819082610E-01  0.67634112047E-02  0.75339374105E-01  0.51100000000E-03 0.  1.
         11    1    4    4    0    0  0.19580004637E-01  0.48682600821E-01  0.22772854471E-01  0.57203463410E-01  0.51100000000E-03 0. -1.
</event>
<event>
 8    1  0.5489035E+004  0.1043930E+01  0.7957747E-01            NaN
         13   -1    0    0    0    0  0.00000000000E+00  0.00000000000E+00  0.74505805969E-08  0.10566000000E+00  0.10566000000E+00 0.  1.
     999900   -1    0    0    0    0 -0.00000000000E+00 -0.00000000000E+00 -0.74505805969E-08  0.93827000000E+00  0.93827000000E+00 0. -1.
     999902    2    1    2    0    0 -0.86390629034E-02 -0.20015647014E-01 -0.93750557949E-02  0.10201991929E+01  0.10199231550E+01 0.  0.
     999903    2    3    3    0    0  0.58300111197E-01  0.45883953500E-02  0.11298325887E+00  0.12887558778E+00  0.20585043189E-01 0.  0.
         14    1    1    2    0    0  0.86390629034E-02  0.20015647014E-01  0.93750557949E-02  0.23730807075E-01  0.00000000000E+00 0. -1.
     999901    1    3    3    0    0 -0.66939174100E-01 -0.24604042364E-01 -0.12235831466E+00  0.89132360515E+00  0.88000000000E+00 0. -1.
        -11    1    4    4    0    0  0.54605108169E-01  0.10041802755E-02  0.89657771272E-01  0.10498334766E+00  0.51100000000E-03 0.  1.
         11    1    4    4    0    0  0.36950030275E-02  0.35842150745E-02  0.23325487594E-01  0.23892240112E-01  0.51100000000E-03 0. -1.
</event>
<event>
 8    1  0.5489035E+004  0.1043930E+01  0.7957747E-01            NaN
         13   -1    0    0    0    0  0.00000000000E+00  0.00000000000E+00  0.74505805969E-08  0.10566000000E+00  0.10566000000E+00 0.  1.
     999900   -1    0    0    0    0 -0.00000000000E+00 -0.00000000000E+00 -0.74505805969E-08  0.93827000000E+00  0.93827000000E+00 0. -1.
     999902    2    1    2    0    0 -0.59601608889E-02  0.22467026784E-01  0.58058233463E-02  0.10199717364E+01  0.10196903180E+01 0.  0.
     999903    2    3    3    0    0 -0.41573195230E-01  0.88670907639E-01 -0.86294599072E-01  0.13197751915E+00  0.19505058519E-01 0.  0.
         14    1    1    2    0    0  0.59601608889E-02 -0.22467026784E-01 -0.58058233463E-02  0.23958263607E-01  0.00000000000E+00 0. -1.
     999901    1    3    3    0    0  0.35613034341E-01 -0.66203880856E-01  0.92100422418E-01  0.88799421725E+00  0.88000000000E+00 0.  1.
        -11    1    4    4    0    0 -0.38639288068E-01  0.88797770944E-01 -0.84278097194E-01  0.12837872680E+00  0.51100000000E-03 0. -1.
         11    1    4    4    0    0 -0.29339071613E-02 -0.12686330497E-03 -0.20165018781E-02  0.35987923466E-02  0.51100000000E-03 0.  1.
</event>
<event>
 8    1  0.5489035E+004  0.1043930E+01  0.7957747E-01            NaN
         13   -1    0    0    0    0  0.00000000000E+00  0.00000000000E+00  0.74505805969E-08  0.10566000000E+00  0.10566000000E+00 0.  1.
     999900   -1    0    0    0    0 -0.00000000000E+00 -0.00000000000E+00 -0.74505805969E-08  0.93827000000E+00  0.93827000000E+00 0. -1.
     999902    2    1    2    0    0  0.78790795383E-02 -0.21647189524E-01  0.62690208765E-03  0.10208849633E+01  0.10206248256E+01 0.  0.
     999903    2    3    3    0    0  0.12824164513E+00 -0.26577958916E-01  0.83691773245E-02  0.13264434137E+00  0.19291726803E-01 0.  0.
         14    1    1    2    0    0 -0.78790795383E-02  0.21647189524E-01 -0.62690208765E-03  0.23045036665E-01  0.00000000000E+00 0. -1.
     999901    1    3    3    0    0 -0.12036256559E+00  0.49307693919E-02 -0.77422752369E-02  0.88824062196E+00  0.88000000000E+00 0.  1.
        -11    1    4    4    0    0  0.92036040556E-02  0.18130722963E-02 -0.26783398568E-02  0.97687350334E-02  0.51100000000E-03 0. -1.
         11    1    4    4    0    0  0.11903804107E+00 -0.28391031213E-01  0.11047517181E-01  0.12287560634E+00  0.51100000000E-03 0.  1.
</event>
<event>
 8    1  0.5489035E+004  0.1043930E+01  0.7957747E-01            NaN
         13   -1    0    0    0    0  0.00000000000E+00  0.00000000000E+00  0.74505805969E-08  0.10566000000E+00  0.10566000000E+00 0. -1.
     999900   -1    0    0    0    0 -0.00000000000E+00 -0.00000000000E+00 -0.74505805969E-08  0.93827000000E+00  0.93827000000E+00 0. -1.
     999902    2    1    2    0    0 -0.69207224255E-02 -0.46124736703E-02 -0.22401198533E-01  0.10200347074E+01  0.10197547839E+01 0.  0.
     999903    2    3    3    0    0 -0.12962099677E+00 -0.29897566268E-02  0.24821347984E-02  0.13117185476E+00  0.19732030820E-01 0.  0.
         14    1    1    2    0    0  0.69207224255E-02  0.46124736703E-02  0.22401198533E-01  0.23895292590E-01  0.00000000000E+00 0.  1.
     999901    1    3    3    0    0  0.12270027435E+00 -0.16227170435E-02 -0.24883333332E-01  0.88886285265E+00  0.88000000000E+00 0. -1.
        -11    1    4    4    0    0 -0.84149777327E-01 -0.11034415220E-01 -0.79648758909E-03  0.84875431410E-01  0.51100000000E-03 0.  1.
         11    1    4    4    0    0 -0.45471219445E-01  0.80446585933E-02  0.32786223875E-02  0.46296423355E-01  0.51100000000E-03 0. -1.
</event>
<event>
 8    1  0.5489035E+004  0.1043930E+01  0.7957747E-01            NaN
         13   -1    0    0    0    0  0.00000000000E+00  0.00000000000E+00  0.74505805969E-08  0.10566000000E+00  0.10566000000E+00 0.  1.
     999900   -1    0    0    0    0 -0.00000000000E+00 -0.00000000000E+00 -0.74505805969E-08  0.93827000000E+00  0.93827000000E+00 0. -1.
     999902    2    1    2    0    0  0.88291829969E-02 -0.98051674529E-02 -0.19624089704E-01  0.10202825757E+01  0.10200084968E+01 0.  0.
     999903    2    3    3    0    0  0.94410907716E-02 -0.89580079895E-02 -0.13101813392E+00  0.13325961925E+00  0.20566832674E-01 0.  0.
         14    1    1    2    0    0 -0.88291829969E-02  0.98051674529E-02  0.19624089704E-01  0.23647424340E-01  0.00000000000E+00 0.  1.
     999901    1    3    3    0    0 -0.61190777464E-03 -0.84715946342E-03  0.11139404421E+00  0.88702295641E+00  0.88000000000E+00 0.  1.
        -11    1    4    4    0    0  0.22534638590E-02 -0.14761993208E-01 -0.73682696968E-01  0.75182414808E-01  0.51100000000E-03 0. -1.
         11    1    4    4    0    0  0.71876269126E-02  0.58039852182E-02 -0.57335436947E-01  0.58077204444E-01  0.51100000000E-03 0.  1.
</event>
<event>
 8    1  0.5489035E+004  0.1043930E+01  0.7957747E-01            NaN
         13   -1    0    0    0    0  0.00000000000E+00  0.00000000000E+00  0.74505805969E-08  0.10566000000E+00  0.10566000000E+00 0.  1.
     999900   -1    0    0    0    0 -0.00000000000E+00 -0.00000000000E+00 -0.74505805969E-08  0.93827000000E+00  0.93827000000E+00 0.  1.
     999902    2    1    2    0    0 -0.78822648244E-02  0.31197130352E-03  0.22988378131E-01  0.10196258244E+01  0.10193361216E+01 0.  0.
     999903    2    3    3    0    0  0.27861977370E-02  0.12525330628E+00  0.31185019105E-01  0.13069875299E+00  0.20334821966E-01 0.  0.
         14    1    1    2    0    0  0.78822648244E-02 -0.31197130352E-03 -0.22988378131E-01  0.24304175648E-01  0.00000000000E+00 0. -1.
     999901    1    3    3    0    0 -0.10668462561E-01 -0.12494133498E+00 -0.81966409748E-02  0.88892707136E+00  0.88000000000E+00 0.  1.
        -11    1    4    4    0    0  0.82135650346E-02  0.10503597951E+00  0.30754990524E-01  0.10975495526E+00  0.51100000000E-03 0.  1.
         11    1    4    4    0    0 -0.54273672976E-02  0.20217326771E-01  0.43002858152E-03  0.20943797724E-01  0.51100000000E-03 0. -1.
</event>
<event>
 8    1  0.5489035E+004  0.1043930E+01  0.7957747E-01            NaN
         13   -1    0    0    0    0  0.00000000000E+00  0.00000000000E+00  0.74505805969E-08  0.10566000000E+00  0.10566000000E+00 0. -1.
     999900   -1    0    0    0    0 -0.00000000000E+00 -0.00000000000E+00 -0.74505805969E-08  0.93827000000E+00  0.93827000000E+00 0. -1.
     999902    2    1    2    0    0 -0.95275808926E-03 -0.22329800168E-01 -0.58202904146E-02  0.10208344700E+01  0.10205731780E+01 0.  0.
     999903    2    3    3    0    0 -0.42421381572E-02 -0.95229373532E-01  0.90027031644E-01  0.13262735627E+00  0.19962962805E-01 0.  0.
         14    1    1    2    0    0  0.95275808926E-03  0.22329800168E-01  0.58202904146E-02  0.23095529957E-01  0.00000000000E+00 0. -1.
     999901    1    3    3    0    0  0.32893800679E-02  0.72899573364E-01 -0.95847322059E-01  0.88820711378E+00  0.88000000000E+00 0. -1.
        -11    1    4    4    0    0  0.70685427883E-02 -0.18235482334E-01  0.18658694430E-01  0.27035256832E-01  0.51100000000E-03 0.  1.
         11    1    4    4    0    0 -0.11310680945E-01 -0.76993891198E-01  0.71368337214E-01  0.10559209943E+00  0.51100000000E-03 0. -1.
</event>
<event>
 8    1  0.5489035E+004  0.1043930E+01  0.7957747E-01            NaN
         13   -1    0    0    0    0  0.00000000000E+00  0.00000000000E+00  0.74505805969E-08  0.10566000000E+00  0.10566000000E+00 0. -1.
     999900   -1    0    0    0    0 -0.00000000000E+00 -0.00000000000E+00 -0.74505805969E-08  0.93827000000E+00  0.93827000000E+00 0.  1.
     999902    2    1    2    0    0  0.13000493022E-01  0.19262115367E-01  0.23398130017E-02  0.10205737025E+01  0.10203064077E+01 0.  0.
     999903    2    3    3    0    0 -0.50917926360E-01  0.66574298658E-01  0.99420727981E-01  0.13167060821E+00  0.20685633816E-01 0.  0.
         14    1    1    2    0    0 -0.13000493022E-01 -0.19262115367E-01 -0.23398130017E-02  0.23356297482E-01  0.00000000000E+00 0.  1.
     999901    1    3    3    0    0  0.63918419382E-01 -0.47312183291E-01 -0.97080914980E-01  0.88890309431E+00  0.88000000000E+00 0.  1.
        -11    1    4    4    0    0 -0.14400167826E-01  0.33884378663E-01  0.35771611711E-01  0.51336003703E-01  0.51100000000E-03 0.  1.
         11    1    4    4    0    0 -0.36517758534E-01  0.32689919994E-01  0.63649116271E-01  0.80334604503E-01  0.51100000000E-03 0. -1.
</event>
<event>
 8    1  0.5489035E+004  0.1043930E+01  0.7957747E-01            NaN
         13   -1    0    0    0    0  0.00000000000E+00  0.00000000000E+00  0.74505805969E-08  0.10566000000E+00  0.10566000000E+00 0.  1.
     999900   -1    0    0    0    0 -0.00000000000E+00 -0.00000000000E+00 -0.74505805969E-08  0.93827000000E+00  0.93827000000E+00 0. -1.
     999902    2    1    2    0    0  0.37070578049E-02 -0.22375870373E-01 -0.87186810550E-02  0.10196310854E+01  0.10193415095E+01 0.  0.
     999903    2    3    3    0    0  0.53686932343E-01  0.20788149987E-01 -0.11565817279E+00  0.13070073073E+00  0.19784696017E-01 0.  0.
         14    1    1    2    0    0 -0.37070578049E-02  0.22375870373E-01  0.87186810550E-02  0.24298914623E-01  0.00000000000E+00 0.  1.
     999901    1    3    3    0    0 -0.49979874539E-01 -0.43164020360E-01  0.10693949174E+00  0.88893035464E+00  0.88000000000E+00 0.  1.
        -11    1    4    4    0    0  0.21599673489E-01  0.16955535835E-01 -0.65582995640E-01  0.71101522687E-01  0.51100000000E-03 0.  1.
         11    1    4    4    0    0  0.32087258854E-01  0.38326141510E-02 -0.50075177152E-01  0.59599208047E-01  0.51100000000E-03 0. -1.
</event>
<event>
 8    1  0.5489035E+004  0.1043930E+01  0.7957747E-01            NaN
         13   -1    0    0    0    0  0.00000000000E+00  0.00000000000E+00  0.74505805969E-08  0.10566000000E+00  0.10566000000E+00 0.  1.
     999900   -1    0    0    0    0 -0.00000000000E+00 -0.00000000000E+00 -0.74505805969E-08  0.93827000000E+00  0.93827000000E+00 0.  1.
     999902    2    1    2    0    0  0.23584213695E-01 -0.33860412313E-02  0.57929552846E-03  0.10200969139E+01  0.10198184631E+01 0.  0.
     999903    2    3    3    0    0  0.36067124257E-01  0.11656783251E+00 -0.42863029278E-01  0.13080956410E+00  0.19621563505E-01 0.  0.
         14    1    1    2    0    0 -0.23584213695E-01  0.33860412313E-02 -0.57929552846E-03  0.23833086122E-01  0.00000000000E+00 0.  1.
     999901    1    3    3    0    0 -0.12482910562E-01 -0.11995387374E+00  0.43442324807E-01  0.88928734977E+00  0.88000000000E+00 0.  1.
        -11    1    4    4    0    0  0.77265894131E-02  0.56303197728E-01 -0.23021533185E-01  0.61318858189E-01  0.51100000000E-03 0. -1.
         11    1    4    4    0    0  0.28340534843E-01  0.60264634781E-01 -0.19841496093E-01  0.69490705916E-01  0.51100000000E-03 0.  1.
</event>
<event>
 8    1  0.5489035E+004  0.1043930E+01  0.7957747E-01            NaN
         13   -1    0    0    0    0  0.00000000000E+00  0.00000000000E+00  0.74505805969E-08  0.10566000000E+00  0.10566000000E+00 0. -1.
     999900   -1    0    0    0    0 -0.00000000000E+00 -0.00000000000E+00 -0.74505805969E-08  0.93827000000E+00  0.93827000000E+00 0. -1.
     999902    2    1    2    0    0 -0.28295269661E-02 -0.66304906074E-02 -0.19403393627E-01  0.10232306929E+01  0.10230213046E+01 0.  0.
     999903    2    3    3    0    0  0.11059237209E+00  0.35446049869E-01  0.58620645067E-01  0.13153415652E+00  0.19436025558E-01 0.  0.
         14    1    1    2    0    0  0.28295269661E-02  0.66304906074E-02  0.19403393627E-01  0.20699307060E-01  0.00000000000E+00 0. -1.
     999901    1    3    3    0    0 -0.11342189905E+00 -0.42076540476E-01 -0.78024038694E-01  0.89169653642E+00  0.88000000000E+00 0.  1.
        -11    1    4    4    0    0  0.47053590244E-01  0.59881133832E-02  0.19280209003E-01  0.51204349785E-01  0.51100000000E-03 0.  1.
         11    1    4    4    0    0  0.63538781842E-01  0.29457936486E-01  0.39340436064E-01  0.80329806738E-01  0.51100000000E-03 0. -1.
</event>
<event>
 8    1  0.5489035E+004  0.1043930E+01  0.7957747E-01            NaN
         13   -1    0    0    0    0  0.00000000000E+00  0.00000000000E+00  0.74505805969E-08  0.10566000000E+00  0.10566000000E+00 0. -1.
     999900   -1    0    0    0    0 -0.00000000000E+00 -0.00000000000E+00 -0.74505805969E-08  0.93827000000E+00  0.93827000000E+00 0.  1.
     999902    2    1    2    0    0 -0.19117396278E-01  0.13026795433E-01  0.25163343996E-02  0.10206597577E+01  0.10203944515E+01 0.  0.
     999903    2    3    3    0    0  0.10041356782E+00  0.79920219743E-01 -0.61252939157E-02  0.13002118937E+00  0.19946536884E-01 0.  0.
         14    1    1    2    0    0  0.19117396278E-01 -0.13026795433E-01 -0.25163343996E-02  0.23270242338E-01  0.00000000000E+00 0.  1.
     999901    1    3    3    0    0 -0.11953096409E+00 -0.66893424310E-01  0.86416283154E-02  0.89063856829E+00  0.88000000000E+00 0. -1.
        -11    1    4    4    0    0  0.47502592284E-01  0.36333566803E-01  0.70224901873E-02  0.60217944499E-01  0.51100000000E-03 0.  1.
         11    1    4    4    0    0  0.52910975532E-01  0.43586652940E-01 -0.13147784103E-01  0.69803244868E-01  0.51100000000E-03 0. -1.
</event>
<event>
 8    1  0.5489035E+004  0.1043930E+01  0.7957747E-01            NaN
         13   -1    0    0    0    0  0.00000000000E+00  0.00000000000E+00  0.74505805969E-08  0.10566000000E+00  0.10566000000E+00 0.  1.
     999900   -1    0    0    0    0 -0.00000000000E+00 -0.00000000000E+00 -0.74505805969E-08  0.93827000000E+00  0.93827000000E+00 0. -1.
     999902    2    1    2    0    0 -0.17963415907E-01 -0.12602917712E-01 -0.90177161365E-02  0.10202058130E+01  0.10199299308E+01 0.  0.
     999903    2    3    3    0    0  0.36344409245E-01  0.94904410851E-02 -0.12370550259E+00  0.13082920841E+00  0.20056067587E-01 0.  0.
         14    1    1    2    0    0  0.17963415907E-01  0.12602917712E-01  0.90177161365E-02  0.23724187030E-01  0.00000000000E+00 0.  1.
     999901    1    3    3    0    0 -0.54307825152E-01 -0.22093358797E-01  0.11468778645E+00  0.88937660456E+00  0.88000000000E+00 0.  1.
        -11    1    4    4    0    0  0.41659136096E-02 -0.48884250034E-02 -0.30685867971E-01  0.31354986037E-01  0.51100000000E-03 0.  1.
         11    1    4    4    0    0  0.32178495635E-01  0.14378866088E-01 -0.93019634619E-01  0.99474222374E-01  0.51100000000E-03 0. -1.
</event>
<event>
 8    1  0.5489035E+004  0.1043930E+01  0.7957747E-01            NaN
         13   -1    0    0    0    0  0.00000000000E+00  0.00000000000E+00  0.74505805969E-08  0.10566000000E+00  0.10566000000E+00 0.  1.
     999900   -1    0    0    0    0 -0.00000000000E+00 -0.00000000000E+00 -0.74505805969E-08  0.93827000000E+00  0.93827000000E+00 0. -1.
     999902    2    1    2    0    0 -0.61531545533E-02 -0.18624804741E-01 -0.14088721920E-01  0.10197797050E+01  0.10194937028E+01 0.  0.
     999903    2    3    3    0    0  0.36959423660E-01  0.68092454861E-01 -0.10098438541E+00  0.13021271268E+00  0.27475862881E-01 0.  0.
         14    1    1    2    0    0  0.61531545533E-02  0.18624804741E-01  0.14088721920E-01  0.24150294987E-01  0.00000000000E+00 0.  1.
     999901    1    3    3    0    0 -0.43112578213E-01 -0.86717259603E-01  0.86895663489E-01  0.88956699233E+00  0.88000000000E+00 0.  1.
        -11    1    4    4    0    0  0.21311545782E-01  0.61697299120E-01 -0.79163735348E-01  0.10260553990E+00  0.51100000000E-03 0.  1.
         11    1    4    4    0    0  0.15647877878E-01  0.63951557408E-02 -0.21820650061E-01  0.27607172784E-01  0.51100000000E-03 0. -1.
</event>
<event>
 8    1  0.5489035E+004  0.1043930E+01  0.7957747E-01            NaN
         13   -1    0    0    0    0  0.00000000000E+00  0.00000000000E+00  0.74505805969E-08  0.10566000000E+00  0.10566000000E+00 0.  1.
     999900   -1    0    0    0    0 -0.00000000000E+00 -0.00000000000E+00 -0.74505805969E-08  0.93827000000E+00  0.93827000000E+00 0.  1.
     999902    2    1    2    0    0  0.80935583102E-02  0.14136851354E-01  0.18686055337E-01  0.10191403869E+01  0.10188388505E+01 0.  0.
     999903    2    3    3    0    0  0.10830197576E+00 -0.58391481379E-01  0.37418224213E-01  0.13029114204E+00  0.20899166023E-01 0.  0.
         14    1    1    2    0    0 -0.80935583102E-02 -0.14136851354E-01 -0.18686055337E-01  0.24789613074E-01  0.00000000000E+00 0. -1.
     999901    1    3    3    0    0 -0.10020841745E+00  0.72528332733E-01 -0.18732168876E-01  0.88884924488E+00  0.88000000000E+00 0. -1.
        -11    1    4    4    0    0  0.28448210106E-01 -0.13397785754E-01  0.19176738737E-01  0.36834898546E-01  0.51100000000E-03 0. -1.
         11    1    4    4    0    0  0.79853765654E-01 -0.44993695625E-01  0.18241485476E-01  0.93456243497E-01  0.51100000000E-03 0.  1.
</event>
<event>
 8    1  0.5489035E+004  0.1043930E+01  0.7957747E-01            NaN
         13   -1    0    0    0    0  0.00000000000E+00  0.00000000000E+00  0.74505805969E-08  0.10566000000E+00  0.10566000000E+00 0. -1.
     999900   -1    0    0    0    0 -0.00000000000E+00 -0.00000000000E+00 -0.74505805969E-08  0.93827000000E+00  0.93827000000E+00 0.  1.
     999902    2    1    2    0    0  0.17090841290E-01 -0.15954176672E-01  0.18538057323E-02  0.10204764458E+01  0.10202068943E+01 0.  0.
     999903    2    3    3    0    0 -0.12153009346E+00  0.16640903607E-01 -0.32003228415E-01  0.12838648308E+00  0.20307612331E-01 0.  0.
         14    1    1    2    0    0 -0.17090841290E-01  0.15954176672E-01 -0.18538057323E-02  0.23453554208E-01  0.00000000000E+00 0. -1.
     999901    1    3    3    0    0  0.13862093475E+00 -0.32595080279E-01  0.33857034147E-01  0.89208996271E+00  0.88000000000E+00 0.  1.
        -11    1    4    4    0    0 -0.44180454425E-01 -0.27631205427E-04 -0.36532885022E-02  0.44334196221E-01  0.51100000000E-03 0.  1.
         11    1    4    4    0    0 -0.77349639038E-01  0.16668534813E-01 -0.28349939913E-01  0.84052286859E-01  0.51100000000E-03 0. -1.
</event>
<event>
 8    1  0.5489035E+004  0.1043930E+01  0.7957747E-01            NaN
         13   -1    0    0    0    0  0.00000000000E+00  0.00000000000E+00  0.74505805969E-08  0.10566000000E+00  0.10566000000E+00 0.  1.
     999900   -1    0    0    0    0 -0.00000000000E+00 -0.00000000000E+00 -0.74505805969E-08  0.93827000000E+00  0.93827000000E+00 0.  1.
     999902    2    1    2    0    0  0.11280756577E-01  0.22492271645E-01 -0.27180944525E-02  0.10186209939E+01  0.10183065272E+01 0.  0.
     999903    2    3    3    0    0  0.98447180046E-01  0.27679681069E-02  0.82408724683E-01  0.13000768718E+00  0.20280333220E-01 0.  0.
         14    1    1    2    0    0 -0.11280756577E-01 -0.22492271645E-01  0.27180944525E-02  0.25309006107E-01  0.00000000000E+00 0.  1.
     999901    1    3    3    0    0 -0.87166423469E-01  0.19724303538E-01 -0.85126819136E-01  0.88861330671E+00  0.88000000000E+00 0.  1.
        -11    1    4    4    0    0  0.19059459603E-01 -0.60800084007E-02  0.22803186879E-01  0.30339346653E-01  0.51100000000E-03 0. -1.
         11    1    4    4    0    0  0.79387720443E-01  0.88479765076E-02  0.59605537804E-01  0.99668340527E-01  0.51100000000E-03 0.  1.
</event>
<event>
 8    1  0.5489035E+004  0.1043930E+01  0.7957747E-01            NaN
         13   -1    0    0    0    0  0.00000000000E+00  0.00000000000E+00  0.74505805969E-08  0.10566000000E+00  0.10566000000E+00 0.  1.
     999900   -1    0    0    0    0 -0.00000000000E+00 -0.00000000000E+00 -0.74505805969E-08  0.93827000000E+00  0.93827000000E+00 0.  1.
     999902    2    1    2    0    0 -0.22866679362E-01 -0.16329404673E-02 -0.14844122126E-02  0.10209570812E+01  0.10206985875E+01 0.  0.
     999903    2    3    3    0    0  0.12094620202E+00  0.36590141446E-01  0.13884898263E-01  0.12833209578E+00  0.17593014919E-01 0.  0.
         14    1    1    2    0    0  0.22866679362E-01  0.16329404673E-02  0.14844122126E-02  0.22972918823E-01  0.00000000000E+00 0.  1.
     999901    1    3    3    0    0 -0.14381288138E+00 -0.38223081914E-01 -0.15369310475E-01  0.89262498539E+00  0.88000000000E+00 0.  1.
        -11    1    4    4    0    0  0.79158262605E-01  0.19306303851E-01  0.16092220871E-01  0.83054106464E-01  0.51100000000E-03 0. -1.
         11    1    4    4    0    0  0.41787939418E-01  0.17283837596E-01 -0.22073226081E-02  0.45277989321E-01  0.51100000000E-03 0.  1.
</event>
<event>
 8    1  0.5489035E+004  0.1043930E+01  0.7957747E-01            NaN
         13   -1    0    0    0    0  0.00000000000E+00  0.00000000000E+00  0.74505805969E-08  0.10566000000E+00  0.10566000000E+00 0. -1.
     999900   -1    0    0    0    0 -0.00000000000E+00 -0.00000000000E+00 -0.74505805969E-08  0.93827000000E+00  0.93827000000E+00 0. -1.
     999902    2    1    2    0    0 -0.16501465019E-01 -0.76017272878E-02  0.16717218692E-01  0.10192409335E+01  0.10189418680E+01 0.  0.
     999903    2    3    3    0    0  0.30377838818E-01  0.63713504699E-01  0.10771417693E+00  0.13044175601E+00  0.20748108979E-01 0.  0.
         14    1    1    2    0    0  0.16501465019E-01  0.76017272878E-02 -0.16717218692E-01  0.24689066534E-01  0.00000000000E+00 0.  1.
     999901    1    3    3    0    0 -0.46879303837E-01 -0.71315231987E-01 -0.90996958239E-01  0.88879917746E+00  0.88000000000E+00 0.  1.
        -11    1    4    4    0    0  0.29823682725E-01  0.44575602742E-01  0.87216506259E-01  0.10238855647E+00  0.51100000000E-03 0. -1.
         11    1    4    4    0    0  0.55415609327E-03  0.19137901958E-01  0.20497670672E-01  0.28053199537E-01  0.51100000000E-03 0.  1.
</event>
<event>
 8    1  0.5489035E+004  0.1043930E+01  0.7957747E-01            NaN
         13   -1    0    0    0    0  0.00000000000E+00  0.00000000000E+00  0.74505805969E-08  0.10566000000E+00  0.10566000000E+00 0. -1.
     999900   -1    0    0    0    0 -0.00000000000E+00 -0.00000000000E+00 -0.74505805969E-08  0.93827000000E+00  0.93827000000E+00 0.  1.
     999902    2    1    2    0    0  0.98169066783E-02 -0.84770327901E-02 -0.18196010992E-01  0.10215843839E+01  0.10213399664E+01 0.  0.
     999903    2    3    3    0    0 -0.32955605075E-01 -0.99356980953E-01  0.76048639246E-01  0.13087078976E+00  0.19643994265E-01 0.  0.
         14    1    1    2    0    0 -0.98169066783E-02  0.84770327901E-02  0.18196010992E-01  0.22345616073E-01  0.00000000000E+00 0. -1.
     999901    1    3    3    0    0  0.42772511753E-01  0.90879948163E-01 -0.94244650238E-01  0.89071359417E+00  0.88000000000E+00 0. -1.
        -11    1    4    4    0    0 -0.16004708864E-01 -0.74242618404E-01  0.50205834721E-01  0.91043967699E-01  0.51100000000E-03 0. -1.
         11    1    4    4    0    0 -0.16950896211E-01 -0.25114362549E-01  0.25842804525E-01  0.39826822059E-01  0.51100000000E-03 0.  1.
</event>
<event>
 8    1  0.5489035E+004  0.1043930E+01  0.7957747E-01            NaN
         13   -1    0    0    0    0  0.00000000000E+00  0.00000000000E+00  0.74505805969E-08  0.10566000000E+00  0.10566000000E+00 0. -1.
     999900   -1    0    0    0    0 -0.00000000000E+00 -0.00000000000E+00 -0.74505805969E-08  0.93827000000E+00  0.93827000000E+00 0.  1.
     999902    2    1    2    0    0  0.84511601492E-02 -0.20491903601E-01  0.84928257640E-02  0.10201925125E+01  0.10199163173E+01 0.  0.
     999903    2    3    3    0    0  0.34696591677E-01 -0.83831804046E-01  0.95522154120E-01  0.13324557521E+00  0.19956867011E-01 0.  0.
         14    1    1    2    0    0 -0.84511601492E-02  0.20491903601E-01 -0.84928257640E-02  0.23737487452E-01  0.00000000000E+00 0.  1.
     999901    1    3    3    0    0 -0.26245431528E-01  0.63339900445E-01 -0.87029328356E-01  0.88694693734E+00  0.88000000000E+00 0.  1.
        -11    1    4    4    0    0  0.13458423243E-01 -0.53293455981E-01  0.64991715710E-01  0.85120537114E-01  0.51100000000E-03 0. -1.
         11    1    4    4    0    0  0.21238168434E-01 -0.30538348064E-01  0.30530438410E-01  0.48125038093E-01  0.51100000000E-03 0.  1.
</event>
<event>
 8    1  0.5489035E+004  0.1043930E+01  0.7957747E-01            NaN
         13   -1    0    0    0    0  0.00000000000E+00  0.00000000000E+00  0.74505805969E-08  0.10566000000E+00  0.10566000000E+00 0. -1.
     999900   -1    0    0    0    0 -0.00000000000E+00 -0.00000000000E+00 -0.74505805969E-08  0.93827000000E+00  0.93827000000E+00 0.  1.
     999902    2    1    2    0    0 -0.10722889047E-01  0.19953569131E-01 -0.73779801304E-02  0.10201064851E+01  0.10198282606E+01 0.  0.
     999903    2    3    3    0    0 -0.13019156886E+00 -0.16820177205E-02 -0.24605775388E-02  0.13175686649E+00  0.20028570539E-01 0.  0.
         14    1    1    2    0    0  0.10722889047E-01 -0.19953569131E-01  0.73779801304E-02  0.23823514883E-01  0.00000000000E+00 0. -1.
     999901    1    3    3    0    0  0.11946867981E+00  0.21635586851E-01 -0.49174025917E-02  0.88834961863E+00  0.88000000000E+00 0. -1.
        -11    1    4    4    0    0 -0.40558829802E-01  0.74931897888E-02  0.38862574356E-02  0.41431035299E-01  0.51100000000E-03 0.  1.
         11    1    4    4    0    0 -0.89632739060E-01 -0.91752075093E-02 -0.63468349743E-02  0.90325831186E-01  0.51100000000E-03 0. -1.
</event>
<event>
 8    1  0.5489035E+004  0.1043930E+01  0.7957747E-01            NaN
         13   -1    0    0    0    0  0.00000000000E+00  0.00000000000E+00  0.74505805969E-08  0.10566000000E+00  0.10566000000E+00 0.  1.
     999900   -1    0    0    0    0 -0.00000000000E+00 -0.00000000000E+00 -0.74505805969E-08  0.93827000000E+00  0.93827000000E+00 0.  1.
     999902    2    1    2    0    0  0.17475121895E-01 -0.20628647376E-01  0.36927360608E-02  0.10166434231E+01  0.10162771731E+01 0.  0.
     999903    2    3    3    0    0 -0.51506183660E-01 -0.95685859954E-02 -0.11315368991E+00  0.12617510099E+00  0.19286103152E-01 0.  0.
         14    1    1    2    0    0 -0.17475121895E-01  0.20628647376E-01 -0.36927360608E-02  0.27286576872E-01  0.00000000000E+00 0.  1.
     999901    1    3    3    0    0  0.68981305555E-01 -0.11060061380E-01  0.11684642597E+00  0.89046832214E+00  0.88000000000E+00 0. -1.
        -11    1    4    4    0    0 -0.57738935485E-02  0.49011876708E-02 -0.20082218434E-01  0.21468956787E-01  0.51100000000E-03 0.  1.
         11    1    4    4    0    0 -0.45732290112E-01 -0.14469773666E-01 -0.93071471479E-01  0.10470614420E+00  0.51100000000E-03 0. -1.
</event>
<event>
 7    1  0.5489035E+004  0.1043930E+01  0.7957747E-01            NaN
         13   -1    0    0    0    0  0.00000000000E+00  0.00000000000E+00  0.74505805969E-08  0.10566000000E+00  0.10566000000E+00 0.  1.
     999900   -1    0    0    0    0 -0.00000000000E+00 -0.00000000000E+00 -0.74505805969E-08  0.93827000000E+00  0.93827000000E+00 0. -1.
     999903    2    1    2    0    0  0.55913497043E-01 -0.86301742132E-01  0.46051345582E-01  0.11430603826E+00  0.19257053414E-01 0.  0.
         14    1    1    2    0    0  0.29071494793E-02  0.25911331913E-01 -0.37351992494E-01  0.45552387235E-01  0.00000000000E+00 0. -1.
     999901    1    1    2    0    0 -0.58820646522E-01  0.60390410219E-01 -0.86993530882E-02  0.88407157451E+00  0.88000000000E+00 0.  1.
        -11    1    3    3    0    0  0.28625322437E-01 -0.58277564724E-01  0.22900921180E-01  0.68850540642E-01  0.51100000000E-03 0.  1.
         11    1    3    3    0    0  0.27288174606E-01 -0.28024177408E-01  0.23150424401E-01  0.45455497618E-01  0.51100000000E-03 0. -1.
</event>
<event>
 8    1  0.5489035E+004  0.1043930E+01  0.7957747E-01            NaN
         13   -1    0    0    0    0  0.00000000000E+00  0.00000000000E+00  0.74505805969E-08  0.10566000000E+00  0.10566000000E+00 0.  1.
     999900   -1    0    0    0    0 -0.00000000000E+00 -0.00000000000E+00 -0.74505805969E-08  0.93827000000E+00  0.93827000000E+00 0.  1.
     999902    2    1    2    0    0  0.17496136558E-01  0.10320818870E-02  0.16913423284E-01  0.10195734018E+01  0.10192824328E+01 0.  0.
     999903    2    3    3    0    0  0.11653560808E+00 -0.54216592131E-01 -0.18355786306E-01  0.13159527707E+00  0.21456822770E-01 0.  0.
         14    1    1    2    0    0 -0.17496136558E-01 -0.10320818870E-02 -0.16913423284E-01  0.24356598175E-01  0.00000000000E+00 0. -1.
     999901    1    3    3    0    0 -0.99039471521E-01  0.55248674018E-01  0.35269209590E-01  0.88797812476E+00  0.88000000000E+00 0.  1.
        -11    1    4    4    0    0  0.49607930202E-01 -0.34804418879E-01 -0.74097788820E-02  0.61052929959E-01  0.51100000000E-03 0. -1.
         11    1    4    4    0    0  0.66927677877E-01 -0.19412173252E-01 -0.10946007424E-01  0.70542347111E-01  0.51100000000E-03 0.  1.
</event>
<event>
 8    1  0.5489035E+004  0.1043930E+01  0.7957747E-01            NaN
         13   -1    0    0    0    0  0.00000000000E+00  0.00000000000E+00  0.74505805969E-08  0.10566000000E+00  0.10566000000E+00 0.  1.
     999900   -1    0    0    0    0 -0.00000000000E+00 -0.00000000000E+00 -0.74505805969E-08  0.93827000000E+00  0.93827000000E+00 0.  1.
     999902    2    1    2    0    0 -0.69363511652E-02  0.15974265869E-01  0.17318538152E-01  0.10193694238E+01  0.10190735010E+01 0.  0.
     999903    2    3    3    0    0  0.12172615882E+00  0.50522373243E-02  0.39611910214E-01  0.12966704292E+00  0.20041350883E-01 0.  0.
         14    1    1    2    0    0  0.69363511652E-02 -0.15974265869E-01 -0.17318538152E-01  0.24560576160E-01  0.00000000000E+00 0.  1.
     999901    1    3    3    0    0 -0.12866250998E+00  0.10922028545E-01 -0.22293372061E-01  0.88970238092E+00  0.88000000000E+00 0. -1.
        -11    1    4    4    0    0  0.64811439390E-01 -0.48838918709E-02  0.27807180670E-01  0.70695653993E-01  0.51100000000E-03 0. -1.
         11    1    4    4    0    0  0.56914719429E-01  0.99361291952E-02  0.11804729544E-01  0.58971388924E-01  0.51100000000E-03 0.  1.
</event>
<event>
 8    1  0.5489035E+004  0.1043930E+01  0.7957747E-01            NaN
         13   -1    0    0    0    0  0.00000000000E+00  0.00000000000E+00  0.74505805969E-08  0.10566000000E+00  0.10566000000E+00 0.  1.
     999900   -1    0    0    0    0 -0.00000000000E+00 -0.00000000000E+00 -0.74505805969E-08  0.93827000000E+00  0.93827000000E+00 0. -1.
     999902    2    1    2    0    0 -0.14488716547E-01  0.60561100919E-02 -0.18076512188E-01  0.10199850701E+01  0.10197039686E+01 0.  0.
     999903    2    3    3    0    0 -0.77042499460E-01  0.10447995833E+00 -0.21867869453E-01  0.13228320342E+00  0.13001299034E-01 0.  0.
         14    1    1    2    0    0  0.14488716547E-01 -0.60561100919E-02  0.18076512188E-01  0.23944929934E-01  0.00000000000E+00 0.  1.
     999901    1    3    3    0    0  0.62553782912E-01 -0.98423848239E-01  0.37913572652E-02  0.88770186665E+00  0.88000000000E+00 0. -1.
        -11    1    4    4    0    0 -0.46018897596E-01  0.54659439677E-01 -0.16585478496E-01  0.73353476398E-01  0.51100000000E-03 0.  1.
         11    1    4    4    0    0 -0.31023601864E-01  0.49820518654E-01 -0.52823909572E-02  0.58929727021E-01  0.51100000000E-03 0. -1.
</event>
<event>
 8    1  0.5489035E+004  0.1043930E+01  0.7957747E-01            NaN
         13   -1    0    0    0    0  0.00000000000E+00  0.00000000000E+00  0.74505805969E-08  0.10566000000E+00  0.10566000000E+00 0. -1.
     999900   -1    0    0    0    0 -0.00000000000E+00 -0.00000000000E+00 -0.74505805969E-08  0.93827000000E+00  0.93827000000E+00 0.  1.
     999902    2    1    2    0    0 -0.22905273663E-01 -0.25298446197E-02  0.23590308150E-02  0.10207650113E+01  0.10205021272E+01 0.  0.
     999903    2    3    3    0    0 -0.96088282864E-01 -0.56553752962E-01  0.70371506436E-01  0.13346571999E+00  0.20728348140E-01 0.  0.
         14    1    1    2    0    0  0.22905273663E-01  0.25298446197E-02 -0.23590308150E-02  0.23164988706E-01  0.00000000000E+00 0.  1.
     999901    1    3    3    0    0  0.73183009202E-01  0.54023908342E-01 -0.68012475621E-01  0.88729929130E+00  0.88000000000E+00 0.  1.
        -11    1    4    4    0    0 -0.59793346643E-01 -0.40528338864E-01  0.34821471946E-01  0.80190938287E-01  0.51100000000E-03 0.  1.
         11    1    4    4    0    0 -0.36294936221E-01 -0.16025414098E-01  0.35550034490E-01  0.53274781703E-01  0.51100000000E-03 0. -1.
</event>
<event>
 8    1  0.5489035E+004  0.1043930E+01  0.7957747E-01            NaN
         13   -1    0    0    0    0  0.00000000000E+00  0.00000000000E+00  0.74505805969E-08  0.10566000000E+00  0.10566000000E+00 0.  1.
     999900   -1    0    0    0    0 -0.00000000000E+00 -0.00000000000E+00 -0.74505805969E-08  0.93827000000E+00  0.93827000000E+00 0. -1.
     999902    2    1    2    0    0 -0.21010048551E-01  0.89797053040E-02 -0.38793898921E-02  0.10207544328E+01  0.10204913058E+01 0.  0.
     999903    2    3    3    0    0  0.79460986572E-01 -0.96510284535E-01 -0.22181277910E-01  0.12858991552E+00  0.20373361906E-01 0.  0.
         14    1    1    2    0    0  0.21010048551E-01 -0.89797053040E-02  0.38793898921E-02  0.23175567164E-01  0.00000000000E+00 0.  1.
     999901    1    3    3    0    0 -0.10047103512E+00  0.10548998984E+00  0.18301888018E-01  0.89216451732E+00  0.88000000000E+00 0.  1.
        -11    1    4    4    0    0  0.49606439954E-01 -0.63728939340E-01 -0.46077454040E-02  0.80892947980E-01  0.51100000000E-03 0.  1.
         11    1    4    4    0    0  0.29854546618E-01 -0.32781345195E-01 -0.17573532507E-01  0.47696967538E-01  0.51100000000E-03 0. -1.
</event>
<event>
 8    1  0.5489035E+004  0.1043930E+01  0.7957747E-01            NaN
         13   -1    0    0    0    0  0.00000000000E+00  0.00000000000E+00  0.74505805969E-08  0.10566000000E+00  0.10566000000E+00 0.  1.
     999900   -1    0    0    0    0 -0.00000000000E+00 -0.00000000000E+00 -0.74505805969E-08  0.93827000000E+00  0.93827000000E+00 0. -1.
     999902    2    1    2    0    0 -0.13229605956E-02 -0.22947728623E-01  0.10093033342E-01  0.10188258610E+01  0.10185165277E+01 0.  0.
     999903    2    3    3    0    0  0.51933388713E-01 -0.11952226904E+00 -0.34354232572E-03  0.13188065258E+00  0.20242006921E-01 0.  0.
         14    1    1    2    0    0  0.13229605956E-02  0.22947728623E-01 -0.10093033342E-01  0.25104139016E-01  0.00000000000E+00 0. -1.
     999901    1    3    3    0    0 -0.53256349308E-01  0.96574540417E-01  0.10436575668E-01  0.88694520840E+00  0.88000000000E+00 0. -1.
        -11    1    4    4    0    0  0.41050504724E-01 -0.86317061784E-01 -0.86092268505E-02  0.95969573309E-01  0.51100000000E-03 0.  1.
         11    1    4    4    0    0  0.10882883988E-01 -0.33205207255E-01  0.82656845247E-02  0.35911079271E-01  0.51100000000E-03 0. -1.
</event>
<event>
 8    1  0.5489035E+004  0.1043930E+01  0.7957747E-01            NaN
         13   -1    0    0    0    0  0.00000000000E+00  0.00000000000E+00  0.74505805969E-08  0.10566000000E+00  0.10566000000E+00 0.  1.
     999900   -1    0    0    0    0 -0.00000000000E+00 -0.00000000000E+00 -0.74505805969E-08  0.93827000000E+00  0.93827000000E+00 0. -1.
     999902    2    1    2    0    0 -0.22543473515E-01 -0.16350084925E-02  0.93708731101E-02  0.10194617611E+01  0.10191680861E+01 0.  0.
     999903    2    3    3    0    0 -0.85448397908E-01  0.69968971109E-01  0.69993301436E-01  0.13224181194E+00  0.19792649058E-01 0.  0.
         14    1    1    2    0    0  0.22543473515E-01  0.16350084925E-02 -0.93708731101E-02  0.24468238877E-01  0.00000000000E+00 0. -1.
     999901    1    3    3    0    0  0.62904924393E-01 -0.71603979602E-01 -0.60622428326E-01  0.88721994918E+00  0.88000000000E+00 0. -1.
        -11    1    4    4    0    0 -0.36555181975E-01  0.23019009355E-01  0.36862836930E-01  0.56791601390E-01  0.51100000000E-03 0. -1.
         11    1    4    4    0    0 -0.48893215934E-01  0.46949961754E-01  0.33130464506E-01  0.75450210553E-01  0.51100000000E-03 0.  1.
</event>
<event>
 8    1  0.5489035E+004  0.1043930E+01  0.7957747E-01            NaN
         13   -1    0    0    0    0  0.00000000000E+00  0.00000000000E+00  0.74505805969E-08  0.10566000000E+00  0.10566000000E+00 0.  1.
     999900   -1    0    0    0    0 -0.00000000000E+00 -0.00000000000E+00 -0.74505805969E-08  0.93827000000E+00  0.93827000000E+00 0.  1.
     999902    2    1    2    0    0 -0.33130816346E-02  0.19102245838E-01 -0.12288974684E-01  0.10209758892E+01  0.10207178234E+01 0.  0.
     999903    2    3    3    0    0 -0.89627891912E-01 -0.59705592709E-01 -0.72248146761E-01  0.13122534872E+00  0.20059427369E-01 0.  0.
         14    1    1    2    0    0  0.33130816346E-02 -0.19102245838E-01  0.12288974684E-01  0.22954110847E-01  0.00000000000E+00 0.  1.
     999901    1    3    3    0    0  0.86314810277E-01  0.78807838547E-01  0.59959172077E-01  0.88975054044E+00  0.88000000000E+00 0.  1.
        -11    1    4    4    0    0 -0.21162330198E-01 -0.13798610866E-01 -0.27816786122E-01  0.37580321877E-01  0.51100000000E-03 0. -1.
         11    1    4    4    0    0 -0.68465561714E-01 -0.45906981843E-01 -0.44431360640E-01  0.93645026841E-01  0.51100000000E-03 0.  1.
</event>
<event>
 8    1  0.5489035E+004  0.1043930E+01  0.7957747E-01            NaN
         13   -1    0    0    0    0  0.00000000000E+00  0.00000000000E+00  0.74505805969E-08  0.10566000000E+00  0.10566000000E+00 0. -1.
     999900   -1    0    0    0    0 -0.00000000000E+00 -0.00000000000E+00 -0.74505805969E-08  0.93827000000E+00  0.93827000000E+00 0.  1.
     999902    2    1    2    0    0  0.86575372530E-03 -0.22926831772E-01  0.14424673442E-03  0.10209863745E+01  0.10207285471E+01 0.  0.
     999903    2    3    3    0    0  0.39866046073E-01  0.11401095692E+00  0.39194959592E-01  0.12868713155E+00  0.20888586353E-01 0.  0.
         14    1    1    2    0    0 -0.86575372530E-03  0.22926831772E-01 -0.14424673442E-03  0.22943625515E-01  0.00000000000E+00 0.  1.
     999901    1    3    3    0    0 -0.39000292348E-01 -0.13693778870E+00 -0.39050712857E-01  0.89229924294E+00  0.88000000000E+00 0. -1.
        -11    1    4    4    0    0  0.36659927019E-01  0.76193599759E-01  0.25170766703E-01  0.88222692719E-01  0.51100000000E-03 0.  1.
         11    1    4    4    0    0  0.32061190542E-02  0.37817357165E-01  0.14024192889E-01  0.40464438826E-01  0.51100000000E-03 0. -1.
</event>
<event>
 8    1  0.5489035E+004  0.1043930E+01  0.7957747E-01            NaN
         13   -1    0    0    0    0  0.00000000000E+00  0.00000000000E+00  0.74505805969E-08  0.10566000000E+00  0.10566000000E+00 0.  1.
     999900   -1    0    0    0    0 -0.00000000000E+00 -0.00000000000E+00 -0.74505805969E-08  0.93827000000E+00  0.93827000000E+00 0.  1.
     999902    2    1    2    0    0 -0.11718301703E-01  0.20312331065E-01 -0.54700955567E-02  0.10198503128E+01  0.10195660005E+01 0.  0.
     999903    2    3    3    0    0 -0.43640879567E-01  0.20444613158E-01 -0.12092024161E+00  0.13173556536E+00  0.20249587012E-01 0.  0.
         14    1    1    2    0    0  0.11718301703E-01 -0.20312331065E-01  0.54700955567E-02  0.24079687155E-01  0.00000000000E+00 0. -1.
     999901    1    3    3    0    0  0.31922577864E-01 -0.13228209348E-03  0.11545014605E+00  0.88811474748E+00  0.88000000000E+00 0. -1.
        -11    1    4    4    0    0 -0.14709167707E-01  0.17946329834E-01 -0.55536257385E-01  0.60191090490E-01  0.51100000000E-03 0. -1.
         11    1    4    4    0    0 -0.28931711860E-01  0.24982833244E-02 -0.65383984222E-01  0.71544474870E-01  0.51100000000E-03 0.  1.
</event>
<event>
 8    1  0.5489035E+004  0.1043930E+01  0.7957747E-01            NaN
         13   -1    0    0    0    0  0.00000000000E+00  0.00000000000E+00  0.74505805969E-08  0.10566000000E+00  0.10566000000E+00 0.  1.
     999900   -1    0    0    0    0 -0.00000000000E+00 -0.00000000000E+00 -0.74505805969E-08  0.93827000000E+00  0.93827000000E+00 0.  1.
     999902    2    1    2    0    0 -0.10649691275E-01 -0.38143663720E-02 -0.19714470175E-01  0.10212005994E+01  0.10209476180E+01 0.  0.
     999903    2    3    3    0    0 -0.40047848358E-01  0.62606821132E-02  0.12130896616E+00  0.12943080413E+00  0.19835359590E-01 0.  0.
         14    1    1    2    0    0  0.10649691275E-01  0.38143663720E-02  0.19714470175E-01  0.22729400550E-01  0.00000000000E+00 0.  1.
     999901    1    3    3    0    0  0.29398157082E-01 -0.10075048485E-01 -0.14102343633E+00  0.89176979532E+00  0.88000000000E+00 0.  1.
        -11    1    4    4    0    0 -0.27689420444E-01 -0.27987702436E-02  0.58602363033E-01  0.64877077565E-01  0.51100000000E-03 0.  1.
         11    1    4    4    0    0 -0.12358427914E-01  0.90594523568E-02  0.62706603125E-01  0.64553726569E-01  0.51100000000E-03 0. -1.
</event>
<event>
 8    1  0.5489035E+004  0.1043930E+01  0.7957747E-01            NaN
         13   -1    0    0    0    0  0.00000000000E+00  0.00000000000E+00  0.74505805969E-08  0.10566000000E+00  0.10566000000E+00 0. -1.
     999900   -1    0    0    0    0 -0.00000000000E+00 -0.00000000000E+00 -0.74505805969E-08  0.93827000000E+00  0.93827000000E+00 0. -1.
     999902    2    1    2    0    0  0.18746165324E-01  0.71778229951E-02  0.39506444370E-03  0.10238527509E+01  0.10236558794E+01 0.  0.
     999903    2    3    3    0    0 -0.44835106937E-01 -0.12210313020E+00  0.11335749007E-01  0.13207035496E+00  0.19867517082E-01 0.  0.
         14    1    1    2    0    0 -0.18746165324E-01 -0.71778229951E-02 -0.39506444370E-03  0.20077249145E-01  0.00000000000E+00 0.  1.
     999901    1    3    3    0    0  0.63581272261E-01  0.12928095320E+00 -0.10940684563E-01  0.89178239589E+00  0.88000000000E+00 0. -1.
        -11    1    4    4    0    0 -0.28070450968E-01 -0.93498043631E-01  0.14770285613E-01  0.98733261055E-01  0.51100000000E-03 0.  1.
         11    1    4    4    0    0 -0.16764655969E-01 -0.28605086573E-01 -0.34345366061E-02  0.33337093909E-01  0.51100000000E-03 0. -1.
</event>
<event>
 8    1  0.5489035E+004  0.1043930E+01  0.7957747E-01            NaN
         13   -1    0    0    0    0  0.00000000000E+00  0.00000000000E+00  0.74505805969E-08  0.10566000000E+00  0.10566000000E+00 0.  1.
     999900   -1    0    0    0    0 -0.00000000000E+00 -0.00000000000E+00 -0.74505805969E-08  0.93827000000E+00  0.93827000000E+00 0. -1.
     999902    2    1    2    0    0 -0.70021235880E-02  0.15417806347E-02  0.22533808620E-01  0.10202830266E+01  0.10200089583E+01 0.  0.
     999903    2    3    3    0    0  0.55331377499E-01 -0.63541934465E-01 -0.94280767019E-01  0.12800112020E+00  0.19906907609E-01 0.  0.
         14    1    1    2    0    0  0.70021235880E-02 -0.15417806347E-02 -0.22533808620E-01  0.23646973447E-01  0.00000000000E+00 0. -1.
     999901    1    3    3    0    0 -0.62333501087E-01  0.65083715099E-01  0.11681457564E+00  0.89228190636E+00  0.88000000000E+00 0.  1.
        -11    1    4    4    0    0  0.47777233891E-01 -0.44365422423E-01 -0.63961668655E-01  0.91336252185E-01  0.51100000000E-03 0. -1.
         11    1    4    4    0    0  0.75541436074E-02 -0.19176512042E-01 -0.30319098364E-01  0.36664868012E-01  0.51100000000E-03 0.  1.
</event>
<event>
 8    1  0.5489035E+004  0.1043930E+01  0.7957747E-01            NaN
         13   -1    0    0    0    0  0.00000000000E+00  0.00000000000E+00  0.74505805969E-08  0.10566000000E+00  0.10566000000E+00 0. -1.
     999900   -1    0    0    0    0 -0.00000000000E+00 -0.00000000000E+00 -0.74505805969E-08  0.93827000000E+00  0.93827000000E+00 0.  1.
     999902    2    1    2    0    0 -0.11520543419E-01  0.20501404573E-01 -0.32157979723E-02  0.10201945441E+01  0.10199183967E+01 0.  0.
     999903    2    3    3    0    0 -0.40519843846E-01  0.15787081712E-01  0.12183026935E+00  0.13086912379E+00  0.19824816145E-01 0.  0.
         14    1    1    2    0    0  0.11520543419E-01 -0.20501404573E-01  0.32157979723E-02  0.23735455899E-01  0.00000000000E+00 0. -1.
     999901    1    3    3    0    0  0.28999300427E-01  0.47143228617E-02 -0.12504606733E+00  0.88932542032E+00  0.88000000000E+00 0. -1.
        -11    1    4    4    0    0 -0.84053478155E-02  0.11242282375E-01  0.24083734782E-01  0.27880570061E-01  0.51100000000E-03 0.  1.
         11    1    4    4    0    0 -0.32114496031E-01  0.45447993364E-02  0.97746534572E-01  0.10298855372E+00  0.51100000000E-03 0. -1.
</event>
<event>
 8    1  0.5489035E+004  0.1043930E+01  0.7957747E-01            NaN
         13   -1    0    0    0    0  0.00000000000E+00  0.00000000000E+00  0.74505805969E-08  0.10566000000E+00  0.10566000000E+00 0. -1.
     999900   -1    0    0    0    0 -0.00000000000E+00 -0.00000000000E+00 -0.74505805969E-08  0.93827000000E+00  0.93827000000E+00 0. -1.
     999902    2    1    2    0    0 -0.22802991551E-01 -0.98782565847E-02 -0.57351048703E-02  0.10184261218E+01  0.10181067320E+01 0.  0.
     999903    2    3    3    0    0 -0.89578574700E-01 -0.62911690712E-01  0.69629641848E-01  0.13109790252E+00  0.18872497087E-01 0.  0.
         14    1    1    2    0    0  0.22802991551E-01  0.98782565847E-02  0.57351048703E-02  0.25503878229E-01  0.00000000000E+00 0. -1.
     999901    1    3    3    0    0  0.66775583149E-01  0.53033434128E-01 -0.75364746718E-01  0.88732821926E+00  0.88000000000E+00 0. -1.
        -11    1    4    4    0    0 -0.86288748920E-01 -0.64145650338E-01  0.67659778615E-01  0.12703747247E+00  0.51100000000E-03 0.  1.
         11    1    4    4    0    0 -0.32898257807E-02  0.12339596252E-02  0.19698632326E-02  0.40604300486E-02  0.51100000000E-03 0. -1.
</event>
<event>
 8    1  0.5489035E+004  0.1043930E+01  0.7957747E-01            NaN
         13   -1    0    0    0    0  0.00000000000E+00  0.00000000000E+00  0.74505805969E-08  0.10566000000E+00  0.10566000000E+00 0. -1.
     999900   -1    0    0    0    0 -0.00000000000E+00 -0.00000000000E+00 -0.74505805969E-08  0.93827000000E+00  0.93827000000E+00 0.  1.
     999902    2    1    2    0    0 -0.10181659652E-02 -0.34713653921E-02  0.23206136950E-01  0.10204435820E+01  0.10201732658E+01 0.  0.
     999903    2    3    3    0    0 -0.45439006258E-01 -0.11999267137E+00  0.21381318770E-01  0.13165015504E+00  0.20289358250E-01 0.  0.
         14    1    1    2    0    0  0.10181659652E-02  0.34713653921E-02 -0.23206136950E-01  0.23486418027E-01  0.00000000000E+00 0.  1.
     999901    1    3    3    0    0  0.44420840293E-01  0.11652130597E+00  0.18248181803E-02  0.88879342693E+00  0.88000000000E+00 0. -1.
        -11    1    4    4    0    0 -0.31054776874E-01 -0.82004840779E-01  0.24085263425E-01  0.90937088765E-01  0.51100000000E-03 0. -1.
         11    1    4    4    0    0 -0.14384229384E-01 -0.37987830588E-01 -0.27039446557E-02  0.40713066274E-01  0.51100000000E-03 0.  1.
</event>
<event>
 8    1  0.5489035E+004  0.1043930E+01  0.7957747E-01            NaN
         13   -1    0    0    0    0  0.00000000000E+00  0.00000000000E+00  0.74505805969E-08  0.10566000000E+00  0.10566000000E+00 0.  1.
     999900   -1    0    0    0    0 -0.00000000000E+00 -0.00000000000E+00 -0.74505805969E-08  0.93827000000E+00  0.93827000000E+00 0.  1.
     999902    2    1    2    0    0  0.49689207798E-03 -0.19920993345E-01  0.10681252702E-01  0.10213206648E+01  0.10210703788E+01 0.  0.
     999903    2    3    3    0    0 -0.66496431601E-02  0.12677809224E+00  0.12503521217E-01  0.12914634591E+00  0.20137978857E-01 0.  0.
         14    1    1    2    0    0 -0.49689207798E-03  0.19920993345E-01 -0.10681252702E-01  0.22609335171E-01  0.00000000000E+00 0. -1.
     999901    1    3    3    0    0  0.71465352380E-02 -0.14669908559E+00 -0.18222685145E-02  0.89217431892E+00  0.88000000000E+00 0.  1.
        -11    1    4    4    0    0  0.50606838806E-02  0.10498717496E-01  0.80755786088E-03  0.11693881353E-01  0.51100000000E-03 0.  1.
         11    1    4    4    0    0 -0.11710327041E-01  0.11627937475E+00  0.11695963356E-01  0.11745246456E+00  0.51100000000E-03 0. -1.
</event>
<event>
 8    1  0.5489035E+004  0.1043930E+01  0.7957747E-01            NaN
         13   -1    0    0    0    0  0.00000000000E+00  0.00000000000E+00  0.74505805969E-08  0.10566000000E+00  0.10566000000E+00 0.  1.
     999900   -1    0    0    0    0 -0.00000000000E+00 -0.00000000000E+00 -0.74505805969E-08  0.93827000000E+00  0.93827000000E+00 0.  1.
     999902    2    1    2    0    0 -0.97208428847E-02 -0.53605006383E-02  0.20202654313E-01  0.10208783841E+01  0.10206180961E+01 0.  0.
     999903    2    3    3    0    0 -0.18525460210E-03  0.12304285401E+00 -0.35533466653E-01  0.12976398960E+00  0.20892283355E-01 0.  0.
         14    1    1    2    0    0  0.97208428847E-02  0.53605006383E-02 -0.20202654313E-01  0.23051615882E-01  0.00000000000E+00 0. -1.
     999901    1    3    3    0    0 -0.95355882826E-02 -0.12840335465E+00  0.55736120966E-01  0.89111439451E+00  0.88000000000E+00 0. -1.
        -11    1    4    4    0    0 -0.84987732150E-02  0.98830829025E-01 -0.27906345296E-01  0.10304749944E+00  0.51100000000E-03 0.  1.
         11    1    4    4    0    0  0.83135186129E-02  0.24212024983E-01 -0.76271213572E-02  0.26716490165E-01  0.51100000000E-03 0. -1.
</event>
<event>
 8    1  0.5489035E+004  0.1043930E+01  0.7957747E-01            NaN
         13   -1    0    0    0    0  0.00000000000E+00  0.00000000000E+00  0.74505805969E-08  0.10566000000E+00  0.10566000000E+00 0. -1.
     999900   -1    0    0    0    0 -0.00000000000E+00 -0.00000000000E+00 -0.74505805969E-08  0.93827000000E+00  0.93827000000E+00 0. -1.
     999902    2    1    2    0    0 -0.16318042734E-01 -0.47493998496E-02 -0.17569649852E-01  0.10194856159E+01  0.10191925202E+01 0.  0.
     999903    2    3    3    0    0  0.65472869429E-02 -0.71599205224E-01 -0.10884264285E+00  0.13194830456E+00  0.19857517979E-01 0.  0.
         14    1    1    2    0    0  0.16318042734E-01  0.47493998496E-02  0.17569649852E-01  0.24444384090E-01  0.00000000000E+00 0. -1.
     999901    1    3    3    0    0 -0.22865329677E-01  0.66849805374E-01  0.91272992996E-01  0.88753731135E+00  0.88000000000E+00 0. -1.
        -11    1    4    4    0    0  0.63868392796E-02 -0.25592497146E-01 -0.55859085917E-01  0.61775935660E-01  0.51100000000E-03 0. -1.
         11    1    4    4    0    0  0.16044766332E-03 -0.46006708078E-01 -0.52983556931E-01  0.70172368905E-01  0.51100000000E-03 0.  1.
</event>
<event>
 8    1  0.5489035E+004  0.1043930E+01  0.7957747E-01            NaN
         13   -1    0    0    0    0  0.00000000000E+00  0.00000000000E+00  0.74505805969E-08  0.10566000000E+00  0.10566000000E+00 0.  1.
     999900   -1    0    0    0    0 -0.00000000000E+00 -0.00000000000E+00 -0.74505805969E-08  0.93827000000E+00  0.93827000000E+00 0.  1.
     999902    2    1    2    0    0  0.64529403566E-02  0.19988323263E-01 -0.12926177517E-01  0.10192670810E+01  0.10189686565E+01 0.  0.
     999903    2    3    3    0    0 -0.45873829535E-01 -0.11622350008E+00 -0.15289620627E-01  0.12724839429E+00  0.18602987452E-01 0.  0.
         14    1    1    2    0    0 -0.64529403566E-02 -0.19988323263E-01  0.12926177517E-01  0.24662918954E-01  0.00000000000E+00 0. -1.
     999901    1    3    3    0    0  0.52326769891E-01  0.13621182334E+00  0.23634431102E-02  0.89201868676E+00  0.88000000000E+00 0.  1.
        -11    1    4    4    0    0  0.18164607323E-03 -0.12683570250E-01 -0.42600888761E-02  0.13390871062E-01  0.51100000000E-03 0.  1.
         11    1    4    4    0    0 -0.46055475608E-01 -0.10353992983E+00 -0.11029531751E-01  0.11385752322E+00  0.51100000000E-03 0. -1.
</event>
<event>
 8    1  0.5489035E+004  0.1043930E+01  0.7957747E-01            NaN
         13   -1    0    0    0    0  0.00000000000E+00  0.00000000000E+00  0.74505805969E-08  0.10566000000E+00  0.10566000000E+00 0.  1.
     999900   -1    0    0    0    0 -0.00000000000E+00 -0.00000000000E+00 -0.74505805969E-08  0.93827000000E+00  0.93827000000E+00 0. -1.
     999902    2    1    2    0    0 -0.10968865771E-02 -0.19031529954E-01 -0.14110021288E-01  0.10202130231E+01  0.10199373106E+01 0.  0.
     999903    2    3    3    0    0 -0.68836418548E-01 -0.10563879385E+00  0.31894051807E-01  0.13217820560E+00  0.23576263693E-01 0.  0.
         14    1    1    2    0    0  0.10968865771E-02  0.19031529954E-01  0.14110021288E-01  0.23716976900E-01  0.00000000000E+00 0.  1.
     999901    1    3    3    0    0  0.67739531971E-01  0.86607263899E-01 -0.46004073095E-01  0.88803481750E+00  0.88000000000E+00 0.  1.
        -11    1    4    4    0    0 -0.12149116114E-01 -0.36725188133E-01  0.51824722332E-02  0.39031520663E-01  0.51100000000E-03 0. -1.
         11    1    4    4    0    0 -0.56687302434E-01 -0.68913605719E-01  0.26711579573E-01  0.93146684937E-01  0.51100000000E-03 0.  1.
</event>
<event>
 8    1  0.5489035E+004  0.1043930E+01  0.7957747E-01            NaN
         13   -1    0    0    0    0  0.00000000000E+00  0.00000000000E+00  0.74505805969E-08  0.10566000000E+00  0.10566000000E+00 0.  1.
     999900   -1    0    0    0    0 -0.00000000000E+00 -0.00000000000E+00 -0.74505805969E-08  0.93827000000E+00  0.93827000000E+00 0. -1.
     999902    2    1    2    0    0 -0.28979745257E-02 -0.14851073525E-01  0.18255008863E-01  0.10202192853E+01  0.10199437201E+01 0.  0.
     999903    2    3    3    0    0  0.26890138012E-01 -0.14152211751E-01  0.12785594491E+00  0.13291990788E+00  0.19929742681E-01 0.  0.
         14    1    1    2    0    0  0.28979745257E-02  0.14851073525E-01 -0.18255008863E-01  0.23710714661E-01  0.00000000000E+00 0.  1.
     999901    1    3    3    0    0 -0.29788112538E-01 -0.69886177370E-03 -0.10960093604E+00  0.88729937746E+00  0.88000000000E+00 0. -1.
        -11    1    4    4    0    0  0.27596153878E-01 -0.66217902410E-02  0.10795294094E+00  0.11162210531E+00  0.51100000000E-03 0.  1.
         11    1    4    4    0    0 -0.70601586589E-03 -0.75304215099E-02  0.19903003964E-01  0.21297802570E-01  0.51100000000E-03 0. -1.
</event>
<event>
 8    1  0.5489035E+004  0.1043930E+01  0.7957747E-01            NaN
         13   -1    0    0    0    0  0.00000000000E+00  0.00000000000E+00  0.74505805969E-08  0.10566000000E+00  0.10566000000E+00 0. -1.
     999900   -1    0    0    0    0 -0.00000000000E+00 -0.00000000000E+00 -0.74505805969E-08  0.93827000000E+00  0.93827000000E+00 0. -1.
     999902    2    1    2    0    0  0.13437853487E-01 -0.12926997457E-01  0.15027416645E-01  0.10199820059E+01  0.10197008316E+01 0.  0.
     999903    2    3    3    0    0 -0.18545132571E-01  0.98559342766E-01 -0.76594522608E-01  0.12765544282E+00  0.19269800203E-01 0.  0.
         14    1    1    2    0    0 -0.13437853487E-01  0.12926997457E-01 -0.15027416645E-01  0.23947994083E-01  0.00000000000E+00 0.  1.
     999901    1    3    3    0    0  0.31982986058E-01 -0.11148634022E+00  0.91621939253E-01  0.89232656310E+00  0.88000000000E+00 0.  1.
        -11    1    4    4    0    0  0.94530475647E-03  0.39372662048E-01 -0.24094257638E-01  0.46172442972E-01  0.51100000000E-03 0. -1.
         11    1    4    4    0    0 -0.19490437328E-01  0.59186680717E-01 -0.52500264970E-01  0.81482999850E-01  0.51100000000E-03 0.  1.
</event>
<event>
 8    1  0.5489035E+004  0.1043930E+01  0.7957747E-01            NaN
         13   -1    0    0    0    0  0.00000000000E+00  0.00000000000E+00  0.74505805969E-08  0.10566000000E+00  0.10566000000E+00 0.  1.
     999900   -1    0    0    0    0 -0.00000000000E+00 -0.00000000000E+00 -0.74505805969E-08  0.93827000000E+00  0.93827000000E+00 0. -1.
     999902    2    1    2    0    0 -0.24700347292E-02 -0.12787935391E-01 -0.16369124507E-01  0.10230115727E+01  0.10227976815E+01 0.  0.
     999903    2    3    3    0    0  0.10216836845E+00 -0.66496211783E-01  0.48629688368E-01  0.13281012357E+00  0.20336190370E-01 0.  0.
         14    1    1    2    0    0  0.24700347292E-02  0.12787935391E-01  0.16369124507E-01  0.20918427289E-01  0.00000000000E+00 0.  1.
     999901    1    3    3    0    0 -0.10463840318E+00  0.53708276393E-01 -0.64998812876E-01  0.89020144914E+00  0.88000000000E+00 0. -1.
        -11    1    4    4    0    0  0.31849833602E-01 -0.30432979876E-01  0.11720352064E-01  0.45587344056E-01  0.51100000000E-03 0. -1.
         11    1    4    4    0    0  0.70318534850E-01 -0.36063231908E-01  0.36909336304E-01  0.87222779516E-01  0.51100000000E-03 0.  1.
</event>
<event>
 8    1  0.5489035E+004  0.1043930E+01  0.7957747E-01            NaN
         13   -1    0    0    0    0  0.00000000000E+00  0.00000000000E+00  0.74505805969E-08  0.10566000000E+00  0.10566000000E+00 0. -1.
     999900   -1    0    0    0    0 -0.00000000000E+00 -0.00000000000E+00 -0.74505805969E-08  0.93827000000E+00  0.93827000000E+00 0.  1.
     999902    2    1    2    0    0  0.68846217414E-02  0.17942577735E-01  0.13558621746E-01  0.10204104265E+01  0.10201393377E+01 0.  0.
     999903    2    3    3    0    0 -0.16781911298E-01 -0.64520712173E-01 -0.10739756190E+00  0.12800317795E+00  0.20149997929E-01 0.  0.
         14    1    1    2    0    0 -0.68846217414E-02 -0.17942577735E-01 -0.13558621746E-01  0.23519573464E-01  0.00000000000E+00 0.  1.
     999901    1    3    3    0    0  0.23666533040E-01  0.82463289908E-01  0.12095618365E+00  0.89240724859E+00  0.88000000000E+00 0. -1.
        -11    1    4    4    0    0  0.46574295876E-02 -0.95363225927E-02 -0.16766828025E-01  0.19849955717E-01  0.51100000000E-03 0. -1.
         11    1    4    4    0    0 -0.21439340886E-01 -0.54984389581E-01 -0.90630733876E-01  0.10815322223E+00  0.51100000000E-03 0.  1.
</event>
<event>
 8    1  0.5489035E+004  0.1043930E+01  0.7957747E-01            NaN
         13   -1    0    0    0    0  0.00000000000E+00  0.00000000000E+00  0.74505805969E-08  0.10566000000E+00  0.10566000000E+00 0.  1.
     999900   -1    0    0    0    0 -0.00000000000E+00 -0.00000000000E+00 -0.74505805969E-08  0.93827000000E+00  0.93827000000E+00 0.  1.
     999902    2    1    2    0    0  0.12568058176E-01 -0.18903580796E-01 -0.88321995396E-02  0.10195720608E+01  0.10192810594E+01 0.  0.
     999903    2    3    3    0    0  0.67044928093E-01  0.74805923704E-02  0.10889284072E+00  0.12967148262E+00  0.20150955279E-01 0.  0.
         14    1    1    2    0    0 -0.12568058176E-01  0.18903580796E-01  0.88321995396E-02  0.24357939197E-01  0.00000000000E+00 0.  1.
     999901    1    3    3    0    0 -0.54476869917E-01 -0.26384173166E-01 -0.11772504026E+00  0.88990057819E+00  0.88000000000E+00 0.  1.
        -11    1    4    4    0    0  0.36097856541E-01  0.11202771010E-01  0.46512387787E-01  0.59935137138E-01  0.51100000000E-03 0. -1.
         11    1    4    4    0    0  0.30947071552E-01 -0.37221786401E-02  0.62380452935E-01  0.69736345480E-01  0.51100000000E-03 0.  1.
</event>
<event>
 8    1  0.5489035E+004  0.1043930E+01  0.7957747E-01            NaN
         13   -1    0    0    0    0  0.00000000000E+00  0.00000000000E+00  0.74505805969E-08  0.10566000000E+00  0.10566000000E+00 0. -1.
     999900   -1    0    0    0    0 -0.00000000000E+00 -0.00000000000E+00 -0.74505805969E-08  0.93827000000E+00  0.93827000000E+00 0. -1.
     999902    2    1    2    0    0 -0.18791639173E-02  0.11223316832E-01 -0.25859410992E-01  0.10156775092E+01  0.10152844919E+01 0.  0.
     999903    2    3    3    0    0 -0.75640512465E-01 -0.42752208945E-01 -0.91253039437E-01  0.12853015926E+00  0.25370182049E-01 0.  0.
         14    1    1    2    0    0  0.18791639173E-02 -0.11223316832E-01  0.25859410992E-01  0.28252490768E-01  0.00000000000E+00 0. -1.
     999901    1    3    3    0    0  0.73761348547E-01  0.53975525778E-01  0.65393628445E-01  0.88714734997E+00  0.88000000000E+00 0. -1.
        -11    1    4    4    0    0 -0.44738800921E-01 -0.38826882721E-01 -0.56612495690E-01  0.81940972162E-01  0.51100000000E-03 0.  1.
         11    1    4    4    0    0 -0.30901711544E-01 -0.39253262246E-02 -0.34640543747E-01  0.46589187097E-01  0.51100000000E-03 0. -1.
</event>
<event>
 8    1  0.5489035E+004  0.1043930E+01  0.7957747E-01            NaN
         13   -1    0    0    0    0  0.00000000000E+00  0.00000000000E+00  0.74505805969E-08  0.10566000000E+00  0.10566000000E+00 0. -1.
     999900   -1    0    0    0    0 -0.00000000000E+00 -0.00000000000E+00 -0.74505805969E-08  0.93827000000E+00  0.93827000000E+00 0.  1.
     999902    2    1    2    0    0  0.24423568962E-01 -0.51700418612E-02  0.61193256944E-02  0.10182261832E+01  0.10179017015E+01 0.  0.
     999903    2    3    3    0    0 -0.14473957231E-01  0.34038227503E-01  0.12188860161E+00  0.12892711581E+00  0.19931723936E-01 0.  0.
         14    1    1    2    0    0 -0.24423568962E-01  0.51700418612E-02 -0.61193256944E-02  0.25703816849E-01  0.00000000000E+00 0. -1.
     999901    1    3    3    0    0  0.38897526192E-01 -0.39208269364E-01 -0.11576927591E+00  0.88929906734E+00  0.88000000000E+00 0.  1.
        -11    1    4    4    0    0 -0.11225444020E-01  0.63386907157E-02  0.25419455783E-01  0.28506129985E-01  0.51100000000E-03 0.  1.
         11    1    4    4    0    0 -0.32485132105E-02  0.27699536787E-01  0.96469145826E-01  0.10042098582E+00  0.51100000000E-03 0. -1.
</event>
<event>
 8    1  0.5489035E+004  0.1043930E+01  0.7957747E-01            NaN
         13   -1    0    0    0    0  0.00000000000E+00  0.00000000000E+00  0.74505805969E-08  0.10566000000E+00  0.10566000000E+00 0.  1.
     999900   -1    0    0    0    0 -0.00000000000E+00 -0.00000000000E+00 -0.74505805969E-08  0.93827000000E+00  0.93827000000E+00 0.  1.
     999902    2    1    2    0    0 -0.40984837579E-02 -0.12015896662E-01  0.20574767639E-01  0.10197535568E+01  0.10194669275E+01 0.  0.
     999903    2    3    3    0    0 -0.59542353837E-01  0.36828023175E-01 -0.10509133802E+00  0.12776043949E+00  0.19415081266E-01 0.  0.
         14    1    1    2    0    0  0.40984837579E-02  0.12015896662E-01 -0.20574767639E-01  0.24176443186E-01  0.00000000000E+00 0. -1.
     999901    1    3    3    0    0  0.55443870079E-01 -0.48843919838E-01  0.12566610566E+00  0.89199311732E+00  0.88000000000E+00 0. -1.
        -11    1    4    4    0    0 -0.96192071410E-02  0.15744927025E-01 -0.26427003341E-01  0.32234756082E-01  0.51100000000E-03 0.  1.
         11    1    4    4    0    0 -0.49923146696E-01  0.21083096150E-01 -0.78664334683E-01  0.95525683412E-01  0.51100000000E-03 0. -1.
</event>
<event>
 8    1  0.5489035E+004  0.1043930E+01  0.7957747E-01            NaN
         13   -1    0    0    0    0  0.00000000000E+00  0.00000000000E+00  0.74505805969E-08  0.10566000000E+00  0.10566000000E+00 0.  1.
     999900   -1    0    0    0    0 -0.00000000000E+00 -0.00000000000E+00 -0.74505805969E-08  0.93827000000E+00  0.93827000000E+00 0.  1.
     999902    2    1    2    0    0  0.22980689794E-01 -0.17993604389E-02  0.48035142600E-02  0.10203837997E+01  0.10201120895E+01 0.  0.
     999903    2    3    3    0    0 -0.54788008837E-01 -0.45571432753E-01  0.10679182482E+00  0.13000995666E+00  0.20484471866E-01 0.  0.
         14    1    1    2    0    0 -0.22980689794E-01  0.17993604389E-02 -0.48035142600E-02  0.23546200344E-01  0.00000000000E+00 0. -1.
     999901    1    3    3    0    0  0.77768698632E-01  0.43772072314E-01 -0.10198831056E+00  0.89037384300E+00  0.88000000000E+00 0.  1.
        -11    1    4    4    0    0 -0.44328438754E-02 -0.14036521629E-01  0.20703258961E-01  0.25407874702E-01  0.51100000000E-03 0. -1.
         11    1    4    4    0    0 -0.50355164962E-01 -0.31534911124E-01  0.86088565855E-01  0.10460208196E+00  0.51100000000E-03 0.  1.
</event>
<event>
 8    1  0.5489035E+004  0.1043930E+01  0.7957747E-01            NaN
         13   -1    0    0    0    0  0.00000000000E+00  0.00000000000E+00  0.74505805969E-08  0.10566000000E+00  0.10566000000E+00 0. -1.
     999900   -1    0    0    0    0 -0.00000000000E+00 -0.00000000000E+00 -0.74505805969E-08  0.93827000000E+00  0.93827000000E+00 0.  1.
     999902    2    1    2    0    0  0.17533779756E-01 -0.90157928933E-02 -0.11352251104E-01  0.10211793613E+01  0.10209259016E+01 0.  0.
     999903    2    3    3    0    0 -0.10951908618E+00  0.48924045383E-01 -0.35554250921E-01  0.12984037286E+00  0.34733632279E-01 0.  0.
         14    1    1    2    0    0 -0.17533779756E-01  0.90157928933E-02  0.11352251104E-01  0.22750638654E-01  0.00000000000E+00 0. -1.
     999901    1    3    3    0    0  0.12705286594E+00 -0.57939838277E-01  0.24201999817E-01  0.89133898849E+00  0.88000000000E+00 0. -1.
        -11    1    4    4    0    0 -0.12383307127E-01  0.10793527007E-01 -0.17373533953E-01  0.23915420207E-01  0.51100000000E-03 0.  1.
         11    1    4    4    0    0 -0.97135779053E-01  0.38130518376E-01 -0.18180716967E-01  0.10592495265E+00  0.51100000000E-03 0. -1.
</event>
<event>
 8    1  0.5489035E+004  0.1043930E+01  0.7957747E-01            NaN
         13   -1    0    0    0    0  0.00000000000E+00  0.00000000000E+00  0.74505805969E-08  0.10566000000E+00  0.10566000000E+00 0.  1.
     999900   -1    0    0    0    0 -0.00000000000E+00 -0.00000000000E+00 -0.74505805969E-08  0.93827000000E+00  0.93827000000E+00 0. -1.
     999902    2    1    2    0    0  0.36567340510E-02  0.20091381525E-01  0.11760146046E-01  0.10203644245E+01  0.10200922617E+01 0.  0.
     999903    2    3    3    0    0 -0.32093883049E-01 -0.56572782284E-02  0.12748632688E+00  0.13169482949E+00  0.53611982124E-02 0.  0.
         14    1    1    2    0    0 -0.36567340510E-02 -0.20091381525E-01 -0.11760146046E-01  0.23565575540E-01  0.00000000000E+00 0.  1.
     999901    1    3    3    0    0  0.35750617100E-01  0.25748659754E-01 -0.11572618083E+00  0.88866959497E+00  0.88000000000E+00 0. -1.
        -11    1    4    4    0    0 -0.13326129285E-01 -0.53485475580E-03  0.59462188880E-01  0.60941650936E-01  0.51100000000E-03 0.  1.
         11    1    4    4    0    0 -0.18767753765E-01 -0.51224234726E-02  0.68024137997E-01  0.70753178550E-01  0.51100000000E-03 0. -1.
</event>
<event>
 8    1  0.5489035E+004  0.1043930E+01  0.7957747E-01            NaN
         13   -1    0    0    0    0  0.00000000000E+00  0.00000000000E+00  0.74505805969E-08  0.10566000000E+00  0.10566000000E+00 0. -1.
     999900   -1    0    0    0    0 -0.00000000000E+00 -0.00000000000E+00 -0.74505805969E-08  0.93827000000E+00  0.93827000000E+00 0.  1.
     999902    2    1    2    0    0  0.22195817622E-01  0.59042140983E-02  0.58857015449E-02  0.10202201804E+01  0.10199446362E+01 0.  0.
     999903    2    3    3    0    0  0.61645965596E-01  0.64555644868E-01  0.96403385262E-01  0.13275764281E+00  0.19061025083E-01 0.  0.
         14    1    1    2    0    0 -0.22195817622E-01 -0.59042140983E-02 -0.58857015449E-02  0.23709819626E-01  0.00000000000E+00 0.  1.
     999901    1    3    3    0    0 -0.39450147974E-01 -0.58651430770E-01 -0.90517683717E-01  0.88746253756E+00  0.88000000000E+00 0.  1.
        -11    1    4    4    0    0  0.27935859269E-01  0.16350849191E-01  0.36843182433E-01  0.49045323071E-01  0.51100000000E-03 0.  1.
         11    1    4    4    0    0  0.33710106327E-01  0.48204795677E-01  0.59560202828E-01  0.83712319743E-01  0.51100000000E-03 0. -1.
</event>
<event>
 8    1  0.5489035E+004  0.1043930E+01  0.7957747E-01            NaN
         13   -1    0    0    0    0  0.00000000000E+00  0.00000000000E+00  0.74505805969E-08  0.10566000000E+00  0.10566000000E+00 0. -1.
     999900   -1    0    0    0    0 -0.00000000000E+00 -0.00000000000E+00 -0.74505805969E-08  0.93827000000E+00  0.93827000000E+00 0. -1.
     999902    2    1    2    0    0  0.21424135531E-01 -0.71887677143E-02 -0.96140402789E-02  0.10193718703E+01  0.10190760071E+01 0.  0.
     999903    2    3    3    0    0 -0.67250091260E-01 -0.10737411125E+00 -0.17817372692E-01  0.12922159296E+00  0.18137992642E-01 0.  0.
         14    1    1    2    0    0 -0.21424135531E-01  0.71887677143E-02  0.96140402789E-02  0.24558129712E-01  0.00000000000E+00 0. -1.
     999901    1    3    3    0    0  0.88674226791E-01  0.10018534354E+00  0.82033324131E-02  0.89015027732E+00  0.88000000000E+00 0. -1.
        -11    1    4    4    0    0 -0.61207202596E-01 -0.91181174948E-01 -0.20517086522E-01  0.11172081397E+00  0.51100000000E-03 0. -1.
         11    1    4    4    0    0 -0.60428886646E-02 -0.16192936302E-01  0.26997138303E-02  0.17500778990E-01  0.51100000000E-03 0.  1.
</event>
<event>
 8    1  0.5489035E+004  0.1043930E+01  0.7957747E-01            NaN
         13   -1    0    0    0    0  0.00000000000E+00  0.00000000000E+00  0.74505805969E-08  0.10566000000E+00  0.10566000000E+00 0. -1.
     999900   -1    0    0    0    0 -0.00000000000E+00 -0.00000000000E+00 -0.74505805969E-08  0.93827000000E+00  0.93827000000E+00 0.  1.
     999902    2    1    2    0    0 -0.16691880267E-01 -0.11636547361E-01 -0.12478431226E-01  0.10200607866E+01  0.10197814810E+01 0.  0.
     999903    2    3    3    0    0  0.35520282689E-01 -0.88854514280E-02  0.12147978559E+00  0.12838905199E+00  0.19640993705E-01 0.  0.
         14    1    1    2    0    0  0.16691880267E-01  0.11636547361E-01  0.12478431226E-01  0.23869213376E-01  0.00000000000E+00 0.  1.
     999901    1    3    3    0    0 -0.52212162956E-01 -0.27510959327E-02 -0.13395821682E+00  0.89167173463E+00  0.88000000000E+00 0.  1.
        -11    1    4    4    0    0  0.11349322984E-01 -0.11912059647E-01  0.37673105790E-01  0.41112386431E-01  0.51100000000E-03 0.  1.
         11    1    4    4    0    0  0.24170959706E-01  0.30266082186E-02  0.83806679805E-01  0.87276665560E-01  0.51100000000E-03 0. -1.
</event>
<event>
 8    1  0.5489035E+004  0.1043930E+01  0.7957747E-01            NaN
         13   -1    0    0    0    0  0.00000000000E+00  0.00000000000E+00  0.74505805969E-08  0.10566000000E+00  0.10566000000E+00 0.  1.
     999900   -1    0    0    0    0 -0.00000000000E+00 -0.00000000000E+00 -0.74505805969E-08  0.93827000000E+00  0.93827000000E+00 0.  1.
     999902    2    1    2    0    0  0.62616715213E-02 -0.16696086419E-01  0.13988708284E-01  0.10212661126E+01  0.10210146037E+01 0.  0.
     999903    2    3    3    0    0 -0.75007266594E-01 -0.56742838088E-01 -0.88621366027E-01  0.13068360101E+00  0.19458091922E-01 0.  0.
         14    1    1    2    0    0 -0.62616715213E-02  0.16696086419E-01 -0.13988708284E-01  0.22663887384E-01  0.00000000000E+00 0. -1.
     999901    1    3    3    0    0  0.81268938115E-01  0.40046751670E-01  0.10261007431E+00  0.89058251160E+00  0.88000000000E+00 0. -1.
        -11    1    4    4    0    0 -0.66059159815E-01 -0.46644061144E-01 -0.83504049984E-01  0.11624400423E+00  0.51100000000E-03 0.  1.
         11    1    4    4    0    0 -0.89481067791E-02 -0.10098776944E-01 -0.51173160428E-02  0.14439596780E-01  0.51100000000E-03 0. -1.
</event>
<event>
 8    1  0.5489035E+004  0.1043930E+01  0.7957747E-01            NaN
         13   -1    0    0    0    0  0.00000000000E+00  0.00000000000E+00  0.74505805969E-08  0.10566000000E+00  0.10566000000E+00 0.  1.
     999900   -1    0    0    0    0 -0.00000000000E+00 -0.00000000000E+00 -0.74505805969E-08  0.93827000000E+00  0.93827000000E+00 0.  1.
     999902    2    1    2    0    0  0.31969971334E-02 -0.15224859767E-02 -0.21430169090E-01  0.10222092518E+01  0.10219784555E+01 0.  0.
     999903    2    3    3    0    0 -0.82558758061E-01  0.39525395351E-01  0.90196463125E-01  0.13007726432E+00  0.20161530729E-01 0.  0.
         14    1    1    2    0    0 -0.31969971334E-02  0.15224859767E-02  0.21430169090E-01  0.21720748179E-01  0.00000000000E+00 0.  1.
     999901    1    3    3    0    0  0.85755755195E-01 -0.41047881327E-01 -0.11162663222E+00  0.89213198751E+00  0.88000000000E+00 0.  1.
        -11    1    4    4    0    0 -0.37148577521E-01  0.28343962226E-01  0.49610301047E-01  0.68153063742E-01  0.51100000000E-03 0.  1.
         11    1    4    4    0    0 -0.45410180540E-01  0.11181433125E-01  0.40586162079E-01  0.61924200574E-01  0.51100000000E-03 0. -1.
</event>
<event>
 8    1  0.5489035E+004  0.1043930E+01  0.7957747E-01            NaN
         13   -1    0    0    0    0  0.00000000000E+00  0.00000000000E+00  0.74505805969E-08  0.10566000000E+00  0.10566000000E+00 0.  1.
     999900   -1    0    0    0    0 -0.00000000000E+00 -0.00000000000E+00 -0.74505805969E-08  0.93827000000E+00  0.93827000000E+00 0. -1.
     999902    2    1    2    0    0 -0.25437864888E-02 -0.37963137266E-02 -0.22731489225E-01  0.10207437228E+01  0.10204803497E+01 0.  0.
     999903    2    3    3    0    0 -0.94213832362E-01 -0.71943292363E-01 -0.55780016591E-01  0.13274619288E+00  0.21402288374E-01 0.  0.
         14    1    1    2    0    0  0.25437864888E-02  0.37963137266E-02  0.22731489225E-01  0.23186277191E-01  0.00000000000E+00 0.  1.
     999901    1    3    3    0    0  0.91670045873E-01  0.68146978636E-01  0.33048527367E-01  0.88799752993E+00  0.88000000000E+00 0. -1.
        -11    1    4    4    0    0 -0.14711522385E-01 -0.62267670015E-02 -0.14711137056E-01  0.21722803517E-01  0.51100000000E-03 0.  1.
         11    1    4    4    0    0 -0.79502309977E-01 -0.65716525361E-01 -0.41068879535E-01  0.11102338936E+00  0.51100000000E-03 0. -1.
</event>
<event>
 8    1  0.5489035E+004  0.1043930E+01  0.7957747E-01            NaN
         13   -1    0    0    0    0  0.00000000000E+00  0.00000000000E+00  0.74505805969E-08  0.10566000000E+00  0.10566000000E+00 0. -1.
     999900   -1    0    0    0    0 -0.00000000000E+00 -0.00000000000E+00 -0.74505805969E-08  0.93827000000E+00  0.93827000000E+00 0.  1.
     999902    2    1    2    0    0  0.89494178229E-02  0.83568131744E-02 -0.20381079388E-01  0.10201536083E+01  0.10198764963E+01 0.  0.
     999903    2    3    3    0    0  0.53141388694E-01  0.88225670616E-02 -0.12047121812E+00  0.13337788518E+00  0.19352027797E-01 0.  0.
         14    1    1    2    0    0 -0.89494178229E-02 -0.83568131744E-02  0.20381079388E-01  0.23776391711E-01  0.00000000000E+00 0. -1.
     999901    1    3    3    0    0 -0.44191970871E-01 -0.46575388724E-03  0.10009013873E+00  0.88677572310E+00  0.88000000000E+00 0. -1.
        -11    1    4    4    0    0  0.67367357118E-02 -0.52755074326E-02 -0.21973191686E-01  0.23585946252E-01  0.51100000000E-03 0.  1.
         11    1    4    4    0    0  0.46404652982E-01  0.14098074494E-01 -0.98498026431E-01  0.10979193893E+00  0.51100000000E-03 0. -1.
</event>
<event>
 8    1  0.5489035E+004  0.1043930E+01  0.7957747E-01            NaN
         13   -1    0    0    0    0  0.00000000000E+00  0.00000000000E+00  0.74505805969E-08  0.10566000000E+00  0.10566000000E+00 0.  1.
     999900   -1    0    0    0    0 -0.00000000000E+00 -0.00000000000E+00 -0.74505805969E-08  0.93827000000E+00  0.93827000000E+00 0.  1.
     999902    2    1    2    0    0  0.23036019431E-02  0.11848401420E-01 -0.19806120573E-01  0.10207357419E+01  0.10204721854E+01 0.  0.
     999903    2    3    3    0    0 -0.59377258468E-01 -0.30320563958E-01  0.10812520739E+00  0.12835175789E+00  0.18387981377E-01 0.  0.
         14    1    1    2    0    0 -0.23036019431E-02 -0.11848401420E-01  0.19806120573E-01  0.23194258132E-01  0.00000000000E+00 0.  1.
     999901    1    3    3    0    0  0.61680860411E-01  0.42168965378E-01 -0.12793132796E+00  0.89238398398E+00  0.88000000000E+00 0.  1.
        -11    1    4    4    0    0 -0.10255838403E-01 -0.12372629513E-01  0.17874142678E-01  0.24041844353E-01  0.51100000000E-03 0. -1.
         11    1    4    4    0    0 -0.49121420065E-01 -0.17947934445E-01  0.90251064712E-01  0.10430991354E+00  0.51100000000E-03 0.  1.
</event>
<event>
 8    1  0.5489035E+004  0.1043930E+01  0.7957747E-01            NaN
         13   -1    0    0    0    0  0.00000000000E+00  0.00000000000E+00  0.74505805969E-08  0.10566000000E+00  0.10566000000E+00 0. -1.
     999900   -1    0    0    0    0 -0.00000000000E+00 -0.00000000000E+00 -0.74505805969E-08  0.93827000000E+00  0.93827000000E+00 0. -1.
     999902    2    1    2    0    0 -0.10469858431E-02  0.13891406035E-01  0.19080880127E-01  0.10203048582E+01  0.10200313016E+01 0.  0.
     999903    2    3    3    0    0 -0.98503734403E-02  0.53538404403E-01  0.12029499254E+00  0.13357283512E+00  0.20184807406E-01 0.  0.
         14    1    1    2    0    0  0.10469858431E-02 -0.13891406035E-01 -0.19080880127E-01  0.23625141849E-01  0.00000000000E+00 0.  1.
     999901    1    3    3    0    0  0.88033875972E-02 -0.39646998368E-01 -0.10121411241E+00  0.88673202303E+00  0.88000000000E+00 0. -1.
        -11    1    4    4    0    0 -0.10823351918E-01  0.23678164279E-01  0.38394481715E-01  0.46391785453E-01  0.51100000000E-03 0. -1.
         11    1    4    4    0    0  0.97297847782E-03  0.29860240123E-01  0.81900510823E-01  0.87181049669E-01  0.51100000000E-03 0.  1.
</event>
<event>
 8    1  0.5489035E+004  0.1043930E+01  0.7957747E-01            NaN
         13   -1    0    0    0    0  0.00000000000E+00  0.00000000000E+00  0.74505805969E-08  0.10566000000E+00  0.10566000000E+00 0.  1.
     999900   -1    0    0    0    0 -0.00000000000E+00 -0.00000000000E+00 -0.74505805969E-08  0.93827000000E+00  0.93827000000E+00 0.  1.
     999902    2    1    2    0    0 -0.12656436429E-01 -0.18339651089E-01  0.57817668545E-02  0.10209092048E+01  0.10206496203E+01 0.  0.
     999903    2    3    3    0    0  0.98331476829E-01  0.57537466241E-01 -0.56009405748E-01  0.12855624610E+00  0.20248840049E-01 0.  0.
         14    1    1    2    0    0  0.12656436429E-01  0.18339651089E-01 -0.57817668545E-02  0.23020795232E-01  0.00000000000E+00 0. -1.
     999901    1    3    3    0    0 -0.11098791326E+00 -0.75877117330E-01  0.61791172602E-01  0.89235295866E+00  0.88000000000E+00 0.  1.
        -11    1    4    4    0    0  0.67003241300E-01  0.28001824959E-01 -0.33655072207E-01  0.80040374512E-01  0.51100000000E-03 0.  1.
         11    1    4    4    0    0  0.31328235529E-01  0.29535641282E-01 -0.22354333541E-01  0.48515871592E-01  0.51100000000E-03 0. -1.
</event>
<event>
 8    1  0.5489035E+004  0.1043930E+01  0.7957747E-01            NaN
         13   -1    0    0    0    0  0.00000000000E+00  0.00000000000E+00  0.74505805969E-08  0.10566000000E+00  0.10566000000E+00 0. -1.
     999900   -1    0    0    0    0 -0.00000000000E+00 -0.00000000000E+00 -0.74505805969E-08  0.93827000000E+00  0.93827000000E+00 0.  1.
     999902    2    1    2    0    0 -0.96975491101E-02 -0.69580170821E-02  0.29068151583E-01  0.10125068573E+01  0.10120191313E+01 0.  0.
     999903    2    3    3    0    0 -0.10589281992E+00  0.62889758570E-01 -0.32200308136E-02  0.12392665912E+00  0.13380478253E-01 0.  0.
         14    1    1    2    0    0  0.96975491101E-02  0.69580170821E-02 -0.29068151583E-01  0.31423142696E-01  0.00000000000E+00 0.  1.
     999901    1    3    3    0    0  0.96195270807E-01 -0.69847775652E-01  0.32288182396E-01  0.88858019819E+00  0.88000000000E+00 0. -1.
        -11    1    4    4    0    0 -0.54902589142E-01  0.28930939678E-01  0.42560616215E-02  0.62206661594E-01  0.51100000000E-03 0.  1.
         11    1    4    4    0    0 -0.50990230775E-01  0.33958818892E-01 -0.74760924350E-02  0.61719997522E-01  0.51100000000E-03 0. -1.
</event>
<event>
 7    1  0.5489035E+004  0.1043930E+01  0.7957747E-01            NaN
         13   -1    0    0    0    0  0.00000000000E+00  0.00000000000E+00  0.74505805969E-08  0.10566000000E+00  0.10566000000E+00 0. -1.
     999900   -1    0    0    0    0 -0.00000000000E+00 -0.00000000000E+00 -0.74505805969E-08  0.93827000000E+00  0.93827000000E+00 0.  1.
     999903    2    1    2    0    0  0.82365353974E-01 -0.41002414188E-01 -0.58189495177E-01  0.11059548319E+00  0.19496000821E-01 0.  0.
         14    1    1    2    0    0  0.18854750139E-01 -0.15076850223E-01 -0.33218632629E-01  0.41064468451E-01  0.00000000000E+00 0.  1.
     999901    1    1    2    0    0 -0.10122010411E+00  0.56079264411E-01  0.91408127806E-01  0.89227004836E+00  0.88000000000E+00 0. -1.
        -11    1    3    3    0    0  0.42883915630E-01 -0.31969111912E-01 -0.31262172041E-01  0.61956749898E-01  0.51100000000E-03 0. -1.
         11    1    3    3    0    0  0.39481438345E-01 -0.90333022755E-02 -0.26927323135E-01  0.48638733289E-01  0.51100000000E-03 0.  1.
</event>
<event>
 8    1  0.5489035E+004  0.1043930E+01  0.7957747E-01            NaN
         13   -1    0    0    0    0  0.00000000000E+00  0.00000000000E+00  0.74505805969E-08  0.10566000000E+00  0.10566000000E+00 0.  1.
     999900   -1    0    0    0    0 -0.00000000000E+00 -0.00000000000E+00 -0.74505805969E-08  0.93827000000E+00  0.93827000000E+00 0.  1.
     999902    2    1    2    0    0  0.10186264350E-01 -0.71824764696E-02  0.19470341078E-01  0.10208119955E+01  0.10205501889E+01 0.  0.
     999903    2    3    3    0    0 -0.68775052922E-01 -0.91153832783E-01 -0.58277413236E-01  0.12989629153E+00  0.20922727459E-01 0.  0.
         14    1    1    2    0    0 -0.10186264350E-01  0.71824764696E-02 -0.19470341078E-01  0.23118004485E-01  0.00000000000E+00 0. -1.
     999901    1    3    3    0    0  0.78961317273E-01  0.83971356313E-01  0.77747754314E-01  0.89091570399E+00  0.88000000000E+00 0. -1.
        -11    1    4    4    0    0 -0.46668499074E-01 -0.53339510988E-01 -0.26040106780E-01  0.75507618955E-01  0.51100000000E-03 0.  1.
         11    1    4    4    0    0 -0.22106553849E-01 -0.37814321795E-01 -0.32237306456E-01  0.54388672575E-01  0.51100000000E-03 0. -1.
</event>
<event>
 8    1  0.5489035E+004  0.1043930E+01  0.7957747E-01            NaN
         13   -1    0    0    0    0  0.00000000000E+00  0.00000000000E+00  0.74505805969E-08  0.10566000000E+00  0.10566000000E+00 0. -1.
     999900   -1    0    0    0    0 -0.00000000000E+00 -0.00000000000E+00 -0.74505805969E-08  0.93827000000E+00  0.93827000000E+00 0. -1.
     999902    2    1    2    0    0  0.22067915608E-01  0.67273842812E-03 -0.38173543003E-03  0.10218485327E+01  0.10216099219E+01 0.  0.
     999903    2    3    3    0    0 -0.95013385388E-01  0.38348294119E-01  0.77385634676E-01  0.12989828611E+00  0.19669601288E-01 0.  0.
         14    1    1    2    0    0 -0.22067915608E-01 -0.67273842812E-03  0.38173543003E-03  0.22081467302E-01  0.00000000000E+00 0.  1.
     999901    1    3    3    0    0  0.11708130100E+00 -0.37675555691E-01 -0.77767370106E-01  0.89195024659E+00  0.88000000000E+00 0. -1.
        -11    1    4    4    0    0 -0.84553190580E-01  0.32106987282E-01  0.74953702347E-01  0.11746667309E+00  0.51100000000E-03 0. -1.
         11    1    4    4    0    0 -0.10460194807E-01  0.62413068369E-02  0.24319323292E-02  0.12431613021E-01  0.51100000000E-03 0.  1.
</event>
<event>
 8    1  0.5489035E+004  0.1043930E+01  0.7957747E-01            NaN
         13   -1    0    0    0    0  0.00000000000E+00  0.00000000000E+00  0.74505805969E-08  0.10566000000E+00  0.10566000000E+00 0.  1.
     999900   -1    0    0    0    0 -0.00000000000E+00 -0.00000000000E+00 -0.74505805969E-08  0.93827000000E+00  0.93827000000E+00 0. -1.
     999902    2    1    2    0    0  0.89526134563E-02  0.19590355671E-01 -0.13401141881E-01  0.10185622660E+01  0.10182463198E+01 0.  0.
     999903    2    3    3    0    0  0.10846655993E+00  0.40239345996E-01  0.55507886546E-01  0.13003659924E+00  0.21075864976E-01 0.  0.
         14    1    1    2    0    0 -0.89526134563E-02 -0.19590355671E-01  0.13401141881E-01  0.25367733969E-01  0.00000000000E+00 0. -1.
     999901    1    3    3    0    0 -0.99513946473E-01 -0.20648990325E-01 -0.68909028427E-01  0.88852566679E+00  0.88000000000E+00 0. -1.
        -11    1    4    4    0    0  0.70753938923E-01  0.30512813887E-01  0.26546385676E-01  0.81499223296E-01  0.51100000000E-03 0.  1.
         11    1    4    4    0    0  0.37712621006E-01  0.97265321093E-02  0.28961500871E-01  0.48537375946E-01  0.51100000000E-03 0. -1.
</event>
<event>
 8    1  0.5489035E+004  0.1043930E+01  0.7957747E-01            NaN
         13   -1    0    0    0    0  0.00000000000E+00  0.00000000000E+00  0.74505805969E-08  0.10566000000E+00  0.10566000000E+00 0. -1.
     999900   -1    0    0    0    0 -0.00000000000E+00 -0.00000000000E+00 -0.74505805969E-08  0.93827000000E+00  0.93827000000E+00 0.  1.
     999902    2    1    2    0    0  0.13575838039E-01 -0.18688520048E-01 -0.75234324687E-02  0.10196366635E+01  0.10193472222E+01 0.  0.
     999903    2    3    3    0    0  0.69433657958E-01 -0.89104075896E-01  0.63301750080E-01  0.13222770876E+00  0.26767259881E-01 0.  0.
         14    1    1    2    0    0 -0.13575838039E-01  0.18688520048E-01  0.75234324687E-02  0.24293336456E-01  0.00000000000E+00 0. -1.
     999901    1    3    3    0    0 -0.55857819919E-01  0.70415555849E-01 -0.70825182548E-01  0.88740895479E+00  0.88000000000E+00 0.  1.
        -11    1    4    4    0    0  0.47072442424E-01 -0.77023915134E-01  0.44725347365E-01  0.10074282186E+00  0.51100000000E-03 0. -1.
         11    1    4    4    0    0  0.22361215534E-01 -0.12080160763E-01  0.18576402715E-01  0.31484886899E-01  0.51100000000E-03 0.  1.
</event>
<event>
 8    1  0.5489035E+004  0.1043930E+01  0.7957747E-01            NaN
         13   -1    0    0    0    0  0.00000000000E+00  0.00000000000E+00  0.74505805969E-08  0.10566000000E+00  0.10566000000E+00 0.  1.
     999900   -1    0    0    0    0 -0.00000000000E+00 -0.00000000000E+00 -0.74505805969E-08  0.93827000000E+00  0.93827000000E+00 0.  1.
     999902    2    1    2    0    0 -0.19478600724E-01  0.57367133048E-02 -0.61480587055E-02  0.10227138648E+01  0.10224937774E+01 0.  0.
     999903    2    3    3    0    0  0.92002343899E-01  0.73847311455E-01  0.52680429871E-01  0.13112660288E+00  0.22385298763E-01 0.  0.
         14    1    1    2    0    0  0.19478600724E-01 -0.57367133048E-02  0.61480587055E-02  0.21216135170E-01  0.00000000000E+00 0.  1.
     999901    1    3    3    0    0 -0.11148094462E+00 -0.68110598150E-01 -0.58828488577E-01  0.89158726195E+00  0.88000000000E+00 0. -1.
        -11    1    4    4    0    0  0.37265350660E-01  0.33798858223E-01  0.34176699923E-01  0.60822505009E-01  0.51100000000E-03 0.  1.
         11    1    4    4    0    0  0.54736993239E-01  0.40048453232E-01  0.18503729949E-01  0.70304097876E-01  0.51100000000E-03 0. -1.
</event>
<event>
 8    1  0.5489035E+004  0.1043930E+01  0.7957747E-01            NaN
         13   -1    0    0    0    0  0.00000000000E+00  0.00000000000E+00  0.74505805969E-08  0.10566000000E+00  0.10566000000E+00 0.  1.
     999900   -1    0    0    0    0 -0.00000000000E+00 -0.00000000000E+00 -0.74505805969E-08  0.93827000000E+00  0.93827000000E+00 0.  1.
     999902    2    1    2    0    0  0.17289228429E-01 -0.12979758599E-01 -0.88921056383E-02  0.10205534927E+01  0.10202857297E+01 0.  0.
     999903    2    3    3    0    0 -0.48694803582E-01  0.82159130022E-01  0.83139110693E-01  0.12821104416E+00  0.20116002977E-01 0.  0.
         14    1    1    2    0    0 -0.17289228429E-01  0.12979758599E-01  0.88921056383E-02  0.23376507345E-01  0.00000000000E+00 0. -1.
     999901    1    3    3    0    0  0.65984032011E-01 -0.95138888621E-01 -0.92031216331E-01  0.89234244850E+00  0.88000000000E+00 0.  1.
        -11    1    4    4    0    0 -0.38515036744E-01  0.68621263180E-01  0.77245002239E-01  0.11026938518E+00  0.51100000000E-03 0. -1.
         11    1    4    4    0    0 -0.10179766838E-01  0.13537866842E-01  0.58941084537E-02  0.17941658980E-01  0.51100000000E-03 0.  1.
</event>
<event>
 8    1  0.5489035E+004  0.1043930E+01  0.7957747E-01            NaN
         13   -1    0    0    0    0  0.00000000000E+00  0.00000000000E+00  0.74505805969E-08  0.10566000000E+00  0.10566000000E+00 0.  1.
     999900   -1    0    0    0    0 -0.00000000000E+00 -0.00000000000E+00 -0.74505805969E-08  0.93827000000E+00  0.93827000000E+00 0. -1.
     999902    2    1    2    0    0 -0.17007551111E-01 -0.16122827438E-02  0.16729031576E-01  0.10200194009E+01  0.10197391144E+01 0.  0.
     999903    2    3    3    0    0 -0.62977802009E-01 -0.79140529326E-01 -0.78621850068E-01  0.13029153039E+00  0.23771004504E-01 0.  0.
         14    1    1    2    0    0  0.17007551111E-01  0.16122827438E-02 -0.16729031576E-01  0.23910599071E-01  0.00000000000E+00 0. -1.
     999901    1    3    3    0    0  0.45970250898E-01  0.77528246582E-01  0.95350881644E-01  0.88972787054E+00  0.88000000000E+00 0.  1.
        -11    1    4    4    0    0 -0.53161232206E-01 -0.75402097491E-01 -0.75794757142E-01  0.11940142062E+00  0.51100000000E-03 0. -1.
         11    1    4    4    0    0 -0.98165698035E-02 -0.37384318349E-02 -0.28270929253E-02  0.10890109765E-01  0.51100000000E-03 0.  1.
</event>
<event>
 8    1  0.5489035E+004  0.1043930E+01  0.7957747E-01            NaN
         13   -1    0    0    0    0  0.00000000000E+00  0.00000000000E+00  0.74505805969E-08  0.10566000000E+00  0.10566000000E+00 0.  1.
     999900   -1    0    0    0    0 -0.00000000000E+00 -0.00000000000E+00 -0.74505805969E-08  0.93827000000E+00  0.93827000000E+00 0.  1.
     999902    2    1    2    0    0  0.15750189037E-01  0.13017094449E-01  0.12869790276E-01  0.10197816107E+01  0.10194956542E+01 0.  0.
     999903    2    3    3    0    0 -0.32695799662E-01 -0.11985583799E+00 -0.21975722157E-01  0.12780827047E+00  0.20434882423E-01 0.  0.
         14    1    1    2    0    0 -0.15750189037E-01 -0.13017094449E-01 -0.12869790276E-01  0.24148389270E-01  0.00000000000E+00 0. -1.
     999901    1    3    3    0    0  0.48445988699E-01  0.13287293244E+00  0.34845512433E-01  0.89197334026E+00  0.88000000000E+00 0. -1.
        -11    1    4    4    0    0 -0.23466717120E-01 -0.50770196861E-01 -0.56309057273E-02  0.56216260299E-01  0.51100000000E-03 0. -1.
         11    1    4    4    0    0 -0.92290825420E-02 -0.69085641132E-01 -0.16344816429E-01  0.71592010171E-01  0.51100000000E-03 0.  1.
</event>
<event>
 8    1  0.5489035E+004  0.1043930E+01  0.7957747E-01            NaN
         13   -1    0    0    0    0  0.00000000000E+00  0.00000000000E+00  0.74505805969E-08  0.10566000000E+00  0.10566000000E+00 0. -1.
     999900   -1    0    0    0    0 -0.00000000000E+00 -0.00000000000E+00 -0.74505805969E-08  0.93827000000E+00  0.93827000000E+00 0. -1.
     999902    2    1    2    0    0  0.72564032211E-02  0.22208812249E-01 -0.17170998280E-01  0.10149346571E+01  0.10145203932E+01 0.  0.
     999903    2    3    3    0    0  0.54080288344E-01  0.90791005292E-01  0.67731157834E-01  0.12695697181E+00  0.19049375856E-01 0.  0.
         14    1    1    2    0    0 -0.72564032211E-02 -0.22208812249E-01  0.17170998280E-01  0.28995342922E-01  0.00000000000E+00 0. -1.
     999901    1    3    3    0    0 -0.46823885123E-01 -0.68582193043E-01 -0.84902156114E-01  0.88797768527E+00  0.88000000000E+00 0. -1.
        -11    1    4    4    0    0  0.12473613666E-01  0.37070398218E-01  0.29469804264E-01  0.48974850141E-01  0.51100000000E-03 0. -1.
         11    1    4    4    0    0  0.41606674678E-01  0.53720607074E-01  0.38261353570E-01  0.77982121670E-01  0.51100000000E-03 0.  1.
</event>
<event>
 8    1  0.5489035E+004  0.1043930E+01  0.7957747E-01            NaN
         13   -1    0    0    0    0  0.00000000000E+00  0.00000000000E+00  0.74505805969E-08  0.10566000000E+00  0.10566000000E+00 0.  1.
     999900   -1    0    0    0    0 -0.00000000000E+00 -0.00000000000E+00 -0.74505805969E-08  0.93827000000E+00  0.93827000000E+00 0. -1.
     999902    2    1    2    0    0  0.94981473989E-02 -0.91086015745E-02  0.19598447974E-01  0.10203232088E+01  0.10200500820E+01 0.  0.
     999903    2    3    3    0    0 -0.10514056181E+00  0.38921566937E-01  0.63797608755E-01  0.13049036129E+00  0.19702116521E-01 0.  0.
         14    1    1    2    0    0 -0.94981473989E-02  0.91086015745E-02 -0.19598447974E-01  0.23606791177E-01  0.00000000000E+00 0. -1.
     999901    1    3    3    0    0  0.11463870921E+00 -0.48030168511E-01 -0.44199160781E-01  0.88983284753E+00  0.88000000000E+00 0. -1.
        -11    1    4    4    0    0 -0.18324114180E-01  0.15055482849E-01  0.11446866945E-01  0.26338804228E-01  0.51100000000E-03 0. -1.
         11    1    4    4    0    0 -0.86816447632E-01  0.23866084088E-01  0.52350741810E-01  0.10415155706E+00  0.51100000000E-03 0.  1.
</event>
<event>
 8    1  0.5489035E+004  0.1043930E+01  0.7957747E-01            NaN
         13   -1    0    0    0    0  0.00000000000E+00  0.00000000000E+00  0.74505805969E-08  0.10566000000E+00  0.10566000000E+00 0. -1.
     999900   -1    0    0    0    0 -0.00000000000E+00 -0.00000000000E+00 -0.74505805969E-08  0.93827000000E+00  0.93827000000E+00 0.  1.
     999902    2    1    2    0    0  0.18487078406E-01  0.12434807201E-01  0.74934823963E-02  0.10204236439E+01  0.10201528632E+01 0.  0.
     999903    2    3    3    0    0 -0.56262020886E-02  0.13860698956E-01 -0.12739031279E+00  0.12981872496E+00  0.20020899867E-01 0.  0.
         14    1    1    2    0    0 -0.18487078406E-01 -0.12434807201E-01 -0.74934823963E-02  0.23506356089E-01  0.00000000000E+00 0.  1.
     999901    1    3    3    0    0  0.24113280495E-01 -0.14258917551E-02  0.13488379518E+00  0.89060491896E+00  0.88000000000E+00 0. -1.
        -11    1    4    4    0    0  0.20736875879E-02  0.10909466042E-01 -0.28614717793E-01  0.30698205565E-01  0.51100000000E-03 0. -1.
         11    1    4    4    0    0 -0.76998896765E-02  0.29512329147E-02 -0.98775594995E-01  0.99120519391E-01  0.51100000000E-03 0.  1.
</event>
<event>
 8    1  0.5489035E+004  0.1043930E+01  0.7957747E-01            NaN
         13   -1    0    0    0    0  0.00000000000E+00  0.00000000000E+00  0.74505805969E-08  0.10566000000E+00  0.10566000000E+00 0. -1.
     999900   -1    0    0    0    0 -0.00000000000E+00 -0.00000000000E+00 -0.74505805969E-08  0.93827000000E+00  0.93827000000E+00 0.  1.
     999902    2    1    2    0    0 -0.16732035837E-01 -0.68558491476E-02  0.14880914720E-01  0.10205119447E+01  0.10202432180E+01 0.  0.
     999903    2    3    3    0    0 -0.27249322950E-01  0.56436893917E-01 -0.11128655201E+00  0.12920121645E+00  0.19509204935E-01 0.  0.
         14    1    1    2    0    0  0.16732035837E-01  0.68558491476E-02 -0.14880914720E-01  0.23418055293E-01  0.00000000000E+00 0.  1.
     999901    1    3    3    0    0  0.10517287113E-01 -0.63292743064E-01  0.12616746673E+00  0.89131072826E+00  0.88000000000E+00 0. -1.
        -11    1    4    4    0    0 -0.26520443658E-01  0.50038078878E-01 -0.10801038440E+00  0.12195756446E+00  0.51100000000E-03 0. -1.
         11    1    4    4    0    0 -0.72887929196E-03  0.63988150391E-02 -0.32761676099E-02  0.72436519888E-02  0.51100000000E-03 0.  1.
</event>
<event>
 8    1  0.5489035E+004  0.1043930E+01  0.7957747E-01            NaN
         13   -1    0    0    0    0  0.00000000000E+00  0.00000000000E+00  0.74505805969E-08  0.10566000000E+00  0.10566000000E+00 0.  1.
     999900   -1    0    0    0    0 -0.00000000000E+00 -0.00000000000E+00 -0.74505805969E-08  0.93827000000E+00  0.93827000000E+00 0.  1.
     999902    2    1    2    0    0  0.68149921675E-02  0.50872411604E-02 -0.22639606959E-01  0.10197457914E+01  0.10194589757E+01 0.  0.
     999903    2    3    3    0    0  0.47678962185E-01 -0.81915960970E-01  0.84050976076E-01  0.12810556032E+00  0.19051506734E-01 0.  0.
         14    1    1    2    0    0 -0.68149921675E-02 -0.50872411604E-02  0.22639606959E-01  0.24184208569E-01  0.00000000000E+00 0.  1.
     999901    1    3    3    0    0 -0.40863970018E-01  0.87003202130E-01 -0.10669058304E+00  0.89164023111E+00  0.88000000000E+00 0.  1.
        -11    1    4    4    0    0  0.14885678361E-01 -0.23401611601E-01  0.36671268865E-01  0.45981104021E-01  0.51100000000E-03 0. -1.
         11    1    4    4    0    0  0.32793283824E-01 -0.58514349369E-01  0.47379707211E-01  0.82124456300E-01  0.51100000000E-03 0.  1.
</event>
<event>
 8    1  0.5489035E+004  0.1043930E+01  0.7957747E-01            NaN
         13   -1    0    0    0    0  0.00000000000E+00  0.00000000000E+00  0.74505805969E-08  0.10566000000E+00  0.10566000000E+00 0. -1.
     999900   -1    0    0    0    0 -0.00000000000E+00 -0.00000000000E+00 -0.74505805969E-08  0.93827000000E+00  0.93827000000E+00 0. -1.
     999902    2    1    2    0    0  0.55650970126E-02  0.20700519840E-01 -0.80850359235E-02  0.10210204031E+01  0.10207633486E+01 0.  0.
     999903    2    3    3    0    0 -0.18362277468E-01  0.13059955648E+00  0.96795102335E-02  0.13368399751E+00  0.19603593633E-01 0.  0.
         14    1    1    2    0    0 -0.55650970126E-02 -0.20700519840E-01  0.80850359235E-02  0.22909596948E-01  0.00000000000E+00 0.  1.
     999901    1    3    3    0    0  0.23927374481E-01 -0.10989903664E+00 -0.17764546157E-01  0.88733640554E+00  0.88000000000E+00 0. -1.
        -11    1    4    4    0    0 -0.77233703079E-02  0.81291848987E-01 -0.28391868418E-02  0.81708856703E-01  0.51100000000E-03 0.  1.
         11    1    4    4    0    0 -0.10638907160E-01  0.49307707498E-01  0.12518697075E-01  0.51975140805E-01  0.51100000000E-03 0. -1.
</event>
<event>
 8    1  0.5489035E+004  0.1043930E+01  0.7957747E-01            NaN
         13   -1    0    0    0    0  0.00000000000E+00  0.00000000000E+00  0.74505805969E-08  0.10566000000E+00  0.10566000000E+00 0. -1.
     999900   -1    0    0    0    0 -0.00000000000E+00 -0.00000000000E+00 -0.74505805969E-08  0.93827000000E+00  0.93827000000E+00 0.  1.
     999902    2    1    2    0    0  0.81554578304E-02 -0.22377557210E-01  0.13997047014E-01  0.10163042170E+01  0.10159286775E+01 0.  0.
     999903    2    3    3    0    0  0.10355971561E+00  0.11796506426E-01 -0.69108382975E-01  0.12659845021E+00  0.19683158733E-01 0.  0.
         14    1    1    2    0    0 -0.81554578304E-02  0.22377557210E-01 -0.13997047014E-01  0.27625782961E-01  0.00000000000E+00 0.  1.
     999901    1    3    3    0    0 -0.95404257781E-01 -0.34174063637E-01  0.83105429989E-01  0.88970576683E+00  0.88000000000E+00 0. -1.
        -11    1    4    4    0    0  0.82106729183E-01  0.15804431447E-02 -0.56621860013E-01  0.99751235230E-01  0.51100000000E-03 0. -1.
         11    1    4    4    0    0  0.21452986429E-01  0.10216063282E-01 -0.12486522962E-01  0.26847214983E-01  0.51100000000E-03 0.  1.
</event>
<event>
 8    1  0.5489035E+004  0.1043930E+01  0.7957747E-01            NaN
         13   -1    0    0    0    0  0.00000000000E+00  0.00000000000E+00  0.74505805969E-08  0.10566000000E+00  0.10566000000E+00 0.  1.
     999900   -1    0    0    0    0 -0.00000000000E+00 -0.00000000000E+00 -0.74505805969E-08  0.93827000000E+00  0.93827000000E+00 0.  1.
     999902    2    1    2    0    0 -0.37767515507E-02 -0.22664861854E-01  0.28758826102E-01  0.10071192693E+01  0.10064463188E+01 0.  0.
     999903    2    3    3    0    0 -0.81001321461E-01 -0.42931339265E-01  0.77758490423E-01  0.12214733111E+00  0.21662725918E-01 0.  0.
         14    1    1    2    0    0  0.37767515507E-02  0.22664861854E-01 -0.28758826102E-01  0.36810730689E-01  0.00000000000E+00 0. -1.
     999901    1    3    3    0    0  0.77224569910E-01  0.20266477411E-01 -0.48999664321E-01  0.88497193820E+00  0.88000000000E+00 0.  1.
        -11    1    4    4    0    0 -0.38308360679E-01 -0.13753107787E-01  0.22684759382E-01  0.46599762885E-01  0.51100000000E-03 0.  1.
         11    1    4    4    0    0 -0.42692960782E-01 -0.29178231477E-01  0.55073731041E-01  0.75547568222E-01  0.51100000000E-03 0. -1.
</event>
<event>
 8    1  0.5489035E+004  0.1043930E+01  0.7957747E-01            NaN
         13   -1    0    0    0    0  0.00000000000E+00  0.00000000000E+00  0.74505805969E-08  0.10566000000E+00  0.10566000000E+00 0. -1.
     999900   -1    0    0    0    0 -0.00000000000E+00 -0.00000000000E+00 -0.74505805969E-08  0.93827000000E+00  0.93827000000E+00 0. -1.
     999902    2    1    2    0    0 -0.19382493164E-01 -0.65313955173E-02 -0.12278260442E-01  0.10200742701E+01  0.10197952837E+01 0.  0.
     999903    2    3    3    0    0 -0.10022344251E+00  0.46012326845E-01 -0.71350065494E-01  0.13283947594E+00  0.19839906023E-01 0.  0.
         14    1    1    2    0    0  0.19382493164E-01  0.65313955173E-02  0.12278260442E-01  0.23855729881E-01  0.00000000000E+00 0. -1.
     999901    1    3    3    0    0  0.80840949348E-01 -0.52543722362E-01  0.59071805051E-01  0.88723479418E+00  0.88000000000E+00 0.  1.
        -11    1    4    4    0    0 -0.55961642172E-01  0.30396993405E-01 -0.51385964059E-01  0.81831907139E-01  0.51100000000E-03 0. -1.
         11    1    4    4    0    0 -0.44261800341E-01  0.15615333439E-01 -0.19964101435E-01  0.51007568800E-01  0.51100000000E-03 0.  1.
</event>
<event>
 8    1  0.5489035E+004  0.1043930E+01  0.7957747E-01            NaN
         13   -1    0    0    0    0  0.00000000000E+00  0.00000000000E+00  0.74505805969E-08  0.10566000000E+00  0.10566000000E+00 0. -1.
     999900   -1    0    0    0    0 -0.00000000000E+00 -0.00000000000E+00 -0.74505805969E-08  0.93827000000E+00  0.93827000000E+00 0. -1.
     999902    2    1    2    0    0  0.19560893024E-02 -0.16875342996E-01 -0.15714693580E-01  0.10207879370E+01  0.10205255789E+01 0.  0.
     999903    2    3    3    0    0 -0.53128648841E-01 -0.16776430318E-01 -0.11915787766E+00  0.13301835511E+00  0.19778297358E-01 0.  0.
         14    1    1    2    0    0 -0.19560893024E-02  0.16875342996E-01  0.15714693580E-01  0.23142063021E-01  0.00000000000E+00 0. -1.
     999901    1    3    3    0    0  0.55084738144E-01 -0.98912677914E-04  0.10344318408E+00  0.88776958187E+00  0.88000000000E+00 0.  1.
        -11    1    4    4    0    0 -0.24061295009E-01 -0.17752176864E-01 -0.64758791669E-01  0.71330553905E-01  0.51100000000E-03 0. -1.
         11    1    4    4    0    0 -0.29067353832E-01  0.97574654646E-03 -0.54399085988E-01  0.61687801204E-01  0.51100000000E-03 0.  1.
</event>
<event>
 8    1  0.5489035E+004  0.1043930E+01  0.7957747E-01            NaN
         13   -1    0    0    0    0  0.00000000000E+00  0.00000000000E+00  0.74505805969E-08  0.10566000000E+00  0.10566000000E+00 0. -1.
     999900   -1    0    0    0    0 -0.00000000000E+00 -0.00000000000E+00 -0.74505805969E-08  0.93827000000E+00  0.93827000000E+00 0.  1.
     999902    2    1    2    0    0  0.23973001797E-01  0.22369474377E-02  0.55897681405E-02  0.10192125111E+01  0.10189127483E+01 0.  0.
     999903    2    3    3    0    0 -0.26444815503E-01 -0.81627408169E-01 -0.92615730791E-01  0.12835926480E+00  0.23153082711E-01 0.  0.
         14    1    1    2    0    0 -0.23973001797E-01 -0.22369474377E-02 -0.55897681405E-02  0.24717488887E-01  0.00000000000E+00 0.  1.
     999901    1    3    3    0    0  0.50417817300E-01  0.83864355607E-01  0.98205498932E-01  0.89085324631E+00  0.88000000000E+00 0. -1.
        -11    1    4    4    0    0 -0.29702278922E-01 -0.64716256102E-01 -0.69259313557E-01  0.99335455968E-01  0.51100000000E-03 0. -1.
         11    1    4    4    0    0  0.32574634196E-02 -0.16911152067E-01 -0.23356417234E-01  0.29023808833E-01  0.51100000000E-03 0.  1.
</event>
<event>
 8    1  0.5489035E+004  0.1043930E+01  0.7957747E-01            NaN
         13   -1    0    0    0    0  0.00000000000E+00  0.00000000000E+00  0.74505805969E-08  0.10566000000E+00  0.10566000000E+00 0. -1.
     999900   -1    0    0    0    0 -0.00000000000E+00 -0.00000000000E+00 -0.74505805969E-08  0.93827000000E+00  0.93827000000E+00 0.  1.
     999902    2    1    2    0    0 -0.17958763059E-01 -0.14872739484E-01  0.32781256208E-02  0.10203829905E+01  0.10201112614E+01 0.  0.
     999903    2    3    3    0    0  0.88728805765E-01  0.89648443951E-01  0.71047983907E-03  0.12779489513E+00  0.20527687761E-01 0.  0.
         14    1    1    2    0    0  0.17958763059E-01  0.14872739484E-01 -0.32781256208E-02  0.23547009533E-01  0.00000000000E+00 0. -1.
     999901    1    3    3    0    0 -0.10668756882E+00 -0.10452118343E+00  0.25676457817E-02  0.89258809533E+00  0.88000000000E+00 0.  1.
        -11    1    4    4    0    0  0.51932279408E-01  0.56455510461E-01  0.10045651357E-01  0.77365124818E-01  0.51100000000E-03 0. -1.
         11    1    4    4    0    0  0.36796526358E-01  0.33192933491E-01 -0.93351715181E-02  0.50429770315E-01  0.51100000000E-03 0.  1.
</event>
<event>
 8    1  0.5489035E+004  0.1043930E+01  0.7957747E-01            NaN
         13   -1    0    0    0    0  0.00000000000E+00  0.00000000000E+00  0.74505805969E-08  0.10566000000E+00  0.10566000000E+00 0. -1.
     999900   -1    0    0    0    0 -0.00000000000E+00 -0.00000000000E+00 -0.74505805969E-08  0.93827000000E+00  0.93827000000E+00 0.  1.
     999902    2    1    2    0    0  0.90671551397E-02  0.17948953255E-01  0.12312194809E-01  0.10203510185E+01  0.10200785424E+01 0.  0.
     999903    2    3    3    0    0 -0.45338784906E-01 -0.34592765382E-01  0.11685046982E+00  0.13094172612E+00  0.15473800734E-01 0.  0.
         14    1    1    2    0    0 -0.90671551397E-02 -0.17948953255E-01 -0.12312194809E-01  0.23578981451E-01  0.00000000000E+00 0.  1.
     999901    1    3    3    0    0  0.54405940046E-01  0.52541718637E-01 -0.10453827501E+00  0.88940929243E+00  0.88000000000E+00 0.  1.
        -11    1    4    4    0    0 -0.28432533590E-01 -0.20139701388E-01  0.53975675099E-01  0.64246798844E-01  0.51100000000E-03 0. -1.
         11    1    4    4    0    0 -0.16906251316E-01 -0.14453063995E-01  0.62874794723E-01  0.66694927280E-01  0.51100000000E-03 0.  1.
</event>
<event>
 8    1  0.5489035E+004  0.1043930E+01  0.7957747E-01            NaN
         13   -1    0    0    0    0  0.00000000000E+00  0.00000000000E+00  0.74505805969E-08  0.10566000000E+00  0.10566000000E+00 0.  1.
     999900   -1    0    0    0    0 -0.00000000000E+00 -0.00000000000E+00 -0.74505805969E-08  0.93827000000E+00  0.93827000000E+00 0. -1.
     999902    2    1    2    0    0  0.66400465365E-02  0.22866975011E-02 -0.23084845676E-01  0.10198005718E+01  0.10195150695E+01 0.  0.
     999903    2    3    3    0    0 -0.28886808424E-01  0.69625510071E-02  0.12193429457E+00  0.12721188041E+00  0.20783779926E-01 0.  0.
         14    1    1    2    0    0 -0.66400465365E-02 -0.22866975011E-02  0.23084845676E-01  0.24129428161E-01  0.00000000000E+00 0.  1.
     999901    1    3    3    0    0  0.35526854960E-01 -0.46758535060E-02 -0.14501914025E+00  0.89258869143E+00  0.88000000000E+00 0. -1.
        -11    1    4    4    0    0 -0.13800674066E-01  0.52023139229E-02  0.24513284975E-01  0.28612670901E-01  0.51100000000E-03 0. -1.
         11    1    4    4    0    0 -0.15086134357E-01  0.17602370842E-02  0.97421009595E-01  0.98599209509E-01  0.51100000000E-03 0.  1.
</event>
<event>
 8    1  0.5489035E+004  0.1043930E+01  0.7957747E-01            NaN
         13   -1    0    0    0    0  0.00000000000E+00  0.00000000000E+00  0.74505805969E-08  0.10566000000E+00  0.10566000000E+00 0. -1.
     999900   -1    0    0    0    0 -0.00000000000E+00 -0.00000000000E+00 -0.74505805969E-08  0.93827000000E+00  0.93827000000E+00 0. -1.
     999902    2    1    2    0    0  0.92281317338E-02  0.77062810519E-02 -0.20663840622E-01  0.10200231079E+01  0.10197429093E+01 0.  0.
     999903    2    3    3    0    0 -0.35793689278E-01  0.12609449989E-01  0.12054005865E+00  0.12761650400E+00  0.17773011320E-01 0.  0.
         14    1    1    2    0    0 -0.92281317338E-02 -0.77062810519E-02  0.20663840622E-01  0.23906892148E-01  0.00000000000E+00 0. -1.
     999901    1    3    3    0    0  0.45021821012E-01 -0.49031689372E-02 -0.14120389927E+00  0.89240660385E+00  0.88000000000E+00 0. -1.
        -11    1    4    4    0    0 -0.27551360155E-01  0.17173555290E-01  0.93646234007E-01  0.99115522056E-01  0.51100000000E-03 0. -1.
         11    1    4    4    0    0 -0.82423291233E-02 -0.45641053008E-02  0.26893824646E-01  0.28500981942E-01  0.51100000000E-03 0.  1.
</event>
<event>
 8    1  0.5489035E+004  0.1043930E+01  0.7957747E-01            NaN
         13   -1    0    0    0    0  0.00000000000E+00  0.00000000000E+00  0.74505805969E-08  0.10566000000E+00  0.10566000000E+00 0.  1.
     999900   -1    0    0    0    0 -0.00000000000E+00 -0.00000000000E+00 -0.74505805969E-08  0.93827000000E+00  0.93827000000E+00 0.  1.
     999902    2    1    2    0    0  0.21142376640E-01  0.47816927643E-02 -0.12091432890E-01  0.10191092944E+01  0.10188069918E+01 0.  0.
     999903    2    3    3    0    0 -0.44870251216E-01 -0.50427518662E-01  0.10573979437E+00  0.12709476418E+00  0.20393648153E-01 0.  0.
         14    1    1    2    0    0 -0.21142376640E-01 -0.47816927643E-02  0.12091432890E-01  0.24820705571E-01  0.00000000000E+00 0.  1.
     999901    1    3    3    0    0  0.66012627856E-01  0.55209211426E-01 -0.11783122726E+00  0.89201453025E+00  0.88000000000E+00 0.  1.
        -11    1    4    4    0    0 -0.20835187207E-01 -0.92069182658E-02  0.35196038356E-01  0.41927253748E-01  0.51100000000E-03 0.  1.
         11    1    4    4    0    0 -0.24035064009E-01 -0.41220600396E-01  0.70543756016E-01  0.85167510429E-01  0.51100000000E-03 0. -1.
</event>
<event>
 8    1  0.5489035E+004  0.1043930E+01  0.7957747E-01            NaN
         13   -1    0    0    0    0  0.00000000000E+00  0.00000000000E+00  0.74505805969E-08  0.10566000000E+00  0.10566000000E+00 0.  1.
     999900   -1    0    0    0    0 -0.00000000000E+00 -0.00000000000E+00 -0.74505805969E-08  0.93827000000E+00  0.93827000000E+00 0. -1.
     999902    2    1    2    0    0  0.18344870265E-01  0.10021199974E-01  0.10788218991E-01  0.10204067268E+01  0.10201355516E+01 0.  0.
     999903    2    3    3    0    0  0.50158185511E-01 -0.19327204120E-01  0.11959310141E+00  0.13265004937E+00  0.20103265899E-01 0.  0.
         14    1    1    2    0    0 -0.18344870265E-01 -0.10021199974E-01 -0.10788218991E-01  0.23523273220E-01  0.00000000000E+00 0.  1.
     999901    1    3    3    0    0 -0.31813315245E-01  0.29348404094E-01 -0.10880488242E+00  0.88775667741E+00  0.88000000000E+00 0. -1.
        -11    1    4    4    0    0  0.16829151940E-01 -0.65593859062E-02  0.64670197557E-01  0.67147162796E-01  0.51100000000E-03 0. -1.
         11    1    4    4    0    0  0.33329033571E-01 -0.12767818214E-01  0.54922903854E-01  0.65502886573E-01  0.51100000000E-03 0.  1.
</event>
<event>
 8    1  0.5489035E+004  0.1043930E+01  0.7957747E-01            NaN
         13   -1    0    0    0    0  0.00000000000E+00  0.00000000000E+00  0.74505805969E-08  0.10566000000E+00  0.10566000000E+00 0.  1.
     999900   -1    0    0    0    0 -0.00000000000E+00 -0.00000000000E+00 -0.74505805969E-08  0.93827000000E+00  0.93827000000E+00 0. -1.
     999902    2    1    2    0    0  0.14354397203E-01  0.99685792726E-02  0.15629173851E-01  0.10204844809E+01  0.10202151162E+01 0.  0.
     999903    2    3    3    0    0  0.11018690942E+00 -0.56189839165E-01  0.42842275246E-01  0.13239588191E+00  0.19868466616E-01 0.  0.
         14    1    1    2    0    0 -0.14354397203E-01 -0.99685792726E-02 -0.15629173851E-01  0.23445519125E-01  0.00000000000E+00 0. -1.
     999901    1    3    3    0    0 -0.95832512214E-01  0.66158418438E-01 -0.27213101396E-01  0.88808859897E+00  0.88000000000E+00 0. -1.
        -11    1    4    4    0    0  0.52744505669E-01 -0.32916027216E-01  0.12632205319E-01  0.63445105864E-01  0.51100000000E-03 0. -1.
         11    1    4    4    0    0  0.57442403748E-01 -0.23273811950E-01  0.30210069928E-01  0.68950776044E-01  0.51100000000E-03 0.  1.
</event>
<event>
 8    1  0.5489035E+004  0.1043930E+01  0.7957747E-01            NaN
         13   -1    0    0    0    0  0.00000000000E+00  0.00000000000E+00  0.74505805969E-08  0.10566000000E+00  0.10566000000E+00 0. -1.
     999900   -1    0    0    0    0 -0.00000000000E+00 -0.00000000000E+00 -0.74505805969E-08  0.93827000000E+00  0.93827000000E+00 0.  1.
     999902    2    1    2    0    0 -0.59954033426E-02 -0.17679536351E-01  0.15742505271E-01  0.10195099808E+01  0.10192174761E+01 0.  0.
     999903    2    3    3    0    0  0.25254306639E-01 -0.41383065309E-01  0.12261922774E+00  0.13217631441E+00  0.92067899699E-02 0.  0.
         14    1    1    2    0    0  0.59954033426E-02  0.17679536351E-01 -0.15742505271E-01  0.24420019227E-01  0.00000000000E+00 0. -1.
     999901    1    3    3    0    0 -0.31249709982E-01  0.23703528958E-01 -0.10687672247E+00  0.88733366636E+00  0.88000000000E+00 0.  1.
        -11    1    4    4    0    0  0.82394610550E-02 -0.17803143827E-01  0.60127407152E-01  0.63248769636E-01  0.51100000000E-03 0. -1.
         11    1    4    4    0    0  0.17014845585E-01 -0.23579921482E-01  0.62491820585E-01  0.68927544772E-01  0.51100000000E-03 0.  1.
</event>
<event>
 8    1  0.5489035E+004  0.1043930E+01  0.7957747E-01            NaN
         13   -1    0    0    0    0  0.00000000000E+00  0.00000000000E+00  0.74505805969E-08  0.10566000000E+00  0.10566000000E+00 0. -1.
     999900   -1    0    0    0    0 -0.00000000000E+00 -0.00000000000E+00 -0.74505805969E-08  0.93827000000E+00  0.93827000000E+00 0.  1.
     999902    2    1    2    0    0 -0.21177425831E-01  0.92512139014E-02 -0.48974473966E-02  0.10203068479E+01  0.10200333380E+01 0.  0.
     999903    2    3    3    0    0 -0.53658565711E-01 -0.85285915800E-01  0.80543429828E-01  0.13053584544E+00  0.19985838699E-01 0.  0.
         14    1    1    2    0    0  0.21177425831E-01 -0.92512139014E-02  0.48974473966E-02  0.23623152086E-01  0.00000000000E+00 0.  1.
     999901    1    3    3    0    0  0.32481139880E-01  0.94537129702E-01 -0.85440877225E-01  0.88977100247E+00  0.88000000000E+00 0.  1.
        -11    1    4    4    0    0 -0.12260489514E-01 -0.30741113325E-01  0.35689121647E-01  0.48675560362E-01  0.51100000000E-03 0.  1.
         11    1    4    4    0    0 -0.41398076197E-01 -0.54544802475E-01  0.44854308181E-01  0.81860285079E-01  0.51100000000E-03 0. -1.
</event>
<event>
 8    1  0.5489035E+004  0.1043930E+01  0.7957747E-01            NaN
         13   -1    0    0    0    0  0.00000000000E+00  0.00000000000E+00  0.74505805969E-08  0.10566000000E+00  0.10566000000E+00 0.  1.
     999900   -1    0    0    0    0 -0.00000000000E+00 -0.00000000000E+00 -0.74505805969E-08  0.93827000000E+00  0.93827000000E+00 0.  1.
     999902    2    1    2    0    0 -0.17305508893E-01  0.60542580889E-02  0.17204809978E-01  0.10187876022E+01  0.10184773136E+01 0.  0.
     999903    2    3    3    0    0  0.81974082206E-02 -0.84749923405E-01 -0.92100631271E-01  0.12702335220E+00  0.20066357513E-01 0.  0.
         14    1    1    2    0    0  0.17305508893E-01 -0.60542580889E-02 -0.17204809978E-01  0.25142397767E-01  0.00000000000E+00 0.  1.
     999901    1    3    3    0    0 -0.25502917114E-01  0.90804181494E-01  0.10930544125E+00  0.89176425004E+00  0.88000000000E+00 0. -1.
        -11    1    4    4    0    0  0.81404088209E-02 -0.61031558549E-01 -0.52776003907E-01  0.81096763832E-01  0.51100000000E-03 0. -1.
         11    1    4    4    0    0  0.56999399631E-04 -0.23718364856E-01 -0.39324627364E-01  0.45926588364E-01  0.51100000000E-03 0.  1.
</event>
<event>
 8    1  0.5489035E+004  0.1043930E+01  0.7957747E-01            NaN
         13   -1    0    0    0    0  0.00000000000E+00  0.00000000000E+00  0.74505805969E-08  0.10566000000E+00  0.10566000000E+00 0. -1.
     999900   -1    0    0    0    0 -0.00000000000E+00 -0.00000000000E+00 -0.74505805969E-08  0.93827000000E+00  0.93827000000E+00 0.  1.
     999902    2    1    2    0    0 -0.82797547320E-02 -0.19330064430E-01  0.11522696167E-01  0.10199512958E+01  0.10196693913E+01 0.  0.
     999903    2    3    3    0    0  0.19382930047E-01 -0.87864939912E-01 -0.92822488252E-01  0.13070995013E+00  0.19316601563E-01 0.  0.
         14    1    1    2    0    0  0.82797547320E-02  0.19330064430E-01 -0.11522696167E-01  0.23978704224E-01  0.00000000000E+00 0.  1.
     999901    1    3    3    0    0 -0.27662684779E-01  0.68534875482E-01  0.10434518442E+00  0.88924134564E+00  0.88000000000E+00 0. -1.
        -11    1    4    4    0    0 -0.33887160566E-02 -0.21276234879E-01 -0.19225563427E-01  0.28879836863E-01  0.51100000000E-03 0. -1.
         11    1    4    4    0    0  0.22771646104E-01 -0.66588705033E-01 -0.73596924825E-01  0.10183011327E+00  0.51100000000E-03 0.  1.
</event>
<event>
 8    1  0.5489035E+004  0.1043930E+01  0.7957747E-01            NaN
         13   -1    0    0    0    0  0.00000000000E+00  0.00000000000E+00  0.74505805969E-08  0.10566000000E+00  0.10566000000E+00 0. -1.
     999900   -1    0    0    0    0 -0.00000000000E+00 -0.00000000000E+00 -0.74505805969E-08  0.93827000000E+00  0.93827000000E+00 0.  1.
     999902    2    1    2    0    0 -0.99985003649E-02 -0.20174931688E-01  0.90179261600E-03  0.10213953354E+01  0.10211467182E+01 0.  0.
     999903    2    3    3    0    0 -0.10614901549E+00 -0.17020441706E-01 -0.75854585079E-01  0.13283109244E+00  0.18244783259E-01 0.  0.
         14    1    1    2    0    0  0.99985003649E-02  0.20174931688E-01 -0.90179261600E-03  0.22534664588E-01  0.00000000000E+00 0.  1.
     999901    1    3    3    0    0  0.96150515128E-01 -0.31544899814E-02  0.76756377695E-01  0.88856424297E+00  0.88000000000E+00 0.  1.
        -11    1    4    4    0    0 -0.14002825169E-01  0.38234814383E-02 -0.88756749474E-02  0.17021658256E-01  0.51100000000E-03 0.  1.
         11    1    4    4    0    0 -0.92146190324E-01 -0.20843923145E-01 -0.66978910132E-01  0.11580943419E+00  0.51100000000E-03 0. -1.
</event>
<event>
 8    1  0.5489035E+004  0.1043930E+01  0.7957747E-01            NaN
         13   -1    0    0    0    0  0.00000000000E+00  0.00000000000E+00  0.74505805969E-08  0.10566000000E+00  0.10566000000E+00 0. -1.
     999900   -1    0    0    0    0 -0.00000000000E+00 -0.00000000000E+00 -0.74505805969E-08  0.93827000000E+00  0.93827000000E+00 0. -1.
     999902    2    1    2    0    0  0.28644322326E-02  0.14380369953E-01 -0.17631197611E-01  0.10209983812E+01  0.10207408267E+01 0.  0.
     999903    2    3    3    0    0 -0.80218379965E-01  0.76008879452E-01 -0.71667690561E-01  0.13329304188E+00  0.20455779241E-01 0.  0.
         14    1    1    2    0    0 -0.28644322326E-02 -0.14380369953E-01  0.17631197611E-01  0.22931618809E-01  0.00000000000E+00 0. -1.
     999901    1    3    3    0    0  0.83082812198E-01 -0.61628509499E-01  0.54036492950E-01  0.88770533931E+00  0.88000000000E+00 0.  1.
        -11    1    4    4    0    0 -0.22475995570E-01  0.18981446064E-01 -0.90401429559E-02  0.30780691630E-01  0.51100000000E-03 0.  1.
         11    1    4    4    0    0 -0.57742384395E-01  0.57027433388E-01 -0.62627547605E-01  0.10251235025E+00  0.51100000000E-03 0. -1.
</event>
<event>
 8    1  0.5489035E+004  0.1043930E+01  0.7957747E-01            NaN
         13   -1    0    0    0    0  0.00000000000E+00  0.00000000000E+00  0.74505805969E-08  0.10566000000E+00  0.10566000000E+00 0.  1.
     999900   -1    0    0    0    0 -0.00000000000E+00 -0.00000000000E+00 -0.74505805969E-08  0.93827000000E+00  0.93827000000E+00 0. -1.
     999902    2    1    2    0    0  0.16616770426E-02 -0.23925937685E-01  0.65416423353E-02  0.10190702987E+01  0.10187670337E+01 0.  0.
     999903    2    3    3    0    0 -0.74399347661E-01 -0.80599070372E-01 -0.68967218185E-01  0.13075801607E+00  0.17598536985E-01 0.  0.
         14    1    1    2    0    0 -0.16616770426E-02  0.23925937685E-01 -0.65416423353E-02  0.24859701308E-01  0.00000000000E+00 0.  1.
     999901    1    3    3    0    0  0.76061024704E-01  0.56673132688E-01  0.75508860520E-01  0.88831228263E+00  0.88000000000E+00 0.  1.
        -11    1    4    4    0    0 -0.58475003824E-01 -0.68352082181E-01 -0.62910734861E-01  0.10976955358E+00  0.51100000000E-03 0.  1.
         11    1    4    4    0    0 -0.15924343837E-01 -0.12246988192E-01 -0.60564833238E-02  0.20988462489E-01  0.51100000000E-03 0. -1.
</event>
<event>
 8    1  0.5489035E+004  0.1043930E+01  0.7957747E-01            NaN
         13   -1    0    0    0    0  0.00000000000E+00  0.00000000000E+00  0.74505805969E-08  0.10566000000E+00  0.10566000000E+00 0.  1.
     999900   -1    0    0    0    0 -0.00000000000E+00 -0.00000000000E+00 -0.74505805969E-08  0.93827000000E+00  0.93827000000E+00 0. -1.
     999902    2    1    2    0    0  0.84740224436E-02 -0.11295974371E-01 -0.19063967715E-01  0.10202056885E+01  0.10199298034E+01 0.  0.
     999903    2    3    3    0    0 -0.28174193962E-01 -0.10077706548E+00  0.74467945397E-01  0.12998202206E+00  0.20001225844E-01 0.  0.
         14    1    1    2    0    0 -0.84740224436E-02  0.11295974371E-01  0.19063967715E-01  0.23724311547E-01  0.00000000000E+00 0.  1.
     999901    1    3    3    0    0  0.36648216405E-01  0.89481091111E-01 -0.93531913112E-01  0.89022366639E+00  0.88000000000E+00 0. -1.
        -11    1    4    4    0    0 -0.10232554106E-01 -0.30814643391E-01  0.12437991562E-01  0.34773728100E-01  0.51100000000E-03 0. -1.
         11    1    4    4    0    0 -0.17941639856E-01 -0.69962422090E-01  0.62029953835E-01  0.95208293962E-01  0.51100000000E-03 0.  1.
</event>
<event>
 8    1  0.5489035E+004  0.1043930E+01  0.7957747E-01            NaN
         13   -1    0    0    0    0  0.00000000000E+00  0.00000000000E+00  0.74505805969E-08  0.10566000000E+00  0.10566000000E+00 0.  1.
     999900   -1    0    0    0    0 -0.00000000000E+00 -0.00000000000E+00 -0.74505805969E-08  0.93827000000E+00  0.93827000000E+00 0.  1.
     999902    2    1    2    0    0  0.79117973719E-02 -0.23522749167E-01 -0.73134066537E-03  0.10191015662E+01  0.10187990730E+01 0.  0.
     999903    2    3    3    0    0  0.11467220646E+00  0.28361009908E-01 -0.49771863649E-01  0.12977896877E+00  0.20280051914E-01 0.  0.
         14    1    1    2    0    0 -0.79117973719E-02  0.23522749167E-01  0.73134066537E-03  0.24828433804E-01  0.00000000000E+00 0. -1.
     999901    1    3    3    0    0 -0.10676040909E+00 -0.51883759074E-01  0.49040522983E-01  0.88932259743E+00  0.88000000000E+00 0.  1.
        -11    1    4    4    0    0  0.57226905218E-01  0.14759628226E-01 -0.13952358170E-01  0.60726392332E-01  0.51100000000E-03 0.  1.
         11    1    4    4    0    0  0.57445301242E-01  0.13601381681E-01 -0.35819505479E-01  0.69052576434E-01  0.51100000000E-03 0. -1.
</event>
<event>
 8    1  0.5489035E+004  0.1043930E+01  0.7957747E-01            NaN
         13   -1    0    0    0    0  0.00000000000E+00  0.00000000000E+00  0.74505805969E-08  0.10566000000E+00  0.10566000000E+00 0. -1.
     999900   -1    0    0    0    0 -0.00000000000E+00 -0.00000000000E+00 -0.74505805969E-08  0.93827000000E+00  0.93827000000E+00 0. -1.
     999902    2    1    2    0    0  0.11770432755E-01  0.17564930321E-01  0.11220289820E-01  0.10199933175E+01  0.10197124119E+01 0.  0.
     999903    2    3    3    0    0  0.82169620237E-01 -0.97240624630E-01 -0.19137026565E-01  0.12923076347E+00  0.11259612443E-01 0.  0.
         14    1    1    2    0    0 -0.11770432755E-01 -0.17564930321E-01 -0.11220289820E-01  0.23936682479E-01  0.00000000000E+00 0.  1.
     999901    1    3    3    0    0 -0.70399187482E-01  0.11480555495E+00  0.30357316385E-01  0.89076255405E+00  0.88000000000E+00 0. -1.
        -11    1    4    4    0    0  0.26724491629E-01 -0.39379302776E-01 -0.50309561505E-02  0.47859164021E-01  0.51100000000E-03 0. -1.
         11    1    4    4    0    0  0.55445128608E-01 -0.57861321854E-01 -0.14106070415E-01  0.81371599447E-01  0.51100000000E-03 0.  1.
</event>
<event>
 8    1  0.5489035E+004  0.1043930E+01  0.7957747E-01            NaN
         13   -1    0    0    0    0  0.00000000000E+00  0.00000000000E+00  0.74505805969E-08  0.10566000000E+00  0.10566000000E+00 0.  1.
     999900   -1    0    0    0    0 -0.00000000000E+00 -0.00000000000E+00 -0.74505805969E-08  0.93827000000E+00  0.93827000000E+00 0. -1.
     999902    2    1    2    0    0  0.14241377560E-01 -0.18568724059E-01 -0.60919885025E-02  0.10197488778E+01  0.10194621362E+01 0.  0.
     999903    2    3    3    0    0  0.60014165904E-01 -0.73633088982E-01 -0.91302662588E-01  0.13273811605E+00  0.16115190215E-01 0.  0.
         14    1    1    2    0    0 -0.14241377560E-01  0.18568724059E-01  0.60919885025E-02  0.24181122222E-01  0.00000000000E+00 0. -1.
     999901    1    3    3    0    0 -0.45772788344E-01  0.55064364923E-01  0.85210674085E-01  0.88701076172E+00  0.88000000000E+00 0.  1.
        -11    1    4    4    0    0  0.30088868933E-01 -0.45114988705E-01 -0.43367695347E-01  0.69438608571E-01  0.51100000000E-03 0.  1.
         11    1    4    4    0    0  0.29925296970E-01 -0.28518100277E-01 -0.47934967241E-01  0.63299507483E-01  0.51100000000E-03 0. -1.
</event>
<event>
 8    1  0.5489035E+004  0.1043930E+01  0.7957747E-01            NaN
         13   -1    0    0    0    0  0.00000000000E+00  0.00000000000E+00  0.74505805969E-08  0.10566000000E+00  0.10566000000E+00 0.  1.
     999900   -1    0    0    0    0 -0.00000000000E+00 -0.00000000000E+00 -0.74505805969E-08  0.93827000000E+00  0.93827000000E+00 0. -1.
     999902    2    1    2    0    0 -0.77624045590E-02 -0.12372890289E-01  0.18235297778E-01  0.10205661514E+01  0.10202986817E+01 0.  0.
     999903    2    3    3    0    0 -0.33108664098E-01  0.12188746838E+00  0.22764301786E-01  0.13001082536E+00  0.20781306219E-01 0.  0.
         14    1    1    2    0    0  0.77624045590E-02  0.12372890289E-01 -0.18235297778E-01  0.23363848649E-01  0.00000000000E+00 0. -1.
     999901    1    3    3    0    0  0.25346259539E-01 -0.13426035867E+00 -0.45290040071E-02  0.89055532600E+00  0.88000000000E+00 0. -1.
        -11    1    4    4    0    0 -0.68246268084E-02  0.59614281981E-01  0.15846266739E-01  0.62062899044E-01  0.51100000000E-03 0.  1.
         11    1    4    4    0    0 -0.26284037289E-01  0.62273186396E-01  0.69180350465E-02  0.67947926311E-01  0.51100000000E-03 0. -1.
</event>
<event>
 8    1  0.5489035E+004  0.1043930E+01  0.7957747E-01            NaN
         13   -1    0    0    0    0  0.00000000000E+00  0.00000000000E+00  0.74505805969E-08  0.10566000000E+00  0.10566000000E+00 0.  1.
     999900   -1    0    0    0    0 -0.00000000000E+00 -0.00000000000E+00 -0.74505805969E-08  0.93827000000E+00  0.93827000000E+00 0.  1.
     999902    2    1    2    0    0  0.81556780806E-02 -0.14509962422E-01  0.15488419534E-01  0.10211935703E+01  0.10209404306E+01 0.  0.
     999903    2    3    3    0    0 -0.32304418120E-01 -0.37892407604E-01  0.12219990078E+00  0.13351620870E+00  0.20355644209E-01 0.  0.
         14    1    1    2    0    0 -0.81556780806E-02  0.14509962422E-01 -0.15488419534E-01  0.22736429669E-01  0.00000000000E+00 0.  1.
     999901    1    3    3    0    0  0.40460096200E-01  0.23382445181E-01 -0.10671148124E+00  0.88767736163E+00  0.88000000000E+00 0.  1.
        -11    1    4    4    0    0 -0.22254553142E-01 -0.33830018870E-01  0.76637647565E-01  0.86679440801E-01  0.51100000000E-03 0. -1.
         11    1    4    4    0    0 -0.10049864977E-01 -0.40623887337E-02  0.45562253211E-01  0.46836767896E-01  0.51100000000E-03 0.  1.
</event>
<event>
 8    1  0.5489035E+004  0.1043930E+01  0.7957747E-01            NaN
         13   -1    0    0    0    0  0.00000000000E+00  0.00000000000E+00  0.74505805969E-08  0.10566000000E+00  0.10566000000E+00 0. -1.
     999900   -1    0    0    0    0 -0.00000000000E+00 -0.00000000000E+00 -0.74505805969E-08  0.93827000000E+00  0.93827000000E+00 0.  1.
     999902    2    1    2    0    0  0.25849142897E-01 -0.18244770292E-01  0.53803289065E-03  0.10122860541E+01  0.10117913402E+01 0.  0.
     999903    2    3    3    0    0 -0.93002406313E-01  0.72309231493E-01  0.60391262550E-02  0.11967416757E+00  0.20183230601E-01 0.  0.
         14    1    1    2    0    0 -0.25849142897E-01  0.18244770292E-01 -0.53803289065E-03  0.31643945881E-01  0.00000000000E+00 0.  1.
     999901    1    3    3    0    0  0.11885154921E+00 -0.90554001784E-01 -0.55010933643E-02  0.89261188655E+00  0.88000000000E+00 0.  1.
        -11    1    4    4    0    0 -0.20763685135E-01  0.79380959943E-02 -0.32443579362E-02  0.22470669056E-01  0.51100000000E-03 0. -1.
         11    1    4    4    0    0 -0.72238721178E-01  0.64371135498E-01  0.92834841912E-02  0.97203498510E-01  0.51100000000E-03 0.  1.
</event>
<event>
 8    1  0.5489035E+004  0.1043930E+01  0.7957747E-01            NaN
         13   -1    0    0    0    0  0.00000000000E+00  0.00000000000E+00  0.74505805969E-08  0.10566000000E+00  0.10566000000E+00 0.  1.
     999900   -1    0    0    0    0 -0.00000000000E+00 -0.00000000000E+00 -0.74505805969E-08  0.93827000000E+00  0.93827000000E+00 0. -1.
     999902    2    1    2    0    0 -0.85287451496E-02  0.19714786136E-01 -0.15404408303E-01  0.10174969131E+01  0.10171535086E+01 0.  0.
     999903    2    3    3    0    0 -0.10603899700E+00 -0.45694947733E-02  0.68413841122E-01  0.12782086285E+00  0.19813383237E-01 0.  0.
         14    1    1    2    0    0  0.85287451496E-02 -0.19714786136E-01  0.15404408303E-01  0.26433086868E-01  0.00000000000E+00 0. -1.
     999901    1    3    3    0    0  0.97510251847E-01  0.24284280910E-01 -0.83818249425E-01  0.88967605029E+00  0.88000000000E+00 0. -1.
        -11    1    4    4    0    0 -0.58980413713E-01 -0.11104237642E-01  0.32432632951E-01  0.68221185100E-01  0.51100000000E-03 0.  1.
         11    1    4    4    0    0 -0.47058583283E-01  0.65347428686E-02  0.35981208171E-01  0.59599677746E-01  0.51100000000E-03 0. -1.
</event>
<event>
 7    1  0.5489035E+004  0.1043930E+01  0.7957747E-01            NaN
         13   -1    0    0    0    0  0.00000000000E+00  0.00000000000E+00  0.74505805969E-08  0.10566000000E+00  0.10566000000E+00 0.  1.
     999900   -1    0    0    0    0 -0.00000000000E+00 -0.00000000000E+00 -0.74505805969E-08  0.93827000000E+00  0.93827000000E+00 0.  1.
     999903    2    1    2    0    0 -0.37753140662E-01 -0.91509671166E-01 -0.37856462502E-01  0.10778331368E+00  0.19616610531E-01 0.  0.
         14    1    1    2    0    0 -0.27748608641E-01  0.43164648768E-01  0.75730650083E-02  0.51870256394E-01  0.00000000000E+00 0. -1.
     999901    1    1    2    0    0  0.65501749303E-01  0.48345022398E-01  0.30283397494E-01  0.88427642992E+00  0.88000000000E+00 0. -1.
        -11    1    3    3    0    0 -0.29590737557E-01 -0.65588096485E-01 -0.36207564864E-01  0.80552213030E-01  0.51100000000E-03 0.  1.
         11    1    3    3    0    0 -0.81624031049E-02 -0.25921574681E-01 -0.16488976386E-02  0.27231100654E-01  0.51100000000E-03 0. -1.
</event>
<event>
 8    1  0.5489035E+004  0.1043930E+01  0.7957747E-01            NaN
         13   -1    0    0    0    0  0.00000000000E+00  0.00000000000E+00  0.74505805969E-08  0.10566000000E+00  0.10566000000E+00 0. -1.
     999900   -1    0    0    0    0 -0.00000000000E+00 -0.00000000000E+00 -0.74505805969E-08  0.93827000000E+00  0.93827000000E+00 0. -1.
     999902    2    1    2    0    0  0.13089255521E-01  0.20200117028E-01  0.16010166279E-02  0.10198066380E+01  0.10195212810E+01 0.  0.
     999903    2    3    3    0    0  0.26718722570E-02 -0.11821888720E+00  0.44443927168E-01  0.12789640848E+00  0.19984605299E-01 0.  0.
         14    1    1    2    0    0 -0.13089255521E-01 -0.20200117028E-01 -0.16010166279E-02  0.24123361961E-01  0.00000000000E+00 0.  1.
     999901    1    3    3    0    0  0.10417383264E-01  0.13841900423E+00 -0.42842910540E-01  0.89191022956E+00  0.88000000000E+00 0. -1.
        -11    1    4    4    0    0 -0.51362655360E-02 -0.34558520923E-01  0.58372294961E-02  0.35426077418E-01  0.51100000000E-03 0.  1.
         11    1    4    4    0    0  0.78081377930E-02 -0.83660366275E-01  0.38606697672E-01  0.92470331064E-01  0.51100000000E-03 0. -1.
</event>
<event>
 8    1  0.5489035E+004  0.1043930E+01  0.7957747E-01            NaN
         13   -1    0    0    0    0  0.00000000000E+00  0.00000000000E+00  0.74505805969E-08  0.10566000000E+00  0.10566000000E+00 0.  1.
     999900   -1    0    0    0    0 -0.00000000000E+00 -0.00000000000E+00 -0.74505805969E-08  0.93827000000E+00  0.93827000000E+00 0.  1.
     999902    2    1    2    0    0  0.15863134293E-01  0.36638077785E-02  0.18111977934E-01  0.10195762270E+01  0.10192853262E+01 0.  0.
     999903    2    3    3    0    0  0.10357254610E+00  0.30369371362E-01  0.75107214422E-01  0.13297903260E+00  0.19818133876E-01 0.  0.
         14    1    1    2    0    0 -0.15863134293E-01 -0.36638077785E-02 -0.18111977934E-01  0.24353773049E-01  0.00000000000E+00 0. -1.
     999901    1    3    3    0    0 -0.87709411809E-01 -0.26705563584E-01 -0.56995236488E-01  0.88659719435E+00  0.88000000000E+00 0. -1.
        -11    1    4    4    0    0  0.67290686215E-01  0.15962956247E-01  0.58378998332E-01  0.90505364430E-01  0.51100000000E-03 0.  1.
         11    1    4    4    0    0  0.36281859887E-01  0.14406415116E-01  0.16728216091E-01  0.42473668171E-01  0.51100000000E-03 0. -1.
</event>
<event>
 8    1  0.5489035E+004  0.1043930E+01  0.7957747E-01            NaN
         13   -1    0    0    0    0  0.00000000000E+00  0.00000000000E+00  0.74505805969E-08  0.10566000000E+00  0.10566000000E+00 0. -1.
     999900   -1    0    0    0    0 -0.00000000000E+00 -0.00000000000E+00 -0.74505805969E-08  0.93827000000E+00  0.93827000000E+00 0. -1.
     999902    2    1    2    0    0 -0.19260839820E-01 -0.12183540470E-01 -0.80699602493E-02  0.10197526787E+01  0.10194660283E+01 0.  0.
     999903    2    3    3    0    0 -0.46778596894E-01  0.86600795847E-01  0.81385612595E-01  0.12929331879E+00  0.20129813167E-01 0.  0.
         14    1    1    2    0    0  0.19260839820E-01  0.12183540470E-01  0.80699602493E-02  0.24177321344E-01  0.00000000000E+00 0.  1.
     999901    1    3    3    0    0  0.27517757074E-01 -0.98784336317E-01 -0.89455572844E-01  0.89045935986E+00  0.88000000000E+00 0. -1.
        -11    1    4    4    0    0 -0.38015039886E-01  0.57131955438E-01  0.47069814434E-01  0.83216778005E-01  0.51100000000E-03 0. -1.
         11    1    4    4    0    0 -0.87635570080E-02  0.29468840409E-01  0.34315798161E-01  0.46076540787E-01  0.51100000000E-03 0.  1.
</event>
<event>
 8    1  0.5489035E+004  0.1043930E+01  0.7957747E-01            NaN
         13   -1    0    0    0    0  0.00000000000E+00  0.00000000000E+00  0.74505805969E-08  0.10566000000E+00  0.10566000000E+00 0. -1.
     999900   -1    0    0    0    0 -0.00000000000E+00 -0.00000000000E+00 -0.74505805969E-08  0.93827000000E+00  0.93827000000E+00 0. -1.
     999902    2    1    2    0    0 -0.15854943792E-01 -0.12377518890E-01 -0.11003126596E-01  0.10210029197E+01  0.10207454683E+01 0.  0.
     999903    2    3    3    0    0  0.24790122374E-01  0.12748149621E-01  0.12437135503E+00  0.12936982761E+00  0.22164224750E-01 0.  0.
         14    1    1    2    0    0  0.15854943792E-01  0.12377518890E-01  0.11003126596E-01  0.22927080307E-01  0.00000000000E+00 0. -1.
     999901    1    3    3    0    0 -0.40645066166E-01 -0.25125668511E-01 -0.13537448162E+00  0.89163309208E+00  0.88000000000E+00 0. -1.
        -11    1    4    4    0    0  0.26699416956E-01  0.47241980689E-02  0.88659965428E-01  0.92714764217E-01  0.51100000000E-03 0.  1.
         11    1    4    4    0    0 -0.19092945817E-02  0.80239515523E-02  0.35711389599E-01  0.36655063394E-01  0.51100000000E-03 0. -1.
</event>
<event>
 7    1  0.5489035E+004  0.1043930E+01  0.7957747E-01            NaN
         13   -1    0    0    0    0  0.00000000000E+00  0.00000000000E+00  0.74505805969E-08  0.10566000000E+00  0.10566000000E+00 0. -1.
     999900   -1    0    0    0    0 -0.00000000000E+00 -0.00000000000E+00 -0.74505805969E-08  0.93827000000E+00  0.93827000000E+00 0.  1.
     999903    2    1    2    0    0 -0.22735527913E-01  0.20877700464E-01 -0.10564064781E+00  0.11201624314E+00  0.20854487589E-01 0.  0.
         14    1    1    2    0    0  0.17045623039E-01  0.40300956232E-01  0.42333618281E-02  0.43961820827E-01  0.00000000000E+00 0. -1.
     999901    1    1    2    0    0  0.56899048741E-02 -0.61178656697E-01  0.10140728598E+00  0.88795193603E+00  0.88000000000E+00 0.  1.
        -11    1    3    3    0    0 -0.25012960780E-01  0.21806007086E-01 -0.85425985071E-01  0.91646113929E-01  0.51100000000E-03 0. -1.
         11    1    3    3    0    0  0.22774328669E-02 -0.92830662166E-03 -0.20214662735E-01  0.20370129213E-01  0.51100000000E-03 0.  1.
</event>
<event>
 8    1  0.5489035E+004  0.1043930E+01  0.7957747E-01            NaN
         13   -1    0    0    0    0  0.00000000000E+00  0.00000000000E+00  0.74505805969E-08  0.10566000000E+00  0.10566000000E+00 0.  1.
     999900   -1    0    0    0    0 -0.00000000000E+00 -0.00000000000E+00 -0.74505805969E-08  0.93827000000E+00  0.93827000000E+00 0. -1.
     999902    2    1    2    0    0  0.11368535851E-03 -0.20822895280E-01 -0.12171514061E-01  0.10198104717E+01  0.10195252064E+01 0.  0.
     999903    2    3    3    0    0 -0.12618391880E+00 -0.28204872588E-01 -0.26267817943E-02  0.13071166933E+00  0.18993270249E-01 0.  0.
         14    1    1    2    0    0 -0.11368535851E-03  0.20822895280E-01  0.12171514061E-01  0.24119528328E-01  0.00000000000E+00 0.  1.
     999901    1    3    3    0    0  0.12629760416E+00  0.73819773075E-02 -0.95447322670E-02  0.88909880234E+00  0.88000000000E+00 0.  1.
        -11    1    4    4    0    0 -0.58436281657E-02 -0.10719908750E-02 -0.42771297297E-02  0.73383999823E-02  0.51100000000E-03 0.  1.
         11    1    4    4    0    0 -0.12034029064E+00 -0.27132881713E-01  0.16503479354E-02  0.12337326935E+00  0.51100000000E-03 0. -1.
</event>
<event>
 8    1  0.5489035E+004  0.1043930E+01  0.7957747E-01            NaN
         13   -1    0    0    0    0  0.00000000000E+00  0.00000000000E+00  0.74505805969E-08  0.10566000000E+00  0.10566000000E+00 0. -1.
     999900   -1    0    0    0    0 -0.00000000000E+00 -0.00000000000E+00 -0.74505805969E-08  0.93827000000E+00  0.93827000000E+00 0.  1.
     999902    2    1    2    0    0 -0.22015598879E-01 -0.25472433935E-02  0.10984541758E-01  0.10191946973E+01  0.10188944969E+01 0.  0.
     999903    2    3    3    0    0 -0.20905620242E-01 -0.99379272900E-01 -0.77697749072E-01  0.12945191271E+00  0.20188428707E-01 0.  0.
         14    1    1    2    0    0  0.22015598879E-01  0.25472433935E-02 -0.10984541758E-01  0.24735302718E-01  0.00000000000E+00 0.  1.
     999901    1    3    3    0    0 -0.11099786364E-02  0.96832029507E-01  0.88682290830E-01  0.88974278457E+00  0.88000000000E+00 0. -1.
        -11    1    4    4    0    0 -0.99147051526E-02 -0.55304832858E-01 -0.30453870705E-01  0.63911073200E-01  0.51100000000E-03 0.  1.
         11    1    4    4    0    0 -0.10990915090E-01 -0.44074440043E-01 -0.47243878367E-01  0.65540839510E-01  0.51100000000E-03 0. -1.
</event>
<event>
 8    1  0.5489035E+004  0.1043930E+01  0.7957747E-01            NaN
         13   -1    0    0    0    0  0.00000000000E+00  0.00000000000E+00  0.74505805969E-08  0.10566000000E+00  0.10566000000E+00 0.  1.
     999900   -1    0    0    0    0 -0.00000000000E+00 -0.00000000000E+00 -0.74505805969E-08  0.93827000000E+00  0.93827000000E+00 0.  1.
     999902    2    1    2    0    0 -0.13063003882E-01 -0.19443546750E-01 -0.82850223079E-03  0.10204911434E+01  0.10202219336E+01 0.  0.
     999903    2    3    3    0    0  0.45883913757E-01  0.42607780236E-01  0.11081702445E+00  0.12931785507E+00  0.22845967990E-01 0.  0.
         14    1    1    2    0    0  0.13063003882E-01  0.19443546750E-01  0.82850223079E-03  0.23438856555E-01  0.00000000000E+00 0. -1.
     999901    1    3    3    0    0 -0.58946917638E-01 -0.62051326986E-01 -0.11164552669E+00  0.89117328837E+00  0.88000000000E+00 0.  1.
        -11    1    4    4    0    0  0.26873652144E-01  0.35185436873E-01  0.60120879253E-01  0.74665851570E-01  0.51100000000E-03 0.  1.
         11    1    4    4    0    0  0.19010261613E-01  0.74223433624E-02  0.50696145202E-01  0.54652003503E-01  0.51100000000E-03 0. -1.
</event>
<event>
 8    1  0.5489035E+004  0.1043930E+01  0.7957747E-01            NaN
         13   -1    0    0    0    0  0.00000000000E+00  0.00000000000E+00  0.74505805969E-08  0.10566000000E+00  0.10566000000E+00 0. -1.
     999900   -1    0    0    0    0 -0.00000000000E+00 -0.00000000000E+00 -0.74505805969E-08  0.93827000000E+00  0.93827000000E+00 0.  1.
     999902    2    1    2    0    0  0.33518472134E-02  0.27391075680E-02  0.23105576347E-01  0.10204224427E+01  0.10201516340E+01 0.  0.
     999903    2    3    3    0    0 -0.61742025558E-01  0.10054624549E+00 -0.49711233355E-01  0.12963305333E+00  0.20295235699E-01 0.  0.
         14    1    1    2    0    0 -0.33518472134E-02 -0.27391075680E-02 -0.23105576347E-01  0.23507557260E-01  0.00000000000E+00 0.  1.
     999901    1    3    3    0    0  0.65093872771E-01 -0.97807137927E-01  0.72816809702E-01  0.89078938941E+00  0.88000000000E+00 0. -1.
        -11    1    4    4    0    0 -0.39692149497E-01  0.51074772545E-01 -0.34796799888E-01  0.73451872173E-01  0.51100000000E-03 0. -1.
         11    1    4    4    0    0 -0.22049876061E-01  0.49471472949E-01 -0.14914433467E-01  0.56181181162E-01  0.51100000000E-03 0.  1.
</event>
<event>
 8    1  0.5489035E+004  0.1043930E+01  0.7957747E-01            NaN
         13   -1    0    0    0    0  0.00000000000E+00  0.00000000000E+00  0.74505805969E-08  0.10566000000E+00  0.10566000000E+00 0.  1.
     999900   -1    0    0    0    0 -0.00000000000E+00 -0.00000000000E+00 -0.74505805969E-08  0.93827000000E+00  0.93827000000E+00 0.  1.
     999902    2    1    2    0    0 -0.22482715515E-01  0.46572503539E-02 -0.21689318494E-03  0.10209689565E+01  0.10207107330E+01 0.  0.
     999903    2    3    3    0    0 -0.46325360660E-01  0.10273025629E+00 -0.67119842756E-01  0.13267689251E+00  0.19963464521E-01 0.  0.
         14    1    1    2    0    0  0.22482715515E-01 -0.46572503539E-02  0.21689318494E-03  0.22961043540E-01  0.00000000000E+00 0. -1.
     999901    1    3    3    0    0  0.23842645145E-01 -0.98073005938E-01  0.66902949571E-01  0.88829206395E+00  0.88000000000E+00 0. -1.
        -11    1    4    4    0    0 -0.31917445657E-01  0.73963835472E-01 -0.37176189326E-01  0.88722615318E-01  0.51100000000E-03 0. -1.
         11    1    4    4    0    0 -0.14407915002E-01  0.28766420820E-01 -0.29943653430E-01  0.43954277189E-01  0.51100000000E-03 0.  1.
</event>
<event>
 8    1  0.5489035E+004  0.1043930E+01  0.7957747E-01            NaN
         13   -1    0    0    0    0  0.00000000000E+00  0.00000000000E+00  0.74505805969E-08  0.10566000000E+00  0.10566000000E+00 0. -1.
     999900   -1    0    0    0    0 -0.00000000000E+00 -0.00000000000E+00 -0.74505805969E-08  0.93827000000E+00  0.93827000000E+00 0.  1.
     999902    2    1    2    0    0 -0.15543801230E-01 -0.35636511231E-02  0.17301942146E-01  0.10203998796E+01  0.10201285447E+01 0.  0.
     999903    2    3    3    0    0 -0.12619358303E+00 -0.12525481109E-01 -0.31631676295E-01  0.13207663455E+00  0.19025413912E-01 0.  0.
         14    1    1    2    0    0  0.15543801230E-01  0.35636511231E-02 -0.17301942146E-01  0.23530120443E-01  0.00000000000E+00 0. -1.
     999901    1    3    3    0    0  0.11064978180E+00  0.89618299855E-02  0.48933618442E-01  0.88832324501E+00  0.88000000000E+00 0. -1.
        -11    1    4    4    0    0 -0.61404025529E-01 -0.11037896670E-02 -0.23613747423E-01  0.65799262086E-01  0.51100000000E-03 0.  1.
         11    1    4    4    0    0 -0.64789557498E-01 -0.11421691442E-01 -0.80179288719E-02  0.66277372463E-01  0.51100000000E-03 0. -1.
</event>
<event>
 8    1  0.5489035E+004  0.1043930E+01  0.7957747E-01            NaN
         13   -1    0    0    0    0  0.00000000000E+00  0.00000000000E+00  0.74505805969E-08  0.10566000000E+00  0.10566000000E+00 0. -1.
     999900   -1    0    0    0    0 -0.00000000000E+00 -0.00000000000E+00 -0.74505805969E-08  0.93827000000E+00  0.93827000000E+00 0. -1.
     999902    2    1    2    0    0 -0.21197334831E-01 -0.13246762300E-02 -0.89980750348E-02  0.10208638533E+01  0.10206032333E+01 0.  0.
     999903    2    3    3    0    0 -0.65654356331E-02  0.33893068631E-01  0.12380417085E+00  0.13008283722E+00  0.20055592049E-01 0.  0.
         14    1    1    2    0    0  0.21197334831E-01  0.13246762300E-02  0.89980750348E-02  0.23066146739E-01  0.00000000000E+00 0.  1.
     999901    1    3    3    0    0 -0.14631899198E-01 -0.35217744861E-01 -0.13280224589E+00  0.89078101604E+00  0.88000000000E+00 0. -1.
        -11    1    4    4    0    0 -0.11281900528E-01  0.87200372083E-02  0.41484666135E-01  0.43869795689E-01  0.51100000000E-03 0. -1.
         11    1    4    4    0    0  0.47164648951E-02  0.25173031423E-01  0.82319504717E-01  0.86213041531E-01  0.51100000000E-03 0.  1.
</event>
<event>
 8    1  0.5489035E+004  0.1043930E+01  0.7957747E-01            NaN
         13   -1    0    0    0    0  0.00000000000E+00  0.00000000000E+00  0.74505805969E-08  0.10566000000E+00  0.10566000000E+00 0. -1.
     999900   -1    0    0    0    0 -0.00000000000E+00 -0.00000000000E+00 -0.74505805969E-08  0.93827000000E+00  0.93827000000E+00 0. -1.
     999902    2    1    2    0    0 -0.43431663628E-03 -0.13787688236E-01 -0.19360354320E-01  0.10201579093E+01  0.10198808987E+01 0.  0.
     999903    2    3    3    0    0  0.95792268459E-01 -0.38276689171E-01  0.75352934698E-01  0.12952337483E+00  0.21377002318E-01 0.  0.
         14    1    1    2    0    0  0.43431663628E-03  0.13787688236E-01  0.19360354320E-01  0.23772090721E-01  0.00000000000E+00 0.  1.
     999901    1    3    3    0    0 -0.96226585095E-01  0.24489000935E-01 -0.94713289018E-01  0.89063453445E+00  0.88000000000E+00 0. -1.
        -11    1    4    4    0    0  0.50777871975E-01 -0.13185979532E-01  0.48323909706E-01  0.71328281269E-01  0.51100000000E-03 0. -1.
         11    1    4    4    0    0  0.45014396484E-01 -0.25090709638E-01  0.27029024992E-01  0.58195093556E-01  0.51100000000E-03 0.  1.
</event>
<event>
 8    1  0.5489035E+004  0.1043930E+01  0.7957747E-01            NaN
         13   -1    0    0    0    0  0.00000000000E+00  0.00000000000E+00  0.74505805969E-08  0.10566000000E+00  0.10566000000E+00 0.  1.
     999900   -1    0    0    0    0 -0.00000000000E+00 -0.00000000000E+00 -0.74505805969E-08  0.93827000000E+00  0.93827000000E+00 0.  1.
     999902    2    1    2    0    0 -0.21708512171E-01 -0.10904926973E-01  0.58779027395E-03  0.10196293327E+01  0.10193397146E+01 0.  0.
     999903    2    3    3    0    0  0.91805504078E-01 -0.87947438680E-01  0.84953736195E-02  0.12896468743E+00  0.19917747889E-01 0.  0.
         14    1    1    2    0    0  0.21708512171E-01  0.10904926973E-01 -0.58779027395E-03  0.24300667283E-01  0.00000000000E+00 0.  1.
     999901    1    3    3    0    0 -0.11351401625E+00  0.77042511707E-01 -0.79075833456E-02  0.89066464529E+00  0.88000000000E+00 0.  1.
        -11    1    4    4    0    0  0.43590069573E-02 -0.11251274375E-01  0.33579501326E-02  0.12535113354E-01  0.51100000000E-03 0. -1.
         11    1    4    4    0    0  0.87446497121E-01 -0.76696164305E-01  0.51374234869E-02  0.11642957407E+00  0.51100000000E-03 0.  1.
</event>
<event>
 8    1  0.5489035E+004  0.1043930E+01  0.7957747E-01            NaN
         13   -1    0    0    0    0  0.00000000000E+00  0.00000000000E+00  0.74505805969E-08  0.10566000000E+00  0.10566000000E+00 0. -1.
     999900   -1    0    0    0    0 -0.00000000000E+00 -0.00000000000E+00 -0.74505805969E-08  0.93827000000E+00  0.93827000000E+00 0. -1.
     999902    2    1    2    0    0 -0.21183787417E-01  0.15396302035E-01  0.10891310359E-01  0.10155677080E+01  0.10151715865E+01 0.  0.
     999903    2    3    3    0    0  0.37084611425E-01  0.11947630959E+00  0.12615214599E-01  0.12751882077E+00  0.21261445249E-01 0.  0.
         14    1    1    2    0    0  0.21183787417E-01 -0.15396302035E-01 -0.10891310359E-01  0.28362291991E-01  0.00000000000E+00 0.  1.
     999901    1    3    3    0    0 -0.58268398842E-01 -0.10408000756E+00 -0.17239042399E-02  0.88804888724E+00  0.88000000000E+00 0. -1.
        -11    1    4    4    0    0  0.31700612453E-01  0.68152766831E-01  0.47629225748E-02  0.75317162779E-01  0.51100000000E-03 0. -1.
         11    1    4    4    0    0  0.53839989719E-02  0.51323542758E-01  0.78522920237E-02  0.52201657993E-01  0.51100000000E-03 0.  1.
</event>
<event>
 8    1  0.5489035E+004  0.1043930E+01  0.7957747E-01            NaN
         13   -1    0    0    0    0  0.00000000000E+00  0.00000000000E+00  0.74505805969E-08  0.10566000000E+00  0.10566000000E+00 0. -1.
     999900   -1    0    0    0    0 -0.00000000000E+00 -0.00000000000E+00 -0.74505805969E-08  0.93827000000E+00  0.93827000000E+00 0. -1.
     999902    2    1    2    0    0  0.10630833330E-01  0.17936585768E-01 -0.13582440761E-01  0.10190459002E+01  0.10187420322E+01 0.  0.
     999903    2    3    3    0    0  0.12765967144E+00  0.21461875405E-01  0.37122783510E-02  0.13112288330E+00  0.20538395924E-01 0.  0.
         14    1    1    2    0    0 -0.10630833330E-01 -0.17936585768E-01  0.13582440761E-01  0.24884099810E-01  0.00000000000E+00 0. -1.
     999901    1    3    3    0    0 -0.11702883811E+00 -0.35252896369E-02 -0.17294719112E-01  0.88792301689E+00  0.88000000000E+00 0. -1.
        -11    1    4    4    0    0  0.40598599541E-01  0.18525401795E-02  0.93351745555E-02  0.41702335603E-01  0.51100000000E-03 0.  1.
         11    1    4    4    0    0  0.87061071895E-01  0.19609335226E-01 -0.56228962046E-02  0.89420547696E-01  0.51100000000E-03 0. -1.
</event>
<event>
 8    1  0.5489035E+004  0.1043930E+01  0.7957747E-01            NaN
         13   -1    0    0    0    0  0.00000000000E+00  0.00000000000E+00  0.74505805969E-08  0.10566000000E+00  0.10566000000E+00 0. -1.
     999900   -1    0    0    0    0 -0.00000000000E+00 -0.00000000000E+00 -0.74505805969E-08  0.93827000000E+00  0.93827000000E+00 0. -1.
     999902    2    1    2    0    0  0.10233925637E-02 -0.77425741719E-02  0.32078157313E-01  0.10109148071E+01  0.10103755461E+01 0.  0.
     999903    2    3    3    0    0 -0.11016065309E-01 -0.22995308714E-01 -0.11304585903E+00  0.11881695674E+00  0.26229087791E-01 0.  0.
         14    1    1    2    0    0 -0.10233925637E-02  0.77425741719E-02 -0.32078157313E-01  0.33015192923E-01  0.00000000000E+00 0.  1.
     999901    1    3    3    0    0  0.12039457873E-01  0.15252734542E-01  0.14512401635E+00  0.89209785034E+00  0.88000000000E+00 0.  1.
        -11    1    4    4    0    0 -0.16532698148E-01 -0.24969555033E-01 -0.83957610783E-01  0.89140060107E-01  0.51100000000E-03 0.  1.
         11    1    4    4    0    0  0.55166328384E-02  0.19742463185E-02 -0.29088248251E-01  0.29676896632E-01  0.51100000000E-03 0. -1.
</event>
<event>
 8    1  0.5489035E+004  0.1043930E+01  0.7957747E-01            NaN
         13   -1    0    0    0    0  0.00000000000E+00  0.00000000000E+00  0.74505805969E-08  0.10566000000E+00  0.10566000000E+00 0.  1.
     999900   -1    0    0    0    0 -0.00000000000E+00 -0.00000000000E+00 -0.74505805969E-08  0.93827000000E+00  0.93827000000E+00 0.  1.
     999902    2    1    2    0    0  0.21206653327E-01 -0.26738828841E-02 -0.11426599664E-01  0.10196928596E+01  0.10194047719E+01 0.  0.
     999903    2    3    3    0    0 -0.56639537937E-02 -0.85749254827E-01 -0.97177560359E-01  0.13122407894E+00  0.19780434250E-01 0.  0.
         14    1    1    2    0    0 -0.21206653327E-01  0.26738828841E-02  0.11426599664E-01  0.24237140403E-01  0.00000000000E+00 0.  1.
     999901    1    3    3    0    0  0.26870607121E-01  0.83075371943E-01  0.85750960695E-01  0.88846878066E+00  0.88000000000E+00 0. -1.
        -11    1    4    4    0    0 -0.91787344651E-02 -0.80505249717E-01 -0.84613855238E-01  0.11715421468E+00  0.51100000000E-03 0.  1.
         11    1    4    4    0    0  0.35147806714E-02 -0.52440051108E-02 -0.12563705121E-01  0.14069864254E-01  0.51100000000E-03 0. -1.
</event>
<event>
 8    1  0.5489035E+004  0.1043930E+01  0.7957747E-01            NaN
         13   -1    0    0    0    0  0.00000000000E+00  0.00000000000E+00  0.74505805969E-08  0.10566000000E+00  0.10566000000E+00 0. -1.
     999900   -1    0    0    0    0 -0.00000000000E+00 -0.00000000000E+00 -0.74505805969E-08  0.93827000000E+00  0.93827000000E+00 0. -1.
     999902    2    1    2    0    0  0.12342188750E-01  0.93860969527E-02 -0.18759328960E-01  0.10195919462E+01  0.10193014254E+01 0.  0.
     999903    2    3    3    0    0  0.82726179056E-01  0.61605120826E-01 -0.81679444113E-01  0.13300316135E+00  0.19480701382E-01 0.  0.
         14    1    1    2    0    0 -0.12342188750E-01 -0.93860969527E-02  0.18759328960E-01  0.24338053788E-01  0.00000000000E+00 0. -1.
     999901    1    3    3    0    0 -0.70383990306E-01 -0.52219023873E-01  0.62920115153E-01  0.88658878486E+00  0.88000000000E+00 0. -1.
        -11    1    4    4    0    0  0.58177427314E-01  0.51234061578E-01 -0.67608617166E-01  0.10286266743E+00  0.51100000000E-03 0. -1.
         11    1    4    4    0    0  0.24548751742E-01  0.10371059248E-01 -0.14070826947E-01  0.30140493924E-01  0.51100000000E-03 0.  1.
</event>
<event>
 8    1  0.5489035E+004  0.1043930E+01  0.7957747E-01            NaN
         13   -1    0    0    0    0  0.00000000000E+00  0.00000000000E+00  0.74505805969E-08  0.10566000000E+00  0.10566000000E+00 0. -1.
     999900   -1    0    0    0    0 -0.00000000000E+00 -0.00000000000E+00 -0.74505805969E-08  0.93827000000E+00  0.93827000000E+00 0.  1.
     999902    2    1    2    0    0  0.53734747411E-02 -0.22955395989E-01  0.10390126008E-02  0.10203311868E+01  0.10200582468E+01 0.  0.
     999903    2    3    3    0    0 -0.65168554217E-01 -0.59031011157E-01  0.95930105562E-01  0.13169068169E+00  0.20205191241E-01 0.  0.
         14    1    1    2    0    0 -0.53734747411E-02  0.22955395989E-01 -0.10390126008E-02  0.23598813169E-01  0.00000000000E+00 0. -1.
     999901    1    3    3    0    0  0.70542028958E-01  0.36075615168E-01 -0.94891092961E-01  0.88864050514E+00  0.88000000000E+00 0.  1.
        -11    1    4    4    0    0 -0.14381635569E-01 -0.14764099445E-01  0.36167614873E-01  0.41631329076E-01  0.51100000000E-03 0.  1.
         11    1    4    4    0    0 -0.50786918649E-01 -0.44266911712E-01  0.59762490689E-01  0.90059352611E-01  0.51100000000E-03 0. -1.
</event>
<event>
 8    1  0.5489035E+004  0.1043930E+01  0.7957747E-01            NaN
         13   -1    0    0    0    0  0.00000000000E+00  0.00000000000E+00  0.74505805969E-08  0.10566000000E+00  0.10566000000E+00 0. -1.
     999900   -1    0    0    0    0 -0.00000000000E+00 -0.00000000000E+00 -0.74505805969E-08  0.93827000000E+00  0.93827000000E+00 0. -1.
     999902    2    1    2    0    0 -0.16960709205E-01  0.37702893920E-02  0.13249875817E-01  0.10220796007E+01  0.10218460110E+01 0.  0.
     999903    2    3    3    0    0  0.95935861864E-01  0.70387511199E-01  0.52320642086E-01  0.13151235747E+00  0.19998981345E-01 0.  0.
         14    1    1    2    0    0  0.16960709205E-01 -0.37702893920E-02 -0.13249875817E-01  0.21850399264E-01  0.00000000000E+00 0.  1.
     999901    1    3    3    0    0 -0.11289657107E+00 -0.66617221807E-01 -0.39070766269E-01  0.89056724327E+00  0.88000000000E+00 0.  1.
        -11    1    4    4    0    0  0.36795351732E-01  0.38545052135E-01  0.26880076668E-01  0.59685999998E-01  0.51100000000E-03 0.  1.
         11    1    4    4    0    0  0.59140510132E-01  0.31842459064E-01  0.25440565418E-01  0.71826357472E-01  0.51100000000E-03 0. -1.
</event>
<event>
 8    1  0.5489035E+004  0.1043930E+01  0.7957747E-01            NaN
         13   -1    0    0    0    0  0.00000000000E+00  0.00000000000E+00  0.74505805969E-08  0.10566000000E+00  0.10566000000E+00 0.  1.
     999900   -1    0    0    0    0 -0.00000000000E+00 -0.00000000000E+00 -0.74505805969E-08  0.93827000000E+00  0.93827000000E+00 0.  1.
     999902    2    1    2    0    0 -0.23809610868E-02  0.10031949810E-01 -0.21694341450E-01  0.10199101448E+01  0.10196272603E+01 0.  0.
     999903    2    3    3    0    0  0.10983072643E+00  0.11186071388E-01  0.62971543949E-01  0.12875297182E+00  0.20591156932E-01 0.  0.
         14    1    1    2    0    0  0.23809610868E-02 -0.10031949810E-01  0.21694341450E-01  0.24019855196E-01  0.00000000000E+00 0.  1.
     999901    1    3    3    0    0 -0.11221168752E+00 -0.11541215784E-02 -0.84665885398E-01  0.89115717298E+00  0.88000000000E+00 0.  1.
        -11    1    4    4    0    0  0.10059051478E+00  0.42417394133E-02  0.55271572511E-01  0.11485491659E+00  0.51100000000E-03 0.  1.
         11    1    4    4    0    0  0.92402116516E-02  0.69443319752E-02  0.76999714379E-02  0.13898055227E-01  0.51100000000E-03 0. -1.
</event>
<event>
 8    1  0.5489035E+004  0.1043930E+01  0.7957747E-01            NaN
         13   -1    0    0    0    0  0.00000000000E+00  0.00000000000E+00  0.74505805969E-08  0.10566000000E+00  0.10566000000E+00 0.  1.
     999900   -1    0    0    0    0 -0.00000000000E+00 -0.00000000000E+00 -0.74505805969E-08  0.93827000000E+00  0.93827000000E+00 0.  1.
     999902    2    1    2    0    0  0.20694981108E-01 -0.14634900106E-02 -0.82063793724E-02  0.10216192692E+01  0.10213756226E+01 0.  0.
     999903    2    3    3    0    0  0.29483395667E-01 -0.33983371448E-01 -0.12399199558E+00  0.13339571185E+00  0.19906300922E-01 0.  0.
         14    1    1    2    0    0 -0.20694981108E-01  0.14634900106E-02  0.82063793724E-02  0.22310730792E-01  0.00000000000E+00 0.  1.
     999901    1    3    3    0    0 -0.87884145590E-02  0.32519881438E-01  0.11578561621E+00  0.88822355736E+00  0.88000000000E+00 0. -1.
        -11    1    4    4    0    0  0.37164102213E-02 -0.13615706283E-01 -0.57808320564E-01  0.59508505358E-01  0.51100000000E-03 0. -1.
         11    1    4    4    0    0  0.25766985446E-01 -0.20367665165E-01 -0.66183675020E-01  0.73887206494E-01  0.51100000000E-03 0.  1.
</event>
<event>
 8    1  0.5489035E+004  0.1043930E+01  0.7957747E-01            NaN
         13   -1    0    0    0    0  0.00000000000E+00  0.00000000000E+00  0.74505805969E-08  0.10566000000E+00  0.10566000000E+00 0.  1.
     999900   -1    0    0    0    0 -0.00000000000E+00 -0.00000000000E+00 -0.74505805969E-08  0.93827000000E+00  0.93827000000E+00 0.  1.
     999902    2    1    2    0    0  0.24155291262E-02  0.81233708530E-02 -0.22710569449E-01  0.10196896638E+01  0.10194014992E+01 0.  0.
     999903    2    3    3    0    0  0.30078499769E-01 -0.87217505372E-01 -0.91433944176E-01  0.13144531404E+00  0.20151800020E-01 0.  0.
         14    1    1    2    0    0 -0.24155291262E-02 -0.81233708530E-02  0.22710569449E-01  0.24240336212E-01  0.00000000000E+00 0.  1.
     999901    1    3    3    0    0 -0.27662970643E-01  0.95340876225E-01  0.68723374726E-01  0.88824434975E+00  0.88000000000E+00 0.  1.
        -11    1    4    4    0    0  0.19182494544E-01 -0.56231852053E-01 -0.44846100107E-01  0.74440735475E-01  0.51100000000E-03 0. -1.
         11    1    4    4    0    0  0.10896005225E-01 -0.30985653318E-01 -0.46587844069E-01  0.57004578565E-01  0.51100000000E-03 0.  1.
</event>
<event>
 8    1  0.5489035E+004  0.1043930E+01  0.7957747E-01            NaN
         13   -1    0    0    0    0  0.00000000000E+00  0.00000000000E+00  0.74505805969E-08  0.10566000000E+00  0.10566000000E+00 0. -1.
     999900   -1    0    0    0    0 -0.00000000000E+00 -0.00000000000E+00 -0.74505805969E-08  0.93827000000E+00  0.93827000000E+00 0.  1.
     999902    2    1    2    0    0  0.21425561913E-02 -0.18226591228E-01  0.14938738088E-01  0.10202664189E+01  0.10199919610E+01 0.  0.
     999903    2    3    3    0    0 -0.67272831850E-01 -0.34814562029E-01  0.10688011581E+00  0.13260270228E+00  0.20553098552E-01 0.  0.
         14    1    1    2    0    0 -0.21425561913E-02  0.18226591228E-01 -0.14938738088E-01  0.23663581100E-01  0.00000000000E+00 0.  1.
     999901    1    3    3    0    0  0.69415388041E-01  0.16587970800E-01 -0.91941377726E-01  0.88766371662E+00  0.88000000000E+00 0.  1.
        -11    1    4    4    0    0 -0.46503123162E-01 -0.34066195323E-01  0.80585056422E-01  0.99082079950E-01  0.51100000000E-03 0.  1.
         11    1    4    4    0    0 -0.20769708687E-01 -0.74836670515E-03  0.26295059393E-01  0.33520622326E-01  0.51100000000E-03 0. -1.
</event>
<event>
 8    1  0.5489035E+004  0.1043930E+01  0.7957747E-01            NaN
         13   -1    0    0    0    0  0.00000000000E+00  0.00000000000E+00  0.74505805969E-08  0.10566000000E+00  0.10566000000E+00 0. -1.
     999900   -1    0    0    0    0 -0.00000000000E+00 -0.00000000000E+00 -0.74505805969E-08  0.93827000000E+00  0.93827000000E+00 0. -1.
     999902    2    1    2    0    0 -0.71286849711E-03  0.13963845312E-01  0.18461952477E-01  0.10207709662E+01  0.10205082188E+01 0.  0.
     999903    2    3    3    0    0 -0.63333181599E-01 -0.11059701546E+00 -0.10560578377E-02  0.12958206121E+00  0.23400931808E-01 0.  0.
         14    1    1    2    0    0  0.71286849711E-03 -0.13963845312E-01 -0.18461952477E-01  0.23159033802E-01  0.00000000000E+00 0.  1.
     999901    1    3    3    0    0  0.62620313102E-01  0.12456086077E+00  0.19518010315E-01  0.89118890499E+00  0.88000000000E+00 0. -1.
        -11    1    4    4    0    0 -0.82719487958E-02 -0.15875251824E-01  0.80623550720E-02  0.19639537868E-01  0.51100000000E-03 0.  1.
         11    1    4    4    0    0 -0.55061232803E-01 -0.94721763633E-01 -0.91184129097E-02  0.10994252334E+00  0.51100000000E-03 0. -1.
</event>
<event>
 8    1  0.5489035E+004  0.1043930E+01  0.7957747E-01            NaN
         13   -1    0    0    0    0  0.00000000000E+00  0.00000000000E+00  0.74505805969E-08  0.10566000000E+00  0.10566000000E+00 0.  1.
     999900   -1    0    0    0    0 -0.00000000000E+00 -0.00000000000E+00 -0.74505805969E-08  0.93827000000E+00  0.93827000000E+00 0.  1.
     999902    2    1    2    0    0  0.10671816690E-01  0.21159086962E-01 -0.78321936567E-03  0.10202190729E+01  0.10199435026E+01 0.  0.
     999903    2    3    3    0    0 -0.46432393611E-01  0.10884110393E+00  0.55768466625E-01  0.13221731605E+00  0.19207907559E-01 0.  0.
         14    1    1    2    0    0 -0.10671816690E-01 -0.21159086962E-01  0.78321936567E-03  0.23710927125E-01  0.00000000000E+00 0. -1.
     999901    1    3    3    0    0  0.57104210301E-01 -0.87682016968E-01 -0.56551685991E-01  0.88800175682E+00  0.88000000000E+00 0.  1.
        -11    1    4    4    0    0 -0.32723016085E-01  0.56543817520E-01  0.36387960396E-01  0.74781975530E-01  0.51100000000E-03 0.  1.
         11    1    4    4    0    0 -0.13709377526E-01  0.52297286411E-01  0.19380506230E-01  0.57435340521E-01  0.51100000000E-03 0. -1.
</event>
<event>
 8    1  0.5489035E+004  0.1043930E+01  0.7957747E-01            NaN
         13   -1    0    0    0    0  0.00000000000E+00  0.00000000000E+00  0.74505805969E-08  0.10566000000E+00  0.10566000000E+00 0. -1.
     999900   -1    0    0    0    0 -0.00000000000E+00 -0.00000000000E+00 -0.74505805969E-08  0.93827000000E+00  0.93827000000E+00 0.  1.
     999902    2    1    2    0    0 -0.16027637012E-01  0.48710606040E-02  0.18156092555E-01  0.10192266384E+01  0.10189272223E+01 0.  0.
     999903    2    3    3    0    0 -0.89800283405E-01  0.68162269463E-01 -0.62037910642E-01  0.13025011526E+00  0.20154510408E-01 0.  0.
         14    1    1    2    0    0  0.16027637012E-01 -0.48710606040E-02 -0.18156092555E-01  0.24703361642E-01  0.00000000000E+00 0. -1.
     999901    1    3    3    0    0  0.73772646393E-01 -0.63291208859E-01  0.80194003196E-01  0.88897652310E+00  0.88000000000E+00 0. -1.
        -11    1    4    4    0    0 -0.34176413809E-01  0.16262240993E-01 -0.14459570905E-01  0.40519477473E-01  0.51100000000E-03 0. -1.
         11    1    4    4    0    0 -0.55623869596E-01  0.51900028470E-01 -0.47578339737E-01  0.89730637784E-01  0.51100000000E-03 0.  1.
</event>
<event>
 8    1  0.5489035E+004  0.1043930E+01  0.7957747E-01            NaN
         13   -1    0    0    0    0  0.00000000000E+00  0.00000000000E+00  0.74505805969E-08  0.10566000000E+00  0.10566000000E+00 0.  1.
     999900   -1    0    0    0    0 -0.00000000000E+00 -0.00000000000E+00 -0.74505805969E-08  0.93827000000E+00  0.93827000000E+00 0.  1.
     999902    2    1    2    0    0  0.41284853903E-02  0.13017377818E-01 -0.19412261926E-01  0.10201953749E+01  0.10199192470E+01 0.  0.
     999903    2    3    3    0    0  0.88125114682E-01  0.86439251986E-01  0.39648915492E-01  0.13118782259E+00  0.20010701492E-01 0.  0.
         14    1    1    2    0    0 -0.41284853903E-02 -0.13017377818E-01  0.19412261926E-01  0.23734625128E-01  0.00000000000E+00 0.  1.
     999901    1    3    3    0    0 -0.83996629292E-01 -0.73421874168E-01 -0.59061177418E-01  0.88900755228E+00  0.88000000000E+00 0.  1.
        -11    1    4    4    0    0  0.58173830645E-01  0.62220729130E-01  0.36060499718E-01  0.92499916034E-01  0.51100000000E-03 0.  1.
         11    1    4    4    0    0  0.29951284037E-01  0.24218522856E-01  0.35884157734E-02  0.38687906555E-01  0.51100000000E-03 0. -1.
</event>
<event>
 8    1  0.5489035E+004  0.1043930E+01  0.7957747E-01            NaN
         13   -1    0    0    0    0  0.00000000000E+00  0.00000000000E+00  0.74505805969E-08  0.10566000000E+00  0.10566000000E+00 0.  1.
     999900   -1    0    0    0    0 -0.00000000000E+00 -0.00000000000E+00 -0.74505805969E-08  0.93827000000E+00  0.93827000000E+00 0.  1.
     999902    2    1    2    0    0  0.23037093445E-01  0.43445778579E-02 -0.31113774685E-04  0.10204867920E+01  0.10202174811E+01 0.  0.
     999903    2    3    3    0    0  0.17429787676E-01  0.11768745338E+00 -0.51195107823E-01  0.13172596730E+00  0.24013688109E-01 0.  0.
         14    1    1    2    0    0 -0.23037093445E-01 -0.43445778579E-02  0.31113774685E-04  0.23443207955E-01  0.00000000000E+00 0. -1.
     999901    1    3    3    0    0  0.56073057689E-02 -0.11334287552E+00  0.51163994048E-01  0.88876082474E+00  0.88000000000E+00 0.  1.
        -11    1    4    4    0    0  0.19577029051E-01  0.57702900751E-01 -0.31196125913E-01  0.68456878504E-01  0.51100000000E-03 0.  1.
         11    1    4    4    0    0 -0.21472413747E-02  0.59984552625E-01 -0.19998981910E-01  0.63269088800E-01  0.51100000000E-03 0. -1.
</event>
<event>
 8    1  0.5489035E+004  0.1043930E+01  0.7957747E-01            NaN
         13   -1    0    0    0    0  0.00000000000E+00  0.00000000000E+00  0.74505805969E-08  0.10566000000E+00  0.10566000000E+00 0. -1.
     999900   -1    0    0    0    0 -0.00000000000E+00 -0.00000000000E+00 -0.74505805969E-08  0.93827000000E+00  0.93827000000E+00 0.  1.
     999902    2    1    2    0    0  0.11411155237E-01 -0.30135352155E-02  0.19815033598E-01  0.10208663616E+01  0.10206057990E+01 0.  0.
     999903    2    3    3    0    0 -0.88048620901E-03  0.30301845783E-01 -0.12341796486E+00  0.12857902511E+00  0.19534444845E-01 0.  0.
         14    1    1    2    0    0 -0.11411155237E-01  0.30135352155E-02 -0.19815033598E-01  0.23063638369E-01  0.00000000000E+00 0.  1.
     999901    1    3    3    0    0  0.12291641446E-01 -0.33315380998E-01  0.14323299846E+00  0.89228733652E+00  0.88000000000E+00 0. -1.
        -11    1    4    4    0    0 -0.75309583730E-02  0.15918557963E-01 -0.88409781458E-01  0.90148024937E-01  0.51100000000E-03 0. -1.
         11    1    4    4    0    0  0.66504721640E-02  0.14383287820E-01 -0.35008183402E-01  0.38431000177E-01  0.51100000000E-03 0.  1.
</event>
<event>
 8    1  0.5489035E+004  0.1043930E+01  0.7957747E-01            NaN
         13   -1    0    0    0    0  0.00000000000E+00  0.00000000000E+00  0.74505805969E-08  0.10566000000E+00  0.10566000000E+00 0. -1.
     999900   -1    0    0    0    0 -0.00000000000E+00 -0.00000000000E+00 -0.74505805969E-08  0.93827000000E+00  0.93827000000E+00 0.  1.
     999902    2    1    2    0    0  0.81042135386E-02 -0.14932908843E-01  0.16664414472E-01  0.10201314128E+01  0.10198537771E+01 0.  0.
     999903    2    3    3    0    0  0.11085690915E+00  0.21017025932E-01 -0.59077407873E-01  0.13019470834E+00  0.27010225354E-01 0.  0.
         14    1    1    2    0    0 -0.81042135386E-02  0.14932908843E-01 -0.16664414472E-01  0.23798587212E-01  0.00000000000E+00 0.  1.
     999901    1    3    3    0    0 -0.10275269561E+00 -0.35949934775E-01  0.75741822345E-01  0.88993670444E+00  0.88000000000E+00 0. -1.
        -11    1    4    4    0    0  0.66518680483E-01  0.25351407362E-01 -0.40697166257E-01  0.81999690065E-01  0.51100000000E-03 0. -1.
         11    1    4    4    0    0  0.44338228670E-01 -0.43343814302E-02 -0.18380241615E-01  0.48195018278E-01  0.51100000000E-03 0.  1.
</event>
<event>
 8    1  0.5489035E+004  0.1043930E+01  0.7957747E-01            NaN
         13   -1    0    0    0    0  0.00000000000E+00  0.00000000000E+00  0.74505805969E-08  0.10566000000E+00  0.10566000000E+00 0.  1.
     999900   -1    0    0    0    0 -0.00000000000E+00 -0.00000000000E+00 -0.74505805969E-08  0.93827000000E+00  0.93827000000E+00 0.  1.
     999902    2    1    2    0    0 -0.39266181544E-02 -0.62878817063E-02 -0.22303113070E-01  0.10204271355E+01  0.10201564362E+01 0.  0.
     999903    2    3    3    0    0  0.57142425641E-01 -0.10993480036E-01 -0.11798869829E+00  0.13312374772E+00  0.20358926118E-01 0.  0.
         14    1    1    2    0    0  0.39266181544E-02  0.62878817063E-02  0.22303113070E-01  0.23502864487E-01  0.00000000000E+00 0.  1.
     999901    1    3    3    0    0 -0.61069043796E-01  0.47055983300E-02  0.95685585217E-01  0.88730338779E+00  0.88000000000E+00 0. -1.
        -11    1    4    4    0    0  0.13867146702E-01  0.36022380499E-02 -0.16673700739E-01  0.21989708820E-01  0.51100000000E-03 0. -1.
         11    1    4    4    0    0  0.43275278939E-01 -0.14595718086E-01 -0.10131499755E+00  0.11113403890E+00  0.51100000000E-03 0.  1.
</event>
<event>
 8    1  0.5489035E+004  0.1043930E+01  0.7957747E-01            NaN
         13   -1    0    0    0    0  0.00000000000E+00  0.00000000000E+00  0.74505805969E-08  0.10566000000E+00  0.10566000000E+00 0.  1.
     999900   -1    0    0    0    0 -0.00000000000E+00 -0.00000000000E+00 -0.74505805969E-08  0.93827000000E+00  0.93827000000E+00 0. -1.
     999902    2    1    2    0    0 -0.63978306084E-02 -0.21466997064E-01 -0.95769052638E-02  0.10195685281E+01  0.10192774412E+01 0.  0.
     999903    2    3    3    0    0 -0.95083431221E-01 -0.53838110475E-01  0.69860566809E-01  0.13096100127E+00  0.18190217895E-01 0.  0.
         14    1    1    2    0    0  0.63978306084E-02  0.21466997064E-01  0.95769052638E-02  0.24361471915E-01  0.00000000000E+00 0. -1.
     999901    1    3    3    0    0  0.88685600613E-01  0.32371113412E-01 -0.79437472073E-01  0.88860752681E+00  0.88000000000E+00 0. -1.
        -11    1    4    4    0    0 -0.16463527568E-01 -0.15832949693E-01  0.91795221586E-02  0.24622241653E-01  0.51100000000E-03 0. -1.
         11    1    4    4    0    0 -0.78619903653E-01 -0.38005160782E-01  0.60681044650E-01  0.10633875962E+00  0.51100000000E-03 0.  1.
</event>
<event>
 8    1  0.5489035E+004  0.1043930E+01  0.7957747E-01            NaN
         13   -1    0    0    0    0  0.00000000000E+00  0.00000000000E+00  0.74505805969E-08  0.10566000000E+00  0.10566000000E+00 0.  1.
     999900   -1    0    0    0    0 -0.00000000000E+00 -0.00000000000E+00 -0.74505805969E-08  0.93827000000E+00  0.93827000000E+00 0.  1.
     999902    2    1    2    0    0  0.33282205554E-02 -0.21820142367E-01 -0.29204399248E-02  0.10216651255E+01  0.10214224905E+01 0.  0.
     999903    2    3    3    0    0  0.44894763690E-01  0.77333098241E-01 -0.93039038250E-01  0.13055317725E+00  0.19797008912E-01 0.  0.
         14    1    1    2    0    0 -0.33282205554E-02  0.21820142367E-01  0.29204399248E-02  0.22264874452E-01  0.00000000000E+00 0.  1.
     999901    1    3    3    0    0 -0.41566543135E-01 -0.99153240608E-01  0.90118598326E-01  0.89111194830E+00  0.88000000000E+00 0. -1.
        -11    1    4    4    0    0  0.32906568038E-01  0.44512100015E-01 -0.67353833269E-01  0.87183537694E-01  0.51100000000E-03 0.  1.
         11    1    4    4    0    0  0.11988195652E-01  0.32820998226E-01 -0.25685204982E-01  0.43369639559E-01  0.51100000000E-03 0. -1.
</event>
<event>
 8    1  0.5489035E+004  0.1043930E+01  0.7957747E-01            NaN
         13   -1    0    0    0    0  0.00000000000E+00  0.00000000000E+00  0.74505805969E-08  0.10566000000E+00  0.10566000000E+00 0.  1.
     999900   -1    0    0    0    0 -0.00000000000E+00 -0.00000000000E+00 -0.74505805969E-08  0.93827000000E+00  0.93827000000E+00 0.  1.
     999902    2    1    2    0    0  0.78487359852E-02 -0.39030936092E-03 -0.22250222037E-01  0.10203328099E+01  0.10200599079E+01 0.  0.
     999903    2    3    3    0    0  0.56955361262E-01 -0.11445524410E+00 -0.24153778662E-01  0.13161131616E+00  0.19854909727E-01 0.  0.
         14    1    1    2    0    0 -0.78487359852E-02  0.39030936092E-03  0.22250222037E-01  0.23597190059E-01  0.00000000000E+00 0.  1.
     999901    1    3    3    0    0 -0.49106625277E-01  0.11406493473E+00  0.19035566247E-02  0.88872149378E+00  0.88000000000E+00 0.  1.
        -11    1    4    4    0    0  0.29501563300E-01 -0.40708124956E-01 -0.14514775943E-01  0.52330044107E-01  0.51100000000E-03 0. -1.
         11    1    4    4    0    0  0.27453797962E-01 -0.73747119139E-01 -0.96390027191E-02  0.79281272053E-01  0.51100000000E-03 0.  1.
</event>
<event>
 8    1  0.5489035E+004  0.1043930E+01  0.7957747E-01            NaN
         13   -1    0    0    0    0  0.00000000000E+00  0.00000000000E+00  0.74505805969E-08  0.10566000000E+00  0.10566000000E+00 0.  1.
     999900   -1    0    0    0    0 -0.00000000000E+00 -0.00000000000E+00 -0.74505805969E-08  0.93827000000E+00  0.93827000000E+00 0.  1.
     999902    2    1    2    0    0 -0.22638373932E-01 -0.50397367055E-02 -0.30024004077E-03  0.10207354950E+01  0.10204719328E+01 0.  0.
     999903    2    3    3    0    0 -0.12279934078E+00  0.11919753308E-01  0.47139147423E-01  0.13362200781E+00  0.20272719064E-01 0.  0.
         14    1    1    2    0    0  0.22638373932E-01  0.50397367055E-02  0.30024004077E-03  0.23194505048E-01  0.00000000000E+00 0. -1.
     999901    1    3    3    0    0  0.10016096684E+00 -0.16959490013E-01 -0.47439387464E-01  0.88711348714E+00  0.88000000000E+00 0.  1.
        -11    1    4    4    0    0 -0.10301373402E+00  0.24914270356E-02  0.37244546045E-01  0.10956940237E+00  0.51100000000E-03 0.  1.
         11    1    4    4    0    0 -0.19785606757E-01  0.94283262721E-02  0.98946013781E-02  0.24052605441E-01  0.51100000000E-03 0. -1.
</event>
<event>
 8    1  0.5489035E+004  0.1043930E+01  0.7957747E-01            NaN
         13   -1    0    0    0    0  0.00000000000E+00  0.00000000000E+00  0.74505805969E-08  0.10566000000E+00  0.10566000000E+00 0. -1.
     999900   -1    0    0    0    0 -0.00000000000E+00 -0.00000000000E+00 -0.74505805969E-08  0.93827000000E+00  0.93827000000E+00 0. -1.
     999902    2    1    2    0    0  0.91140034626E-02  0.21225351484E-01 -0.78743530769E-02  0.10195253684E+01  0.10192332367E+01 0.  0.
     999903    2    3    3    0    0  0.27179560765E-02  0.10433797170E+00  0.77160310412E-01  0.13150537371E+00  0.21122267609E-01 0.  0.
         14    1    1    2    0    0 -0.91140034626E-02 -0.21225351484E-01  0.78743530769E-02  0.24404631550E-01  0.00000000000E+00 0. -1.
     999901    1    3    3    0    0  0.63960473860E-02 -0.83112620213E-01 -0.85034663489E-01  0.88801999474E+00  0.88000000000E+00 0. -1.
        -11    1    4    4    0    0  0.16664138347E-02  0.73998924964E-01  0.42209534929E-01  0.85208707248E-01  0.51100000000E-03 0.  1.
         11    1    4    4    0    0  0.10515422418E-02  0.30339046732E-01  0.34950775483E-01  0.46296666463E-01  0.51100000000E-03 0. -1.
</event>
<event>
 8    1  0.5489035E+004  0.1043930E+01  0.7957747E-01            NaN
         13   -1    0    0    0    0  0.00000000000E+00  0.00000000000E+00  0.74505805969E-08  0.10566000000E+00  0.10566000000E+00 0.  1.
     999900   -1    0    0    0    0 -0.00000000000E+00 -0.00000000000E+00 -0.74505805969E-08  0.93827000000E+00  0.93827000000E+00 0. -1.
     999902    2    1    2    0    0 -0.85299186016E-02  0.48235795035E-02  0.21216156267E-01  0.10205601109E+01  0.10202925013E+01 0.  0.
     999903    2    3    3    0    0 -0.12017254710E+00  0.46522456359E-01 -0.17798861885E-01  0.13167032892E+00  0.20359175156E-01 0.  0.
         14    1    1    2    0    0  0.85299186016E-02 -0.48235795035E-02 -0.21216156267E-01  0.23369889117E-01  0.00000000000E+00 0. -1.
     999901    1    3    3    0    0  0.11164262850E+00 -0.41698876856E-01  0.39015018152E-01  0.88888978196E+00  0.88000000000E+00 0.  1.
        -11    1    4    4    0    0 -0.10463258304E+00  0.40104453954E-01 -0.22308741971E-01  0.11425535327E+00  0.51100000000E-03 0.  1.
         11    1    4    4    0    0 -0.15539964055E-01  0.64180024057E-02  0.45098800865E-02  0.17414975656E-01  0.51100000000E-03 0. -1.
</event>
<event>
 8    1  0.5489035E+004  0.1043930E+01  0.7957747E-01            NaN
         13   -1    0    0    0    0  0.00000000000E+00  0.00000000000E+00  0.74505805969E-08  0.10566000000E+00  0.10566000000E+00 0. -1.
     999900   -1    0    0    0    0 -0.00000000000E+00 -0.00000000000E+00 -0.74505805969E-08  0.93827000000E+00  0.93827000000E+00 0.  1.
     999902    2    1    2    0    0  0.12123453007E-02  0.23055367128E-01  0.23827513925E-02  0.10207201478E+01  0.10204562327E+01 0.  0.
     999903    2    3    3    0    0  0.43965714898E-01  0.69419838705E-01  0.10248518298E+00  0.13280235226E+00  0.19523164285E-01 0.  0.
         14    1    1    2    0    0 -0.12123453007E-02 -0.23055367128E-01 -0.23827513925E-02  0.23209852191E-01  0.00000000000E+00 0. -1.
     999901    1    3    3    0    0 -0.42753369597E-01 -0.46364471578E-01 -0.10010243159E+00  0.88791779555E+00  0.88000000000E+00 0.  1.
        -11    1    4    4    0    0  0.23944519209E-01  0.53441387829E-01  0.66231812021E-01  0.88409479005E-01  0.51100000000E-03 0. -1.
         11    1    4    4    0    0  0.20021195689E-01  0.15978450876E-01  0.36253370960E-01  0.44392873259E-01  0.51100000000E-03 0.  1.
</event>
<event>
 8    1  0.5489035E+004  0.1043930E+01  0.7957747E-01            NaN
         13   -1    0    0    0    0  0.00000000000E+00  0.00000000000E+00  0.74505805969E-08  0.10566000000E+00  0.10566000000E+00 0.  1.
     999900   -1    0    0    0    0 -0.00000000000E+00 -0.00000000000E+00 -0.74505805969E-08  0.93827000000E+00  0.93827000000E+00 0.  1.
     999902    2    1    2    0    0  0.59614335782E-02  0.12433878128E-01 -0.27240125364E-01  0.10133986318E+01  0.10129386074E+01 0.  0.
     999903    2    3    3    0    0 -0.99208129888E-01  0.13926326368E-02  0.67953983922E-01  0.12197030341E+00  0.20367094072E-01 0.  0.
         14    1    1    2    0    0 -0.59614335782E-02 -0.12433878128E-01  0.27240125364E-01  0.30531368221E-01  0.00000000000E+00 0.  1.
     999901    1    3    3    0    0  0.10516956347E+00  0.11041245491E-01 -0.95194109286E-01  0.89142832837E+00  0.88000000000E+00 0.  1.
        -11    1    4    4    0    0 -0.38444359353E-01 -0.10688225674E-02  0.14840778037E-01  0.41226459483E-01  0.51100000000E-03 0.  1.
         11    1    4    4    0    0 -0.60763770534E-01  0.24614552043E-02  0.53113205885E-01  0.80743843924E-01  0.51100000000E-03 0. -1.
</event>
<event>
 8    1  0.5489035E+004  0.1043930E+01  0.7957747E-01            NaN
         13   -1    0    0    0    0  0.00000000000E+00  0.00000000000E+00  0.74505805969E-08  0.10566000000E+00  0.10566000000E+00 0. -1.
     999900   -1    0    0    0    0 -0.00000000000E+00 -0.00000000000E+00 -0.74505805969E-08  0.93827000000E+00  0.93827000000E+00 0.  1.
     999902    2    1    2    0    0  0.10712379693E-01 -0.15239199044E-01  0.14299879391E-01  0.10204464991E+01  0.10201762508E+01 0.  0.
     999903    2    3    3    0    0 -0.36121235503E-01  0.87800533585E-01 -0.83333505911E-01  0.12784196627E+00  0.19632060030E-01 0.  0.
         14    1    1    2    0    0 -0.10712379693E-01  0.15239199044E-01 -0.14299879391E-01  0.23483500948E-01  0.00000000000E+00 0.  1.
     999901    1    3    3    0    0  0.46833615196E-01 -0.10303973263E+00  0.97633385301E-01  0.89260453278E+00  0.88000000000E+00 0. -1.
        -11    1    4    4    0    0 -0.31112262655E-01  0.55304636281E-01 -0.61506724093E-01  0.88373717311E-01  0.51100000000E-03 0.  1.
         11    1    4    4    0    0 -0.50089728477E-02  0.32495897304E-01 -0.21826781817E-01  0.39468248962E-01  0.51100000000E-03 0. -1.
</event>
<event>
 8    1  0.5489035E+004  0.1043930E+01  0.7957747E-01            NaN
         13   -1    0    0    0    0  0.00000000000E+00  0.00000000000E+00  0.74505805969E-08  0.10566000000E+00  0.10566000000E+00 0.  1.
     999900   -1    0    0    0    0 -0.00000000000E+00 -0.00000000000E+00 -0.74505805969E-08  0.93827000000E+00  0.93827000000E+00 0. -1.
     999902    2    1    2    0    0 -0.18761490883E-01 -0.32278287225E-02  0.13448350455E-01  0.10206218352E+01  0.10203556536E+01 0.  0.
     999903    2    3    3    0    0  0.11397671149E+00 -0.18841468607E-01  0.53954205026E-01  0.12960896186E+00  0.23275202533E-01 0.  0.
         14    1    1    2    0    0  0.18761490883E-01  0.32278287225E-02 -0.13448350455E-01  0.23308164844E-01  0.00000000000E+00 0. -1.
     999901    1    3    3    0    0 -0.13273820238E+00  0.15613639885E-01 -0.40505854571E-01  0.89101287329E+00  0.88000000000E+00 0.  1.
        -11    1    4    4    0    0  0.65242336185E-01 -0.16598790409E-01  0.42094542153E-01  0.79399583588E-01  0.51100000000E-03 0.  1.
         11    1    4    4    0    0  0.48734375309E-01 -0.22426781978E-02  0.11859662872E-01  0.50209378274E-01  0.51100000000E-03 0. -1.
</event>
<event>
 8    1  0.5489035E+004  0.1043930E+01  0.7957747E-01            NaN
         13   -1    0    0    0    0  0.00000000000E+00  0.00000000000E+00  0.74505805969E-08  0.10566000000E+00  0.10566000000E+00 0.  1.
     999900   -1    0    0    0    0 -0.00000000000E+00 -0.00000000000E+00 -0.74505805969E-08  0.93827000000E+00  0.93827000000E+00 0. -1.
     999902    2    1    2    0    0  0.18553058185E-01 -0.16893587355E-01  0.54422408271E-02  0.10182545789E+01  0.10179308229E+01 0.  0.
     999903    2    3    3    0    0  0.21362584280E-01 -0.31137472696E-01  0.12319481625E+00  0.13029261425E+00  0.19320982465E-01 0.  0.
         14    1    1    2    0    0 -0.18553058185E-01  0.16893587355E-01 -0.54422408271E-02  0.25675421067E-01  0.00000000000E+00 0. -1.
     999901    1    3    3    0    0 -0.28095260943E-02  0.14243885342E-01 -0.11775257543E+00  0.88796196468E+00  0.88000000000E+00 0. -1.
        -11    1    4    4    0    0 -0.16616814283E-02 -0.12847281406E-01  0.40453315697E-01  0.42479944639E-01  0.51100000000E-03 0.  1.
         11    1    4    4    0    0  0.23024265708E-01 -0.18290191290E-01  0.82741500556E-01  0.87812669610E-01  0.51100000000E-03 0. -1.
</event>
<event>
 8    1  0.5489035E+004  0.1043930E+01  0.7957747E-01            NaN
         13   -1    0    0    0    0  0.00000000000E+00  0.00000000000E+00  0.74505805969E-08  0.10566000000E+00  0.10566000000E+00 0.  1.
     999900   -1    0    0    0    0 -0.00000000000E+00 -0.00000000000E+00 -0.74505805969E-08  0.93827000000E+00  0.93827000000E+00 0.  1.
     999902    2    1    2    0    0 -0.75979330142E-02 -0.26139866265E-01  0.13598377344E-02  0.10166743519E+01  0.10163089429E+01 0.  0.
     999903    2    3    3    0    0 -0.58283769680E-01  0.10863856192E+00 -0.32655907843E-02  0.12495933390E+00  0.20120539300E-01 0.  0.
         14    1    1    2    0    0  0.75979330142E-02  0.26139866265E-01 -0.13598377344E-02  0.27255648096E-01  0.00000000000E+00 0.  1.
     999901    1    3    3    0    0  0.50685836666E-01 -0.13477842819E+00  0.46254285186E-02  0.89171501800E+00  0.88000000000E+00 0. -1.
        -11    1    4    4    0    0 -0.26802908696E-01  0.35714813115E-01 -0.80867228684E-02  0.45382816111E-01  0.51100000000E-03 0. -1.
         11    1    4    4    0    0 -0.31480860984E-01  0.72923748805E-01  0.48211320841E-02  0.79576517791E-01  0.51100000000E-03 0.  1.
</event>
<event>
 8    1  0.5489035E+004  0.1043930E+01  0.7957747E-01            NaN
         13   -1    0    0    0    0  0.00000000000E+00  0.00000000000E+00  0.74505805969E-08  0.10566000000E+00  0.10566000000E+00 0.  1.
     999900   -1    0    0    0    0 -0.00000000000E+00 -0.00000000000E+00 -0.74505805969E-08  0.93827000000E+00  0.93827000000E+00 0. -1.
     999902    2    1    2    0    0  0.69038540375E-03 -0.72790162500E-02  0.21856149463E-01  0.10208832653E+01  0.10206230888E+01 0.  0.
     999903    2    3    3    0    0 -0.86443745604E-01 -0.69463295010E-01  0.70654760262E-01  0.13305414566E+00  0.20338142077E-01 0.  0.
         14    1    1    2    0    0 -0.69038540375E-03  0.72790162500E-02 -0.21856149463E-01  0.23046734669E-01  0.00000000000E+00 0. -1.
     999901    1    3    3    0    0  0.87134131008E-01  0.62184278760E-01 -0.48798610799E-01  0.88782911967E+00  0.88000000000E+00 0. -1.
        -11    1    4    4    0    0 -0.22088025767E-01 -0.23537489551E-01  0.30353586202E-01  0.44311348580E-01  0.51100000000E-03 0. -1.
         11    1    4    4    0    0 -0.64355719837E-01 -0.45925805459E-01  0.40301174060E-01  0.88742797085E-01  0.51100000000E-03 0.  1.
</event>
<event>
 8    1  0.5489035E+004  0.1043930E+01  0.7957747E-01            NaN
         13   -1    0    0    0    0  0.00000000000E+00  0.00000000000E+00  0.74505805969E-08  0.10566000000E+00  0.10566000000E+00 0. -1.
     999900   -1    0    0    0    0 -0.00000000000E+00 -0.00000000000E+00 -0.74505805969E-08  0.93827000000E+00  0.93827000000E+00 0.  1.
     999902    2    1    2    0    0 -0.18378464022E-01 -0.10896117774E-01  0.66509432280E-02  0.10215530393E+01  0.10213079280E+01 0.  0.
     999903    2    3    3    0    0 -0.56570368402E-01  0.11290547452E+00 -0.29820349724E-01  0.13131958062E+00  0.20192232164E-01 0.  0.
         14    1    1    2    0    0  0.18378464022E-01  0.10896117774E-01 -0.66509432280E-02  0.22376960655E-01  0.00000000000E+00 0.  1.
     999901    1    3    3    0    0  0.38191904380E-01 -0.12380159229E+00  0.36471292952E-01  0.89023345872E+00  0.88000000000E+00 0. -1.
        -11    1    4    4    0    0 -0.19502914253E-01  0.22284977918E-01 -0.28036721426E-02  0.29750724422E-01  0.51100000000E-03 0.  1.
         11    1    4    4    0    0 -0.37067454149E-01  0.90620496603E-01 -0.27016677581E-01  0.10156885620E+00  0.51100000000E-03 0. -1.
</event>
<event>
 8    1  0.5489035E+004  0.1043930E+01  0.7957747E-01            NaN
         13   -1    0    0    0    0  0.00000000000E+00  0.00000000000E+00  0.74505805969E-08  0.10566000000E+00  0.10566000000E+00 0.  1.
     999900   -1    0    0    0    0 -0.00000000000E+00 -0.00000000000E+00 -0.74505805969E-08  0.93827000000E+00  0.93827000000E+00 0.  1.
     999902    2    1    2    0    0 -0.67318283339E-02 -0.80716109964E-02  0.23069376685E-01  0.10185791705E+01  0.10182636505E+01 0.  0.
     999903    2    3    3    0    0 -0.99854957779E-02 -0.76289090044E-01  0.10554688486E+00  0.13208791268E+00  0.19680863447E-01 0.  0.
         14    1    1    2    0    0  0.67318283339E-02  0.80716109964E-02 -0.23069376685E-01  0.25350829521E-01  0.00000000000E+00 0. -1.
     999901    1    3    3    0    0  0.32536674440E-02  0.68217479047E-01 -0.82477508179E-01  0.88649125780E+00  0.88000000000E+00 0.  1.
        -11    1    4    4    0    0 -0.11531186282E-01 -0.20139693362E-01  0.29194823524E-01  0.37298449665E-01  0.51100000000E-03 0.  1.
         11    1    4    4    0    0  0.15456905044E-02 -0.56149396682E-01  0.76352061339E-01  0.94789463015E-01  0.51100000000E-03 0. -1.
</event>
<event>
 8    1  0.5489035E+004  0.1043930E+01  0.7957747E-01            NaN
         13   -1    0    0    0    0  0.00000000000E+00  0.00000000000E+00  0.74505805969E-08  0.10566000000E+00  0.10566000000E+00 0. -1.
     999900   -1    0    0    0    0 -0.00000000000E+00 -0.00000000000E+00 -0.74505805969E-08  0.93827000000E+00  0.93827000000E+00 0. -1.
     999902    2    1    2    0    0 -0.14413289586E-01  0.14662399236E-01 -0.13366693874E-01  0.10194065954E+01  0.10191115785E+01 0.  0.
     999903    2    3    3    0    0  0.21803863303E-01 -0.95628582392E-01 -0.81583965003E-01  0.12916540400E+00  0.20187224148E-01 0.  0.
         14    1    1    2    0    0  0.14413289586E-01 -0.14662399236E-01  0.13366693874E-01  0.24523404600E-01  0.00000000000E+00 0. -1.
     999901    1    3    3    0    0 -0.36217152889E-01  0.11029098163E+00  0.68217271129E-01  0.89024119140E+00  0.88000000000E+00 0.  1.
        -11    1    4    4    0    0  0.37107055498E-03 -0.27635363175E-01 -0.14241776604E-01  0.31095663894E-01  0.51100000000E-03 0. -1.
         11    1    4    4    0    0  0.21432792748E-01 -0.67993219217E-01 -0.67342188399E-01  0.98069740103E-01  0.51100000000E-03 0.  1.
</event>
<event>
 8    1  0.5489035E+004  0.1043930E+01  0.7957747E-01            NaN
         13   -1    0    0    0    0  0.00000000000E+00  0.00000000000E+00  0.74505805969E-08  0.10566000000E+00  0.10566000000E+00 0. -1.
     999900   -1    0    0    0    0 -0.00000000000E+00 -0.00000000000E+00 -0.74505805969E-08  0.93827000000E+00  0.93827000000E+00 0. -1.
     999902    2    1    2    0    0 -0.71845075351E-02  0.26962049630E-02 -0.22286481565E-01  0.10203593842E+01  0.10200871036E+01 0.  0.
     999903    2    3    3    0    0 -0.71980562155E-01  0.96006410322E-01 -0.52564607352E-01  0.13254065943E+00  0.20138428534E-01 0.  0.
         14    1    1    2    0    0  0.71845075351E-02 -0.26962049630E-02  0.22286481565E-01  0.23570615823E-01  0.00000000000E+00 0. -1.
     999901    1    3    3    0    0  0.64796054620E-01 -0.93310205359E-01  0.30278125787E-01  0.88781872475E+00  0.88000000000E+00 0. -1.
        -11    1    4    4    0    0 -0.67610678726E-01  0.83284032254E-01 -0.51615491799E-01  0.11904559639E+00  0.51100000000E-03 0. -1.
         11    1    4    4    0    0 -0.43698834296E-02  0.12722378067E-01 -0.94911555332E-03  0.13495063031E-01  0.51100000000E-03 0.  1.
</event>
<event>
 8    1  0.5489035E+004  0.1043930E+01  0.7957747E-01            NaN
         13   -1    0    0    0    0  0.00000000000E+00  0.00000000000E+00  0.74505805969E-08  0.10566000000E+00  0.10566000000E+00 0.  1.
     999900   -1    0    0    0    0 -0.00000000000E+00 -0.00000000000E+00 -0.74505805969E-08  0.93827000000E+00  0.93827000000E+00 0.  1.
     999902    2    1    2    0    0  0.12458111697E-01 -0.17692070307E-01  0.96621299408E-02  0.10202325180E+01  0.10199572639E+01 0.  0.
     999903    2    3    3    0    0 -0.10988611014E+00  0.62731182285E-01  0.67028002616E-03  0.12809079071E+00  0.19915897140E-01 0.  0.
         14    1    1    2    0    0 -0.12458111697E-01  0.17692070307E-01 -0.96621299408E-02  0.23697482014E-01  0.00000000000E+00 0. -1.
     999901    1    3    3    0    0  0.12234422183E+00 -0.80423252592E-01  0.89918499146E-02  0.89214172727E+00  0.88000000000E+00 0. -1.
        -11    1    4    4    0    0 -0.23096578410E-01  0.18425111054E-01 -0.69210269229E-02  0.30349602736E-01  0.51100000000E-03 0. -1.
         11    1    4    4    0    0 -0.86789531726E-01  0.44306071231E-01  0.75913069490E-02  0.97741187978E-01  0.51100000000E-03 0.  1.
</event>
<event>
 8    1  0.5489035E+004  0.1043930E+01  0.7957747E-01            NaN
         13   -1    0    0    0    0  0.00000000000E+00  0.00000000000E+00  0.74505805969E-08  0.10566000000E+00  0.10566000000E+00 0.  1.
     999900   -1    0    0    0    0 -0.00000000000E+00 -0.00000000000E+00 -0.74505805969E-08  0.93827000000E+00  0.93827000000E+00 0. -1.
     999902    2    1    2    0    0  0.11418720146E-01 -0.21055660831E-01 -0.16899700364E-03  0.10199767835E+01  0.10196954850E+01 0.  0.
     999903    2    3    3    0    0 -0.56302996030E-01 -0.95476908291E-01  0.68089363887E-01  0.13161652053E+00  0.20021978500E-01 0.  0.
         14    1    1    2    0    0 -0.11418720146E-01  0.21055660831E-01  0.16899700364E-03  0.23953216543E-01  0.00000000000E+00 0. -1.
     999901    1    3    3    0    0  0.67721716176E-01  0.74421247461E-01 -0.68258360891E-01  0.88836026293E+00  0.88000000000E+00 0. -1.
        -11    1    4    4    0    0 -0.55336486284E-01 -0.85108081993E-01  0.57124866592E-01  0.11648615299E+00  0.51100000000E-03 0. -1.
         11    1    4    4    0    0 -0.96650974596E-03 -0.10368826299E-01  0.10964497295E-01  0.15130367538E-01  0.51100000000E-03 0.  1.
</event>
<event>
 8    1  0.5489035E+004  0.1043930E+01  0.7957747E-01            NaN
         13   -1    0    0    0    0  0.00000000000E+00  0.00000000000E+00  0.74505805969E-08  0.10566000000E+00  0.10566000000E+00 0. -1.
     999900   -1    0    0    0    0 -0.00000000000E+00 -0.00000000000E+00 -0.74505805969E-08  0.93827000000E+00  0.93827000000E+00 0.  1.
     999902    2    1    2    0    0  0.17356905994E-01 -0.15765861478E-01  0.23387464340E-02  0.10203653165E+01  0.10200931746E+01 0.  0.
     999903    2    3    3    0    0 -0.42033788032E-01  0.44318255592E-01 -0.11188190027E+00  0.12897106489E+00  0.19622152172E-01 0.  0.
         14    1    1    2    0    0 -0.17356905994E-01  0.15765861478E-01 -0.23387464340E-02  0.23564683505E-01  0.00000000000E+00 0.  1.
     999901    1    3    3    0    0  0.59390694025E-01 -0.60084117070E-01  0.11422064670E+00  0.89139425160E+00  0.88000000000E+00 0. -1.
        -11    1    4    4    0    0  0.10073300000E-03  0.30885140122E-02 -0.16848677103E-01  0.17137330803E-01  0.51100000000E-03 0.  1.
         11    1    4    4    0    0 -0.42134521032E-01  0.41229741580E-01 -0.95033223167E-01  0.11183373409E+00  0.51100000000E-03 0. -1.
</event>
<event>
 8    1  0.5489035E+004  0.1043930E+01  0.7957747E-01            NaN
         13   -1    0    0    0    0  0.00000000000E+00  0.00000000000E+00  0.74505805969E-08  0.10566000000E+00  0.10566000000E+00 0.  1.
     999900   -1    0    0    0    0 -0.00000000000E+00 -0.00000000000E+00 -0.74505805969E-08  0.93827000000E+00  0.93827000000E+00 0. -1.
     999902    2    1    2    0    0  0.27191764699E-03  0.22454237540E-01  0.63593825960E-02  0.10205910097E+01  0.10203241154E+01 0.  0.
     999903    2    3    3    0    0  0.21397611361E-01  0.73510218608E-03 -0.12663736480E+00  0.13008208181E+00  0.20638015803E-01 0.  0.
         14    1    1    2    0    0 -0.27191764699E-03 -0.22454237540E-01 -0.63593825960E-02  0.23338990332E-01  0.00000000000E+00 0.  1.
     999901    1    3    3    0    0 -0.21125693714E-01  0.21719135354E-01  0.13299674740E+00  0.89050892786E+00  0.88000000000E+00 0. -1.
        -11    1    4    4    0    0 -0.16749541859E-02  0.22754457381E-02 -0.48711737774E-01  0.48796287182E-01  0.51100000000E-03 0.  1.
         11    1    4    4    0    0  0.23072565547E-01 -0.15403435520E-02 -0.77925627031E-01  0.81285794628E-01  0.51100000000E-03 0. -1.
</event>
<event>
 8    1  0.5489035E+004  0.1043930E+01  0.7957747E-01            NaN
         13   -1    0    0    0    0  0.00000000000E+00  0.00000000000E+00  0.74505805969E-08  0.10566000000E+00  0.10566000000E+00 0. -1.
     999900   -1    0    0    0    0 -0.00000000000E+00 -0.00000000000E+00 -0.74505805969E-08  0.93827000000E+00  0.93827000000E+00 0.  1.
     999902    2    1    2    0    0  0.18821682671E-01  0.43692836218E-02 -0.12487037964E-01  0.10209240770E+01  0.10206648316E+01 0.  0.
     999903    2    3    3    0    0  0.41758263585E-01 -0.38446373848E-01  0.11562981451E+00  0.13032136241E+00  0.19787047723E-01 0.  0.
         14    1    1    2    0    0 -0.18821682671E-01 -0.43692836218E-02  0.12487037964E-01  0.23005923042E-01  0.00000000000E+00 0. -1.
     999901    1    3    3    0    0 -0.22936580914E-01  0.42815657470E-01 -0.12811685247E+00  0.89060271455E+00  0.88000000000E+00 0.  1.
        -11    1    4    4    0    0  0.21338288270E-01 -0.26829604332E-01  0.50117117959E-01  0.60721798791E-01  0.51100000000E-03 0.  1.
         11    1    4    4    0    0  0.20419975315E-01 -0.11616769516E-01  0.65512696550E-01  0.69599563621E-01  0.51100000000E-03 0. -1.
</event>
<event>
 8    1  0.5489035E+004  0.1043930E+01  0.7957747E-01            NaN
         13   -1    0    0    0    0  0.00000000000E+00  0.00000000000E+00  0.74505805969E-08  0.10566000000E+00  0.10566000000E+00 0. -1.
     999900   -1    0    0    0    0 -0.00000000000E+00 -0.00000000000E+00 -0.74505805969E-08  0.93827000000E+00  0.93827000000E+00 0.  1.
     999902    2    1    2    0    0 -0.87896551897E-02 -0.21394580662E-01  0.48896073916E-02  0.10202890529E+01  0.10200151259E+01 0.  0.
     999903    2    3    3    0    0 -0.12205534399E+00  0.20594729956E-02  0.45464379950E-01  0.13179283958E+00  0.20014851841E-01 0.  0.
         14    1    1    2    0    0  0.87896551897E-02  0.21394580662E-01 -0.48896073916E-02  0.23640947115E-01  0.00000000000E+00 0. -1.
     999901    1    3    3    0    0  0.11326568880E+00 -0.23454053658E-01 -0.40574772558E-01  0.88849621331E+00  0.88000000000E+00 0.  1.
        -11    1    4    4    0    0 -0.18936435577E-01 -0.51177849618E-02  0.12621395986E-01  0.23331118124E-01  0.51100000000E-03 0. -1.
         11    1    4    4    0    0 -0.10311890841E+00  0.71772579574E-02  0.32842983963E-01  0.10846172145E+00  0.51100000000E-03 0.  1.
</event>
<event>
 8    1  0.5489035E+004  0.1043930E+01  0.7957747E-01            NaN
         13   -1    0    0    0    0  0.00000000000E+00  0.00000000000E+00  0.74505805969E-08  0.10566000000E+00  0.10566000000E+00 0.  1.
     999900   -1    0    0    0    0 -0.00000000000E+00 -0.00000000000E+00 -0.74505805969E-08  0.93827000000E+00  0.93827000000E+00 0.  1.
     999902    2    1    2    0    0  0.22056558579E-01  0.10280041523E-01  0.50796823264E-02  0.10190709131E+01  0.10187676632E+01 0.  0.
     999903    2    3    3    0    0  0.21849014404E-01 -0.12509057180E+00  0.49382751813E-02  0.12871970933E+00  0.20477949682E-01 0.  0.
         14    1    1    2    0    0 -0.22056558579E-01 -0.10280041523E-01 -0.50796823264E-02  0.24859086923E-01  0.00000000000E+00 0.  1.
     999901    1    3    3    0    0  0.20754417562E-03  0.13537061332E+00  0.14140714506E-03  0.89035120375E+00  0.88000000000E+00 0.  1.
        -11    1    4    4    0    0  0.18712688323E-01 -0.10410125761E+00  0.11758429984E-01  0.10642254619E+00  0.51100000000E-03 0. -1.
         11    1    4    4    0    0  0.31363260812E-02 -0.20989314188E-01 -0.68201548023E-02  0.22297163136E-01  0.51100000000E-03 0.  1.
</event>
<event>
 8    1  0.5489035E+004  0.1043930E+01  0.7957747E-01            NaN
         13   -1    0    0    0    0  0.00000000000E+00  0.00000000000E+00  0.74505805969E-08  0.10566000000E+00  0.10566000000E+00 0. -1.
     999900   -1    0    0    0    0 -0.00000000000E+00 -0.00000000000E+00 -0.74505805969E-08  0.93827000000E+00  0.93827000000E+00 0. -1.
     999902    2    1    2    0    0 -0.40115225223E-03 -0.23337120892E-01  0.95111750925E-03  0.10205700608E+01  0.10203026817E+01 0.  0.
     999903    2    3    3    0    0 -0.13166086967E-01 -0.12560482333E+00  0.37630051032E-01  0.13379671283E+00  0.23143511667E-01 0.  0.
         14    1    1    2    0    0  0.40115225223E-03  0.23337120892E-01 -0.95111750925E-03  0.23359939194E-01  0.00000000000E+00 0.  1.
     999901    1    3    3    0    0  0.12764934715E-01  0.10226770244E+00 -0.36678933522E-01  0.88677334798E+00  0.88000000000E+00 0. -1.
        -11    1    4    4    0    0 -0.10867333161E-01 -0.66747020772E-01  0.87452634267E-02  0.68190941226E-01  0.51100000000E-03 0. -1.
         11    1    4    4    0    0 -0.22987538059E-02 -0.58857802561E-01  0.28884787605E-01  0.65605771601E-01  0.51100000000E-03 0.  1.
</event>
<event>
 8    1  0.5489035E+004  0.1043930E+01  0.7957747E-01            NaN
         13   -1    0    0    0    0  0.00000000000E+00  0.00000000000E+00  0.74505805969E-08  0.10566000000E+00  0.10566000000E+00 0.  1.
     999900   -1    0    0    0    0 -0.00000000000E+00 -0.00000000000E+00 -0.74505805969E-08  0.93827000000E+00  0.93827000000E+00 0.  1.
     999902    2    1    2    0    0 -0.74837364889E-02  0.53696434945E-02  0.21047007493E-01  0.10209557556E+01  0.10206972318E+01 0.  0.
     999903    2    3    3    0    0  0.29152096063E-01  0.31382605507E-01  0.12501255822E+00  0.13369722832E+00  0.20300160489E-01 0.  0.
         14    1    1    2    0    0  0.74837364889E-02 -0.53696434945E-02 -0.21047007493E-01  0.22974244438E-01  0.00000000000E+00 0. -1.
     999901    1    3    3    0    0 -0.36635832552E-01 -0.26012962013E-01 -0.10396555072E+00  0.88725852724E+00  0.88000000000E+00 0.  1.
        -11    1    4    4    0    0 -0.82909750819E-03  0.11004849786E-01  0.32977770559E-01  0.34779140207E-01  0.51100000000E-03 0.  1.
         11    1    4    4    0    0  0.29981193571E-01  0.20377755722E-01  0.92034787659E-01  0.98918088117E-01  0.51100000000E-03 0. -1.
</event>
<event>
 8    1  0.5489035E+004  0.1043930E+01  0.7957747E-01            NaN
         13   -1    0    0    0    0  0.00000000000E+00  0.00000000000E+00  0.74505805969E-08  0.10566000000E+00  0.10566000000E+00 0.  1.
     999900   -1    0    0    0    0 -0.00000000000E+00 -0.00000000000E+00 -0.74505805969E-08  0.93827000000E+00  0.93827000000E+00 0. -1.
     999902    2    1    2    0    0  0.22170001967E-01  0.39470954334E-02  0.71010153503E-02  0.10203182875E+01  0.10200450455E+01 0.  0.
     999903    2    3    3    0    0  0.98123244179E-01 -0.81705733654E-01  0.29679113640E-01  0.13261615688E+00  0.20054857737E-01 0.  0.
         14    1    1    2    0    0 -0.22170001967E-01 -0.39470954334E-02 -0.71010153503E-02  0.23611712530E-01  0.00000000000E+00 0. -1.
     999901    1    3    3    0    0 -0.75953242212E-01  0.85652829088E-01 -0.22578098289E-01  0.88770213059E+00  0.88000000000E+00 0. -1.
        -11    1    4    4    0    0  0.51779997679E-01 -0.54497009412E-01  0.12593833115E-01  0.76223080153E-01  0.51100000000E-03 0. -1.
         11    1    4    4    0    0  0.46343246500E-01 -0.27208724242E-01  0.17085280525E-01  0.56393076726E-01  0.51100000000E-03 0.  1.
</event>
<event>
 8    1  0.5489035E+004  0.1043930E+01  0.7957747E-01            NaN
         13   -1    0    0    0    0  0.00000000000E+00  0.00000000000E+00  0.74505805969E-08  0.10566000000E+00  0.10566000000E+00 0.  1.
     999900   -1    0    0    0    0 -0.00000000000E+00 -0.00000000000E+00 -0.74505805969E-08  0.93827000000E+00  0.93827000000E+00 0.  1.
     999902    2    1    2    0    0  0.15536326106E-01 -0.11165337692E-01  0.14852968843E-01  0.10197090818E+01  0.10194213842E+01 0.  0.
     999903    2    3    3    0    0  0.53433324450E-01 -0.10881616491E+00 -0.42423206803E-01  0.13164803276E+00  0.28903254925E-01 0.  0.
         14    1    1    2    0    0 -0.15536326106E-01  0.11165337692E-01 -0.14852968843E-01  0.24220918193E-01  0.00000000000E+00 0. -1.
     999901    1    3    3    0    0 -0.37896998344E-01  0.97650827223E-01  0.57276175646E-01  0.88806104905E+00  0.88000000000E+00 0.  1.
        -11    1    4    4    0    0  0.18188776048E-01 -0.49308454065E-01 -0.44525194151E-02  0.52746955045E-01  0.51100000000E-03 0. -1.
         11    1    4    4    0    0  0.35244548401E-01 -0.59507710850E-01 -0.37970687388E-01  0.78901077714E-01  0.51100000000E-03 0.  1.
</event>
<event>
 8    1  0.5489035E+004  0.1043930E+01  0.7957747E-01            NaN
         13   -1    0    0    0    0  0.00000000000E+00  0.00000000000E+00  0.74505805969E-08  0.10566000000E+00  0.10566000000E+00 0. -1.
     999900   -1    0    0    0    0 -0.00000000000E+00 -0.00000000000E+00 -0.74505805969E-08  0.93827000000E+00  0.93827000000E+00 0.  1.
     999902    2    1    2    0    0  0.17189748514E-01  0.16500845089E-01  0.11776213728E-02  0.10200730904E+01  0.10197940761E+01 0.  0.
     999903    2    3    3    0    0  0.18525481523E-01  0.11500740092E+00 -0.59251008708E-01  0.13251636262E+00  0.21909098542E-01 0.  0.
         14    1    1    2    0    0 -0.17189748514E-01 -0.16500845089E-01 -0.11776213728E-02  0.23856909581E-01  0.00000000000E+00 0. -1.
     999901    1    3    3    0    0 -0.13357330091E-02 -0.98506555826E-01  0.60428630080E-01  0.88755672780E+00  0.88000000000E+00 0.  1.
        -11    1    4    4    0    0  0.22247441612E-01  0.91592454558E-01 -0.41999591644E-01  0.10319085817E+00  0.51100000000E-03 0. -1.
         11    1    4    4    0    0 -0.37219600883E-02  0.23414946358E-01 -0.17251417064E-01  0.29325504455E-01  0.51100000000E-03 0.  1.
</event>
<event>
 8    1  0.5489035E+004  0.1043930E+01  0.7957747E-01            NaN
         13   -1    0    0    0    0  0.00000000000E+00  0.00000000000E+00  0.74505805969E-08  0.10566000000E+00  0.10566000000E+00 0.  1.
     999900   -1    0    0    0    0 -0.00000000000E+00 -0.00000000000E+00 -0.74505805969E-08  0.93827000000E+00  0.93827000000E+00 0.  1.
     999902    2    1    2    0    0 -0.20670878002E-01  0.89341889782E-02 -0.32816671945E-02  0.10211731490E+01  0.10209195492E+01 0.  0.
     999903    2    3    3    0    0 -0.35709857037E-01  0.10284346456E+00 -0.74342601451E-01  0.13320086374E+00  0.19070281022E-01 0.  0.
         14    1    1    2    0    0  0.20670878002E-01 -0.89341889782E-02  0.32816671945E-02  0.22756851049E-01  0.00000000000E+00 0.  1.
     999901    1    3    3    0    0  0.15038979035E-01 -0.93909275579E-01  0.71060934256E-01  0.88797228521E+00  0.88000000000E+00 0. -1.
        -11    1    4    4    0    0 -0.18332981194E-01  0.58714067093E-01 -0.52977600303E-01  0.81180829812E-01  0.51100000000E-03 0.  1.
         11    1    4    4    0    0 -0.17376875843E-01  0.44129397464E-01 -0.21365001148E-01  0.52020033926E-01  0.51100000000E-03 0. -1.
</event>
<event>
 8    1  0.5489035E+004  0.1043930E+01  0.7957747E-01            NaN
         13   -1    0    0    0    0  0.00000000000E+00  0.00000000000E+00  0.74505805969E-08  0.10566000000E+00  0.10566000000E+00 0.  1.
     999900   -1    0    0    0    0 -0.00000000000E+00 -0.00000000000E+00 -0.74505805969E-08  0.93827000000E+00  0.93827000000E+00 0. -1.
     999902    2    1    2    0    0 -0.47349097722E-02  0.12972869955E-01  0.18679565958E-01  0.10206998276E+01  0.10204354449E+01 0.  0.
     999903    2    3    3    0    0  0.11095457014E+00  0.20049683631E-02  0.67996056963E-01  0.13169112859E+00  0.20103558226E-01 0.  0.
         14    1    1    2    0    0  0.47349097722E-02 -0.12972869955E-01 -0.18679565958E-01  0.23230172401E-01  0.00000000000E+00 0. -1.
     999901    1    3    3    0    0 -0.11568947991E+00  0.10967901592E-01 -0.49316491005E-01  0.88900869901E+00  0.88000000000E+00 0.  1.
        -11    1    4    4    0    0  0.81215745862E-01 -0.48066806794E-02  0.41766938779E-01  0.91454031355E-01  0.51100000000E-03 0. -1.
         11    1    4    4    0    0  0.29738824280E-01  0.68116490425E-02  0.26229118184E-01  0.40237097235E-01  0.51100000000E-03 0.  1.
</event>
<event>
 8    1  0.5489035E+004  0.1043930E+01  0.7957747E-01            NaN
         13   -1    0    0    0    0  0.00000000000E+00  0.00000000000E+00  0.74505805969E-08  0.10566000000E+00  0.10566000000E+00 0. -1.
     999900   -1    0    0    0    0 -0.00000000000E+00 -0.00000000000E+00 -0.74505805969E-08  0.93827000000E+00  0.93827000000E+00 0. -1.
     999902    2    1    2    0    0  0.18609325511E-01  0.31557998350E-02 -0.15206517728E-01  0.10196915130E+01  0.10194033929E+01 0.  0.
     999903    2    3    3    0    0  0.12316335688E+00  0.35883696260E-01  0.23912423664E-01  0.13203563814E+00  0.20118488975E-01 0.  0.
         14    1    1    2    0    0 -0.18609325511E-01 -0.31557998350E-02  0.15206517728E-01  0.24238486958E-01  0.00000000000E+00 0. -1.
     999901    1    3    3    0    0 -0.10455403136E+00 -0.32727896425E-01 -0.39118941393E-01  0.88765587491E+00  0.88000000000E+00 0. -1.
        -11    1    4    4    0    0  0.81323919486E-01  0.32411873112E-01  0.20474969009E-01  0.89908814229E-01  0.51100000000E-03 0. -1.
         11    1    4    4    0    0  0.41839437389E-01  0.34718231476E-02  0.34374546552E-02  0.42126823908E-01  0.51100000000E-03 0.  1.
</event>
<event>
 8    1  0.5489035E+004  0.1043930E+01  0.7957747E-01            NaN
         13   -1    0    0    0    0  0.00000000000E+00  0.00000000000E+00  0.74505805969E-08  0.10566000000E+00  0.10566000000E+00 0.  1.
     999900   -1    0    0    0    0 -0.00000000000E+00 -0.00000000000E+00 -0.74505805969E-08  0.93827000000E+00  0.93827000000E+00 0. -1.
     999902    2    1    2    0    0  0.19811970859E-01 -0.10781030361E-01  0.66585213306E-02  0.10204123319E+01  0.10201412875E+01 0.  0.
     999903    2    3    3    0    0  0.10982788866E+00 -0.58966942745E-01 -0.42222785846E-01  0.13316144870E+00  0.20247032170E-01 0.  0.
         14    1    1    2    0    0 -0.19811970859E-01  0.10781030361E-01 -0.66585213306E-02  0.23517668067E-01  0.00000000000E+00 0. -1.
     999901    1    3    3    0    0 -0.90015917797E-01  0.48185912384E-01  0.48881307176E-01  0.88725088323E+00  0.88000000000E+00 0.  1.
        -11    1    4    4    0    0  0.17841546853E-01 -0.18737017700E-01 -0.94037392438E-02  0.27533398976E-01  0.51100000000E-03 0.  1.
         11    1    4    4    0    0  0.91986341803E-01 -0.40229925045E-01 -0.32819046602E-01  0.10562804972E+00  0.51100000000E-03 0. -1.
</event>
<event>
 8    1  0.5489035E+004  0.1043930E+01  0.7957747E-01            NaN
         13   -1    0    0    0    0  0.00000000000E+00  0.00000000000E+00  0.74505805969E-08  0.10566000000E+00  0.10566000000E+00 0. -1.
     999900   -1    0    0    0    0 -0.00000000000E+00 -0.00000000000E+00 -0.74505805969E-08  0.93827000000E+00  0.93827000000E+00 0.  1.
     999902    2    1    2    0    0 -0.21158263689E-01 -0.12895043802E-01 -0.34118322816E-02  0.10189181053E+01  0.10186110693E+01 0.  0.
     999903    2    3    3    0    0 -0.83747305278E-01 -0.27581394970E-01 -0.95828063373E-01  0.13174628609E+00  0.19993040734E-01 0.  0.
         14    1    1    2    0    0  0.21158263689E-01  0.12895043802E-01  0.34118322816E-02  0.25011894701E-01  0.00000000000E+00 0. -1.
     999901    1    3    3    0    0  0.62589041588E-01  0.14686351168E-01  0.92416231092E-01  0.88717181921E+00  0.88000000000E+00 0. -1.
        -11    1    4    4    0    0 -0.75906049917E-01 -0.30800217744E-01 -0.86945878340E-01  0.11945806255E+00  0.51100000000E-03 0. -1.
         11    1    4    4    0    0 -0.78412553609E-02  0.32188227740E-02 -0.88821850331E-02  0.12288223535E-01  0.51100000000E-03 0.  1.
</event>
<event>
 8    1  0.5489035E+004  0.1043930E+01  0.7957747E-01            NaN
         13   -1    0    0    0    0  0.00000000000E+00  0.00000000000E+00  0.74505805969E-08  0.10566000000E+00  0.10566000000E+00 0.  1.
     999900   -1    0    0    0    0 -0.00000000000E+00 -0.00000000000E+00 -0.74505805969E-08  0.93827000000E+00  0.93827000000E+00 0. -1.
     999902    2    1    2    0    0  0.14512692454E-01 -0.14025815668E-01 -0.11969857115E-01  0.10204647230E+01  0.10201948988E+01 0.  0.
     999903    2    3    3    0    0  0.77557048602E-01 -0.21683037926E-01 -0.10438047935E+00  0.13334976592E+00  0.20040600766E-01 0.  0.
         14    1    1    2    0    0 -0.14512692454E-01  0.14025815668E-01  0.11969857115E-01  0.23465277044E-01  0.00000000000E+00 0.  1.
     999901    1    3    3    0    0 -0.63044356149E-01  0.76572222585E-02  0.92410622239E-01  0.88711495704E+00  0.88000000000E+00 0.  1.
        -11    1    4    4    0    0  0.66222888207E-01 -0.14365554131E-01 -0.75387440918E-01  0.10136748708E+00  0.51100000000E-03 0.  1.
         11    1    4    4    0    0  0.11334160395E-01 -0.73174837956E-02 -0.28993038436E-01  0.31982278839E-01  0.51100000000E-03 0. -1.
</event>
<event>
 8    1  0.5489035E+004  0.1043930E+01  0.7957747E-01            NaN
         13   -1    0    0    0    0  0.00000000000E+00  0.00000000000E+00  0.74505805969E-08  0.10566000000E+00  0.10566000000E+00 0.  1.
     999900   -1    0    0    0    0 -0.00000000000E+00 -0.00000000000E+00 -0.74505805969E-08  0.93827000000E+00  0.93827000000E+00 0.  1.
     999902    2    1    2    0    0  0.78629457464E-02 -0.89501644965E-02 -0.20649121371E-01  0.10200905878E+01  0.10198119875E+01 0.  0.
     999903    2    3    3    0    0 -0.96500049928E-01  0.31062866927E-01  0.75267475498E-01  0.12785033367E+00  0.20083665337E-01 0.  0.
         14    1    1    2    0    0 -0.78629457464E-02  0.89501644965E-02  0.20649121371E-01  0.23839412193E-01  0.00000000000E+00 0.  1.
     999901    1    3    3    0    0  0.10436299567E+00 -0.40013031424E-01 -0.95916596869E-01  0.89224025414E+00  0.88000000000E+00 0.  1.
        -11    1    4    4    0    0 -0.58694628552E-01  0.27321722482E-01  0.54010844429E-01  0.84314698464E-01  0.51100000000E-03 0.  1.
         11    1    4    4    0    0 -0.37805421376E-01  0.37411444449E-02  0.21256631069E-01  0.43535635204E-01  0.51100000000E-03 0. -1.
</event>
<event>
 8    1  0.5489035E+004  0.1043930E+01  0.7957747E-01            NaN
         13   -1    0    0    0    0  0.00000000000E+00  0.00000000000E+00  0.74505805969E-08  0.10566000000E+00  0.10566000000E+00 0. -1.
     999900   -1    0    0    0    0 -0.00000000000E+00 -0.00000000000E+00 -0.74505805969E-08  0.93827000000E+00  0.93827000000E+00 0.  1.
     999902    2    1    2    0    0 -0.13978316725E-01  0.61334221017E-02  0.18319692128E-01  0.10200841759E+01  0.10198054239E+01 0.  0.
     999903    2    3    3    0    0  0.12374143019E-01 -0.85802438634E-01 -0.91934851008E-01  0.12806247279E+00  0.20803899052E-01 0.  0.
         14    1    1    2    0    0  0.13978316725E-01 -0.61334221017E-02 -0.18319692128E-01  0.23845824053E-01  0.00000000000E+00 0. -1.
     999901    1    3    3    0    0 -0.26352459744E-01  0.91935860736E-01  0.11025454314E+00  0.89202170316E+00  0.88000000000E+00 0. -1.
        -11    1    4    4    0    0  0.41041282894E-02 -0.59175013226E-01 -0.74269511146E-01  0.95051288608E-01  0.51100000000E-03 0.  1.
         11    1    4    4    0    0  0.82700147300E-02 -0.26627425408E-01 -0.17665339862E-01  0.33011184180E-01  0.51100000000E-03 0. -1.
</event>
<event>
 8    1  0.5489035E+004  0.1043930E+01  0.7957747E-01            NaN
         13   -1    0    0    0    0  0.00000000000E+00  0.00000000000E+00  0.74505805969E-08  0.10566000000E+00  0.10566000000E+00 0.  1.
     999900   -1    0    0    0    0 -0.00000000000E+00 -0.00000000000E+00 -0.74505805969E-08  0.93827000000E+00  0.93827000000E+00 0. -1.
     999902    2    1    2    0    0  0.25184128463E-02  0.52814060006E-02 -0.22400162817E-01  0.10207782626E+01  0.10205156826E+01 0.  0.
     999903    2    3    3    0    0  0.82123409509E-01  0.87530875706E-01  0.47415331158E-01  0.13062314463E+00  0.20206031120E-01 0.  0.
         14    1    1    2    0    0 -0.25184128463E-02 -0.52814060006E-02  0.22400162817E-01  0.23151737447E-01  0.00000000000E+00 0.  1.
     999901    1    3    3    0    0 -0.79604996662E-01 -0.82249469706E-01 -0.69815493975E-01  0.89015511792E+00  0.88000000000E+00 0. -1.
        -11    1    4    4    0    0  0.15358374120E-01  0.21611403427E-01  0.26022721842E-02  0.26645175083E-01  0.51100000000E-03 0. -1.
         11    1    4    4    0    0  0.66765035389E-01  0.65919472279E-01  0.44813058973E-01  0.10397796955E+00  0.51100000000E-03 0.  1.
</event>
<event>
 8    1  0.5489035E+004  0.1043930E+01  0.7957747E-01            NaN
         13   -1    0    0    0    0  0.00000000000E+00  0.00000000000E+00  0.74505805969E-08  0.10566000000E+00  0.10566000000E+00 0. -1.
     999900   -1    0    0    0    0 -0.00000000000E+00 -0.00000000000E+00 -0.74505805969E-08  0.93827000000E+00  0.93827000000E+00 0. -1.
     999902    2    1    2    0    0  0.14130084749E-01 -0.19047923745E-01 -0.45155276862E-02  0.10197872436E+01  0.10195014221E+01 0.  0.
     999903    2    3    3    0    0 -0.68424256113E-01 -0.98700945434E-01  0.47780365457E-01  0.13080204495E+00  0.20061310683E-01 0.  0.
         14    1    1    2    0    0 -0.14130084749E-01  0.19047923745E-01  0.45155276862E-02  0.24142756353E-01  0.00000000000E+00 0. -1.
     999901    1    3    3    0    0  0.82554340862E-01  0.79653021689E-01 -0.52295893143E-01  0.88898519870E+00  0.88000000000E+00 0. -1.
        -11    1    4    4    0    0 -0.40440953255E-01 -0.57496161392E-01  0.17259667991E-01  0.72383952194E-01  0.51100000000E-03 0.  1.
         11    1    4    4    0    0 -0.27983302858E-01 -0.41204784042E-01  0.30520697465E-01  0.58418092759E-01  0.51100000000E-03 0. -1.
</event>
<event>
 8    1  0.5489035E+004  0.1043930E+01  0.7957747E-01            NaN
         13   -1    0    0    0    0  0.00000000000E+00  0.00000000000E+00  0.74505805969E-08  0.10566000000E+00  0.10566000000E+00 0.  1.
     999900   -1    0    0    0    0 -0.00000000000E+00 -0.00000000000E+00 -0.74505805969E-08  0.93827000000E+00  0.93827000000E+00 0. -1.
     999902    2    1    2    0    0 -0.20991644998E-01 -0.18595723835E-01 -0.72677181667E-02  0.10149598458E+01  0.10145463118E+01 0.  0.
     999903    2    3    3    0    0 -0.12543575127E+00  0.13563119647E-01  0.84407024636E-02  0.12806102578E+00  0.20255738820E-01 0.  0.
         14    1    1    2    0    0  0.20991644998E-01  0.18595723835E-01  0.72677181667E-02  0.28970154160E-01  0.00000000000E+00 0.  1.
     999901    1    3    3    0    0  0.10444410627E+00 -0.32158843482E-01 -0.15708420630E-01  0.88689882006E+00  0.88000000000E+00 0.  1.
        -11    1    4    4    0    0 -0.55694189677E-01  0.10034497275E-01  0.13043314946E-01  0.58076872205E-01  0.51100000000E-03 0.  1.
         11    1    4    4    0    0 -0.69741561589E-01  0.35286223712E-02 -0.46026124826E-02  0.69984153573E-01  0.51100000000E-03 0. -1.
</event>
<event>
 8    1  0.5489035E+004  0.1043930E+01  0.7957747E-01            NaN
         13   -1    0    0    0    0  0.00000000000E+00  0.00000000000E+00  0.74505805969E-08  0.10566000000E+00  0.10566000000E+00 0. -1.
     999900   -1    0    0    0    0 -0.00000000000E+00 -0.00000000000E+00 -0.74505805969E-08  0.93827000000E+00  0.93827000000E+00 0. -1.
     999902    2    1    2    0    0  0.13438707160E-02  0.20311842221E-02  0.28191292601E-01  0.10156336985E+01  0.10152394441E+01 0.  0.
     999903    2    3    3    0    0 -0.10118848279E+00 -0.18603411942E-01 -0.66996807816E-01  0.12434281194E+00  0.19681631976E-01 0.  0.
         14    1    1    2    0    0 -0.13438707160E-02 -0.20311842221E-02 -0.28191292601E-01  0.28296301461E-01  0.00000000000E+00 0.  1.
     999901    1    3    3    0    0  0.10253235351E+00  0.20634596165E-01  0.95188100417E-01  0.89129088660E+00  0.88000000000E+00 0.  1.
        -11    1    4    4    0    0 -0.77883586571E-01 -0.22597624566E-01 -0.52229073192E-01  0.96460576925E-01  0.51100000000E-03 0.  1.
         11    1    4    4    0    0 -0.23304896224E-01  0.39942126232E-02 -0.14767734624E-01  0.27882235015E-01  0.51100000000E-03 0. -1.
</event>
<event>
 7    1  0.5489035E+004  0.1043930E+01  0.7957747E-01            NaN
         13   -1    0    0    0    0  0.00000000000E+00  0.00000000000E+00  0.74505805969E-08  0.10566000000E+00  0.10566000000E+00 0.  1.
     999900   -1    0    0    0    0 -0.00000000000E+00 -0.00000000000E+00 -0.74505805969E-08  0.93827000000E+00  0.93827000000E+00 0.  1.
     999903    2    1    2    0    0  0.82361773408E-01 -0.66795544193E-01 -0.19986358212E-01  0.11093106193E+00  0.25712633922E-01 0.  0.
         14    1    1    2    0    0  0.19992743542E-01  0.39103060020E-01  0.15651035336E-01  0.46623105907E-01  0.00000000000E+00 0. -1.
     999901    1    1    2    0    0 -0.10235451695E+00  0.27692484173E-01  0.43353228752E-02  0.88637583216E+00  0.88000000000E+00 0. -1.
        -11    1    3    3    0    0  0.70527449965E-01 -0.66976365872E-01 -0.17473020570E-01  0.98820657521E-01  0.51100000000E-03 0. -1.
         11    1    3    3    0    0  0.11834323444E-01  0.18082167887E-03 -0.25133376416E-02  0.12110404409E-01  0.51100000000E-03 0.  1.
</event>
<event>
 8    1  0.5489035E+004  0.1043930E+01  0.7957747E-01            NaN
         13   -1    0    0    0    0  0.00000000000E+00  0.00000000000E+00  0.74505805969E-08  0.10566000000E+00  0.10566000000E+00 0.  1.
     999900   -1    0    0    0    0 -0.00000000000E+00 -0.00000000000E+00 -0.74505805969E-08  0.93827000000E+00  0.93827000000E+00 0.  1.
     999902    2    1    2    0    0  0.28711276534E-01 -0.87273811197E-02 -0.91518510335E-02  0.10125570665E+01  0.10120709224E+01 0.  0.
     999903    2    3    3    0    0  0.10108354876E+00 -0.28781059647E-01  0.66742355151E-01  0.12610355593E+00  0.20033262876E-01 0.  0.
         14    1    1    2    0    0 -0.28711276534E-01  0.87273811197E-02  0.91518510335E-02  0.31372933538E-01  0.00000000000E+00 0. -1.
     999901    1    3    3    0    0 -0.72372272227E-01  0.20053678527E-01 -0.75894206184E-01  0.88645351054E+00  0.88000000000E+00 0.  1.
        -11    1    4    4    0    0  0.80920161988E-01 -0.14647840561E-01  0.48721357556E-01  0.95585896724E-01  0.51100000000E-03 0.  1.
         11    1    4    4    0    0  0.20163386773E-01 -0.14133219086E-01  0.18020997594E-01  0.30517659202E-01  0.51100000000E-03 0. -1.
</event>
<event>
 8    1  0.5489035E+004  0.1043930E+01  0.7957747E-01            NaN
         13   -1    0    0    0    0  0.00000000000E+00  0.00000000000E+00  0.74505805969E-08  0.10566000000E+00  0.10566000000E+00 0. -1.
     999900   -1    0    0    0    0 -0.00000000000E+00 -0.00000000000E+00 -0.74505805969E-08  0.93827000000E+00  0.93827000000E+00 0. -1.
     999902    2    1    2    0    0 -0.92677468524E-02 -0.22286090393E-01  0.19604470811E-02  0.10197142136E+01  0.10194266394E+01 0.  0.
     999903    2    3    3    0    0 -0.49488439432E-01  0.55375851642E-01  0.10427602330E+00  0.12947966112E+00  0.19388218709E-01 0.  0.
         14    1    1    2    0    0  0.92677468524E-02  0.22286090393E-01 -0.19604470811E-02  0.24215786369E-01  0.00000000000E+00 0.  1.
     999901    1    3    3    0    0  0.40220692580E-01 -0.77661942035E-01 -0.10231557622E+00  0.89023455251E+00  0.88000000000E+00 0.  1.
        -11    1    4    4    0    0 -0.23126391975E-01  0.16095993325E-01  0.50700551087E-01  0.58006189398E-01  0.51100000000E-03 0. -1.
         11    1    4    4    0    0 -0.26362047457E-01  0.39279858317E-01  0.53575472215E-01  0.71473471719E-01  0.51100000000E-03 0.  1.
</event>
<event>
 8    1  0.5489035E+004  0.1043930E+01  0.7957747E-01            NaN
         13   -1    0    0    0    0  0.00000000000E+00  0.00000000000E+00  0.74505805969E-08  0.10566000000E+00  0.10566000000E+00 0.  1.
     999900   -1    0    0    0    0 -0.00000000000E+00 -0.00000000000E+00 -0.74505805969E-08  0.93827000000E+00  0.93827000000E+00 0. -1.
     999902    2    1    2    0    0 -0.16230724291E-01  0.49974180767E-02 -0.16722576404E-01  0.10200960922E+01  0.10198176220E+01 0.  0.
     999903    2    3    3    0    0  0.44974843132E-01 -0.95691388439E-01 -0.73630393113E-01  0.13042038903E+00  0.20210510862E-01 0.  0.
         14    1    1    2    0    0  0.16230724291E-01 -0.49974180767E-02  0.16722576404E-01  0.23833907779E-01  0.00000000000E+00 0.  1.
     999901    1    3    3    0    0 -0.61205567423E-01  0.10068880652E+00  0.56907816708E-01  0.88967570319E+00  0.88000000000E+00 0.  1.
        -11    1    4    4    0    0  0.35810353815E-01 -0.74265344228E-01 -0.66847835628E-01  0.10614432176E+00  0.51100000000E-03 0. -1.
         11    1    4    4    0    0  0.91644893174E-02 -0.21426044211E-01 -0.67825574847E-02  0.24276067268E-01  0.51100000000E-03 0.  1.
</event>
<event>
 7    1  0.5489035E+004  0.1043930E+01  0.7957747E-01            NaN
         13   -1    0    0    0    0  0.00000000000E+00  0.00000000000E+00  0.74505805969E-08  0.10566000000E+00  0.10566000000E+00 0.  1.
     999900   -1    0    0    0    0 -0.00000000000E+00 -0.00000000000E+00 -0.74505805969E-08  0.93827000000E+00  0.93827000000E+00 0. -1.
     999903    2    1    2    0    0  0.14159322935E-01  0.10456961332E+00 -0.10824144072E-01  0.10777779885E+00  0.19068334327E-01 0.  0.
         14    1    1    2    0    0 -0.48679064674E-01 -0.39690051044E-02 -0.83056244856E-02  0.49541777694E-01  0.00000000000E+00 0.  1.
     999901    1    1    2    0    0  0.34519741739E-01 -0.10060060821E+00  0.19129768558E-01  0.88661042346E+00  0.88000000000E+00 0.  1.
        -11    1    3    3    0    0  0.17481232424E-01  0.98203496525E-01 -0.12055244885E-01  0.10047442594E+00  0.51100000000E-03 0. -1.
         11    1    3    3    0    0 -0.33219094891E-02  0.63661167916E-02  0.12311008132E-02  0.73033729105E-02  0.51100000000E-03 0.  1.
</event>
<event>
 8    1  0.5489035E+004  0.1043930E+01  0.7957747E-01            NaN
         13   -1    0    0    0    0  0.00000000000E+00  0.00000000000E+00  0.74505805969E-08  0.10566000000E+00  0.10566000000E+00 0. -1.
     999900   -1    0    0    0    0 -0.00000000000E+00 -0.00000000000E+00 -0.74505805969E-08  0.93827000000E+00  0.93827000000E+00 0.  1.
     999902    2    1    2    0    0  0.72641026587E-02 -0.17444526801E-01 -0.14715453423E-01  0.10199795663E+01  0.10196983341E+01 0.  0.
     999903    2    3    3    0    0  0.38571842973E-01 -0.10224372735E+00 -0.74468149335E-01  0.13333337779E+00  0.17050440258E-01 0.  0.
         14    1    1    2    0    0 -0.72641026587E-02  0.17444526801E-01  0.14715453423E-01  0.23950433654E-01  0.00000000000E+00 0. -1.
     999901    1    3    3    0    0 -0.31307740314E-01  0.84799200553E-01  0.59752695913E-01  0.88664618856E+00  0.88000000000E+00 0.  1.
        -11    1    4    4    0    0  0.24996532540E-01 -0.74100806212E-01 -0.61539199050E-01  0.99514271645E-01  0.51100000000E-03 0.  1.
         11    1    4    4    0    0  0.13575310433E-01 -0.28142921142E-01 -0.12928950286E-01  0.33819106142E-01  0.51100000000E-03 0. -1.
</event>
<event>
 8    1  0.5489035E+004  0.1043930E+01  0.7957747E-01            NaN
         13   -1    0    0    0    0  0.00000000000E+00  0.00000000000E+00  0.74505805969E-08  0.10566000000E+00  0.10566000000E+00 0. -1.
     999900   -1    0    0    0    0 -0.00000000000E+00 -0.00000000000E+00 -0.74505805969E-08  0.93827000000E+00  0.93827000000E+00 0. -1.
     999902    2    1    2    0    0  0.13963064566E-01  0.12103604272E-01  0.14890010886E-01  0.10201986530E+01  0.10199226023E+01 0.  0.
     999903    2    3    3    0    0 -0.18857814147E-01 -0.12483945155E+00  0.18000840743E-01  0.12899705518E+00  0.19383089530E-01 0.  0.
         14    1    1    2    0    0 -0.13963064566E-01 -0.12103604272E-01 -0.14890010886E-01  0.23731347046E-01  0.00000000000E+00 0.  1.
     999901    1    3    3    0    0  0.32820878713E-01  0.13694305582E+00 -0.31108298562E-02  0.89120159778E+00  0.88000000000E+00 0.  1.
        -11    1    4    4    0    0  0.30457705627E-02 -0.39299567724E-01  0.64068214553E-02  0.39937967196E-01  0.51100000000E-03 0.  1.
         11    1    4    4    0    0 -0.21903584710E-01 -0.85539883824E-01  0.11594019287E-01  0.89059087981E-01  0.51100000000E-03 0. -1.
</event>
<event>
 8    1  0.5489035E+004  0.1043930E+01  0.7957747E-01            NaN
         13   -1    0    0    0    0  0.00000000000E+00  0.00000000000E+00  0.74505805969E-08  0.10566000000E+00  0.10566000000E+00 0. -1.
     999900   -1    0    0    0    0 -0.00000000000E+00 -0.00000000000E+00 -0.74505805969E-08  0.93827000000E+00  0.93827000000E+00 0. -1.
     999902    2    1    2    0    0 -0.60022272845E-02 -0.21403223717E-01 -0.32671431451E-02  0.10214622689E+01  0.10212151427E+01 0.  0.
     999903    2    3    3    0    0  0.26852396898E-01  0.11672603755E+00  0.42078415168E-01  0.12892916651E+00  0.22497064101E-01 0.  0.
         14    1    1    2    0    0  0.60022272845E-02  0.21403223717E-01  0.32671431451E-02  0.22467731131E-01  0.00000000000E+00 0. -1.
     999901    1    3    3    0    0 -0.32854624182E-01 -0.13812926126E+00 -0.45345558313E-01  0.89253310236E+00  0.88000000000E+00 0. -1.
        -11    1    4    4    0    0  0.13610862885E-02  0.55282672634E-01  0.17373693572E-01  0.57966652472E-01  0.51100000000E-03 0.  1.
         11    1    4    4    0    0  0.25491310609E-01  0.61443364913E-01  0.24704721596E-01  0.70962514038E-01  0.51100000000E-03 0. -1.
</event>
<event>
 8    1  0.5489035E+004  0.1043930E+01  0.7957747E-01            NaN
         13   -1    0    0    0    0  0.00000000000E+00  0.00000000000E+00  0.74505805969E-08  0.10566000000E+00  0.10566000000E+00 0. -1.
     999900   -1    0    0    0    0 -0.00000000000E+00 -0.00000000000E+00 -0.74505805969E-08  0.93827000000E+00  0.93827000000E+00 0.  1.
     999902    2    1    2    0    0 -0.34523233217E-02  0.11289193408E-01 -0.20866867009E-01  0.10199552098E+01  0.10196733985E+01 0.  0.
     999903    2    3    3    0    0  0.70956935470E-01 -0.10222901675E+00  0.24356086786E-01  0.12840137671E+00  0.20199901505E-01 0.  0.
         14    1    1    2    0    0  0.34523233217E-02 -0.11289193408E-01  0.20866867009E-01  0.23974790154E-01  0.00000000000E+00 0. -1.
     999901    1    3    3    0    0 -0.74409258791E-01  0.11351821016E+00 -0.45222953795E-01  0.89155383314E+00  0.88000000000E+00 0.  1.
        -11    1    4    4    0    0  0.29697301407E-01 -0.33715152851E-01  0.17163808577E-01  0.48098842902E-01  0.51100000000E-03 0. -1.
         11    1    4    4    0    0  0.41259634063E-01 -0.68513863897E-01  0.71922782093E-02  0.80302533808E-01  0.51100000000E-03 0.  1.
</event>
<event>
 8    1  0.5489035E+004  0.1043930E+01  0.7957747E-01            NaN
         13   -1    0    0    0    0  0.00000000000E+00  0.00000000000E+00  0.74505805969E-08  0.10566000000E+00  0.10566000000E+00 0.  1.
     999900   -1    0    0    0    0 -0.00000000000E+00 -0.00000000000E+00 -0.74505805969E-08  0.93827000000E+00  0.93827000000E+00 0.  1.
     999902    2    1    2    0    0 -0.17824999639E-01 -0.10548016123E-01  0.12637716072E-01  0.10196667949E+01  0.10193780797E+01 0.  0.
     999903    2    3    3    0    0 -0.95767752432E-01 -0.89377322313E-01  0.90455865952E-02  0.13270454334E+00  0.19206900736E-01 0.  0.
         14    1    1    2    0    0  0.17824999639E-01  0.10548016123E-01 -0.12637716072E-01  0.24263205142E-01  0.00000000000E+00 0. -1.
     999901    1    3    3    0    0  0.77942752793E-01  0.78829306190E-01  0.35921294771E-02  0.88696225152E+00  0.88000000000E+00 0. -1.
        -11    1    4    4    0    0 -0.65972578353E-01 -0.69904058780E-01  0.61953619085E-03  0.96122856151E-01  0.51100000000E-03 0.  1.
         11    1    4    4    0    0 -0.29795174079E-01 -0.19473263533E-01  0.84260504044E-02  0.36581687187E-01  0.51100000000E-03 0. -1.
</event>
<event>
 8    1  0.5489035E+004  0.1043930E+01  0.7957747E-01            NaN
         13   -1    0    0    0    0  0.00000000000E+00  0.00000000000E+00  0.74505805969E-08  0.10566000000E+00  0.10566000000E+00 0.  1.
     999900   -1    0    0    0    0 -0.00000000000E+00 -0.00000000000E+00 -0.74505805969E-08  0.93827000000E+00  0.93827000000E+00 0.  1.
     999902    2    1    2    0    0  0.49526079005E-02  0.71983832167E-02 -0.23810301542E-01  0.10185671235E+01  0.10182512998E+01 0.  0.
     999903    2    3    3    0    0  0.76753039140E-01  0.32208465614E-01 -0.10044096756E+00  0.13197078629E+00  0.19987150748E-01 0.  0.
         14    1    1    2    0    0 -0.49526079005E-02 -0.71983832167E-02  0.23810301542E-01  0.25362876522E-01  0.00000000000E+00 0.  1.
     999901    1    3    3    0    0 -0.71800431240E-01 -0.25010082397E-01  0.76630666014E-01  0.88659633719E+00  0.88000000000E+00 0. -1.
        -11    1    4    4    0    0  0.58866151411E-01  0.15274936176E-01 -0.74937412585E-01  0.96511265576E-01  0.51100000000E-03 0. -1.
         11    1    4    4    0    0  0.17886887729E-01  0.16933529438E-01 -0.25503554971E-01  0.35459520710E-01  0.51100000000E-03 0.  1.
</event>
<event>
 8    1  0.5489035E+004  0.1043930E+01  0.7957747E-01            NaN
         13   -1    0    0    0    0  0.00000000000E+00  0.00000000000E+00  0.74505805969E-08  0.10566000000E+00  0.10566000000E+00 0. -1.
     999900   -1    0    0    0    0 -0.00000000000E+00 -0.00000000000E+00 -0.74505805969E-08  0.93827000000E+00  0.93827000000E+00 0. -1.
     999902    2    1    2    0    0  0.95941944359E-02  0.12508240667E-01  0.17884644817E-01  0.10200895895E+01  0.10198109656E+01 0.  0.
     999903    2    3    3    0    0 -0.65747489537E-01 -0.10825108851E+00 -0.51137629405E-02  0.12835638296E+00  0.20203463374E-01 0.  0.
         14    1    1    2    0    0 -0.95941944359E-02 -0.12508240667E-01 -0.17884644817E-01  0.23840410476E-01  0.00000000000E+00 0.  1.
     999901    1    3    3    0    0  0.75341683973E-01  0.12075932917E+00  0.22998407757E-01  0.89173320656E+00  0.88000000000E+00 0. -1.
        -11    1    4    4    0    0 -0.38757222451E-01 -0.69107595646E-01 -0.12568913610E-01  0.80226060470E-01  0.51100000000E-03 0.  1.
         11    1    4    4    0    0 -0.26990267086E-01 -0.39143492861E-01  0.74551506697E-02  0.48130322492E-01  0.51100000000E-03 0. -1.
</event>
<event>
 8    1  0.5489035E+004  0.1043930E+01  0.7957747E-01            NaN
         13   -1    0    0    0    0  0.00000000000E+00  0.00000000000E+00  0.74505805969E-08  0.10566000000E+00  0.10566000000E+00 0.  1.
     999900   -1    0    0    0    0 -0.00000000000E+00 -0.00000000000E+00 -0.74505805969E-08  0.93827000000E+00  0.93827000000E+00 0. -1.
     999902    2    1    2    0    0  0.25808209212E-02 -0.83444499897E-02  0.21583894139E-01  0.10206457786E+01  0.10203801499E+01 0.  0.
     999903    2    3    3    0    0  0.71396039078E-01  0.12948881608E-01 -0.10430504209E+00  0.12877304969E+00  0.20925787701E-01 0.  0.
         14    1    1    2    0    0 -0.25808209212E-02  0.83444499897E-02 -0.21583894139E-01  0.23284221448E-01  0.00000000000E+00 0. -1.
     999901    1    3    3    0    0 -0.68815218157E-01 -0.21293331598E-01  0.12588893623E+00  0.89187272886E+00  0.88000000000E+00 0.  1.
        -11    1    4    4    0    0  0.38162058455E-01  0.14606712652E-01 -0.69458510925E-01  0.80588117119E-01  0.51100000000E-03 0. -1.
         11    1    4    4    0    0  0.33233980624E-01 -0.16578310436E-02 -0.34846531163E-01  0.48184932572E-01  0.51100000000E-03 0.  1.
</event>
<event>
 8    1  0.5489035E+004  0.1043930E+01  0.7957747E-01            NaN
         13   -1    0    0    0    0  0.00000000000E+00  0.00000000000E+00  0.74505805969E-08  0.10566000000E+00  0.10566000000E+00 0.  1.
     999900   -1    0    0    0    0 -0.00000000000E+00 -0.00000000000E+00 -0.74505805969E-08  0.93827000000E+00  0.93827000000E+00 0.  1.
     999902    2    1    2    0    0  0.40830682869E-04  0.17088501589E-01 -0.18043768867E-01  0.10190785182E+01  0.10187754562E+01 0.  0.
     999903    2    3    3    0    0  0.35307157712E-02  0.11496265394E+00 -0.63341995472E-01  0.13248759880E+00  0.17660059209E-01 0.  0.
         14    1    1    2    0    0 -0.40830682869E-04 -0.17088501589E-01  0.18043768867E-01  0.24851481819E-01  0.00000000000E+00 0.  1.
     999901    1    3    3    0    0 -0.34898850883E-02 -0.97874152348E-01  0.45298226606E-01  0.88659091938E+00  0.88000000000E+00 0. -1.
        -11    1    4    4    0    0  0.27027352483E-02  0.92250945873E-01 -0.58421769390E-01  0.10922868695E+00  0.51100000000E-03 0. -1.
         11    1    4    4    0    0  0.82798052285E-03  0.22711708064E-01 -0.49202260823E-02  0.23258911854E-01  0.51100000000E-03 0.  1.
</event>
<event>
 8    1  0.5489035E+004  0.1043930E+01  0.7957747E-01            NaN
         13   -1    0    0    0    0  0.00000000000E+00  0.00000000000E+00  0.74505805969E-08  0.10566000000E+00  0.10566000000E+00 0.  1.
     999900   -1    0    0    0    0 -0.00000000000E+00 -0.00000000000E+00 -0.74505805969E-08  0.93827000000E+00  0.93827000000E+00 0.  1.
     999902    2    1    2    0    0  0.21891762872E-02  0.16200559822E-01 -0.17448435894E-01  0.10200197815E+01  0.10197395041E+01 0.  0.
     999903    2    3    3    0    0 -0.23944755895E-01  0.34749542062E-01 -0.12447404202E+00  0.13295635229E+00  0.20067946327E-01 0.  0.
         14    1    1    2    0    0 -0.21891762872E-02 -0.16200559822E-01  0.17448435894E-01  0.23910218453E-01  0.00000000000E+00 0.  1.
     999901    1    3    3    0    0  0.26133932182E-01 -0.18548982240E-01  0.10702560613E+00  0.88706342925E+00  0.88000000000E+00 0. -1.
        -11    1    4    4    0    0 -0.19529675424E-01  0.10783977864E-01 -0.56758342048E-01  0.60987481615E-01  0.51100000000E-03 0.  1.
         11    1    4    4    0    0 -0.44150804710E-02  0.23965564198E-01 -0.67715699972E-01  0.71968870677E-01  0.51100000000E-03 0. -1.
</event>
<event>
 8    1  0.5489035E+004  0.1043930E+01  0.7957747E-01            NaN
         13   -1    0    0    0    0  0.00000000000E+00  0.00000000000E+00  0.74505805969E-08  0.10566000000E+00  0.10566000000E+00 0.  1.
     999900   -1    0    0    0    0 -0.00000000000E+00 -0.00000000000E+00 -0.74505805969E-08  0.93827000000E+00  0.93827000000E+00 0.  1.
     999902    2    1    2    0    0 -0.17184276140E-02  0.13286803924E-01 -0.19502515630E-01  0.10202690561E+01  0.10199946600E+01 0.  0.
     999903    2    3    3    0    0 -0.11396188807E+00  0.50262079843E-01 -0.38758609056E-01  0.13216063781E+00  0.21227713216E-01 0.  0.
         14    1    1    2    0    0  0.17184276140E-02 -0.13286803924E-01  0.19502515630E-01  0.23660943935E-01  0.00000000000E+00 0. -1.
     999901    1    3    3    0    0  0.11224346045E+00 -0.36975275919E-01  0.19256093426E-01  0.88810841826E+00  0.88000000000E+00 0. -1.
        -11    1    4    4    0    0 -0.54047441683E-01  0.15456212168E-01 -0.98179132260E-02  0.57067267222E-01  0.51100000000E-03 0.  1.
         11    1    4    4    0    0 -0.59914446383E-01  0.34805867675E-01 -0.28940695830E-01  0.75093370587E-01  0.51100000000E-03 0. -1.
</event>
<event>
 8    1  0.5489035E+004  0.1043930E+01  0.7957747E-01            NaN
         13   -1    0    0    0    0  0.00000000000E+00  0.00000000000E+00  0.74505805969E-08  0.10566000000E+00  0.10566000000E+00 0.  1.
     999900   -1    0    0    0    0 -0.00000000000E+00 -0.00000000000E+00 -0.74505805969E-08  0.93827000000E+00  0.93827000000E+00 0.  1.
     999902    2    1    2    0    0  0.13453150390E-01 -0.19527723374E-01  0.71160436677E-03  0.10202060539E+01  0.10199301775E+01 0.  0.
     999903    2    3    3    0    0  0.11844735221E+00 -0.57482722090E-01 -0.39284343425E-02  0.13314016333E+00  0.19412158776E-01 0.  0.
         14    1    1    2    0    0 -0.13453150390E-01  0.19527723374E-01 -0.71160436677E-03  0.23723946053E-01  0.00000000000E+00 0.  1.
     999901    1    3    3    0    0 -0.10499420183E+00  0.37954998717E-01  0.46400387092E-02  0.88706589062E+00  0.88000000000E+00 0.  1.
        -11    1    4    4    0    0  0.87477530560E-01 -0.34815958737E-01  0.26933225147E-02  0.94191212131E-01  0.51100000000E-03 0.  1.
         11    1    4    4    0    0  0.30969821655E-01 -0.22666763353E-01 -0.66217568571E-02  0.38948951194E-01  0.51100000000E-03 0. -1.
</event>
<event>
 7    1  0.5489035E+004  0.1043930E+01  0.7957747E-01            NaN
         13   -1    0    0    0    0  0.00000000000E+00  0.00000000000E+00  0.74505805969E-08  0.10566000000E+00  0.10566000000E+00 0. -1.
     999900   -1    0    0    0    0 -0.00000000000E+00 -0.00000000000E+00 -0.74505805969E-08  0.93827000000E+00  0.93827000000E+00 0. -1.
     999903    2    1    2    0    0 -0.41363625687E-02  0.26665443747E-01  0.82323690873E-01  0.88400666252E-01  0.17587846066E-01 0.  0.
         14    1    1    2    0    0  0.32720568420E-01  0.55868994499E-01  0.13146877127E-01  0.66066788345E-01  0.00000000000E+00 0. -1.
     999901    1    1    2    0    0 -0.28584205852E-01 -0.82534438246E-01 -0.95470568000E-01  0.88946254540E+00  0.88000000000E+00 0. -1.
        -11    1    3    3    0    0 -0.53571866042E-02  0.14880524199E-01  0.67941023211E-01  0.69759395100E-01  0.51100000000E-03 0. -1.
         11    1    3    3    0    0  0.12208240356E-02  0.11784919548E-01  0.14382667662E-01  0.18641271152E-01  0.51100000000E-03 0.  1.
</event>
<event>
 8    1  0.5489035E+004  0.1043930E+01  0.7957747E-01            NaN
         13   -1    0    0    0    0  0.00000000000E+00  0.00000000000E+00  0.74505805969E-08  0.10566000000E+00  0.10566000000E+00 0. -1.
     999900   -1    0    0    0    0 -0.00000000000E+00 -0.00000000000E+00 -0.74505805969E-08  0.93827000000E+00  0.93827000000E+00 0.  1.
     999902    2    1    2    0    0 -0.18875911977E-01  0.53404102351E-02 -0.13985783604E-01  0.10198380475E+01  0.10195534419E+01 0.  0.
     999903    2    3    3    0    0 -0.81416130519E-01  0.51907290985E-01 -0.89558882383E-01  0.13316389841E+00  0.19719971121E-01 0.  0.
         14    1    1    2    0    0  0.18875911977E-01 -0.53404102351E-02  0.13985783604E-01  0.24091952545E-01  0.00000000000E+00 0.  1.
     999901    1    3    3    0    0  0.62540218543E-01 -0.46566880750E-01  0.75573098779E-01  0.88667414904E+00  0.88000000000E+00 0. -1.
        -11    1    4    4    0    0 -0.65990823399E-01  0.33816054415E-01 -0.73914117188E-01  0.10469895964E+00  0.51100000000E-03 0. -1.
         11    1    4    4    0    0 -0.15425307120E-01  0.18091236570E-01 -0.15644765195E-01  0.28464938774E-01  0.51100000000E-03 0.  1.
</event>
<event>
 8    1  0.5489035E+004  0.1043930E+01  0.7957747E-01            NaN
         13   -1    0    0    0    0  0.00000000000E+00  0.00000000000E+00  0.74505805969E-08  0.10566000000E+00  0.10566000000E+00 0. -1.
     999900   -1    0    0    0    0 -0.00000000000E+00 -0.00000000000E+00 -0.74505805969E-08  0.93827000000E+00  0.93827000000E+00 0. -1.
     999902    2    1    2    0    0 -0.21209194976E-01 -0.12517359131E-02 -0.13156289620E-01  0.10189403071E+01  0.10186338227E+01 0.  0.
     999903    2    3    3    0    0  0.11339953707E+00  0.52311520655E-01  0.87821086397E-02  0.12682494096E+00  0.20285216705E-01 0.  0.
         14    1    1    2    0    0  0.21209194976E-01  0.12517359131E-02  0.13156289620E-01  0.24989692893E-01  0.00000000000E+00 0.  1.
     999901    1    3    3    0    0 -0.13460873204E+00 -0.53563256568E-01 -0.21938398260E-01  0.89211536615E+00  0.88000000000E+00 0. -1.
        -11    1    4    4    0    0  0.35774065225E-01  0.19591320896E-01 -0.62086337507E-02  0.41260293882E-01  0.51100000000E-03 0. -1.
         11    1    4    4    0    0  0.77625471844E-01  0.32720199760E-01  0.14990742390E-01  0.85564647079E-01  0.51100000000E-03 0.  1.
</event>
<event>
 8    1  0.5489035E+004  0.1043930E+01  0.7957747E-01            NaN
         13   -1    0    0    0    0  0.00000000000E+00  0.00000000000E+00  0.74505805969E-08  0.10566000000E+00  0.10566000000E+00 0. -1.
     999900   -1    0    0    0    0 -0.00000000000E+00 -0.00000000000E+00 -0.74505805969E-08  0.93827000000E+00  0.93827000000E+00 0. -1.
     999902    2    1    2    0    0  0.42539388402E-02 -0.18658268211E-01  0.13373397718E-01  0.10205831644E+01  0.10203160886E+01 0.  0.
     999903    2    3    3    0    0 -0.30199345223E-01  0.12129305348E+00  0.11224318257E-01  0.12885561640E+00  0.29219501784E-01 0.  0.
         14    1    1    2    0    0 -0.42539388402E-02  0.18658268211E-01 -0.13373397718E-01  0.23346835649E-01  0.00000000000E+00 0.  1.
     999901    1    3    3    0    0  0.34453284063E-01 -0.13995132169E+00  0.21490794606E-02  0.89172754795E+00  0.88000000000E+00 0.  1.
        -11    1    4    4    0    0  0.32060267444E-02  0.37532301098E-01  0.85896149720E-02  0.38639291396E-01  0.51100000000E-03 0. -1.
         11    1    4    4    0    0 -0.33405371967E-01  0.83760752380E-01  0.26347032855E-02  0.90216325008E-01  0.51100000000E-03 0.  1.
</event>
<event>
 8    1  0.5489035E+004  0.1043930E+01  0.7957747E-01            NaN
         13   -1    0    0    0    0  0.00000000000E+00  0.00000000000E+00  0.74505805969E-08  0.10566000000E+00  0.10566000000E+00 0.  1.
     999900   -1    0    0    0    0 -0.00000000000E+00 -0.00000000000E+00 -0.74505805969E-08  0.93827000000E+00  0.93827000000E+00 0.  1.
     999902    2    1    2    0    0 -0.16549374886E-01  0.10169701366E-01  0.13075286597E-01  0.10205148819E+01  0.10202462235E+01 0.  0.
     999903    2    3    3    0    0  0.26829987177E-01 -0.40334793809E-01  0.12065762602E+00  0.13146683325E+00  0.19455634820E-01 0.  0.
         14    1    1    2    0    0  0.16549374886E-01 -0.10169701366E-01 -0.13075286597E-01  0.23415118077E-01  0.00000000000E+00 0. -1.
     999901    1    3    3    0    0 -0.43379362064E-01  0.50504495175E-01 -0.10758233942E+00  0.88904804867E+00  0.88000000000E+00 0.  1.
        -11    1    4    4    0    0  0.16325178009E-01 -0.34085922808E-01  0.72276081522E-01  0.81562581199E-01  0.51100000000E-03 0.  1.
         11    1    4    4    0    0  0.10504809169E-01 -0.62488710012E-02  0.48381544495E-01  0.49904252055E-01  0.51100000000E-03 0. -1.
</event>
<event>
 8    1  0.5489035E+004  0.1043930E+01  0.7957747E-01            NaN
         13   -1    0    0    0    0  0.00000000000E+00  0.00000000000E+00  0.74505805969E-08  0.10566000000E+00  0.10566000000E+00 0.  1.
     999900   -1    0    0    0    0 -0.00000000000E+00 -0.00000000000E+00 -0.74505805969E-08  0.93827000000E+00  0.93827000000E+00 0.  1.
     999902    2    1    2    0    0  0.20069642511E-01  0.65439299364E-02  0.10683874146E-01  0.10202707790E+01  0.10199964234E+01 0.  0.
     999903    2    3    3    0    0  0.27237268187E-01  0.96172427573E-01 -0.82186921464E-01  0.13082734232E+00  0.19237953010E-01 0.  0.
         14    1    1    2    0    0 -0.20069642511E-01 -0.65439299364E-02 -0.10683874146E-01  0.23659220957E-01  0.00000000000E+00 0.  1.
     999901    1    3    3    0    0 -0.71676256767E-02 -0.89628497636E-01  0.92870795611E-01  0.88944343672E+00  0.88000000000E+00 0. -1.
        -11    1    4    4    0    0  0.14886598340E-01  0.25157697975E-01 -0.29573492928E-01  0.41585732920E-01  0.51100000000E-03 0. -1.
         11    1    4    4    0    0  0.12350669848E-01  0.71014729598E-01 -0.52613428536E-01  0.89241609403E-01  0.51100000000E-03 0.  1.
</event>
<event>
 8    1  0.5489035E+004  0.1043930E+01  0.7957747E-01            NaN
         13   -1    0    0    0    0  0.00000000000E+00  0.00000000000E+00  0.74505805969E-08  0.10566000000E+00  0.10566000000E+00 0. -1.
     999900   -1    0    0    0    0 -0.00000000000E+00 -0.00000000000E+00 -0.74505805969E-08  0.93827000000E+00  0.93827000000E+00 0. -1.
     999902    2    1    2    0    0  0.14148637547E-01  0.21434969279E-01 -0.10618640531E-01  0.10161379619E+01  0.10157578256E+01 0.  0.
     999903    2    3    3    0    0 -0.23618077501E-01 -0.24020462178E-01  0.11812558784E+00  0.12480884352E+00  0.22108747807E-01 0.  0.
         14    1    1    2    0    0 -0.14148637547E-01 -0.21434969279E-01  0.10618640531E-01  0.27792038053E-01  0.00000000000E+00 0. -1.
     999901    1    3    3    0    0  0.37766715047E-01  0.45455431456E-01 -0.12874422837E+00  0.89132911843E+00  0.88000000000E+00 0. -1.
        -11    1    4    4    0    0 -0.76835845373E-02 -0.53190011783E-02  0.91207851197E-02  0.13068247284E-01  0.51100000000E-03 0.  1.
         11    1    4    4    0    0 -0.15934492963E-01 -0.18701460999E-01  0.10900480272E+00  0.11174059624E+00  0.51100000000E-03 0. -1.
</event>
<event>
 8    1  0.5489035E+004  0.1043930E+01  0.7957747E-01            NaN
         13   -1    0    0    0    0  0.00000000000E+00  0.00000000000E+00  0.74505805969E-08  0.10566000000E+00  0.10566000000E+00 0. -1.
     999900   -1    0    0    0    0 -0.00000000000E+00 -0.00000000000E+00 -0.74505805969E-08  0.93827000000E+00  0.93827000000E+00 0. -1.
     999902    2    1    2    0    0  0.14693443462E-01  0.10854099083E-02 -0.17693421918E-01  0.10209053920E+01  0.10206457205E+01 0.  0.
     999903    2    3    3    0    0 -0.54811852475E-01 -0.97534883354E-01  0.60921611090E-01  0.12920069208E+00  0.21540276070E-01 0.  0.
         14    1    1    2    0    0 -0.14693443462E-01 -0.10854099083E-02  0.17693421918E-01  0.23024608023E-01  0.00000000000E+00 0. -1.
     999901    1    3    3    0    0  0.69505295936E-01  0.98620293262E-01 -0.78615033008E-01  0.89170469990E+00  0.88000000000E+00 0.  1.
        -11    1    4    4    0    0 -0.26815730303E-01 -0.35499323152E-01  0.34048579052E-01  0.56025460216E-01  0.51100000000E-03 0. -1.
         11    1    4    4    0    0 -0.27996122171E-01 -0.62035560202E-01  0.26873032038E-01  0.73175231863E-01  0.51100000000E-03 0.  1.
</event>
<event>
 8    1  0.5489035E+004  0.1043930E+01  0.7957747E-01            NaN
         13   -1    0    0    0    0  0.00000000000E+00  0.00000000000E+00  0.74505805969E-08  0.10566000000E+00  0.10566000000E+00 0.  1.
     999900   -1    0    0    0    0 -0.00000000000E+00 -0.00000000000E+00 -0.74505805969E-08  0.93827000000E+00  0.93827000000E+00 0.  1.
     999902    2    1    2    0    0 -0.17066389505E-01 -0.17082588585E-01 -0.17689322985E-01  0.10139969308E+01  0.10135550242E+01 0.  0.
     999903    2    3    3    0    0 -0.35858194015E-01 -0.56753373939E-01 -0.10756682469E+00  0.12833058932E+00  0.19782892880E-01 0.  0.
         14    1    1    2    0    0  0.17066389505E-01  0.17082588585E-01  0.17689322985E-01  0.29933069190E-01  0.00000000000E+00 0. -1.
     999901    1    3    3    0    0  0.18791804510E-01  0.39670785354E-01  0.89877501706E-01  0.88566634149E+00  0.88000000000E+00 0. -1.
        -11    1    4    4    0    0 -0.14711234707E-01 -0.40465283687E-01 -0.61267317940E-01  0.74885278787E-01  0.51100000000E-03 0.  1.
         11    1    4    4    0    0 -0.21146959307E-01 -0.16288090252E-01 -0.46299506751E-01  0.53445310537E-01  0.51100000000E-03 0. -1.
</event>
<event>
 8    1  0.5489035E+004  0.1043930E+01  0.7957747E-01            NaN
         13   -1    0    0    0    0  0.00000000000E+00  0.00000000000E+00  0.74505805969E-08  0.10566000000E+00  0.10566000000E+00 0.  1.
     999900   -1    0    0    0    0 -0.00000000000E+00 -0.00000000000E+00 -0.74505805969E-08  0.93827000000E+00  0.93827000000E+00 0. -1.
     999902    2    1    2    0    0  0.80436227678E-02 -0.21545611609E-01 -0.35980224497E-02  0.10206521347E+01  0.10203866527E+01 0.  0.
     999903    2    3    3    0    0  0.11835943594E+00  0.13326793261E-01  0.51657436992E-01  0.13136093996E+00  0.20016149903E-01 0.  0.
         14    1    1    2    0    0 -0.80436227678E-02  0.21545611609E-01  0.35980224497E-02  0.23277865288E-01  0.00000000000E+00 0.  1.
     999901    1    3    3    0    0 -0.11031581317E+00 -0.34872404869E-01 -0.55255459442E-01  0.88929119475E+00  0.88000000000E+00 0. -1.
        -11    1    4    4    0    0  0.16272334895E-01 -0.37616465711E-02  0.11743355757E-01  0.20423182742E-01  0.51100000000E-03 0. -1.
         11    1    4    4    0    0  0.10208710105E+00  0.17088439832E-01  0.39914081235E-01  0.11093775722E+00  0.51100000000E-03 0.  1.
</event>
<event>
 8    1  0.5489035E+004  0.1043930E+01  0.7957747E-01            NaN
         13   -1    0    0    0    0  0.00000000000E+00  0.00000000000E+00  0.74505805969E-08  0.10566000000E+00  0.10566000000E+00 0.  1.
     999900   -1    0    0    0    0 -0.00000000000E+00 -0.00000000000E+00 -0.74505805969E-08  0.93827000000E+00  0.93827000000E+00 0. -1.
     999902    2    1    2    0    0 -0.48073019165E-02 -0.22547892298E-01 -0.99958091009E-03  0.10208536753E+01  0.10205928227E+01 0.  0.
     999903    2    3    3    0    0  0.80607174653E-01  0.60730500276E-01  0.78243973645E-01  0.12927616079E+00  0.20112087590E-01 0.  0.
         14    1    1    2    0    0  0.48073019165E-02  0.22547892298E-01  0.99958091009E-03  0.23076324681E-01  0.00000000000E+00 0.  1.
     999901    1    3    3    0    0 -0.85414476569E-01 -0.83278392574E-01 -0.79243554555E-01  0.89157751453E+00  0.88000000000E+00 0. -1.
        -11    1    4    4    0    0  0.50598955847E-01  0.42003132204E-01  0.61878514252E-01  0.90298001610E-01  0.51100000000E-03 0.  1.
         11    1    4    4    0    0  0.30008218806E-01  0.18727368072E-01  0.16365459393E-01  0.38978159179E-01  0.51100000000E-03 0. -1.
</event>
<event>
 8    1  0.5489035E+004  0.1043930E+01  0.7957747E-01            NaN
         13   -1    0    0    0    0  0.00000000000E+00  0.00000000000E+00  0.74505805969E-08  0.10566000000E+00  0.10566000000E+00 0.  1.
     999900   -1    0    0    0    0 -0.00000000000E+00 -0.00000000000E+00 -0.74505805969E-08  0.93827000000E+00  0.93827000000E+00 0.  1.
     999902    2    1    2    0    0 -0.17126363906E-01  0.15940764693E-01  0.55376936390E-04  0.10205329193E+01  0.10202646794E+01 0.  0.
     999903    2    3    3    0    0 -0.24515490259E-02  0.11631674591E+00  0.60300158708E-01  0.13265898593E+00  0.20656764885E-01 0.  0.
         14    1    1    2    0    0  0.17126363906E-01 -0.15940764693E-01 -0.55376936390E-04  0.23397080721E-01  0.00000000000E+00 0. -1.
     999901    1    3    3    0    0 -0.14674814880E-01 -0.10037598121E+00 -0.60244781772E-01  0.88787393335E+00  0.88000000000E+00 0.  1.
        -11    1    4    4    0    0 -0.10789439372E-01  0.67947343388E-01  0.39637638801E-01  0.79401870294E-01  0.51100000000E-03 0.  1.
         11    1    4    4    0    0  0.83378903465E-02  0.48369402520E-01  0.20662519908E-01  0.53257115633E-01  0.51100000000E-03 0. -1.
</event>
<event>
 8    1  0.5489035E+004  0.1043930E+01  0.7957747E-01            NaN
         13   -1    0    0    0    0  0.00000000000E+00  0.00000000000E+00  0.74505805969E-08  0.10566000000E+00  0.10566000000E+00 0. -1.
     999900   -1    0    0    0    0 -0.00000000000E+00 -0.00000000000E+00 -0.74505805969E-08  0.93827000000E+00  0.93827000000E+00 0. -1.
     999902    2    1    2    0    0 -0.65705997345E-02 -0.15852488022E-01 -0.14747087083E-01  0.10213036716E+01  0.10210530050E+01 0.  0.
     999903    2    3    3    0    0 -0.10738429542E+00 -0.11782596642E-01  0.71898058306E-01  0.13131078040E+00  0.20074206694E-01 0.  0.
         14    1    1    2    0    0  0.65705997345E-02  0.15852488022E-01  0.14747087083E-01  0.22626328354E-01  0.00000000000E+00 0. -1.
     999901    1    3    3    0    0  0.10081369568E+00 -0.40698913795E-02 -0.86645145389E-01  0.88999289125E+00  0.88000000000E+00 0. -1.
        -11    1    4    4    0    0 -0.36451964168E-01  0.19507132875E-02  0.33211681986E-01  0.49354107381E-01  0.51100000000E-03 0. -1.
         11    1    4    4    0    0 -0.70932331250E-01 -0.13733309930E-01  0.38686376320E-01  0.81956673016E-01  0.51100000000E-03 0.  1.
</event>
<event>
 8    1  0.5489035E+004  0.1043930E+01  0.7957747E-01            NaN
         13   -1    0    0    0    0  0.00000000000E+00  0.00000000000E+00  0.74505805969E-08  0.10566000000E+00  0.10566000000E+00 0.  1.
     999900   -1    0    0    0    0 -0.00000000000E+00 -0.00000000000E+00 -0.74505805969E-08  0.93827000000E+00  0.93827000000E+00 0. -1.
     999902    2    1    2    0    0  0.19602567827E-01  0.15422427511E-01 -0.66627507102E-03  0.10189789307E+01  0.10186734047E+01 0.  0.
     999903    2    3    3    0    0 -0.12485186736E+00 -0.82301098067E-02 -0.11203129935E-02  0.12688771760E+00  0.21059778880E-01 0.  0.
         14    1    1    2    0    0 -0.19602567827E-01 -0.15422427511E-01  0.66627507102E-03  0.24951069280E-01  0.00000000000E+00 0. -1.
     999901    1    3    3    0    0  0.14445443519E+00  0.23652537318E-01  0.45403792247E-03  0.89209121312E+00  0.88000000000E+00 0.  1.
        -11    1    4    4    0    0 -0.72901757843E-01 -0.68041197321E-02 -0.10827968200E-01  0.74016676218E-01  0.51100000000E-03 0.  1.
         11    1    4    4    0    0 -0.51950109518E-01 -0.14259900746E-02  0.97076552070E-02  0.52871041386E-01  0.51100000000E-03 0. -1.
</event>
<event>
 8    1  0.5489035E+004  0.1043930E+01  0.7957747E-01            NaN
         13   -1    0    0    0    0  0.00000000000E+00  0.00000000000E+00  0.74505805969E-08  0.10566000000E+00  0.10566000000E+00 0. -1.
     999900   -1    0    0    0    0 -0.00000000000E+00 -0.00000000000E+00 -0.74505805969E-08  0.93827000000E+00  0.93827000000E+00 0.  1.
     999902    2    1    2    0    0  0.12482687070E-02 -0.21575392321E-01  0.87294207175E-02  0.10206220933E+01  0.10203559177E+01 0.  0.
     999903    2    3    3    0    0  0.95068319875E-01 -0.13267908269E-01 -0.86256496564E-01  0.13051336917E+00  0.19481619526E-01 0.  0.
         14    1    1    2    0    0 -0.12482687070E-02  0.21575392321E-01 -0.87294207175E-02  0.23307906697E-01  0.00000000000E+00 0.  1.
     999901    1    3    3    0    0 -0.93820051168E-01 -0.83074840521E-02  0.94985917281E-01  0.89010872413E+00  0.88000000000E+00 0.  1.
        -11    1    4    4    0    0  0.33971458688E-01 -0.83278767040E-02 -0.43285692794E-01  0.55653623938E-01  0.51100000000E-03 0.  1.
         11    1    4    4    0    0  0.61096861187E-01 -0.49400315645E-02 -0.42970803769E-01  0.74859745233E-01  0.51100000000E-03 0. -1.
</event>
<event>
 8    1  0.5489035E+004  0.1043930E+01  0.7957747E-01            NaN
         13   -1    0    0    0    0  0.00000000000E+00  0.00000000000E+00  0.74505805969E-08  0.10566000000E+00  0.10566000000E+00 0. -1.
     999900   -1    0    0    0    0 -0.00000000000E+00 -0.00000000000E+00 -0.74505805969E-08  0.93827000000E+00  0.93827000000E+00 0. -1.
     999902    2    1    2    0    0  0.20716087813E-01  0.15366158643E-01 -0.24188210582E-02  0.10180239038E+01  0.10176942286E+01 0.  0.
     999903    2    3    3    0    0 -0.72271582395E-01 -0.10748652225E-01  0.10085259957E+00  0.12673625298E+00  0.23497145212E-01 0.  0.
         14    1    1    2    0    0 -0.20716087813E-01 -0.15366158643E-01  0.24188210582E-02  0.25906096214E-01  0.00000000000E+00 0.  1.
     999901    1    3    3    0    0  0.92987670208E-01  0.26114810868E-01 -0.10327142063E+00  0.89128765080E+00  0.88000000000E+00 0. -1.
        -11    1    4    4    0    0 -0.60001498365E-01 -0.38300978411E-02  0.66758181760E-01  0.89843004226E-01  0.51100000000E-03 0.  1.
         11    1    4    4    0    0 -0.12270084030E-01 -0.69185543838E-02  0.34094417811E-01  0.36893248756E-01  0.51100000000E-03 0. -1.
</event>
<event>
 8    1  0.5489035E+004  0.1043930E+01  0.7957747E-01            NaN
         13   -1    0    0    0    0  0.00000000000E+00  0.00000000000E+00  0.74505805969E-08  0.10566000000E+00  0.10566000000E+00 0. -1.
     999900   -1    0    0    0    0 -0.00000000000E+00 -0.00000000000E+00 -0.74505805969E-08  0.93827000000E+00  0.93827000000E+00 0.  1.
     999902    2    1    2    0    0 -0.99970332797E-02 -0.15458639035E-01 -0.15389613578E-01  0.10199352005E+01  0.10196529130E+01 0.  0.
     999903    2    3    3    0    0 -0.11724130835E+00 -0.53559056365E-03  0.53644902077E-01  0.13061535017E+00  0.20899352630E-01 0.  0.
         14    1    1    2    0    0  0.99970332797E-02  0.15458639035E-01  0.15389613578E-01  0.23994799463E-01  0.00000000000E+00 0. -1.
     999901    1    3    3    0    0  0.10724427507E+00 -0.14923048471E-01 -0.69034515655E-01  0.88931985037E+00  0.88000000000E+00 0.  1.
        -11    1    4    4    0    0 -0.77352092924E-01  0.86687320667E-02  0.30618266402E-01  0.83643484826E-01  0.51100000000E-03 0.  1.
         11    1    4    4    0    0 -0.39889215422E-01 -0.92043226303E-02  0.23026635675E-01  0.46971865341E-01  0.51100000000E-03 0. -1.
</event>
<event>
 7    1  0.5489035E+004  0.1043930E+01  0.7957747E-01            NaN
         13   -1    0    0    0    0  0.00000000000E+00  0.00000000000E+00  0.74505805969E-08  0.10566000000E+00  0.10566000000E+00 0. -1.
     999900   -1    0    0    0    0 -0.00000000000E+00 -0.00000000000E+00 -0.74505805969E-08  0.93827000000E+00  0.93827000000E+00 0. -1.
     999902    2    1    2    0    0 -0.13120146647E-01  0.23497686068E-01  0.50056392606E-02  0.10165559991E+01  0.10161873663E+01 0.  0.
         14    1    1    2    0    0  0.13120146647E-01 -0.23497686068E-01 -0.50056392606E-02  0.27374000859E-01  0.00000000000E+00 0.  1.
     999901    1    3    3    0    0 -0.53168184496E-01  0.12130607120E+00 -0.41430883690E-01  0.89087515224E+00  0.88000000000E+00 0. -1.
        -11    1    3    3    0    0  0.59426788744E-02 -0.72672865281E-01  0.38903432646E-01  0.82646227820E-01  0.51100000000E-03 0. -1.
         11    1    3    3    0    0  0.34105358975E-01 -0.25135519852E-01  0.75330903054E-02  0.43034619083E-01  0.51100000000E-03 0.  1.
</event>
<event>
 8    1  0.5489035E+004  0.1043930E+01  0.7957747E-01            NaN
         13   -1    0    0    0    0  0.00000000000E+00  0.00000000000E+00  0.74505805969E-08  0.10566000000E+00  0.10566000000E+00 0. -1.
     999900   -1    0    0    0    0 -0.00000000000E+00 -0.00000000000E+00 -0.74505805969E-08  0.93827000000E+00  0.93827000000E+00 0.  1.
     999902    2    1    2    0    0 -0.72073632262E-02 -0.22329678078E-01 -0.96295291713E-02  0.10185668685E+01  0.10182510384E+01 0.  0.
     999903    2    3    3    0    0 -0.19368264375E-01  0.61766737957E-01  0.10706657449E+00  0.12680564747E+00  0.20643673988E-01 0.  0.
         14    1    1    2    0    0  0.72073632262E-02  0.22329678078E-01  0.96295291713E-02  0.25363131507E-01  0.00000000000E+00 0. -1.
     999901    1    3    3    0    0  0.12160901149E-01 -0.84096416035E-01 -0.11669610366E+00  0.89176122102E+00  0.88000000000E+00 0.  1.
        -11    1    4    4    0    0 -0.13124544709E-01  0.22360236785E-01  0.27524617517E-01  0.37816657089E-01  0.51100000000E-03 0. -1.
         11    1    4    4    0    0 -0.62437196665E-02  0.39406501172E-01  0.79541956971E-01  0.88988990384E-01  0.51100000000E-03 0.  1.
</event>
<event>
 8    1  0.5489035E+004  0.1043930E+01  0.7957747E-01            NaN
         13   -1    0    0    0    0  0.00000000000E+00  0.00000000000E+00  0.74505805969E-08  0.10566000000E+00  0.10566000000E+00 0. -1.
     999900   -1    0    0    0    0 -0.00000000000E+00 -0.00000000000E+00 -0.74505805969E-08  0.93827000000E+00  0.93827000000E+00 0.  1.
     999902    2    1    2    0    0  0.25449414629E-02  0.20773122113E-01  0.10426413404E-01  0.10205481817E+01  0.10202802957E+01 0.  0.
     999903    2    3    3    0    0  0.10425412297E+00 -0.65229426475E-01  0.37487831396E-01  0.13011372804E+00  0.20011109076E-01 0.  0.
         14    1    1    2    0    0 -0.25449414629E-02 -0.20773122113E-01 -0.10426413404E-01  0.23381818275E-01  0.00000000000E+00 0.  1.
     999901    1    3    3    0    0 -0.10170918151E+00  0.86002548589E-01 -0.27061417992E-01  0.89043445369E+00  0.88000000000E+00 0.  1.
        -11    1    4    4    0    0  0.29733771318E-01 -0.14990133191E-01  0.16081070193E-02  0.33341391379E-01  0.51100000000E-03 0.  1.
         11    1    4    4    0    0  0.74520351654E-01 -0.50239293284E-01  0.35879724377E-01  0.96772336660E-01  0.51100000000E-03 0. -1.
</event>
<event>
 8    1  0.5489035E+004  0.1043930E+01  0.7957747E-01            NaN
         13   -1    0    0    0    0  0.00000000000E+00  0.00000000000E+00  0.74505805969E-08  0.10566000000E+00  0.10566000000E+00 0. -1.
     999900   -1    0    0    0    0 -0.00000000000E+00 -0.00000000000E+00 -0.74505805969E-08  0.93827000000E+00  0.93827000000E+00 0.  1.
     999902    2    1    2    0    0  0.16265365988E-01  0.11429462858E-01 -0.12874846359E-01  0.10202454814E+01  0.10199705319E+01 0.  0.
     999903    2    3    3    0    0 -0.66075243305E-01 -0.76302538092E-01 -0.78771472255E-01  0.12961691392E+00  0.20188720501E-01 0.  0.
         14    1    1    2    0    0 -0.16265365988E-01 -0.11429462858E-01  0.12874846359E-01  0.23684518588E-01  0.00000000000E+00 0. -1.
     999901    1    3    3    0    0  0.82340609294E-01  0.87732000951E-01  0.65896625896E-01  0.89062856749E+00  0.88000000000E+00 0. -1.
        -11    1    4    4    0    0 -0.13845312661E-01 -0.27256569062E-01 -0.30741198472E-01  0.43357763367E-01  0.51100000000E-03 0.  1.
         11    1    4    4    0    0 -0.52229930645E-01 -0.49045969031E-01 -0.48030273783E-01  0.86259150552E-01  0.51100000000E-03 0. -1.
</event>
<event>
 8    1  0.5489035E+004  0.1043930E+01  0.7957747E-01            NaN
         13   -1    0    0    0    0  0.00000000000E+00  0.00000000000E+00  0.74505805969E-08  0.10566000000E+00  0.10566000000E+00 0.  1.
     999900   -1    0    0    0    0 -0.00000000000E+00 -0.00000000000E+00 -0.74505805969E-08  0.93827000000E+00  0.93827000000E+00 0.  1.
     999902    2    1    2    0    0  0.10451973235E-01 -0.23692951913E-01 -0.16494833813E-01  0.10132269178E+01  0.10127616243E+01 0.  0.
     999903    2    3    3    0    0  0.92793569062E-01 -0.42920193620E-01  0.69038370997E-01  0.12504576827E+00  0.20429341965E-01 0.  0.
         14    1    1    2    0    0 -0.10451973235E-01  0.23692951913E-01  0.16494833813E-01  0.30703082214E-01  0.00000000000E+00 0.  1.
     999901    1    3    3    0    0 -0.82341595827E-01  0.19227241707E-01 -0.85533204811E-01  0.88818114951E+00  0.88000000000E+00 0.  1.
        -11    1    4    4    0    0  0.76387456968E-02 -0.74355249161E-02  0.16466335827E-02  0.10798610547E-01  0.51100000000E-03 0.  1.
         11    1    4    4    0    0  0.85154823366E-01 -0.35484668704E-01  0.67391737415E-01  0.11424715772E+00  0.51100000000E-03 0. -1.
</event>
<event>
 8    1  0.5489035E+004  0.1043930E+01  0.7957747E-01            NaN
         13   -1    0    0    0    0  0.00000000000E+00  0.00000000000E+00  0.74505805969E-08  0.10566000000E+00  0.10566000000E+00 0.  1.
     999900   -1    0    0    0    0 -0.00000000000E+00 -0.00000000000E+00 -0.74505805969E-08  0.93827000000E+00  0.93827000000E+00 0. -1.
     999902    2    1    2    0    0 -0.12210875136E-01  0.24813661874E-01  0.21338608581E-01  0.10089992184E+01  0.10083943986E+01 0.  0.
     999903    2    3    3    0    0 -0.13974709645E-01  0.41344338447E-01  0.11425151848E+00  0.12395165854E+00  0.20148383260E-01 0.  0.
         14    1    1    2    0    0  0.12210875136E-01 -0.24813661874E-01 -0.21338608581E-01  0.34930781603E-01  0.00000000000E+00 0. -1.
     999901    1    3    3    0    0  0.17638345088E-02 -0.16530676573E-01 -0.92912909903E-01  0.88504755986E+00  0.88000000000E+00 0. -1.
        -11    1    4    4    0    0 -0.24767867124E-02  0.30242011029E-01  0.89297181088E-01  0.94313102880E-01  0.51100000000E-03 0.  1.
         11    1    4    4    0    0 -0.11497922932E-01  0.11102327417E-01  0.24954337396E-01  0.29638555662E-01  0.51100000000E-03 0. -1.
</event>
<event>
 8    1  0.5489035E+004  0.1043930E+01  0.7957747E-01            NaN
         13   -1    0    0    0    0  0.00000000000E+00  0.00000000000E+00  0.74505805969E-08  0.10566000000E+00  0.10566000000E+00 0. -1.
     999900   -1    0    0    0    0 -0.00000000000E+00 -0.00000000000E+00 -0.74505805969E-08  0.93827000000E+00  0.93827000000E+00 0.  1.
     999902    2    1    2    0    0  0.23249189307E-01 -0.21107845196E-02  0.25064119012E-02  0.10204510240E+01  0.10201808810E+01 0.  0.
     999903    2    3    3    0    0  0.11453972599E-01  0.11764050714E+00  0.52512365291E-01  0.13085555728E+00  0.19878278423E-01 0.  0.
         14    1    1    2    0    0 -0.23249189307E-01  0.21107845196E-02 -0.25064119012E-02  0.23478976029E-01  0.00000000000E+00 0.  1.
     999901    1    3    3    0    0  0.11795216708E-01 -0.11975129166E+00 -0.50005953389E-01  0.88959546670E+00  0.88000000000E+00 0.  1.
        -11    1    4    4    0    0  0.22969101358E-02  0.46923953278E-01  0.31316048877E-01  0.56463166983E-01  0.51100000000E-03 0. -1.
         11    1    4    4    0    0  0.91570624633E-02  0.70716553861E-01  0.21196316414E-01  0.74392390293E-01  0.51100000000E-03 0.  1.
</event>
<event>
 7    1  0.5489035E+004  0.1043930E+01  0.7957747E-01            NaN
         13   -1    0    0    0    0  0.00000000000E+00  0.00000000000E+00  0.74505805969E-08  0.10566000000E+00  0.10566000000E+00 0.  1.
     999900   -1    0    0    0    0 -0.00000000000E+00 -0.00000000000E+00 -0.74505805969E-08  0.93827000000E+00  0.93827000000E+00 0.  1.
     999903    2    1    2    0    0 -0.10068268948E+00  0.48069379725E-01  0.84101782166E-02  0.11364773570E+00  0.19935082223E-01 0.  0.
         14    1    1    2    0    0  0.18817190221E-02 -0.23620776653E-01 -0.37019831046E-01  0.43953951437E-01  0.00000000000E+00 0. -1.
     999901    1    1    2    0    0  0.98800970457E-01 -0.24448603071E-01  0.28609652830E-01  0.88632831287E+00  0.88000000000E+00 0. -1.
        -11    1    3    3    0    0 -0.26675304063E-01  0.12239159534E-01 -0.65403701175E-02  0.30073350915E-01  0.51100000000E-03 0. -1.
         11    1    3    3    0    0 -0.74007385416E-01  0.35830220190E-01  0.14950548334E-01  0.83574384781E-01  0.51100000000E-03 0.  1.
</event>
<event>
 8    1  0.5489035E+004  0.1043930E+01  0.7957747E-01            NaN
         13   -1    0    0    0    0  0.00000000000E+00  0.00000000000E+00  0.74505805969E-08  0.10566000000E+00  0.10566000000E+00 0. -1.
     999900   -1    0    0    0    0 -0.00000000000E+00 -0.00000000000E+00 -0.74505805969E-08  0.93827000000E+00  0.93827000000E+00 0. -1.
     999902    2    1    2    0    0 -0.99931088683E-02 -0.21201332458E-01  0.76327725978E-02  0.10192800925E+01  0.10189819866E+01 0.  0.
     999903    2    3    3    0    0  0.26090941865E-02  0.26434475946E-01  0.12579362118E+00  0.13001636788E+00  0.19355410026E-01 0.  0.
         14    1    1    2    0    0  0.99931088683E-02  0.21201332458E-01 -0.76327725978E-02  0.24649907513E-01  0.00000000000E+00 0.  1.
     999901    1    3    3    0    0 -0.12602203055E-01 -0.47635808404E-01 -0.11816084858E+00  0.88926372461E+00  0.88000000000E+00 0. -1.
        -11    1    4    4    0    0  0.44685221675E-02 -0.14495977255E-02  0.23654642416E-01  0.24122028372E-01  0.51100000000E-03 0. -1.
         11    1    4    4    0    0 -0.18594279809E-02  0.27884073672E-01  0.10213897876E+00  0.10589433951E+00  0.51100000000E-03 0.  1.
</event>
<event>
 8    1  0.5489035E+004  0.1043930E+01  0.7957747E-01            NaN
         13   -1    0    0    0    0  0.00000000000E+00  0.00000000000E+00  0.74505805969E-08  0.10566000000E+00  0.10566000000E+00 0.  1.
     999900   -1    0    0    0    0 -0.00000000000E+00 -0.00000000000E+00 -0.74505805969E-08  0.93827000000E+00  0.93827000000E+00 0.  1.
     999902    2    1    2    0    0 -0.71009761231E-02  0.13712272015E-01  0.17520794702E-01  0.10205755890E+01  0.10203083379E+01 0.  0.
     999903    2    3    3    0    0  0.11523347639E+00  0.98892796067E-02  0.58627460083E-01  0.13115437750E+00  0.19691107906E-01 0.  0.
         14    1    1    2    0    0  0.71009761231E-02 -0.13712272015E-01 -0.17520794702E-01  0.23354410990E-01  0.00000000000E+00 0. -1.
     999901    1    3    3    0    0 -0.12233445251E+00  0.38229924087E-02 -0.41106665381E-01  0.88942121151E+00  0.88000000000E+00 0.  1.
        -11    1    4    4    0    0  0.39581178944E-01  0.11779210501E-01  0.25545815754E-01  0.48562015508E-01  0.51100000000E-03 0. -1.
         11    1    4    4    0    0  0.75652297443E-01 -0.18899308942E-02  0.33081644329E-01  0.82592361994E-01  0.51100000000E-03 0.  1.
</event>
<event>
 8    1  0.5489035E+004  0.1043930E+01  0.7957747E-01            NaN
         13   -1    0    0    0    0  0.00000000000E+00  0.00000000000E+00  0.74505805969E-08  0.10566000000E+00  0.10566000000E+00 0. -1.
     999900   -1    0    0    0    0 -0.00000000000E+00 -0.00000000000E+00 -0.74505805969E-08  0.93827000000E+00  0.93827000000E+00 0. -1.
     999902    2    1    2    0    0 -0.70048226726E-03 -0.24353996085E-01  0.26269365302E-02  0.10194247231E+01  0.10191301475E+01 0.  0.
     999903    2    3    3    0    0 -0.45346016707E-01  0.81880519497E-01 -0.84690044564E-01  0.12762695945E+00  0.18856203930E-01 0.  0.
         14    1    1    2    0    0  0.70048226726E-03  0.24353996085E-01 -0.26269365302E-02  0.24505276906E-01  0.00000000000E+00 0.  1.
     999901    1    3    3    0    0  0.44645534440E-01 -0.10623451558E+00  0.87316981094E-01  0.89179776364E+00  0.88000000000E+00 0.  1.
        -11    1    4    4    0    0 -0.10213632521E-01  0.28065572560E-01 -0.17369753020E-01  0.34553785514E-01  0.51100000000E-03 0.  1.
         11    1    4    4    0    0 -0.35132384186E-01  0.53814946937E-01 -0.67320291544E-01  0.93073173939E-01  0.51100000000E-03 0. -1.
</event>
<event>
 8    1  0.5489035E+004  0.1043930E+01  0.7957747E-01            NaN
         13   -1    0    0    0    0  0.00000000000E+00  0.00000000000E+00  0.74505805969E-08  0.10566000000E+00  0.10566000000E+00 0. -1.
     999900   -1    0    0    0    0 -0.00000000000E+00 -0.00000000000E+00 -0.74505805969E-08  0.93827000000E+00  0.93827000000E+00 0.  1.
     999902    2    1    2    0    0  0.15184593826E-01 -0.95321018535E-02 -0.15590760230E-01  0.10201706932E+01  0.10198939840E+01 0.  0.
     999903    2    3    3    0    0  0.12878306220E+00  0.72174061353E-02  0.19955478847E-01  0.13199914831E+00  0.19707510161E-01 0.  0.
         14    1    1    2    0    0 -0.15184593826E-01  0.95321018535E-02  0.15590760230E-01  0.23759306807E-01  0.00000000000E+00 0. -1.
     999901    1    3    3    0    0 -0.11359846837E+00 -0.16749507989E-01 -0.35546239077E-01  0.88817154489E+00  0.88000000000E+00 0. -1.
        -11    1    4    4    0    0  0.37629377485E-01 -0.57581004803E-02  0.10175539493E-01  0.39407213756E-01  0.51100000000E-03 0. -1.
         11    1    4    4    0    0  0.91153684714E-01  0.12975506616E-01  0.97799393542E-02  0.92591934550E-01  0.51100000000E-03 0.  1.
</event>
<event>
 8    1  0.5489035E+004  0.1043930E+01  0.7957747E-01            NaN
         13   -1    0    0    0    0  0.00000000000E+00  0.00000000000E+00  0.74505805969E-08  0.10566000000E+00  0.10566000000E+00 0. -1.
     999900   -1    0    0    0    0 -0.00000000000E+00 -0.00000000000E+00 -0.74505805969E-08  0.93827000000E+00  0.93827000000E+00 0.  1.
     999902    2    1    2    0    0 -0.75309503167E-02  0.10313233396E-01  0.20171445189E-01  0.10200560561E+01  0.10197766385E+01 0.  0.
     999903    2    3    3    0    0  0.23311598582E-01 -0.87299745081E-01 -0.87932307715E-01  0.12755060639E+00  0.19297417731E-01 0.  0.
         14    1    1    2    0    0  0.75309503167E-02 -0.10313233396E-01 -0.20171445189E-01  0.23873943888E-01  0.00000000000E+00 0.  1.
     999901    1    3    3    0    0 -0.30842548898E-01  0.97612978477E-01  0.10810375290E+00  0.89250544972E+00  0.88000000000E+00 0. -1.
        -11    1    4    4    0    0  0.65403502577E-02 -0.45808284931E-01 -0.33758950438E-01  0.57280913099E-01  0.51100000000E-03 0.  1.
         11    1    4    4    0    0  0.16771248324E-01 -0.41491460150E-01 -0.54173357277E-01  0.70269693292E-01  0.51100000000E-03 0. -1.
</event>
<event>
 8    1  0.5489035E+004  0.1043930E+01  0.7957747E-01            NaN
         13   -1    0    0    0    0  0.00000000000E+00  0.00000000000E+00  0.74505805969E-08  0.10566000000E+00  0.10566000000E+00 0.  1.
     999900   -1    0    0    0    0 -0.00000000000E+00 -0.00000000000E+00 -0.74505805969E-08  0.93827000000E+00  0.93827000000E+00 0. -1.
     999902    2    1    2    0    0  0.84538983084E-02 -0.28061599783E-02 -0.21194770134E-01  0.10209395409E+01  0.10206806478E+01 0.  0.
     999903    2    3    3    0    0  0.54959865801E-01 -0.10602089965E+00  0.49700853228E-01  0.13085961360E+00  0.19825378887E-01 0.  0.
         14    1    1    2    0    0 -0.84538983084E-02  0.28061599783E-02  0.21194770134E-01  0.22990459140E-01  0.00000000000E+00 0.  1.
     999901    1    3    3    0    0 -0.46505967493E-01  0.10321473967E+00 -0.70895623363E-01  0.89007992726E+00  0.88000000000E+00 0. -1.
        -11    1    4    4    0    0  0.30424878068E-01 -0.78037680770E-01  0.36511279910E-01  0.91372246919E-01  0.51100000000E-03 0. -1.
         11    1    4    4    0    0  0.24534987733E-01 -0.27983218883E-01  0.13189573319E-01  0.39487366681E-01  0.51100000000E-03 0.  1.
</event>
<event>
 8    1  0.5489035E+004  0.1043930E+01  0.7957747E-01            NaN
         13   -1    0    0    0    0  0.00000000000E+00  0.00000000000E+00  0.74505805969E-08  0.10566000000E+00  0.10566000000E+00 0.  1.
     999900   -1    0    0    0    0 -0.00000000000E+00 -0.00000000000E+00 -0.74505805969E-08  0.93827000000E+00  0.93827000000E+00 0. -1.
     999902    2    1    2    0    0  0.21234514691E-01 -0.74500262177E-03 -0.10029256918E-01  0.10204343485E+01  0.10201638173E+01 0.  0.
     999903    2    3    3    0    0  0.10009183066E+00  0.19916560085E-02 -0.85784089013E-01  0.13366224695E+00  0.22007841179E-01 0.  0.
         14    1    1    2    0    0 -0.21234514691E-01  0.74500262177E-03  0.10029256918E-01  0.23495651457E-01  0.00000000000E+00 0.  1.
     999901    1    3    3    0    0 -0.78857315966E-01 -0.27366586303E-02  0.75754832095E-01  0.88677210160E+00  0.88000000000E+00 0.  1.
        -11    1    4    4    0    0  0.34370162354E-01 -0.64524944276E-02 -0.19997077653E-01  0.40287553664E-01  0.51100000000E-03 0.  1.
         11    1    4    4    0    0  0.65721668303E-01  0.84441504361E-02 -0.65787011360E-01  0.93374693283E-01  0.51100000000E-03 0. -1.
</event>
<event>
 8    1  0.5489035E+004  0.1043930E+01  0.7957747E-01            NaN
         13   -1    0    0    0    0  0.00000000000E+00  0.00000000000E+00  0.74505805969E-08  0.10566000000E+00  0.10566000000E+00 0.  1.
     999900   -1    0    0    0    0 -0.00000000000E+00 -0.00000000000E+00 -0.74505805969E-08  0.93827000000E+00  0.93827000000E+00 0. -1.
     999902    2    1    2    0    0  0.16990087337E-01  0.14984146234E-01  0.95017574518E-02  0.10193643512E+01  0.10190683046E+01 0.  0.
     999903    2    3    3    0    0  0.10403613987E+00  0.60081800043E-01 -0.50482069778E-01  0.13189104278E+00  0.20333880610E-01 0.  0.
         14    1    1    2    0    0 -0.16990087337E-01 -0.14984146234E-01 -0.95017574518E-02  0.24565648795E-01  0.00000000000E+00 0.  1.
     999901    1    3    3    0    0 -0.87046052533E-01 -0.45097653809E-01  0.59983827230E-01  0.88747330843E+00  0.88000000000E+00 0.  1.
        -11    1    4    4    0    0  0.49309864680E-01  0.34312387438E-01 -0.15622414461E-01  0.62073534143E-01  0.51100000000E-03 0. -1.
         11    1    4    4    0    0  0.54726275190E-01  0.25769412604E-01 -0.34859655317E-01  0.69817508635E-01  0.51100000000E-03 0.  1.
</event>
<event>
 8    1  0.5489035E+004  0.1043930E+01  0.7957747E-01            NaN
         13   -1    0    0    0    0  0.00000000000E+00  0.00000000000E+00  0.74505805969E-08  0.10566000000E+00  0.10566000000E+00 0. -1.
     999900   -1    0    0    0    0 -0.00000000000E+00 -0.00000000000E+00 -0.74505805969E-08  0.93827000000E+00  0.93827000000E+00 0.  1.
     999902    2    1    2    0    0 -0.11124826893E-01  0.20370066424E-01  0.91437074896E-03  0.10207020545E+01  0.10204377230E+01 0.  0.
     999903    2    3    3    0    0 -0.40365703551E-01  0.12385548700E+00  0.23744437250E-01  0.13386189239E+00  0.19637623375E-01 0.  0.
         14    1    1    2    0    0  0.11124826893E-01 -0.20370066424E-01 -0.91437074896E-03  0.23227945527E-01  0.00000000000E+00 0.  1.
     999901    1    3    3    0    0  0.29240876658E-01 -0.10348542058E+00 -0.22830066501E-01  0.88684016208E+00  0.88000000000E+00 0.  1.
        -11    1    4    4    0    0 -0.25444429601E-01  0.96260370144E-01  0.24267526283E-01  0.10248244635E+00  0.51100000000E-03 0.  1.
         11    1    4    4    0    0 -0.14921273950E-01  0.27595116856E-01 -0.52308903274E-03  0.31379446040E-01  0.51100000000E-03 0. -1.
</event>
<event>
 8    1  0.5489035E+004  0.1043930E+01  0.7957747E-01            NaN
         13   -1    0    0    0    0  0.00000000000E+00  0.00000000000E+00  0.74505805969E-08  0.10566000000E+00  0.10566000000E+00 0. -1.
     999900   -1    0    0    0    0 -0.00000000000E+00 -0.00000000000E+00 -0.74505805969E-08  0.93827000000E+00  0.93827000000E+00 0. -1.
     999902    2    1    2    0    0 -0.10504014420E-01 -0.19373232131E-01 -0.97125574538E-02  0.10198470140E+01  0.10195626228E+01 0.  0.
     999903    2    3    3    0    0 -0.41855423819E-01  0.11529072959E+00  0.29497640236E-01  0.12818859675E+00  0.22767888036E-01 0.  0.
         14    1    1    2    0    0  0.10504014420E-01  0.19373232131E-01  0.97125574538E-02  0.24082985995E-01  0.00000000000E+00 0.  1.
     999901    1    3    3    0    0  0.31351409399E-01 -0.13466396172E+00 -0.39210197689E-01  0.89165841725E+00  0.88000000000E+00 0. -1.
        -11    1    4    4    0    0 -0.32320637013E-01  0.55904827530E-01  0.16490967034E-01  0.66649729428E-01  0.51100000000E-03 0.  1.
         11    1    4    4    0    0 -0.95347868056E-02  0.59385902058E-01  0.13006673201E-01  0.61538867323E-01  0.51100000000E-03 0. -1.
</event>
<event>
 8    1  0.5489035E+004  0.1043930E+01  0.7957747E-01            NaN
         13   -1    0    0    0    0  0.00000000000E+00  0.00000000000E+00  0.74505805969E-08  0.10566000000E+00  0.10566000000E+00 0. -1.
     999900   -1    0    0    0    0 -0.00000000000E+00 -0.00000000000E+00 -0.74505805969E-08  0.93827000000E+00  0.93827000000E+00 0.  1.
     999902    2    1    2    0    0  0.16701869290E-01  0.15947963328E-01 -0.63352317185E-02  0.10199837031E+01  0.10197025692E+01 0.  0.
     999903    2    3    3    0    0  0.12853403263E+00 -0.28694904556E-02  0.23910062372E-01  0.13219132475E+00  0.19329349123E-01 0.  0.
         14    1    1    2    0    0 -0.16701869290E-01 -0.15947963328E-01  0.63352317185E-02  0.23946296854E-01  0.00000000000E+00 0.  1.
     999901    1    3    3    0    0 -0.11183216334E+00  0.18817453783E-01 -0.30245294091E-01  0.88779237840E+00  0.88000000000E+00 0.  1.
        -11    1    4    4    0    0  0.21472980534E-01 -0.62849735479E-02  0.86493736970E-02  0.23992969217E-01  0.51100000000E-03 0.  1.
         11    1    4    4    0    0  0.10706105209E+00  0.34154830922E-02  0.15260688675E-01  0.10819835553E+00  0.51100000000E-03 0. -1.
</event>
<event>
 8    1  0.5489035E+004  0.1043930E+01  0.7957747E-01            NaN
         13   -1    0    0    0    0  0.00000000000E+00  0.00000000000E+00  0.74505805969E-08  0.10566000000E+00  0.10566000000E+00 0.  1.
     999900   -1    0    0    0    0 -0.00000000000E+00 -0.00000000000E+00 -0.74505805969E-08  0.93827000000E+00  0.93827000000E+00 0.  1.
     999902    2    1    2    0    0  0.16316621652E-01  0.10305022344E-01 -0.11586224076E-01  0.10214207527E+01  0.10211727022E+01 0.  0.
     999903    2    3    3    0    0  0.11335392109E-01 -0.76481304860E-01 -0.10578367186E+00  0.13213461288E+00  0.17073065914E-01 0.  0.
         14    1    1    2    0    0 -0.16316621652E-01 -0.10305022344E-01  0.11586224076E-01  0.22509247344E-01  0.00000000000E+00 0. -1.
     999901    1    3    3    0    0  0.49812295423E-02  0.86786327204E-01  0.94197447786E-01  0.88928613978E+00  0.88000000000E+00 0. -1.
        -11    1    4    4    0    0  0.34025241716E-02 -0.14753714451E-01 -0.10911703351E-01  0.18670180820E-01  0.51100000000E-03 0.  1.
         11    1    4    4    0    0  0.79328679378E-02 -0.61727590410E-01 -0.94871968511E-01  0.11346443206E+00  0.51100000000E-03 0. -1.
</event>
<event>
 8    1  0.5489035E+004  0.1043930E+01  0.7957747E-01            NaN
         13   -1    0    0    0    0  0.00000000000E+00  0.00000000000E+00  0.74505805969E-08  0.10566000000E+00  0.10566000000E+00 0.  1.
     999900   -1    0    0    0    0 -0.00000000000E+00 -0.00000000000E+00 -0.74505805969E-08  0.93827000000E+00  0.93827000000E+00 0.  1.
     999902    2    1    2    0    0 -0.11494613904E-01  0.11687875771E-01 -0.17015958332E-01  0.10203021472E+01  0.10200285272E+01 0.  0.
     999903    2    3    3    0    0  0.14163713001E-01  0.12482305461E+00  0.33054314886E-01  0.13127742839E+00  0.18967597205E-01 0.  0.
         14    1    1    2    0    0  0.11494613904E-01 -0.11687875771E-01  0.17015958332E-01  0.23627852776E-01  0.00000000000E+00 0.  1.
     999901    1    3    3    0    0 -0.25658326904E-01 -0.11313517884E+00 -0.50070273218E-01  0.88902471883E+00  0.88000000000E+00 0. -1.
        -11    1    4    4    0    0 -0.20869599169E-02  0.39923648028E-01  0.16561896180E-01  0.43275981787E-01  0.51100000000E-03 0. -1.
         11    1    4    4    0    0  0.16250672918E-01  0.84899406587E-01  0.16492418706E-01  0.88001446607E-01  0.51100000000E-03 0.  1.
</event>
<event>
 8    1  0.5489035E+004  0.1043930E+01  0.7957747E-01            NaN
         13   -1    0    0    0    0  0.00000000000E+00  0.00000000000E+00  0.74505805969E-08  0.10566000000E+00  0.10566000000E+00 0. -1.
     999900   -1    0    0    0    0 -0.00000000000E+00 -0.00000000000E+00 -0.74505805969E-08  0.93827000000E+00  0.93827000000E+00 0. -1.
     999902    2    1    2    0    0  0.92173040117E-02 -0.30306603978E-01 -0.48761966174E-02  0.10118796298E+01  0.10113719192E+01 0.  0.
     999903    2    3    3    0    0  0.14630178338E-01  0.72369000593E-02 -0.12074715755E+00  0.12347381401E+00  0.19987292199E-01 0.  0.
         14    1    1    2    0    0 -0.92173040117E-02  0.30306603978E-01  0.48761966174E-02  0.32050370222E-01  0.00000000000E+00 0.  1.
     999901    1    3    3    0    0 -0.54128743259E-02 -0.37543504037E-01  0.11587096093E+00  0.88840581577E+00  0.88000000000E+00 0.  1.
        -11    1    4    4    0    0  0.63815967802E-02  0.11158527146E-01 -0.35908246678E-01  0.38143161983E-01  0.51100000000E-03 0.  1.
         11    1    4    4    0    0  0.82485815574E-02 -0.39216270869E-02 -0.84838910870E-01  0.85330652027E-01  0.51100000000E-03 0. -1.
</event>
<event>
 8    1  0.5489035E+004  0.1043930E+01  0.7957747E-01            NaN
         13   -1    0    0    0    0  0.00000000000E+00  0.00000000000E+00  0.74505805969E-08  0.10566000000E+00  0.10566000000E+00 0.  1.
     999900   -1    0    0    0    0 -0.00000000000E+00 -0.00000000000E+00 -0.74505805969E-08  0.93827000000E+00  0.93827000000E+00 0.  1.
     999902    2    1    2    0    0  0.22479719494E-02  0.23790977220E-01  0.20037114167E-02  0.10199491986E+01  0.10196672442E+01 0.  0.
     999903    2    3    3    0    0 -0.11476234584E+00 -0.54363382742E-01 -0.67822896721E-02  0.12872716554E+00  0.19972738608E-01 0.  0.
         14    1    1    2    0    0 -0.22479719494E-02 -0.23790977220E-01 -0.20037114167E-02  0.23980801371E-01  0.00000000000E+00 0.  1.
     999901    1    3    3    0    0  0.11701031779E+00  0.78154359962E-01  0.87860010889E-02  0.89122203309E+00  0.88000000000E+00 0.  1.
        -11    1    4    4    0    0 -0.41585977846E-01 -0.16196302862E-01  0.65965333730E-02  0.45116395616E-01  0.51100000000E-03 0.  1.
         11    1    4    4    0    0 -0.73176367998E-01 -0.38167079879E-01 -0.13378823045E-01  0.83610769922E-01  0.51100000000E-03 0. -1.
</event>
<event>
 8    1  0.5489035E+004  0.1043930E+01  0.7957747E-01            NaN
         13   -1    0    0    0    0  0.00000000000E+00  0.00000000000E+00  0.74505805969E-08  0.10566000000E+00  0.10566000000E+00 0. -1.
     999900   -1    0    0    0    0 -0.00000000000E+00 -0.00000000000E+00 -0.74505805969E-08  0.93827000000E+00  0.93827000000E+00 0.  1.
     999902    2    1    2    0    0 -0.14445478443E-01 -0.10575558612E-01 -0.15557675498E-01  0.10202117464E+01  0.10199360038E+01 0.  0.
     999903    2    3    3    0    0  0.28085258896E-01  0.11757587866E+00  0.38197486276E-01  0.12829175451E+00  0.19668688529E-01 0.  0.
         14    1    1    2    0    0  0.14445478443E-01  0.10575558612E-01  0.15557675498E-01  0.23718253610E-01  0.00000000000E+00 0. -1.
     999901    1    3    3    0    0 -0.42530737339E-01 -0.12815143727E+00 -0.53755161774E-01  0.89191999188E+00  0.88000000000E+00 0. -1.
        -11    1    4    4    0    0  0.15617847065E-01  0.93577164129E-01  0.34691796107E-01  0.10101675421E+00  0.51100000000E-03 0. -1.
         11    1    4    4    0    0  0.12467411831E-01  0.23998714530E-01  0.35056901692E-02  0.27275000301E-01  0.51100000000E-03 0.  1.
</event>
<event>
 8    1  0.5489035E+004  0.1043930E+01  0.7957747E-01            NaN
         13   -1    0    0    0    0  0.00000000000E+00  0.00000000000E+00  0.74505805969E-08  0.10566000000E+00  0.10566000000E+00 0. -1.
     999900   -1    0    0    0    0 -0.00000000000E+00 -0.00000000000E+00 -0.74505805969E-08  0.93827000000E+00  0.93827000000E+00 0.  1.
     999902    2    1    2    0    0  0.13082633887E-01  0.13991682713E-01 -0.14411644336E-01  0.10199588092E+01  0.10196770835E+01 0.  0.
     999903    2    3    3    0    0  0.28603847968E-01 -0.11499260602E+00 -0.48613171113E-01  0.12976355016E+00  0.20829281960E-01 0.  0.
         14    1    1    2    0    0 -0.13082633887E-01 -0.13991682713E-01  0.14411644336E-01  0.23971190772E-01  0.00000000000E+00 0. -1.
     999901    1    3    3    0    0 -0.15521214080E-01  0.12898428874E+00  0.34201526777E-01  0.89019525906E+00  0.88000000000E+00 0. -1.
        -11    1    4    4    0    0  0.25396404308E-01 -0.81834871299E-01 -0.26173423887E-01  0.89594825471E-01  0.51100000000E-03 0. -1.
         11    1    4    4    0    0  0.32074436595E-02 -0.33157734724E-01 -0.22439747226E-01  0.40168724692E-01  0.51100000000E-03 0.  1.
</event>
<event>
 8    1  0.5489035E+004  0.1043930E+01  0.7957747E-01            NaN
         13   -1    0    0    0    0  0.00000000000E+00  0.00000000000E+00  0.74505805969E-08  0.10566000000E+00  0.10566000000E+00 0. -1.
     999900   -1    0    0    0    0 -0.00000000000E+00 -0.00000000000E+00 -0.74505805969E-08  0.93827000000E+00  0.93827000000E+00 0. -1.
     999902    2    1    2    0    0  0.18894159123E-01 -0.15362644914E-01 -0.12765210986E-01  0.10164354420E+01  0.10160635103E+01 0.  0.
     999903    2    3    3    0    0 -0.94214728843E-01  0.41451432454E-01  0.65800034514E-01  0.12391431748E+00  0.20747943309E-01 0.  0.
         14    1    1    2    0    0 -0.18894159123E-01  0.15362644914E-01  0.12765210986E-01  0.27494557993E-01  0.00000000000E+00 0. -1.
     999901    1    3    3    0    0  0.11310888797E+00 -0.56814077368E-01 -0.78565245499E-01  0.89252112453E+00  0.88000000000E+00 0. -1.
        -11    1    4    4    0    0 -0.76216880391E-01  0.37529601999E-01  0.45048133619E-01  0.96161735354E-01  0.51100000000E-03 0. -1.
         11    1    4    4    0    0 -0.17997848452E-01  0.39218304549E-02  0.20751900895E-01  0.27752582128E-01  0.51100000000E-03 0.  1.
</event>
<event>
 8    1  0.5489035E+004  0.1043930E+01  0.7957747E-01            NaN
         13   -1    0    0    0    0  0.00000000000E+00  0.00000000000E+00  0.74505805969E-08  0.10566000000E+00  0.10566000000E+00 0.  1.
     999900   -1    0    0    0    0 -0.00000000000E+00 -0.00000000000E+00 -0.74505805969E-08  0.93827000000E+00  0.93827000000E+00 0. -1.
     999902    2    1    2    0    0  0.17290337056E-01  0.12504278182E-01  0.13282932555E-01  0.10187953819E+01  0.10184852877E+01 0.  0.
     999903    2    3    3    0    0  0.17678933448E-01 -0.12502926495E+00 -0.41127440763E-02  0.12794284864E+00  0.20189008733E-01 0.  0.
         14    1    1    2    0    0 -0.17290337056E-01 -0.12504278182E-01 -0.13282932555E-01  0.25134618072E-01  0.00000000000E+00 0. -1.
     999901    1    3    3    0    0 -0.38859639201E-03  0.13753354313E+00  0.17395676631E-01  0.89085253328E+00  0.88000000000E+00 0.  1.
        -11    1    4    4    0    0  0.31923676010E-02 -0.61638485721E-01  0.64659732629E-02  0.62060970538E-01  0.51100000000E-03 0.  1.
         11    1    4    4    0    0  0.14486565847E-01 -0.63390779228E-01 -0.10578717339E-01  0.65881878106E-01  0.51100000000E-03 0. -1.
</event>
<event>
 8    1  0.5489035E+004  0.1043930E+01  0.7957747E-01            NaN
         13   -1    0    0    0    0  0.00000000000E+00  0.00000000000E+00  0.74505805969E-08  0.10566000000E+00  0.10566000000E+00 0.  1.
     999900   -1    0    0    0    0 -0.00000000000E+00 -0.00000000000E+00 -0.74505805969E-08  0.93827000000E+00  0.93827000000E+00 0. -1.
     999902    2    1    2    0    0 -0.20447963895E-01 -0.65358477868E-02 -0.10309015718E-01  0.10201158794E+01  0.10198378769E+01 0.  0.
     999903    2    3    3    0    0 -0.24247126941E-01 -0.12751829305E+00 -0.12442836327E-01  0.13182778489E+00  0.19362398218E-01 0.  0.
         14    1    1    2    0    0  0.20447963895E-01  0.65358477868E-02  0.10309015718E-01  0.23814120577E-01  0.00000000000E+00 0.  1.
     999901    1    3    3    0    0  0.37991630457E-02  0.12098244527E+00  0.21338206092E-02  0.88828809454E+00  0.88000000000E+00 0.  1.
        -11    1    4    4    0    0 -0.82698165940E-02 -0.16259645405E-01  0.25676122142E-02  0.18428773391E-01  0.51100000000E-03 0. -1.
         11    1    4    4    0    0 -0.15977310347E-01 -0.11125864765E+00 -0.15010448542E-01  0.11339901150E+00  0.51100000000E-03 0.  1.
</event>
<event>
 8    1  0.5489035E+004  0.1043930E+01  0.7957747E-01            NaN
         13   -1    0    0    0    0  0.00000000000E+00  0.00000000000E+00  0.74505805969E-08  0.10566000000E+00  0.10566000000E+00 0. -1.
     999900   -1    0    0    0    0 -0.00000000000E+00 -0.00000000000E+00 -0.74505805969E-08  0.93827000000E+00  0.93827000000E+00 0. -1.
     999902    2    1    2    0    0 -0.16840279223E-01 -0.85920173267E-03  0.16843703898E-01  0.10200963349E+01  0.10198178704E+01 0.  0.
     999903    2    3    3    0    0  0.10323700308E-01  0.12010152894E+00 -0.42658126410E-01  0.12941690436E+00  0.19951524831E-01 0.  0.
         14    1    1    2    0    0  0.16840279223E-01  0.85920173267E-03 -0.16843703898E-01  0.23833665117E-01  0.00000000000E+00 0.  1.
     999901    1    3    3    0    0 -0.27163979530E-01 -0.12096073067E+00  0.59501830308E-01  0.89067943052E+00  0.88000000000E+00 0. -1.
        -11    1    4    4    0    0  0.70253278586E-02  0.20026845732E-01 -0.13379054892E-01  0.25093624933E-01  0.51100000000E-03 0. -1.
         11    1    4    4    0    0  0.32983724492E-02  0.10007468321E+00 -0.29279071518E-01  0.10432327943E+00  0.51100000000E-03 0.  1.
</event>
<event>
 8    1  0.5489035E+004  0.1043930E+01  0.7957747E-01            NaN
         13   -1    0    0    0    0  0.00000000000E+00  0.00000000000E+00  0.74505805969E-08  0.10566000000E+00  0.10566000000E+00 0. -1.
     999900   -1    0    0    0    0 -0.00000000000E+00 -0.00000000000E+00 -0.74505805969E-08  0.93827000000E+00  0.93827000000E+00 0.  1.
     999902    2    1    2    0    0  0.81712066543E-02 -0.10886645970E-01 -0.17467361478E-01  0.10217851045E+01  0.10215451059E+01 0.  0.
     999903    2    3    3    0    0 -0.10049410577E+00  0.36846539339E-01 -0.75139115482E-01  0.13194655832E+00  0.17529256154E-01 0.  0.
         14    1    1    2    0    0 -0.81712066543E-02  0.10886645970E-01  0.17467361478E-01  0.22144895477E-01  0.00000000000E+00 0. -1.
     999901    1    3    3    0    0  0.10866531242E+00 -0.47733185309E-01  0.57671754004E-01  0.88983854621E+00  0.88000000000E+00 0. -1.
        -11    1    4    4    0    0 -0.24310472492E-01  0.76613863732E-02 -0.27379092238E-01  0.37410850388E-01  0.51100000000E-03 0.  1.
         11    1    4    4    0    0 -0.76183633275E-01  0.29185152966E-01 -0.47760023244E-01  0.94535707930E-01  0.51100000000E-03 0. -1.
</event>
<event>
 8    1  0.5489035E+004  0.1043930E+01  0.7957747E-01            NaN
         13   -1    0    0    0    0  0.00000000000E+00  0.00000000000E+00  0.74505805969E-08  0.10566000000E+00  0.10566000000E+00 0.  1.
     999900   -1    0    0    0    0 -0.00000000000E+00 -0.00000000000E+00 -0.74505805969E-08  0.93827000000E+00  0.93827000000E+00 0. -1.
     999902    2    1    2    0    0 -0.57318160938E-02  0.22963136493E-01  0.61235875126E-02  0.10194829618E+01  0.10191898016E+01 0.  0.
     999903    2    3    3    0    0 -0.19076671497E-01  0.12961091288E+00  0.10869587796E-01  0.13293101300E+00  0.19738240733E-01 0.  0.
         14    1    1    2    0    0  0.57318160938E-02 -0.22963136493E-01 -0.61235875126E-02  0.24447038212E-01  0.00000000000E+00 0. -1.
     999901    1    3    3    0    0  0.13344855404E-01 -0.10664777638E+00 -0.47460002836E-02  0.88655194878E+00  0.88000000000E+00 0. -1.
        -11    1    4    4    0    0  0.27411158077E-02  0.40831948489E-01  0.57348563409E-03  0.40931060823E-01  0.51100000000E-03 0. -1.
         11    1    4    4    0    0 -0.21817787305E-01  0.88778964388E-01  0.10296102162E-01  0.91999952182E-01  0.51100000000E-03 0.  1.
</event>
<event>
 8    1  0.5489035E+004  0.1043930E+01  0.7957747E-01            NaN
         13   -1    0    0    0    0  0.00000000000E+00  0.00000000000E+00  0.74505805969E-08  0.10566000000E+00  0.10566000000E+00 0. -1.
     999900   -1    0    0    0    0 -0.00000000000E+00 -0.00000000000E+00 -0.74505805969E-08  0.93827000000E+00  0.93827000000E+00 0.  1.
     999902    2    1    2    0    0  0.16546180345E-03  0.20139878463E-01  0.19107833483E-01  0.10161675905E+01  0.10157882755E+01 0.  0.
     999903    2    3    3    0    0 -0.61690303764E-01 -0.57748540269E-01  0.93490706607E-01  0.12744628809E+00  0.19012013144E-01 0.  0.
         14    1    1    2    0    0 -0.16546180345E-03 -0.20139878463E-01 -0.19107833483E-01  0.27762409523E-01  0.00000000000E+00 0.  1.
     999901    1    3    3    0    0  0.61855765567E-01  0.77888418732E-01 -0.74382873124E-01  0.88872130239E+00  0.88000000000E+00 0. -1.
        -11    1    4    4    0    0 -0.23600193152E-01 -0.31888337028E-01  0.34220020856E-01  0.52393760160E-01  0.51100000000E-03 0. -1.
         11    1    4    4    0    0 -0.38090110612E-01 -0.25860203240E-01  0.59270685750E-01  0.75052527928E-01  0.51100000000E-03 0.  1.
</event>
<event>
 8    1  0.5489035E+004  0.1043930E+01  0.7957747E-01            NaN
         13   -1    0    0    0    0  0.00000000000E+00  0.00000000000E+00  0.74505805969E-08  0.10566000000E+00  0.10566000000E+00 0. -1.
     999900   -1    0    0    0    0 -0.00000000000E+00 -0.00000000000E+00 -0.74505805969E-08  0.93827000000E+00  0.93827000000E+00 0. -1.
     999902    2    1    2    0    0  0.87820162357E-02 -0.19140112031E-01 -0.10776479097E-01  0.10202741297E+01  0.10199998527E+01 0.  0.
     999903    2    3    3    0    0 -0.17130996187E-01  0.42750689268E-01 -0.12092006665E+00  0.13087345207E+00  0.19624104405E-01 0.  0.
         14    1    1    2    0    0 -0.87820162357E-02  0.19140112031E-01  0.10776479097E-01  0.23655870296E-01  0.00000000000E+00 0. -1.
     999901    1    3    3    0    0  0.25913012423E-01 -0.61890801299E-01  0.11014358756E+00  0.88940067764E+00  0.88000000000E+00 0.  1.
        -11    1    4    4    0    0 -0.94791609092E-03 -0.86074616017E-03 -0.16525150685E-01  0.16582555745E-01  0.51100000000E-03 0.  1.
         11    1    4    4    0    0 -0.16183080096E-01  0.43611435428E-01 -0.10439491597E+00  0.11429089632E+00  0.51100000000E-03 0. -1.
</event>
<event>
 8    1  0.5489035E+004  0.1043930E+01  0.7957747E-01            NaN
         13   -1    0    0    0    0  0.00000000000E+00  0.00000000000E+00  0.74505805969E-08  0.10566000000E+00  0.10566000000E+00 0.  1.
     999900   -1    0    0    0    0 -0.00000000000E+00 -0.00000000000E+00 -0.74505805969E-08  0.93827000000E+00  0.93827000000E+00 0.  1.
     999902    2    1    2    0    0  0.18557429203E-01  0.64133000638E-02 -0.13484071850E-01  0.10201113353E+01  0.10198332254E+01 0.  0.
     999903    2    3    3    0    0 -0.59944025803E-01 -0.19092669065E-01 -0.11276888314E+00  0.13068989036E+00  0.20129833477E-01 0.  0.
         14    1    1    2    0    0 -0.18557429203E-01 -0.64133000638E-02  0.13484071850E-01  0.23818664740E-01  0.00000000000E+00 0.  1.
     999901    1    3    3    0    0  0.78501455006E-01  0.25505969129E-01  0.99284811289E-01  0.88942144490E+00  0.88000000000E+00 0. -1.
        -11    1    4    4    0    0 -0.49819002099E-01 -0.10303740071E-01 -0.99849525677E-01  0.11206377170E+00  0.51100000000E-03 0.  1.
         11    1    4    4    0    0 -0.10125023705E-01 -0.87889289948E-02 -0.12919357463E-01  0.18626118655E-01  0.51100000000E-03 0. -1.
</event>
<event>
 8    1  0.5489035E+004  0.1043930E+01  0.7957747E-01            NaN
         13   -1    0    0    0    0  0.00000000000E+00  0.00000000000E+00  0.74505805969E-08  0.10566000000E+00  0.10566000000E+00 0.  1.
     999900   -1    0    0    0    0 -0.00000000000E+00 -0.00000000000E+00 -0.74505805969E-08  0.93827000000E+00  0.93827000000E+00 0.  1.
     999902    2    1    2    0    0 -0.21855258836E-01 -0.90084637730E-02 -0.31410408823E-02  0.10200831785E+01  0.10198044029E+01 0.  0.
     999903    2    3    3    0    0  0.55953423606E-01  0.71891391491E-01  0.88063368538E-01  0.12827758199E+00  0.20020573908E-01 0.  0.
         14    1    1    2    0    0  0.21855258836E-01  0.90084637730E-02  0.31410408823E-02  0.23846821511E-01  0.00000000000E+00 0. -1.
     999901    1    3    3    0    0 -0.77808682443E-01 -0.80899855264E-01 -0.91204409421E-01  0.89180559650E+00  0.88000000000E+00 0. -1.
        -11    1    4    4    0    0  0.24207438262E-01  0.27568050719E-01  0.22640744994E-01  0.43114521249E-01  0.51100000000E-03 0. -1.
         11    1    4    4    0    0  0.31745985345E-01  0.44323340772E-01  0.65422623545E-01  0.85163060743E-01  0.51100000000E-03 0.  1.
</event>
<event>
 8    1  0.5489035E+004  0.1043930E+01  0.7957747E-01            NaN
         13   -1    0    0    0    0  0.00000000000E+00  0.00000000000E+00  0.74505805969E-08  0.10566000000E+00  0.10566000000E+00 0.  1.
     999900   -1    0    0    0    0 -0.00000000000E+00 -0.00000000000E+00 -0.74505805969E-08  0.93827000000E+00  0.93827000000E+00 0.  1.
     999902    2    1    2    0    0  0.15425140520E-01 -0.18506816405E-01  0.29420781939E-02  0.10196587611E+01  0.10193698524E+01 0.  0.
     999903    2    3    3    0    0  0.83453490509E-01  0.44276842417E-01 -0.87415907189E-01  0.13020150539E+00  0.19646051091E-01 0.  0.
         14    1    1    2    0    0 -0.15425140520E-01  0.18506816405E-01 -0.29420781939E-02  0.24271238897E-01  0.00000000000E+00 0.  1.
     999901    1    3    3    0    0 -0.68028349989E-01 -0.62783658822E-01  0.90357985383E-01  0.88945725571E+00  0.88000000000E+00 0.  1.
        -11    1    4    4    0    0  0.46964450484E-01  0.26757087615E-01 -0.36812024623E-01  0.65398682134E-01  0.51100000000E-03 0.  1.
         11    1    4    4    0    0  0.36489040025E-01  0.17519754802E-01 -0.50603882566E-01  0.64802823256E-01  0.51100000000E-03 0. -1.
</event>
<event>
 8    1  0.5489035E+004  0.1043930E+01  0.7957747E-01            NaN
         13   -1    0    0    0    0  0.00000000000E+00  0.00000000000E+00  0.74505805969E-08  0.10566000000E+00  0.10566000000E+00 0.  1.
     999900   -1    0    0    0    0 -0.00000000000E+00 -0.00000000000E+00 -0.74505805969E-08  0.93827000000E+00  0.93827000000E+00 0.  1.
     999902    2    1    2    0    0  0.20008465056E-01  0.94302339106E-02 -0.93599927969E-02  0.10199117267E+01  0.10196288800E+01 0.  0.
     999903    2    3    3    0    0  0.51978148573E-01  0.11979657386E+00 -0.94610335101E-02  0.13244184000E+00  0.19959528758E-01 0.  0.
         14    1    1    2    0    0 -0.20008465056E-01 -0.94302339106E-02  0.93599927969E-02  0.24018273266E-01  0.00000000000E+00 0.  1.
     999901    1    3    3    0    0 -0.31969683517E-01 -0.11036633995E+00  0.10104071318E-03  0.88746988674E+00  0.88000000000E+00 0.  1.
        -11    1    4    4    0    0  0.18157459657E-01  0.66317759971E-01 -0.28482456349E-02  0.68819417702E-01  0.51100000000E-03 0.  1.
         11    1    4    4    0    0  0.33820688916E-01  0.53478813891E-01 -0.66127878753E-02  0.63622422293E-01  0.51100000000E-03 0. -1.
</event>
<event>
 8    1  0.5489035E+004  0.1043930E+01  0.7957747E-01            NaN
         13   -1    0    0    0    0  0.00000000000E+00  0.00000000000E+00  0.74505805969E-08  0.10566000000E+00  0.10566000000E+00 0. -1.
     999900   -1    0    0    0    0 -0.00000000000E+00 -0.00000000000E+00 -0.74505805969E-08  0.93827000000E+00  0.93827000000E+00 0. -1.
     999902    2    1    2    0    0  0.10807697355E-02 -0.53028695356E-02 -0.23004949271E-01  0.10202970531E+01  0.10200233136E+01 0.  0.
     999903    2    3    3    0    0  0.12817545309E+00 -0.61195878957E-02 -0.19267793861E-01  0.13115831707E+00  0.19101312160E-01 0.  0.
         14    1    1    2    0    0 -0.10807697355E-02  0.53028695356E-02  0.23004949271E-01  0.23632946906E-01  0.00000000000E+00 0. -1.
     999901    1    3    3    0    0 -0.12709468335E+00  0.81671836019E-03 -0.37371554099E-02  0.88913873602E+00  0.88000000000E+00 0. -1.
        -11    1    4    4    0    0  0.28686863563E-01  0.27591760839E-02  0.24887350125E-02  0.28931023430E-01  0.51100000000E-03 0. -1.
         11    1    4    4    0    0  0.99488589525E-01 -0.88787639796E-02 -0.21756528873E-01  0.10222729364E+00  0.51100000000E-03 0.  1.
</event>
<event>
 8    1  0.5489035E+004  0.1043930E+01  0.7957747E-01            NaN
         13   -1    0    0    0    0  0.00000000000E+00  0.00000000000E+00  0.74505805969E-08  0.10566000000E+00  0.10566000000E+00 0.  1.
     999900   -1    0    0    0    0 -0.00000000000E+00 -0.00000000000E+00 -0.74505805969E-08  0.93827000000E+00  0.93827000000E+00 0. -1.
     999902    2    1    2    0    0 -0.21043683324E-01  0.69465428008E-02 -0.92532373657E-02  0.10199151407E+01  0.10196323753E+01 0.  0.
     999903    2    3    3    0    0 -0.10017799593E+00 -0.81820314936E-01  0.13144614112E-01  0.13163395876E+00  0.20603965970E-01 0.  0.
         14    1    1    2    0    0  0.21043683324E-01 -0.69465428008E-02  0.92532373657E-02  0.24014859285E-01  0.00000000000E+00 0. -1.
     999901    1    3    3    0    0  0.79134312607E-01  0.88766857736E-01 -0.22397851477E-01  0.88828118195E+00  0.88000000000E+00 0.  1.
        -11    1    4    4    0    0 -0.95267244408E-01 -0.79380503552E-01  0.82728625292E-02  0.12428118754E+00  0.51100000000E-03 0.  1.
         11    1    4    4    0    0 -0.49107515238E-02 -0.24398113832E-02  0.48717515823E-02  0.73527712186E-02  0.51100000000E-03 0. -1.
</event>
<event>
 8    1  0.5489035E+004  0.1043930E+01  0.7957747E-01            NaN
         13   -1    0    0    0    0  0.00000000000E+00  0.00000000000E+00  0.74505805969E-08  0.10566000000E+00  0.10566000000E+00 0.  1.
     999900   -1    0    0    0    0 -0.00000000000E+00 -0.00000000000E+00 -0.74505805969E-08  0.93827000000E+00  0.93827000000E+00 0. -1.
     999902    2    1    2    0    0  0.24666917733E-02  0.97871311927E-02  0.16173117552E-01  0.10248658389E+01  0.10246885115E+01 0.  0.
     999903    2    3    3    0    0  0.80427603315E-01 -0.98956459223E-01 -0.33266238645E-01  0.13337981992E+00  0.20556106894E-01 0.  0.
         14    1    1    2    0    0 -0.24666917733E-02 -0.97871311927E-02 -0.16173117552E-01  0.19064161053E-01  0.00000000000E+00 0.  1.
     999901    1    3    3    0    0 -0.77960911542E-01  0.10874359042E+00  0.49439356197E-01  0.89148601903E+00  0.88000000000E+00 0.  1.
        -11    1    4    4    0    0  0.20944612734E-01 -0.13235260860E-01 -0.77719692606E-02  0.25971398880E-01  0.51100000000E-03 0. -1.
         11    1    4    4    0    0  0.59482990582E-01 -0.85721198363E-01 -0.25494269384E-01  0.10740842104E+00  0.51100000000E-03 0.  1.
</event>
<event>
 8    1  0.5489035E+004  0.1043930E+01  0.7957747E-01            NaN
         13   -1    0    0    0    0  0.00000000000E+00  0.00000000000E+00  0.74505805969E-08  0.10566000000E+00  0.10566000000E+00 0.  1.
     999900   -1    0    0    0    0 -0.00000000000E+00 -0.00000000000E+00 -0.74505805969E-08  0.93827000000E+00  0.93827000000E+00 0.  1.
     999902    2    1    2    0    0  0.23071181837E-01 -0.12047389078E-01 -0.34718107767E-02  0.10176721919E+01  0.10173333857E+01 0.  0.
     999903    2    3    3    0    0  0.85415118262E-01 -0.97225058367E-01 -0.10790705857E-01  0.13133389986E+00  0.19588249456E-01 0.  0.
         14    1    1    2    0    0 -0.23071181837E-01  0.12047389078E-01  0.34718107767E-02  0.26257808077E-01  0.00000000000E+00 0. -1.
     999901    1    3    3    0    0 -0.62343936425E-01  0.85177669289E-01  0.73188950802E-02  0.88633829206E+00  0.88000000000E+00 0. -1.
        -11    1    4    4    0    0  0.20996957646E-01 -0.12463578402E-01 -0.23916302736E-02  0.24539642078E-01  0.51100000000E-03 0. -1.
         11    1    4    4    0    0  0.64418160617E-01 -0.84761479965E-01 -0.83990755833E-02  0.10679425778E+00  0.51100000000E-03 0.  1.
</event>
<event>
 8    1  0.5489035E+004  0.1043930E+01  0.7957747E-01            NaN
         13   -1    0    0    0    0  0.00000000000E+00  0.00000000000E+00  0.74505805969E-08  0.10566000000E+00  0.10566000000E+00 0. -1.
     999900   -1    0    0    0    0 -0.00000000000E+00 -0.00000000000E+00 -0.74505805969E-08  0.93827000000E+00  0.93827000000E+00 0.  1.
     999902    2    1    2    0    0  0.99571936856E-02  0.42533816748E-02 -0.24902886135E-01  0.10167750612E+01  0.10164123840E+01 0.  0.
     999903    2    3    3    0    0 -0.63945148671E-01  0.30162984762E-01 -0.10669478022E+00  0.12951930460E+00  0.19816317752E-01 0.  0.
         14    1    1    2    0    0 -0.99571936856E-02 -0.42533816748E-02  0.24902886135E-01  0.27154938771E-01  0.00000000000E+00 0. -1.
     999901    1    3    3    0    0  0.73902342356E-01 -0.25909603087E-01  0.81791894084E-01  0.88725575663E+00  0.88000000000E+00 0. -1.
        -11    1    4    4    0    0 -0.37135849646E-01  0.26950943659E-01 -0.74493318411E-01  0.87492515691E-01  0.51100000000E-03 0.  1.
         11    1    4    4    0    0 -0.26809299025E-01  0.32120411027E-02 -0.32201461808E-01  0.42026788907E-01  0.51100000000E-03 0. -1.
</event>
<event>
 8    1  0.5489035E+004  0.1043930E+01  0.7957747E-01            NaN
         13   -1    0    0    0    0  0.00000000000E+00  0.00000000000E+00  0.74505805969E-08  0.10566000000E+00  0.10566000000E+00 0. -1.
     999900   -1    0    0    0    0 -0.00000000000E+00 -0.00000000000E+00 -0.74505805969E-08  0.93827000000E+00  0.93827000000E+00 0.  1.
     999902    2    1    2    0    0  0.17304549451E-01  0.83761374544E-02 -0.13678633000E-01  0.10203352525E+01  0.10200624076E+01 0.  0.
     999903    2    3    3    0    0  0.11438893619E+00  0.48666529902E-01 -0.44170443219E-01  0.13355543517E+00  0.20803037145E-01 0.  0.
         14    1    1    2    0    0 -0.17304549451E-01 -0.83761374544E-02  0.13678633000E-01  0.23594747532E-01  0.00000000000E+00 0. -1.
     999901    1    3    3    0    0 -0.97084386739E-01 -0.40290392447E-01  0.30491810219E-01  0.88677981730E+00  0.88000000000E+00 0. -1.
        -11    1    4    4    0    0  0.84513769723E-01  0.25970799471E-01 -0.28533706022E-01  0.92905829732E-01  0.51100000000E-03 0.  1.
         11    1    4    4    0    0  0.29875166467E-01  0.22695730431E-01 -0.15636737198E-01  0.40649605440E-01  0.51100000000E-03 0. -1.
</event>
<event>
 8    1  0.5489035E+004  0.1043930E+01  0.7957747E-01            NaN
         13   -1    0    0    0    0  0.00000000000E+00  0.00000000000E+00  0.74505805969E-08  0.10566000000E+00  0.10566000000E+00 0.  1.
     999900   -1    0    0    0    0 -0.00000000000E+00 -0.00000000000E+00 -0.74505805969E-08  0.93827000000E+00  0.93827000000E+00 0. -1.
     999902    2    1    2    0    0 -0.15641290547E-01  0.68401351026E-02  0.15468620429E-01  0.10208927338E+01  0.10206327734E+01 0.  0.
     999903    2    3    3    0    0  0.30606838667E-01 -0.11031667430E+00  0.59547012390E-01  0.13083233575E+00  0.21557045058E-01 0.  0.
         14    1    1    2    0    0  0.15641290547E-01 -0.68401351026E-02 -0.15468620429E-01  0.23037266248E-01  0.00000000000E+00 0. -1.
     999901    1    3    3    0    0 -0.46248129214E-01  0.11715680941E+00 -0.44078391961E-01  0.89006039800E+00  0.88000000000E+00 0. -1.
        -11    1    4    4    0    0  0.26592434265E-01 -0.63459300085E-01  0.42118875838E-01  0.80675282152E-01  0.51100000000E-03 0. -1.
         11    1    4    4    0    0  0.40144044022E-02 -0.46857374219E-01  0.17428136552E-01  0.50157053602E-01  0.51100000000E-03 0.  1.
</event>
<event>
 8    1  0.5489035E+004  0.1043930E+01  0.7957747E-01            NaN
         13   -1    0    0    0    0  0.00000000000E+00  0.00000000000E+00  0.74505805969E-08  0.10566000000E+00  0.10566000000E+00 0.  1.
     999900   -1    0    0    0    0 -0.00000000000E+00 -0.00000000000E+00 -0.74505805969E-08  0.93827000000E+00  0.93827000000E+00 0.  1.
     999902    2    1    2    0    0  0.49140229592E-02  0.11137716086E-01 -0.20679709553E-01  0.10199331934E+01  0.10196508580E+01 0.  0.
     999903    2    3    3    0    0  0.10081461550E+00  0.82083037267E-01 -0.21985090595E-02  0.13169239436E+00  0.20900755614E-01 0.  0.
         14    1    1    2    0    0 -0.49140229592E-02 -0.11137716086E-01  0.20679709553E-01  0.23996806631E-01  0.00000000000E+00 0.  1.
     999901    1    3    3    0    0 -0.95900592543E-01 -0.70945321181E-01 -0.18481200494E-01  0.88824079901E+00  0.88000000000E+00 0.  1.
        -11    1    4    4    0    0  0.35577643982E-01  0.41293728417E-01 -0.46993768407E-02  0.54710931463E-01  0.51100000000E-03 0.  1.
         11    1    4    4    0    0  0.65236971520E-01  0.40789308850E-01  0.25008677812E-02  0.76981462900E-01  0.51100000000E-03 0. -1.
</event>
<event>
 7    1  0.5489035E+004  0.1043930E+01  0.7957747E-01            NaN
         13   -1    0    0    0    0  0.00000000000E+00  0.00000000000E+00  0.74505805969E-08  0.10566000000E+00  0.10566000000E+00 0. -1.
     999900   -1    0    0    0    0 -0.00000000000E+00 -0.00000000000E+00 -0.74505805969E-08  0.93827000000E+00  0.93827000000E+00 0. -1.
     999903    2    1    2    0    0 -0.47794974661E-02  0.21212046654E-01  0.79013359626E-01  0.84243223087E-01  0.19519608536E-01 0.  0.
         14    1    1    2    0    0 -0.70994437370E-01 -0.16227371199E-01 -0.12762959728E-01  0.73935315341E-01  0.00000000000E+00 0.  1.
     999901    1    1    2    0    0  0.75773934836E-01 -0.49846754547E-02 -0.66250399898E-01  0.88575146157E+00  0.88000000000E+00 0. -1.
        -11    1    3    3    0    0 -0.69018179939E-02  0.53424128339E-03  0.10054474878E-01  0.12217777680E-01  0.51100000000E-03 0.  1.
         11    1    3    3    0    0  0.21223205278E-02  0.20677805371E-01  0.68958884748E-01  0.72025445407E-01  0.51100000000E-03 0. -1.
</event>
<event>
 8    1  0.5489035E+004  0.1043930E+01  0.7957747E-01            NaN
         13   -1    0    0    0    0  0.00000000000E+00  0.00000000000E+00  0.74505805969E-08  0.10566000000E+00  0.10566000000E+00 0.  1.
     999900   -1    0    0    0    0 -0.00000000000E+00 -0.00000000000E+00 -0.74505805969E-08  0.93827000000E+00  0.93827000000E+00 0.  1.
     999902    2    1    2    0    0 -0.31001446477E-02  0.20850100738E-01 -0.75722984166E-02  0.10215318460E+01  0.10212862650E+01 0.  0.
     999903    2    3    3    0    0  0.87057363520E-01 -0.89500304589E-01 -0.29371838729E-01  0.12980273460E+00  0.19918733235E-01 0.  0.
         14    1    1    2    0    0  0.31001446477E-02 -0.20850100738E-01  0.75722984166E-02  0.22398153962E-01  0.00000000000E+00 0.  1.
     999901    1    3    3    0    0 -0.90157508167E-01  0.11035040533E+00  0.21799540312E-01  0.89172911144E+00  0.88000000000E+00 0. -1.
        -11    1    4    4    0    0  0.70433139707E-01 -0.79681824813E-01 -0.29928555972E-01  0.11048076737E+00  0.51100000000E-03 0. -1.
         11    1    4    4    0    0  0.16624223813E-01 -0.98184797760E-02  0.55671724303E-03  0.19321967228E-01  0.51100000000E-03 0.  1.
</event>
<event>
 8    1  0.5489035E+004  0.1043930E+01  0.7957747E-01            NaN
         13   -1    0    0    0    0  0.00000000000E+00  0.00000000000E+00  0.74505805969E-08  0.10566000000E+00  0.10566000000E+00 0. -1.
     999900   -1    0    0    0    0 -0.00000000000E+00 -0.00000000000E+00 -0.74505805969E-08  0.93827000000E+00  0.93827000000E+00 0. -1.
     999902    2    1    2    0    0 -0.92828485071E-02  0.22179283320E-02  0.20983410834E-01  0.10208780150E+01  0.10206177186E+01 0.  0.
     999903    2    3    3    0    0 -0.59698629383E-02  0.75117710098E-01 -0.10322741473E+00  0.12916411287E+00  0.18685803906E-01 0.  0.
         14    1    1    2    0    0  0.92828485071E-02 -0.22179283320E-02 -0.20983410834E-01  0.23051985006E-01  0.00000000000E+00 0.  1.
     999901    1    3    3    0    0 -0.33129855687E-02 -0.72899781766E-01  0.12421082556E+00  0.89171390212E+00  0.88000000000E+00 0. -1.
        -11    1    4    4    0    0 -0.64719466945E-02  0.51566934154E-01 -0.83879188676E-01  0.98676310257E-01  0.51100000000E-03 0.  1.
         11    1    4    4    0    0  0.50208375621E-03  0.23550775944E-01 -0.19348226054E-01  0.30487802612E-01  0.51100000000E-03 0. -1.
</event>
<event>
 8    1  0.5489035E+004  0.1043930E+01  0.7957747E-01            NaN
         13   -1    0    0    0    0  0.00000000000E+00  0.00000000000E+00  0.74505805969E-08  0.10566000000E+00  0.10566000000E+00 0.  1.
     999900   -1    0    0    0    0 -0.00000000000E+00 -0.00000000000E+00 -0.74505805969E-08  0.93827000000E+00  0.93827000000E+00 0. -1.
     999902    2    1    2    0    0 -0.64057993419E-02 -0.70086241781E-02 -0.20638626923E-01  0.10212119895E+01  0.10209592644E+01 0.  0.
     999903    2    3    3    0    0 -0.26005888802E-01  0.94597076503E-01 -0.87172530386E-01  0.13265437057E+00  0.19318872685E-01 0.  0.
         14    1    1    2    0    0  0.64057993419E-02  0.70086241781E-02  0.20638626923E-01  0.22718010462E-01  0.00000000000E+00 0.  1.
     999901    1    3    3    0    0  0.19600089460E-01 -0.10160570068E+00  0.66533903463E-01  0.88855761897E+00  0.88000000000E+00 0. -1.
        -11    1    4    4    0    0 -0.21000786781E-01  0.91923351007E-01 -0.82170593287E-01  0.12507279092E+00  0.51100000000E-03 0.  1.
         11    1    4    4    0    0 -0.50051020204E-02  0.26737254956E-02 -0.50019370992E-02  0.75815796510E-02  0.51100000000E-03 0. -1.
</event>
<event>
 8    1  0.5489035E+004  0.1043930E+01  0.7957747E-01            NaN
         13   -1    0    0    0    0  0.00000000000E+00  0.00000000000E+00  0.74505805969E-08  0.10566000000E+00  0.10566000000E+00 0.  1.
     999900   -1    0    0    0    0 -0.00000000000E+00 -0.00000000000E+00 -0.74505805969E-08  0.93827000000E+00  0.93827000000E+00 0. -1.
     999902    2    1    2    0    0 -0.22675204528E-01  0.45817257494E-02 -0.49482584225E-02  0.10202732383E+01  0.10199989404E+01 0.  0.
     999903    2    3    3    0    0  0.23989545013E-01 -0.87706352128E-01  0.89625352057E-01  0.12918465914E+00  0.19699491159E-01 0.  0.
         14    1    1    2    0    0  0.22675204528E-01 -0.45817257494E-02  0.49482584225E-02  0.23656761669E-01  0.00000000000E+00 0.  1.
     999901    1    3    3    0    0 -0.46664749542E-01  0.92288077877E-01 -0.94573610479E-01  0.89108857919E+00  0.88000000000E+00 0. -1.
        -11    1    4    4    0    0  0.12450550035E-01 -0.66457191357E-01  0.56170431364E-01  0.87903088454E-01  0.51100000000E-03 0. -1.
         11    1    4    4    0    0  0.11538994978E-01 -0.21249160771E-01  0.33454920693E-01  0.41281570684E-01  0.51100000000E-03 0.  1.
</event>
<event>
 8    1  0.5489035E+004  0.1043930E+01  0.7957747E-01            NaN
         13   -1    0    0    0    0  0.00000000000E+00  0.00000000000E+00  0.74505805969E-08  0.10566000000E+00  0.10566000000E+00 0. -1.
     999900   -1    0    0    0    0 -0.00000000000E+00 -0.00000000000E+00 -0.74505805969E-08  0.93827000000E+00  0.93827000000E+00 0.  1.
     999902    2    1    2    0    0  0.12828575525E-01  0.11115955018E-01 -0.16088205514E-01  0.10205426709E+01  0.10202746571E+01 0.  0.
     999903    2    3    3    0    0 -0.84843591442E-01  0.58361733813E-01 -0.79410934969E-01  0.13162097362E+00  0.20333645095E-01 0.  0.
         14    1    1    2    0    0 -0.12828575525E-01 -0.11115955018E-01  0.16088205514E-01  0.23387329104E-01  0.00000000000E+00 0. -1.
     999901    1    3    3    0    0  0.97672166967E-01 -0.47245778795E-01  0.63322729455E-01  0.88892169727E+00  0.88000000000E+00 0.  1.
        -11    1    4    4    0    0 -0.30938607562E-01  0.11045723893E-01 -0.30279390921E-01  0.44680063673E-01  0.51100000000E-03 0.  1.
         11    1    4    4    0    0 -0.53904983880E-01  0.47316009920E-01 -0.49131544048E-01  0.86940909952E-01  0.51100000000E-03 0. -1.
</event>
<event>
 8    1  0.5489035E+004  0.1043930E+01  0.7957747E-01            NaN
         13   -1    0    0    0    0  0.00000000000E+00  0.00000000000E+00  0.74505805969E-08  0.10566000000E+00  0.10566000000E+00 0.  1.
     999900   -1    0    0    0    0 -0.00000000000E+00 -0.00000000000E+00 -0.74505805969E-08  0.93827000000E+00  0.93827000000E+00 0.  1.
     999902    2    1    2    0    0 -0.15311699575E-01 -0.12559959303E-01 -0.10751009411E-01  0.10213959164E+01  0.10211473121E+01 0.  0.
     999903    2    3    3    0    0 -0.10967739814E+00 -0.72743818872E-01 -0.18369891078E-01  0.13427414943E+00  0.19269132342E-01 0.  0.
         14    1    1    2    0    0  0.15311699575E-01  0.12559959303E-01  0.10751009411E-01  0.22534083627E-01  0.00000000000E+00 0. -1.
     999901    1    3    3    0    0  0.94365698565E-01  0.60183859569E-01  0.76188816663E-02  0.88712176694E+00  0.88000000000E+00 0.  1.
        -11    1    4    4    0    0 -0.41876236759E-01 -0.35634928062E-01 -0.14575088738E-01  0.56887271298E-01  0.51100000000E-03 0.  1.
         11    1    4    4    0    0 -0.67801161381E-01 -0.37108890811E-01 -0.37948023393E-02  0.77386878136E-01  0.51100000000E-03 0. -1.
</event>
<event>
 8    1  0.5489035E+004  0.1043930E+01  0.7957747E-01            NaN
         13   -1    0    0    0    0  0.00000000000E+00  0.00000000000E+00  0.74505805969E-08  0.10566000000E+00  0.10566000000E+00 0. -1.
     999900   -1    0    0    0    0 -0.00000000000E+00 -0.00000000000E+00 -0.74505805969E-08  0.93827000000E+00  0.93827000000E+00 0. -1.
     999902    2    1    2    0    0  0.74319382414E-02  0.18760306311E-01 -0.12866160170E-01  0.10199984126E+01  0.10197176280E+01 0.  0.
     999903    2    3    3    0    0  0.30744228381E-01 -0.35570130998E-01 -0.12106385590E+00  0.13140289118E+00  0.19995519684E-01 0.  0.
         14    1    1    2    0    0 -0.74319382414E-02 -0.18760306311E-01  0.12866160170E-01  0.23931587420E-01  0.00000000000E+00 0. -1.
     999901    1    3    3    0    0 -0.23312290139E-01  0.54330437308E-01  0.10819769573E+00  0.88859552140E+00  0.88000000000E+00 0.  1.
        -11    1    4    4    0    0 -0.39036612811E-03 -0.55315278909E-02 -0.30873181965E-01  0.31371398952E-01  0.51100000000E-03 0. -1.
         11    1    4    4    0    0  0.31134594509E-01 -0.30038603107E-01 -0.90190673935E-01  0.10003149223E+00  0.51100000000E-03 0.  1.
</event>
<event>
 8    1  0.5489035E+004  0.1043930E+01  0.7957747E-01            NaN
         13   -1    0    0    0    0  0.00000000000E+00  0.00000000000E+00  0.74505805969E-08  0.10566000000E+00  0.10566000000E+00 0. -1.
     999900   -1    0    0    0    0 -0.00000000000E+00 -0.00000000000E+00 -0.74505805969E-08  0.93827000000E+00  0.93827000000E+00 0.  1.
     999902    2    1    2    0    0 -0.15234551678E-01  0.17305076636E-01 -0.49154904557E-02  0.10203563009E+01  0.10200839483E+01 0.  0.
     999903    2    3    3    0    0  0.49177217221E-01  0.39402031271E-01  0.11239898907E+00  0.12996322003E+00  0.16911151803E-01 0.  0.
         14    1    1    2    0    0  0.15234551678E-01 -0.17305076636E-01  0.49154904557E-02  0.23573699087E-01  0.00000000000E+00 0. -1.
     999901    1    3    3    0    0 -0.64411768899E-01 -0.22096954635E-01 -0.11731447952E+00  0.89039308088E+00  0.88000000000E+00 0.  1.
        -11    1    4    4    0    0  0.23228600555E-01  0.23716668148E-01  0.73413439298E-01  0.80571970451E-01  0.51100000000E-03 0.  1.
         11    1    4    4    0    0  0.25948616665E-01  0.15685363124E-01  0.38985549771E-01  0.49391249580E-01  0.51100000000E-03 0. -1.
</event>
<event>
 8    1  0.5489035E+004  0.1043930E+01  0.7957747E-01            NaN
         13   -1    0    0    0    0  0.00000000000E+00  0.00000000000E+00  0.74505805969E-08  0.10566000000E+00  0.10566000000E+00 0.  1.
     999900   -1    0    0    0    0 -0.00000000000E+00 -0.00000000000E+00 -0.74505805969E-08  0.93827000000E+00  0.93827000000E+00 0. -1.
     999902    2    1    2    0    0 -0.49028149203E-02  0.15155187890E-01  0.17268380186E-01  0.10204371443E+01  0.10201666782E+01 0.  0.
     999903    2    3    3    0    0  0.44110461566E-01 -0.84896369992E-01  0.86142912534E-01  0.13074263679E+00  0.22801518331E-01 0.  0.
         14    1    1    2    0    0  0.49028149203E-02 -0.15155187890E-01 -0.17268380186E-01  0.23492855688E-01  0.00000000000E+00 0. -1.
     999901    1    3    3    0    0 -0.49013276486E-01  0.10005155788E+00 -0.68874532348E-01  0.88969450752E+00  0.88000000000E+00 0. -1.
        -11    1    4    4    0    0  0.21990353417E-01 -0.53884787281E-01  0.64703668074E-01  0.87028568453E-01  0.51100000000E-03 0.  1.
         11    1    4    4    0    0  0.22120108149E-01 -0.31011582710E-01  0.21439244459E-01  0.43714068339E-01  0.51100000000E-03 0. -1.
</event>
<event>
 8    1  0.5489035E+004  0.1043930E+01  0.7957747E-01            NaN
         13   -1    0    0    0    0  0.00000000000E+00  0.00000000000E+00  0.74505805969E-08  0.10566000000E+00  0.10566000000E+00 0.  1.
     999900   -1    0    0    0    0 -0.00000000000E+00 -0.00000000000E+00 -0.74505805969E-08  0.93827000000E+00  0.93827000000E+00 0. -1.
     999902    2    1    2    0    0  0.11649400170E-01 -0.11928678236E-03  0.21591679461E-01  0.10193958732E+01  0.10191005951E+01 0.  0.
     999903    2    3    3    0    0  0.12078296344E+00 -0.25668722282E-01 -0.36641327610E-01  0.13037731810E+00  0.20205212818E-01 0.  0.
         14    1    1    2    0    0 -0.11649400170E-01  0.11928678236E-03 -0.21591679461E-01  0.24534126754E-01  0.00000000000E+00 0. -1.
     999901    1    3    3    0    0 -0.10913356327E+00  0.25549435499E-01  0.58233007070E-01  0.88901855515E+00  0.88000000000E+00 0. -1.
        -11    1    4    4    0    0  0.67862294731E-01 -0.23595355733E-01 -0.16547518984E-01  0.73730003146E-01  0.51100000000E-03 0. -1.
         11    1    4    4    0    0  0.52920668706E-01 -0.20733665484E-02 -0.20093808625E-01  0.56647314951E-01  0.51100000000E-03 0.  1.
</event>
<event>
 8    1  0.5489035E+004  0.1043930E+01  0.7957747E-01            NaN
         13   -1    0    0    0    0  0.00000000000E+00  0.00000000000E+00  0.74505805969E-08  0.10566000000E+00  0.10566000000E+00 0. -1.
     999900   -1    0    0    0    0 -0.00000000000E+00 -0.00000000000E+00 -0.74505805969E-08  0.93827000000E+00  0.93827000000E+00 0. -1.
     999902    2    1    2    0    0  0.56862085378E-02 -0.21312155754E-01 -0.90818532039E-02  0.10200758388E+01  0.10197968895E+01 0.  0.
     999903    2    3    3    0    0 -0.65115320552E-01 -0.87418644359E-01  0.70220602514E-01  0.13121600514E+00  0.20116725255E-01 0.  0.
         14    1    1    2    0    0 -0.56862085378E-02  0.21312155754E-01  0.90818532039E-02  0.23854161231E-01  0.00000000000E+00 0.  1.
     999901    1    3    3    0    0  0.70801529090E-01  0.66106488605E-01 -0.79302455718E-01  0.88885983363E+00  0.88000000000E+00 0.  1.
        -11    1    4    4    0    0 -0.14681265414E-01 -0.25364288718E-01  0.29073044723E-01  0.41284255434E-01  0.51100000000E-03 0. -1.
         11    1    4    4    0    0 -0.50434055138E-01 -0.62054355642E-01  0.41147557791E-01  0.89931749705E-01  0.51100000000E-03 0.  1.
</event>
<event>
 8    1  0.5489035E+004  0.1043930E+01  0.7957747E-01            NaN
         13   -1    0    0    0    0  0.00000000000E+00  0.00000000000E+00  0.74505805969E-08  0.10566000000E+00  0.10566000000E+00 0. -1.
     999900   -1    0    0    0    0 -0.00000000000E+00 -0.00000000000E+00 -0.74505805969E-08  0.93827000000E+00  0.93827000000E+00 0.  1.
     999902    2    1    2    0    0  0.14783317483E-01  0.12016527082E-01 -0.16746741777E-01  0.10185647332E+01  0.10182488492E+01 0.  0.
     999903    2    3    3    0    0  0.38516573930E-01 -0.92925427272E-01  0.75392860987E-01  0.12723662997E+00  0.19657441750E-01 0.  0.
         14    1    1    2    0    0 -0.14783317483E-01 -0.12016527082E-01  0.16746741777E-01  0.25365266785E-01  0.00000000000E+00 0.  1.
     999901    1    3    3    0    0 -0.23733256447E-01  0.10494195435E+00 -0.92139602764E-01  0.89132810325E+00  0.88000000000E+00 0.  1.
        -11    1    4    4    0    0  0.27799264056E-01 -0.43974191474E-01  0.33114776137E-01  0.61671534094E-01  0.51100000000E-03 0. -1.
         11    1    4    4    0    0  0.10717309874E-01 -0.48951235797E-01  0.42278084850E-01  0.65565095871E-01  0.51100000000E-03 0.  1.
</event>
<event>
 8    1  0.5489035E+004  0.1043930E+01  0.7957747E-01            NaN
         13   -1    0    0    0    0  0.00000000000E+00  0.00000000000E+00  0.74505805969E-08  0.10566000000E+00  0.10566000000E+00 0. -1.
     999900   -1    0    0    0    0 -0.00000000000E+00 -0.00000000000E+00 -0.74505805969E-08  0.93827000000E+00  0.93827000000E+00 0. -1.
     999902    2    1    2    0    0 -0.19129090520E-01 -0.12459825020E-01  0.66225331822E-02  0.10201596973E+01  0.10198827289E+01 0.  0.
     999903    2    3    3    0    0 -0.71992652981E-01 -0.10036185946E+00 -0.44453972831E-01  0.13273075179E+00  0.19643112097E-01 0.  0.
         14    1    1    2    0    0  0.19129090520E-01  0.12459825020E-01 -0.66225331822E-02  0.23770302678E-01  0.00000000000E+00 0.  1.
     999901    1    3    3    0    0  0.52863562462E-01  0.87902034444E-01  0.51076506013E-01  0.88742894553E+00  0.88000000000E+00 0.  1.
        -11    1    4    4    0    0 -0.29308415406E-01 -0.30210853353E-01 -0.22492154899E-01  0.47726690928E-01  0.51100000000E-03 0. -1.
         11    1    4    4    0    0 -0.42684237575E-01 -0.70151006111E-01 -0.21961817932E-01  0.85004060866E-01  0.51100000000E-03 0.  1.
</event>
<event>
 8    1  0.5489035E+004  0.1043930E+01  0.7957747E-01            NaN
         13   -1    0    0    0    0  0.00000000000E+00  0.00000000000E+00  0.74505805969E-08  0.10566000000E+00  0.10566000000E+00 0. -1.
     999900   -1    0    0    0    0 -0.00000000000E+00 -0.00000000000E+00 -0.74505805969E-08  0.93827000000E+00  0.93827000000E+00 0. -1.
     999902    2    1    2    0    0 -0.28662202173E-02  0.26336651157E-01 -0.89218182071E-02  0.10159758724E+01  0.10155912268E+01 0.  0.
     999903    2    3    3    0    0  0.59289179165E-01 -0.91447022681E-01 -0.57508320410E-01  0.12463029644E+00  0.18647765328E-01 0.  0.
         14    1    1    2    0    0  0.28662202173E-02 -0.26336651157E-01  0.89218182071E-02  0.27954127649E-01  0.00000000000E+00 0. -1.
     999901    1    3    3    0    0 -0.62155399382E-01  0.11778367384E+00  0.48586502202E-01  0.89134557591E+00  0.88000000000E+00 0. -1.
        -11    1    4    4    0    0  0.44496953768E-01 -0.52034573679E-01 -0.35329862977E-01  0.77045675359E-01  0.51100000000E-03 0.  1.
         11    1    4    4    0    0  0.14792225396E-01 -0.39412449002E-01 -0.22178457433E-01  0.47584621083E-01  0.51100000000E-03 0. -1.
</event>
<event>
 8    1  0.5489035E+004  0.1043930E+01  0.7957747E-01            NaN
         13   -1    0    0    0    0  0.00000000000E+00  0.00000000000E+00  0.74505805969E-08  0.10566000000E+00  0.10566000000E+00 0. -1.
     999900   -1    0    0    0    0 -0.00000000000E+00 -0.00000000000E+00 -0.74505805969E-08  0.93827000000E+00  0.93827000000E+00 0. -1.
     999902    2    1    2    0    0 -0.18075795371E-01  0.15197074542E-01 -0.38321808518E-02  0.10200057223E+01  0.10197251112E+01 0.  0.
     999903    2    3    3    0    0  0.62580921333E-01  0.11117222886E+00 -0.21713879660E-01  0.13094076892E+00  0.19958862944E-01 0.  0.
         14    1    1    2    0    0  0.18075795371E-01 -0.15197074542E-01  0.38321808518E-02  0.23924277690E-01  0.00000000000E+00 0.  1.
     999901    1    3    3    0    0 -0.80656716704E-01 -0.95975154320E-01  0.17881698808E-01  0.88906495339E+00  0.88000000000E+00 0.  1.
        -11    1    4    4    0    0  0.47540581380E-01  0.82195509679E-01 -0.24809942881E-01  0.98142768843E-01  0.51100000000E-03 0.  1.
         11    1    4    4    0    0  0.15040339953E-01  0.28976719183E-01  0.30960632205E-02  0.32798000076E-01  0.51100000000E-03 0. -1.
</event>
<event>
 8    1  0.5489035E+004  0.1043930E+01  0.7957747E-01            NaN
         13   -1    0    0    0    0  0.00000000000E+00  0.00000000000E+00  0.74505805969E-08  0.10566000000E+00  0.10566000000E+00 0.  1.
     999900   -1    0    0    0    0 -0.00000000000E+00 -0.00000000000E+00 -0.74505805969E-08  0.93827000000E+00  0.93827000000E+00 0. -1.
     999902    2    1    2    0    0  0.22612281284E-01  0.87036643122E-02 -0.56532270656E-02  0.10190497264E+01  0.10187459531E+01 0.  0.
     999903    2    3    3    0    0 -0.45714192295E-01  0.63805170776E-01  0.99603693221E-01  0.12844111301E+00  0.20379808954E-01 0.  0.
         14    1    1    2    0    0 -0.22612281284E-01 -0.87036643122E-02  0.56532270656E-02  0.24880273583E-01  0.00000000000E+00 0.  1.
     999901    1    3    3    0    0  0.68326473579E-01 -0.55101506463E-01 -0.10525692029E+00  0.89060861341E+00  0.88000000000E+00 0. -1.
        -11    1    4    4    0    0 -0.18131100383E-01  0.29275180297E-01  0.59567219190E-01  0.68806160375E-01  0.51100000000E-03 0.  1.
         11    1    4    4    0    0 -0.27583091913E-01  0.34529990479E-01  0.40036474031E-01  0.59634952635E-01  0.51100000000E-03 0. -1.
</event>
<event>
 8    1  0.5489035E+004  0.1043930E+01  0.7957747E-01            NaN
         13   -1    0    0    0    0  0.00000000000E+00  0.00000000000E+00  0.74505805969E-08  0.10566000000E+00  0.10566000000E+00 0.  1.
     999900   -1    0    0    0    0 -0.00000000000E+00 -0.00000000000E+00 -0.74505805969E-08  0.93827000000E+00  0.93827000000E+00 0. -1.
     999902    2    1    2    0    0 -0.13484709491E-01 -0.12487054104E-02  0.19334028788E-01  0.10203248877E+01  0.10200518003E+01 0.  0.
     999903    2    3    3    0    0 -0.12831148457E+00  0.77889775807E-02  0.25799051220E-01  0.13279535894E+00  0.21083431137E-01 0.  0.
         14    1    1    2    0    0  0.13484709491E-01  0.12487054104E-02 -0.19334028788E-01  0.23605112252E-01  0.00000000000E+00 0. -1.
     999901    1    3    3    0    0  0.11482677508E+00 -0.90376829910E-02 -0.64650224319E-02  0.88752952881E+00  0.88000000000E+00 0.  1.
        -11    1    4    4    0    0 -0.72032688233E-01  0.12501099201E-01  0.21238119333E-01  0.76133464975E-01  0.51100000000E-03 0.  1.
         11    1    4    4    0    0 -0.56278796336E-01 -0.47121216206E-02  0.45609318874E-02  0.56661893966E-01  0.51100000000E-03 0. -1.
</event>
<event>
 8    1  0.5489035E+004  0.1043930E+01  0.7957747E-01            NaN
         13   -1    0    0    0    0  0.00000000000E+00  0.00000000000E+00  0.74505805969E-08  0.10566000000E+00  0.10566000000E+00 0.  1.
     999900   -1    0    0    0    0 -0.00000000000E+00 -0.00000000000E+00 -0.74505805969E-08  0.93827000000E+00  0.93827000000E+00 0. -1.
     999902    2    1    2    0    0  0.22536275488E-01 -0.58813601258E-02  0.22111676735E-02  0.10205342018E+01  0.10202659917E+01 0.  0.
     999903    2    3    3    0    0 -0.10170192462E+00  0.74595264485E-01 -0.10246915615E-01  0.12808430333E+00  0.19820558147E-01 0.  0.
         14    1    1    2    0    0 -0.22536275488E-01  0.58813601258E-02 -0.22111676735E-02  0.23395798176E-01  0.00000000000E+00 0. -1.
     999901    1    3    3    0    0  0.12423820011E+00 -0.80476624610E-01  0.12458083289E-01  0.89244989849E+00  0.88000000000E+00 0.  1.
        -11    1    4    4    0    0 -0.80375131683E-01  0.51851061412E-01 -0.13613928966E-02  0.95659860308E-01  0.51100000000E-03 0. -1.
         11    1    4    4    0    0 -0.21326792941E-01  0.22744203073E-01 -0.88855227184E-02  0.32424443026E-01  0.51100000000E-03 0.  1.
</event>
<event>
 8    1  0.5489035E+004  0.1043930E+01  0.7957747E-01            NaN
         13   -1    0    0    0    0  0.00000000000E+00  0.00000000000E+00  0.74505805969E-08  0.10566000000E+00  0.10566000000E+00 0. -1.
     999900   -1    0    0    0    0 -0.00000000000E+00 -0.00000000000E+00 -0.74505805969E-08  0.93827000000E+00  0.93827000000E+00 0. -1.
     999902    2    1    2    0    0  0.16513972185E-01  0.11886295787E-01  0.35245971568E-02  0.10232801068E+01  0.10230717271E+01 0.  0.
     999903    2    3    3    0    0 -0.13297798119E-02 -0.32379371196E-01 -0.12672843709E+00  0.13241328077E+00  0.20566676058E-01 0.  0.
         14    1    1    2    0    0 -0.16513972185E-01 -0.11886295787E-01 -0.35245971568E-02  0.20649893220E-01  0.00000000000E+00 0. -1.
     999901    1    3    3    0    0  0.17843751997E-01  0.44265666983E-01  0.13025303424E+00  0.89086682601E+00  0.88000000000E+00 0.  1.
        -11    1    4    4    0    0  0.84930085454E-02 -0.10180500155E-01 -0.32430700969E-01  0.35039766893E-01  0.51100000000E-03 0.  1.
         11    1    4    4    0    0 -0.98227883572E-02 -0.22198871040E-01 -0.94297736118E-01  0.97373513876E-01  0.51100000000E-03 0. -1.
</event>
<event>
 8    1  0.5489035E+004  0.1043930E+01  0.7957747E-01            NaN
         13   -1    0    0    0    0  0.00000000000E+00  0.00000000000E+00  0.74505805969E-08  0.10566000000E+00  0.10566000000E+00 0. -1.
     999900   -1    0    0    0    0 -0.00000000000E+00 -0.00000000000E+00 -0.74505805969E-08  0.93827000000E+00  0.93827000000E+00 0. -1.
     999902    2    1    2    0    0  0.73701448221E-02 -0.22086402764E-01 -0.52937014031E-02  0.10200521547E+01  0.10197726447E+01 0.  0.
     999903    2    3    3    0    0  0.34752537630E-01  0.72117288114E-01  0.98516416204E-01  0.12853621467E+00  0.20184947424E-01 0.  0.
         14    1    1    2    0    0 -0.73701448221E-02  0.22086402764E-01  0.52937014031E-02  0.23877845303E-01  0.00000000000E+00 0. -1.
     999901    1    3    3    0    0 -0.27382392808E-01 -0.94203690878E-01 -0.10381011761E+00  0.89151594003E+00  0.88000000000E+00 0. -1.
        -11    1    4    4    0    0  0.65773655381E-02  0.35940606551E-01  0.39717886004E-01  0.53969996538E-01  0.51100000000E-03 0.  1.
         11    1    4    4    0    0  0.28175172092E-01  0.36176681562E-01  0.58798530200E-01  0.74566218128E-01  0.51100000000E-03 0. -1.
</event>
<event>
 8    1  0.5489035E+004  0.1043930E+01  0.7957747E-01            NaN
         13   -1    0    0    0    0  0.00000000000E+00  0.00000000000E+00  0.74505805969E-08  0.10566000000E+00  0.10566000000E+00 0. -1.
     999900   -1    0    0    0    0 -0.00000000000E+00 -0.00000000000E+00 -0.74505805969E-08  0.93827000000E+00  0.93827000000E+00 0. -1.
     999902    2    1    2    0    0  0.44822110428E-02  0.30606129745E-01  0.28028841924E-02  0.10128706769E+01  0.10123943533E+01 0.  0.
     999903    2    3    3    0    0  0.48016593082E-01  0.83972099152E-01  0.78931212334E-01  0.12690301862E+00  0.22744960040E-01 0.  0.
         14    1    1    2    0    0 -0.44822110428E-02 -0.30606129745E-01 -0.28028841924E-02  0.31059323135E-01  0.00000000000E+00 0.  1.
     999901    1    3    3    0    0 -0.43534382039E-01 -0.53365969407E-01 -0.76128328141E-01  0.88596765824E+00  0.88000000000E+00 0. -1.
        -11    1    4    4    0    0  0.16340972918E-01  0.40544126390E-01  0.47833800598E-01  0.64801135648E-01  0.51100000000E-03 0.  1.
         11    1    4    4    0    0  0.31675620164E-01  0.43427972762E-01  0.31097411736E-01  0.62101882972E-01  0.51100000000E-03 0. -1.
</event>
<event>
 8    1  0.5489035E+004  0.1043930E+01  0.7957747E-01            NaN
         13   -1    0    0    0    0  0.00000000000E+00  0.00000000000E+00  0.74505805969E-08  0.10566000000E+00  0.10566000000E+00 0.  1.
     999900   -1    0    0    0    0 -0.00000000000E+00 -0.00000000000E+00 -0.74505805969E-08  0.93827000000E+00  0.93827000000E+00 0. -1.
     999902    2    1    2    0    0  0.55467323222E-02  0.21685650258E-01  0.85077453703E-02  0.10199839064E+01  0.10197027773E+01 0.  0.
     999903    2    3    3    0    0 -0.15860467953E-01  0.12140750542E+00 -0.46315968888E-01  0.13239821688E+00  0.19818729630E-01 0.  0.
         14    1    1    2    0    0 -0.55467323222E-02 -0.21685650258E-01 -0.85077453703E-02  0.23946093582E-01  0.00000000000E+00 0. -1.
     999901    1    3    3    0    0  0.21407200276E-01 -0.99721855161E-01  0.54823714258E-01  0.88758568953E+00  0.88000000000E+00 0. -1.
        -11    1    4    4    0    0 -0.17458245168E-01  0.94679519590E-01 -0.42893675364E-01  0.10539985892E+00  0.51100000000E-03 0. -1.
         11    1    4    4    0    0  0.15977772149E-02  0.26727985829E-01 -0.34222935240E-02  0.26998357959E-01  0.51100000000E-03 0.  1.
</event>
<event>
 8    1  0.5489035E+004  0.1043930E+01  0.7957747E-01            NaN
         13   -1    0    0    0    0  0.00000000000E+00  0.00000000000E+00  0.74505805969E-08  0.10566000000E+00  0.10566000000E+00 0.  1.
     999900   -1    0    0    0    0 -0.00000000000E+00 -0.00000000000E+00 -0.74505805969E-08  0.93827000000E+00  0.93827000000E+00 0.  1.
     999902    2    1    2    0    0 -0.17089403171E-01 -0.13230606966E-02 -0.17500538246E-01  0.10194337344E+01  0.10191393780E+01 0.  0.
     999903    2    3    3    0    0  0.70552537347E-01 -0.52141144252E-02 -0.10773380976E+00  0.13048025229E+00  0.20339000853E-01 0.  0.
         14    1    1    2    0    0  0.17089403171E-01  0.13230606966E-02  0.17500538246E-01  0.24496265618E-01  0.00000000000E+00 0.  1.
     999901    1    3    3    0    0 -0.87641940518E-01  0.38910537287E-02  0.90233271518E-01  0.88895348209E+00  0.88000000000E+00 0.  1.
        -11    1    4    4    0    0  0.57465405308E-01  0.39764346097E-02 -0.83651537795E-01  0.10156734581E+00  0.51100000000E-03 0.  1.
         11    1    4    4    0    0  0.13087132039E-01 -0.91905490349E-02 -0.24082271969E-01  0.28912906474E-01  0.51100000000E-03 0. -1.
</event>
<event>
 8    1  0.5489035E+004  0.1043930E+01  0.7957747E-01            NaN
         13   -1    0    0    0    0  0.00000000000E+00  0.00000000000E+00  0.74505805969E-08  0.10566000000E+00  0.10566000000E+00 0.  1.
     999900   -1    0    0    0    0 -0.00000000000E+00 -0.00000000000E+00 -0.74505805969E-08  0.93827000000E+00  0.93827000000E+00 0. -1.
     999902    2    1    2    0    0 -0.27790661706E-02  0.21765431712E-01 -0.81008541435E-02  0.10205402359E+01  0.10202721657E+01 0.  0.
     999903    2    3    3    0    0 -0.93601224333E-01 -0.61912872230E-01  0.60698733953E-01  0.12925795386E+00  0.20709644837E-01 0.  0.
         14    1    1    2    0    0  0.27790661706E-02 -0.21765431712E-01  0.81008541435E-02  0.23389764092E-01  0.00000000000E+00 0. -1.
     999901    1    3    3    0    0  0.90822158162E-01  0.83678303942E-01 -0.68799588096E-01  0.89128228204E+00  0.88000000000E+00 0. -1.
        -11    1    4    4    0    0 -0.59966716520E-01 -0.29525274447E-01  0.29271324026E-01  0.72971367347E-01  0.51100000000E-03 0. -1.
         11    1    4    4    0    0 -0.33634507813E-01 -0.32387597783E-01  0.31427409927E-01  0.56286586517E-01  0.51100000000E-03 0.  1.
</event>
<event>
 8    1  0.5489035E+004  0.1043930E+01  0.7957747E-01            NaN
         13   -1    0    0    0    0  0.00000000000E+00  0.00000000000E+00  0.74505805969E-08  0.10566000000E+00  0.10566000000E+00 0. -1.
     999900   -1    0    0    0    0 -0.00000000000E+00 -0.00000000000E+00 -0.74505805969E-08  0.93827000000E+00  0.93827000000E+00 0. -1.
     999902    2    1    2    0    0  0.23231918320E-01  0.66821617138E-02 -0.14942185605E-03  0.10197557236E+01  0.10194691462E+01 0.  0.
     999903    2    3    3    0    0 -0.56342765748E-01  0.80140210692E-01 -0.82001227191E-01  0.12934686617E+00  0.20234868538E-01 0.  0.
         14    1    1    2    0    0 -0.23231918320E-01 -0.66821617138E-02  0.14942185605E-03  0.24174276430E-01  0.00000000000E+00 0.  1.
     999901    1    3    3    0    0  0.79574684068E-01 -0.73458048978E-01  0.81851805335E-01  0.89040885740E+00  0.88000000000E+00 0.  1.
        -11    1    4    4    0    0 -0.57309324639E-01  0.73177874846E-01 -0.75322985519E-01  0.11963767520E+00  0.51100000000E-03 0.  1.
         11    1    4    4    0    0  0.96655889117E-03  0.69623358450E-02 -0.66782416722E-02  0.97091909725E-02  0.51100000000E-03 0. -1.
</event>
<event>
 8    1  0.5489035E+004  0.1043930E+01  0.7957747E-01            NaN
         13   -1    0    0    0    0  0.00000000000E+00  0.00000000000E+00  0.74505805969E-08  0.10566000000E+00  0.10566000000E+00 0.  1.
     999900   -1    0    0    0    0 -0.00000000000E+00 -0.00000000000E+00 -0.74505805969E-08  0.93827000000E+00  0.93827000000E+00 0.  1.
     999902    2    1    2    0    0 -0.21452798087E-01  0.14153626212E-01 -0.57860249801E-02  0.10175856312E+01  0.10172445582E+01 0.  0.
     999903    2    3    3    0    0  0.24951781594E-01 -0.70999109749E-01  0.99525660040E-01  0.12601683161E+00  0.17647091911E-01 0.  0.
         14    1    1    2    0    0  0.21452798087E-01 -0.14153626212E-01  0.57860249801E-02  0.26344368768E-01  0.00000000000E+00 0. -1.
     999901    1    3    3    0    0 -0.46404579681E-01  0.85152735961E-01 -0.10531168502E+00  0.89156879962E+00  0.88000000000E+00 0.  1.
        -11    1    4    4    0    0  0.26541941306E-01 -0.53555731667E-01  0.77018342193E-01  0.97492446876E-01  0.51100000000E-03 0.  1.
         11    1    4    4    0    0 -0.15901597127E-02 -0.17443378082E-01  0.22507317846E-01  0.28524384734E-01  0.51100000000E-03 0. -1.
</event>
<event>
 8    1  0.5489035E+004  0.1043930E+01  0.7957747E-01            NaN
         13   -1    0    0    0    0  0.00000000000E+00  0.00000000000E+00  0.74505805969E-08  0.10566000000E+00  0.10566000000E+00 0.  1.
     999900   -1    0    0    0    0 -0.00000000000E+00 -0.00000000000E+00 -0.74505805969E-08  0.93827000000E+00  0.93827000000E+00 0.  1.
     999902    2    1    2    0    0  0.15628056908E-01  0.62729381480E-02 -0.17124050938E-01  0.10199129428E+01  0.10196301250E+01 0.  0.
     999903    2    3    3    0    0 -0.79204347555E-02  0.11237895397E+00 -0.65490768105E-01  0.13190823709E+00  0.20468994144E-01 0.  0.
         14    1    1    2    0    0 -0.15628056908E-01 -0.62729381480E-02  0.17124050938E-01  0.24017057193E-01  0.00000000000E+00 0. -1.
     999901    1    3    3    0    0  0.23548491663E-01 -0.10610601582E+00  0.48366717167E-01  0.88800470572E+00  0.88000000000E+00 0. -1.
        -11    1    4    4    0    0  0.25246882612E-02  0.56867075849E-01 -0.23796928215E-01  0.61699216202E-01  0.51100000000E-03 0.  1.
         11    1    4    4    0    0 -0.10445123017E-01  0.55511878123E-01 -0.41693839890E-01  0.70209020883E-01  0.51100000000E-03 0. -1.
</event>
<event>
 8    1  0.5489035E+004  0.1043930E+01  0.7957747E-01            NaN
         13   -1    0    0    0    0  0.00000000000E+00  0.00000000000E+00  0.74505805969E-08  0.10566000000E+00  0.10566000000E+00 0. -1.
     999900   -1    0    0    0    0 -0.00000000000E+00 -0.00000000000E+00 -0.74505805969E-08  0.93827000000E+00  0.93827000000E+00 0.  1.
     999902    2    1    2    0    0 -0.16312979114E-01 -0.17232476342E-01 -0.31313078511E-02  0.10199951589E+01  0.10197142971E+01 0.  0.
     999903    2    3    3    0    0 -0.58747347929E-01 -0.55960727395E-01  0.10181833462E+00  0.13189889131E+00  0.21153968081E-01 0.  0.
         14    1    1    2    0    0  0.16312979114E-01  0.17232476342E-01  0.31313078511E-02  0.23934841076E-01  0.00000000000E+00 0. -1.
     999901    1    3    3    0    0  0.42434368815E-01  0.38728251053E-01 -0.10494964247E+00  0.88809626761E+00  0.88000000000E+00 0.  1.
        -11    1    4    4    0    0 -0.32356566531E-01 -0.41701791866E-01  0.74634278316E-01  0.91414022247E-01  0.51100000000E-03 0.  1.
         11    1    4    4    0    0 -0.26390781398E-01 -0.14258935529E-01  0.27184056306E-01  0.40484869068E-01  0.51100000000E-03 0. -1.
</event>
<event>
 8    1  0.5489035E+004  0.1043930E+01  0.7957747E-01            NaN
         13   -1    0    0    0    0  0.00000000000E+00  0.00000000000E+00  0.74505805969E-08  0.10566000000E+00  0.10566000000E+00 0. -1.
     999900   -1    0    0    0    0 -0.00000000000E+00 -0.00000000000E+00 -0.74505805969E-08  0.93827000000E+00  0.93827000000E+00 0.  1.
     999902    2    1    2    0    0  0.99421978868E-02 -0.97661244297E-02 -0.18005747896E-01  0.10211609104E+01  0.10209070347E+01 0.  0.
     999903    2    3    3    0    0 -0.66062964593E-01 -0.89311738508E-01  0.65637550074E-01  0.13037446529E+00  0.18663099810E-01 0.  0.
         14    1    1    2    0    0 -0.99421978868E-02  0.97661244297E-02  0.18005747896E-01  0.22769089628E-01  0.00000000000E+00 0. -1.
     999901    1    3    3    0    0  0.76005162480E-01  0.79545614078E-01 -0.83643297970E-01  0.89078644508E+00  0.88000000000E+00 0.  1.
        -11    1    4    4    0    0 -0.10341446488E-01 -0.81093492641E-02  0.24917245281E-02  0.13385696585E-01  0.51100000000E-03 0.  1.
         11    1    4    4    0    0 -0.55721518105E-01 -0.81202389244E-01  0.63145825546E-01  0.11698876871E+00  0.51100000000E-03 0. -1.
</event>
<event>
 8    1  0.5489035E+004  0.1043930E+01  0.7957747E-01            NaN
         13   -1    0    0    0    0  0.00000000000E+00  0.00000000000E+00  0.74505805969E-08  0.10566000000E+00  0.10566000000E+00 0. -1.
     999900   -1    0    0    0    0 -0.00000000000E+00 -0.00000000000E+00 -0.74505805969E-08  0.93827000000E+00  0.93827000000E+00 0. -1.
     999902    2    1    2    0    0 -0.15907829586E-02  0.21670753673E-01 -0.95068965391E-02  0.10202122169E+01  0.10199364854E+01 0.  0.
     999903    2    3    3    0    0 -0.21054146122E-01  0.11515822290E+00  0.58668927519E-01  0.13242470152E+00  0.19737404762E-01 0.  0.
         14    1    1    2    0    0  0.15907829586E-02 -0.21670753673E-01  0.95068965391E-02  0.23717783138E-01  0.00000000000E+00 0.  1.
     999901    1    3    3    0    0  0.19463363163E-01 -0.93487469225E-01 -0.68175824059E-01  0.88778751534E+00  0.88000000000E+00 0.  1.
        -11    1    4    4    0    0 -0.93591867800E-02  0.82884360169E-01  0.49074478997E-01  0.96777978629E-01  0.51100000000E-03 0.  1.
         11    1    4    4    0    0 -0.11694959342E-01  0.32273862730E-01  0.95944485227E-02  0.35646722892E-01  0.51100000000E-03 0. -1.
</event>
<event>
 8    1  0.5489035E+004  0.1043930E+01  0.7957747E-01            NaN
         13   -1    0    0    0    0  0.00000000000E+00  0.00000000000E+00  0.74505805969E-08  0.10566000000E+00  0.10566000000E+00 0.  1.
     999900   -1    0    0    0    0 -0.00000000000E+00 -0.00000000000E+00 -0.74505805969E-08  0.93827000000E+00  0.93827000000E+00 0.  1.
     999902    2    1    2    0    0 -0.76501382972E-02 -0.17349487279E-01  0.17339358330E-01  0.10182359798E+01  0.10179117486E+01 0.  0.
     999903    2    3    3    0    0 -0.40667266831E-01  0.11828499415E+00 -0.71295960026E-02  0.12689677782E+00  0.20169150943E-01 0.  0.
         14    1    1    2    0    0  0.76501382972E-02  0.17349487279E-01 -0.17339358330E-01  0.25694020162E-01  0.00000000000E+00 0. -1.
     999901    1    3    3    0    0  0.33017128533E-01 -0.13563448143E+00  0.24468954332E-01  0.89133920202E+00  0.88000000000E+00 0. -1.
        -11    1    4    4    0    0 -0.34667743084E-01  0.89770123276E-01 -0.13180965440E-01  0.97131490334E-01  0.51100000000E-03 0. -1.
         11    1    4    4    0    0 -0.59995237462E-02  0.28514870872E-01  0.60513694379E-02  0.29765287485E-01  0.51100000000E-03 0.  1.
</event>
<event>
 8    1  0.5489035E+004  0.1043930E+01  0.7957747E-01            NaN
         13   -1    0    0    0    0  0.00000000000E+00  0.00000000000E+00  0.74505805969E-08  0.10566000000E+00  0.10566000000E+00 0. -1.
     999900   -1    0    0    0    0 -0.00000000000E+00 -0.00000000000E+00 -0.74505805969E-08  0.93827000000E+00  0.93827000000E+00 0. -1.
     999902    2    1    2    0    0 -0.62880508877E-02 -0.22558864251E-01 -0.33739585061E-02  0.10202693674E+01  0.10199949786E+01 0.  0.
     999903    2    3    3    0    0 -0.80946687771E-01 -0.99612935271E-01 -0.30232867801E-01  0.13334623489E+00  0.19801235572E-01 0.  0.
         14    1    1    2    0    0  0.62880508877E-02  0.22558864251E-01  0.33739585061E-02  0.23660632626E-01  0.00000000000E+00 0. -1.
     999901    1    3    3    0    0  0.74658636884E-01  0.77054071021E-01  0.26858909295E-01  0.88692313248E+00  0.88000000000E+00 0. -1.
        -11    1    4    4    0    0 -0.35673089504E-01 -0.29251114327E-01 -0.12816286226E-01  0.47882306939E-01  0.51100000000E-03 0. -1.
         11    1    4    4    0    0 -0.45273598267E-01 -0.70361820944E-01 -0.17416581575E-01  0.85463927954E-01  0.51100000000E-03 0.  1.
</event>
<event>
 8    1  0.5489035E+004  0.1043930E+01  0.7957747E-01            NaN
         13   -1    0    0    0    0  0.00000000000E+00  0.00000000000E+00  0.74505805969E-08  0.10566000000E+00  0.10566000000E+00 0.  1.
     999900   -1    0    0    0    0 -0.00000000000E+00 -0.00000000000E+00 -0.74505805969E-08  0.93827000000E+00  0.93827000000E+00 0. -1.
     999902    2    1    2    0    0  0.12098551793E-01 -0.17511994004E-01 -0.97567158154E-02  0.10205155089E+01  0.10202468650E+01 0.  0.
     999903    2    3    3    0    0 -0.19927828009E-02  0.11256395818E+00  0.53702825568E-01  0.12858197302E+00  0.31220417173E-01 0.  0.
         14    1    1    2    0    0 -0.12098551793E-01  0.17511994004E-01  0.97567158154E-02  0.23414491089E-01  0.00000000000E+00 0.  1.
     999901    1    3    3    0    0  0.14091334594E-01 -0.13007595218E+00 -0.63459541383E-01  0.89193353589E+00  0.88000000000E+00 0. -1.
        -11    1    4    4    0    0  0.63878874065E-02  0.38064722775E-01  0.33055592493E-01  0.50819893167E-01  0.51100000000E-03 0. -1.
         11    1    4    4    0    0 -0.83806702074E-02  0.74499235405E-01  0.20647233074E-01  0.77762079857E-01  0.51100000000E-03 0.  1.
</event>
<event>
 8    1  0.5489035E+004  0.1043930E+01  0.7957747E-01            NaN
         13   -1    0    0    0    0  0.00000000000E+00  0.00000000000E+00  0.74505805969E-08  0.10566000000E+00  0.10566000000E+00 0.  1.
     999900   -1    0    0    0    0 -0.00000000000E+00 -0.00000000000E+00 -0.74505805969E-08  0.93827000000E+00  0.93827000000E+00 0. -1.
     999902    2    1    2    0    0 -0.68192452472E-02  0.53194792489E-02  0.21575588429E-01  0.10206855387E+01  0.10204208269E+01 0.  0.
     999903    2    3    3    0    0  0.11395468819E+00  0.49497900533E-01 -0.31679677969E-01  0.12974547376E+00  0.19863857817E-01 0.  0.
         14    1    1    2    0    0  0.68192452472E-02 -0.53194792489E-02 -0.21575588429E-01  0.23244461303E-01  0.00000000000E+00 0. -1.
     999901    1    3    3    0    0 -0.12077393344E+00 -0.44178421284E-01  0.53255266398E-01  0.89094006493E+00  0.88000000000E+00 0. -1.
        -11    1    4    4    0    0  0.78189374620E-01  0.28117201203E-01 -0.28921929591E-01  0.87982352999E-01  0.51100000000E-03 0. -1.
         11    1    4    4    0    0  0.35765313573E-01  0.21380699330E-01 -0.27577483780E-02  0.41763120764E-01  0.51100000000E-03 0.  1.
</event>
<event>
 8    1  0.5489035E+004  0.1043930E+01  0.7957747E-01            NaN
         13   -1    0    0    0    0  0.00000000000E+00  0.00000000000E+00  0.74505805969E-08  0.10566000000E+00  0.10566000000E+00 0. -1.
     999900   -1    0    0    0    0 -0.00000000000E+00 -0.00000000000E+00 -0.74505805969E-08  0.93827000000E+00  0.93827000000E+00 0. -1.
     999902    2    1    2    0    0 -0.10174361878E-01 -0.71091482157E-02  0.20462110496E-01  0.10199976872E+01  0.10197168854E+01 0.  0.
     999903    2    3    3    0    0 -0.32447883573E-01 -0.42866369506E-01 -0.11515220174E+00  0.12861340966E+00  0.19773436614E-01 0.  0.
         14    1    1    2    0    0  0.10174361878E-01  0.71091482157E-02 -0.20462110496E-01  0.23932312757E-01  0.00000000000E+00 0.  1.
     999901    1    3    3    0    0  0.22273521695E-01  0.35757221290E-01  0.13561431223E+00  0.89138427759E+00  0.88000000000E+00 0.  1.
        -11    1    4    4    0    0 -0.14881930892E-01 -0.89556690063E-02 -0.22735507281E-01  0.28615385490E-01  0.51100000000E-03 0.  1.
         11    1    4    4    0    0 -0.17565952681E-01 -0.33910700500E-01 -0.92416694457E-01  0.99998024167E-01  0.51100000000E-03 0. -1.
</event>
<event>
 8    1  0.5489035E+004  0.1043930E+01  0.7957747E-01            NaN
         13   -1    0    0    0    0  0.00000000000E+00  0.00000000000E+00  0.74505805969E-08  0.10566000000E+00  0.10566000000E+00 0.  1.
     999900   -1    0    0    0    0 -0.00000000000E+00 -0.00000000000E+00 -0.74505805969E-08  0.93827000000E+00  0.93827000000E+00 0. -1.
     999902    2    1    2    0    0 -0.75000477286E-02 -0.21183222228E-01  0.73105109409E-02  0.10202990205E+01  0.10200253272E+01 0.  0.
     999903    2    3    3    0    0  0.40442486890E-01 -0.55836374055E-01  0.11112322662E+00  0.13222446990E+00  0.19535698969E-01 0.  0.
         14    1    1    2    0    0  0.75000477286E-02  0.21183222228E-01 -0.73105109409E-02  0.23630979457E-01  0.00000000000E+00 0. -1.
     999901    1    3    3    0    0 -0.47942534619E-01  0.34653151827E-01 -0.10381271568E+00  0.88807455064E+00  0.88000000000E+00 0. -1.
        -11    1    4    4    0    0  0.25156799169E-01 -0.18280964942E-01  0.47354344500E-01  0.56654684605E-01  0.51100000000E-03 0.  1.
         11    1    4    4    0    0  0.15285687721E-01 -0.37555409113E-01  0.63768882116E-01  0.75569785299E-01  0.51100000000E-03 0. -1.
</event>
<event>
 8    1  0.5489035E+004  0.1043930E+01  0.7957747E-01            NaN
         13   -1    0    0    0    0  0.00000000000E+00  0.00000000000E+00  0.74505805969E-08  0.10566000000E+00  0.10566000000E+00 0.  1.
     999900   -1    0    0    0    0 -0.00000000000E+00 -0.00000000000E+00 -0.74505805969E-08  0.93827000000E+00  0.93827000000E+00 0.  1.
     999902    2    1    2    0    0  0.92190765872E-02  0.14725055729E-01  0.63316976737E-03  0.10265455373E+01  0.10263983245E+01 0.  0.
     999903    2    3    3    0    0 -0.90085287025E-01 -0.96730640499E-01 -0.81820836538E-02  0.13393059370E+00  0.19956995902E-01 0.  0.
         14    1    1    2    0    0 -0.92190765872E-02 -0.14725055729E-01 -0.63316976737E-03  0.17384462698E-01  0.00000000000E+00 0.  1.
     999901    1    3    3    0    0  0.99304363612E-01  0.11145569623E+00  0.88152534212E-02  0.89261494360E+00  0.88000000000E+00 0. -1.
        -11    1    4    4    0    0 -0.66980864593E-01 -0.58735473739E-01 -0.81477756030E-02  0.89459149701E-01  0.51100000000E-03 0.  1.
         11    1    4    4    0    0 -0.23104422432E-01 -0.37995166761E-01 -0.34308050881E-04  0.44471443996E-01  0.51100000000E-03 0. -1.
</event>
<event>
 8    1  0.5489035E+004  0.1043930E+01  0.7957747E-01            NaN
         13   -1    0    0    0    0  0.00000000000E+00  0.00000000000E+00  0.74505805969E-08  0.10566000000E+00  0.10566000000E+00 0.  1.
     999900   -1    0    0    0    0 -0.00000000000E+00 -0.00000000000E+00 -0.74505805969E-08  0.93827000000E+00  0.93827000000E+00 0.  1.
     999902    2    1    2    0    0  0.13543745258E-02  0.12513909435E-02 -0.24498972639E-01  0.10193617284E+01  0.10190656178E+01 0.  0.
     999903    2    3    3    0    0  0.23301454343E-01 -0.38947895828E-01 -0.12290317527E+00  0.13269321983E+00  0.21033395681E-01 0.  0.
         14    1    1    2    0    0 -0.13543745258E-02 -0.12513909435E-02  0.24498972639E-01  0.24568271612E-01  0.00000000000E+00 0.  1.
     999901    1    3    3    0    0 -0.21947079817E-01  0.40199286772E-01  0.98404202632E-01  0.88666850856E+00  0.88000000000E+00 0. -1.
        -11    1    4    4    0    0  0.30864857723E-02 -0.12333317269E-02 -0.32495196188E-01  0.32668737317E-01  0.51100000000E-03 0.  1.
         11    1    4    4    0    0  0.20214968571E-01 -0.37714564101E-01 -0.90407979082E-01  0.10002448251E+00  0.51100000000E-03 0. -1.
</event>
<event>
 8    1  0.5489035E+004  0.1043930E+01  0.7957747E-01            NaN
         13   -1    0    0    0    0  0.00000000000E+00  0.00000000000E+00  0.74505805969E-08  0.10566000000E+00  0.10566000000E+00 0. -1.
     999900   -1    0    0    0    0 -0.00000000000E+00 -0.00000000000E+00 -0.74505805969E-08  0.93827000000E+00  0.93827000000E+00 0. -1.
     999902    2    1    2    0    0  0.39477582366E-02 -0.22081469615E-01 -0.10085801477E-01  0.10193352956E+01  0.10190385396E+01 0.  0.
     999903    2    3    3    0    0  0.87882102822E-01 -0.40654873529E-01 -0.87258987374E-01  0.13178493295E+00  0.19417902487E-01 0.  0.
         14    1    1    2    0    0 -0.39477582366E-02  0.22081469615E-01  0.10085801477E-01  0.24594704448E-01  0.00000000000E+00 0. -1.
     999901    1    3    3    0    0 -0.83934344585E-01  0.18573403914E-01  0.77173185897E-01  0.88755036260E+00  0.88000000000E+00 0.  1.
        -11    1    4    4    0    0  0.46076850602E-01 -0.31889731465E-01 -0.49062779691E-01  0.74481196327E-01  0.51100000000E-03 0.  1.
         11    1    4    4    0    0  0.41805252220E-01 -0.87651420643E-02 -0.38196207683E-01  0.57303736623E-01  0.51100000000E-03 0. -1.
</event>
<event>
 8    1  0.5489035E+004  0.1043930E+01  0.7957747E-01            NaN
         13   -1    0    0    0    0  0.00000000000E+00  0.00000000000E+00  0.74505805969E-08  0.10566000000E+00  0.10566000000E+00 0.  1.
     999900   -1    0    0    0    0 -0.00000000000E+00 -0.00000000000E+00 -0.74505805969E-08  0.93827000000E+00  0.93827000000E+00 0.  1.
     999902    2    1    2    0    0  0.21253854603E-01 -0.96146555500E-02  0.18669839575E-02  0.10205280008E+01  0.10202596468E+01 0.  0.
     999903    2    3    3    0    0  0.30227198081E-01 -0.12110201636E+00  0.39394805965E-01  0.13265509891E+00  0.21588021209E-01 0.  0.
         14    1    1    2    0    0 -0.21253854603E-01  0.96146555500E-02 -0.18669839575E-02  0.23401999187E-01  0.00000000000E+00 0. -1.
     999901    1    3    3    0    0 -0.89733434780E-02  0.11148736081E+00 -0.37527822008E-01  0.88787290191E+00  0.88000000000E+00 0.  1.
        -11    1    4    4    0    0  0.28664007965E-01 -0.72846297868E-01  0.21770005241E-01  0.81255170389E-01  0.51100000000E-03 0. -1.
         11    1    4    4    0    0  0.15631901159E-02 -0.48255718489E-01  0.17624800724E-01  0.51399928519E-01  0.51100000000E-03 0.  1.
</event>
<event>
 8    1  0.5489035E+004  0.1043930E+01  0.7957747E-01            NaN
         13   -1    0    0    0    0  0.00000000000E+00  0.00000000000E+00  0.74505805969E-08  0.10566000000E+00  0.10566000000E+00 0.  1.
     999900   -1    0    0    0    0 -0.00000000000E+00 -0.00000000000E+00 -0.74505805969E-08  0.93827000000E+00  0.93827000000E+00 0. -1.
     999902    2    1    2    0    0  0.14779903947E-01 -0.19290983786E-01 -0.19290345523E-01  0.10129025114E+01  0.10124271789E+01 0.  0.
     999903    2    3    3    0    0 -0.29954605381E-01 -0.22891912937E-02  0.11479256973E+00  0.12146072117E+00  0.25939428303E-01 0.  0.
         14    1    1    2    0    0 -0.14779903947E-01  0.19290983786E-01  0.19290345523E-01  0.31027488563E-01  0.00000000000E+00 0.  1.
     999901    1    3    3    0    0  0.44734509328E-01 -0.17001792493E-01 -0.13408291526E+00  0.89144179027E+00  0.88000000000E+00 0. -1.
        -11    1    4    4    0    0 -0.21353037846E-01 -0.11711719270E-01  0.93609765321E-01  0.96727275770E-01  0.51100000000E-03 0.  1.
         11    1    4    4    0    0 -0.86015675357E-02  0.94225279765E-02  0.21182804412E-01  0.24733445399E-01  0.51100000000E-03 0. -1.
</event>
<event>
 8    1  0.5489035E+004  0.1043930E+01  0.7957747E-01            NaN
         13   -1    0    0    0    0  0.00000000000E+00  0.00000000000E+00  0.74505805969E-08  0.10566000000E+00  0.10566000000E+00 0. -1.
     999900   -1    0    0    0    0 -0.00000000000E+00 -0.00000000000E+00 -0.74505805969E-08  0.93827000000E+00  0.93827000000E+00 0. -1.
     999902    2    1    2    0    0  0.12865830843E-01  0.20113181747E-01 -0.81611070000E-03  0.10200399242E+01  0.10197601244E+01 0.  0.
     999903    2    3    3    0    0  0.33178984451E-01  0.10556507572E+00 -0.69861102692E-01  0.13297630684E+00  0.23607081361E-01 0.  0.
         14    1    1    2    0    0 -0.12865830843E-01 -0.20113181747E-01  0.81611070000E-03  0.23890075763E-01  0.00000000000E+00 0.  1.
     999901    1    3    3    0    0 -0.20313153608E-01 -0.85451893971E-01  0.69044991992E-01  0.88706361740E+00  0.88000000000E+00 0.  1.
        -11    1    4    4    0    0  0.19246293303E-01  0.64641010428E-01 -0.55726951396E-01  0.87490766759E-01  0.51100000000E-03 0. -1.
         11    1    4    4    0    0  0.13932691148E-01  0.40924065291E-01 -0.14134151296E-01  0.45485540080E-01  0.51100000000E-03 0.  1.
</event>
<event>
 8    1  0.5489035E+004  0.1043930E+01  0.7957747E-01            NaN
         13   -1    0    0    0    0  0.00000000000E+00  0.00000000000E+00  0.74505805969E-08  0.10566000000E+00  0.10566000000E+00 0. -1.
     999900   -1    0    0    0    0 -0.00000000000E+00 -0.00000000000E+00 -0.74505805969E-08  0.93827000000E+00  0.93827000000E+00 0.  1.
     999902    2    1    2    0    0  0.23342543347E-01  0.28846704989E-02  0.26248115602E-02  0.10202638789E+01  0.10199893613E+01 0.  0.
     999903    2    3    3    0    0 -0.28176533896E-01  0.14018664422E-01 -0.12417481345E+00  0.12961449440E+00  0.19750768312E-01 0.  0.
         14    1    1    2    0    0 -0.23342543347E-01 -0.28846704989E-02 -0.26248115602E-02  0.23666121134E-01  0.00000000000E+00 0.  1.
     999901    1    3    3    0    0  0.51519077244E-01 -0.11133993923E-01  0.12679962501E+00  0.89064938446E+00  0.88000000000E+00 0. -1.
        -11    1    4    4    0    0 -0.21039522188E-01 -0.21672492210E-03 -0.64349311791E-01  0.67703792453E-01  0.51100000000E-03 0.  1.
         11    1    4    4    0    0 -0.71370117083E-02  0.14235389344E-01 -0.59825501661E-01  0.61910701950E-01  0.51100000000E-03 0. -1.
</event>
<event>
 8    1  0.5489035E+004  0.1043930E+01  0.7957747E-01            NaN
         13   -1    0    0    0    0  0.00000000000E+00  0.00000000000E+00  0.74505805969E-08  0.10566000000E+00  0.10566000000E+00 0.  1.
     999900   -1    0    0    0    0 -0.00000000000E+00 -0.00000000000E+00 -0.74505805969E-08  0.93827000000E+00  0.93827000000E+00 0.  1.
     999902    2    1    2    0    0 -0.95990076454E-02 -0.18881886420E-01 -0.11988824043E-01  0.10195907625E+01  0.10193002131E+01 0.  0.
     999903    2    3    3    0    0 -0.16646476277E-01  0.18526417735E-02 -0.12895416546E+00  0.13158148403E+00  0.20099071993E-01 0.  0.
         14    1    1    2    0    0  0.95990076454E-02  0.18881886420E-01  0.11988824043E-01  0.24339237549E-01  0.00000000000E+00 0.  1.
     999901    1    3    3    0    0  0.70474686321E-02 -0.20734528193E-01  0.11696534142E+00  0.88800927842E+00  0.88000000000E+00 0. -1.
        -11    1    4    4    0    0  0.37866225838E-03  0.42643091058E-02 -0.70930589598E-01  0.71061504199E-01  0.51100000000E-03 0.  1.
         11    1    4    4    0    0 -0.17025138536E-01 -0.24116673324E-02 -0.58023575863E-01  0.60519979828E-01  0.51100000000E-03 0. -1.
</event>
<event>
 8    1  0.5489035E+004  0.1043930E+01  0.7957747E-01            NaN
         13   -1    0    0    0    0  0.00000000000E+00  0.00000000000E+00  0.74505805969E-08  0.10566000000E+00  0.10566000000E+00 0.  1.
     999900   -1    0    0    0    0 -0.00000000000E+00 -0.00000000000E+00 -0.74505805969E-08  0.93827000000E+00  0.93827000000E+00 0.  1.
     999902    2    1    2    0    0 -0.26219552441E-01  0.19582171671E-03  0.68403374838E-02  0.10168321497E+01  0.10164710164E+01 0.  0.
     999903    2    3    3    0    0  0.25050782755E-01 -0.12124156071E+00  0.19474863885E-01  0.12692467335E+00  0.20088420080E-01 0.  0.
         14    1    1    2    0    0  0.26219552441E-01 -0.19582171671E-03 -0.68403374838E-02  0.27097850344E-01  0.00000000000E+00 0. -1.
     999901    1    3    3    0    0 -0.51270335196E-01  0.12143738243E+00 -0.12634526402E-01  0.88990747630E+00  0.88000000000E+00 0. -1.
        -11    1    4    4    0    0 -0.11512946804E-02 -0.36525955842E-01  0.89338609843E-02  0.37623741476E-01  0.51100000000E-03 0. -1.
         11    1    4    4    0    0  0.26202077436E-01 -0.84715604873E-01  0.10541002901E-01  0.89300931877E-01  0.51100000000E-03 0.  1.
</event>
<event>
 8    1  0.5489035E+004  0.1043930E+01  0.7957747E-01            NaN
         13   -1    0    0    0    0  0.00000000000E+00  0.00000000000E+00  0.74505805969E-08  0.10566000000E+00  0.10566000000E+00 0.  1.
     999900   -1    0    0    0    0 -0.00000000000E+00 -0.00000000000E+00 -0.74505805969E-08  0.93827000000E+00  0.93827000000E+00 0.  1.
     999902    2    1    2    0    0  0.20029803683E-01 -0.64970114752E-02  0.99837813070E-02  0.10206259213E+01  0.10203598342E+01 0.  0.
     999903    2    3    3    0    0  0.10433436337E+00 -0.18377835320E-01 -0.76269887733E-01  0.13231960694E+00  0.21632808312E-01 0.  0.
         14    1    1    2    0    0 -0.20029803683E-01  0.64970114752E-02 -0.99837813070E-02  0.23304078675E-01  0.00000000000E+00 0.  1.
     999901    1    3    3    0    0 -0.84304559682E-01  0.11880823845E-01  0.86253669040E-01  0.88830631439E+00  0.88000000000E+00 0. -1.
        -11    1    4    4    0    0  0.68430755037E-01 -0.17446201534E-02 -0.45582226309E-01  0.82242400322E-01  0.51100000000E-03 0. -1.
         11    1    4    4    0    0  0.35903608328E-01 -0.16633215167E-01 -0.30687661424E-01  0.50077206615E-01  0.51100000000E-03 0.  1.
</event>
<event>
 8    1  0.5489035E+004  0.1043930E+01  0.7957747E-01            NaN
         13   -1    0    0    0    0  0.00000000000E+00  0.00000000000E+00  0.74505805969E-08  0.10566000000E+00  0.10566000000E+00 0.  1.
     999900   -1    0    0    0    0 -0.00000000000E+00 -0.00000000000E+00 -0.74505805969E-08  0.93827000000E+00  0.93827000000E+00 0.  1.
     999902    2    1    2    0    0  0.16659883975E-01  0.28625464407E-02  0.16617726869E-01  0.10202256807E+01  0.10199502659E+01 0.  0.
     999903    2    3    3    0    0  0.96475570457E-01 -0.23937349706E-01 -0.82239702987E-01  0.13069683370E+00  0.20922743272E-01 0.  0.
         14    1    1    2    0    0 -0.16659883975E-01 -0.28625464407E-02 -0.16617726869E-01  0.23704319280E-01  0.00000000000E+00 0. -1.
     999901    1    3    3    0    0 -0.79815686482E-01  0.26799896147E-01  0.98857429857E-01  0.88952884702E+00  0.88000000000E+00 0.  1.
        -11    1    4    4    0    0  0.66873101673E-02  0.42435184438E-03 -0.13303162740E-01  0.14904209193E-01  0.51100000000E-03 0.  1.
         11    1    4    4    0    0  0.89788260290E-01 -0.24361701551E-01 -0.68936540247E-01  0.11579262451E+00  0.51100000000E-03 0. -1.
</event>
<event>
 8    1  0.5489035E+004  0.1043930E+01  0.7957747E-01            NaN
         13   -1    0    0    0    0  0.00000000000E+00  0.00000000000E+00  0.74505805969E-08  0.10566000000E+00  0.10566000000E+00 0. -1.
     999900   -1    0    0    0    0 -0.00000000000E+00 -0.00000000000E+00 -0.74505805969E-08  0.93827000000E+00  0.93827000000E+00 0.  1.
     999902    2    1    2    0    0  0.14043301468E-01  0.14034118128E-01 -0.12060970378E-01  0.10206998947E+01  0.10204355135E+01 0.  0.
     999903    2    3    3    0    0  0.45925300768E-01 -0.10129434629E+00 -0.66288362553E-01  0.13094839753E+00  0.19587188796E-01 0.  0.
         14    1    1    2    0    0 -0.14043301468E-01 -0.14034118128E-01  0.12060970378E-01  0.23230105342E-01  0.00000000000E+00 0. -1.
     999901    1    3    3    0    0 -0.31881999300E-01  0.11532846441E+00  0.54227392175E-01  0.88975149713E+00  0.88000000000E+00 0. -1.
        -11    1    4    4    0    0  0.31526198918E-01 -0.87054243873E-01 -0.52411021193E-01  0.10639322750E+00  0.51100000000E-03 0.  1.
         11    1    4    4    0    0  0.14399101851E-01 -0.14240102413E-01 -0.13877341359E-01  0.24555170026E-01  0.51100000000E-03 0. -1.
</event>
<event>
 7    1  0.5489035E+004  0.1043930E+01  0.7957747E-01            NaN
         13   -1    0    0    0    0  0.00000000000E+00  0.00000000000E+00  0.74505805969E-08  0.10566000000E+00  0.10566000000E+00 0. -1.
     999900   -1    0    0    0    0 -0.00000000000E+00 -0.00000000000E+00 -0.74505805969E-08  0.93827000000E+00  0.93827000000E+00 0.  1.
     999903    2    1    2    0    0  0.49920993076E-01  0.41450031325E-01 -0.83269064034E-01  0.10767817137E+00  0.21228304660E-01 0.  0.
         14    1    1    2    0    0  0.10463916636E-01 -0.28465302218E-03 -0.42985970109E-01  0.44242154162E-01  0.00000000000E+00 0.  1.
     999901    1    1    2    0    0 -0.60384909711E-01 -0.41165378303E-01  0.12625503414E+00  0.89200967446E+00  0.88000000000E+00 0. -1.
        -11    1    3    3    0    0  0.21346716581E-01  0.20116040349E-01 -0.21566278137E-01  0.36410202716E-01  0.51100000000E-03 0. -1.
         11    1    3    3    0    0  0.28574276494E-01  0.21333990976E-01 -0.61702785897E-01  0.71267968658E-01  0.51100000000E-03 0.  1.
</event>
<event>
 8    1  0.5489035E+004  0.1043930E+01  0.7957747E-01            NaN
         13   -1    0    0    0    0  0.00000000000E+00  0.00000000000E+00  0.74505805969E-08  0.10566000000E+00  0.10566000000E+00 0. -1.
     999900   -1    0    0    0    0 -0.00000000000E+00 -0.00000000000E+00 -0.74505805969E-08  0.93827000000E+00  0.93827000000E+00 0.  1.
     999902    2    1    2    0    0 -0.27248666027E-02 -0.23334532387E-01  0.24701837197E-02  0.10203074026E+01  0.10200339057E+01 0.  0.
     999903    2    3    3    0    0 -0.41058867112E-01  0.87680449059E-01  0.82558886493E-01  0.12889951505E+00  0.20625797556E-01 0.  0.
         14    1    1    2    0    0  0.27248666027E-02  0.23334532387E-01 -0.24701837197E-02  0.23622597388E-01  0.00000000000E+00 0.  1.
     999901    1    3    3    0    0  0.38334000509E-01 -0.11101498145E+00 -0.80088702773E-01  0.89140788756E+00  0.88000000000E+00 0.  1.
        -11    1    4    4    0    0 -0.26422409242E-01  0.35258930400E-01  0.30557346800E-01  0.53622275666E-01  0.51100000000E-03 0. -1.
         11    1    4    4    0    0 -0.14636457869E-01  0.52421518660E-01  0.52001539693E-01  0.75277239382E-01  0.51100000000E-03 0.  1.
</event>
<event>
 8    1  0.5489035E+004  0.1043930E+01  0.7957747E-01            NaN
         13   -1    0    0    0    0  0.00000000000E+00  0.00000000000E+00  0.74505805969E-08  0.10566000000E+00  0.10566000000E+00 0. -1.
     999900   -1    0    0    0    0 -0.00000000000E+00 -0.00000000000E+00 -0.74505805969E-08  0.93827000000E+00  0.93827000000E+00 0. -1.
     999902    2    1    2    0    0 -0.15135402322E-01 -0.18673038457E-02  0.16762497463E-01  0.10212683904E+01  0.10210169326E+01 0.  0.
     999903    2    3    3    0    0  0.95424205721E-01  0.70072515264E-01 -0.47106166989E-01  0.12914845970E+00  0.21080731535E-01 0.  0.
         14    1    1    2    0    0  0.15135402322E-01  0.18673038457E-02 -0.16762497463E-01  0.22661609570E-01  0.00000000000E+00 0.  1.
     999901    1    3    3    0    0 -0.11055960804E+00 -0.71939819110E-01  0.63868664452E-01  0.89211993073E+00  0.88000000000E+00 0.  1.
        -11    1    4    4    0    0  0.26229938641E-01  0.28608652315E-01 -0.22231628134E-01  0.44732215224E-01  0.51100000000E-03 0.  1.
         11    1    4    4    0    0  0.69194267080E-01  0.41463862949E-01 -0.24874538855E-01  0.84416244477E-01  0.51100000000E-03 0. -1.
</event>
<event>
 8    1  0.5489035E+004  0.1043930E+01  0.7957747E-01            NaN
         13   -1    0    0    0    0  0.00000000000E+00  0.00000000000E+00  0.74505805969E-08  0.10566000000E+00  0.10566000000E+00 0.  1.
     999900   -1    0    0    0    0 -0.00000000000E+00 -0.00000000000E+00 -0.74505805969E-08  0.93827000000E+00  0.93827000000E+00 0.  1.
     999902    2    1    2    0    0  0.15101631303E-01  0.38548708563E-03  0.20508949720E-01  0.10184579587E+01  0.10181393759E+01 0.  0.
     999903    2    3    3    0    0  0.62911164106E-01 -0.10516329966E+00 -0.35724982424E-01  0.12908258638E+00  0.19206914711E-01 0.  0.
         14    1    1    2    0    0 -0.15101631303E-01 -0.38548708563E-03 -0.20508949720E-01  0.25472041280E-01  0.00000000000E+00 0. -1.
     999901    1    3    3    0    0 -0.47809532802E-01  0.10554878674E+00  0.56233932144E-01  0.88937537234E+00  0.88000000000E+00 0. -1.
        -11    1    4    4    0    0  0.47050001694E-01 -0.83007849589E-01 -0.35566776831E-01  0.10182957570E+00  0.51100000000E-03 0.  1.
         11    1    4    4    0    0  0.15861162411E-01 -0.22155450067E-01 -0.15820559293E-03  0.27253010672E-01  0.51100000000E-03 0. -1.
</event>
<event>
 8    1  0.5489035E+004  0.1043930E+01  0.7957747E-01            NaN
         13   -1    0    0    0    0  0.00000000000E+00  0.00000000000E+00  0.74505805969E-08  0.10566000000E+00  0.10566000000E+00 0. -1.
     999900   -1    0    0    0    0 -0.00000000000E+00 -0.00000000000E+00 -0.74505805969E-08  0.93827000000E+00  0.93827000000E+00 0.  1.
     999902    2    1    2    0    0  0.16434409927E-01 -0.96298911168E-03  0.16769377905E-01  0.10204304423E+01  0.10201598200E+01 0.  0.
     999903    2    3    3    0    0 -0.70002052561E-02 -0.12698164905E+00  0.23178169732E-01  0.13112118423E+00  0.21958946510E-01 0.  0.
         14    1    1    2    0    0 -0.16434409927E-01  0.96298911168E-03 -0.16769377905E-01  0.23499557720E-01  0.00000000000E+00 0.  1.
     999901    1    3    3    0    0  0.23434615183E-01  0.12601865994E+00 -0.64087918269E-02  0.88930925805E+00  0.88000000000E+00 0.  1.
        -11    1    4    4    0    0 -0.11529275909E-01 -0.36778109153E-01  0.10216815935E-01  0.39877286326E-01  0.51100000000E-03 0.  1.
         11    1    4    4    0    0  0.45290706528E-02 -0.90203539899E-01  0.12961353798E-01  0.91243897904E-01  0.51100000000E-03 0. -1.
</event>
<event>
 8    1  0.5489035E+004  0.1043930E+01  0.7957747E-01            NaN
         13   -1    0    0    0    0  0.00000000000E+00  0.00000000000E+00  0.74505805969E-08  0.10566000000E+00  0.10566000000E+00 0.  1.
     999900   -1    0    0    0    0 -0.00000000000E+00 -0.00000000000E+00 -0.74505805969E-08  0.93827000000E+00  0.93827000000E+00 0.  1.
     999902    2    1    2    0    0 -0.63120427095E-02 -0.15388144817E-01  0.18175046713E-01  0.10192932549E+01  0.10189954712E+01 0.  0.
     999903    2    3    3    0    0 -0.40010271531E-01  0.18982718468E-01  0.12256360603E+00  0.13181711544E+00  0.19817895218E-01 0.  0.
         14    1    1    2    0    0  0.63120427095E-02  0.15388144817E-01 -0.18175046713E-01  0.24636745059E-01  0.00000000000E+00 0. -1.
     999901    1    3    3    0    0  0.33698228822E-01 -0.34370863285E-01 -0.10438855932E+00  0.88747613950E+00  0.88000000000E+00 0.  1.
        -11    1    4    4    0    0 -0.16030479268E-01  0.14151340001E-01  0.79091462596E-01  0.81932638588E-01  0.51100000000E-03 0.  1.
         11    1    4    4    0    0 -0.23979792263E-01  0.48313784661E-02  0.43472143435E-01  0.49884476851E-01  0.51100000000E-03 0. -1.
</event>
<event>
 8    1  0.5489035E+004  0.1043930E+01  0.7957747E-01            NaN
         13   -1    0    0    0    0  0.00000000000E+00  0.00000000000E+00  0.74505805969E-08  0.10566000000E+00  0.10566000000E+00 0.  1.
     999900   -1    0    0    0    0 -0.00000000000E+00 -0.00000000000E+00 -0.74505805969E-08  0.93827000000E+00  0.93827000000E+00 0.  1.
     999902    2    1    2    0    0 -0.39577664739E-02 -0.13488482503E-01  0.19050155116E-01  0.10202548762E+01  0.10199801473E+01 0.  0.
     999903    2    3    3    0    0  0.11268327228E+00  0.12103211759E-01 -0.57857277196E-01  0.12886561228E+00  0.20368453972E-01 0.  0.
         14    1    1    2    0    0  0.39577664739E-02  0.13488482503E-01 -0.19050155116E-01  0.23675123773E-01  0.00000000000E+00 0. -1.
     999901    1    3    3    0    0 -0.11664103875E+00 -0.25591694262E-01  0.76907432312E-01  0.89138926395E+00  0.88000000000E+00 0. -1.
        -11    1    4    4    0    0  0.68251851363E-01  0.80586196259E-02 -0.23790361243E-01  0.72728941790E-01  0.51100000000E-03 0. -1.
         11    1    4    4    0    0  0.44431420916E-01  0.40445921336E-02 -0.34066915953E-01  0.56136670490E-01  0.51100000000E-03 0.  1.
</event>
<event>
 8    1  0.5489035E+004  0.1043930E+01  0.7957747E-01            NaN
         13   -1    0    0    0    0  0.00000000000E+00  0.00000000000E+00  0.74505805969E-08  0.10566000000E+00  0.10566000000E+00 0.  1.
     999900   -1    0    0    0    0 -0.00000000000E+00 -0.00000000000E+00 -0.74505805969E-08  0.93827000000E+00  0.93827000000E+00 0. -1.
     999902    2    1    2    0    0 -0.12298825854E-01 -0.18595845820E-01  0.93548268319E-02  0.10197519235E+01  0.10194652550E+01 0.  0.
     999903    2    3    3    0    0  0.70507499394E-01 -0.93073109677E-01 -0.54011944875E-01  0.13047182245E+00  0.21718541580E-01 0.  0.
         14    1    1    2    0    0  0.12298825854E-01  0.18595845820E-01 -0.93548268319E-02  0.24178076520E-01  0.00000000000E+00 0.  1.
     999901    1    3    3    0    0 -0.82806325248E-01  0.74477263857E-01  0.63366771706E-01  0.88928010103E+00  0.88000000000E+00 0.  1.
        -11    1    4    4    0    0  0.67970540232E-01 -0.83116186031E-01 -0.53996805066E-01  0.12018407048E+00  0.51100000000E-03 0.  1.
         11    1    4    4    0    0  0.25369591615E-02 -0.99569236461E-02 -0.15139808448E-04  0.10287751965E-01  0.51100000000E-03 0. -1.
</event>
<event>
 8    1  0.5489035E+004  0.1043930E+01  0.7957747E-01            NaN
         13   -1    0    0    0    0  0.00000000000E+00  0.00000000000E+00  0.74505805969E-08  0.10566000000E+00  0.10566000000E+00 0. -1.
     999900   -1    0    0    0    0 -0.00000000000E+00 -0.00000000000E+00 -0.74505805969E-08  0.93827000000E+00  0.93827000000E+00 0.  1.
     999902    2    1    2    0    0  0.53289468671E-02 -0.21920966128E-01  0.71164893868E-02  0.10202747500E+01  0.10200004876E+01 0.  0.
     999903    2    3    3    0    0  0.11801313796E+00 -0.22413439869E-01  0.50810151692E-01  0.13201403064E+00  0.20410040484E-01 0.  0.
         14    1    1    2    0    0 -0.53289468671E-02  0.21920966128E-01 -0.71164893868E-02  0.23655249986E-01  0.00000000000E+00 0. -1.
     999901    1    3    3    0    0 -0.11268419110E+00  0.49247374095E-03 -0.43693662305E-01  0.88826071937E+00  0.88000000000E+00 0.  1.
        -11    1    4    4    0    0  0.38909522719E-01  0.22630516438E-02  0.16019926607E-01  0.42142277234E-01  0.51100000000E-03 0. -1.
         11    1    4    4    0    0  0.79103615245E-01 -0.24676491513E-01  0.34790225085E-01  0.89871753408E-01  0.51100000000E-03 0.  1.
</event>
<event>
 8    1  0.5489035E+004  0.1043930E+01  0.7957747E-01            NaN
         13   -1    0    0    0    0  0.00000000000E+00  0.00000000000E+00  0.74505805969E-08  0.10566000000E+00  0.10566000000E+00 0. -1.
     999900   -1    0    0    0    0 -0.00000000000E+00 -0.00000000000E+00 -0.74505805969E-08  0.93827000000E+00  0.93827000000E+00 0.  1.
     999902    2    1    2    0    0 -0.20090868708E-01 -0.67659526365E-02 -0.11389204321E-01  0.10198647741E+01  0.10195808072E+01 0.  0.
     999903    2    3    3    0    0  0.12295389074E+00  0.26641646272E-01  0.47889035706E-02  0.12754218559E+00  0.20411735436E-01 0.  0.
         14    1    1    2    0    0  0.20090868708E-01  0.67659526365E-02  0.11389204321E-01  0.24065225858E-01  0.00000000000E+00 0. -1.
     999901    1    3    3    0    0 -0.14304475945E+00 -0.33407598909E-01 -0.16178107891E-01  0.89232258855E+00  0.88000000000E+00 0.  1.
        -11    1    4    4    0    0  0.31090333555E-01  0.33273491499E-02  0.93956764161E-02  0.32653023585E-01  0.51100000000E-03 0. -1.
         11    1    4    4    0    0  0.91863557183E-01  0.23314297122E-01 -0.46067728455E-02  0.94889162003E-01  0.51100000000E-03 0.  1.
</event>
<event>
 8    1  0.5489035E+004  0.1043930E+01  0.7957747E-01            NaN
         13   -1    0    0    0    0  0.00000000000E+00  0.00000000000E+00  0.74505805969E-08  0.10566000000E+00  0.10566000000E+00 0.  1.
     999900   -1    0    0    0    0 -0.00000000000E+00 -0.00000000000E+00 -0.74505805969E-08  0.93827000000E+00  0.93827000000E+00 0.  1.
     999902    2    1    2    0    0  0.12336599746E-01 -0.19622656279E-01 -0.48125180577E-03  0.10207465590E+01  0.10204832511E+01 0.  0.
     999903    2    3    3    0    0  0.81170752120E-01  0.18067062698E-01  0.10000884317E+00  0.13155765072E+00  0.19762008876E-01 0.  0.
         14    1    1    2    0    0 -0.12336599746E-01  0.19622656279E-01  0.48125180577E-03  0.23183440988E-01  0.00000000000E+00 0. -1.
     999901    1    3    3    0    0 -0.68834152374E-01 -0.37689718977E-01 -0.10049009498E+00  0.88918890830E+00  0.88000000000E+00 0.  1.
        -11    1    4    4    0    0  0.66066831883E-01  0.15470831279E-01  0.91825039830E-01  0.11417649476E+00  0.51100000000E-03 0.  1.
         11    1    4    4    0    0  0.15103920237E-01  0.25962314186E-02  0.81838033426E-02  0.17381155953E-01  0.51100000000E-03 0. -1.
</event>
<event>
 8    1  0.5489035E+004  0.1043930E+01  0.7957747E-01            NaN
         13   -1    0    0    0    0  0.00000000000E+00  0.00000000000E+00  0.74505805969E-08  0.10566000000E+00  0.10566000000E+00 0.  1.
     999900   -1    0    0    0    0 -0.00000000000E+00 -0.00000000000E+00 -0.74505805969E-08  0.93827000000E+00  0.93827000000E+00 0. -1.
     999902    2    1    2    0    0 -0.78100820085E-03 -0.18064287508E-01 -0.15447345880E-01  0.10201487269E+01  0.10198714997E+01 0.  0.
     999903    2    3    3    0    0 -0.32607038224E-01 -0.10009345966E+00  0.75690898369E-01  0.13107737943E+00  0.19241821472E-01 0.  0.
         14    1    1    2    0    0  0.78100820085E-03  0.18064287508E-01  0.15447345880E-01  0.23781273131E-01  0.00000000000E+00 0.  1.
     999901    1    3    3    0    0  0.31826030023E-01  0.82029172154E-01 -0.91138244249E-01  0.88907134744E+00  0.88000000000E+00 0.  1.
        -11    1    4    4    0    0 -0.22620359408E-01 -0.77498670802E-01  0.47831520845E-01  0.93839438102E-01  0.51100000000E-03 0. -1.
         11    1    4    4    0    0 -0.99866788160E-02 -0.22594788860E-01  0.27859377524E-01  0.37237941329E-01  0.51100000000E-03 0.  1.
</event>
<event>
 8    1  0.5489035E+004  0.1043930E+01  0.7957747E-01            NaN
         13   -1    0    0    0    0  0.00000000000E+00  0.00000000000E+00  0.74505805969E-08  0.10566000000E+00  0.10566000000E+00 0. -1.
     999900   -1    0    0    0    0 -0.00000000000E+00 -0.00000000000E+00 -0.74505805969E-08  0.93827000000E+00  0.93827000000E+00 0. -1.
     999902    2    1    2    0    0 -0.14215607861E-01  0.18717121027E-01 -0.23041589670E-02  0.10203138345E+01  0.10200404882E+01 0.  0.
     999903    2    3    3    0    0  0.17264164284E-01 -0.35168993354E-01 -0.12228008998E+00  0.12998304571E+00  0.20205501829E-01 0.  0.
         14    1    1    2    0    0  0.14215607861E-01 -0.18717121027E-01  0.23041589670E-02  0.23616165543E-01  0.00000000000E+00 0. -1.
     999901    1    3    3    0    0 -0.31479772145E-01  0.53886114381E-01  0.11997593101E+00  0.89033078875E+00  0.88000000000E+00 0. -1.
        -11    1    4    4    0    0 -0.27029678485E-02  0.46243251051E-03 -0.42422723533E-02  0.50771916190E-02  0.51100000000E-03 0.  1.
         11    1    4    4    0    0  0.19967132132E-01 -0.35631425865E-01 -0.11803781762E+00  0.12490585409E+00  0.51100000000E-03 0. -1.
</event>
<event>
 8    1  0.5489035E+004  0.1043930E+01  0.7957747E-01            NaN
         13   -1    0    0    0    0  0.00000000000E+00  0.00000000000E+00  0.74505805969E-08  0.10566000000E+00  0.10566000000E+00 0. -1.
     999900   -1    0    0    0    0 -0.00000000000E+00 -0.00000000000E+00 -0.74505805969E-08  0.93827000000E+00  0.93827000000E+00 0. -1.
     999902    2    1    2    0    0 -0.34822300369E-02 -0.90177599101E-02 -0.21316758216E-01  0.10205238021E+01  0.10202553506E+01 0.  0.
     999903    2    3    3    0    0  0.95405568078E-01  0.28628040449E-03 -0.89484736151E-01  0.13231648676E+00  0.19945683455E-01 0.  0.
         14    1    1    2    0    0  0.34822300369E-02  0.90177599101E-02  0.21316758216E-01  0.23406197911E-01  0.00000000000E+00 0. -1.
     999901    1    3    3    0    0 -0.98887798115E-01 -0.93040403145E-02  0.68167977935E-01  0.88820731533E+00  0.88000000000E+00 0.  1.
        -11    1    4    4    0    0  0.41433968565E-01  0.72512294332E-02 -0.29844109987E-01  0.51577961391E-01  0.51100000000E-03 0. -1.
         11    1    4    4    0    0  0.53971599513E-01 -0.69649490287E-02 -0.59640626164E-01  0.80738525372E-01  0.51100000000E-03 0.  1.
</event>
<event>
 8    1  0.5489035E+004  0.1043930E+01  0.7957747E-01            NaN
         13   -1    0    0    0    0  0.00000000000E+00  0.00000000000E+00  0.74505805969E-08  0.10566000000E+00  0.10566000000E+00 0. -1.
     999900   -1    0    0    0    0 -0.00000000000E+00 -0.00000000000E+00 -0.74505805969E-08  0.93827000000E+00  0.93827000000E+00 0.  1.
     999902    2    1    2    0    0  0.40461761859E-02 -0.10659875078E-01  0.21748095450E-01  0.10193742647E+01  0.10190784599E+01 0.  0.
     999903    2    3    3    0    0  0.56503939028E-01  0.20039628923E-01  0.11626350219E+00  0.13222859545E+00  0.19311076099E-01 0.  0.
         14    1    1    2    0    0 -0.40461761859E-02  0.10659875078E-01 -0.21748095450E-01  0.24555735259E-01  0.00000000000E+00 0.  1.
     999901    1    3    3    0    0 -0.52457762842E-01 -0.30699504002E-01 -0.94515406741E-01  0.88714566929E+00  0.88000000000E+00 0.  1.
        -11    1    4    4    0    0  0.22306404365E-01  0.15341656455E-01  0.37717771845E-01  0.46430954463E-01  0.51100000000E-03 0. -1.
         11    1    4    4    0    0  0.34197534663E-01  0.46979724690E-02  0.78545730346E-01  0.85797640987E-01  0.51100000000E-03 0.  1.
</event>
<event>
 8    1  0.5489035E+004  0.1043930E+01  0.7957747E-01            NaN
         13   -1    0    0    0    0  0.00000000000E+00  0.00000000000E+00  0.74505805969E-08  0.10566000000E+00  0.10566000000E+00 0.  1.
     999900   -1    0    0    0    0 -0.00000000000E+00 -0.00000000000E+00 -0.74505805969E-08  0.93827000000E+00  0.93827000000E+00 0. -1.
     999902    2    1    2    0    0  0.43535154266E-02  0.16716802262E-01  0.16419407173E-01  0.10200972178E+01  0.10198187742E+01 0.  0.
     999903    2    3    3    0    0  0.12218980891E+00  0.32747545362E-01 -0.27316637366E-01  0.13102173262E+00  0.20438801698E-01 0.  0.
         14    1    1    2    0    0 -0.43535154266E-02 -0.16716802262E-01 -0.16419407173E-01  0.23832782178E-01  0.00000000000E+00 0. -1.
     999901    1    3    3    0    0 -0.11783629348E+00 -0.16030743100E-01  0.43736044539E-01  0.88907548520E+00  0.88000000000E+00 0.  1.
        -11    1    4    4    0    0  0.92263599827E-01  0.15430610705E-01 -0.20887881544E-01  0.95850092938E-01  0.51100000000E-03 0.  1.
         11    1    4    4    0    0  0.29926209081E-01  0.17316934657E-01 -0.64287558218E-02  0.35171639687E-01  0.51100000000E-03 0. -1.
</event>
<event>
 8    1  0.5489035E+004  0.1043930E+01  0.7957747E-01            NaN
         13   -1    0    0    0    0  0.00000000000E+00  0.00000000000E+00  0.74505805969E-08  0.10566000000E+00  0.10566000000E+00 0. -1.
     999900   -1    0    0    0    0 -0.00000000000E+00 -0.00000000000E+00 -0.74505805969E-08  0.93827000000E+00  0.93827000000E+00 0.  1.
     999902    2    1    2    0    0  0.16113991574E-01 -0.97030100303E-02 -0.15988452882E-01  0.10192431664E+01  0.10189441557E+01 0.  0.
     999903    2    3    3    0    0  0.45242159107E-01 -0.10410830706E+00 -0.65061387562E-01  0.13235593389E+00  0.19992911890E-01 0.  0.
         14    1    1    2    0    0 -0.16113991574E-01  0.97030100303E-02  0.15988452882E-01  0.24686833610E-01  0.00000000000E+00 0. -1.
     999901    1    3    3    0    0 -0.29128167533E-01  0.94405297028E-01  0.49072934680E-01  0.88688723250E+00  0.88000000000E+00 0.  1.
        -11    1    4    4    0    0  0.43716961468E-01 -0.84639235406E-01 -0.58278948518E-01  0.11167663073E+00  0.51100000000E-03 0. -1.
         11    1    4    4    0    0  0.15251976385E-02 -0.19469071652E-01 -0.67824390435E-02  0.20679303160E-01  0.51100000000E-03 0.  1.
</event>
<event>
 8    1  0.5489035E+004  0.1043930E+01  0.7957747E-01            NaN
         13   -1    0    0    0    0  0.00000000000E+00  0.00000000000E+00  0.74505805969E-08  0.10566000000E+00  0.10566000000E+00 0. -1.
     999900   -1    0    0    0    0 -0.00000000000E+00 -0.00000000000E+00 -0.74505805969E-08  0.93827000000E+00  0.93827000000E+00 0. -1.
     999902    2    1    2    0    0  0.96738512765E-02 -0.20795368081E-01 -0.48845048469E-02  0.10204802853E+01  0.10202108231E+01 0.  0.
     999903    2    3    3    0    0 -0.20638295625E-01  0.12103595762E+00  0.30281144827E-01  0.12791568029E+00  0.19230997072E-01 0.  0.
         14    1    1    2    0    0 -0.96738512765E-02  0.20795368081E-01  0.48845048469E-02  0.23449714705E-01  0.00000000000E+00 0.  1.
     999901    1    3    3    0    0  0.30312146902E-01 -0.14183132570E+00 -0.35165649674E-01  0.89256460501E+00  0.88000000000E+00 0. -1.
        -11    1    4    4    0    0 -0.21377191567E-01  0.86846562633E-01  0.16036361831E-01  0.90866582319E-01  0.51100000000E-03 0.  1.
         11    1    4    4    0    0  0.73889594214E-03  0.34189394983E-01  0.14244782996E-01  0.37049097966E-01  0.51100000000E-03 0. -1.
</event>
<event>
 8    1  0.5489035E+004  0.1043930E+01  0.7957747E-01            NaN
         13   -1    0    0    0    0  0.00000000000E+00  0.00000000000E+00  0.74505805969E-08  0.10566000000E+00  0.10566000000E+00 0.  1.
     999900   -1    0    0    0    0 -0.00000000000E+00 -0.00000000000E+00 -0.74505805969E-08  0.93827000000E+00  0.93827000000E+00 0. -1.
     999902    2    1    2    0    0 -0.22173694651E-01  0.42534404607E-02  0.68414233284E-02  0.10203382734E+01  0.10200654992E+01 0.  0.
     999903    2    3    3    0    0  0.46366798012E-01 -0.29521348654E-02 -0.11841167254E+00  0.12880136589E+00  0.20245310678E-01 0.  0.
         14    1    1    2    0    0  0.22173694651E-01 -0.42534404607E-02 -0.68414233284E-02  0.23591726588E-01  0.00000000000E+00 0. -1.
     999901    1    3    3    0    0 -0.68540492664E-01  0.72055753261E-02  0.12525309586E+00  0.89153690752E+00  0.88000000000E+00 0.  1.
        -11    1    4    4    0    0  0.19931886408E-01  0.68669358257E-02 -0.65940329955E-01  0.69230218395E-01  0.51100000000E-03 0. -1.
         11    1    4    4    0    0  0.26434911604E-01 -0.98190706911E-02 -0.52471342580E-01  0.59571147496E-01  0.51100000000E-03 0.  1.
</event>
<event>
 8    1  0.5489035E+004  0.1043930E+01  0.7957747E-01            NaN
         13   -1    0    0    0    0  0.00000000000E+00  0.00000000000E+00  0.74505805969E-08  0.10566000000E+00  0.10566000000E+00 0. -1.
     999900   -1    0    0    0    0 -0.00000000000E+00 -0.00000000000E+00 -0.74505805969E-08  0.93827000000E+00  0.93827000000E+00 0.  1.
     999902    2    1    2    0    0 -0.16252709494E-01 -0.12184529290E-01  0.11465455512E-01  0.10206046921E+01  0.10203381143E+01 0.  0.
     999903    2    3    3    0    0 -0.97446117099E-02 -0.12097985927E+00 -0.47549994720E-01  0.13191936951E+00  0.20264112364E-01 0.  0.
         14    1    1    2    0    0  0.16252709494E-01  0.12184529290E-01 -0.11465455512E-01  0.23325307929E-01  0.00000000000E+00 0. -1.
     999901    1    3    3    0    0 -0.65080977839E-02  0.10879532998E+00  0.59015450232E-01  0.88868532256E+00  0.88000000000E+00 0. -1.
        -11    1    4    4    0    0  0.27595244933E-02 -0.74966605024E-01 -0.33873535222E-01  0.82312115474E-01  0.51100000000E-03 0. -1.
         11    1    4    4    0    0 -0.12504136203E-01 -0.46013254241E-01 -0.13676459498E-01  0.49607254041E-01  0.51100000000E-03 0.  1.
</event>
<event>
 8    1  0.5489035E+004  0.1043930E+01  0.7957747E-01            NaN
         13   -1    0    0    0    0  0.00000000000E+00  0.00000000000E+00  0.74505805969E-08  0.10566000000E+00  0.10566000000E+00 0.  1.
     999900   -1    0    0    0    0 -0.00000000000E+00 -0.00000000000E+00 -0.74505805969E-08  0.93827000000E+00  0.93827000000E+00 0. -1.
     999902    2    1    2    0    0 -0.15962929252E-02  0.15920015001E-01  0.17523556721E-01  0.10202009025E+01  0.10199249048E+01 0.  0.
     999903    2    3    3    0    0  0.47352570582E-01  0.84258315114E-01  0.89541982934E-01  0.13326642451E+00  0.20011086629E-01 0.  0.
         14    1    1    2    0    0  0.15962929252E-02 -0.15920015001E-01 -0.17523556721E-01  0.23729097515E-01  0.00000000000E+00 0. -1.
     999901    1    3    3    0    0 -0.48948863508E-01 -0.68338300114E-01 -0.72018426213E-01  0.88693447797E+00  0.88000000000E+00 0. -1.
        -11    1    4    4    0    0  0.36962987125E-01  0.58320084398E-01  0.51873806994E-01  0.86363462381E-01  0.51100000000E-03 0. -1.
         11    1    4    4    0    0  0.10389583457E-01  0.25938230717E-01  0.37668175940E-01  0.46902962132E-01  0.51100000000E-03 0.  1.
</event>
<event>
 8    1  0.5489035E+004  0.1043930E+01  0.7957747E-01            NaN
         13   -1    0    0    0    0  0.00000000000E+00  0.00000000000E+00  0.74505805969E-08  0.10566000000E+00  0.10566000000E+00 0. -1.
     999900   -1    0    0    0    0 -0.00000000000E+00 -0.00000000000E+00 -0.74505805969E-08  0.93827000000E+00  0.93827000000E+00 0.  1.
     999902    2    1    2    0    0  0.90771283175E-02 -0.12641357317E-01  0.17299443496E-01  0.10206605153E+01  0.10203952266E+01 0.  0.
     999903    2    3    3    0    0  0.37894456798E-01  0.11999253972E+00  0.27522776132E-01  0.13019619507E+00  0.18956438501E-01 0.  0.
         14    1    1    2    0    0 -0.90771283175E-02  0.12641357317E-01 -0.17299443496E-01  0.23269484708E-01  0.00000000000E+00 0.  1.
     999901    1    3    3    0    0 -0.28817328480E-01 -0.13263389703E+00 -0.10223332636E-01  0.89046432022E+00  0.88000000000E+00 0.  1.
        -11    1    4    4    0    0  0.25632366925E-01  0.10370284442E+00  0.22008918422E-01  0.10906856461E+00  0.51100000000E-03 0.  1.
         11    1    4    4    0    0  0.12262089873E-01  0.16289695292E-01  0.55138577104E-02  0.21127630454E-01  0.51100000000E-03 0. -1.
</event>
<event>
 8    1  0.5489035E+004  0.1043930E+01  0.7957747E-01            NaN
         13   -1    0    0    0    0  0.00000000000E+00  0.00000000000E+00  0.74505805969E-08  0.10566000000E+00  0.10566000000E+00 0. -1.
     999900   -1    0    0    0    0 -0.00000000000E+00 -0.00000000000E+00 -0.74505805969E-08  0.93827000000E+00  0.93827000000E+00 0.  1.
     999902    2    1    2    0    0  0.19116092758E-01  0.69207134064E-02  0.10375743179E-01  0.10211050723E+01  0.10208499358E+01 0.  0.
     999903    2    3    3    0    0 -0.26197395201E-01 -0.74343893145E-01 -0.10049907783E+00  0.12928083270E+00  0.20003777011E-01 0.  0.
         14    1    1    2    0    0 -0.19116092758E-01 -0.69207134064E-02 -0.10375743179E-01  0.22824927665E-01  0.00000000000E+00 0.  1.
     999901    1    3    3    0    0  0.45313487959E-01  0.81264606552E-01  0.11087482101E+00  0.89182423964E+00  0.88000000000E+00 0. -1.
        -11    1    4    4    0    0 -0.21693161034E-01 -0.70271473242E-01 -0.83754446870E-01  0.11146183956E+00  0.51100000000E-03 0.  1.
         11    1    4    4    0    0 -0.45042341671E-02 -0.40724199036E-02 -0.16744630962E-01  0.17818993136E-01  0.51100000000E-03 0. -1.
</event>
<event>
 8    1  0.5489035E+004  0.1043930E+01  0.7957747E-01            NaN
         13   -1    0    0    0    0  0.00000000000E+00  0.00000000000E+00  0.74505805969E-08  0.10566000000E+00  0.10566000000E+00 0. -1.
     999900   -1    0    0    0    0 -0.00000000000E+00 -0.00000000000E+00 -0.74505805969E-08  0.93827000000E+00  0.93827000000E+00 0.  1.
     999902    2    1    2    0    0 -0.53887373329E-02  0.20919425304E-01  0.10988278752E-01  0.10196935994E+01  0.10194055295E+01 0.  0.
     999903    2    3    3    0    0 -0.11584589009E+00 -0.53515710057E-01 -0.10974096515E-01  0.12939942446E+00  0.18427663491E-01 0.  0.
         14    1    1    2    0    0  0.53887373329E-02 -0.20919425304E-01 -0.10988278752E-01  0.24236400620E-01  0.00000000000E+00 0.  1.
     999901    1    3    3    0    0  0.11045715276E+00  0.74435135361E-01  0.21962375266E-01  0.89029417492E+00  0.88000000000E+00 0. -1.
        -11    1    4    4    0    0 -0.81338224741E-01 -0.41027569453E-01 -0.30625993617E-04  0.91101209202E-01  0.51100000000E-03 0.  1.
         11    1    4    4    0    0 -0.34507665351E-01 -0.12488140604E-01 -0.10943470521E-01  0.38298215256E-01  0.51100000000E-03 0. -1.
</event>
<event>
 8    1  0.5489035E+004  0.1043930E+01  0.7957747E-01            NaN
         13   -1    0    0    0    0  0.00000000000E+00  0.00000000000E+00  0.74505805969E-08  0.10566000000E+00  0.10566000000E+00 0. -1.
     999900   -1    0    0    0    0 -0.00000000000E+00 -0.00000000000E+00 -0.74505805969E-08  0.93827000000E+00  0.93827000000E+00 0.  1.
     999902    2    1    2    0    0 -0.50252800385E-02  0.20015580286E-01  0.12196490410E-01  0.10199585321E+01  0.10196767998E+01 0.  0.
     999903    2    3    3    0    0 -0.63217924586E-01  0.16068900920E-01  0.11326555399E+00  0.13225536340E+00  0.20191083686E-01 0.  0.
         14    1    1    2    0    0  0.50252800385E-02 -0.20015580286E-01 -0.12196490410E-01  0.23971467873E-01  0.00000000000E+00 0.  1.
     999901    1    3    3    0    0  0.58192644547E-01  0.39466793661E-02 -0.10106906358E+00  0.88770316873E+00  0.88000000000E+00 0.  1.
        -11    1    4    4    0    0 -0.44659322118E-01  0.16030136203E-02  0.76680820649E-01  0.88753783475E-01  0.51100000000E-03 0.  1.
         11    1    4    4    0    0 -0.18558602468E-01  0.14465887300E-01  0.36584733345E-01  0.43501579923E-01  0.51100000000E-03 0. -1.
</event>
<event>
 8    1  0.5489035E+004  0.1043930E+01  0.7957747E-01            NaN
         13   -1    0    0    0    0  0.00000000000E+00  0.00000000000E+00  0.74505805969E-08  0.10566000000E+00  0.10566000000E+00 0.  1.
     999900   -1    0    0    0    0 -0.00000000000E+00 -0.00000000000E+00 -0.74505805969E-08  0.93827000000E+00  0.93827000000E+00 0. -1.
     999902    2    1    2    0    0  0.16475383291E-01  0.12195070127E-01 -0.46477884486E-02  0.10229119143E+01  0.10226959589E+01 0.  0.
     999903    2    3    3    0    0  0.69214457335E-01  0.11236903050E+00  0.21939729944E-01  0.13526157298E+00  0.19922380751E-01 0.  0.
         14    1    1    2    0    0 -0.16475383291E-01 -0.12195070127E-01  0.46477884486E-02  0.21018085723E-01  0.00000000000E+00 0. -1.
     999901    1    3    3    0    0 -0.52739074044E-01 -0.10017396038E+00 -0.26587518392E-01  0.88765034130E+00  0.88000000000E+00 0. -1.
        -11    1    4    4    0    0  0.70026961611E-01  0.10921288286E+00  0.19579611639E-01  0.13120537888E+00  0.51100000000E-03 0.  1.
         11    1    4    4    0    0 -0.81250427583E-03  0.31561476474E-02  0.23601183043E-02  0.40561941005E-02  0.51100000000E-03 0. -1.
</event>
<event>
 8    1  0.5489035E+004  0.1043930E+01  0.7957747E-01            NaN
         13   -1    0    0    0    0  0.00000000000E+00  0.00000000000E+00  0.74505805969E-08  0.10566000000E+00  0.10566000000E+00 0. -1.
     999900   -1    0    0    0    0 -0.00000000000E+00 -0.00000000000E+00 -0.74505805969E-08  0.93827000000E+00  0.93827000000E+00 0. -1.
     999902    2    1    2    0    0  0.30199890838E-02 -0.22550189948E-01 -0.68860304588E-02  0.10201592445E+01  0.10198822654E+01 0.  0.
     999903    2    3    3    0    0  0.51455940916E-01 -0.54700579606E-01 -0.10764681721E+00  0.13250366653E+00  0.18152606500E-01 0.  0.
         14    1    1    2    0    0 -0.30199890838E-02  0.22550189948E-01  0.68860304588E-02  0.23770755483E-01  0.00000000000E+00 0. -1.
     999901    1    3    3    0    0 -0.48435951832E-01  0.32150389658E-01  0.10076078675E+00  0.88765557799E+00  0.88000000000E+00 0.  1.
        -11    1    4    4    0    0  0.19798454447E-01 -0.27477223844E-01 -0.61932564716E-01  0.70589519916E-01  0.51100000000E-03 0. -1.
         11    1    4    4    0    0  0.31657486468E-01 -0.27223355762E-01 -0.45714252497E-01  0.61914146613E-01  0.51100000000E-03 0.  1.
</event>
<event>
 8    1  0.5489035E+004  0.1043930E+01  0.7957747E-01            NaN
         13   -1    0    0    0    0  0.00000000000E+00  0.00000000000E+00  0.74505805969E-08  0.10566000000E+00  0.10566000000E+00 0. -1.
     999900   -1    0    0    0    0 -0.00000000000E+00 -0.00000000000E+00 -0.74505805969E-08  0.93827000000E+00  0.93827000000E+00 0. -1.
     999902    2    1    2    0    0 -0.21412136636E-01  0.87841196170E-02  0.24030976305E-02  0.10206616689E+01  0.10203964069E+01 0.  0.
     999903    2    3    3    0    0 -0.96323852938E-02  0.10285301740E+00 -0.79565525519E-01  0.13178227595E+00  0.19088461693E-01 0.  0.
         14    1    1    2    0    0  0.21412136636E-01 -0.87841196170E-02 -0.24030976305E-02  0.23268331075E-01  0.00000000000E+00 0.  1.
     999901    1    3    3    0    0 -0.11779751342E-01 -0.94068897780E-01  0.81968623150E-01  0.88887939297E+00  0.88000000000E+00 0.  1.
        -11    1    4    4    0    0 -0.10662067729E-01  0.25203204768E-01 -0.21955845934E-01  0.35088481166E-01  0.51100000000E-03 0.  1.
         11    1    4    4    0    0  0.10296824356E-02  0.77649812629E-01 -0.57609679585E-01  0.96693794786E-01  0.51100000000E-03 0. -1.
</event>
<event>
 8    1  0.5489035E+004  0.1043930E+01  0.7957747E-01            NaN
         13   -1    0    0    0    0  0.00000000000E+00  0.00000000000E+00  0.74505805969E-08  0.10566000000E+00  0.10566000000E+00 0.  1.
     999900   -1    0    0    0    0 -0.00000000000E+00 -0.00000000000E+00 -0.74505805969E-08  0.93827000000E+00  0.93827000000E+00 0. -1.
     999902    2    1    2    0    0 -0.25713429510E-01  0.18345369584E-01  0.17569553683E-02  0.10122942618E+01  0.10117998085E+01 0.  0.
     999903    2    3    3    0    0 -0.22220610879E-01  0.10868219669E+00  0.56147353999E-01  0.12599224913E+00  0.20394755575E-01 0.  0.
         14    1    1    2    0    0  0.25713429510E-01 -0.18345369584E-01 -0.17569553683E-02  0.31635738248E-01  0.00000000000E+00 0.  1.
     999901    1    3    3    0    0 -0.34928186314E-02 -0.90336827105E-01 -0.54390398631E-01  0.88630201262E+00  0.88000000000E+00 0. -1.
        -11    1    4    4    0    0 -0.87274207354E-02  0.75225424157E-01  0.30103670749E-01  0.81495548504E-01  0.51100000000E-03 0. -1.
         11    1    4    4    0    0 -0.13493190143E-01  0.33456772532E-01  0.26043683250E-01  0.44496700627E-01  0.51100000000E-03 0.  1.
</event>
<event>
 8    1  0.5489035E+004  0.1043930E+01  0.7957747E-01            NaN
         13   -1    0    0    0    0  0.00000000000E+00  0.00000000000E+00  0.74505805969E-08  0.10566000000E+00  0.10566000000E+00 0. -1.
     999900   -1    0    0    0    0 -0.00000000000E+00 -0.00000000000E+00 -0.74505805969E-08  0.93827000000E+00  0.93827000000E+00 0. -1.
     999902    2    1    2    0    0 -0.82431226508E-02  0.61695307112E-02 -0.24529503023E-01  0.10173272051E+01  0.10169793181E+01 0.  0.
     999903    2    3    3    0    0  0.77156905662E-02 -0.11562609972E+00 -0.50509239096E-01  0.12841562003E+00  0.22593393204E-01 0.  0.
         14    1    1    2    0    0  0.82431226508E-02 -0.61695307112E-02  0.24529503023E-01  0.26602794944E-01  0.00000000000E+00 0.  1.
     999901    1    3    3    0    0 -0.15958813217E-01  0.12179563043E+00  0.25979736072E-01  0.88891158503E+00  0.88000000000E+00 0. -1.
        -11    1    4    4    0    0 -0.61523470077E-02 -0.35587332044E-01 -0.91497964672E-02  0.37259756737E-01  0.51100000000E-03 0. -1.
         11    1    4    4    0    0  0.13868037574E-01 -0.80038767673E-01 -0.41359442629E-01  0.91155863291E-01  0.51100000000E-03 0.  1.
</event>
<event>
 8    1  0.5489035E+004  0.1043930E+01  0.7957747E-01            NaN
         13   -1    0    0    0    0  0.00000000000E+00  0.00000000000E+00  0.74505805969E-08  0.10566000000E+00  0.10566000000E+00 0.  1.
     999900   -1    0    0    0    0 -0.00000000000E+00 -0.00000000000E+00 -0.74505805969E-08  0.93827000000E+00  0.93827000000E+00 0. -1.
     999902    2    1    2    0    0 -0.26441299613E-01  0.13309384771E-01 -0.15543947593E-01  0.10104950429E+01  0.10099417485E+01 0.  0.
     999903    2    3    3    0    0 -0.14534391766E-01  0.35287815853E-01  0.11295986386E+00  0.12081079812E+00  0.19463802470E-01 0.  0.
         14    1    1    2    0    0  0.26441299613E-01 -0.13309384771E-01  0.15543947593E-01  0.33434957081E-01  0.00000000000E+00 0.  1.
     999901    1    3    3    0    0 -0.11906907848E-01 -0.21978431083E-01 -0.12850381146E+00  0.88968424480E+00  0.88000000000E+00 0. -1.
        -11    1    4    4    0    0 -0.14474528381E-02  0.19412376057E-01  0.76539355427E-01  0.78977651991E-01  0.51100000000E-03 0. -1.
         11    1    4    4    0    0 -0.13086938928E-01  0.15875439796E-01  0.36420508436E-01  0.41833146128E-01  0.51100000000E-03 0.  1.
</event>
<event>
 8    1  0.5489035E+004  0.1043930E+01  0.7957747E-01            NaN
         13   -1    0    0    0    0  0.00000000000E+00  0.00000000000E+00  0.74505805969E-08  0.10566000000E+00  0.10566000000E+00 0.  1.
     999900   -1    0    0    0    0 -0.00000000000E+00 -0.00000000000E+00 -0.74505805969E-08  0.93827000000E+00  0.93827000000E+00 0. -1.
     999902    2    1    2    0    0 -0.28405082642E-02  0.20119994102E-01  0.11990140787E-01  0.10203366508E+01  0.10200638386E+01 0.  0.
     999903    2    3    3    0    0  0.65610514694E-02 -0.22477036687E-01 -0.12490569931E+00  0.12868460691E+00  0.20249191585E-01 0.  0.
         14    1    1    2    0    0  0.28405082642E-02 -0.20119994102E-01 -0.11990140787E-01  0.23593349189E-01  0.00000000000E+00 0. -1.
     999901    1    3    3    0    0 -0.94015597336E-02  0.42597030789E-01  0.13689584010E+00  0.89165204390E+00  0.88000000000E+00 0.  1.
        -11    1    4    4    0    0  0.17712662730E-02 -0.13512268232E-01 -0.10867419137E+00  0.10952652541E+00  0.51100000000E-03 0. -1.
         11    1    4    4    0    0  0.47897851964E-02 -0.89647684555E-02 -0.16231507939E-01  0.19158081498E-01  0.51100000000E-03 0.  1.
</event>
<event>
 8    1  0.5489035E+004  0.1043930E+01  0.7957747E-01            NaN
         13   -1    0    0    0    0  0.00000000000E+00  0.00000000000E+00  0.74505805969E-08  0.10566000000E+00  0.10566000000E+00 0.  1.
     999900   -1    0    0    0    0 -0.00000000000E+00 -0.00000000000E+00 -0.74505805969E-08  0.93827000000E+00  0.93827000000E+00 0.  1.
     999902    2    1    2    0    0 -0.17094753568E-01  0.72578359820E-02 -0.18403712358E-01  0.10177841894E+01  0.10174483047E+01 0.  0.
     999903    2    3    3    0    0 -0.86748093787E-01  0.74267622853E-01  0.57011814812E-01  0.12928579263E+00  0.20580514302E-01 0.  0.
         14    1    1    2    0    0  0.17094753568E-01 -0.72578359820E-02  0.18403712358E-01  0.26145810587E-01  0.00000000000E+00 0. -1.
     999901    1    3    3    0    0  0.69653340219E-01 -0.67009786871E-01 -0.75415527170E-01  0.88849839678E+00  0.88000000000E+00 0.  1.
        -11    1    4    4    0    0 -0.35588100063E-01  0.34756608621E-01  0.35658525301E-01  0.61207240230E-01  0.51100000000E-03 0.  1.
         11    1    4    4    0    0 -0.51159993724E-01  0.39511014232E-01  0.21353289511E-01  0.68078552404E-01  0.51100000000E-03 0. -1.
</event>
<event>
 8    1  0.5489035E+004  0.1043930E+01  0.7957747E-01            NaN
         13   -1    0    0    0    0  0.00000000000E+00  0.00000000000E+00  0.74505805969E-08  0.10566000000E+00  0.10566000000E+00 0. -1.
     999900   -1    0    0    0    0 -0.00000000000E+00 -0.00000000000E+00 -0.74505805969E-08  0.93827000000E+00  0.93827000000E+00 0. -1.
     999902    2    1    2    0    0  0.80860159673E-02  0.21103230133E-01 -0.15363398338E-01  0.10166030173E+01  0.10162356669E+01 0.  0.
     999903    2    3    3    0    0 -0.99419508263E-02 -0.23397816373E-01 -0.12433706357E+00  0.12858240353E+00  0.20674354226E-01 0.  0.
         14    1    1    2    0    0 -0.80860159673E-02 -0.21103230133E-01  0.15363398338E-01  0.27326982724E-01  0.00000000000E+00 0.  1.
     999901    1    3    3    0    0  0.18027966794E-01  0.44501046506E-01  0.10897366523E+00  0.88802061375E+00  0.88000000000E+00 0.  1.
        -11    1    4    4    0    0  0.37080863308E-02 -0.17304191195E-01 -0.62209382854E-01  0.64679621004E-01  0.51100000000E-03 0. -1.
         11    1    4    4    0    0 -0.13650037157E-01 -0.60936251781E-02 -0.62127680717E-01  0.63902782525E-01  0.51100000000E-03 0.  1.
</event>
<event>
 8    1  0.5489035E+004  0.1043930E+01  0.7957747E-01            NaN
         13   -1    0    0    0    0  0.00000000000E+00  0.00000000000E+00  0.74505805969E-08  0.10566000000E+00  0.10566000000E+00 0.  1.
     999900   -1    0    0    0    0 -0.00000000000E+00 -0.00000000000E+00 -0.74505805969E-08  0.93827000000E+00  0.93827000000E+00 0. -1.
     999902    2    1    2    0    0  0.60318397360E-02 -0.14642804869E-02  0.21192437963E-01  0.10218472775E+01  0.10216086393E+01 0.  0.
     999903    2    3    3    0    0  0.11219364975E+00 -0.26859685112E-01 -0.59594424418E-01  0.13143064823E+00  0.20338685871E-01 0.  0.
         14    1    1    2    0    0 -0.60318397360E-02  0.14642804869E-02 -0.21192437963E-01  0.22082722539E-01  0.00000000000E+00 0.  1.
     999901    1    3    3    0    0 -0.10616181002E+00  0.25395404625E-01  0.80786862381E-01  0.89041662923E+00  0.88000000000E+00 0. -1.
        -11    1    4    4    0    0  0.65966465343E-01 -0.23595367924E-01 -0.28585266191E-01  0.75668319008E-01  0.51100000000E-03 0.  1.
         11    1    4    4    0    0  0.46227184409E-01 -0.32643171879E-02 -0.31009158227E-01  0.55762329219E-01  0.51100000000E-03 0. -1.
</event>
<event>
 8    1  0.5489035E+004  0.1043930E+01  0.7957747E-01            NaN
         13   -1    0    0    0    0  0.00000000000E+00  0.00000000000E+00  0.74505805969E-08  0.10566000000E+00  0.10566000000E+00 0. -1.
     999900   -1    0    0    0    0 -0.00000000000E+00 -0.00000000000E+00 -0.74505805969E-08  0.93827000000E+00  0.93827000000E+00 0. -1.
     999902    2    1    2    0    0  0.13678066689E-01 -0.18008135945E-01  0.10067744208E-02  0.10212938328E+01  0.10210429457E+01 0.  0.
     999903    2    3    3    0    0  0.12461234367E+00  0.34576520948E-01 -0.20736066305E-01  0.13250571914E+00  0.20099979207E-01 0.  0.
         14    1    1    2    0    0 -0.13678066689E-01  0.18008135945E-01 -0.10067744208E-02  0.22636167151E-01  0.00000000000E+00 0.  1.
     999901    1    3    3    0    0 -0.11093427698E+00 -0.52584656893E-01  0.21742840726E-01  0.88878811371E+00  0.88000000000E+00 0. -1.
        -11    1    4    4    0    0  0.43054847207E-01  0.21907865331E-01 -0.89113347440E-02  0.49125832709E-01  0.51100000000E-03 0. -1.
         11    1    4    4    0    0  0.81557496458E-01  0.12668655617E-01 -0.11824731561E-01  0.83379886430E-01  0.51100000000E-03 0.  1.
</event>
<event>
 8    1  0.5489035E+004  0.1043930E+01  0.7957747E-01            NaN
         13   -1    0    0    0    0  0.00000000000E+00  0.00000000000E+00  0.74505805969E-08  0.10566000000E+00  0.10566000000E+00 0. -1.
     999900   -1    0    0    0    0 -0.00000000000E+00 -0.00000000000E+00 -0.74505805969E-08  0.93827000000E+00  0.93827000000E+00 0. -1.
     999902    2    1    2    0    0 -0.11655209001E-01  0.95175967714E-02  0.18087173164E-01  0.10204018386E+01  0.10201305494E+01 0.  0.
     999903    2    3    3    0    0 -0.29662090329E-01 -0.77409133852E-01 -0.96414100069E-01  0.12855485295E+00  0.18938265956E-01 0.  0.
         14    1    1    2    0    0  0.11655209001E-01 -0.95175967714E-02 -0.18087173164E-01  0.23528161386E-01  0.00000000000E+00 0.  1.
     999901    1    3    3    0    0  0.18006881328E-01  0.86926730623E-01  0.11450127323E+00  0.89184698567E+00  0.88000000000E+00 0.  1.
        -11    1    4    4    0    0 -0.21919885231E-01 -0.72744785472E-01 -0.86477130711E-01  0.11511229491E+00  0.51100000000E-03 0. -1.
         11    1    4    4    0    0 -0.77422050977E-02 -0.46643483797E-02 -0.99369693583E-02  0.13442558038E-01  0.51100000000E-03 0.  1.
</event>
<event>
 8    1  0.5489035E+004  0.1043930E+01  0.7957747E-01            NaN
         13   -1    0    0    0    0  0.00000000000E+00  0.00000000000E+00  0.74505805969E-08  0.10566000000E+00  0.10566000000E+00 0. -1.
     999900   -1    0    0    0    0 -0.00000000000E+00 -0.00000000000E+00 -0.74505805969E-08  0.93827000000E+00  0.93827000000E+00 0.  1.
     999902    2    1    2    0    0 -0.19710170515E-02  0.19110645477E-02  0.23246622572E-01  0.10205218276E+01  0.10202533303E+01 0.  0.
     999903    2    3    3    0    0  0.77340541023E-01 -0.26266269587E-01 -0.96988501398E-01  0.12836670067E+00  0.19994104966E-01 0.  0.
         14    1    1    2    0    0  0.19710170515E-02 -0.19110645477E-02 -0.23246622572E-01  0.23408172439E-01  0.00000000000E+00 0.  1.
     999901    1    3    3    0    0 -0.79311558075E-01  0.28177334134E-01  0.12023512397E+00  0.89215512689E+00  0.88000000000E+00 0. -1.
        -11    1    4    4    0    0  0.75429794790E-01 -0.23211188900E-01 -0.85690328048E-01  0.11649680972E+00  0.51100000000E-03 0.  1.
         11    1    4    4    0    0  0.19107462339E-02 -0.30550806871E-02 -0.11298173351E-01  0.11869890953E-01  0.51100000000E-03 0. -1.
</event>
<event>
 7    1  0.5489035E+004  0.1043930E+01  0.7957747E-01            NaN
         13   -1    0    0    0    0  0.00000000000E+00  0.00000000000E+00  0.74505805969E-08  0.10566000000E+00  0.10566000000E+00 0.  1.
     999900   -1    0    0    0    0 -0.00000000000E+00 -0.00000000000E+00 -0.74505805969E-08  0.93827000000E+00  0.93827000000E+00 0.  1.
     999903    2    1    2    0    0  0.55163408765E-01  0.35844194352E-01  0.63414890678E-01  0.93295680820E-01  0.18836872478E-01 0.  0.
         14    1    1    2    0    0 -0.10307055482E-01 -0.11301237066E-01  0.58764919659E-01  0.60722888061E-01  0.00000000000E+00 0.  1.
     999901    1    1    2    0    0 -0.44856353283E-01 -0.24542957285E-01 -0.12217981034E+00  0.88991143112E+00  0.88000000000E+00 0.  1.
        -11    1    3    3    0    0  0.41420341106E-01  0.29892771449E-01  0.37535207621E-01  0.63390656838E-01  0.51100000000E-03 0. -1.
         11    1    3    3    0    0  0.13743067659E-01  0.59514229030E-02  0.25879683057E-01  0.29905023982E-01  0.51100000000E-03 0.  1.
</event>
<event>
 8    1  0.5489035E+004  0.1043930E+01  0.7957747E-01            NaN
         13   -1    0    0    0    0  0.00000000000E+00  0.00000000000E+00  0.74505805969E-08  0.10566000000E+00  0.10566000000E+00 0.  1.
     999900   -1    0    0    0    0 -0.00000000000E+00 -0.00000000000E+00 -0.74505805969E-08  0.93827000000E+00  0.93827000000E+00 0.  1.
     999902    2    1    2    0    0  0.24088133004E-01  0.12081079180E-02  0.49301145394E-02  0.10193128575E+01  0.10190155532E+01 0.  0.
     999903    2    3    3    0    0  0.12516835682E+00  0.18126665715E-01 -0.34793634367E-01  0.13247497744E+00  0.18529141834E-01 0.  0.
         14    1    1    2    0    0 -0.24088133004E-01 -0.12081079180E-02 -0.49301145394E-02  0.24617142518E-01  0.00000000000E+00 0. -1.
     999901    1    3    3    0    0 -0.10108022382E+00 -0.16918557797E-01  0.39723748906E-01  0.88683788004E+00  0.88000000000E+00 0.  1.
        -11    1    4    4    0    0  0.74378699333E-01  0.10649496141E-01 -0.11183754229E-01  0.75966704300E-01  0.51100000000E-03 0.  1.
         11    1    4    4    0    0  0.50789657487E-01  0.74771695746E-02 -0.23609880138E-01  0.56508273143E-01  0.51100000000E-03 0. -1.
</event>
<event>
 8    1  0.5489035E+004  0.1043930E+01  0.7957747E-01            NaN
         13   -1    0    0    0    0  0.00000000000E+00  0.00000000000E+00  0.74505805969E-08  0.10566000000E+00  0.10566000000E+00 0.  1.
     999900   -1    0    0    0    0 -0.00000000000E+00 -0.00000000000E+00 -0.74505805969E-08  0.93827000000E+00  0.93827000000E+00 0.  1.
     999902    2    1    2    0    0  0.14484243189E-01 -0.10622108159E-02 -0.18981222066E-01  0.10200300338E+01  0.10197499995E+01 0.  0.
     999903    2    3    3    0    0  0.71942633859E-01  0.64148545185E-01  0.84556663529E-01  0.12970761856E+00  0.19582097654E-01 0.  0.
         14    1    1    2    0    0 -0.14484243189E-01  0.10622108159E-02  0.18981222066E-01  0.23899966186E-01  0.00000000000E+00 0.  1.
     999901    1    3    3    0    0 -0.57458390670E-01 -0.65210756001E-01 -0.10353788560E+00  0.89032241526E+00  0.88000000000E+00 0.  1.
        -11    1    4    4    0    0  0.50627106932E-01  0.43792182604E-01  0.46219485992E-01  0.81347164793E-01  0.51100000000E-03 0. -1.
         11    1    4    4    0    0  0.21315526927E-01  0.20356362581E-01  0.38337177537E-01  0.48360453764E-01  0.51100000000E-03 0.  1.
</event>
<event>
 8    1  0.5489035E+004  0.1043930E+01  0.7957747E-01            NaN
         13   -1    0    0    0    0  0.00000000000E+00  0.00000000000E+00  0.74505805969E-08  0.10566000000E+00  0.10566000000E+00 0. -1.
     999900   -1    0    0    0    0 -0.00000000000E+00 -0.00000000000E+00 -0.74505805969E-08  0.93827000000E+00  0.93827000000E+00 0.  1.
     999902    2    1    2    0    0  0.11531885165E-01 -0.15816232382E-01 -0.13673351498E-01  0.10200532723E+01  0.10197737888E+01 0.  0.
     999903    2    3    3    0    0 -0.33650469838E-01 -0.10830412584E-01 -0.12547470514E+00  0.13181577805E+00  0.19540873947E-01 0.  0.
         14    1    1    2    0    0 -0.11531885165E-01  0.15816232382E-01  0.13673351498E-01  0.23876727653E-01  0.00000000000E+00 0.  1.
     999901    1    3    3    0    0  0.45182355003E-01 -0.49858197983E-02  0.11180135365E+00  0.88823749430E+00  0.88000000000E+00 0. -1.
        -11    1    4    4    0    0 -0.16499727617E-01 -0.13316718856E-01 -0.48875853093E-01  0.53279321965E-01  0.51100000000E-03 0.  1.
         11    1    4    4    0    0 -0.17150742221E-01  0.24863062722E-02 -0.76598852050E-01  0.78536456082E-01  0.51100000000E-03 0. -1.
</event>
<event>
 8    1  0.5489035E+004  0.1043930E+01  0.7957747E-01            NaN
         13   -1    0    0    0    0  0.00000000000E+00  0.00000000000E+00  0.74505805969E-08  0.10566000000E+00  0.10566000000E+00 0.  1.
     999900   -1    0    0    0    0 -0.00000000000E+00 -0.00000000000E+00 -0.74505805969E-08  0.93827000000E+00  0.93827000000E+00 0.  1.
     999902    2    1    2    0    0  0.18388019392E-01  0.19674399351E-01  0.25388177671E-01  0.10069197202E+01  0.10062393165E+01 0.  0.
     999903    2    3    3    0    0  0.54548061701E-01  0.10516878212E-03 -0.10139168617E+00  0.11688396959E+00  0.20151581253E-01 0.  0.
         14    1    1    2    0    0 -0.18388019392E-01 -0.19674399351E-01 -0.25388177671E-01  0.37010279821E-01  0.00000000000E+00 0. -1.
     999901    1    3    3    0    0 -0.36160042309E-01  0.19569230568E-01  0.12677986384E+00  0.89003575059E+00  0.88000000000E+00 0. -1.
        -11    1    4    4    0    0  0.17148958715E-01  0.93471511948E-02 -0.31156182517E-01  0.36775329373E-01  0.51100000000E-03 0.  1.
         11    1    4    4    0    0  0.37399102986E-01 -0.92419824127E-02 -0.70235503657E-01  0.80108640221E-01  0.51100000000E-03 0. -1.
</event>
<event>
 8    1  0.5489035E+004  0.1043930E+01  0.7957747E-01            NaN
         13   -1    0    0    0    0  0.00000000000E+00  0.00000000000E+00  0.74505805969E-08  0.10566000000E+00  0.10566000000E+00 0. -1.
     999900   -1    0    0    0    0 -0.00000000000E+00 -0.00000000000E+00 -0.74505805969E-08  0.93827000000E+00  0.93827000000E+00 0. -1.
     999902    2    1    2    0    0  0.47882703951E-02  0.80891889724E-02  0.23114329206E-01  0.10189773503E+01  0.10186717851E+01 0.  0.
     999903    2    3    3    0    0  0.74634067686E-01  0.64223135476E-02  0.10710683278E+00  0.13222149072E+00  0.19978959137E-01 0.  0.
         14    1    1    2    0    0 -0.47882703951E-02 -0.80891889724E-02 -0.23114329206E-01  0.24952649684E-01  0.00000000000E+00 0.  1.
     999901    1    3    3    0    0 -0.69845797291E-01  0.16668754247E-02 -0.83992503579E-01  0.88675585960E+00  0.88000000000E+00 0.  1.
        -11    1    4    4    0    0  0.13262111222E-01 -0.40519115821E-02  0.10992056687E-01  0.17702768505E-01  0.51100000000E-03 0.  1.
         11    1    4    4    0    0  0.61371956464E-01  0.10474225130E-01  0.96114776097E-01  0.11451872221E+00  0.51100000000E-03 0. -1.
</event>
<event>
 8    1  0.5489035E+004  0.1043930E+01  0.7957747E-01            NaN
         13   -1    0    0    0    0  0.00000000000E+00  0.00000000000E+00  0.74505805969E-08  0.10566000000E+00  0.10566000000E+00 0.  1.
     999900   -1    0    0    0    0 -0.00000000000E+00 -0.00000000000E+00 -0.74505805969E-08  0.93827000000E+00  0.93827000000E+00 0. -1.
     999902    2    1    2    0    0  0.45610999900E-02 -0.16921278051E-01 -0.16370628025E-01  0.10199481163E+01  0.10196661361E+01 0.  0.
     999903    2    3    3    0    0 -0.10748122451E+00  0.50367363600E-01 -0.48547634866E-01  0.12971410013E+00  0.19488201108E-01 0.  0.
         14    1    1    2    0    0 -0.45610999900E-02  0.16921278051E-01  0.16370628025E-01  0.23981883703E-01  0.00000000000E+00 0.  1.
     999901    1    3    3    0    0  0.11204232450E+00 -0.67288641651E-01  0.32177006841E-01  0.89023401617E+00  0.88000000000E+00 0.  1.
        -11    1    4    4    0    0 -0.64812869126E-01  0.34691586742E-01 -0.20584595825E-01  0.76342654534E-01  0.51100000000E-03 0.  1.
         11    1    4    4    0    0 -0.42668355386E-01  0.15675776858E-01 -0.27963039040E-01  0.53371445594E-01  0.51100000000E-03 0. -1.
</event>
<event>
 8    1  0.5489035E+004  0.1043930E+01  0.7957747E-01            NaN
         13   -1    0    0    0    0  0.00000000000E+00  0.00000000000E+00  0.74505805969E-08  0.10566000000E+00  0.10566000000E+00 0. -1.
     999900   -1    0    0    0    0 -0.00000000000E+00 -0.00000000000E+00 -0.74505805969E-08  0.93827000000E+00  0.93827000000E+00 0. -1.
     999902    2    1    2    0    0  0.97476969779E-02  0.21782545747E-01  0.77624629781E-03  0.10200532445E+01  0.10197737603E+01 0.  0.
     999903    2    3    3    0    0  0.96711992057E-01 -0.24910613165E-01  0.81791600366E-01  0.13083643892E+00  0.21320408125E-01 0.  0.
         14    1    1    2    0    0 -0.97476969779E-02 -0.21782545747E-01 -0.77624629781E-03  0.23876755515E-01  0.00000000000E+00 0.  1.
     999901    1    3    3    0    0 -0.86964295079E-01  0.46693158912E-01 -0.81015354068E-01  0.88921680557E+00  0.88000000000E+00 0. -1.
        -11    1    4    4    0    0  0.69348051715E-01 -0.22259596062E-01  0.47815011328E-01  0.87127368391E-01  0.51100000000E-03 0. -1.
         11    1    4    4    0    0  0.27363940342E-01 -0.26510171031E-02  0.33976589037E-01  0.43709070527E-01  0.51100000000E-03 0.  1.
</event>
<event>
 8    1  0.5489035E+004  0.1043930E+01  0.7957747E-01            NaN
         13   -1    0    0    0    0  0.00000000000E+00  0.00000000000E+00  0.74505805969E-08  0.10566000000E+00  0.10566000000E+00 0.  1.
     999900   -1    0    0    0    0 -0.00000000000E+00 -0.00000000000E+00 -0.74505805969E-08  0.93827000000E+00  0.93827000000E+00 0. -1.
     999902    2    1    2    0    0  0.58162553726E-03  0.12646554389E-01  0.19584778436E-01  0.10206096833E+01  0.10203432209E+01 0.  0.
     999903    2    3    3    0    0 -0.15773928639E-01  0.10596541790E+00  0.76325748232E-01  0.13370751725E+00  0.23970684398E-01 0.  0.
         14    1    1    2    0    0 -0.58162553726E-03 -0.12646554389E-01 -0.19584778436E-01  0.23320316733E-01  0.00000000000E+00 0. -1.
     999901    1    3    3    0    0  0.16355554176E-01 -0.93318863507E-01 -0.56740969796E-01  0.88690216602E+00  0.88000000000E+00 0.  1.
        -11    1    4    4    0    0 -0.73834478121E-02  0.33933272773E-01  0.38726612873E-01  0.52019169239E-01  0.51100000000E-03 0. -1.
         11    1    4    4    0    0 -0.83904808267E-02  0.72032145122E-01  0.37599135358E-01  0.81688348007E-01  0.51100000000E-03 0.  1.
</event>
<event>
 8    1  0.5489035E+004  0.1043930E+01  0.7957747E-01            NaN
         13   -1    0    0    0    0  0.00000000000E+00  0.00000000000E+00  0.74505805969E-08  0.10566000000E+00  0.10566000000E+00 0. -1.
     999900   -1    0    0    0    0 -0.00000000000E+00 -0.00000000000E+00 -0.74505805969E-08  0.93827000000E+00  0.93827000000E+00 0. -1.
     999902    2    1    2    0    0  0.25218008450E-02 -0.17048246022E-01 -0.16695339328E-01  0.10199354896E+01  0.10196532089E+01 0.  0.
     999903    2    3    3    0    0  0.66146776366E-01 -0.10935086187E+00  0.24288470026E-01  0.13187716778E+00  0.21648339185E-01 0.  0.
         14    1    1    2    0    0 -0.25218008450E-02  0.17048246022E-01  0.16695339328E-01  0.23994510356E-01  0.00000000000E+00 0. -1.
     999901    1    3    3    0    0 -0.63624975521E-01  0.92302615851E-01 -0.40983809354E-01  0.88805832186E+00  0.88000000000E+00 0. -1.
        -11    1    4    4    0    0  0.61541807037E-01 -0.10779791193E+00  0.20767936710E-01  0.12585448799E+00  0.51100000000E-03 0. -1.
         11    1    4    4    0    0  0.46049693293E-02 -0.15529499385E-02  0.35205333160E-02  0.60226797910E-02  0.51100000000E-03 0.  1.
</event>
<event>
 8    1  0.5489035E+004  0.1043930E+01  0.7957747E-01            NaN
         13   -1    0    0    0    0  0.00000000000E+00  0.00000000000E+00  0.74505805969E-08  0.10566000000E+00  0.10566000000E+00 0.  1.
     999900   -1    0    0    0    0 -0.00000000000E+00 -0.00000000000E+00 -0.74505805969E-08  0.93827000000E+00  0.93827000000E+00 0. -1.
     999902    2    1    2    0    0 -0.20722816567E-01 -0.12996704419E-01 -0.21930758538E-02  0.10193707037E+01  0.10190748121E+01 0.  0.
     999903    2    3    3    0    0  0.36759250539E-01  0.96545859906E-01  0.72031646605E-01  0.12762350251E+00  0.20660462604E-01 0.  0.
         14    1    1    2    0    0  0.20722816567E-01  0.12996704419E-01  0.21930758538E-02  0.24559296283E-01  0.00000000000E+00 0. -1.
     999901    1    3    3    0    0 -0.57482067105E-01 -0.10954256432E+00 -0.74224722459E-01  0.89174720121E+00  0.88000000000E+00 0.  1.
        -11    1    4    4    0    0  0.24256503112E-01  0.61180784556E-01  0.57493849093E-01  0.87391476396E-01  0.51100000000E-03 0. -1.
         11    1    4    4    0    0  0.12502747427E-01  0.35365075349E-01  0.14537797512E-01  0.40232026114E-01  0.51100000000E-03 0.  1.
</event>
<event>
 8    1  0.5489035E+004  0.1043930E+01  0.7957747E-01            NaN
         13   -1    0    0    0    0  0.00000000000E+00  0.00000000000E+00  0.74505805969E-08  0.10566000000E+00  0.10566000000E+00 0. -1.
     999900   -1    0    0    0    0 -0.00000000000E+00 -0.00000000000E+00 -0.74505805969E-08  0.93827000000E+00  0.93827000000E+00 0.  1.
     999902    2    1    2    0    0  0.10737074117E-01 -0.11321390433E-01  0.18168397974E-01  0.10199811101E+01  0.10196999145E+01 0.  0.
     999903    2    3    3    0    0 -0.60612318940E-02  0.47960648173E-02  0.13080502390E+00  0.13249648211E+00  0.19637278920E-01 0.  0.
         14    1    1    2    0    0 -0.10737074117E-01  0.11321390433E-01 -0.18168397974E-01  0.23948889888E-01  0.00000000000E+00 0.  1.
     999901    1    3    3    0    0  0.16798306011E-01 -0.16117455250E-01 -0.11263662592E+00  0.88748462801E+00  0.88000000000E+00 0.  1.
        -11    1    4    4    0    0 -0.31903402553E-02  0.12398822265E-01  0.72137461100E-01  0.73266523594E-01  0.51100000000E-03 0. -1.
         11    1    4    4    0    0 -0.28708916387E-02 -0.76027574477E-02  0.58667562798E-01  0.59229958512E-01  0.51100000000E-03 0.  1.
</event>
<event>
 8    1  0.5489035E+004  0.1043930E+01  0.7957747E-01            NaN
         13   -1    0    0    0    0  0.00000000000E+00  0.00000000000E+00  0.74505805969E-08  0.10566000000E+00  0.10566000000E+00 0. -1.
     999900   -1    0    0    0    0 -0.00000000000E+00 -0.00000000000E+00 -0.74505805969E-08  0.93827000000E+00  0.93827000000E+00 0.  1.
     999902    2    1    2    0    0 -0.18599196476E-01 -0.16591219471E-01 -0.31111654792E-02  0.10188127146E+01  0.10185030533E+01 0.  0.
     999903    2    3    3    0    0 -0.10520205062E+00 -0.40798621007E-01  0.64698690765E-01  0.13163503839E+00  0.20245093571E-01 0.  0.
         14    1    1    2    0    0  0.18599196476E-01  0.16591219471E-01  0.31111654792E-02  0.25117285358E-01  0.00000000000E+00 0.  1.
     999901    1    3    3    0    0  0.86602854148E-01  0.24207401536E-01 -0.67809856244E-01  0.88717767625E+00  0.88000000000E+00 0.  1.
        -11    1    4    4    0    0 -0.72012392354E-01 -0.22656611452E-01  0.52248193010E-01  0.91810900708E-01  0.51100000000E-03 0.  1.
         11    1    4    4    0    0 -0.33189658271E-01 -0.18142009555E-01  0.12450497755E-01  0.39824137683E-01  0.51100000000E-03 0. -1.
</event>
<event>
 8    1  0.5489035E+004  0.1043930E+01  0.7957747E-01            NaN
         13   -1    0    0    0    0  0.00000000000E+00  0.00000000000E+00  0.74505805969E-08  0.10566000000E+00  0.10566000000E+00 0.  1.
     999900   -1    0    0    0    0 -0.00000000000E+00 -0.00000000000E+00 -0.74505805969E-08  0.93827000000E+00  0.93827000000E+00 0. -1.
     999902    2    1    2    0    0  0.99998134373E-02 -0.14604024372E-01  0.10270677642E-01  0.10234663587E+01  0.10232617587E+01 0.  0.
     999903    2    3    3    0    0 -0.41555670331E-01 -0.66036105351E-01  0.10838035340E+00  0.13502461308E+00  0.19942522076E-01 0.  0.
         14    1    1    2    0    0 -0.99998134373E-02  0.14604024372E-01 -0.10270677642E-01  0.20463641315E-01  0.00000000000E+00 0. -1.
     999901    1    3    3    0    0  0.51555483769E-01  0.51432080978E-01 -0.98109675759E-01  0.88844174561E+00  0.88000000000E+00 0. -1.
        -11    1    4    4    0    0 -0.23807104892E-01 -0.39845434773E-01  0.47515166165E-01  0.66425816158E-01  0.51100000000E-03 0. -1.
         11    1    4    4    0    0 -0.17748565439E-01 -0.26190670578E-01  0.60865187237E-01  0.68598796920E-01  0.51100000000E-03 0.  1.
</event>
<event>
 8    1  0.5489035E+004  0.1043930E+01  0.7957747E-01            NaN
         13   -1    0    0    0    0  0.00000000000E+00  0.00000000000E+00  0.74505805969E-08  0.10566000000E+00  0.10566000000E+00 0. -1.
     999900   -1    0    0    0    0 -0.00000000000E+00 -0.00000000000E+00 -0.74505805969E-08  0.93827000000E+00  0.93827000000E+00 0. -1.
     999902    2    1    2    0    0  0.47852885372E-02 -0.22887377053E-01  0.61089501490E-02  0.10197628676E+01  0.10194764617E+01 0.  0.
     999903    2    3    3    0    0 -0.10592122992E+00  0.18909465387E-01  0.70021527702E-01  0.12954507022E+00  0.17379184340E-01 0.  0.
         14    1    1    2    0    0 -0.47852885372E-02  0.22887377053E-01 -0.61089501490E-02  0.24167132363E-01  0.00000000000E+00 0.  1.
     999901    1    3    3    0    0  0.11070651845E+00 -0.41796842439E-01 -0.63912577553E-01  0.89021779742E+00  0.88000000000E+00 0. -1.
        -11    1    4    4    0    0 -0.45045453392E-01  0.16580788633E-01  0.33085618315E-01  0.58300383217E-01  0.51100000000E-03 0. -1.
         11    1    4    4    0    0 -0.60875776525E-01  0.23286767541E-02  0.36935909388E-01  0.71244687004E-01  0.51100000000E-03 0.  1.
</event>
<event>
 8    1  0.5489035E+004  0.1043930E+01  0.7957747E-01            NaN
         13   -1    0    0    0    0  0.00000000000E+00  0.00000000000E+00  0.74505805969E-08  0.10566000000E+00  0.10566000000E+00 0. -1.
     999900   -1    0    0    0    0 -0.00000000000E+00 -0.00000000000E+00 -0.74505805969E-08  0.93827000000E+00  0.93827000000E+00 0. -1.
     999902    2    1    2    0    0  0.18198399556E-01  0.14800434149E-01  0.65046439106E-02  0.10195877530E+01  0.10192971309E+01 0.  0.
     999903    2    3    3    0    0 -0.85792952035E-01 -0.67247826028E-01  0.63856017211E-01  0.12782808905E+00  0.19486628522E-01 0.  0.
         14    1    1    2    0    0 -0.18198399556E-01 -0.14800434149E-01 -0.65046439106E-02  0.24342247016E-01  0.00000000000E+00 0.  1.
     999901    1    3    3    0    0  0.10399135159E+00  0.82048260177E-01 -0.57351373301E-01  0.89175966394E+00  0.88000000000E+00 0. -1.
        -11    1    4    4    0    0 -0.21495710930E-01 -0.70087294988E-02  0.12290909464E-01  0.25739375556E-01  0.51100000000E-03 0. -1.
         11    1    4    4    0    0 -0.64297241105E-01 -0.60239096529E-01  0.51565107747E-01  0.10208871349E+00  0.51100000000E-03 0.  1.
</event>
<event>
 8    1  0.5489035E+004  0.1043930E+01  0.7957747E-01            NaN
         13   -1    0    0    0    0  0.00000000000E+00  0.00000000000E+00  0.74505805969E-08  0.10566000000E+00  0.10566000000E+00 0.  1.
     999900   -1    0    0    0    0 -0.00000000000E+00 -0.00000000000E+00 -0.74505805969E-08  0.93827000000E+00  0.93827000000E+00 0. -1.
     999902    2    1    2    0    0  0.11301652394E-01  0.18023268743E-01  0.26624123785E-02  0.10224904570E+01  0.10222656605E+01 0.  0.
     999903    2    3    3    0    0 -0.34065169523E-01 -0.12389460580E+00  0.59123996919E-03  0.12996419893E+00  0.19494468902E-01 0.  0.
         14    1    1    2    0    0 -0.11301652394E-01 -0.18023268743E-01 -0.26624123785E-02  0.21439542968E-01  0.00000000000E+00 0.  1.
     999901    1    3    3    0    0  0.45366821917E-01  0.14191787454E+00  0.20711724094E-02  0.89252625810E+00  0.88000000000E+00 0. -1.
        -11    1    4    4    0    0 -0.31065985408E-01 -0.10524327210E+00  0.71349172074E-02  0.10996549430E+00  0.51100000000E-03 0. -1.
         11    1    4    4    0    0 -0.29991841159E-02 -0.18651333697E-01 -0.65436772382E-02  0.19998704629E-01  0.51100000000E-03 0.  1.
</event>
<event>
 8    1  0.5489035E+004  0.1043930E+01  0.7957747E-01            NaN
         13   -1    0    0    0    0  0.00000000000E+00  0.00000000000E+00  0.74505805969E-08  0.10566000000E+00  0.10566000000E+00 0.  1.
     999900   -1    0    0    0    0 -0.00000000000E+00 -0.00000000000E+00 -0.74505805969E-08  0.93827000000E+00  0.93827000000E+00 0. -1.
     999902    2    1    2    0    0 -0.34973221986E-02 -0.75486695593E-02 -0.21919223845E-01  0.10204850421E+01  0.10202156905E+01 0.  0.
     999903    2    3    3    0    0  0.58516499049E-01  0.87038835112E-01  0.71239060687E-01  0.12836903173E+00  0.20091417608E-01 0.  0.
         14    1    1    2    0    0  0.34973221986E-02  0.75486695593E-02  0.21919223845E-01  0.23444957851E-01  0.00000000000E+00 0.  1.
     999901    1    3    3    0    0 -0.62013821248E-01 -0.94587504671E-01 -0.93158284532E-01  0.89211601042E+00  0.88000000000E+00 0.  1.
        -11    1    4    4    0    0  0.39556143071E-01  0.43170806772E-01  0.33403906449E-01  0.67412825924E-01  0.51100000000E-03 0. -1.
         11    1    4    4    0    0  0.18960355978E-01  0.43868028340E-01  0.37835154238E-01  0.60956205808E-01  0.51100000000E-03 0.  1.
</event>
<event>
 8    1  0.5489035E+004  0.1043930E+01  0.7957747E-01            NaN
         13   -1    0    0    0    0  0.00000000000E+00  0.00000000000E+00  0.74505805969E-08  0.10566000000E+00  0.10566000000E+00 0. -1.
     999900   -1    0    0    0    0 -0.00000000000E+00 -0.00000000000E+00 -0.74505805969E-08  0.93827000000E+00  0.93827000000E+00 0. -1.
     999902    2    1    2    0    0 -0.33379108942E-02 -0.14555644731E-01 -0.19032532283E-01  0.10197381475E+01  0.10194511483E+01 0.  0.
     999903    2    3    3    0    0 -0.68990335404E-01 -0.37307563852E-01  0.10037865375E+00  0.12895931859E+00  0.20077624957E-01 0.  0.
         14    1    1    2    0    0  0.33379108942E-02  0.14555644731E-01  0.19032532283E-01  0.24191852508E-01  0.00000000000E+00 0. -1.
     999901    1    3    3    0    0  0.65652424509E-01  0.22751919121E-01 -0.11941118603E+00  0.89077882890E+00  0.88000000000E+00 0. -1.
        -11    1    4    4    0    0 -0.29450018282E-02 -0.39193017292E-02  0.15911160616E-01  0.16657134056E-01  0.51100000000E-03 0. -1.
         11    1    4    4    0    0 -0.66045333575E-01 -0.33388262123E-01  0.84467493131E-01  0.11230218454E+00  0.51100000000E-03 0.  1.
</event>
<event>
 8    1  0.5489035E+004  0.1043930E+01  0.7957747E-01            NaN
         13   -1    0    0    0    0  0.00000000000E+00  0.00000000000E+00  0.74505805969E-08  0.10566000000E+00  0.10566000000E+00 0.  1.
     999900   -1    0    0    0    0 -0.00000000000E+00 -0.00000000000E+00 -0.74505805969E-08  0.93827000000E+00  0.93827000000E+00 0. -1.
     999902    2    1    2    0    0  0.17907482367E-01 -0.94202688385E-02  0.12956651968E-01  0.10199030522E+01  0.10196199987E+01 0.  0.
     999903    2    3    3    0    0  0.19885814022E-01  0.75108248439E-01 -0.10040725994E+00  0.12861165174E+00  0.20558320302E-01 0.  0.
         14    1    1    2    0    0 -0.17907482367E-01  0.94202688385E-02 -0.12956651968E-01  0.24026947786E-01  0.00000000000E+00 0. -1.
     999901    1    3    3    0    0 -0.19783316554E-02 -0.84528517277E-01  0.11336391190E+00  0.89129140047E+00  0.88000000000E+00 0.  1.
        -11    1    4    4    0    0  0.29491593226E-03  0.20306391515E-01 -0.39196871069E-01  0.44148525846E-01  0.51100000000E-03 0. -1.
         11    1    4    4    0    0  0.19590898090E-01  0.54801856923E-01 -0.61210388867E-01  0.84463125898E-01  0.51100000000E-03 0.  1.
</event>
<event>
 8    1  0.5489035E+004  0.1043930E+01  0.7957747E-01            NaN
         13   -1    0    0    0    0  0.00000000000E+00  0.00000000000E+00  0.74505805969E-08  0.10566000000E+00  0.10566000000E+00 0.  1.
     999900   -1    0    0    0    0 -0.00000000000E+00 -0.00000000000E+00 -0.74505805969E-08  0.93827000000E+00  0.93827000000E+00 0.  1.
     999902    2    1    2    0    0 -0.72439775329E-03 -0.17746492333E-01  0.14865179133E-01  0.10207689056E+01  0.10205061109E+01 0.  0.
     999903    2    3    3    0    0 -0.11127305957E+00  0.49296052383E-01  0.43791052199E-01  0.13085182209E+00  0.19817883963E-01 0.  0.
         14    1    1    2    0    0  0.72439775329E-03  0.17746492333E-01 -0.14865179133E-01  0.23161094380E-01  0.00000000000E+00 0. -1.
     999901    1    3    3    0    0  0.11054866181E+00 -0.67042544716E-01 -0.28925873066E-01  0.88991708353E+00  0.88000000000E+00 0.  1.
        -11    1    4    4    0    0 -0.36495463910E-01  0.63282032953E-02  0.14191239332E-01  0.39668847195E-01  0.51100000000E-03 0.  1.
         11    1    4    4    0    0 -0.74777595657E-01  0.42967849087E-01  0.29599812867E-01  0.91182974892E-01  0.51100000000E-03 0. -1.
</event>
<event>
 8    1  0.5489035E+004  0.1043930E+01  0.7957747E-01            NaN
         13   -1    0    0    0    0  0.00000000000E+00  0.00000000000E+00  0.74505805969E-08  0.10566000000E+00  0.10566000000E+00 0.  1.
     999900   -1    0    0    0    0 -0.00000000000E+00 -0.00000000000E+00 -0.74505805969E-08  0.93827000000E+00  0.93827000000E+00 0. -1.
     999902    2    1    2    0    0  0.19712285173E-01 -0.13531965611E-01  0.11233443117E-02  0.10199936222E+01  0.10197127238E+01 0.  0.
     999903    2    3    3    0    0  0.26806771404E-02 -0.48841771385E-02  0.12878966078E+00  0.13057608904E+00  0.20791755317E-01 0.  0.
         14    1    1    2    0    0 -0.19712285173E-01  0.13531965611E-01 -0.11233443117E-02  0.23936377806E-01  0.00000000000E+00 0. -1.
     999901    1    3    3    0    0  0.17031608033E-01 -0.86477884724E-02 -0.12766631647E+00  0.88941753315E+00  0.88000000000E+00 0. -1.
        -11    1    4    4    0    0 -0.79355176177E-02 -0.71086302366E-02  0.63420268249E-01  0.64310936935E-01  0.51100000000E-03 0. -1.
         11    1    4    4    0    0  0.10616194758E-01  0.22244530981E-02  0.65369392532E-01  0.66265152107E-01  0.51100000000E-03 0.  1.
</event>
<event>
 8    1  0.5489035E+004  0.1043930E+01  0.7957747E-01            NaN
         13   -1    0    0    0    0  0.00000000000E+00  0.00000000000E+00  0.74505805969E-08  0.10566000000E+00  0.10566000000E+00 0. -1.
     999900   -1    0    0    0    0 -0.00000000000E+00 -0.00000000000E+00 -0.74505805969E-08  0.93827000000E+00  0.93827000000E+00 0.  1.
     999902    2    1    2    0    0  0.86828540482E-02 -0.11508637851E-01  0.19311771851E-01  0.10198305139E+01  0.10195457282E+01 0.  0.
     999903    2    3    3    0    0 -0.10647526163E+00  0.12957139222E-01  0.71456146460E-01  0.13046051120E+00  0.20226104875E-01 0.  0.
         14    1    1    2    0    0 -0.86828540482E-02  0.11508637851E-01 -0.19311771851E-01  0.24099486128E-01  0.00000000000E+00 0.  1.
     999901    1    3    3    0    0  0.11515811568E+00 -0.24465777073E-01 -0.52144374609E-01  0.88937000268E+00  0.88000000000E+00 0.  1.
        -11    1    4    4    0    0 -0.48085309269E-01  0.45695024532E-03  0.42123178976E-01  0.63929876420E-01  0.51100000000E-03 0.  1.
         11    1    4    4    0    0 -0.58389952363E-01  0.12500188976E-01  0.29332967484E-01  0.66530634777E-01  0.51100000000E-03 0. -1.
</event>
<event>
 8    1  0.5489035E+004  0.1043930E+01  0.7957747E-01            NaN
         13   -1    0    0    0    0  0.00000000000E+00  0.00000000000E+00  0.74505805969E-08  0.10566000000E+00  0.10566000000E+00 0.  1.
     999900   -1    0    0    0    0 -0.00000000000E+00 -0.00000000000E+00 -0.74505805969E-08  0.93827000000E+00  0.93827000000E+00 0. -1.
     999902    2    1    2    0    0 -0.70198894574E-02  0.23808293751E-02  0.22056980006E-01  0.10206607593E+01  0.10203954763E+01 0.  0.
     999903    2    3    3    0    0  0.54553188366E-01  0.11189827206E+00 -0.31626429450E-01  0.13011754157E+00  0.20810332373E-01 0.  0.
         14    1    1    2    0    0  0.70198894574E-02 -0.23808293751E-02 -0.22056980006E-01  0.23269240715E-01  0.00000000000E+00 0. -1.
     999901    1    3    3    0    0 -0.61573077824E-01 -0.10951744269E+00  0.53683409456E-01  0.89054321771E+00  0.88000000000E+00 0.  1.
        -11    1    4    4    0    0  0.15735639020E-01  0.20358215286E-01  0.13581447174E-03  0.25736099774E-01  0.51100000000E-03 0. -1.
         11    1    4    4    0    0  0.38817549346E-01  0.91540056775E-01 -0.31762243922E-01  0.10438144180E+00  0.51100000000E-03 0.  1.
</event>
<event>
 8    1  0.5489035E+004  0.1043930E+01  0.7957747E-01            NaN
         13   -1    0    0    0    0  0.00000000000E+00  0.00000000000E+00  0.74505805969E-08  0.10566000000E+00  0.10566000000E+00 0.  1.
     999900   -1    0    0    0    0 -0.00000000000E+00 -0.00000000000E+00 -0.74505805969E-08  0.93827000000E+00  0.93827000000E+00 0.  1.
     999902    2    1    2    0    0  0.16187415747E-01 -0.20030654227E-02 -0.17368257062E-01  0.10201035220E+01  0.10198252275E+01 0.  0.
     999903    2    3    3    0    0 -0.71487844191E-02  0.97810492145E-02  0.12592670782E+00  0.12812992905E+00  0.20321637039E-01 0.  0.
         14    1    1    2    0    0 -0.16187415747E-01  0.20030654227E-02  0.17368257062E-01  0.23826477983E-01  0.00000000000E+00 0. -1.
     999901    1    3    3    0    0  0.23336200167E-01 -0.11784114637E-01 -0.14329496489E+00  0.89197359297E+00  0.88000000000E+00 0.  1.
        -11    1    4    4    0    0  0.55950339837E-02  0.24758921928E-02  0.14618218289E-01  0.15855215999E-01  0.51100000000E-03 0.  1.
         11    1    4    4    0    0 -0.12743818403E-01  0.73051570218E-02  0.11130848953E+00  0.11227471305E+00  0.51100000000E-03 0. -1.
</event>
<event>
 6    1  0.5489035E+004  0.1043930E+01  0.7957747E-01            NaN
         13   -1    0    0    0    0  0.00000000000E+00  0.00000000000E+00  0.74505805969E-08  0.10566000000E+00  0.10566000000E+00 0. -1.
     999900   -1    0    0    0    0 -0.00000000000E+00 -0.00000000000E+00 -0.74505805969E-08  0.93827000000E+00  0.93827000000E+00 0.  1.
         14    1    1    2    0    0 -0.10830517389E-01 -0.19403518221E-01 -0.58040172510E-01  0.62148678596E-01  0.00000000000E+00 0.  1.
     999901    1    1    2    0    0 -0.49404177800E-01 -0.78803354886E-02  0.10563073905E+00  0.88772784428E+00  0.88000000000E+00 0. -1.
        -11    1    1    2    0    0  0.28912308838E-01  0.25011642840E-01 -0.14797106900E-02  0.38261658937E-01  0.51100000000E-03 0. -1.
         11    1    1    2    0    0  0.31322386350E-01  0.22722108704E-02 -0.46110855848E-01  0.55791818190E-01  0.51100000000E-03 0.  1.
</event>
<event>
 8    1  0.5489035E+004  0.1043930E+01  0.7957747E-01            NaN
         13   -1    0    0    0    0  0.00000000000E+00  0.00000000000E+00  0.74505805969E-08  0.10566000000E+00  0.10566000000E+00 0.  1.
     999900   -1    0    0    0    0 -0.00000000000E+00 -0.00000000000E+00 -0.74505805969E-08  0.93827000000E+00  0.93827000000E+00 0.  1.
     999902    2    1    2    0    0  0.65885236546E-02 -0.19762027292E-01  0.12203580401E-01  0.10197872218E+01  0.10195013997E+01 0.  0.
     999903    2    3    3    0    0 -0.17304425702E-02 -0.53292381472E-01  0.11968366931E+00  0.13257503780E+00  0.20220969183E-01 0.  0.
         14    1    1    2    0    0 -0.65885236546E-02  0.19762027292E-01 -0.12203580401E-01  0.24142778242E-01  0.00000000000E+00 0.  1.
     999901    1    3    3    0    0  0.83189662248E-02  0.33530354180E-01 -0.10748008891E+00  0.88721218396E+00  0.88000000000E+00 0.  1.
        -11    1    4    4    0    0  0.26117768871E-02 -0.52057620105E-01  0.11354370450E+00  0.12493698868E+00  0.51100000000E-03 0. -1.
         11    1    4    4    0    0 -0.43422194574E-02 -0.12347613669E-02  0.61399648116E-02  0.76380491185E-02  0.51100000000E-03 0.  1.
</event>
<event>
 8    1  0.5489035E+004  0.1043930E+01  0.7957747E-01            NaN
         13   -1    0    0    0    0  0.00000000000E+00  0.00000000000E+00  0.74505805969E-08  0.10566000000E+00  0.10566000000E+00 0. -1.
     999900   -1    0    0    0    0 -0.00000000000E+00 -0.00000000000E+00 -0.74505805969E-08  0.93827000000E+00  0.93827000000E+00 0.  1.
     999902    2    1    2    0    0 -0.14358946673E-02 -0.11063877568E-01 -0.20830146752E-01  0.10203002265E+01  0.10200265615E+01 0.  0.
     999903    2    3    3    0    0  0.95324759965E-01  0.38929211147E-01 -0.79566641362E-01  0.13164286343E+00  0.19917322386E-01 0.  0.
         14    1    1    2    0    0  0.14358946673E-02  0.11063877568E-01  0.20830146752E-01  0.23629773465E-01  0.00000000000E+00 0. -1.
     999901    1    3    3    0    0 -0.96760654633E-01 -0.49993088715E-01  0.58736494610E-01  0.88865736311E+00  0.88000000000E+00 0.  1.
        -11    1    4    4    0    0  0.73393208969E-01  0.34422460538E-01 -0.52809594034E-01  0.96750107262E-01  0.51100000000E-03 0.  1.
         11    1    4    4    0    0  0.21931550997E-01  0.45067506091E-02 -0.26757047328E-01  0.34892756166E-01  0.51100000000E-03 0. -1.
</event>
<event>
 8    1  0.5489035E+004  0.1043930E+01  0.7957747E-01            NaN
         13   -1    0    0    0    0  0.00000000000E+00  0.00000000000E+00  0.74505805969E-08  0.10566000000E+00  0.10566000000E+00 0.  1.
     999900   -1    0    0    0    0 -0.00000000000E+00 -0.00000000000E+00 -0.74505805969E-08  0.93827000000E+00  0.93827000000E+00 0. -1.
     999902    2    1    2    0    0  0.14627737545E-01  0.30650136931E-02  0.18266322034E-01  0.10203286540E+01  0.10200556546E+01 0.  0.
     999903    2    3    3    0    0  0.10363376517E+00  0.34301174181E-01 -0.69640502356E-01  0.13093257770E+00  0.19416809798E-01 0.  0.
         14    1    1    2    0    0 -0.14627737545E-01 -0.30650136931E-02 -0.18266322034E-01  0.23601346047E-01  0.00000000000E+00 0. -1.
     999901    1    3    3    0    0 -0.89006027621E-01 -0.31236160488E-01  0.87906824390E-01  0.88939607625E+00  0.88000000000E+00 0. -1.
        -11    1    4    4    0    0  0.68658546096E-01  0.15465708255E-01 -0.36989339660E-01  0.79508845126E-01  0.51100000000E-03 0.  1.
         11    1    4    4    0    0  0.34975219069E-01  0.18835465926E-01 -0.32651162697E-01  0.51423732576E-01  0.51100000000E-03 0. -1.
</event>
<event>
 8    1  0.5489035E+004  0.1043930E+01  0.7957747E-01            NaN
         13   -1    0    0    0    0  0.00000000000E+00  0.00000000000E+00  0.74505805969E-08  0.10566000000E+00  0.10566000000E+00 0.  1.
     999900   -1    0    0    0    0 -0.00000000000E+00 -0.00000000000E+00 -0.74505805969E-08  0.93827000000E+00  0.93827000000E+00 0. -1.
     999902    2    1    2    0    0 -0.14971973348E-01 -0.48843120341E-02 -0.19231137197E-01  0.10190733484E+01  0.10187701587E+01 0.  0.
     999903    2    3    3    0    0 -0.45798826760E-01 -0.29091825405E-01  0.11449583544E+00  0.12810802821E+00  0.18934194539E-01 0.  0.
         14    1    1    2    0    0  0.14971973348E-01  0.48843120341E-02  0.19231137197E-01  0.24856651582E-01  0.00000000000E+00 0.  1.
     999901    1    3    3    0    0  0.30826853413E-01  0.24207513371E-01 -0.13372697263E+00  0.89096532020E+00  0.88000000000E+00 0. -1.
        -11    1    4    4    0    0 -0.79560748120E-02  0.19390861352E-02  0.21653837178E-01  0.23156186365E-01  0.51100000000E-03 0.  1.
         11    1    4    4    0    0 -0.37842751948E-01 -0.31030911540E-01  0.92841998258E-01  0.10495184185E+00  0.51100000000E-03 0. -1.
</event>
<event>
 8    1  0.5489035E+004  0.1043930E+01  0.7957747E-01            NaN
         13   -1    0    0    0    0  0.00000000000E+00  0.00000000000E+00  0.74505805969E-08  0.10566000000E+00  0.10566000000E+00 0.  1.
     999900   -1    0    0    0    0 -0.00000000000E+00 -0.00000000000E+00 -0.74505805969E-08  0.93827000000E+00  0.93827000000E+00 0. -1.
     999902    2    1    2    0    0  0.12516335373E-01 -0.12363777765E-01 -0.14623912918E-01  0.10210524896E+01  0.10207961629E+01 0.  0.
     999903    2    3    3    0    0 -0.58448457680E-01  0.10761407344E+00  0.33905098166E-01  0.12876007593E+00  0.20798809198E-01 0.  0.
         14    1    1    2    0    0 -0.12516335373E-01  0.12363777765E-01  0.14623912918E-01  0.22877510372E-01  0.00000000000E+00 0.  1.
     999901    1    3    3    0    0  0.70964793053E-01 -0.11997785120E+00 -0.48529011085E-01  0.89229241370E+00  0.88000000000E+00 0.  1.
        -11    1    4    4    0    0 -0.32580037468E-01  0.69188605007E-01  0.11623580090E-01  0.77355611557E-01  0.51100000000E-03 0.  1.
         11    1    4    4    0    0 -0.25868420212E-01  0.38425468430E-01  0.22281518076E-01  0.51404464369E-01  0.51100000000E-03 0. -1.
</event>
<event>
 7    1  0.5489035E+004  0.1043930E+01  0.7957747E-01            NaN
         13   -1    0    0    0    0  0.00000000000E+00  0.00000000000E+00  0.74505805969E-08  0.10566000000E+00  0.10566000000E+00 0. -1.
     999900   -1    0    0    0    0 -0.00000000000E+00 -0.00000000000E+00 -0.74505805969E-08  0.93827000000E+00  0.93827000000E+00 0.  1.
     999902    2    1    2    0    0  0.98514581866E-02 -0.59129861477E-02  0.20789694848E-01  0.10201765572E+01  0.10198999862E+01 0.  0.
         14    1    1    2    0    0 -0.98514581866E-02  0.59129861477E-02 -0.20789694848E-01  0.23753442813E-01  0.00000000000E+00 0.  1.
     999901    1    3    3    0    0  0.83613917077E-01 -0.99646747282E-01  0.52428640421E-01  0.89110578705E+00  0.88000000000E+00 0. -1.
        -11    1    3    3    0    0 -0.15862769354E-01  0.47537259483E-01 -0.20577977024E-01  0.54176865452E-01  0.51100000000E-03 0. -1.
         11    1    3    3    0    0 -0.57899689536E-01  0.46196501651E-01 -0.11060968548E-01  0.74893904688E-01  0.51100000000E-03 0.  1.
</event>
<event>
 8    1  0.5489035E+004  0.1043930E+01  0.7957747E-01            NaN
         13   -1    0    0    0    0  0.00000000000E+00  0.00000000000E+00  0.74505805969E-08  0.10566000000E+00  0.10566000000E+00 0. -1.
     999900   -1    0    0    0    0 -0.00000000000E+00 -0.00000000000E+00 -0.74505805969E-08  0.93827000000E+00  0.93827000000E+00 0.  1.
     999902    2    1    2    0    0  0.19819243270E-01  0.78330977729E-02  0.61992887652E-03  0.10226099593E+01  0.10223876881E+01 0.  0.
     999903    2    3    3    0    0 -0.10903025821E+00 -0.39329751824E-02 -0.68633371884E-01  0.13045713931E+00  0.20136036437E-01 0.  0.
         14    1    1    2    0    0 -0.19819243270E-01 -0.78330977729E-02 -0.61992887652E-03  0.21320040721E-01  0.00000000000E+00 0.  1.
     999901    1    3    3    0    0  0.12884950148E+00  0.11766072955E-01  0.69253300760E-01  0.89215281996E+00  0.88000000000E+00 0. -1.
        -11    1    4    4    0    0 -0.57785678318E-01 -0.98213746791E-02 -0.43998051704E-01  0.73292112086E-01  0.51100000000E-03 0.  1.
         11    1    4    4    0    0 -0.51244579890E-01  0.58883994966E-02 -0.24635320180E-01  0.57165027229E-01  0.51100000000E-03 0. -1.
</event>
<event>
 8    1  0.5489035E+004  0.1043930E+01  0.7957747E-01            NaN
         13   -1    0    0    0    0  0.00000000000E+00  0.00000000000E+00  0.74505805969E-08  0.10566000000E+00  0.10566000000E+00 0.  1.
     999900   -1    0    0    0    0 -0.00000000000E+00 -0.00000000000E+00 -0.74505805969E-08  0.93827000000E+00  0.93827000000E+00 0. -1.
     999902    2    1    2    0    0 -0.54020731320E-02 -0.85483017332E-02 -0.35851635060E-01  0.10066795558E+01  0.10059901254E+01 0.  0.
     999903    2    3    3    0    0 -0.11102172129E+00 -0.30782087009E-01  0.19377720426E-01  0.11836647305E+00  0.19020158054E-01 0.  0.
         14    1    1    2    0    0  0.54020731320E-02  0.85483017332E-02  0.35851635060E-01  0.37250444200E-01  0.00000000000E+00 0.  1.
     999901    1    3    3    0    0  0.10561964816E+00  0.22233785276E-01 -0.55229355485E-01  0.88831308275E+00  0.88000000000E+00 0. -1.
        -11    1    4    4    0    0 -0.19646903566E-01 -0.20915039235E-02  0.99534758001E-02  0.22129347254E-01  0.51100000000E-03 0. -1.
         11    1    4    4    0    0 -0.91374817729E-01 -0.28690583086E-01  0.94242446255E-02  0.96237125792E-01  0.51100000000E-03 0.  1.
</event>
<event>
 8    1  0.5489035E+004  0.1043930E+01  0.7957747E-01            NaN
         13   -1    0    0    0    0  0.00000000000E+00  0.00000000000E+00  0.74505805969E-08  0.10566000000E+00  0.10566000000E+00 0.  1.
     999900   -1    0    0    0    0 -0.00000000000E+00 -0.00000000000E+00 -0.74505805969E-08  0.93827000000E+00  0.93827000000E+00 0.  1.
     999902    2    1    2    0    0 -0.19208208072E-01  0.11040362435E-01 -0.95853965446E-02  0.10197903089E+01  0.10195045608E+01 0.  0.
     999903    2    3    3    0    0  0.11075768063E+00  0.59326688893E-01  0.13920922123E-01  0.12862520153E+00  0.23743010846E-01 0.  0.
         14    1    1    2    0    0  0.19208208072E-01 -0.11040362435E-01  0.95853965446E-02  0.24139691111E-01  0.00000000000E+00 0. -1.
     999901    1    3    3    0    0 -0.12996588870E+00 -0.48286326457E-01 -0.23506318668E-01  0.89116510735E+00  0.88000000000E+00 0.  1.
        -11    1    4    4    0    0  0.38911367065E-01  0.84265567799E-02  0.46728724153E-02  0.40089876573E-01  0.51100000000E-03 0. -1.
         11    1    4    4    0    0  0.71846313563E-01  0.50900132113E-01  0.92480497080E-02  0.88535324962E-01  0.51100000000E-03 0.  1.
</event>
<event>
 8    1  0.5489035E+004  0.1043930E+01  0.7957747E-01            NaN
         13   -1    0    0    0    0  0.00000000000E+00  0.00000000000E+00  0.74505805969E-08  0.10566000000E+00  0.10566000000E+00 0.  1.
     999900   -1    0    0    0    0 -0.00000000000E+00 -0.00000000000E+00 -0.74505805969E-08  0.93827000000E+00  0.93827000000E+00 0.  1.
     999902    2    1    2    0    0 -0.17097383120E-01 -0.89819635477E-03  0.16013977110E-01  0.10204869898E+01  0.10202176834E+01 0.  0.
     999903    2    3    3    0    0  0.66021616930E-01  0.55906332728E-01  0.96738270683E-01  0.13107598563E+00  0.18391548411E-01 0.  0.
         14    1    1    2    0    0  0.17097383120E-01  0.89819635477E-03 -0.16013977110E-01  0.23443010241E-01  0.00000000000E+00 0. -1.
     999901    1    3    3    0    0 -0.83119000050E-01 -0.56804529083E-01 -0.80724293572E-01  0.88941100413E+00  0.88000000000E+00 0.  1.
        -11    1    4    4    0    0  0.55413490603E-01  0.42249118398E-01  0.66986438337E-01  0.96659645087E-01  0.51100000000E-03 0.  1.
         11    1    4    4    0    0  0.10608126327E-01  0.13657214330E-01  0.29751832346E-01  0.34416340543E-01  0.51100000000E-03 0. -1.
</event>
<event>
 8    1  0.5489035E+004  0.1043930E+01  0.7957747E-01            NaN
         13   -1    0    0    0    0  0.00000000000E+00  0.00000000000E+00  0.74505805969E-08  0.10566000000E+00  0.10566000000E+00 0.  1.
     999900   -1    0    0    0    0 -0.00000000000E+00 -0.00000000000E+00 -0.74505805969E-08  0.93827000000E+00  0.93827000000E+00 0.  1.
     999902    2    1    2    0    0  0.10042299318E-01 -0.19928759565E-01 -0.82361196048E-02  0.10201426736E+01  0.10198653036E+01 0.  0.
     999903    2    3    3    0    0  0.60993957733E-02 -0.18643567104E-02  0.12775445732E+00  0.12950508949E+00  0.20240760415E-01 0.  0.
         14    1    1    2    0    0 -0.10042299318E-01  0.19928759565E-01  0.82361196048E-02  0.23787326448E-01  0.00000000000E+00 0.  1.
     999901    1    3    3    0    0  0.39429035446E-02 -0.18064402855E-01 -0.13599057693E+00  0.89063758407E+00  0.88000000000E+00 0.  1.
        -11    1    4    4    0    0  0.93174865530E-02  0.69973387463E-02  0.77266279468E-01  0.78141649388E-01  0.51100000000E-03 0.  1.
         11    1    4    4    0    0 -0.32180907797E-02 -0.88616954567E-02  0.50488177854E-01  0.51363440097E-01  0.51100000000E-03 0. -1.
</event>
<event>
 8    1  0.5489035E+004  0.1043930E+01  0.7957747E-01            NaN
         13   -1    0    0    0    0  0.00000000000E+00  0.00000000000E+00  0.74505805969E-08  0.10566000000E+00  0.10566000000E+00 0. -1.
     999900   -1    0    0    0    0 -0.00000000000E+00 -0.00000000000E+00 -0.74505805969E-08  0.93827000000E+00  0.93827000000E+00 0. -1.
     999902    2    1    2    0    0  0.52775613464E-03 -0.13551612677E-01  0.19848946341E-01  0.10198903369E+01  0.10196069801E+01 0.  0.
     999903    2    3    3    0    0 -0.97708902774E-01 -0.51936281589E-01  0.69177166460E-01  0.13222086163E+00  0.21271315550E-01 0.  0.
         14    1    1    2    0    0 -0.52775613464E-03  0.13551612677E-01 -0.19848946341E-01  0.24039663132E-01  0.00000000000E+00 0.  1.
     999901    1    3    3    0    0  0.98236658909E-01  0.38384668912E-01 -0.49328220119E-01  0.88766947523E+00  0.88000000000E+00 0. -1.
        -11    1    4    4    0    0 -0.27117361390E-01 -0.24705591179E-01  0.27399869955E-01  0.45790081009E-01  0.51100000000E-03 0. -1.
         11    1    4    4    0    0 -0.70591541384E-01 -0.27230690410E-01  0.41777296505E-01  0.86430780625E-01  0.51100000000E-03 0.  1.
</event>
<event>
 8    1  0.5489035E+004  0.1043930E+01  0.7957747E-01            NaN
         13   -1    0    0    0    0  0.00000000000E+00  0.00000000000E+00  0.74505805969E-08  0.10566000000E+00  0.10566000000E+00 0.  1.
     999900   -1    0    0    0    0 -0.00000000000E+00 -0.00000000000E+00 -0.74505805969E-08  0.93827000000E+00  0.93827000000E+00 0. -1.
     999902    2    1    2    0    0 -0.14763600314E-01  0.12061182118E-01  0.14203403220E-01  0.10201566395E+01  0.10198795990E+01 0.  0.
     999903    2    3    3    0    0 -0.46076734949E-02  0.90300752782E-01  0.95312475187E-01  0.13291188472E+00  0.20140619761E-01 0.  0.
         14    1    1    2    0    0  0.14763600314E-01 -0.12061182118E-01 -0.14203403220E-01  0.23773360540E-01  0.00000000000E+00 0. -1.
     999901    1    3    3    0    0 -0.10155926819E-01 -0.78239570664E-01 -0.81109071967E-01  0.88724475475E+00  0.88000000000E+00 0. -1.
        -11    1    4    4    0    0  0.68119742161E-02  0.45704366899E-01  0.53790728677E-01  0.70915412704E-01  0.51100000000E-03 0. -1.
         11    1    4    4    0    0 -0.11419647711E-01  0.44596385883E-01  0.41521746510E-01  0.61996472012E-01  0.51100000000E-03 0.  1.
</event>
<event>
 8    1  0.5489035E+004  0.1043930E+01  0.7957747E-01            NaN
         13   -1    0    0    0    0  0.00000000000E+00  0.00000000000E+00  0.74505805969E-08  0.10566000000E+00  0.10566000000E+00 0.  1.
     999900   -1    0    0    0    0 -0.00000000000E+00 -0.00000000000E+00 -0.74505805969E-08  0.93827000000E+00  0.93827000000E+00 0. -1.
     999902    2    1    2    0    0  0.58473683729E-02  0.14578431376E-01 -0.11837514692E-01  0.10242615193E+01  0.10240726590E+01 0.  0.
     999903    2    3    3    0    0  0.12359618074E-02  0.60655225604E-01 -0.12065175783E+00  0.13635112094E+00  0.18820135977E-01 0.  0.
         14    1    1    2    0    0 -0.58473683729E-02 -0.14578431376E-01  0.11837514692E-01  0.19668480682E-01  0.00000000000E+00 0. -1.
     999901    1    3    3    0    0  0.46114065655E-02 -0.46076794229E-01  0.10881424314E+00  0.88791039838E+00  0.88000000000E+00 0.  1.
        -11    1    4    4    0    0  0.91573922741E-02  0.42347481796E-01 -0.76982305298E-01  0.88338573103E-01  0.51100000000E-03 0. -1.
         11    1    4    4    0    0 -0.79214304666E-02  0.18307743808E-01 -0.43669452537E-01  0.48012547837E-01  0.51100000000E-03 0.  1.
</event>
<event>
 8    1  0.5489035E+004  0.1043930E+01  0.7957747E-01            NaN
         13   -1    0    0    0    0  0.00000000000E+00  0.00000000000E+00  0.74505805969E-08  0.10566000000E+00  0.10566000000E+00 0.  1.
     999900   -1    0    0    0    0 -0.00000000000E+00 -0.00000000000E+00 -0.74505805969E-08  0.93827000000E+00  0.93827000000E+00 0.  1.
     999902    2    1    2    0    0 -0.81907181878E-02 -0.20366770439E-01 -0.62107142603E-02  0.10211162722E+01  0.10208613889E+01 0.  0.
     999903    2    3    3    0    0 -0.11797955777E+00  0.16133294150E-01  0.52465117495E-01  0.13160590286E+00  0.19699387862E-01 0.  0.
         14    1    1    2    0    0  0.81907181878E-02  0.20366770439E-01  0.62107142603E-02  0.22813727757E-01  0.00000000000E+00 0. -1.
     999901    1    3    3    0    0  0.10978883958E+00 -0.36500064589E-01 -0.58675831755E-01  0.88951036938E+00  0.88000000000E+00 0.  1.
        -11    1    4    4    0    0 -0.41102967474E-01  0.12101071803E-01  0.26395428891E-01  0.50327623243E-01  0.51100000000E-03 0. -1.
         11    1    4    4    0    0 -0.76876590294E-01  0.40322223462E-02  0.26069688604E-01  0.81278279615E-01  0.51100000000E-03 0.  1.
</event>
<event>
 8    1  0.5489035E+004  0.1043930E+01  0.7957747E-01            NaN
         13   -1    0    0    0    0  0.00000000000E+00  0.00000000000E+00  0.74505805969E-08  0.10566000000E+00  0.10566000000E+00 0.  1.
     999900   -1    0    0    0    0 -0.00000000000E+00 -0.00000000000E+00 -0.74505805969E-08  0.93827000000E+00  0.93827000000E+00 0. -1.
     999902    2    1    2    0    0 -0.21548064246E-01  0.74768278982E-02  0.26312561072E-02  0.10209703498E+01  0.10207121581E+01 0.  0.
     999903    2    3    3    0    0  0.44356763993E-02 -0.11063089249E+00 -0.65471748571E-01  0.13009291287E+00  0.19461411051E-01 0.  0.
         14    1    1    2    0    0  0.21548064246E-01 -0.74768278982E-02 -0.26312561072E-02  0.22959650190E-01  0.00000000000E+00 0.  1.
     999901    1    3    3    0    0 -0.25983740645E-01  0.11810772039E+00  0.68103004678E-01  0.89087743694E+00  0.88000000000E+00 0. -1.
        -11    1    4    4    0    0  0.29389331912E-02 -0.78513013553E-01 -0.56284163207E-01  0.96649359928E-01  0.51100000000E-03 0.  1.
         11    1    4    4    0    0  0.14967432081E-02 -0.32117878941E-01 -0.91875853636E-02  0.33443552947E-01  0.51100000000E-03 0. -1.
</event>
<event>
 8    1  0.5489035E+004  0.1043930E+01  0.7957747E-01            NaN
         13   -1    0    0    0    0  0.00000000000E+00  0.00000000000E+00  0.74505805969E-08  0.10566000000E+00  0.10566000000E+00 0.  1.
     999900   -1    0    0    0    0 -0.00000000000E+00 -0.00000000000E+00 -0.74505805969E-08  0.93827000000E+00  0.93827000000E+00 0. -1.
     999902    2    1    2    0    0  0.67952174188E-02  0.18766677469E-01 -0.12065917373E-01  0.10206072745E+01  0.10203407564E+01 0.  0.
     999903    2    3    3    0    0 -0.18395975137E-01  0.11143734395E+00  0.65704825823E-01  0.13197307692E+00  0.18522293784E-01 0.  0.
         14    1    1    2    0    0 -0.67952174188E-02 -0.18766677469E-01  0.12065917373E-01  0.23322725506E-01  0.00000000000E+00 0. -1.
     999901    1    3    3    0    0  0.25191192556E-01 -0.92670666478E-01 -0.77770743196E-01  0.88863419758E+00  0.88000000000E+00 0. -1.
        -11    1    4    4    0    0 -0.15391893339E-01  0.41229016950E-01  0.28807785198E-01  0.52601253105E-01  0.51100000000E-03 0. -1.
         11    1    4    4    0    0 -0.30040817982E-02  0.70208326996E-01  0.36897040625E-01  0.79371823810E-01  0.51100000000E-03 0.  1.
</event>
<event>
 8    1  0.5489035E+004  0.1043930E+01  0.7957747E-01            NaN
         13   -1    0    0    0    0  0.00000000000E+00  0.00000000000E+00  0.74505805969E-08  0.10566000000E+00  0.10566000000E+00 0. -1.
     999900   -1    0    0    0    0 -0.00000000000E+00 -0.00000000000E+00 -0.74505805969E-08  0.93827000000E+00  0.93827000000E+00 0. -1.
     999902    2    1    2    0    0  0.10592229033E-01  0.17191639970E-01 -0.11896175324E-01  0.10204935585E+01  0.10202244048E+01 0.  0.
     999903    2    3    3    0    0  0.84224870602E-01  0.82609887741E-01 -0.59244959816E-01  0.13373360205E+00  0.21365595564E-01 0.  0.
         14    1    1    2    0    0 -0.10592229033E-01 -0.17191639970E-01  0.11896175324E-01  0.23436441455E-01  0.00000000000E+00 0. -1.
     999901    1    3    3    0    0 -0.73632641569E-01 -0.65418247771E-01  0.47348784492E-01  0.88675995649E+00  0.88000000000E+00 0.  1.
        -11    1    4    4    0    0  0.34906731176E-01  0.22432836098E-01 -0.27018760574E-01  0.49517537911E-01  0.51100000000E-03 0. -1.
         11    1    4    4    0    0  0.49318139426E-01  0.60177051643E-01 -0.32226199242E-01  0.84216064141E-01  0.51100000000E-03 0.  1.
</event>
<event>
 8    1  0.5489035E+004  0.1043930E+01  0.7957747E-01            NaN
         13   -1    0    0    0    0  0.00000000000E+00  0.00000000000E+00  0.74505805969E-08  0.10566000000E+00  0.10566000000E+00 0. -1.
     999900   -1    0    0    0    0 -0.00000000000E+00 -0.00000000000E+00 -0.74505805969E-08  0.93827000000E+00  0.93827000000E+00 0.  1.
     999902    2    1    2    0    0 -0.71400045311E-03 -0.22535838465E-01  0.24950057827E-02  0.10212452283E+01  0.10209932505E+01 0.  0.
     999903    2    3    3    0    0 -0.11238232568E+00 -0.30803270230E-01 -0.58931712922E-01  0.13202567891E+00  0.19473174411E-01 0.  0.
         14    1    1    2    0    0  0.71400045311E-03  0.22535838465E-01 -0.24950057827E-02  0.22684771672E-01  0.00000000000E+00 0. -1.
     999901    1    3    3    0    0  0.11166832523E+00  0.82674317651E-02  0.61426718705E-01  0.88921954941E+00  0.88000000000E+00 0. -1.
        -11    1    4    4    0    0 -0.42317560728E-01 -0.14794578030E-01 -0.32803037591E-01  0.55551380552E-01  0.51100000000E-03 0. -1.
         11    1    4    4    0    0 -0.70064764957E-01 -0.16008692200E-01 -0.26128675331E-01  0.76474298362E-01  0.51100000000E-03 0.  1.
</event>
<event>
 8    1  0.5489035E+004  0.1043930E+01  0.7957747E-01            NaN
         13   -1    0    0    0    0  0.00000000000E+00  0.00000000000E+00  0.74505805969E-08  0.10566000000E+00  0.10566000000E+00 0.  1.
     999900   -1    0    0    0    0 -0.00000000000E+00 -0.00000000000E+00 -0.74505805969E-08  0.93827000000E+00  0.93827000000E+00 0. -1.
     999902    2    1    2    0    0  0.37590239194E-02 -0.52840541661E-03 -0.23013591643E-01  0.10206054448E+01  0.10203388845E+01 0.  0.
     999903    2    3    3    0    0 -0.17743468353E-01  0.67415048198E-01 -0.11166742108E+00  0.13328466207E+00  0.20870285576E-01 0.  0.
         14    1    1    2    0    0 -0.37590239194E-02  0.52840541661E-03  0.23013591643E-01  0.23324555160E-01  0.00000000000E+00 0.  1.
     999901    1    3    3    0    0  0.21502492272E-01 -0.67943453615E-01  0.88653829436E-01  0.88732078277E+00  0.88000000000E+00 0.  1.
        -11    1    4    4    0    0 -0.99013503673E-02  0.45738494698E-01 -0.90960070230E-01  0.10229390076E+00  0.51100000000E-03 0.  1.
         11    1    4    4    0    0 -0.78421179855E-02  0.21676553500E-01 -0.20707350849E-01  0.30990761306E-01  0.51100000000E-03 0. -1.
</event>
<event>
 8    1  0.5489035E+004  0.1043930E+01  0.7957747E-01            NaN
         13   -1    0    0    0    0  0.00000000000E+00  0.00000000000E+00  0.74505805969E-08  0.10566000000E+00  0.10566000000E+00 0.  1.
     999900   -1    0    0    0    0 -0.00000000000E+00 -0.00000000000E+00 -0.74505805969E-08  0.93827000000E+00  0.93827000000E+00 0.  1.
     999902    2    1    2    0    0  0.10771590324E-01 -0.20955398498E-01 -0.34782572096E-02  0.10201129020E+01  0.10198348291E+01 0.  0.
     999903    2    3    3    0    0 -0.25495075998E-01 -0.67093617477E-02 -0.12553742595E+00  0.13083417104E+00  0.25747243777E-01 0.  0.
         14    1    1    2    0    0 -0.10771590324E-01  0.20955398498E-01  0.34782572096E-02  0.23817098008E-01  0.00000000000E+00 0.  1.
     999901    1    3    3    0    0  0.36266666322E-01 -0.14246036750E-01  0.12205916874E+00  0.88927873095E+00  0.88000000000E+00 0. -1.
        -11    1    4    4    0    0 -0.18574930310E-01 -0.37531326231E-02 -0.33529106739E-01  0.38517219009E-01  0.51100000000E-03 0.  1.
         11    1    4    4    0    0 -0.69201456883E-02 -0.29562291247E-02 -0.92008319212E-01  0.92316952031E-01  0.51100000000E-03 0. -1.
</event>
<event>
 8    1  0.5489035E+004  0.1043930E+01  0.7957747E-01            NaN
         13   -1    0    0    0    0  0.00000000000E+00  0.00000000000E+00  0.74505805969E-08  0.10566000000E+00  0.10566000000E+00 0. -1.
     999900   -1    0    0    0    0 -0.00000000000E+00 -0.00000000000E+00 -0.74505805969E-08  0.93827000000E+00  0.93827000000E+00 0. -1.
     999902    2    1    2    0    0  0.41114707899E-02  0.22306093369E-01  0.66635418424E-02  0.10202895943E+01  0.10200156800E+01 0.  0.
     999903    2    3    3    0    0 -0.11276953180E+00 -0.54679809080E-01 -0.19542816415E-01  0.12884426719E+00  0.22629067434E-01 0.  0.
         14    1    1    2    0    0 -0.41114707899E-02 -0.22306093369E-01 -0.66635418424E-02  0.23640405736E-01  0.00000000000E+00 0.  1.
     999901    1    3    3    0    0  0.11688100259E+00  0.76985902449E-01  0.26206358257E-01  0.89144532707E+00  0.88000000000E+00 0.  1.
        -11    1    4    4    0    0 -0.66169579766E-02  0.41556991409E-03 -0.50903337583E-02  0.83743328086E-02  0.51100000000E-03 0.  1.
         11    1    4    4    0    0 -0.10615257382E+00 -0.55095378994E-01 -0.14452482657E-01  0.12046993439E+00  0.51100000000E-03 0. -1.
</event>
<event>
 8    1  0.5489035E+004  0.1043930E+01  0.7957747E-01            NaN
         13   -1    0    0    0    0  0.00000000000E+00  0.00000000000E+00  0.74505805969E-08  0.10566000000E+00  0.10566000000E+00 0. -1.
     999900   -1    0    0    0    0 -0.00000000000E+00 -0.00000000000E+00 -0.74505805969E-08  0.93827000000E+00  0.93827000000E+00 0. -1.
     999902    2    1    2    0    0 -0.15367095975E-01  0.40682372545E-02  0.18636494849E-01  0.10194347528E+01  0.10191404212E+01 0.  0.
     999903    2    3    3    0    0  0.94432603429E-01 -0.31356072568E-01 -0.76199870673E-01  0.12685153995E+00  0.19600332120E-01 0.  0.
         14    1    1    2    0    0  0.15367095975E-01 -0.40682372545E-02 -0.18636494849E-01  0.24495247158E-01  0.00000000000E+00 0.  1.
     999901    1    3    3    0    0 -0.10979969940E+00  0.35424309822E-01  0.94836365522E-01  0.89258321289E+00  0.88000000000E+00 0.  1.
        -11    1    4    4    0    0  0.26452271245E-01 -0.13170574364E-02 -0.26317773577E-01  0.37340910827E-01  0.51100000000E-03 0.  1.
         11    1    4    4    0    0  0.67980332184E-01 -0.30039015131E-01 -0.49882097096E-01  0.89510629121E-01  0.51100000000E-03 0. -1.
</event>
<event>
 8    1  0.5489035E+004  0.1043930E+01  0.7957747E-01            NaN
         13   -1    0    0    0    0  0.00000000000E+00  0.00000000000E+00  0.74505805969E-08  0.10566000000E+00  0.10566000000E+00 0.  1.
     999900   -1    0    0    0    0 -0.00000000000E+00 -0.00000000000E+00 -0.74505805969E-08  0.93827000000E+00  0.93827000000E+00 0.  1.
     999902    2    1    2    0    0 -0.95469806722E-02 -0.15007302902E-01 -0.17835852889E-01  0.10187410812E+01  0.10184296289E+01 0.  0.
     999903    2    3    3    0    0  0.87820500647E-01 -0.79937344784E-01  0.45624881225E-01  0.12872782204E+00  0.19667306796E-01 0.  0.
         14    1    1    2    0    0  0.95469806722E-02  0.15007302902E-01  0.17835852889E-01  0.25188918767E-01  0.00000000000E+00 0. -1.
     999901    1    3    3    0    0 -0.97367481319E-01  0.64930041881E-01 -0.63460734114E-01  0.89001325919E+00  0.88000000000E+00 0.  1.
        -11    1    4    4    0    0  0.52661743332E-01 -0.37597397458E-01  0.31172801902E-01  0.71824983160E-01  0.51100000000E-03 0.  1.
         11    1    4    4    0    0  0.35158757315E-01 -0.42339947325E-01  0.14452079323E-01  0.56902838885E-01  0.51100000000E-03 0. -1.
</event>
<event>
 8    1  0.5489035E+004  0.1043930E+01  0.7957747E-01            NaN
         13   -1    0    0    0    0  0.00000000000E+00  0.00000000000E+00  0.74505805969E-08  0.10566000000E+00  0.10566000000E+00 0. -1.
     999900   -1    0    0    0    0 -0.00000000000E+00 -0.00000000000E+00 -0.74505805969E-08  0.93827000000E+00  0.93827000000E+00 0. -1.
     999902    2    1    2    0    0 -0.79973503440E-02  0.13579762506E-01 -0.17072772156E-01  0.10206953898E+01  0.10204309049E+01 0.  0.
     999903    2    3    3    0    0  0.39731069999E-01 -0.85788433114E-01  0.84186658011E-01  0.12805575780E+00  0.19304676634E-01 0.  0.
         14    1    1    2    0    0  0.79973503440E-02 -0.13579762506E-01  0.17072772156E-01  0.23234610204E-01  0.00000000000E+00 0. -1.
     999901    1    3    3    0    0 -0.47728420343E-01  0.99368195619E-01 -0.10125943017E+00  0.89263963199E+00  0.88000000000E+00 0. -1.
        -11    1    4    4    0    0  0.34318809272E-01 -0.60305598758E-01  0.69199176560E-01  0.97996597232E-01  0.51100000000E-03 0. -1.
         11    1    4    4    0    0  0.54122607264E-02 -0.25482834356E-01  0.14987481451E-01  0.30059160571E-01  0.51100000000E-03 0.  1.
</event>
<event>
 8    1  0.5489035E+004  0.1043930E+01  0.7957747E-01            NaN
         13   -1    0    0    0    0  0.00000000000E+00  0.00000000000E+00  0.74505805969E-08  0.10566000000E+00  0.10566000000E+00 0. -1.
     999900   -1    0    0    0    0 -0.00000000000E+00 -0.00000000000E+00 -0.74505805969E-08  0.93827000000E+00  0.93827000000E+00 0.  1.
     999902    2    1    2    0    0  0.69666036080E-02  0.19275084016E-01  0.11669855774E-01  0.10203450903E+01  0.10200724756E+01 0.  0.
     999903    2    3    3    0    0 -0.72091905168E-01  0.96001793281E-01 -0.49739945291E-01  0.13135217733E+00  0.19124466727E-01 0.  0.
         14    1    1    2    0    0 -0.69666036080E-02 -0.19275084016E-01 -0.11669855774E-01  0.23584909656E-01  0.00000000000E+00 0.  1.
     999901    1    3    3    0    0  0.79058508776E-01 -0.76726709265E-01  0.61409801066E-01  0.88899291302E+00  0.88000000000E+00 0.  1.
        -11    1    4    4    0    0 -0.57144776420E-01  0.75864592949E-01 -0.47425300737E-01  0.10616205634E+00  0.51100000000E-03 0.  1.
         11    1    4    4    0    0 -0.14947128748E-01  0.20137200332E-01 -0.23146445547E-02  0.25190120989E-01  0.51100000000E-03 0. -1.
</event>
<event>
 8    1  0.5489035E+004  0.1043930E+01  0.7957747E-01            NaN
         13   -1    0    0    0    0  0.00000000000E+00  0.00000000000E+00  0.74505805969E-08  0.10566000000E+00  0.10566000000E+00 0.  1.
     999900   -1    0    0    0    0 -0.00000000000E+00 -0.00000000000E+00 -0.74505805969E-08  0.93827000000E+00  0.93827000000E+00 0.  1.
     999902    2    1    2    0    0  0.33720544728E-02 -0.16278162153E-01 -0.18141109646E-01  0.10193241232E+01  0.10190270943E+01 0.  0.
     999903    2    3    3    0    0 -0.10716674362E-01 -0.12952893637E+00  0.36414779887E-02  0.13168753580E+00  0.20874727751E-01 0.  0.
         14    1    1    2    0    0 -0.33720544728E-02  0.16278162153E-01  0.18141109646E-01  0.24605876811E-01  0.00000000000E+00 0. -1.
     999901    1    3    3    0    0  0.14088728834E-01  0.11325077421E+00 -0.21782587635E-01  0.88763658738E+00  0.88000000000E+00 0.  1.
        -11    1    4    4    0    0 -0.25996616341E-02 -0.79420223230E-01 -0.71611045357E-02  0.79786418880E-01  0.51100000000E-03 0. -1.
         11    1    4    4    0    0 -0.81170127276E-02 -0.50108713137E-01  0.10802582524E-01  0.51901116925E-01  0.51100000000E-03 0.  1.
</event>
<event>
 8    1  0.5489035E+004  0.1043930E+01  0.7957747E-01            NaN
         13   -1    0    0    0    0  0.00000000000E+00  0.00000000000E+00  0.74505805969E-08  0.10566000000E+00  0.10566000000E+00 0.  1.
     999900   -1    0    0    0    0 -0.00000000000E+00 -0.00000000000E+00 -0.74505805969E-08  0.93827000000E+00  0.93827000000E+00 0.  1.
     999902    2    1    2    0    0  0.14536268252E-01 -0.11735655895E-01  0.14545732266E-01  0.10202528583E+01  0.10199780820E+01 0.  0.
     999903    2    3    3    0    0 -0.78224393583E-01 -0.17901900753E-01 -0.97746756450E-01  0.12825949170E+00  0.21366679963E-01 0.  0.
         14    1    1    2    0    0 -0.14536268252E-01  0.11735655895E-01 -0.14545732266E-01  0.23677141743E-01  0.00000000000E+00 0. -1.
     999901    1    3    3    0    0  0.92760661835E-01  0.61662448578E-02  0.11229248872E+00  0.89199336656E+00  0.88000000000E+00 0. -1.
        -11    1    4    4    0    0 -0.22970724691E-01 -0.93169755389E-02 -0.45054082214E-01  0.51425593542E-01  0.51100000000E-03 0. -1.
         11    1    4    4    0    0 -0.55253668892E-01 -0.85849252136E-02 -0.52692674236E-01  0.76833898158E-01  0.51100000000E-03 0.  1.
</event>
<event>
 8    1  0.5489035E+004  0.1043930E+01  0.7957747E-01            NaN
         13   -1    0    0    0    0  0.00000000000E+00  0.00000000000E+00  0.74505805969E-08  0.10566000000E+00  0.10566000000E+00 0. -1.
     999900   -1    0    0    0    0 -0.00000000000E+00 -0.00000000000E+00 -0.74505805969E-08  0.93827000000E+00  0.93827000000E+00 0. -1.
     999902    2    1    2    0    0 -0.19138384131E-02 -0.11833488622E-01  0.21028337732E-01  0.10197249340E+01  0.10194376175E+01 0.  0.
     999903    2    3    3    0    0 -0.56594880075E-01 -0.48529335574E-02 -0.11277179112E+00  0.12790588348E+00  0.20393791727E-01 0.  0.
         14    1    1    2    0    0  0.19138384131E-02  0.11833488622E-01 -0.21028337732E-01  0.24205065961E-01  0.00000000000E+00 0.  1.
     999901    1    3    3    0    0  0.54681041662E-01 -0.69805550648E-02  0.13380012885E+00  0.89181905056E+00  0.88000000000E+00 0.  1.
        -11    1    4    4    0    0 -0.36561613914E-01 -0.12842183008E-01 -0.70695469471E-01  0.80621236663E-01  0.51100000000E-03 0. -1.
         11    1    4    4    0    0 -0.20033266161E-01  0.79892494502E-02 -0.42076321647E-01  0.47284646813E-01  0.51100000000E-03 0.  1.
</event>
<event>
 8    1  0.5489035E+004  0.1043930E+01  0.7957747E-01            NaN
         13   -1    0    0    0    0  0.00000000000E+00  0.00000000000E+00  0.74505805969E-08  0.10566000000E+00  0.10566000000E+00 0. -1.
     999900   -1    0    0    0    0 -0.00000000000E+00 -0.00000000000E+00 -0.74505805969E-08  0.93827000000E+00  0.93827000000E+00 0.  1.
     999902    2    1    2    0    0 -0.13776566228E-01 -0.91770916201E-02  0.10585942679E-01  0.10242812095E+01  0.10240927307E+01 0.  0.
     999903    2    3    3    0    0 -0.50730326761E-01  0.44666418110E-01  0.11567121455E+00  0.13562626048E+00  0.21118657562E-01 0.  0.
         14    1    1    2    0    0  0.13776566228E-01  0.91770916201E-02 -0.10585942679E-01  0.19648790549E-01  0.00000000000E+00 0.  1.
     999901    1    3    3    0    0  0.36953760533E-01 -0.53843509730E-01 -0.10508527187E+00  0.88865494897E+00  0.88000000000E+00 0.  1.
        -11    1    4    4    0    0 -0.26699585828E-01  0.36556203774E-01  0.78628951885E-01  0.90730353870E-01  0.51100000000E-03 0. -1.
         11    1    4    4    0    0 -0.24030740933E-01  0.81102143365E-02  0.37042262666E-01  0.44895906615E-01  0.51100000000E-03 0.  1.
</event>
<event>
 8    1  0.5489035E+004  0.1043930E+01  0.7957747E-01            NaN
         13   -1    0    0    0    0  0.00000000000E+00  0.00000000000E+00  0.74505805969E-08  0.10566000000E+00  0.10566000000E+00 0.  1.
     999900   -1    0    0    0    0 -0.00000000000E+00 -0.00000000000E+00 -0.74505805969E-08  0.93827000000E+00  0.93827000000E+00 0.  1.
     999902    2    1    2    0    0 -0.54815156189E-02 -0.18059893579E-01  0.14602925422E-01  0.10200668024E+01  0.10197876392E+01 0.  0.
     999903    2    3    3    0    0 -0.34942033440E-01 -0.16768074467E-01 -0.12145003585E+00  0.12912348254E+00  0.20509717534E-01 0.  0.
         14    1    1    2    0    0  0.54815156189E-02  0.18059893579E-01 -0.14602925422E-01  0.23863197616E-01  0.00000000000E+00 0. -1.
     999901    1    3    3    0    0  0.29460517822E-01 -0.12918191127E-02  0.13605296127E+00  0.89094331985E+00  0.88000000000E+00 0. -1.
        -11    1    4    4    0    0 -0.25816310225E-01 -0.96270652218E-02 -0.53394109199E-01  0.60086223684E-01  0.51100000000E-03 0.  1.
         11    1    4    4    0    0 -0.91257232156E-02 -0.71410092449E-02 -0.68055926648E-01  0.69037258855E-01  0.51100000000E-03 0. -1.
</event>
<event>
 8    1  0.5489035E+004  0.1043930E+01  0.7957747E-01            NaN
         13   -1    0    0    0    0  0.00000000000E+00  0.00000000000E+00  0.74505805969E-08  0.10566000000E+00  0.10566000000E+00 0.  1.
     999900   -1    0    0    0    0 -0.00000000000E+00 -0.00000000000E+00 -0.74505805969E-08  0.93827000000E+00  0.93827000000E+00 0.  1.
     999902    2    1    2    0    0 -0.15938180684E-02  0.44456934271E-03 -0.22936108174E-01  0.10209342840E+01  0.10206752712E+01 0.  0.
     999903    2    3    3    0    0  0.69109910697E-01  0.75874259169E-01 -0.80997674005E-01  0.13298169469E+00  0.24298661839E-01 0.  0.
         14    1    1    2    0    0  0.15938180684E-02 -0.44456934271E-03  0.22936108174E-01  0.22995716039E-01  0.00000000000E+00 0.  1.
     999901    1    3    3    0    0 -0.70703728766E-01 -0.75429689827E-01  0.58061565830E-01  0.88795258927E+00  0.88000000000E+00 0. -1.
        -11    1    4    4    0    0  0.38231481480E-01  0.48785443192E-01 -0.34504163993E-01  0.70939862541E-01  0.51100000000E-03 0.  1.
         11    1    4    4    0    0  0.30878429217E-01  0.27088815977E-01 -0.46493510012E-01  0.62041832148E-01  0.51100000000E-03 0. -1.
</event>
<event>
 8    1  0.5489035E+004  0.1043930E+01  0.7957747E-01            NaN
         13   -1    0    0    0    0  0.00000000000E+00  0.00000000000E+00  0.74505805969E-08  0.10566000000E+00  0.10566000000E+00 0.  1.
     999900   -1    0    0    0    0 -0.00000000000E+00 -0.00000000000E+00 -0.74505805969E-08  0.93827000000E+00  0.93827000000E+00 0. -1.
     999902    2    1    2    0    0  0.26822621931E-01 -0.20567675940E-01 -0.41070018151E-02  0.10098807738E+01  0.10093066073E+01 0.  0.
     999903    2    3    3    0    0  0.33607302556E-01 -0.11805502814E+00  0.89882116929E-02  0.12437453421E+00  0.17938683237E-01 0.  0.
         14    1    1    2    0    0 -0.26822621931E-01  0.20567675940E-01  0.41070018151E-02  0.34049226199E-01  0.00000000000E+00 0. -1.
     999901    1    3    3    0    0 -0.67846806244E-02  0.97487352204E-01 -0.13095213508E-01  0.88550623959E+00  0.88000000000E+00 0. -1.
        -11    1    4    4    0    0  0.11173462692E-01 -0.70506424736E-01  0.29191240585E-02  0.71447775360E-01  0.51100000000E-03 0.  1.
         11    1    4    4    0    0  0.22433839863E-01 -0.47548603408E-01  0.60690876344E-02  0.52926758854E-01  0.51100000000E-03 0. -1.
</event>
<event>
 8    1  0.5489035E+004  0.1043930E+01  0.7957747E-01            NaN
         13   -1    0    0    0    0  0.00000000000E+00  0.00000000000E+00  0.74505805969E-08  0.10566000000E+00  0.10566000000E+00 0. -1.
     999900   -1    0    0    0    0 -0.00000000000E+00 -0.00000000000E+00 -0.74505805969E-08  0.93827000000E+00  0.93827000000E+00 0.  1.
     999902    2    1    2    0    0  0.26183489492E-01  0.62564687982E-02  0.38153006143E-02  0.10167403872E+01  0.10163767707E+01 0.  0.
     999903    2    3    3    0    0 -0.10792064345E+00 -0.54919592483E-01 -0.18948877925E-01  0.12419087221E+00  0.20032120316E-01 0.  0.
         14    1    1    2    0    0 -0.26183489492E-01 -0.62564687982E-02 -0.38153006143E-02  0.27189612770E-01  0.00000000000E+00 0.  1.
     999901    1    3    3    0    0  0.13410413294E+00  0.61176061282E-01  0.22764178539E-01  0.89254951502E+00  0.88000000000E+00 0.  1.
        -11    1    4    4    0    0 -0.56803072128E-01 -0.19632968547E-01 -0.15018884010E-01  0.61950548465E-01  0.51100000000E-03 0.  1.
         11    1    4    4    0    0 -0.51117571318E-01 -0.35286623937E-01 -0.39299939146E-02  0.62240323742E-01  0.51100000000E-03 0. -1.
</event>
<event>
 8    1  0.5489035E+004  0.1043930E+01  0.7957747E-01            NaN
         13   -1    0    0    0    0  0.00000000000E+00  0.00000000000E+00  0.74505805969E-08  0.10566000000E+00  0.10566000000E+00 0.  1.
     999900   -1    0    0    0    0 -0.00000000000E+00 -0.00000000000E+00 -0.74505805969E-08  0.93827000000E+00  0.93827000000E+00 0.  1.
     999902    2    1    2    0    0  0.15732649093E-01  0.17093998436E-01 -0.27144489485E-02  0.10205400606E+01  0.10202719863E+01 0.  0.
     999903    2    3    3    0    0 -0.96540477403E-01  0.10057741672E-01  0.82740854526E-01  0.12927277597E+00  0.21075570075E-01 0.  0.
         14    1    1    2    0    0 -0.15732649093E-01 -0.17093998436E-01  0.27144489485E-02  0.23389939356E-01  0.00000000000E+00 0. -1.
     999901    1    3    3    0    0  0.11227312650E+00  0.70362567636E-02 -0.85455303474E-01  0.89126728468E+00  0.88000000000E+00 0.  1.
        -11    1    4    4    0    0 -0.46809157990E-01 -0.14207336271E-02  0.28649604935E-01  0.54901518556E-01  0.51100000000E-03 0. -1.
         11    1    4    4    0    0 -0.49731319412E-01  0.11478475300E-01  0.54091249591E-01  0.74371257412E-01  0.51100000000E-03 0.  1.
</event>
<event>
 8    1  0.5489035E+004  0.1043930E+01  0.7957747E-01            NaN
         13   -1    0    0    0    0  0.00000000000E+00  0.00000000000E+00  0.74505805969E-08  0.10566000000E+00  0.10566000000E+00 0. -1.
     999900   -1    0    0    0    0 -0.00000000000E+00 -0.00000000000E+00 -0.74505805969E-08  0.93827000000E+00  0.93827000000E+00 0. -1.
     999902    2    1    2    0    0  0.12015430063E-01  0.12444850655E-01 -0.14091229833E-01  0.10216183971E+01  0.10213747312E+01 0.  0.
     999903    2    3    3    0    0 -0.74892676175E-01  0.10663900565E+00  0.88815292910E-02  0.13203798730E+00  0.19348334752E-01 0.  0.
         14    1    1    2    0    0 -0.12015430063E-01 -0.12444850655E-01  0.14091229833E-01  0.22311602937E-01  0.00000000000E+00 0. -1.
     999901    1    3    3    0    0  0.86908106238E-01 -0.94194154996E-01 -0.22972759124E-01  0.88958040976E+00  0.88000000000E+00 0.  1.
        -11    1    4    4    0    0 -0.25351354171E-01  0.25105517837E-01 -0.34026899002E-02  0.35844352466E-01  0.51100000000E-03 0.  1.
         11    1    4    4    0    0 -0.49541322004E-01  0.81533487814E-01  0.12284219191E-01  0.96193634837E-01  0.51100000000E-03 0. -1.
</event>
<event>
 8    1  0.5489035E+004  0.1043930E+01  0.7957747E-01            NaN
         13   -1    0    0    0    0  0.00000000000E+00  0.00000000000E+00  0.74505805969E-08  0.10566000000E+00  0.10566000000E+00 0.  1.
     999900   -1    0    0    0    0 -0.00000000000E+00 -0.00000000000E+00 -0.74505805969E-08  0.93827000000E+00  0.93827000000E+00 0.  1.
     999902    2    1    2    0    0  0.18178818516E-01  0.64714697766E-02 -0.26154149669E-01  0.10114278630E+01  0.10109055016E+01 0.  0.
     999903    2    3    3    0    0  0.90546661542E-01 -0.80870004077E-01  0.96789203640E-02  0.12342468359E+00  0.20032861606E-01 0.  0.
         14    1    1    2    0    0 -0.18178818516E-01 -0.64714697766E-02  0.26154149669E-01  0.32502136986E-01  0.00000000000E+00 0.  1.
     999901    1    3    3    0    0 -0.72367843026E-01  0.87341473853E-01 -0.35833070033E-01  0.88800317942E+00  0.88000000000E+00 0.  1.
        -11    1    4    4    0    0  0.49023289758E-01 -0.49064869888E-01  0.14620338632E-01  0.70884834898E-01  0.51100000000E-03 0. -1.
         11    1    4    4    0    0  0.41523371785E-01 -0.31805134189E-01 -0.49414182680E-02  0.52539848693E-01  0.51100000000E-03 0.  1.
</event>
<event>
 8    1  0.5489035E+004  0.1043930E+01  0.7957747E-01            NaN
         13   -1    0    0    0    0  0.00000000000E+00  0.00000000000E+00  0.74505805969E-08  0.10566000000E+00  0.10566000000E+00 0.  1.
     999900   -1    0    0    0    0 -0.00000000000E+00 -0.00000000000E+00 -0.74505805969E-08  0.93827000000E+00  0.93827000000E+00 0. -1.
     999902    2    1    2    0    0 -0.95291019317E-02 -0.14159816390E-01 -0.16377549905E-01  0.10202756489E+01  0.10200014076E+01 0.  0.
     999903    2    3    3    0    0 -0.59388172015E-01 -0.93469135819E-01 -0.71814405026E-01  0.13356874136E+00  0.20490621599E-01 0.  0.
         14    1    1    2    0    0  0.95291019317E-02  0.14159816390E-01  0.16377549905E-01  0.23654351074E-01  0.00000000000E+00 0.  1.
     999901    1    3    3    0    0  0.49859070084E-01  0.79309319429E-01  0.55436855120E-01  0.88670690757E+00  0.88000000000E+00 0.  1.
        -11    1    4    4    0    0 -0.37829458386E-01 -0.41633921376E-01 -0.31748935084E-01  0.64596496274E-01  0.51100000000E-03 0.  1.
         11    1    4    4    0    0 -0.21558713629E-01 -0.51835214443E-01 -0.40065469942E-01  0.68972245087E-01  0.51100000000E-03 0. -1.
</event>
<event>
 8    1  0.5489035E+004  0.1043930E+01  0.7957747E-01            NaN
         13   -1    0    0    0    0  0.00000000000E+00  0.00000000000E+00  0.74505805969E-08  0.10566000000E+00  0.10566000000E+00 0.  1.
     999900   -1    0    0    0    0 -0.00000000000E+00 -0.00000000000E+00 -0.74505805969E-08  0.93827000000E+00  0.93827000000E+00 0. -1.
     999902    2    1    2    0    0  0.62081755220E-02 -0.19500849606E-01 -0.10183953362E-01  0.10210709212E+01  0.10208150119E+01 0.  0.
     999903    2    3    3    0    0  0.10185049405E+00 -0.77688292492E-01  0.29893319308E-01  0.13307350035E+00  0.20148251219E-01 0.  0.
         14    1    1    2    0    0 -0.62081755220E-02  0.19500849606E-01  0.10183953362E-01  0.22859078826E-01  0.00000000000E+00 0.  1.
     999901    1    3    3    0    0 -0.95642318531E-01  0.58187442886E-01 -0.40077272670E-01  0.88799742082E+00  0.88000000000E+00 0. -1.
        -11    1    4    4    0    0  0.10316231962E-01 -0.69269761236E-02 -0.29951515982E-02  0.12792173162E-01  0.51100000000E-03 0. -1.
         11    1    4    4    0    0  0.91534262091E-01 -0.70761316369E-01  0.32888470906E-01  0.12028132719E+00  0.51100000000E-03 0.  1.
</event>
<event>
 8    1  0.5489035E+004  0.1043930E+01  0.7957747E-01            NaN
         13   -1    0    0    0    0  0.00000000000E+00  0.00000000000E+00  0.74505805969E-08  0.10566000000E+00  0.10566000000E+00 0. -1.
     999900   -1    0    0    0    0 -0.00000000000E+00 -0.00000000000E+00 -0.74505805969E-08  0.93827000000E+00  0.93827000000E+00 0. -1.
     999902    2    1    2    0    0 -0.22135342321E-01 -0.77572129118E-02 -0.40528211262E-02  0.10201272041E+01  0.10198494691E+01 0.  0.
     999903    2    3    3    0    0 -0.12674458835E+00  0.32372263823E-01  0.11725409318E-01  0.13288291883E+00  0.20204721036E-01 0.  0.
         14    1    1    2    0    0  0.22135342321E-01  0.77572129118E-02  0.40528211262E-02  0.23802795864E-01  0.00000000000E+00 0. -1.
     999901    1    3    3    0    0  0.10460924603E+00 -0.40129476735E-01 -0.15778230445E-01  0.88724428531E+00  0.88000000000E+00 0. -1.
        -11    1    4    4    0    0 -0.47346594489E-01  0.54932122169E-02 -0.30515236632E-02  0.47764508873E-01  0.51100000000E-03 0. -1.
         11    1    4    4    0    0 -0.79397993858E-01  0.26879051606E-01  0.14776932981E-01  0.85118409955E-01  0.51100000000E-03 0.  1.
</event>
<event>
 8    1  0.5489035E+004  0.1043930E+01  0.7957747E-01            NaN
         13   -1    0    0    0    0  0.00000000000E+00  0.00000000000E+00  0.74505805969E-08  0.10566000000E+00  0.10566000000E+00 0. -1.
     999900   -1    0    0    0    0 -0.00000000000E+00 -0.00000000000E+00 -0.74505805969E-08  0.93827000000E+00  0.93827000000E+00 0.  1.
     999902    2    1    2    0    0 -0.16085858918E-01  0.16854983925E-01 -0.15299073099E-02  0.10205807825E+01  0.10203136516E+01 0.  0.
     999903    2    3    3    0    0 -0.10932526009E+00  0.72455851717E-01  0.16579169214E-01  0.13372511158E+00  0.20141342421E-01 0.  0.
         14    1    1    2    0    0  0.16085858918E-01 -0.16854983925E-01  0.15299073099E-02  0.23349217473E-01  0.00000000000E+00 0. -1.
     999901    1    3    3    0    0  0.93239401173E-01 -0.55600867793E-01 -0.18109076524E-01  0.88685567094E+00  0.88000000000E+00 0. -1.
        -11    1    4    4    0    0 -0.81544401851E-01  0.57559293376E-01  0.20676705397E-01  0.10193306134E+00  0.51100000000E-03 0.  1.
         11    1    4    4    0    0 -0.27780858240E-01  0.14896558341E-01 -0.40975361832E-02  0.31792050244E-01  0.51100000000E-03 0. -1.
</event>
<event>
 8    1  0.5489035E+004  0.1043930E+01  0.7957747E-01            NaN
         13   -1    0    0    0    0  0.00000000000E+00  0.00000000000E+00  0.74505805969E-08  0.10566000000E+00  0.10566000000E+00 0. -1.
     999900   -1    0    0    0    0 -0.00000000000E+00 -0.00000000000E+00 -0.74505805969E-08  0.93827000000E+00  0.93827000000E+00 0. -1.
     999902    2    1    2    0    0  0.23299790443E-01 -0.55624095143E-02 -0.40596671804E-02  0.10196338783E+01  0.10193443698E+01 0.  0.
     999903    2    3    3    0    0 -0.42101427972E-01  0.96589143837E-01  0.69497554382E-01  0.12827372429E+00  0.22852687693E-01 0.  0.
         14    1    1    2    0    0 -0.23299790443E-01  0.55624095143E-02  0.40596671804E-02  0.24296121746E-01  0.00000000000E+00 0.  1.
     999901    1    3    3    0    0  0.65401218415E-01 -0.10215155335E+00 -0.73557221562E-01  0.89136015396E+00  0.88000000000E+00 0.  1.
        -11    1    4    4    0    0 -0.37102494498E-01  0.87121866775E-01  0.52766023101E-01  0.10840354737E+00  0.51100000000E-03 0.  1.
         11    1    4    4    0    0 -0.49989334735E-02  0.94672770627E-02  0.16731531281E-01  0.19870176921E-01  0.51100000000E-03 0. -1.
</event>
<event>
 8    1  0.5489035E+004  0.1043930E+01  0.7957747E-01            NaN
         13   -1    0    0    0    0  0.00000000000E+00  0.00000000000E+00  0.74505805969E-08  0.10566000000E+00  0.10566000000E+00 0. -1.
     999900   -1    0    0    0    0 -0.00000000000E+00 -0.00000000000E+00 -0.74505805969E-08  0.93827000000E+00  0.93827000000E+00 0.  1.
     999902    2    1    2    0    0  0.29763575085E-01  0.12332900738E-01  0.38129259450E-02  0.10114876011E+01  0.10109671893E+01 0.  0.
     999903    2    3    3    0    0  0.36851979745E-01  0.10860906562E+00  0.46110315293E-01  0.12519847527E+00  0.19862011166E-01 0.  0.
         14    1    1    2    0    0 -0.29763575085E-01 -0.12332900738E-01 -0.38129259450E-02  0.32442398905E-01  0.00000000000E+00 0. -1.
     999901    1    3    3    0    0 -0.70884046598E-02 -0.96276164885E-01 -0.42297389348E-01  0.88628912582E+00  0.88000000000E+00 0. -1.
        -11    1    4    4    0    0 -0.11719309000E-02  0.94791188426E-03  0.25209278503E-02  0.29813012597E-02  0.51100000000E-03 0.  1.
         11    1    4    4    0    0  0.38023910645E-01  0.10766115374E+00  0.43589387443E-01  0.12221717401E+00  0.51100000000E-03 0. -1.
</event>
<event>
 7    1  0.5489035E+004  0.1043930E+01  0.7957747E-01            NaN
         13   -1    0    0    0    0  0.00000000000E+00  0.00000000000E+00  0.74505805969E-08  0.10566000000E+00  0.10566000000E+00 0. -1.
     999900   -1    0    0    0    0 -0.00000000000E+00 -0.00000000000E+00 -0.74505805969E-08  0.93827000000E+00  0.93827000000E+00 0.  1.
     999903    2    1    2    0    0 -0.69180413338E-01 -0.42107073706E-01 -0.39007342232E-01  0.91849034399E-01  0.18860994841E-01 0.  0.
         14    1    1    2    0    0 -0.29337312915E-01 -0.32129057858E-01 -0.41128899457E-01  0.59871033551E-01  0.00000000000E+00 0.  1.
     999901    1    1    2    0    0  0.98517726253E-01  0.74236131564E-01  0.80136241689E-01  0.89220993205E+00  0.88000000000E+00 0.  1.
        -11    1    3    3    0    0 -0.25490354720E-01 -0.25016357038E-01 -0.21969763505E-01  0.41934567277E-01  0.51100000000E-03 0. -1.
         11    1    3    3    0    0 -0.43690058618E-01 -0.17090716668E-01 -0.17037578727E-01  0.49914467123E-01  0.51100000000E-03 0.  1.
</event>
<event>
 7    1  0.5489035E+004  0.1043930E+01  0.7957747E-01            NaN
         13   -1    0    0    0    0  0.00000000000E+00  0.00000000000E+00  0.74505805969E-08  0.10566000000E+00  0.10566000000E+00 0.  1.
     999900   -1    0    0    0    0 -0.00000000000E+00 -0.00000000000E+00 -0.74505805969E-08  0.93827000000E+00  0.93827000000E+00 0. -1.
     999902    2    1    2    0    0  0.20422507709E-01  0.13649146230E-02 -0.29499341122E-02  0.10232504467E+01  0.10230414619E+01 0.  0.
         14    1    1    2    0    0 -0.20422507709E-01 -0.13649146230E-02  0.29499341122E-02  0.20679553291E-01  0.00000000000E+00 0.  1.
     999901    1    3    3    0    0  0.88281392168E-01  0.20905919736E-01 -0.10200129259E+00  0.89052508408E+00  0.88000000000E+00 0. -1.
        -11    1    3    3    0    0  0.21369677449E-02 -0.47071016337E-02 -0.44899773429E-02  0.68661819429E-02  0.51100000000E-03 0. -1.
         11    1    3    3    0    0 -0.69995852204E-01 -0.14833903480E-01  0.10354133582E+00  0.12585918069E+00  0.51100000000E-03 0.  1.
</event>
<event>
 8    1  0.5489035E+004  0.1043930E+01  0.7957747E-01            NaN
         13   -1    0    0    0    0  0.00000000000E+00  0.00000000000E+00  0.74505805969E-08  0.10566000000E+00  0.10566000000E+00 0.  1.
     999900   -1    0    0    0    0 -0.00000000000E+00 -0.00000000000E+00 -0.74505805969E-08  0.93827000000E+00  0.93827000000E+00 0.  1.
     999902    2    1    2    0    0 -0.23327311263E-02  0.19563737587E-01 -0.11854789236E-01  0.10209361423E+01  0.10206771719E+01 0.  0.
     999903    2    3    3    0    0  0.10491553362E+00 -0.62953950873E-01  0.37069634566E-01  0.12924956149E+00  0.18995320811E-01 0.  0.
         14    1    1    2    0    0  0.23327311263E-02 -0.19563737587E-01  0.11854789236E-01  0.22993857674E-01  0.00000000000E+00 0.  1.
     999901    1    3    3    0    0 -0.10724826475E+00  0.82517688460E-01 -0.48924423803E-01  0.89168658084E+00  0.88000000000E+00 0. -1.
        -11    1    4    4    0    0  0.92544142187E-01 -0.54408385096E-01  0.38700261909E-01  0.11411687875E+00  0.51100000000E-03 0.  1.
         11    1    4    4    0    0  0.12371391434E-01 -0.85455657769E-02 -0.16306273433E-02  0.15132682743E-01  0.51100000000E-03 0. -1.
</event>
<event>
 8    1  0.5489035E+004  0.1043930E+01  0.7957747E-01            NaN
         13   -1    0    0    0    0  0.00000000000E+00  0.00000000000E+00  0.74505805969E-08  0.10566000000E+00  0.10566000000E+00 0. -1.
     999900   -1    0    0    0    0 -0.00000000000E+00 -0.00000000000E+00 -0.74505805969E-08  0.93827000000E+00  0.93827000000E+00 0. -1.
     999902    2    1    2    0    0  0.16908994931E-01  0.11946430620E-01 -0.14603964785E-01  0.10185941144E+01  0.10182789710E+01 0.  0.
     999903    2    3    3    0    0  0.17181850351E-01  0.22298627456E-02  0.12486963252E+00  0.12755687019E+00  0.19445866848E-01 0.  0.
         14    1    1    2    0    0 -0.16908994931E-01 -0.11946430620E-01  0.14603964785E-01  0.25335885648E-01  0.00000000000E+00 0. -1.
     999901    1    3    3    0    0 -0.27285542048E-03  0.97165678739E-02 -0.13947359730E+00  0.89103724416E+00  0.88000000000E+00 0. -1.
        -11    1    4    4    0    0  0.10223111855E-01 -0.25748883552E-02  0.22669249743E-01  0.25005960708E-01  0.51100000000E-03 0.  1.
         11    1    4    4    0    0  0.69587384962E-02  0.48047511008E-02  0.10220038278E+00  0.10255090948E+00  0.51100000000E-03 0. -1.
</event>
<event>
 8    1  0.5489035E+004  0.1043930E+01  0.7957747E-01            NaN
         13   -1    0    0    0    0  0.00000000000E+00  0.00000000000E+00  0.74505805969E-08  0.10566000000E+00  0.10566000000E+00 0. -1.
     999900   -1    0    0    0    0 -0.00000000000E+00 -0.00000000000E+00 -0.74505805969E-08  0.93827000000E+00  0.93827000000E+00 0. -1.
     999902    2    1    2    0    0 -0.20692759972E-01  0.76983968442E-02  0.77351932376E-02  0.10205357947E+01  0.10202676214E+01 0.  0.
     999903    2    3    3    0    0 -0.85053284296E-02  0.96859426042E-01  0.87608772972E-01  0.13234774511E+00  0.19660608074E-01 0.  0.
         14    1    1    2    0    0  0.20692759972E-01 -0.76983968442E-02 -0.77351932376E-02  0.23394205343E-01  0.00000000000E+00 0.  1.
     999901    1    3    3    0    0 -0.12187431542E-01 -0.89161029197E-01 -0.79873579734E-01  0.88818804955E+00  0.88000000000E+00 0.  1.
        -11    1    4    4    0    0 -0.12529303429E-01  0.70824292346E-01  0.71749689860E-01  0.10159401039E+00  0.51100000000E-03 0.  1.
         11    1    4    4    0    0  0.40239749991E-02  0.26035133695E-01  0.15859083112E-01  0.30753734724E-01  0.51100000000E-03 0. -1.
</event>
<event>
 8    1  0.5489035E+004  0.1043930E+01  0.7957747E-01            NaN
         13   -1    0    0    0    0  0.00000000000E+00  0.00000000000E+00  0.74505805969E-08  0.10566000000E+00  0.10566000000E+00 0.  1.
     999900   -1    0    0    0    0 -0.00000000000E+00 -0.00000000000E+00 -0.74505805969E-08  0.93827000000E+00  0.93827000000E+00 0.  1.
     999902    2    1    2    0    0  0.57569997887E-02  0.58335358387E-02 -0.21801204646E-01  0.10206391067E+01  0.10203733240E+01 0.  0.
     999903    2    3    3    0    0 -0.65842327170E-01 -0.10275921127E+00  0.35547174014E-01  0.12923140823E+00  0.23291366335E-01 0.  0.
         14    1    1    2    0    0 -0.57569997887E-02 -0.58335358387E-02  0.21801204646E-01  0.23290893306E-01  0.00000000000E+00 0.  1.
     999901    1    3    3    0    0  0.71599326959E-01  0.10859274711E+00 -0.57348378660E-01  0.89140769846E+00  0.88000000000E+00 0.  1.
        -11    1    4    4    0    0 -0.71342470268E-02 -0.27322316455E-01  0.12591910295E-01  0.30922868285E-01  0.51100000000E-03 0.  1.
         11    1    4    4    0    0 -0.58708080143E-01 -0.75436894811E-01  0.22955263719E-01  0.98308539946E-01  0.51100000000E-03 0. -1.
</event>
<event>
 8    1  0.5489035E+004  0.1043930E+01  0.7957747E-01            NaN
         13   -1    0    0    0    0  0.00000000000E+00  0.00000000000E+00  0.74505805969E-08  0.10566000000E+00  0.10566000000E+00 0. -1.
     999900   -1    0    0    0    0 -0.00000000000E+00 -0.00000000000E+00 -0.74505805969E-08  0.93827000000E+00  0.93827000000E+00 0. -1.
     999902    2    1    2    0    0  0.16271204083E-01 -0.89421968898E-02 -0.12833285365E-01  0.10213599273E+01  0.10211105195E+01 0.  0.
     999903    2    3    3    0    0  0.41590018372E-01  0.62652448884E-01  0.10454403889E+00  0.13032442191E+00  0.19998497404E-01 0.  0.
         14    1    1    2    0    0 -0.16271204083E-01  0.89421968898E-02  0.12833285365E-01  0.22570072680E-01  0.00000000000E+00 0. -1.
     999901    1    3    3    0    0 -0.25318814290E-01 -0.71594645773E-01 -0.11737732425E+00  0.89103550541E+00  0.88000000000E+00 0. -1.
        -11    1    4    4    0    0  0.21098757608E-01  0.14872787392E-01  0.35318850103E-01  0.43749739096E-01  0.51100000000E-03 0.  1.
         11    1    4    4    0    0  0.20491260764E-01  0.47779661492E-01  0.69225188787E-01  0.86574682810E-01  0.51100000000E-03 0. -1.
</event>
<event>
 8    1  0.5489035E+004  0.1043930E+01  0.7957747E-01            NaN
         13   -1    0    0    0    0  0.00000000000E+00  0.00000000000E+00  0.74505805969E-08  0.10566000000E+00  0.10566000000E+00 0.  1.
     999900   -1    0    0    0    0 -0.00000000000E+00 -0.00000000000E+00 -0.74505805969E-08  0.93827000000E+00  0.93827000000E+00 0. -1.
     999902    2    1    2    0    0  0.21221050528E-01  0.59256074953E-02  0.56259225063E-02  0.10211902372E+01  0.10209370224E+01 0.  0.
     999903    2    3    3    0    0 -0.49255698004E-01 -0.91627163744E-02 -0.11779525267E+00  0.12965929767E+00  0.20633292584E-01 0.  0.
         14    1    1    2    0    0 -0.21221050528E-01 -0.59256074953E-02 -0.56259225063E-02  0.22739762834E-01  0.00000000000E+00 0. -1.
     999901    1    3    3    0    0  0.70476748533E-01  0.15088323870E-01  0.12342117518E+00  0.89153093950E+00  0.88000000000E+00 0.  1.
        -11    1    4    4    0    0 -0.69374763064E-02 -0.92344759129E-02 -0.20034480968E-01  0.23131054268E-01  0.51100000000E-03 0.  1.
         11    1    4    4    0    0 -0.42318221698E-01  0.71759538451E-04 -0.97760771701E-01  0.10652824340E+00  0.51100000000E-03 0. -1.
</event>
<event>
 8    1  0.5489035E+004  0.1043930E+01  0.7957747E-01            NaN
         13   -1    0    0    0    0  0.00000000000E+00  0.00000000000E+00  0.74505805969E-08  0.10566000000E+00  0.10566000000E+00 0. -1.
     999900   -1    0    0    0    0 -0.00000000000E+00 -0.00000000000E+00 -0.74505805969E-08  0.93827000000E+00  0.93827000000E+00 0.  1.
     999902    2    1    2    0    0 -0.13641554504E-01  0.12617008619E-01  0.42356751470E-02  0.10248716197E+01  0.10246944008E+01 0.  0.
     999903    2    3    3    0    0  0.95164293393E-01  0.50338473222E-01  0.77728716304E-01  0.13433085784E+00  0.20318006964E-01 0.  0.
         14    1    1    2    0    0  0.13641554504E-01 -0.12617008619E-01 -0.42356751470E-02  0.19058380302E-01  0.00000000000E+00 0. -1.
     999901    1    3    3    0    0 -0.10880584790E+00 -0.37721464602E-01 -0.73493041157E-01  0.89054076186E+00  0.88000000000E+00 0.  1.
        -11    1    4    4    0    0  0.57709267892E-01  0.28521407628E-01  0.58211341155E-01  0.86790850058E-01  0.51100000000E-03 0. -1.
         11    1    4    4    0    0  0.37455025501E-01  0.21817065594E-01  0.19517375149E-01  0.47540007784E-01  0.51100000000E-03 0.  1.
</event>
<event>
 8    1  0.5489035E+004  0.1043930E+01  0.7957747E-01            NaN
         13   -1    0    0    0    0  0.00000000000E+00  0.00000000000E+00  0.74505805969E-08  0.10566000000E+00  0.10566000000E+00 0.  1.
     999900   -1    0    0    0    0 -0.00000000000E+00 -0.00000000000E+00 -0.74505805969E-08  0.93827000000E+00  0.93827000000E+00 0. -1.
     999902    2    1    2    0    0  0.14879666319E-01  0.90608710179E-02 -0.16155085826E-01  0.10201709880E+01  0.10198942857E+01 0.  0.
     999903    2    3    3    0    0 -0.95026632121E-01  0.34602590921E-01 -0.80287131901E-01  0.13065162720E+00  0.19910400070E-01 0.  0.
         14    1    1    2    0    0 -0.14879666319E-01 -0.90608710179E-02  0.16155085826E-01  0.23759012005E-01  0.00000000000E+00 0.  1.
     999901    1    3    3    0    0  0.10990629844E+00 -0.25541719903E-01  0.64132046075E-01  0.88951936079E+00  0.88000000000E+00 0.  1.
        -11    1    4    4    0    0 -0.79445119729E-02  0.36794934307E-02 -0.88684269841E-03  0.88148484595E-02  0.51100000000E-03 0.  1.
         11    1    4    4    0    0 -0.87082120148E-01  0.30923097490E-01 -0.79400289203E-01  0.12183677874E+00  0.51100000000E-03 0. -1.
</event>
<event>
 8    1  0.5489035E+004  0.1043930E+01  0.7957747E-01            NaN
         13   -1    0    0    0    0  0.00000000000E+00  0.00000000000E+00  0.74505805969E-08  0.10566000000E+00  0.10566000000E+00 0. -1.
     999900   -1    0    0    0    0 -0.00000000000E+00 -0.00000000000E+00 -0.74505805969E-08  0.93827000000E+00  0.93827000000E+00 0. -1.
     999902    2    1    2    0    0  0.18275265520E-01 -0.11833314338E-01 -0.10278488254E-03  0.10221579256E+01  0.10219260255E+01 0.  0.
     999903    2    3    3    0    0  0.23944399592E-01  0.10638478227E-01  0.12854170274E+00  0.13250264140E+00  0.18640524283E-01 0.  0.
         14    1    1    2    0    0 -0.18275265520E-01  0.11833314338E-01  0.10278488254E-03  0.21772074379E-01  0.00000000000E+00 0. -1.
     999901    1    3    3    0    0 -0.56691340720E-02 -0.22471792565E-01 -0.12864448762E+00  0.88965528422E+00  0.88000000000E+00 0. -1.
        -11    1    4    4    0    0  0.18884410331E-01 -0.14756064324E-02  0.80107069162E-01  0.82317689585E-01  0.51100000000E-03 0. -1.
         11    1    4    4    0    0  0.50599892605E-02  0.12114084660E-01  0.48434633574E-01  0.50184951818E-01  0.51100000000E-03 0.  1.
</event>
<event>
 8    1  0.5489035E+004  0.1043930E+01  0.7957747E-01            NaN
         13   -1    0    0    0    0  0.00000000000E+00  0.00000000000E+00  0.74505805969E-08  0.10566000000E+00  0.10566000000E+00 0. -1.
     999900   -1    0    0    0    0 -0.00000000000E+00 -0.00000000000E+00 -0.74505805969E-08  0.93827000000E+00  0.93827000000E+00 0. -1.
     999902    2    1    2    0    0  0.80923313719E-02 -0.22094275373E-01 -0.74818204091E-03  0.10203884918E+01  0.10201168912E+01 0.  0.
     999903    2    3    3    0    0 -0.42556494932E-01 -0.13182171554E-01  0.12109309505E+00  0.13050646255E+00  0.19585050192E-01 0.  0.
         14    1    1    2    0    0 -0.80923313719E-02  0.22094275373E-01  0.74818204091E-03  0.23541508186E-01  0.00000000000E+00 0.  1.
     999901    1    3    3    0    0  0.50648826304E-01 -0.89121038194E-02 -0.12184127709E+00  0.88988202926E+00  0.88000000000E+00 0. -1.
        -11    1    4    4    0    0 -0.36200411422E-01 -0.15807408150E-01  0.11383485753E+00  0.12049472955E+00  0.51100000000E-03 0.  1.
         11    1    4    4    0    0 -0.63560835103E-02  0.26252365960E-02  0.72582375187E-02  0.10011732999E-01  0.51100000000E-03 0. -1.
</event>
<event>
 8    1  0.5489035E+004  0.1043930E+01  0.7957747E-01            NaN
         13   -1    0    0    0    0  0.00000000000E+00  0.00000000000E+00  0.74505805969E-08  0.10566000000E+00  0.10566000000E+00 0. -1.
     999900   -1    0    0    0    0 -0.00000000000E+00 -0.00000000000E+00 -0.74505805969E-08  0.93827000000E+00  0.93827000000E+00 0. -1.
     999902    2    1    2    0    0  0.51723552222E-02 -0.10920910908E-01 -0.20300547003E-01  0.10203051876E+01  0.10200316387E+01 0.  0.
     999903    2    3    3    0    0  0.11175117549E+00  0.21858317595E-01  0.59180106790E-01  0.12971510393E+00  0.18910628649E-01 0.  0.
         14    1    1    2    0    0 -0.51723552222E-02  0.10920910908E-01  0.20300547003E-01  0.23624812427E-01  0.00000000000E+00 0. -1.
     999901    1    3    3    0    0 -0.10657882027E+00 -0.32779228503E-01 -0.79480653793E-01  0.89059008364E+00  0.88000000000E+00 0. -1.
        -11    1    4    4    0    0  0.77521669723E-01  0.99598155133E-02  0.32202102117E-01  0.84534275317E-01  0.51100000000E-03 0.  1.
         11    1    4    4    0    0  0.34229505772E-01  0.11898502082E-01  0.26978004673E-01  0.45180828615E-01  0.51100000000E-03 0. -1.
</event>
<event>
 8    1  0.5489035E+004  0.1043930E+01  0.7957747E-01            NaN
         13   -1    0    0    0    0  0.00000000000E+00  0.00000000000E+00  0.74505805969E-08  0.10566000000E+00  0.10566000000E+00 0. -1.
     999900   -1    0    0    0    0 -0.00000000000E+00 -0.00000000000E+00 -0.74505805969E-08  0.93827000000E+00  0.93827000000E+00 0. -1.
     999902    2    1    2    0    0 -0.72293142512E-02 -0.20652714307E-01 -0.10849796510E-01  0.10195063296E+01  0.10192137363E+01 0.  0.
     999903    2    3    3    0    0 -0.71211838184E-01  0.11031915235E-01  0.10504635681E+00  0.12904038555E+00  0.20587738402E-01 0.  0.
         14    1    1    2    0    0  0.72293142512E-02  0.20652714307E-01  0.10849796510E-01  0.24423670426E-01  0.00000000000E+00 0. -1.
     999901    1    3    3    0    0  0.63982523933E-01 -0.31684629542E-01 -0.11589615332E+00  0.89046594403E+00  0.88000000000E+00 0. -1.
        -11    1    4    4    0    0 -0.54938132303E-01  0.16784275565E-01  0.76337371285E-01  0.95538294222E-01  0.51100000000E-03 0.  1.
         11    1    4    4    0    0 -0.16273705881E-01 -0.57523603298E-02  0.28708985522E-01  0.33502091325E-01  0.51100000000E-03 0. -1.
</event>
<event>
 8    1  0.5489035E+004  0.1043930E+01  0.7957747E-01            NaN
         13   -1    0    0    0    0  0.00000000000E+00  0.00000000000E+00  0.74505805969E-08  0.10566000000E+00  0.10566000000E+00 0. -1.
     999900   -1    0    0    0    0 -0.00000000000E+00 -0.00000000000E+00 -0.74505805969E-08  0.93827000000E+00  0.93827000000E+00 0. -1.
     999902    2    1    2    0    0 -0.10696266666E-01 -0.18747891779E-02  0.20210323749E-01  0.10209869806E+01  0.10207291670E+01 0.  0.
     999903    2    3    3    0    0 -0.50629253578E-01 -0.82181323489E-01  0.90085645617E-01  0.13367286284E+00  0.20878684477E-01 0.  0.
         14    1    1    2    0    0  0.10696266666E-01  0.18747891779E-02 -0.20210323749E-01  0.22943019441E-01  0.00000000000E+00 0.  1.
     999901    1    3    3    0    0  0.39932986911E-01  0.80306534311E-01 -0.69875321868E-01  0.88731411772E+00  0.88000000000E+00 0. -1.
        -11    1    4    4    0    0 -0.39938852767E-01 -0.46970630275E-01  0.51317469633E-01  0.80219049354E-01  0.51100000000E-03 0.  1.
         11    1    4    4    0    0 -0.10690400811E-01 -0.35210693214E-01  0.38768175983E-01  0.53453813486E-01  0.51100000000E-03 0. -1.
</event>
<event>
 8    1  0.5489035E+004  0.1043930E+01  0.7957747E-01            NaN
         13   -1    0    0    0    0  0.00000000000E+00  0.00000000000E+00  0.74505805969E-08  0.10566000000E+00  0.10566000000E+00 0.  1.
     999900   -1    0    0    0    0 -0.00000000000E+00 -0.00000000000E+00 -0.74505805969E-08  0.93827000000E+00  0.93827000000E+00 0. -1.
     999902    2    1    2    0    0 -0.35738114775E-02  0.21524422578E-01 -0.68115401977E-02  0.10210723979E+01  0.10208165221E+01 0.  0.
     999903    2    3    3    0    0  0.12308254430E+00 -0.31708938045E-01 -0.21529156205E-01  0.13029058879E+00  0.18904060316E-01 0.  0.
         14    1    1    2    0    0  0.35738114775E-02 -0.21524422578E-01  0.68115401977E-02  0.22857602142E-01  0.00000000000E+00 0.  1.
     999901    1    3    3    0    0 -0.12665635578E+00  0.53233360623E-01  0.14717616007E-01  0.89078180907E+00  0.88000000000E+00 0.  1.
        -11    1    4    4    0    0  0.53860654171E-01 -0.18005889705E-01 -0.10142388097E-02  0.56802041629E-01  0.51100000000E-03 0. -1.
         11    1    4    4    0    0  0.69221890133E-01 -0.13703048340E-01 -0.20514917395E-01  0.73488547163E-01  0.51100000000E-03 0.  1.
</event>
<event>
 8    1  0.5489035E+004  0.1043930E+01  0.7957747E-01            NaN
         13   -1    0    0    0    0  0.00000000000E+00  0.00000000000E+00  0.74505805969E-08  0.10566000000E+00  0.10566000000E+00 0.  1.
     999900   -1    0    0    0    0 -0.00000000000E+00 -0.00000000000E+00 -0.74505805969E-08  0.93827000000E+00  0.93827000000E+00 0. -1.
     999902    2    1    2    0    0  0.69920864890E-02 -0.11455780068E-01 -0.25807329623E-01  0.10148414725E+01  0.10144245028E+01 0.  0.
     999903    2    3    3    0    0 -0.73215337509E-01  0.75097643770E-01  0.60865367811E-01  0.12274457051E+00  0.19013017768E-01 0.  0.
         14    1    1    2    0    0 -0.69920864890E-02  0.11455780068E-01  0.25807329623E-01  0.29088527510E-01  0.00000000000E+00 0.  1.
     999901    1    3    3    0    0  0.80207423998E-01 -0.86553423837E-01 -0.86672697434E-01  0.89209690198E+00  0.88000000000E+00 0. -1.
        -11    1    4    4    0    0 -0.41946356305E-01  0.30176843129E-01  0.25993633777E-01  0.57845214032E-01  0.51100000000E-03 0.  1.
         11    1    4    4    0    0 -0.31268981204E-01  0.44920800640E-01  0.34871734034E-01  0.64899356478E-01  0.51100000000E-03 0. -1.
</event>
<event>
 8    1  0.5489035E+004  0.1043930E+01  0.7957747E-01            NaN
         13   -1    0    0    0    0  0.00000000000E+00  0.00000000000E+00  0.74505805969E-08  0.10566000000E+00  0.10566000000E+00 0. -1.
     999900   -1    0    0    0    0 -0.00000000000E+00 -0.00000000000E+00 -0.74505805969E-08  0.93827000000E+00  0.93827000000E+00 0. -1.
     999902    2    1    2    0    0 -0.76627367030E-02  0.37563674173E-02  0.21720238552E-01  0.10205934066E+01  0.10203265678E+01 0.  0.
     999903    2    3    3    0    0 -0.86618402736E-01 -0.37804598605E-01  0.91877103980E-01  0.13330354590E+00  0.19912251119E-01 0.  0.
         14    1    1    2    0    0  0.76627367030E-02 -0.37563674173E-02 -0.21720238552E-01  0.23336593426E-01  0.00000000000E+00 0.  1.
     999901    1    3    3    0    0  0.78955666033E-01  0.41560966023E-01 -0.70156865428E-01  0.88728986068E+00  0.88000000000E+00 0. -1.
        -11    1    4    4    0    0 -0.70983376554E-01 -0.32006927054E-01  0.84953376972E-01  0.11524070681E+00  0.51100000000E-03 0.  1.
         11    1    4    4    0    0 -0.15635026182E-01 -0.57976715518E-02  0.69237270074E-02  0.18062839085E-01  0.51100000000E-03 0. -1.
</event>
<event>
 8    1  0.5489035E+004  0.1043930E+01  0.7957747E-01            NaN
         13   -1    0    0    0    0  0.00000000000E+00  0.00000000000E+00  0.74505805969E-08  0.10566000000E+00  0.10566000000E+00 0. -1.
     999900   -1    0    0    0    0 -0.00000000000E+00 -0.00000000000E+00 -0.74505805969E-08  0.93827000000E+00  0.93827000000E+00 0. -1.
     999902    2    1    2    0    0 -0.38114114329E-02 -0.21769221763E-01  0.10145650269E-01  0.10196121034E+01  0.10193220695E+01 0.  0.
     999903    2    3    3    0    0  0.45610653042E-01  0.40557438134E-01 -0.11029830001E+00  0.12785322452E+00  0.21342318918E-01 0.  0.
         14    1    1    2    0    0  0.38114114329E-02  0.21769221763E-01 -0.10145650269E-01  0.24317896551E-01  0.00000000000E+00 0.  1.
     999901    1    3    3    0    0 -0.49422064475E-01 -0.62326659897E-01  0.12044395028E+00  0.89175887893E+00  0.88000000000E+00 0.  1.
        -11    1    4    4    0    0  0.28430608982E-01  0.13265141810E-01 -0.65766536914E-01  0.72868113829E-01  0.51100000000E-03 0.  1.
         11    1    4    4    0    0  0.17180044060E-01  0.27292296324E-01 -0.44531763094E-01  0.54985110691E-01  0.51100000000E-03 0. -1.
</event>
<event>
 8    1  0.5489035E+004  0.1043930E+01  0.7957747E-01            NaN
         13   -1    0    0    0    0  0.00000000000E+00  0.00000000000E+00  0.74505805969E-08  0.10566000000E+00  0.10566000000E+00 0.  1.
     999900   -1    0    0    0    0 -0.00000000000E+00 -0.00000000000E+00 -0.74505805969E-08  0.93827000000E+00  0.93827000000E+00 0.  1.
     999902    2    1    2    0    0 -0.66621886599E-02 -0.22616989744E-01 -0.22487948385E-02  0.10202451935E+01  0.10199702372E+01 0.  0.
     999903    2    3    3    0    0  0.74649132727E-01  0.21923420729E-01  0.10124644244E+00  0.12934304210E+00  0.20631312101E-01 0.  0.
         14    1    1    2    0    0  0.66621886599E-02  0.22616989744E-01  0.22487948385E-02  0.23684806544E-01  0.00000000000E+00 0.  1.
     999901    1    3    3    0    0 -0.81311321387E-01 -0.44540410473E-01 -0.10349523728E+00  0.89090215136E+00  0.88000000000E+00 0.  1.
        -11    1    4    4    0    0  0.46486710694E-01  0.21220629953E-01  0.54111839641E-01  0.74429038130E-01  0.51100000000E-03 0.  1.
         11    1    4    4    0    0  0.28162422033E-01  0.70279077612E-03  0.47134602802E-01  0.54914003969E-01  0.51100000000E-03 0. -1.
</event>
<event>
 8    1  0.5489035E+004  0.1043930E+01  0.7957747E-01            NaN
         13   -1    0    0    0    0  0.00000000000E+00  0.00000000000E+00  0.74505805969E-08  0.10566000000E+00  0.10566000000E+00 0.  1.
     999900   -1    0    0    0    0 -0.00000000000E+00 -0.00000000000E+00 -0.74505805969E-08  0.93827000000E+00  0.93827000000E+00 0. -1.
     999902    2    1    2    0    0  0.13291337944E-01 -0.56138792354E-02  0.18016788824E-01  0.10208479727E+01  0.10205869896E+01 0.  0.
     999903    2    3    3    0    0  0.77795156000E-01  0.24413350009E-01  0.10418362951E+00  0.13378140166E+00  0.19878048596E-01 0.  0.
         14    1    1    2    0    0 -0.13291337944E-01  0.56138792354E-02 -0.18016788824E-01  0.23082027292E-01  0.00000000000E+00 0. -1.
     999901    1    3    3    0    0 -0.64503818056E-01 -0.30027229244E-01 -0.86166840686E-01  0.88706657105E+00  0.88000000000E+00 0. -1.
        -11    1    4    4    0    0  0.64233187569E-01  0.24101300207E-01  0.75309057528E-01  0.10187487582E+00  0.51100000000E-03 0.  1.
         11    1    4    4    0    0  0.13561968431E-01  0.31204980173E-03  0.28874571982E-01  0.31906525836E-01  0.51100000000E-03 0. -1.
</event>
<event>
 8    1  0.5489035E+004  0.1043930E+01  0.7957747E-01            NaN
         13   -1    0    0    0    0  0.00000000000E+00  0.00000000000E+00  0.74505805969E-08  0.10566000000E+00  0.10566000000E+00 0.  1.
     999900   -1    0    0    0    0 -0.00000000000E+00 -0.00000000000E+00 -0.74505805969E-08  0.93827000000E+00  0.93827000000E+00 0.  1.
     999902    2    1    2    0    0  0.22985598640E-01  0.63022321739E-02 -0.29786495018E-02  0.10199106697E+01  0.10196277977E+01 0.  0.
     999903    2    3    3    0    0  0.82108308195E-01  0.46207688757E-01  0.89989919425E-01  0.13214319166E+00  0.22061566812E-01 0.  0.
         14    1    1    2    0    0 -0.22985598640E-01 -0.63022321739E-02  0.29786495018E-02  0.24019330300E-01  0.00000000000E+00 0.  1.
     999901    1    3    3    0    0 -0.59122709555E-01 -0.39905456583E-01 -0.92968568927E-01  0.88776747804E+00  0.88000000000E+00 0.  1.
        -11    1    4    4    0    0  0.49129726810E-01  0.37680787795E-01  0.65863871955E-01  0.90398465558E-01  0.51100000000E-03 0.  1.
         11    1    4    4    0    0  0.32978581385E-01  0.85269009625E-02  0.24126047470E-01  0.41744726107E-01  0.51100000000E-03 0. -1.
</event>
<event>
 8    1  0.5489035E+004  0.1043930E+01  0.7957747E-01            NaN
         13   -1    0    0    0    0  0.00000000000E+00  0.00000000000E+00  0.74505805969E-08  0.10566000000E+00  0.10566000000E+00 0.  1.
     999900   -1    0    0    0    0 -0.00000000000E+00 -0.00000000000E+00 -0.74505805969E-08  0.93827000000E+00  0.93827000000E+00 0.  1.
     999902    2    1    2    0    0 -0.82826291075E-02 -0.21921673848E-01 -0.86437874815E-03  0.10204798640E+01  0.10202103920E+01 0.  0.
     999903    2    3    3    0    0 -0.89477058622E-01 -0.87218903140E-01 -0.42044786963E-01  0.13337666278E+00  0.20206161918E-01 0.  0.
         14    1    1    2    0    0  0.82826291075E-02  0.21921673848E-01  0.86437874815E-03  0.23450136030E-01  0.00000000000E+00 0. -1.
     999901    1    3    3    0    0  0.81194429515E-01  0.65297229292E-01  0.41180408215E-01  0.88710320119E+00  0.88000000000E+00 0.  1.
        -11    1    4    4    0    0 -0.54864658994E-01 -0.42928195017E-01 -0.30197813861E-01  0.75928451959E-01  0.51100000000E-03 0.  1.
         11    1    4    4    0    0 -0.34612399628E-01 -0.44290708122E-01 -0.11846973102E-01  0.57448210822E-01  0.51100000000E-03 0. -1.
</event>
<event>
 8    1  0.5489035E+004  0.1043930E+01  0.7957747E-01            NaN
         13   -1    0    0    0    0  0.00000000000E+00  0.00000000000E+00  0.74505805969E-08  0.10566000000E+00  0.10566000000E+00 0. -1.
     999900   -1    0    0    0    0 -0.00000000000E+00 -0.00000000000E+00 -0.74505805969E-08  0.93827000000E+00  0.93827000000E+00 0. -1.
     999902    2    1    2    0    0 -0.14720604995E-01 -0.13893743059E-01  0.11195111567E-01  0.10207985748E+01  0.10205364607E+01 0.  0.
     999903    2    3    3    0    0  0.31171001631E-01 -0.83232616733E-01  0.96644646539E-01  0.13275829309E+00  0.19628470343E-01 0.  0.
         14    1    1    2    0    0  0.14720604995E-01  0.13893743059E-01 -0.11195111567E-01  0.23131425174E-01  0.00000000000E+00 0.  1.
     999901    1    3    3    0    0 -0.45891606626E-01  0.69338873674E-01 -0.85449534973E-01  0.88804028174E+00  0.88000000000E+00 0.  1.
        -11    1    4    4    0    0  0.23075725386E-01 -0.59493693066E-01  0.55517752239E-01  0.84584103420E-01  0.51100000000E-03 0. -1.
         11    1    4    4    0    0  0.80952762445E-02 -0.23738923667E-01  0.41126894301E-01  0.48174189668E-01  0.51100000000E-03 0.  1.
</event>
<event>
 8    1  0.5489035E+004  0.1043930E+01  0.7957747E-01            NaN
         13   -1    0    0    0    0  0.00000000000E+00  0.00000000000E+00  0.74505805969E-08  0.10566000000E+00  0.10566000000E+00 0. -1.
     999900   -1    0    0    0    0 -0.00000000000E+00 -0.00000000000E+00 -0.74505805969E-08  0.93827000000E+00  0.93827000000E+00 0. -1.
     999902    2    1    2    0    0  0.26928108250E-01 -0.26361765668E-03 -0.20779404507E-01  0.10099156477E+01  0.10093426769E+01 0.  0.
     999903    2    3    3    0    0 -0.10683274441E+00  0.31130317170E-01 -0.37511594590E-01  0.11909719764E+00  0.19866827425E-01 0.  0.
         14    1    1    2    0    0 -0.26928108250E-01  0.26361765668E-03  0.20779404507E-01  0.34014352262E-01  0.00000000000E+00 0. -1.
     999901    1    3    3    0    0  0.13376085266E+00 -0.31393934827E-01  0.16732190084E-01  0.89081845010E+00  0.88000000000E+00 0.  1.
        -11    1    4    4    0    0 -0.21582619305E-01  0.43397668408E-02  0.40383973651E-03  0.22024242095E-01  0.51100000000E-03 0. -1.
         11    1    4    4    0    0 -0.85250125104E-01  0.26790550329E-01 -0.37915434327E-01  0.97072955546E-01  0.51100000000E-03 0.  1.
</event>
<event>
 8    1  0.5489035E+004  0.1043930E+01  0.7957747E-01            NaN
         13   -1    0    0    0    0  0.00000000000E+00  0.00000000000E+00  0.74505805969E-08  0.10566000000E+00  0.10566000000E+00 0.  1.
     999900   -1    0    0    0    0 -0.00000000000E+00 -0.00000000000E+00 -0.74505805969E-08  0.93827000000E+00  0.93827000000E+00 0.  1.
     999902    2    1    2    0    0 -0.11209027834E-01 -0.13701084528E-01 -0.15020759392E-01  0.10207139445E+01  0.10204498867E+01 0.  0.
     999903    2    3    3    0    0 -0.10620803930E+00 -0.70368851192E-01 -0.34022065079E-01  0.13358537566E+00  0.21345464320E-01 0.  0.
         14    1    1    2    0    0  0.11209027834E-01  0.13701084528E-01  0.15020759392E-01  0.23216055542E-01  0.00000000000E+00 0.  1.
     999901    1    3    3    0    0  0.94999011470E-01  0.56667766664E-01  0.19001305687E-01  0.88712856880E+00  0.88000000000E+00 0.  1.
        -11    1    4    4    0    0 -0.33750076235E-01 -0.33513267155E-01 -0.80403027075E-02  0.48240173195E-01  0.51100000000E-03 0. -1.
         11    1    4    4    0    0 -0.72457963069E-01 -0.36855584037E-01 -0.25981762372E-01  0.85345202465E-01  0.51100000000E-03 0.  1.
</event>
<event>
 8    1  0.5489035E+004  0.1043930E+01  0.7957747E-01            NaN
         13   -1    0    0    0    0  0.00000000000E+00  0.00000000000E+00  0.74505805969E-08  0.10566000000E+00  0.10566000000E+00 0.  1.
     999900   -1    0    0    0    0 -0.00000000000E+00 -0.00000000000E+00 -0.74505805969E-08  0.93827000000E+00  0.93827000000E+00 0.  1.
     999902    2    1    2    0    0 -0.53155030989E-02  0.22987816979E-01 -0.32209679723E-02  0.10201167907E+01  0.10198388097E+01 0.  0.
     999903    2    3    3    0    0  0.88999850042E-01 -0.38414601219E-01  0.82312248177E-01  0.12883592932E+00  0.20657579439E-01 0.  0.
         14    1    1    2    0    0  0.53155030989E-02 -0.22987816979E-01  0.32209679723E-02  0.23813209304E-01  0.00000000000E+00 0. -1.
     999901    1    3    3    0    0 -0.94315353141E-01  0.61402418198E-01 -0.85533216150E-01  0.89128086138E+00  0.88000000000E+00 0. -1.
        -11    1    4    4    0    0  0.60828015897E-01 -0.27763795884E-01  0.68406801494E-01  0.95658912243E-01  0.51100000000E-03 0.  1.
         11    1    4    4    0    0  0.28171834145E-01 -0.10650805334E-01  0.13905446683E-01  0.33177017073E-01  0.51100000000E-03 0. -1.
</event>
<event>
 8    1  0.5489035E+004  0.1043930E+01  0.7957747E-01            NaN
         13   -1    0    0    0    0  0.00000000000E+00  0.00000000000E+00  0.74505805969E-08  0.10566000000E+00  0.10566000000E+00 0.  1.
     999900   -1    0    0    0    0 -0.00000000000E+00 -0.00000000000E+00 -0.74505805969E-08  0.93827000000E+00  0.93827000000E+00 0.  1.
     999902    2    1    2    0    0  0.75113217404E-02 -0.22565684019E-01 -0.52838496664E-02  0.10195671365E+01  0.10192760160E+01 0.  0.
     999903    2    3    3    0    0  0.42218190806E-01 -0.84384581475E-01 -0.91056757398E-01  0.13255916895E+00  0.19428509417E-01 0.  0.
         14    1    1    2    0    0 -0.75113217404E-02  0.22565684019E-01  0.52838496664E-02  0.24362863478E-01  0.00000000000E+00 0. -1.
     999901    1    3    3    0    0 -0.34706869066E-01  0.61818897456E-01  0.85772907732E-01  0.88700796758E+00  0.88000000000E+00 0. -1.
        -11    1    4    4    0    0  0.42105756836E-01 -0.70908247383E-01 -0.82108177451E-01  0.11637391560E+00  0.51100000000E-03 0.  1.
         11    1    4    4    0    0  0.11243396998E-03 -0.13476334092E-01 -0.89485799475E-02  0.16185253351E-01  0.51100000000E-03 0. -1.
</event>
<event>
 8    1  0.5489035E+004  0.1043930E+01  0.7957747E-01            NaN
         13   -1    0    0    0    0  0.00000000000E+00  0.00000000000E+00  0.74505805969E-08  0.10566000000E+00  0.10566000000E+00 0.  1.
     999900   -1    0    0    0    0 -0.00000000000E+00 -0.00000000000E+00 -0.74505805969E-08  0.93827000000E+00  0.93827000000E+00 0. -1.
     999902    2    1    2    0    0  0.22640810409E-01 -0.70798158465E-03  0.10905545062E-03  0.10212778604E+01  0.10210266151E+01 0.  0.
     999903    2    3    3    0    0  0.25903913208E-01  0.56540740942E-01  0.11461892837E+00  0.13200817408E+00  0.20513195227E-01 0.  0.
         14    1    1    2    0    0 -0.22640810409E-01  0.70798158465E-03 -0.10905545062E-03  0.22652139568E-01  0.00000000000E+00 0. -1.
     999901    1    3    3    0    0 -0.32631027988E-02 -0.57248722527E-01 -0.11450987291E+00  0.88926968635E+00  0.88000000000E+00 0. -1.
        -11    1    4    4    0    0  0.13037840787E-01  0.35432135889E-01  0.87556449177E-01  0.95351006599E-01  0.51100000000E-03 0. -1.
         11    1    4    4    0    0  0.12866072421E-01  0.21108605054E-01  0.27062479189E-01  0.36657167481E-01  0.51100000000E-03 0.  1.
</event>
<event>
 8    1  0.5489035E+004  0.1043930E+01  0.7957747E-01            NaN
         13   -1    0    0    0    0  0.00000000000E+00  0.00000000000E+00  0.74505805969E-08  0.10566000000E+00  0.10566000000E+00 0.  1.
     999900   -1    0    0    0    0 -0.00000000000E+00 -0.00000000000E+00 -0.74505805969E-08  0.93827000000E+00  0.93827000000E+00 0. -1.
     999902    2    1    2    0    0  0.84920742640E-02 -0.20674488303E-01  0.75371198519E-02  0.10203427584E+01  0.10200700891E+01 0.  0.
     999903    2    3    3    0    0 -0.61193557718E-01 -0.11330505132E+00 -0.22254065951E-01  0.13224139971E+00  0.20244954580E-01 0.  0.
         14    1    1    2    0    0 -0.84920742640E-02  0.20674488303E-01 -0.75371198519E-02  0.23587241626E-01  0.00000000000E+00 0.  1.
     999901    1    3    3    0    0  0.69685631982E-01  0.92630563014E-01  0.29791185803E-01  0.88810135866E+00  0.88000000000E+00 0.  1.
        -11    1    4    4    0    0 -0.33113017974E-01 -0.50416936179E-01 -0.19186399210E-01  0.63298644920E-01  0.51100000000E-03 0. -1.
         11    1    4    4    0    0 -0.28080539743E-01 -0.62888115137E-01 -0.30676667411E-02  0.68942754790E-01  0.51100000000E-03 0.  1.
</event>
<event>
 8    1  0.5489035E+004  0.1043930E+01  0.7957747E-01            NaN
         13   -1    0    0    0    0  0.00000000000E+00  0.00000000000E+00  0.74505805969E-08  0.10566000000E+00  0.10566000000E+00 0.  1.
     999900   -1    0    0    0    0 -0.00000000000E+00 -0.00000000000E+00 -0.74505805969E-08  0.93827000000E+00  0.93827000000E+00 0. -1.
     999902    2    1    2    0    0 -0.13710109903E-01  0.13416404776E-01  0.30953358794E-03  0.10247450361E+01  0.10245654328E+01 0.  0.
     999903    2    3    3    0    0 -0.12413445389E+00  0.43073029357E-01 -0.31870458342E-01  0.13676496701E+00  0.20598096698E-01 0.  0.
         14    1    1    2    0    0  0.13710109903E-01 -0.13416404776E-01 -0.30953358794E-03  0.19184963949E-01  0.00000000000E+00 0. -1.
     999901    1    3    3    0    0  0.11042434399E+00 -0.29656624581E-01  0.32179991930E-01  0.88798006904E+00  0.88000000000E+00 0. -1.
        -11    1    4    4    0    0 -0.91583997050E-01  0.30707536201E-01 -0.13942720515E-01  0.97597345618E-01  0.51100000000E-03 0.  1.
         11    1    4    4    0    0 -0.32550456838E-01  0.12365493156E-01 -0.17927737827E-01  0.39167621397E-01  0.51100000000E-03 0. -1.
</event>
<event>
 8    1  0.5489035E+004  0.1043930E+01  0.7957747E-01            NaN
         13   -1    0    0    0    0  0.00000000000E+00  0.00000000000E+00  0.74505805969E-08  0.10566000000E+00  0.10566000000E+00 0. -1.
     999900   -1    0    0    0    0 -0.00000000000E+00 -0.00000000000E+00 -0.74505805969E-08  0.93827000000E+00  0.93827000000E+00 0.  1.
     999902    2    1    2    0    0  0.75749992358E-02 -0.16876749733E-01  0.39230501043E-02  0.10250198012E+01  0.10248453529E+01 0.  0.
     999903    2    3    3    0    0  0.84896656580E-01 -0.10381516712E+00  0.22703760783E-01  0.13716303227E+00  0.17697611267E-01 0.  0.
         14    1    1    2    0    0 -0.75749992358E-02  0.16876749733E-01 -0.39230501043E-02  0.18910198759E-01  0.00000000000E+00 0.  1.
     999901    1    3    3    0    0 -0.77321657344E-01  0.86938417391E-01 -0.18780710679E-01  0.88785676897E+00  0.88000000000E+00 0.  1.
        -11    1    4    4    0    0  0.41948082779E-01 -0.64615453014E-01  0.10581614112E-01  0.77762652316E-01  0.51100000000E-03 0. -1.
         11    1    4    4    0    0  0.42948573800E-01 -0.39199714110E-01  0.12122146671E-01  0.59400379954E-01  0.51100000000E-03 0.  1.
</event>
<event>
 8    1  0.5489035E+004  0.1043930E+01  0.7957747E-01            NaN
         13   -1    0    0    0    0  0.00000000000E+00  0.00000000000E+00  0.74505805969E-08  0.10566000000E+00  0.10566000000E+00 0. -1.
     999900   -1    0    0    0    0 -0.00000000000E+00 -0.00000000000E+00 -0.74505805969E-08  0.93827000000E+00  0.93827000000E+00 0. -1.
     999902    2    1    2    0    0 -0.79461053304E-02  0.16028466219E-01  0.14374103644E-01  0.10209807696E+01  0.10207228149E+01 0.  0.
     999903    2    3    3    0    0 -0.11070643752E-01 -0.12698140134E+00 -0.61099002193E-02  0.12919538100E+00  0.20181183105E-01 0.  0.
         14    1    1    2    0    0  0.79461053304E-02 -0.16028466219E-01 -0.14374103644E-01  0.22949230375E-01  0.00000000000E+00 0. -1.
     999901    1    3    3    0    0  0.31245384213E-02  0.14300986755E+00  0.20484003863E-01  0.89178538863E+00  0.88000000000E+00 0.  1.
        -11    1    4    4    0    0 -0.12813563769E-01 -0.65709562319E-01  0.39996933937E-02  0.67068566892E-01  0.51100000000E-03 0. -1.
         11    1    4    4    0    0  0.17429200168E-02 -0.61271839017E-01 -0.10109593613E-01  0.62126814104E-01  0.51100000000E-03 0.  1.
</event>
<event>
 8    1  0.5489035E+004  0.1043930E+01  0.7957747E-01            NaN
         13   -1    0    0    0    0  0.00000000000E+00  0.00000000000E+00  0.74505805969E-08  0.10566000000E+00  0.10566000000E+00 0.  1.
     999900   -1    0    0    0    0 -0.00000000000E+00 -0.00000000000E+00 -0.74505805969E-08  0.93827000000E+00  0.93827000000E+00 0. -1.
     999902    2    1    2    0    0  0.70923192064E-02  0.90541606589E-02  0.20834866163E-01  0.10201314609E+01  0.10198538263E+01 0.  0.
     999903    2    3    3    0    0  0.85964953996E-01  0.39516830073E-01  0.91589860495E-01  0.13325202375E+00  0.20392305280E-01 0.  0.
         14    1    1    2    0    0 -0.70923192064E-02 -0.90541606589E-02 -0.20834866163E-01  0.23798539135E-01  0.00000000000E+00 0. -1.
     999901    1    3    3    0    0 -0.78872634790E-01 -0.30462669414E-01 -0.70754994332E-01  0.88687943711E+00  0.88000000000E+00 0. -1.
        -11    1    4    4    0    0  0.45023340835E-01  0.21253207109E-01  0.34103440031E-01  0.60349861435E-01  0.51100000000E-03 0. -1.
         11    1    4    4    0    0  0.40941613161E-01  0.18263622964E-01  0.57486420464E-01  0.72902162319E-01  0.51100000000E-03 0.  1.
</event>
<event>
 8    1  0.5489035E+004  0.1043930E+01  0.7957747E-01            NaN
         13   -1    0    0    0    0  0.00000000000E+00  0.00000000000E+00  0.74505805969E-08  0.10566000000E+00  0.10566000000E+00 0. -1.
     999900   -1    0    0    0    0 -0.00000000000E+00 -0.00000000000E+00 -0.74505805969E-08  0.93827000000E+00  0.93827000000E+00 0. -1.
     999902    2    1    2    0    0  0.15698199220E-01  0.13927616861E-01  0.10816509214E-01  0.10203204926E+01  0.10200473022E+01 0.  0.
     999903    2    3    3    0    0 -0.72041296769E-03  0.90707632271E-01 -0.92051703271E-01  0.13085626577E+00  0.20529312433E-01 0.  0.
         14    1    1    2    0    0 -0.15698199220E-01 -0.13927616861E-01 -0.10816509214E-01  0.23609507444E-01  0.00000000000E+00 0.  1.
     999901    1    3    3    0    0  0.16418612188E-01 -0.76780015410E-01  0.10286821248E+00  0.88946422679E+00  0.88000000000E+00 0. -1.
        -11    1    4    4    0    0  0.57217379709E-02  0.31728650571E-01 -0.21900117079E-01  0.38978478698E-01  0.51100000000E-03 0.  1.
         11    1    4    4    0    0 -0.64421509386E-02  0.58978981700E-01 -0.70151586192E-01  0.91877787072E-01  0.51100000000E-03 0. -1.
</event>
<event>
 8    1  0.5489035E+004  0.1043930E+01  0.7957747E-01            NaN
         13   -1    0    0    0    0  0.00000000000E+00  0.00000000000E+00  0.74505805969E-08  0.10566000000E+00  0.10566000000E+00 0.  1.
     999900   -1    0    0    0    0 -0.00000000000E+00 -0.00000000000E+00 -0.74505805969E-08  0.93827000000E+00  0.93827000000E+00 0. -1.
     999902    2    1    2    0    0 -0.20869193868E-01  0.76822941902E-02 -0.89313751367E-02  0.10199652267E+01  0.10196836536E+01 0.  0.
     999903    2    3    3    0    0  0.11199957793E+00  0.57459742390E-01 -0.16771750199E-01  0.12856555409E+00  0.20056984883E-01 0.  0.
         14    1    1    2    0    0  0.20869193868E-01 -0.76822941902E-02  0.89313751367E-02  0.23964773284E-01  0.00000000000E+00 0.  1.
     999901    1    3    3    0    0 -0.13286877180E+00 -0.49777448200E-01  0.78403750625E-02  0.89139967262E+00  0.88000000000E+00 0. -1.
        -11    1    4    4    0    0  0.51378220333E-01  0.31489397181E-01  0.96487443188E-03  0.60270189672E-01  0.51100000000E-03 0.  1.
         11    1    4    4    0    0  0.60621357598E-01  0.25970345209E-01 -0.17736624631E-01  0.68295364422E-01  0.51100000000E-03 0. -1.
</event>
<event>
 8    1  0.5489035E+004  0.1043930E+01  0.7957747E-01            NaN
         13   -1    0    0    0    0  0.00000000000E+00  0.00000000000E+00  0.74505805969E-08  0.10566000000E+00  0.10566000000E+00 0.  1.
     999900   -1    0    0    0    0 -0.00000000000E+00 -0.00000000000E+00 -0.74505805969E-08  0.93827000000E+00  0.93827000000E+00 0.  1.
     999902    2    1    2    0    0 -0.51279267459E-02 -0.15193812219E-02 -0.22770512111E-01  0.10205398231E+01  0.10202717433E+01 0.  0.
     999903    2    3    3    0    0  0.53608682728E-01  0.29660813421E-01 -0.11683044848E+00  0.13303237784E+00  0.17164065465E-01 0.  0.
         14    1    1    2    0    0  0.51279267459E-02  0.15193812219E-02  0.22770512111E-01  0.23390176865E-01  0.00000000000E+00 0.  1.
     999901    1    3    3    0    0 -0.58736609474E-01 -0.31180194643E-01  0.94059936372E-01  0.88750744530E+00  0.88000000000E+00 0. -1.
        -11    1    4    4    0    0  0.20618671227E-01  0.18548480300E-01 -0.39943649407E-01  0.48630566248E-01  0.51100000000E-03 0.  1.
         11    1    4    4    0    0  0.32990011502E-01  0.11112333121E-01 -0.76886799076E-01  0.84401811588E-01  0.51100000000E-03 0. -1.
</event>
<event>
 8    1  0.5489035E+004  0.1043930E+01  0.7957747E-01            NaN
         13   -1    0    0    0    0  0.00000000000E+00  0.00000000000E+00  0.74505805969E-08  0.10566000000E+00  0.10566000000E+00 0. -1.
     999900   -1    0    0    0    0 -0.00000000000E+00 -0.00000000000E+00 -0.74505805969E-08  0.93827000000E+00  0.93827000000E+00 0.  1.
     999902    2    1    2    0    0 -0.89389397399E-02 -0.42411477623E-02 -0.21013611296E-01  0.10207036392E+01  0.10204393442E+01 0.  0.
     999903    2    3    3    0    0 -0.11362158117E+00  0.62603343279E-01  0.81266014605E-02  0.13150411521E+00  0.19956161145E-01 0.  0.
         14    1    1    2    0    0  0.89389397399E-02  0.42411477623E-02  0.21013611296E-01  0.23226360836E-01  0.00000000000E+00 0. -1.
     999901    1    3    3    0    0  0.10468264143E+00 -0.66844491041E-01 -0.29140212756E-01  0.88919952395E+00  0.88000000000E+00 0.  1.
        -11    1    4    4    0    0 -0.67577758473E-02  0.34173929680E-02  0.53975106370E-02  0.93134500147E-02  0.51100000000E-03 0.  1.
         11    1    4    4    0    0 -0.10686380533E+00  0.59185950311E-01  0.27290908235E-02  0.12219066520E+00  0.51100000000E-03 0. -1.
</event>
<event>
 8    1  0.5489035E+004  0.1043930E+01  0.7957747E-01            NaN
         13   -1    0    0    0    0  0.00000000000E+00  0.00000000000E+00  0.74505805969E-08  0.10566000000E+00  0.10566000000E+00 0.  1.
     999900   -1    0    0    0    0 -0.00000000000E+00 -0.00000000000E+00 -0.74505805969E-08  0.93827000000E+00  0.93827000000E+00 0.  1.
     999902    2    1    2    0    0 -0.13760589937E-01  0.78659016937E-02 -0.17232824257E-01  0.10205164040E+01  0.10202477809E+01 0.  0.
     999903    2    3    3    0    0  0.14875493417E-01  0.14346965008E-01 -0.12979724731E+00  0.13286062682E+00  0.19429488989E-01 0.  0.
         14    1    1    2    0    0  0.13760589937E-01 -0.78659016937E-02  0.17232824257E-01  0.23413595981E-01  0.00000000000E+00 0.  1.
     999901    1    3    3    0    0 -0.28636083354E-01 -0.64810633147E-02  0.11256442305E+00  0.88765577720E+00  0.88000000000E+00 0. -1.
        -11    1    4    4    0    0  0.69216047981E-02  0.38890585510E-02 -0.99694595047E-01  0.10001153330E+00  0.51100000000E-03 0. -1.
         11    1    4    4    0    0  0.79538886187E-02  0.10457906457E-01 -0.30102652259E-01  0.32849093528E-01  0.51100000000E-03 0.  1.
</event>
<event>
 8    1  0.5489035E+004  0.1043930E+01  0.7957747E-01            NaN
         13   -1    0    0    0    0  0.00000000000E+00  0.00000000000E+00  0.74505805969E-08  0.10566000000E+00  0.10566000000E+00 0.  1.
     999900   -1    0    0    0    0 -0.00000000000E+00 -0.00000000000E+00 -0.74505805969E-08  0.93827000000E+00  0.93827000000E+00 0. -1.
     999902    2    1    2    0    0  0.20403078753E-01 -0.42944340186E-02 -0.93400462090E-02  0.10210834631E+01  0.10208278377E+01 0.  0.
     999903    2    3    3    0    0 -0.29063791989E-01  0.62606604789E-01  0.10790332485E+00  0.12941719796E+00  0.18476813762E-01 0.  0.
         14    1    1    2    0    0 -0.20403078753E-01  0.42944340186E-02  0.93400462090E-02  0.22846536922E-01  0.00000000000E+00 0.  1.
     999901    1    3    3    0    0  0.49466870742E-01 -0.66901038808E-01 -0.11724337105E+00  0.89166626512E+00  0.88000000000E+00 0. -1.
        -11    1    4    4    0    0 -0.15266574566E-01  0.21721223342E-01  0.55552614758E-01  0.61572997084E-01  0.51100000000E-03 0.  1.
         11    1    4    4    0    0 -0.13797217423E-01  0.40885381447E-01  0.52350710088E-01  0.67844200875E-01  0.51100000000E-03 0. -1.
</event>
<event>
 7    1  0.5489035E+004  0.1043930E+01  0.7957747E-01            NaN
         13   -1    0    0    0    0  0.00000000000E+00  0.00000000000E+00  0.74505805969E-08  0.10566000000E+00  0.10566000000E+00 0. -1.
     999900   -1    0    0    0    0 -0.00000000000E+00 -0.00000000000E+00 -0.74505805969E-08  0.93827000000E+00  0.93827000000E+00 0. -1.
     999903    2    1    2    0    0  0.21251407485E-01 -0.48235311991E-01  0.65904484624E-01  0.86371465638E-01  0.18394600836E-01 0.  0.
         14    1    1    2    0    0 -0.34468993723E-01 -0.46460911122E-01 -0.43003033765E-01  0.72083206807E-01  0.00000000000E+00 0.  1.
     999901    1    1    2    0    0  0.13217586238E-01  0.94696223113E-01 -0.22901450859E-01  0.88547532756E+00  0.88000000000E+00 0.  1.
        -11    1    3    3    0    0  0.20323860219E-01 -0.24903262270E-01  0.33532791375E-01  0.46453643391E-01  0.51100000000E-03 0.  1.
         11    1    3    3    0    0  0.92754726525E-03 -0.23332049722E-01  0.32371693249E-01  0.39917822247E-01  0.51100000000E-03 0. -1.
</event>
<event>
 8    1  0.5489035E+004  0.1043930E+01  0.7957747E-01            NaN
         13   -1    0    0    0    0  0.00000000000E+00  0.00000000000E+00  0.74505805969E-08  0.10566000000E+00  0.10566000000E+00 0. -1.
     999900   -1    0    0    0    0 -0.00000000000E+00 -0.00000000000E+00 -0.74505805969E-08  0.93827000000E+00  0.93827000000E+00 0.  1.
     999902    2    1    2    0    0  0.67139003621E-02  0.17612666691E-01 -0.13179973558E-01  0.10209301263E+01  0.10206710188E+01 0.  0.
     999903    2    3    3    0    0  0.49958806885E-01 -0.10478426745E+00 -0.56240829228E-01  0.13036549155E+00  0.18881351207E-01 0.  0.
         14    1    1    2    0    0 -0.67139003621E-02 -0.17612666691E-01  0.13179973558E-01  0.22999873674E-01  0.00000000000E+00 0. -1.
     999901    1    3    3    0    0 -0.43244906522E-01  0.12239693414E+00  0.43060855670E-01  0.89056463478E+00  0.88000000000E+00 0.  1.
        -11    1    4    4    0    0  0.15188660878E-01 -0.52618230261E-01 -0.29481846347E-01  0.62199790675E-01  0.51100000000E-03 0.  1.
         11    1    4    4    0    0  0.34770146006E-01 -0.52166037191E-01 -0.26758982881E-01  0.68165700872E-01  0.51100000000E-03 0. -1.
</event>
<event>
 8    1  0.5489035E+004  0.1043930E+01  0.7957747E-01            NaN
         13   -1    0    0    0    0  0.00000000000E+00  0.00000000000E+00  0.74505805969E-08  0.10566000000E+00  0.10566000000E+00 0. -1.
     999900   -1    0    0    0    0 -0.00000000000E+00 -0.00000000000E+00 -0.74505805969E-08  0.93827000000E+00  0.93827000000E+00 0.  1.
     999902    2    1    2    0    0  0.22283644113E-01  0.63295122267E-02 -0.43848144199E-02  0.10203535262E+01  0.10200811087E+01 0.  0.
     999903    2    3    3    0    0  0.13197880194E+00 -0.12795102646E-02  0.31418880719E-02  0.13347835113E+00  0.19661064384E-01 0.  0.
         14    1    1    2    0    0 -0.22283644113E-01 -0.63295122267E-02  0.43848144199E-02  0.23576473814E-01  0.00000000000E+00 0. -1.
     999901    1    3    3    0    0 -0.10969515783E+00  0.76090224913E-02 -0.75267024917E-02  0.88687517505E+00  0.88000000000E+00 0.  1.
        -11    1    4    4    0    0  0.78305300870E-01  0.21193108957E-02 -0.73549500363E-02  0.78680162900E-01  0.51100000000E-03 0.  1.
         11    1    4    4    0    0  0.53673501070E-01 -0.33988211603E-02  0.10496838108E-01  0.54798188234E-01  0.51100000000E-03 0. -1.
</event>
<event>
 8    1  0.5489035E+004  0.1043930E+01  0.7957747E-01            NaN
         13   -1    0    0    0    0  0.00000000000E+00  0.00000000000E+00  0.74505805969E-08  0.10566000000E+00  0.10566000000E+00 0. -1.
     999900   -1    0    0    0    0 -0.00000000000E+00 -0.00000000000E+00 -0.74505805969E-08  0.93827000000E+00  0.93827000000E+00 0. -1.
     999902    2    1    2    0    0  0.19720471878E-01  0.16197803901E-03  0.14147333675E-01  0.10196592296E+01  0.10193703322E+01 0.  0.
     999903    2    3    3    0    0 -0.34581257948E-01  0.85176773494E-01  0.90782795853E-01  0.13058713609E+00  0.18987836782E-01 0.  0.
         14    1    1    2    0    0 -0.19720471878E-01 -0.16197803901E-03 -0.14147333675E-01  0.24270770447E-01  0.00000000000E+00 0.  1.
     999901    1    3    3    0    0  0.54301729826E-01 -0.85014795455E-01 -0.76635462178E-01  0.88907209346E+00  0.88000000000E+00 0. -1.
        -11    1    4    4    0    0 -0.16467884119E-01  0.38401715016E-01  0.54511087461E-01  0.68684806913E-01  0.51100000000E-03 0. -1.
         11    1    4    4    0    0 -0.18113373829E-01  0.46775058478E-01  0.36271708392E-01  0.61902329179E-01  0.51100000000E-03 0.  1.
</event>
<event>
 8    1  0.5489035E+004  0.1043930E+01  0.7957747E-01            NaN
         13   -1    0    0    0    0  0.00000000000E+00  0.00000000000E+00  0.74505805969E-08  0.10566000000E+00  0.10566000000E+00 0.  1.
     999900   -1    0    0    0    0 -0.00000000000E+00 -0.00000000000E+00 -0.74505805969E-08  0.93827000000E+00  0.93827000000E+00 0. -1.
     999902    2    1    2    0    0 -0.94700914211E-02  0.17767111700E-01 -0.15261421973E-01  0.10186661149E+01  0.10183527826E+01 0.  0.
     999903    2    3    3    0    0 -0.12533402812E+00  0.24969459842E-01  0.13675945980E-01  0.13057056998E+00  0.23011947233E-01 0.  0.
         14    1    1    2    0    0  0.94700914211E-02 -0.17767111700E-01  0.15261421973E-01  0.25263885099E-01  0.00000000000E+00 0.  1.
     999901    1    3    3    0    0  0.11586393670E+00 -0.72023481425E-02 -0.28937367953E-01  0.88809554492E+00  0.88000000000E+00 0. -1.
        -11    1    4    4    0    0 -0.21376784535E-01 -0.29336974001E-02  0.71427222935E-02  0.22734403450E-01  0.51100000000E-03 0. -1.
         11    1    4    4    0    0 -0.10395724359E+00  0.27903157242E-01  0.65332236865E-02  0.10783616653E+00  0.51100000000E-03 0.  1.
</event>
<event>
 8    1  0.5489035E+004  0.1043930E+01  0.7957747E-01            NaN
         13   -1    0    0    0    0  0.00000000000E+00  0.00000000000E+00  0.74505805969E-08  0.10566000000E+00  0.10566000000E+00 0.  1.
     999900   -1    0    0    0    0 -0.00000000000E+00 -0.00000000000E+00 -0.74505805969E-08  0.93827000000E+00  0.93827000000E+00 0.  1.
     999902    2    1    2    0    0 -0.20464209154E-01  0.43021730424E-02 -0.12646536446E-01  0.10194917629E+01  0.10191988163E+01 0.  0.
     999903    2    3    3    0    0  0.73619197373E-01 -0.77323434062E-01 -0.69348015851E-01  0.12891358839E+00  0.20269837008E-01 0.  0.
         14    1    1    2    0    0  0.20464209154E-01 -0.43021730424E-02  0.12646536446E-01  0.24438237115E-01  0.00000000000E+00 0.  1.
     999901    1    3    3    0    0 -0.94083406528E-01  0.81625607104E-01  0.56701479405E-01  0.89057817449E+00  0.88000000000E+00 0. -1.
        -11    1    4    4    0    0  0.17953425638E-01 -0.15954541228E-01 -0.26014383168E-01  0.35410198115E-01  0.51100000000E-03 0. -1.
         11    1    4    4    0    0  0.55665771736E-01 -0.61368892834E-01 -0.43333632683E-01  0.93503390276E-01  0.51100000000E-03 0.  1.
</event>
<event>
 8    1  0.5489035E+004  0.1043930E+01  0.7957747E-01            NaN
         13   -1    0    0    0    0  0.00000000000E+00  0.00000000000E+00  0.74505805969E-08  0.10566000000E+00  0.10566000000E+00 0. -1.
     999900   -1    0    0    0    0 -0.00000000000E+00 -0.00000000000E+00 -0.74505805969E-08  0.93827000000E+00  0.93827000000E+00 0. -1.
     999902    2    1    2    0    0  0.92565055580E-02 -0.10701336766E-01  0.19053192451E-01  0.10201976245E+01  0.10199215496E+01 0.  0.
     999903    2    3    3    0    0 -0.84316582586E-01 -0.55688082516E-01 -0.78538629605E-01  0.12873596305E+00  0.13934963571E-01 0.  0.
         14    1    1    2    0    0 -0.92565055580E-02  0.10701336766E-01 -0.19053192451E-01  0.23732375488E-01  0.00000000000E+00 0.  1.
     999901    1    3    3    0    0  0.93573088144E-01  0.44986745750E-01  0.97591822056E-01  0.89146166146E+00  0.88000000000E+00 0.  1.
        -11    1    4    4    0    0 -0.21248782364E-01 -0.94751844254E-02 -0.23831105563E-01  0.33308746377E-01  0.51100000000E-03 0.  1.
         11    1    4    4    0    0 -0.63067800222E-01 -0.46212898090E-01 -0.54707524042E-01  0.95427216676E-01  0.51100000000E-03 0. -1.
</event>
<event>
 8    1  0.5489035E+004  0.1043930E+01  0.7957747E-01            NaN
         13   -1    0    0    0    0  0.00000000000E+00  0.00000000000E+00  0.74505805969E-08  0.10566000000E+00  0.10566000000E+00 0.  1.
     999900   -1    0    0    0    0 -0.00000000000E+00 -0.00000000000E+00 -0.74505805969E-08  0.93827000000E+00  0.93827000000E+00 0.  1.
     999902    2    1    2    0    0  0.98833133961E-02  0.21098473109E-01 -0.43203295096E-02  0.10202342051E+01  0.10199589906E+01 0.  0.
     999903    2    3    3    0    0 -0.61729658141E-01  0.29862628607E-01 -0.10973849069E+00  0.13101082658E+00  0.20468831414E-01 0.  0.
         14    1    1    2    0    0 -0.98833133961E-02 -0.21098473109E-01  0.43203295096E-02  0.23695794950E-01  0.00000000000E+00 0. -1.
     999901    1    3    3    0    0  0.71612971537E-01 -0.87641554973E-02  0.10541816118E+00  0.88922337847E+00  0.88000000000E+00 0. -1.
        -11    1    4    4    0    0 -0.42706535395E-01  0.16050568202E-01 -0.55174184163E-01  0.71595534945E-01  0.51100000000E-03 0. -1.
         11    1    4    4    0    0 -0.19023122746E-01  0.13812060405E-01 -0.54564306531E-01  0.59415291633E-01  0.51100000000E-03 0.  1.
</event>
<event>
 8    1  0.5489035E+004  0.1043930E+01  0.7957747E-01            NaN
         13   -1    0    0    0    0  0.00000000000E+00  0.00000000000E+00  0.74505805969E-08  0.10566000000E+00  0.10566000000E+00 0. -1.
     999900   -1    0    0    0    0 -0.00000000000E+00 -0.00000000000E+00 -0.74505805969E-08  0.93827000000E+00  0.93827000000E+00 0.  1.
     999902    2    1    2    0    0 -0.16225117495E-01 -0.11372178132E-01  0.21640683894E-02  0.10239985157E+01  0.10238045205E+01 0.  0.
     999903    2    3    3    0    0  0.10473185718E+00  0.55490823469E-01  0.51506267707E-01  0.13184611656E+00  0.26124881685E-01 0.  0.
         14    1    1    2    0    0  0.16225117495E-01  0.11372178132E-01 -0.21640683894E-02  0.19931484269E-01  0.00000000000E+00 0. -1.
     999901    1    3    3    0    0 -0.12095697467E+00 -0.66863001600E-01 -0.49342199317E-01  0.89215239917E+00  0.88000000000E+00 0. -1.
        -11    1    4    4    0    0  0.49188866316E-01  0.25323754512E-01  0.99884040847E-02  0.56221583482E-01  0.51100000000E-03 0. -1.
         11    1    4    4    0    0  0.55542990861E-01  0.30167068957E-01  0.41517863622E-01  0.75624533083E-01  0.51100000000E-03 0.  1.
</event>
<event>
 7    1  0.5489035E+004  0.1043930E+01  0.7957747E-01            NaN
         13   -1    0    0    0    0  0.00000000000E+00  0.00000000000E+00  0.74505805969E-08  0.10566000000E+00  0.10566000000E+00 0.  1.
     999900   -1    0    0    0    0 -0.00000000000E+00 -0.00000000000E+00 -0.74505805969E-08  0.93827000000E+00  0.93827000000E+00 0. -1.
     999903    2    1    2    0    0 -0.80221352956E-01 -0.58322615446E-01  0.24524711449E-01  0.10406697497E+00  0.19785875396E-01 0.  0.
         14    1    1    2    0    0  0.77616540752E-02 -0.49032734661E-01 -0.75990772557E-02  0.50221492585E-01  0.00000000000E+00 0. -1.
     999901    1    1    2    0    0  0.72459698881E-01  0.10735535011E+00 -0.16925634194E-01  0.88964153245E+00  0.88000000000E+00 0.  1.
        -11    1    3    3    0    0 -0.35906241056E-01 -0.17925027575E-01  0.26059833653E-02  0.40219610026E-01  0.51100000000E-03 0.  1.
         11    1    3    3    0    0 -0.44315111900E-01 -0.40397587871E-01  0.21918728084E-01  0.63847364944E-01  0.51100000000E-03 0. -1.
</event>
<event>
 8    1  0.5489035E+004  0.1043930E+01  0.7957747E-01            NaN
         13   -1    0    0    0    0  0.00000000000E+00  0.00000000000E+00  0.74505805969E-08  0.10566000000E+00  0.10566000000E+00 0. -1.
     999900   -1    0    0    0    0 -0.00000000000E+00 -0.00000000000E+00 -0.74505805969E-08  0.93827000000E+00  0.93827000000E+00 0. -1.
     999902    2    1    2    0    0 -0.25012338028E-02 -0.22925901526E-01  0.15745520787E-02  0.10208143701E+01  0.10205526179E+01 0.  0.
     999903    2    3    3    0    0  0.12953758078E-01  0.85629582388E-01 -0.92943394228E-01  0.12898658850E+00  0.22334732016E-01 0.  0.
         14    1    1    2    0    0  0.25012338028E-02  0.22925901526E-01 -0.15745520787E-02  0.23115629898E-01  0.00000000000E+00 0.  1.
     999901    1    3    3    0    0 -0.15454991881E-01 -0.10855548391E+00  0.94517946306E-01  0.89182778160E+00  0.88000000000E+00 0.  1.
        -11    1    4    4    0    0  0.44469091043E-02  0.65979110560E-01 -0.57797942097E-01  0.87828704092E-01  0.51100000000E-03 0. -1.
         11    1    4    4    0    0  0.85068489734E-02  0.19650471828E-01 -0.35145452131E-01  0.41157884409E-01  0.51100000000E-03 0.  1.
</event>
<event>
 8    1  0.5489035E+004  0.1043930E+01  0.7957747E-01            NaN
         13   -1    0    0    0    0  0.00000000000E+00  0.00000000000E+00  0.74505805969E-08  0.10566000000E+00  0.10566000000E+00 0.  1.
     999900   -1    0    0    0    0 -0.00000000000E+00 -0.00000000000E+00 -0.74505805969E-08  0.93827000000E+00  0.93827000000E+00 0.  1.
     999902    2    1    2    0    0  0.42626333169E-02 -0.16438044286E-01  0.17039931070E-01  0.10198730136E+01  0.10195892434E+01 0.  0.
     999903    2    3    3    0    0  0.10861663453E+00  0.48734547408E-01  0.50214489022E-01  0.13069486748E+00  0.19672927363E-01 0.  0.
         14    1    1    2    0    0 -0.42626333169E-02  0.16438044286E-01 -0.17039931070E-01  0.24056986379E-01  0.00000000000E+00 0. -1.
     999901    1    3    3    0    0 -0.10435400121E+00 -0.65172591694E-01 -0.33174557952E-01  0.88917814614E+00  0.88000000000E+00 0.  1.
        -11    1    4    4    0    0  0.55973333924E-01  0.34654594632E-01  0.22633335644E-01  0.69616693710E-01  0.51100000000E-03 0.  1.
         11    1    4    4    0    0  0.52643300605E-01  0.14079952776E-01  0.27581153377E-01  0.61078173772E-01  0.51100000000E-03 0. -1.
</event>
<event>
 8    1  0.5489035E+004  0.1043930E+01  0.7957747E-01            NaN
         13   -1    0    0    0    0  0.00000000000E+00  0.00000000000E+00  0.74505805969E-08  0.10566000000E+00  0.10566000000E+00 0. -1.
     999900   -1    0    0    0    0 -0.00000000000E+00 -0.00000000000E+00 -0.74505805969E-08  0.93827000000E+00  0.93827000000E+00 0.  1.
     999902    2    1    2    0    0 -0.15192674210E-01  0.17996905027E-01  0.17115301469E-02  0.10203156976E+01  0.10200423950E+01 0.  0.
     999903    2    3    3    0    0  0.70996549084E-01  0.44582883633E-01 -0.97344130315E-01  0.13017670831E+00  0.21022658828E-01 0.  0.
         14    1    1    2    0    0  0.15192674210E-01 -0.17996905027E-01 -0.17115301469E-02  0.23614302354E-01  0.00000000000E+00 0. -1.
     999901    1    3    3    0    0 -0.86189223294E-01 -0.26585978606E-01  0.99055660462E-01  0.89013898934E+00  0.88000000000E+00 0. -1.
        -11    1    4    4    0    0  0.15877558287E-01  0.11620342652E-02 -0.22682597645E-01  0.27716575144E-01  0.51100000000E-03 0.  1.
         11    1    4    4    0    0  0.55118990796E-01  0.43420849368E-01 -0.74661532671E-01  0.10246013316E+00  0.51100000000E-03 0. -1.
</event>
<event>
 8    1  0.5489035E+004  0.1043930E+01  0.7957747E-01            NaN
         13   -1    0    0    0    0  0.00000000000E+00  0.00000000000E+00  0.74505805969E-08  0.10566000000E+00  0.10566000000E+00 0. -1.
     999900   -1    0    0    0    0 -0.00000000000E+00 -0.00000000000E+00 -0.74505805969E-08  0.93827000000E+00  0.93827000000E+00 0.  1.
     999902    2    1    2    0    0  0.11404880049E-01 -0.42606616124E-02  0.22230930109E-01  0.10185836239E+01  0.10182682162E+01 0.  0.
     999903    2    3    3    0    0  0.51896561563E-01  0.91195346227E-01 -0.69755013588E-01  0.12773411950E+00  0.20985687711E-01 0.  0.
         14    1    1    2    0    0 -0.11404880049E-01  0.42606616124E-02 -0.22230930109E-01  0.25346376068E-01  0.00000000000E+00 0.  1.
     999901    1    3    3    0    0 -0.40491681514E-01 -0.95456007840E-01  0.91985943697E-01  0.89084950443E+00  0.88000000000E+00 0. -1.
        -11    1    4    4    0    0  0.20575621204E-01  0.24715599183E-01 -0.12241568909E-01  0.34414156408E-01  0.51100000000E-03 0. -1.
         11    1    4    4    0    0  0.31320940359E-01  0.66479747045E-01 -0.57513444680E-01  0.93319963095E-01  0.51100000000E-03 0.  1.
</event>
<event>
 8    1  0.5489035E+004  0.1043930E+01  0.7957747E-01            NaN
         13   -1    0    0    0    0  0.00000000000E+00  0.00000000000E+00  0.74505805969E-08  0.10566000000E+00  0.10566000000E+00 0.  1.
     999900   -1    0    0    0    0 -0.00000000000E+00 -0.00000000000E+00 -0.74505805969E-08  0.93827000000E+00  0.93827000000E+00 0.  1.
     999902    2    1    2    0    0 -0.19383825032E-01  0.24587130450E-02 -0.12930954042E-01  0.10204995174E+01  0.10202305021E+01 0.  0.
     999903    2    3    3    0    0 -0.91126987469E-01  0.13577460280E-01 -0.94978723601E-01  0.13370611170E+00  0.19180487370E-01 0.  0.
         14    1    1    2    0    0  0.19383825032E-01 -0.24587130450E-02  0.12930954042E-01  0.23430482606E-01  0.00000000000E+00 0.  1.
     999901    1    3    3    0    0  0.71743162436E-01 -0.11118747235E-01  0.82047769559E-01  0.88679340570E+00  0.88000000000E+00 0. -1.
        -11    1    4    4    0    0 -0.66780272157E-01  0.10027285715E-01 -0.80798949032E-01  0.10530376296E+00  0.51100000000E-03 0. -1.
         11    1    4    4    0    0 -0.24346715312E-01  0.35501745655E-02 -0.14179774569E-01  0.28402348737E-01  0.51100000000E-03 0.  1.
</event>
<event>
 8    1  0.5489035E+004  0.1043930E+01  0.7957747E-01            NaN
         13   -1    0    0    0    0  0.00000000000E+00  0.00000000000E+00  0.74505805969E-08  0.10566000000E+00  0.10566000000E+00 0. -1.
     999900   -1    0    0    0    0 -0.00000000000E+00 -0.00000000000E+00 -0.74505805969E-08  0.93827000000E+00  0.93827000000E+00 0.  1.
     999902    2    1    2    0    0 -0.56760842091E-02  0.32635270735E-02  0.23005316983E-01  0.10200111131E+01  0.10197306300E+01 0.  0.
     999903    2    3    3    0    0 -0.33312035343E-01  0.85931356828E-02 -0.12117281019E+00  0.12783429045E+00  0.21799591910E-01 0.  0.
         14    1    1    2    0    0  0.56760842091E-02 -0.32635270735E-02 -0.23005316983E-01  0.23918886897E-01  0.00000000000E+00 0.  1.
     999901    1    3    3    0    0  0.27635951134E-01 -0.53296086093E-02  0.14417812717E+00  0.89217682265E+00  0.88000000000E+00 0. -1.
        -11    1    4    4    0    0 -0.12724674532E-01  0.65568530233E-02 -0.84674522964E-01  0.85877503595E-01  0.51100000000E-03 0.  1.
         11    1    4    4    0    0 -0.20587360811E-01  0.20362826595E-02 -0.36498287221E-01  0.41956786856E-01  0.51100000000E-03 0. -1.
</event>
<event>
 8    1  0.5489035E+004  0.1043930E+01  0.7957747E-01            NaN
         13   -1    0    0    0    0  0.00000000000E+00  0.00000000000E+00  0.74505805969E-08  0.10566000000E+00  0.10566000000E+00 0. -1.
     999900   -1    0    0    0    0 -0.00000000000E+00 -0.00000000000E+00 -0.74505805969E-08  0.93827000000E+00  0.93827000000E+00 0.  1.
     999902    2    1    2    0    0  0.21026333309E-01 -0.41525822721E-02 -0.99058823434E-02  0.10203190463E+01  0.10200458220E+01 0.  0.
     999903    2    3    3    0    0  0.25049812690E-01  0.78633896259E-02  0.12589458851E+00  0.12981225804E+00  0.17676224416E-01 0.  0.
         14    1    1    2    0    0 -0.21026333309E-01  0.41525822721E-02  0.99058823434E-02  0.23610953749E-01  0.00000000000E+00 0. -1.
     999901    1    3    3    0    0 -0.40234793807E-02 -0.12015971898E-01 -0.13580047085E+00  0.89050678821E+00  0.88000000000E+00 0.  1.
        -11    1    4    4    0    0  0.13909797064E-01 -0.48389044368E-02  0.60391935581E-01  0.62163851672E-01  0.51100000000E-03 0.  1.
         11    1    4    4    0    0  0.11140015625E-01  0.12702294063E-01  0.65502652927E-01  0.67648406367E-01  0.51100000000E-03 0. -1.
</event>
<event>
 8    1  0.5489035E+004  0.1043930E+01  0.7957747E-01            NaN
         13   -1    0    0    0    0  0.00000000000E+00  0.00000000000E+00  0.74505805969E-08  0.10566000000E+00  0.10566000000E+00 0. -1.
     999900   -1    0    0    0    0 -0.00000000000E+00 -0.00000000000E+00 -0.74505805969E-08  0.93827000000E+00  0.93827000000E+00 0.  1.
     999902    2    1    2    0    0 -0.16821255875E-01 -0.13445060193E-01 -0.64823988001E-02  0.10214412075E+01  0.10211936127E+01 0.  0.
     999903    2    3    3    0    0 -0.10497186767E+00  0.13054586625E-01  0.77438703542E-01  0.13266929468E+00  0.20368448910E-01 0.  0.
         14    1    1    2    0    0  0.16821255875E-01  0.13445060193E-01  0.64823988001E-02  0.22488792475E-01  0.00000000000E+00 0. -1.
     999901    1    3    3    0    0  0.88150611795E-01 -0.26499646817E-01 -0.83921102342E-01  0.88877191284E+00  0.88000000000E+00 0.  1.
        -11    1    4    4    0    0 -0.51587060710E-01 -0.18079181758E-02  0.29899523736E-01  0.59655142624E-01  0.51100000000E-03 0.  1.
         11    1    4    4    0    0 -0.53384806960E-01  0.14862504800E-01  0.47539179806E-01  0.73014152058E-01  0.51100000000E-03 0. -1.
</event>
<event>
 8    1  0.5489035E+004  0.1043930E+01  0.7957747E-01            NaN
         13   -1    0    0    0    0  0.00000000000E+00  0.00000000000E+00  0.74505805969E-08  0.10566000000E+00  0.10566000000E+00 0. -1.
     999900   -1    0    0    0    0 -0.00000000000E+00 -0.00000000000E+00 -0.74505805969E-08  0.93827000000E+00  0.93827000000E+00 0.  1.
     999902    2    1    2    0    0 -0.12912637514E-02  0.33166161455E-02 -0.19661662908E-01  0.10239488015E+01  0.10237538277E+01 0.  0.
     999903    2    3    3    0    0 -0.12129500242E+00 -0.12274639783E-01  0.50259991260E-01  0.13291960879E+00  0.16685661064E-01 0.  0.
         14    1    1    2    0    0  0.12912637514E-02 -0.33166161455E-02  0.19661662908E-01  0.19981198489E-01  0.00000000000E+00 0. -1.
     999901    1    3    3    0    0  0.12000373867E+00  0.15591255928E-01 -0.69921654168E-01  0.89102919272E+00  0.88000000000E+00 0.  1.
        -11    1    4    4    0    0 -0.96533774296E-01 -0.98967741442E-02  0.47008923489E-01  0.10782771317E+00  0.51100000000E-03 0. -1.
         11    1    4    4    0    0 -0.24761228127E-01 -0.23778656386E-02  0.32510677714E-02  0.25091895624E-01  0.51100000000E-03 0.  1.
</event>
<event>
 8    1  0.5489035E+004  0.1043930E+01  0.7957747E-01            NaN
         13   -1    0    0    0    0  0.00000000000E+00  0.00000000000E+00  0.74505805969E-08  0.10566000000E+00  0.10566000000E+00 0.  1.
     999900   -1    0    0    0    0 -0.00000000000E+00 -0.00000000000E+00 -0.74505805969E-08  0.93827000000E+00  0.93827000000E+00 0.  1.
     999902    2    1    2    0    0  0.17071210492E-01  0.17071520250E-01  0.45897085778E-02  0.10193550441E+01  0.10190587704E+01 0.  0.
     999903    2    3    3    0    0  0.26000369590E-02 -0.10664438451E+00  0.68451842761E-01  0.12829196435E+00  0.19834021270E-01 0.  0.
         14    1    1    2    0    0 -0.17071210492E-01 -0.17071520250E-01 -0.45897085778E-02  0.24574955873E-01  0.00000000000E+00 0.  1.
     999901    1    3    3    0    0  0.14471173533E-01  0.12371590476E+00 -0.63862134183E-01  0.89106307977E+00  0.88000000000E+00 0. -1.
        -11    1    4    4    0    0  0.42110205931E-02 -0.40554903992E-02  0.30074012106E-02  0.65943369534E-02  0.51100000000E-03 0.  1.
         11    1    4    4    0    0 -0.16109836341E-02 -0.10258889411E+00  0.65444441550E-01  0.12169762740E+00  0.51100000000E-03 0. -1.
</event>
<event>
 8    1  0.5489035E+004  0.1043930E+01  0.7957747E-01            NaN
         13   -1    0    0    0    0  0.00000000000E+00  0.00000000000E+00  0.74505805969E-08  0.10566000000E+00  0.10566000000E+00 0.  1.
     999900   -1    0    0    0    0 -0.00000000000E+00 -0.00000000000E+00 -0.74505805969E-08  0.93827000000E+00  0.93827000000E+00 0. -1.
     999902    2    1    2    0    0 -0.25715022374E-01 -0.10115839071E-02  0.58479746751E-02  0.10175390075E+01  0.10171967102E+01 0.  0.
     999903    2    3    3    0    0  0.72434244861E-01  0.17856119131E-01 -0.99157717979E-01  0.12567833207E+00  0.19930612090E-01 0.  0.
         14    1    1    2    0    0  0.25715022374E-01  0.10115839071E-02 -0.58479746751E-02  0.26390992506E-01  0.00000000000E+00 0. -1.
     999901    1    3    3    0    0 -0.98149267234E-01 -0.18867703038E-01  0.10500569265E+00  0.89186067542E+00  0.88000000000E+00 0.  1.
        -11    1    4    4    0    0  0.59600871469E-01  0.67153955446E-02 -0.73003047319E-01  0.94483154351E-01  0.51100000000E-03 0. -1.
         11    1    4    4    0    0  0.12833373391E-01  0.11140723587E-01 -0.26154670660E-01  0.31195177720E-01  0.51100000000E-03 0.  1.
</event>
<event>
 8    1  0.5489035E+004  0.1043930E+01  0.7957747E-01            NaN
         13   -1    0    0    0    0  0.00000000000E+00  0.00000000000E+00  0.74505805969E-08  0.10566000000E+00  0.10566000000E+00 0. -1.
     999900   -1    0    0    0    0 -0.00000000000E+00 -0.00000000000E+00 -0.74505805969E-08  0.93827000000E+00  0.93827000000E+00 0. -1.
     999902    2    1    2    0    0 -0.22486879621E-01 -0.60550300449E-02 -0.53593122025E-02  0.10200334444E+01  0.10197534909E+01 0.  0.
     999903    2    3    3    0    0  0.11185012190E+00 -0.47998921876E-01  0.34303530004E-01  0.12796906267E+00  0.19621482083E-01 0.  0.
         14    1    1    2    0    0  0.22486879621E-01  0.60550300449E-02  0.53593122025E-02  0.23896555635E-01  0.00000000000E+00 0. -1.
     999901    1    3    3    0    0 -0.13433700152E+00  0.41943891831E-01 -0.39662842206E-01  0.89206438170E+00  0.88000000000E+00 0. -1.
        -11    1    4    4    0    0  0.22881692750E-01 -0.13506541799E-01  0.15326297487E-01  0.30678250441E-01  0.51100000000E-03 0. -1.
         11    1    4    4    0    0  0.88968429150E-01 -0.34492380077E-01  0.18977232517E-01  0.97290812227E-01  0.51100000000E-03 0.  1.
</event>
<event>
 8    1  0.5489035E+004  0.1043930E+01  0.7957747E-01            NaN
         13   -1    0    0    0    0  0.00000000000E+00  0.00000000000E+00  0.74505805969E-08  0.10566000000E+00  0.10566000000E+00 0.  1.
     999900   -1    0    0    0    0 -0.00000000000E+00 -0.00000000000E+00 -0.74505805969E-08  0.93827000000E+00  0.93827000000E+00 0. -1.
     999902    2    1    2    0    0 -0.16168550084E-01 -0.85889925166E-02 -0.15287440846E-01  0.10200784036E+01  0.10197995150E+01 0.  0.
     999903    2    3    3    0    0 -0.13487592553E-01 -0.12930698380E+00  0.41863263387E-02  0.13161948581E+00  0.20098569695E-01 0.  0.
         14    1    1    2    0    0  0.16168550084E-01  0.85889925166E-02  0.15287440846E-01  0.23851596422E-01  0.00000000000E+00 0.  1.
     999901    1    3    3    0    0 -0.26809575314E-02  0.12071799129E+00 -0.19473767185E-01  0.88845891777E+00  0.88000000000E+00 0. -1.
        -11    1    4    4    0    0 -0.15352043178E-01 -0.69087886640E-01  0.81308036747E-02  0.71240384611E-01  0.51100000000E-03 0. -1.
         11    1    4    4    0    0  0.18644506252E-02 -0.60219097161E-01 -0.39444773360E-02  0.60379101198E-01  0.51100000000E-03 0.  1.
</event>
<event>
 8    1  0.5489035E+004  0.1043930E+01  0.7957747E-01            NaN
         13   -1    0    0    0    0  0.00000000000E+00  0.00000000000E+00  0.74505805969E-08  0.10566000000E+00  0.10566000000E+00 0.  1.
     999900   -1    0    0    0    0 -0.00000000000E+00 -0.00000000000E+00 -0.74505805969E-08  0.93827000000E+00  0.93827000000E+00 0. -1.
     999902    2    1    2    0    0  0.84368867023E-02 -0.14608910366E-01  0.16605934151E-01  0.10202581102E+01  0.10199834572E+01 0.  0.
     999903    2    3    3    0    0 -0.93798869902E-02 -0.24093056364E-01  0.12883985128E+00  0.13290032516E+00  0.19857781960E-01 0.  0.
         14    1    1    2    0    0 -0.84368867023E-02  0.14608910366E-01 -0.16605934151E-01  0.23671889834E-01  0.00000000000E+00 0. -1.
     999901    1    3    3    0    0  0.17816773692E-01  0.94841459986E-02 -0.11223391713E+00  0.88735778500E+00  0.88000000000E+00 0. -1.
        -11    1    4    4    0    0  0.39869080842E-02 -0.21207161948E-02  0.44325116730E-01  0.44557490587E-01  0.51100000000E-03 0. -1.
         11    1    4    4    0    0 -0.13366795074E-01 -0.21972340170E-01  0.84514734555E-01  0.88342834576E-01  0.51100000000E-03 0.  1.
</event>
<event>
 8    1  0.5489035E+004  0.1043930E+01  0.7957747E-01            NaN
         13   -1    0    0    0    0  0.00000000000E+00  0.00000000000E+00  0.74505805969E-08  0.10566000000E+00  0.10566000000E+00 0. -1.
     999900   -1    0    0    0    0 -0.00000000000E+00 -0.00000000000E+00 -0.74505805969E-08  0.93827000000E+00  0.93827000000E+00 0.  1.
     999902    2    1    2    0    0 -0.19684778982E-01  0.12561084756E-01  0.81927612192E-02  0.10191834303E+01  0.10188829530E+01 0.  0.
     999903    2    3    3    0    0 -0.10438554055E+00 -0.27829623419E-01 -0.70839954454E-01  0.13067242958E+00  0.19650844520E-01 0.  0.
         14    1    1    2    0    0  0.19684778982E-01 -0.12561084756E-01 -0.81927612192E-02  0.24746569666E-01  0.00000000000E+00 0.  1.
     999901    1    3    3    0    0  0.84700761563E-01  0.40390708175E-01  0.79032715673E-01  0.88851100076E+00  0.88000000000E+00 0. -1.
        -11    1    4    4    0    0 -0.16716740044E-01 -0.54673856547E-02 -0.20925064534E-01  0.27339735741E-01  0.51100000000E-03 0.  1.
         11    1    4    4    0    0 -0.87668800501E-01 -0.22362237764E-01 -0.49914889920E-01  0.10333269384E+00  0.51100000000E-03 0. -1.
</event>
<event>
 8    1  0.5489035E+004  0.1043930E+01  0.7957747E-01            NaN
         13   -1    0    0    0    0  0.00000000000E+00  0.00000000000E+00  0.74505805969E-08  0.10566000000E+00  0.10566000000E+00 0.  1.
     999900   -1    0    0    0    0 -0.00000000000E+00 -0.00000000000E+00 -0.74505805969E-08  0.93827000000E+00  0.93827000000E+00 0. -1.
     999902    2    1    2    0    0 -0.87816816251E-03  0.94092140246E-02 -0.22639053935E-01  0.10193977508E+01  0.10191025184E+01 0.  0.
     999903    2    3    3    0    0 -0.62434379416E-01 -0.62949704208E-01  0.89176094647E-01  0.12725000090E+00  0.19479986651E-01 0.  0.
         14    1    1    2    0    0  0.87816816251E-03 -0.94092140246E-02  0.22639053935E-01  0.24532249203E-01  0.00000000000E+00 0.  1.
     999901    1    3    3    0    0  0.61556211254E-01  0.72358918233E-01 -0.11181514858E+00  0.89214774990E+00  0.88000000000E+00 0. -1.
        -11    1    4    4    0    0 -0.65376561565E-02 -0.17636975910E-01  0.18256153713E-01  0.26217401410E-01  0.51100000000E-03 0. -1.
         11    1    4    4    0    0 -0.55896723260E-01 -0.45312728298E-01  0.70919940934E-01  0.10103259949E+00  0.51100000000E-03 0.  1.
</event>
<event>
 8    1  0.5489035E+004  0.1043930E+01  0.7957747E-01            NaN
         13   -1    0    0    0    0  0.00000000000E+00  0.00000000000E+00  0.74505805969E-08  0.10566000000E+00  0.10566000000E+00 0.  1.
     999900   -1    0    0    0    0 -0.00000000000E+00 -0.00000000000E+00 -0.74505805969E-08  0.93827000000E+00  0.93827000000E+00 0. -1.
     999902    2    1    2    0    0 -0.39274548349E-02  0.74765661378E-02  0.19924721045E-01  0.10222893334E+01  0.10220602540E+01 0.  0.
     999903    2    3    3    0    0  0.37132701484E-02  0.51483557321E-01 -0.11792333157E+00  0.13043896390E+00  0.21072876482E-01 0.  0.
         14    1    1    2    0    0  0.39274548349E-02 -0.74765661378E-02 -0.19924721045E-01  0.21640666612E-01  0.00000000000E+00 0. -1.
     999901    1    3    3    0    0 -0.76407249833E-02 -0.44006991184E-01  0.13784805262E+00  0.89185036949E+00  0.88000000000E+00 0.  1.
        -11    1    4    4    0    0  0.12139284712E-01  0.29627963210E-01 -0.61308088689E-01  0.69167342706E-01  0.51100000000E-03 0. -1.
         11    1    4    4    0    0 -0.84260145639E-02  0.21855594111E-01 -0.56615242885E-01  0.61271621191E-01  0.51100000000E-03 0.  1.
</event>
<event>
 8    1  0.5489035E+004  0.1043930E+01  0.7957747E-01            NaN
         13   -1    0    0    0    0  0.00000000000E+00  0.00000000000E+00  0.74505805969E-08  0.10566000000E+00  0.10566000000E+00 0.  1.
     999900   -1    0    0    0    0 -0.00000000000E+00 -0.00000000000E+00 -0.74505805969E-08  0.93827000000E+00  0.93827000000E+00 0.  1.
     999902    2    1    2    0    0 -0.18338786742E-01  0.29335121918E-02  0.12530771597E-01  0.10215260533E+01  0.10212803438E+01 0.  0.
     999903    2    3    3    0    0  0.74020003988E-01  0.10574241091E+00 -0.34694018363E-02  0.13059630213E+00  0.19568825359E-01 0.  0.
         14    1    1    2    0    0  0.18338786742E-01 -0.29335121918E-02 -0.12530771597E-01  0.22403946746E-01  0.00000000000E+00 0. -1.
     999901    1    3    3    0    0 -0.92358790730E-01 -0.10280889872E+00  0.16000173434E-01  0.89092975112E+00  0.88000000000E+00 0. -1.
        -11    1    4    4    0    0  0.22149712964E-01  0.40456891817E-01 -0.91249184323E-02  0.47020156713E-01  0.51100000000E-03 0.  1.
         11    1    4    4    0    0  0.51870291024E-01  0.65285519096E-01  0.56555165960E-02  0.83576145422E-01  0.51100000000E-03 0. -1.
</event>
<event>
 8    1  0.5489035E+004  0.1043930E+01  0.7957747E-01            NaN
         13   -1    0    0    0    0  0.00000000000E+00  0.00000000000E+00  0.74505805969E-08  0.10566000000E+00  0.10566000000E+00 0.  1.
     999900   -1    0    0    0    0 -0.00000000000E+00 -0.00000000000E+00 -0.74505805969E-08  0.93827000000E+00  0.93827000000E+00 0. -1.
     999902    2    1    2    0    0  0.93100569850E-02  0.39259489378E-02  0.21203923319E-01  0.10204417774E+01  0.10201714192E+01 0.  0.
     999903    2    3    3    0    0  0.10856204266E+00 -0.62671548385E-01 -0.32765746151E-01  0.13072333401E+00  0.17365363530E-01 0.  0.
         14    1    1    2    0    0 -0.93100569850E-02 -0.39259489378E-02 -0.21203923319E-01  0.23488222586E-01  0.00000000000E+00 0. -1.
     999901    1    3    3    0    0 -0.99251985675E-01  0.66597497323E-01  0.53969669470E-01  0.88971844340E+00  0.88000000000E+00 0.  1.
        -11    1    4    4    0    0  0.69184029069E-01 -0.49079848106E-01 -0.20027702178E-01  0.87158656162E-01  0.51100000000E-03 0.  1.
         11    1    4    4    0    0  0.39378013590E-01 -0.13591700279E-01 -0.12738043973E-01  0.43564677849E-01  0.51100000000E-03 0. -1.
</event>
<event>
 8    1  0.5489035E+004  0.1043930E+01  0.7957747E-01            NaN
         13   -1    0    0    0    0  0.00000000000E+00  0.00000000000E+00  0.74505805969E-08  0.10566000000E+00  0.10566000000E+00 0.  1.
     999900   -1    0    0    0    0 -0.00000000000E+00 -0.00000000000E+00 -0.74505805969E-08  0.93827000000E+00  0.93827000000E+00 0. -1.
     999902    2    1    2    0    0  0.86481002099E-02 -0.11369336990E-02  0.22053712652E-01  0.10202140033E+01  0.10199383139E+01 0.  0.
     999903    2    3    3    0    0 -0.67966830303E-01 -0.10630804965E+00  0.27084908787E-01  0.13063200930E+00  0.20254336023E-01 0.  0.
         14    1    1    2    0    0 -0.86481002099E-02  0.11369336990E-02 -0.22053712652E-01  0.23715996652E-01  0.00000000000E+00 0. -1.
     999901    1    3    3    0    0  0.76614930513E-01  0.10517111595E+00 -0.50311961351E-02  0.88958199405E+00  0.88000000000E+00 0. -1.
        -11    1    4    4    0    0 -0.16905659525E-01 -0.12676695651E-01  0.40082142374E-02  0.21513410678E-01  0.51100000000E-03 0.  1.
         11    1    4    4    0    0 -0.51061170778E-01 -0.93631353994E-01  0.23076694550E-01  0.10911859862E+00  0.51100000000E-03 0. -1.
</event>
<event>
 8    1  0.5489035E+004  0.1043930E+01  0.7957747E-01            NaN
         13   -1    0    0    0    0  0.00000000000E+00  0.00000000000E+00  0.74505805969E-08  0.10566000000E+00  0.10566000000E+00 0.  1.
     999900   -1    0    0    0    0 -0.00000000000E+00 -0.00000000000E+00 -0.74505805969E-08  0.93827000000E+00  0.93827000000E+00 0. -1.
     999902    2    1    2    0    0  0.79857345744E-02  0.24170878169E-01 -0.10689316277E-02  0.10184516578E+01  0.10181329153E+01 0.  0.
     999903    2    3    3    0    0 -0.81365240180E-01  0.50791112631E-01  0.84293299941E-01  0.12941906885E+00  0.21068828538E-01 0.  0.
         14    1    1    2    0    0 -0.79857345744E-02 -0.24170878169E-01  0.10689316277E-02  0.25478342233E-01  0.00000000000E+00 0.  1.
     999901    1    3    3    0    0  0.89350974754E-01 -0.26620234462E-01 -0.85362231569E-01  0.88903258891E+00  0.88000000000E+00 0.  1.
        -11    1    4    4    0    0 -0.53303006370E-01  0.31943694511E-01  0.40837555136E-01  0.74361126522E-01  0.51100000000E-03 0. -1.
         11    1    4    4    0    0 -0.28062233810E-01  0.18847418120E-01  0.43455744805E-01  0.55057942331E-01  0.51100000000E-03 0.  1.
</event>
<event>
 8    1  0.5489035E+004  0.1043930E+01  0.7957747E-01            NaN
         13   -1    0    0    0    0  0.00000000000E+00  0.00000000000E+00  0.74505805969E-08  0.10566000000E+00  0.10566000000E+00 0.  1.
     999900   -1    0    0    0    0 -0.00000000000E+00 -0.00000000000E+00 -0.74505805969E-08  0.93827000000E+00  0.93827000000E+00 0. -1.
     999902    2    1    2    0    0  0.19950947805E-01  0.14424777342E-01 -0.20993043853E-02  0.10192212647E+01  0.10189217168E+01 0.  0.
     999903    2    3    3    0    0  0.13721170499E-01 -0.14755716001E-01  0.12611382648E+00  0.12942976205E+00  0.21008674432E-01 0.  0.
         14    1    1    2    0    0 -0.19950947805E-01 -0.14424777342E-01  0.20993043853E-02  0.24708735268E-01  0.00000000000E+00 0. -1.
     999901    1    3    3    0    0  0.62297773061E-02  0.29180493343E-01 -0.12821313086E+00  0.88979150268E+00  0.88000000000E+00 0. -1.
        -11    1    4    4    0    0  0.67414495067E-02  0.33448098970E-03  0.82083550743E-01  0.82362184542E-01  0.51100000000E-03 0.  1.
         11    1    4    4    0    0  0.69797209919E-02 -0.15090196991E-01  0.44030275734E-01  0.47067577509E-01  0.51100000000E-03 0. -1.
</event>
<event>
 8    1  0.5489035E+004  0.1043930E+01  0.7957747E-01            NaN
         13   -1    0    0    0    0  0.00000000000E+00  0.00000000000E+00  0.74505805969E-08  0.10566000000E+00  0.10566000000E+00 0. -1.
     999900   -1    0    0    0    0 -0.00000000000E+00 -0.00000000000E+00 -0.74505805969E-08  0.93827000000E+00  0.93827000000E+00 0.  1.
     999902    2    1    2    0    0 -0.24799250439E-01  0.85158287010E-02 -0.12293792349E-01  0.10149703817E+01  0.10145571528E+01 0.  0.
     999903    2    3    3    0    0 -0.99055244583E-01 -0.59603836864E-01 -0.51993510881E-01  0.12833048347E+00  0.20020713443E-01 0.  0.
         14    1    1    2    0    0  0.24799250439E-01 -0.85158287010E-02  0.12293792349E-01  0.28959618283E-01  0.00000000000E+00 0. -1.
     999901    1    3    3    0    0  0.74255994144E-01  0.68119665565E-01  0.39699718532E-01  0.88663989824E+00  0.88000000000E+00 0. -1.
        -11    1    4    4    0    0 -0.54289671369E-02 -0.82081694502E-02 -0.84779252177E-02  0.12999387174E-01  0.51100000000E-03 0. -1.
         11    1    4    4    0    0 -0.93626277446E-01 -0.51395667413E-01 -0.43515585663E-01  0.11533109630E+00  0.51100000000E-03 0.  1.
</event>
<event>
 8    1  0.5489035E+004  0.1043930E+01  0.7957747E-01            NaN
         13   -1    0    0    0    0  0.00000000000E+00  0.00000000000E+00  0.74505805969E-08  0.10566000000E+00  0.10566000000E+00 0.  1.
     999900   -1    0    0    0    0 -0.00000000000E+00 -0.00000000000E+00 -0.74505805969E-08  0.93827000000E+00  0.93827000000E+00 0. -1.
     999902    2    1    2    0    0 -0.17199248597E-01 -0.14494805997E-01 -0.95450954948E-02  0.10194959581E+01  0.10192031134E+01 0.  0.
     999903    2    3    3    0    0  0.12618827481E+00 -0.52651008371E-02  0.19792147628E-02  0.12776843303E+00  0.19226367345E-01 0.  0.
         14    1    1    2    0    0  0.17199248597E-01  0.14494805997E-01  0.95450954948E-02  0.24434041851E-01  0.00000000000E+00 0. -1.
     999901    1    3    3    0    0 -0.14338752341E+00 -0.92297051601E-02 -0.11524310258E-01  0.89172752512E+00  0.88000000000E+00 0. -1.
        -11    1    4    4    0    0  0.17864928814E-01  0.44750275720E-02 -0.39603094045E-02  0.18844806311E-01  0.51100000000E-03 0.  1.
         11    1    4    4    0    0  0.10832334600E+00 -0.97401284090E-02  0.59395241673E-02  0.10892362672E+00  0.51100000000E-03 0. -1.
</event>
<event>
 8    1  0.5489035E+004  0.1043930E+01  0.7957747E-01            NaN
         13   -1    0    0    0    0  0.00000000000E+00  0.00000000000E+00  0.74505805969E-08  0.10566000000E+00  0.10566000000E+00 0.  1.
     999900   -1    0    0    0    0 -0.00000000000E+00 -0.00000000000E+00 -0.74505805969E-08  0.93827000000E+00  0.93827000000E+00 0.  1.
     999902    2    1    2    0    0 -0.13001656463E-01  0.15469862551E-01 -0.12136825009E-01  0.10203575110E+01  0.10200851866E+01 0.  0.
     999903    2    3    3    0    0  0.64467136811E-02  0.12709045985E+00 -0.31360922380E-01  0.13288527885E+00  0.21941850031E-01 0.  0.
         14    1    1    2    0    0  0.13001656463E-01 -0.15469862551E-01  0.12136825009E-01  0.23572489038E-01  0.00000000000E+00 0. -1.
     999901    1    3    3    0    0 -0.19448370144E-01 -0.11162059729E+00  0.19224097371E-01  0.88747223211E+00  0.88000000000E+00 0.  1.
        -11    1    4    4    0    0 -0.40887727415E-02  0.97150597147E-01 -0.20863284715E-01  0.99450964594E-01  0.51100000000E-03 0. -1.
         11    1    4    4    0    0  0.10535486423E-01  0.29939862699E-01 -0.10497637665E-01  0.33434314261E-01  0.51100000000E-03 0.  1.
</event>
<event>
 8    1  0.5489035E+004  0.1043930E+01  0.7957747E-01            NaN
         13   -1    0    0    0    0  0.00000000000E+00  0.00000000000E+00  0.74505805969E-08  0.10566000000E+00  0.10566000000E+00 0.  1.
     999900   -1    0    0    0    0 -0.00000000000E+00 -0.00000000000E+00 -0.74505805969E-08  0.93827000000E+00  0.93827000000E+00 0. -1.
     999902    2    1    2    0    0 -0.94229992720E-02  0.81868261870E-02 -0.22635193344E-01  0.10180810345E+01  0.10177528304E+01 0.  0.
     999903    2    3    3    0    0  0.12191120804E+00  0.24409143041E-01 -0.23534148820E-01  0.12818629598E+00  0.20487103427E-01 0.  0.
         14    1    1    2    0    0  0.94229992720E-02 -0.81868261870E-02  0.22635193344E-01  0.25848965473E-01  0.00000000000E+00 0.  1.
     999901    1    3    3    0    0 -0.13133420731E+00 -0.16222316854E-01  0.89895547542E-03  0.88989473855E+00  0.88000000000E+00 0. -1.
        -11    1    4    4    0    0  0.94187093488E-01  0.26112772319E-01 -0.22948067383E-01  0.10039900585E+00  0.51100000000E-03 0.  1.
         11    1    4    4    0    0  0.27724114550E-01 -0.17036292777E-02 -0.58608143645E-03  0.27787290130E-01  0.51100000000E-03 0. -1.
</event>
<event>
 8    1  0.5489035E+004  0.1043930E+01  0.7957747E-01            NaN
         13   -1    0    0    0    0  0.00000000000E+00  0.00000000000E+00  0.74505805969E-08  0.10566000000E+00  0.10566000000E+00 0.  1.
     999900   -1    0    0    0    0 -0.00000000000E+00 -0.00000000000E+00 -0.74505805969E-08  0.93827000000E+00  0.93827000000E+00 0.  1.
     999902    2    1    2    0    0 -0.91353717833E-03  0.22801733356E-01  0.83954919673E-02  0.10196146164E+01  0.10193246431E+01 0.  0.
     999903    2    3    3    0    0 -0.86793409723E-01  0.87113144502E-01  0.44656627227E-01  0.13235694242E+00  0.20058662330E-01 0.  0.
         14    1    1    2    0    0  0.91353717833E-03 -0.22801733356E-01 -0.83954919673E-02  0.24315383600E-01  0.00000000000E+00 0. -1.
     999901    1    3    3    0    0  0.85879872544E-01 -0.64311411145E-01 -0.36261135259E-01  0.88725767398E+00  0.88000000000E+00 0.  1.
        -11    1    4    4    0    0 -0.79118899610E-01  0.83162743589E-01  0.45894647342E-01  0.12362209338E+00  0.51100000000E-03 0.  1.
         11    1    4    4    0    0 -0.76745101128E-02  0.39504009128E-02 -0.12380201155E-02  0.87348490342E-02  0.51100000000E-03 0. -1.
</event>
<event>
 8    1  0.5489035E+004  0.1043930E+01  0.7957747E-01            NaN
         13   -1    0    0    0    0  0.00000000000E+00  0.00000000000E+00  0.74505805969E-08  0.10566000000E+00  0.10566000000E+00 0. -1.
     999900   -1    0    0    0    0 -0.00000000000E+00 -0.00000000000E+00 -0.74505805969E-08  0.93827000000E+00  0.93827000000E+00 0. -1.
     999902    2    1    2    0    0  0.43943751655E-02 -0.82791245133E-02 -0.21791513825E-01  0.10202081849E+01  0.10199323586E+01 0.  0.
     999903    2    3    3    0    0 -0.10164662992E+00 -0.68332626521E-01 -0.43872257419E-01  0.13153576097E+00  0.19377724870E-01 0.  0.
         14    1    1    2    0    0 -0.43943751655E-02  0.82791245133E-02  0.21791513825E-01  0.23721815078E-01  0.00000000000E+00 0. -1.
     999901    1    3    3    0    0  0.10604100508E+00  0.60053502008E-01  0.22080743595E-01  0.88867242396E+00  0.88000000000E+00 0. -1.
        -11    1    4    4    0    0 -0.62365468090E-01 -0.31383840289E-01 -0.20564723961E-01  0.72784380426E-01  0.51100000000E-03 0.  1.
         11    1    4    4    0    0 -0.39281161827E-01 -0.36948786232E-01 -0.23307533458E-01  0.58751380540E-01  0.51100000000E-03 0. -1.
</event>
<event>
 8    1  0.5489035E+004  0.1043930E+01  0.7957747E-01            NaN
         13   -1    0    0    0    0  0.00000000000E+00  0.00000000000E+00  0.74505805969E-08  0.10566000000E+00  0.10566000000E+00 0.  1.
     999900   -1    0    0    0    0 -0.00000000000E+00 -0.00000000000E+00 -0.74505805969E-08  0.93827000000E+00  0.93827000000E+00 0.  1.
     999902    2    1    2    0    0 -0.19467662169E-01  0.11727515188E-01 -0.58623919470E-02  0.10204589088E+01  0.10201889494E+01 0.  0.
     999903    2    3    3    0    0 -0.23359778544E-01  0.12801499875E+00  0.15239170856E-01  0.13254945207E+00  0.20089941665E-01 0.  0.
         14    1    1    2    0    0  0.19467662169E-01 -0.11727515188E-01  0.58623919470E-02  0.23471091200E-01  0.00000000000E+00 0.  1.
     999901    1    3    3    0    0  0.38921163758E-02 -0.11628748356E+00 -0.21101562803E-01  0.88790945673E+00  0.88000000000E+00 0. -1.
        -11    1    4    4    0    0  0.26893083647E-02  0.33364492986E-01  0.49546326389E-02  0.33841265893E-01  0.51100000000E-03 0. -1.
         11    1    4    4    0    0 -0.26049086909E-01  0.94650505764E-01  0.10284538217E-01  0.98708186173E-01  0.51100000000E-03 0.  1.
</event>
<event>
 8    1  0.5489035E+004  0.1043930E+01  0.7957747E-01            NaN
         13   -1    0    0    0    0  0.00000000000E+00  0.00000000000E+00  0.74505805969E-08  0.10566000000E+00  0.10566000000E+00 0.  1.
     999900   -1    0    0    0    0 -0.00000000000E+00 -0.00000000000E+00 -0.74505805969E-08  0.93827000000E+00  0.93827000000E+00 0. -1.
     999902    2    1    2    0    0 -0.21470117715E-01  0.35061532459E-03  0.95362170557E-02  0.10204347170E+01  0.10201641943E+01 0.  0.
     999903    2    3    3    0    0 -0.33110173170E-01  0.72357795170E-01  0.10377944045E+00  0.13240188544E+00  0.20691856305E-01 0.  0.
         14    1    1    2    0    0  0.21470117715E-01 -0.35061532459E-03 -0.95362170557E-02  0.23495282963E-01  0.00000000000E+00 0.  1.
     999901    1    3    3    0    0  0.11640055456E-01 -0.72007179846E-01 -0.94243223399E-01  0.88803283160E+00  0.88000000000E+00 0. -1.
        -11    1    4    4    0    0 -0.18822452990E-01  0.18602320705E-01  0.30080702152E-01  0.40067952719E-01  0.51100000000E-03 0. -1.
         11    1    4    4    0    0 -0.14287720180E-01  0.53755474466E-01  0.73698738303E-01  0.92333932719E-01  0.51100000000E-03 0.  1.
</event>
<event>
 8    1  0.5489035E+004  0.1043930E+01  0.7957747E-01            NaN
         13   -1    0    0    0    0  0.00000000000E+00  0.00000000000E+00  0.74505805969E-08  0.10566000000E+00  0.10566000000E+00 0. -1.
     999900   -1    0    0    0    0 -0.00000000000E+00 -0.00000000000E+00 -0.74505805969E-08  0.93827000000E+00  0.93827000000E+00 0.  1.
     999902    2    1    2    0    0 -0.68661451862E-02 -0.23380102824E-01 -0.98416127007E-04  0.10195623402E+01  0.10192711037E+01 0.  0.
     999903    2    3    3    0    0  0.60385401381E-01 -0.84344889803E-01 -0.78250183186E-01  0.13144794755E+00  0.19874974457E-01 0.  0.
         14    1    1    2    0    0  0.68661451862E-02  0.23380102824E-01  0.98416127007E-04  0.24367659787E-01  0.00000000000E+00 0.  1.
     999901    1    3    3    0    0 -0.67251546568E-01  0.60964786980E-01  0.78151767058E-01  0.88811439267E+00  0.88000000000E+00 0. -1.
        -11    1    4    4    0    0  0.25110255621E-01 -0.24360652032E-01 -0.35130925457E-01  0.49582349171E-01  0.51100000000E-03 0.  1.
         11    1    4    4    0    0  0.35275145760E-01 -0.59984237771E-01 -0.43119257728E-01  0.81865598376E-01  0.51100000000E-03 0. -1.
</event>
<event>
 8    1  0.5489035E+004  0.1043930E+01  0.7957747E-01            NaN
         13   -1    0    0    0    0  0.00000000000E+00  0.00000000000E+00  0.74505805969E-08  0.10566000000E+00  0.10566000000E+00 0.  1.
     999900   -1    0    0    0    0 -0.00000000000E+00 -0.00000000000E+00 -0.74505805969E-08  0.93827000000E+00  0.93827000000E+00 0. -1.
     999902    2    1    2    0    0  0.11739082632E-01  0.10583096616E-01 -0.16998989955E-01  0.10207185017E+01  0.10204545487E+01 0.  0.
     999903    2    3    3    0    0  0.47414244606E-01  0.29028513703E-02  0.11910497208E+00  0.12950809339E+00  0.18160802387E-01 0.  0.
         14    1    1    2    0    0 -0.11739082632E-01 -0.10583096616E-01  0.16998989955E-01  0.23211498325E-01  0.00000000000E+00 0.  1.
     999901    1    3    3    0    0 -0.35675161974E-01  0.76802452460E-02 -0.13610396203E+00  0.89121040828E+00  0.88000000000E+00 0. -1.
        -11    1    4    4    0    0  0.14234998239E-01  0.84606208028E-02  0.30135693872E-01  0.34389510688E-01  0.51100000000E-03 0.  1.
         11    1    4    4    0    0  0.33179246367E-01 -0.55577694325E-02  0.88969278205E-01  0.95118582705E-01  0.51100000000E-03 0. -1.
</event>
<event>
 8    1  0.5489035E+004  0.1043930E+01  0.7957747E-01            NaN
         13   -1    0    0    0    0  0.00000000000E+00  0.00000000000E+00  0.74505805969E-08  0.10566000000E+00  0.10566000000E+00 0. -1.
     999900   -1    0    0    0    0 -0.00000000000E+00 -0.00000000000E+00 -0.74505805969E-08  0.93827000000E+00  0.93827000000E+00 0. -1.
     999902    2    1    2    0    0  0.23093600889E-01 -0.56920326193E-02  0.35817935431E-02  0.10198770816E+01  0.10195934085E+01 0.  0.
     999903    2    3    3    0    0  0.11295699409E+00 -0.56123061199E-01  0.37613206658E-01  0.13321093523E+00  0.20526067297E-01 0.  0.
         14    1    1    2    0    0 -0.23093600889E-01  0.56920326193E-02 -0.35817935431E-02  0.24052918375E-01  0.00000000000E+00 0.  1.
     999901    1    3    3    0    0 -0.89863393199E-01  0.50431028580E-01 -0.34031413115E-01  0.88666614639E+00  0.88000000000E+00 0. -1.
        -11    1    4    4    0    0  0.75259202396E-01 -0.31189301452E-01  0.32543152108E-01  0.87727065040E-01  0.51100000000E-03 0. -1.
         11    1    4    4    0    0  0.37697791692E-01 -0.24933759747E-01  0.50700545493E-02  0.45483870193E-01  0.51100000000E-03 0.  1.
</event>
<event>
 8    1  0.5489035E+004  0.1043930E+01  0.7957747E-01            NaN
         13   -1    0    0    0    0  0.00000000000E+00  0.00000000000E+00  0.74505805969E-08  0.10566000000E+00  0.10566000000E+00 0. -1.
     999900   -1    0    0    0    0 -0.00000000000E+00 -0.00000000000E+00 -0.74505805969E-08  0.93827000000E+00  0.93827000000E+00 0.  1.
     999902    2    1    2    0    0  0.22843912264E-01 -0.58041400645E-02  0.24956974895E-02  0.10202285048E+01  0.10199531563E+01 0.  0.
     999903    2    3    3    0    0 -0.45182116509E-01  0.11116997367E+00 -0.42042207785E-01  0.12877233151E+00  0.20361223634E-01 0.  0.
         14    1    1    2    0    0 -0.22843912264E-01  0.58041400645E-02 -0.24956974895E-02  0.23701495214E-01  0.00000000000E+00 0.  1.
     999901    1    3    3    0    0  0.68026028772E-01 -0.11697411373E+00  0.44537905275E-01  0.89145617328E+00  0.88000000000E+00 0. -1.
        -11    1    4    4    0    0 -0.17952122844E-01  0.62153946462E-01 -0.14510317081E-01  0.66303862619E-01  0.51100000000E-03 0.  1.
         11    1    4    4    0    0 -0.27229993665E-01  0.49016027208E-01 -0.27531890705E-01  0.62468468886E-01  0.51100000000E-03 0. -1.
</event>
<event>
 8    1  0.5489035E+004  0.1043930E+01  0.7957747E-01            NaN
         13   -1    0    0    0    0  0.00000000000E+00  0.00000000000E+00  0.74505805969E-08  0.10566000000E+00  0.10566000000E+00 0.  1.
     999900   -1    0    0    0    0 -0.00000000000E+00 -0.00000000000E+00 -0.74505805969E-08  0.93827000000E+00  0.93827000000E+00 0. -1.
     999902    2    1    2    0    0  0.54315132891E-03 -0.27172273568E-01 -0.14766078524E-01  0.10130000058E+01  0.10125277020E+01 0.  0.
     999903    2    3    3    0    0  0.88660580702E-01 -0.37596663201E-01 -0.78959544386E-01  0.12621133297E+00  0.20505688631E-01 0.  0.
         14    1    1    2    0    0 -0.54315132891E-03  0.27172273568E-01  0.14766078524E-01  0.30929994167E-01  0.00000000000E+00 0.  1.
     999901    1    3    3    0    0 -0.88117429373E-01  0.10424389633E-01  0.64193465862E-01  0.88678867286E+00  0.88000000000E+00 0.  1.
        -11    1    4    4    0    0  0.12757934433E-01 -0.99889204309E-02 -0.22217294599E-01  0.27502958435E-01  0.51100000000E-03 0. -1.
         11    1    4    4    0    0  0.75902646269E-01 -0.27607742770E-01 -0.56742249787E-01  0.98708374535E-01  0.51100000000E-03 0.  1.
</event>
<event>
 8    1  0.5489035E+004  0.1043930E+01  0.7957747E-01            NaN
         13   -1    0    0    0    0  0.00000000000E+00  0.00000000000E+00  0.74505805969E-08  0.10566000000E+00  0.10566000000E+00 0. -1.
     999900   -1    0    0    0    0 -0.00000000000E+00 -0.00000000000E+00 -0.74505805969E-08  0.93827000000E+00  0.93827000000E+00 0. -1.
     999902    2    1    2    0    0  0.57471069475E-02 -0.65976230079E-02  0.25508994957E-01  0.10169621174E+01  0.10166044863E+01 0.  0.
     999903    2    3    3    0    0 -0.11536307104E+00  0.42879484102E-01 -0.19456324422E-01  0.12615487716E+00  0.19728561869E-01 0.  0.
         14    1    1    2    0    0 -0.57471069475E-02  0.65976230079E-02 -0.25508994957E-01  0.26967882589E-01  0.00000000000E+00 0.  1.
     999901    1    3    3    0    0  0.12111017799E+00 -0.49477107109E-01  0.44965319379E-01  0.89080724025E+00  0.88000000000E+00 0.  1.
        -11    1    4    4    0    0 -0.59020727944E-01  0.30184298641E-01 -0.16533047968E-01  0.68323795325E-01  0.51100000000E-03 0.  1.
         11    1    4    4    0    0 -0.56342343098E-01  0.12695185461E-01 -0.29232764540E-02  0.57831081832E-01  0.51100000000E-03 0. -1.
</event>
<event>
 8    1  0.5489035E+004  0.1043930E+01  0.7957747E-01            NaN
         13   -1    0    0    0    0  0.00000000000E+00  0.00000000000E+00  0.74505805969E-08  0.10566000000E+00  0.10566000000E+00 0. -1.
     999900   -1    0    0    0    0 -0.00000000000E+00 -0.00000000000E+00 -0.74505805969E-08  0.93827000000E+00  0.93827000000E+00 0.  1.
     999902    2    1    2    0    0  0.14235973870E-01  0.18680217489E-03  0.18966766390E-01  0.10202142653E+01  0.10199385820E+01 0.  0.
     999903    2    3    3    0    0 -0.11017305665E+00 -0.33303025586E-01  0.57394929074E-01  0.13000311102E+00  0.18958825610E-01 0.  0.
         14    1    1    2    0    0 -0.14235973870E-01 -0.18680217489E-03 -0.18966766390E-01  0.23715734742E-01  0.00000000000E+00 0.  1.
     999901    1    3    3    0    0  0.12440903051E+00  0.33489827761E-01 -0.38428162684E-01  0.89021115423E+00  0.88000000000E+00 0.  1.
        -11    1    4    4    0    0 -0.10100810904E+00 -0.28158836077E-01  0.46041792645E-01  0.11452364791E+00  0.51100000000E-03 0.  1.
         11    1    4    4    0    0 -0.91649476068E-02 -0.51441895091E-02  0.11353136429E-01  0.15479463108E-01  0.51100000000E-03 0. -1.
</event>
<event>
 8    1  0.5489035E+004  0.1043930E+01  0.7957747E-01            NaN
         13   -1    0    0    0    0  0.00000000000E+00  0.00000000000E+00  0.74505805969E-08  0.10566000000E+00  0.10566000000E+00 0. -1.
     999900   -1    0    0    0    0 -0.00000000000E+00 -0.00000000000E+00 -0.74505805969E-08  0.93827000000E+00  0.93827000000E+00 0. -1.
     999902    2    1    2    0    0 -0.41600006706E-02 -0.70811153971E-02  0.23536396361E-01  0.10190019083E+01  0.10186969517E+01 0.  0.
     999903    2    3    3    0    0  0.10949961624E+00 -0.58163700332E-01  0.34694490583E-01  0.13015296612E+00  0.19050063466E-01 0.  0.
         14    1    1    2    0    0  0.41600006706E-02  0.70811153971E-02 -0.23536396361E-01  0.24928091674E-01  0.00000000000E+00 0.  1.
     999901    1    3    3    0    0 -0.11365961691E+00  0.51082584935E-01 -0.11158094221E-01  0.88884894221E+00  0.88000000000E+00 0. -1.
        -11    1    4    4    0    0  0.79263726163E-01 -0.38792809006E-01  0.32945028045E-01  0.94197963405E-01  0.51100000000E-03 0.  1.
         11    1    4    4    0    0  0.30235890080E-01 -0.19370891326E-01  0.17494625381E-02  0.35955002710E-01  0.51100000000E-03 0. -1.
</event>
<event>
 7    1  0.5489035E+004  0.1043930E+01  0.7957747E-01            NaN
         13   -1    0    0    0    0  0.00000000000E+00  0.00000000000E+00  0.74505805969E-08  0.10566000000E+00  0.10566000000E+00 0. -1.
     999900   -1    0    0    0    0 -0.00000000000E+00 -0.00000000000E+00 -0.74505805969E-08  0.93827000000E+00  0.93827000000E+00 0.  1.
     999903    2    1    2    0    0  0.41475663248E-01 -0.10425417772E+00 -0.77600493638E-02  0.11410123221E+00  0.19227808280E-01 0.  0.
         14    1    1    2    0    0  0.14415044271E-02  0.30354128583E-02 -0.41485573344E-01  0.41621442333E-01  0.00000000000E+00 0.  1.
     999901    1    1    2    0    0 -0.42917167675E-01  0.10121876486E+00  0.49245622707E-01  0.88820732546E+00  0.88000000000E+00 0. -1.
        -11    1    3    3    0    0  0.10171834464E-01 -0.40400726201E-01 -0.10376382435E-01  0.42937341876E-01  0.51100000000E-03 0.  1.
         11    1    3    3    0    0  0.31303828783E-01 -0.63853451520E-01  0.26163330713E-02  0.71163890332E-01  0.51100000000E-03 0. -1.
</event>
<event>
 8    1  0.5489035E+004  0.1043930E+01  0.7957747E-01            NaN
         13   -1    0    0    0    0  0.00000000000E+00  0.00000000000E+00  0.74505805969E-08  0.10566000000E+00  0.10566000000E+00 0. -1.
     999900   -1    0    0    0    0 -0.00000000000E+00 -0.00000000000E+00 -0.74505805969E-08  0.93827000000E+00  0.93827000000E+00 0.  1.
     999902    2    1    2    0    0  0.95931815939E-02  0.19376334276E-01 -0.89021913889E-02  0.10205479455E+01  0.10202800540E+01 0.  0.
     999903    2    3    3    0    0 -0.20306972044E-02 -0.12305578922E-01  0.12659366730E+00  0.12953841358E+00  0.24468203633E-01 0.  0.
         14    1    1    2    0    0 -0.95931815939E-02 -0.19376334276E-01  0.89021913889E-02  0.23382054542E-01  0.00000000000E+00 0. -1.
     999901    1    3    3    0    0  0.11623878798E-01  0.31681913198E-01 -0.13549585868E+00  0.89100953188E+00  0.88000000000E+00 0.  1.
        -11    1    4    4    0    0  0.59091998581E-02  0.15907826825E-02  0.80664146957E-01  0.80897558417E-01  0.51100000000E-03 0. -1.
         11    1    4    4    0    0 -0.79398970625E-02 -0.13896361604E-01  0.45929520338E-01  0.48640855160E-01  0.51100000000E-03 0.  1.
</event>
<event>
 8    1  0.5489035E+004  0.1043930E+01  0.7957747E-01            NaN
         13   -1    0    0    0    0  0.00000000000E+00  0.00000000000E+00  0.74505805969E-08  0.10566000000E+00  0.10566000000E+00 0.  1.
     999900   -1    0    0    0    0 -0.00000000000E+00 -0.00000000000E+00 -0.74505805969E-08  0.93827000000E+00  0.93827000000E+00 0.  1.
     999902    2    1    2    0    0 -0.56286323792E-02  0.13555819602E-01 -0.19345866865E-01  0.10196461718E+01  0.10193569597E+01 0.  0.
     999903    2    3    3    0    0 -0.58261150868E-01  0.73009424036E-01 -0.92626829458E-01  0.13303745733E+00  0.19861969176E-01 0.  0.
         14    1    1    2    0    0  0.56286323792E-02 -0.13555819602E-01  0.19345866865E-01  0.24283828205E-01  0.00000000000E+00 0. -1.
     999901    1    3    3    0    0  0.52632518489E-01 -0.59453604434E-01  0.73280962593E-01  0.88660871446E+00  0.88000000000E+00 0.  1.
        -11    1    4    4    0    0 -0.37968001527E-01  0.36664840245E-01 -0.61576080507E-01  0.81103356661E-01  0.51100000000E-03 0. -1.
         11    1    4    4    0    0 -0.20293149341E-01  0.36344583791E-01 -0.31050748951E-01  0.51934100671E-01  0.51100000000E-03 0.  1.
</event>
<event>
 8    1  0.5489035E+004  0.1043930E+01  0.7957747E-01            NaN
         13   -1    0    0    0    0  0.00000000000E+00  0.00000000000E+00  0.74505805969E-08  0.10566000000E+00  0.10566000000E+00 0.  1.
     999900   -1    0    0    0    0 -0.00000000000E+00 -0.00000000000E+00 -0.74505805969E-08  0.93827000000E+00  0.93827000000E+00 0.  1.
     999902    2    1    2    0    0  0.94024145434E-03  0.23308720417E-01 -0.97084699638E-03  0.10205821297E+01  0.10203150300E+01 0.  0.
     999903    2    3    3    0    0  0.12375323458E+00 -0.10408766797E-01  0.35352356061E-01  0.13067242910E+00  0.20057147156E-01 0.  0.
         14    1    1    2    0    0 -0.94024145434E-03 -0.23308720417E-01  0.97084699638E-03  0.23347870253E-01  0.00000000000E+00 0.  1.
     999901    1    3    3    0    0 -0.12281299313E+00  0.33717487214E-01 -0.36323203057E-01  0.88990970065E+00  0.88000000000E+00 0.  1.
        -11    1    4    4    0    0  0.62561098648E-01 -0.14689595964E-01  0.21684187149E-01  0.67824334770E-01  0.51100000000E-03 0. -1.
         11    1    4    4    0    0  0.61192135934E-01  0.42808291671E-02  0.13668168911E-01  0.62848094330E-01  0.51100000000E-03 0.  1.
</event>
<event>
 8    1  0.5489035E+004  0.1043930E+01  0.7957747E-01            NaN
         13   -1    0    0    0    0  0.00000000000E+00  0.00000000000E+00  0.74505805969E-08  0.10566000000E+00  0.10566000000E+00 0.  1.
     999900   -1    0    0    0    0 -0.00000000000E+00 -0.00000000000E+00 -0.74505805969E-08  0.93827000000E+00  0.93827000000E+00 0. -1.
     999902    2    1    2    0    0 -0.17739855815E-01  0.30313577567E-02  0.14666520698E-01  0.10207136600E+01  0.10204495956E+01 0.  0.
     999903    2    3    3    0    0 -0.76475398844E-01  0.49892792190E-01 -0.92025804947E-01  0.13109064410E+00  0.19448158073E-01 0.  0.
         14    1    1    2    0    0  0.17739855815E-01 -0.30313577567E-02 -0.14666520698E-01  0.23216340013E-01  0.00000000000E+00 0. -1.
     999901    1    3    3    0    0  0.58735543029E-01 -0.46861434433E-01  0.10669232565E+00  0.88962301589E+00  0.88000000000E+00 0.  1.
        -11    1    4    4    0    0 -0.45342309829E-01  0.30306757738E-01 -0.41214893131E-01  0.68361927723E-01  0.51100000000E-03 0.  1.
         11    1    4    4    0    0 -0.31133089014E-01  0.19586034452E-01 -0.50810911816E-01  0.62728716373E-01  0.51100000000E-03 0. -1.
</event>
<event>
 8    1  0.5489035E+004  0.1043930E+01  0.7957747E-01            NaN
         13   -1    0    0    0    0  0.00000000000E+00  0.00000000000E+00  0.74505805969E-08  0.10566000000E+00  0.10566000000E+00 0.  1.
     999900   -1    0    0    0    0 -0.00000000000E+00 -0.00000000000E+00 -0.74505805969E-08  0.93827000000E+00  0.93827000000E+00 0.  1.
     999902    2    1    2    0    0  0.12843790844E-01 -0.14321488426E-01  0.17203353182E-01  0.10181225717E+01  0.10177954351E+01 0.  0.
     999903    2    3    3    0    0 -0.99981386593E-01  0.60619225222E-01 -0.41870288446E-01  0.12580237898E+00  0.20053662287E-01 0.  0.
         14    1    1    2    0    0 -0.12843790844E-01  0.14321488426E-01 -0.17203353182E-01  0.25807428285E-01  0.00000000000E+00 0. -1.
     999901    1    3    3    0    0  0.11282517744E+00 -0.74940713648E-01  0.59073641628E-01  0.89232019273E+00  0.88000000000E+00 0.  1.
        -11    1    4    4    0    0 -0.53406017766E-01  0.30036166878E-01 -0.11509405511E-01  0.62346624532E-01  0.51100000000E-03 0. -1.
         11    1    4    4    0    0 -0.46575368828E-01  0.30583058344E-01 -0.30360882936E-01  0.63455754449E-01  0.51100000000E-03 0.  1.
</event>
<event>
 8    1  0.5489035E+004  0.1043930E+01  0.7957747E-01            NaN
         13   -1    0    0    0    0  0.00000000000E+00  0.00000000000E+00  0.74505805969E-08  0.10566000000E+00  0.10566000000E+00 0. -1.
     999900   -1    0    0    0    0 -0.00000000000E+00 -0.00000000000E+00 -0.74505805969E-08  0.93827000000E+00  0.93827000000E+00 0. -1.
     999902    2    1    2    0    0  0.12627043993E-02  0.76234498993E-02 -0.22392340422E-01  0.10202418527E+01  0.10199668180E+01 0.  0.
     999903    2    3    3    0    0 -0.98698098319E-01  0.79490854881E-01  0.24336043060E-01  0.13044377014E+00  0.19058424805E-01 0.  0.
         14    1    1    2    0    0 -0.12627043993E-02 -0.76234498993E-02  0.22392340422E-01  0.23688147254E-01  0.00000000000E+00 0. -1.
     999901    1    3    3    0    0  0.99960802718E-01 -0.71867404982E-01 -0.46728383482E-01  0.88979808260E+00  0.88000000000E+00 0. -1.
        -11    1    4    4    0    0 -0.55173362918E-01  0.47576003097E-01  0.46917987799E-02  0.73005822666E-01  0.51100000000E-03 0. -1.
         11    1    4    4    0    0 -0.43524735401E-01  0.31914851784E-01  0.19644244280E-01  0.57437947478E-01  0.51100000000E-03 0.  1.
</event>
<event>
 7    1  0.5489035E+004  0.1043930E+01  0.7957747E-01            NaN
         13   -1    0    0    0    0  0.00000000000E+00  0.00000000000E+00  0.74505805969E-08  0.10566000000E+00  0.10566000000E+00 0.  1.
     999900   -1    0    0    0    0 -0.00000000000E+00 -0.00000000000E+00 -0.74505805969E-08  0.93827000000E+00  0.93827000000E+00 0.  1.
     999903    2    1    2    0    0 -0.68814447130E-01  0.77792871214E-01  0.30819392088E-01  0.11017406824E+00  0.20033258325E-01 0.  0.
         14    1    1    2    0    0  0.15069858079E-01 -0.33815653999E-01  0.31796949193E-01  0.48802100937E-01  0.00000000000E+00 0.  1.
     999901    1    1    2    0    0  0.53744589051E-01 -0.43977217215E-01 -0.62616341281E-01  0.88495383082E+00  0.88000000000E+00 0.  1.
        -11    1    3    3    0    0 -0.42234353693E-01  0.50828569867E-01  0.29262270317E-01  0.72276038434E-01  0.51100000000E-03 0.  1.
         11    1    3    3    0    0 -0.26580093437E-01  0.26964301347E-01  0.15571217711E-02  0.37898029809E-01  0.51100000000E-03 0. -1.
</event>
<event>
 8    1  0.5489035E+004  0.1043930E+01  0.7957747E-01            NaN
         13   -1    0    0    0    0  0.00000000000E+00  0.00000000000E+00  0.74505805969E-08  0.10566000000E+00  0.10566000000E+00 0.  1.
     999900   -1    0    0    0    0 -0.00000000000E+00 -0.00000000000E+00 -0.74505805969E-08  0.93827000000E+00  0.93827000000E+00 0.  1.
     999902    2    1    2    0    0  0.17793102173E-01  0.94712329231E-02 -0.11734575039E-01  0.10206062141E+01  0.10203396715E+01 0.  0.
     999903    2    3    3    0    0  0.90373281740E-01 -0.89241430158E-01 -0.29706806477E-01  0.13193581769E+00  0.19829340144E-01 0.  0.
         14    1    1    2    0    0 -0.17793102173E-01 -0.94712329231E-02  0.11734575039E-01  0.23323785914E-01  0.00000000000E+00 0. -1.
     999901    1    3    3    0    0 -0.72580179567E-01  0.98712663081E-01  0.17972231438E-01  0.88867039639E+00  0.88000000000E+00 0.  1.
        -11    1    4    4    0    0  0.33199878109E-01 -0.46409925538E-01 -0.14904095086E-01  0.58978862876E-01  0.51100000000E-03 0.  1.
         11    1    4    4    0    0  0.57173403632E-01 -0.42831504620E-01 -0.14802711391E-01  0.72956954819E-01  0.51100000000E-03 0. -1.
</event>
<event>
 8    1  0.5489035E+004  0.1043930E+01  0.7957747E-01            NaN
         13   -1    0    0    0    0  0.00000000000E+00  0.00000000000E+00  0.74505805969E-08  0.10566000000E+00  0.10566000000E+00 0.  1.
     999900   -1    0    0    0    0 -0.00000000000E+00 -0.00000000000E+00 -0.74505805969E-08  0.93827000000E+00  0.93827000000E+00 0.  1.
     999902    2    1    2    0    0 -0.43185443390E-02 -0.74503553182E-02 -0.21771964376E-01  0.10205168402E+01  0.10202482272E+01 0.  0.
     999903    2    3    3    0    0  0.28735145079E-01 -0.89746240183E-02 -0.12844310166E+00  0.13345787861E+00  0.20177278361E-01 0.  0.
         14    1    1    2    0    0  0.43185443390E-02  0.74503553182E-02  0.21771964376E-01  0.23413159812E-01  0.00000000000E+00 0.  1.
     999901    1    3    3    0    0 -0.33053689418E-01  0.15242687001E-02  0.10667113728E+00  0.88705896157E+00  0.88000000000E+00 0. -1.
        -11    1    4    4    0    0  0.78152065005E-02  0.53476517219E-02 -0.20670101113E-01  0.22741790444E-01  0.51100000000E-03 0. -1.
         11    1    4    4    0    0  0.20919938578E-01 -0.14322275740E-01 -0.10777300054E+00  0.11071608817E+00  0.51100000000E-03 0.  1.
</event>
<event>
 8    1  0.5489035E+004  0.1043930E+01  0.7957747E-01            NaN
         13   -1    0    0    0    0  0.00000000000E+00  0.00000000000E+00  0.74505805969E-08  0.10566000000E+00  0.10566000000E+00 0.  1.
     999900   -1    0    0    0    0 -0.00000000000E+00 -0.00000000000E+00 -0.74505805969E-08  0.93827000000E+00  0.93827000000E+00 0. -1.
     999902    2    1    2    0    0 -0.22052456017E-01 -0.44556165861E-02 -0.80645260779E-02  0.10200302110E+01  0.10197501808E+01 0.  0.
     999903    2    3    3    0    0 -0.92422710847E-01  0.91874426092E-01 -0.52898873245E-02  0.13197663796E+00  0.20173805031E-01 0.  0.
         14    1    1    2    0    0  0.22052456017E-01  0.44556165861E-02  0.80645260779E-02  0.23899789046E-01  0.00000000000E+00 0.  1.
     999901    1    3    3    0    0  0.70370254829E-01 -0.96330042678E-01 -0.27746387534E-02  0.88805357299E+00  0.88000000000E+00 0. -1.
        -11    1    4    4    0    0 -0.46211862410E-01  0.42713050272E-01  0.72578009380E-02  0.63347278444E-01  0.51100000000E-03 0. -1.
         11    1    4    4    0    0 -0.46210848437E-01  0.49161375821E-01 -0.12547688262E-01  0.68629359516E-01  0.51100000000E-03 0.  1.
</event>
<event>
 8    1  0.5489035E+004  0.1043930E+01  0.7957747E-01            NaN
         13   -1    0    0    0    0  0.00000000000E+00  0.00000000000E+00  0.74505805969E-08  0.10566000000E+00  0.10566000000E+00 0.  1.
     999900   -1    0    0    0    0 -0.00000000000E+00 -0.00000000000E+00 -0.74505805969E-08  0.93827000000E+00  0.93827000000E+00 0.  1.
     999902    2    1    2    0    0  0.14723770465E-01 -0.57794285813E-02  0.17079686519E-01  0.10206511061E+01  0.10203856004E+01 0.  0.
     999903    2    3    3    0    0  0.76157661847E-02  0.38283959930E-01 -0.12103671293E+00  0.12876084054E+00  0.20144644382E-01 0.  0.
         14    1    1    2    0    0 -0.14723770465E-01  0.57794285813E-02 -0.17079686519E-01  0.23278893938E-01  0.00000000000E+00 0.  1.
     999901    1    3    3    0    0  0.71080042800E-02 -0.44063388512E-01  0.13811639945E+00  0.89189026552E+00  0.88000000000E+00 0. -1.
        -11    1    4    4    0    0  0.20763866352E-03  0.57638798156E-02 -0.49404757182E-01  0.49742904796E-01  0.51100000000E-03 0. -1.
         11    1    4    4    0    0  0.74081275212E-02  0.32520080115E-01 -0.71631955749E-01  0.79017935746E-01  0.51100000000E-03 0.  1.
</event>
<event>
 8    1  0.5489035E+004  0.1043930E+01  0.7957747E-01            NaN
         13   -1    0    0    0    0  0.00000000000E+00  0.00000000000E+00  0.74505805969E-08  0.10566000000E+00  0.10566000000E+00 0.  1.
     999900   -1    0    0    0    0 -0.00000000000E+00 -0.00000000000E+00 -0.74505805969E-08  0.93827000000E+00  0.93827000000E+00 0. -1.
     999902    2    1    2    0    0 -0.25572911867E-01  0.74333205910E-02 -0.93350199379E-02  0.10157099597E+01  0.10153178574E+01 0.  0.
     999903    2    3    3    0    0 -0.12817655903E-01 -0.56719040487E-01 -0.11159162059E+00  0.12737745757E+00  0.19773342067E-01 0.  0.
         14    1    1    2    0    0  0.25572911867E-01 -0.74333205910E-02  0.93350199379E-02  0.28220040284E-01  0.00000000000E+00 0.  1.
     999901    1    3    3    0    0 -0.12755255964E-01  0.64152361078E-01  0.10225660065E+00  0.88833250214E+00  0.88000000000E+00 0.  1.
        -11    1    4    4    0    0 -0.45961370757E-02 -0.23912965669E-01 -0.27483126975E-01  0.36722442626E-01  0.51100000000E-03 0.  1.
         11    1    4    4    0    0 -0.82215188277E-02 -0.32806074818E-01 -0.84108493610E-01  0.90655014948E-01  0.51100000000E-03 0. -1.
</event>
<event>
 8    1  0.5489035E+004  0.1043930E+01  0.7957747E-01            NaN
         13   -1    0    0    0    0  0.00000000000E+00  0.00000000000E+00  0.74505805969E-08  0.10566000000E+00  0.10566000000E+00 0.  1.
     999900   -1    0    0    0    0 -0.00000000000E+00 -0.00000000000E+00 -0.74505805969E-08  0.93827000000E+00  0.93827000000E+00 0.  1.
     999902    2    1    2    0    0 -0.18462745170E-01  0.13369678900E-01  0.41547758732E-02  0.10207592547E+01  0.10204962385E+01 0.  0.
     999903    2    3    3    0    0 -0.93163365611E-01  0.23265752781E-01  0.90442457301E-01  0.13333394581E+00  0.19426658953E-01 0.  0.
         14    1    1    2    0    0  0.18462745170E-01 -0.13369678900E-01 -0.41547758732E-02  0.23170745255E-01  0.00000000000E+00 0.  1.
     999901    1    3    3    0    0  0.74700620441E-01 -0.98960738810E-02 -0.86287681428E-01  0.88742530894E+00  0.88000000000E+00 0.  1.
        -11    1    4    4    0    0 -0.13032140256E-01  0.10669820419E-01  0.15919089126E-01  0.23181032484E-01  0.51100000000E-03 0. -1.
         11    1    4    4    0    0 -0.80131225355E-01  0.12595932362E-01  0.74523368175E-01  0.11015291333E+00  0.51100000000E-03 0.  1.
</event>
<event>
 8    1  0.5489035E+004  0.1043930E+01  0.7957747E-01            NaN
         13   -1    0    0    0    0  0.00000000000E+00  0.00000000000E+00  0.74505805969E-08  0.10566000000E+00  0.10566000000E+00 0.  1.
     999900   -1    0    0    0    0 -0.00000000000E+00 -0.00000000000E+00 -0.74505805969E-08  0.93827000000E+00  0.93827000000E+00 0. -1.
     999902    2    1    2    0    0 -0.16064807248E-01 -0.85695245558E-02 -0.14402133953E-01  0.10207149996E+01  0.10204509660E+01 0.  0.
     999903    2    3    3    0    0 -0.15604790621E-01  0.30030059961E-01 -0.12676679905E+00  0.13273078940E+00  0.20058093660E-01 0.  0.
         14    1    1    2    0    0  0.16064807248E-01  0.85695245558E-02  0.14402133953E-01  0.23215000440E-01  0.00000000000E+00 0.  1.
     999901    1    3    3    0    0 -0.46001662657E-03 -0.38599584517E-01  0.11236466509E+00  0.88798421016E+00  0.88000000000E+00 0.  1.
        -11    1    4    4    0    0 -0.19996458350E-01  0.20222883086E-01 -0.96739512179E-01  0.10083460559E+00  0.51100000000E-03 0. -1.
         11    1    4    4    0    0  0.43916677286E-02  0.98071768748E-02 -0.30027286869E-01  0.31896183806E-01  0.51100000000E-03 0.  1.
</event>
<event>
 8    1  0.5489035E+004  0.1043930E+01  0.7957747E-01            NaN
         13   -1    0    0    0    0  0.00000000000E+00  0.00000000000E+00  0.74505805969E-08  0.10566000000E+00  0.10566000000E+00 0.  1.
     999900   -1    0    0    0    0 -0.00000000000E+00 -0.00000000000E+00 -0.74505805969E-08  0.93827000000E+00  0.93827000000E+00 0.  1.
     999902    2    1    2    0    0  0.16283858185E-02 -0.24761607997E-01 -0.10873558301E-01  0.10168371386E+01  0.10164761400E+01 0.  0.
     999903    2    3    3    0    0  0.12106065262E-01  0.72176516450E-01  0.99261348684E-01  0.12462837405E+00  0.17983601743E-01 0.  0.
         14    1    1    2    0    0 -0.16283858185E-02  0.24761607997E-01  0.10873558301E-01  0.27092861441E-01  0.00000000000E+00 0.  1.
     999901    1    3    3    0    0 -0.10477679443E-01 -0.96938124446E-01 -0.11013490699E+00  0.89220876451E+00  0.88000000000E+00 0.  1.
        -11    1    4    4    0    0  0.27614078948E-02  0.24828622948E-01  0.20801060746E-01  0.32512015321E-01  0.51100000000E-03 0. -1.
         11    1    4    4    0    0  0.93446573671E-02  0.47347893502E-01  0.78460287938E-01  0.92116358724E-01  0.51100000000E-03 0.  1.
</event>
<event>
 8    1  0.5489035E+004  0.1043930E+01  0.7957747E-01            NaN
         13   -1    0    0    0    0  0.00000000000E+00  0.00000000000E+00  0.74505805969E-08  0.10566000000E+00  0.10566000000E+00 0.  1.
     999900   -1    0    0    0    0 -0.00000000000E+00 -0.00000000000E+00 -0.74505805969E-08  0.93827000000E+00  0.93827000000E+00 0. -1.
     999902    2    1    2    0    0 -0.11468458065E-01 -0.11148490579E-01 -0.18150091559E-01  0.10197382618E+01  0.10194512653E+01 0.  0.
     999903    2    3    3    0    0 -0.37264056935E-01 -0.12007954883E+00 -0.36132374830E-01  0.13246448734E+00  0.20822677738E-01 0.  0.
         14    1    1    2    0    0  0.11468458065E-01  0.11148490579E-01  0.18150091559E-01  0.24191738180E-01  0.00000000000E+00 0.  1.
     999901    1    3    3    0    0  0.25795598870E-01  0.10893105825E+00  0.17982283271E-01  0.88727377448E+00  0.88000000000E+00 0. -1.
        -11    1    4    4    0    0 -0.10159450048E-01 -0.66647566327E-01 -0.21827508411E-01  0.70864756875E-01  0.51100000000E-03 0.  1.
         11    1    4    4    0    0 -0.27104606887E-01 -0.53431982503E-01 -0.14304866420E-01  0.61599730462E-01  0.51100000000E-03 0. -1.
</event>
<event>
 8    1  0.5489035E+004  0.1043930E+01  0.7957747E-01            NaN
         13   -1    0    0    0    0  0.00000000000E+00  0.00000000000E+00  0.74505805969E-08  0.10566000000E+00  0.10566000000E+00 0.  1.
     999900   -1    0    0    0    0 -0.00000000000E+00 -0.00000000000E+00 -0.74505805969E-08  0.93827000000E+00  0.93827000000E+00 0.  1.
     999902    2    1    2    0    0 -0.50740958278E-02 -0.65741161711E-02 -0.21993851179E-01  0.10204205351E+01  0.10201496819E+01 0.  0.
     999903    2    3    3    0    0  0.12419564163E+00  0.21783244781E-01  0.21605261221E-01  0.12945718703E+00  0.19832014681E-01 0.  0.
         14    1    1    2    0    0  0.50740958278E-02  0.65741161711E-02  0.21993851179E-01  0.23509464936E-01  0.00000000000E+00 0.  1.
     999901    1    3    3    0    0 -0.12926973746E+00 -0.28357360952E-01 -0.43599112400E-01  0.89096334804E+00  0.88000000000E+00 0.  1.
        -11    1    4    4    0    0  0.20200953728E-01  0.28523564762E-02 -0.37606182120E-02  0.20751333435E-01  0.51100000000E-03 0. -1.
         11    1    4    4    0    0  0.10399468791E+00  0.18930888305E-01  0.25365879433E-01  0.10870585359E+00  0.51100000000E-03 0.  1.
</event>
<event>
 7    1  0.5489035E+004  0.1043930E+01  0.7957747E-01            NaN
         13   -1    0    0    0    0  0.00000000000E+00  0.00000000000E+00  0.74505805969E-08  0.10566000000E+00  0.10566000000E+00 0. -1.
     999900   -1    0    0    0    0 -0.00000000000E+00 -0.00000000000E+00 -0.74505805969E-08  0.93827000000E+00  0.93827000000E+00 0.  1.
     999903    2    1    2    0    0  0.63840553983E-01 -0.42845363701E-01  0.19333466994E-02  0.79232143414E-01  0.19043455490E-01 0.  0.
         14    1    1    2    0    0 -0.51467702971E-01 -0.18268352525E-01  0.58991113379E-01  0.80390351479E-01  0.00000000000E+00 0.  1.
     999901    1    1    2    0    0 -0.12372851012E-01  0.61113716227E-01 -0.60924460079E-01  0.88430750511E+00  0.88000000000E+00 0.  1.
        -11    1    3    3    0    0  0.49364041073E-01 -0.24512341423E-01 -0.35521247480E-02  0.55231713212E-01  0.51100000000E-03 0.  1.
         11    1    3    3    0    0  0.14476512910E-01 -0.18333022278E-01  0.54854714473E-02  0.24000430202E-01  0.51100000000E-03 0. -1.
</event>
<event>
 8    1  0.5489035E+004  0.1043930E+01  0.7957747E-01            NaN
         13   -1    0    0    0    0  0.00000000000E+00  0.00000000000E+00  0.74505805969E-08  0.10566000000E+00  0.10566000000E+00 0. -1.
     999900   -1    0    0    0    0 -0.00000000000E+00 -0.00000000000E+00 -0.74505805969E-08  0.93827000000E+00  0.93827000000E+00 0. -1.
     999902    2    1    2    0    0  0.22299402664E-01  0.82369972977E-02  0.24606091202E-02  0.10200309188E+01  0.10197509055E+01 0.  0.
     999903    2    3    3    0    0  0.67435659749E-01 -0.10466389865E+00  0.36123093683E-01  0.13103313656E+00  0.19044817979E-01 0.  0.
         14    1    1    2    0    0 -0.22299402664E-01 -0.82369972977E-02 -0.24606091202E-02  0.23899081173E-01  0.00000000000E+00 0.  1.
     999901    1    3    3    0    0 -0.45136257085E-01  0.11290089595E+00 -0.33662484563E-01  0.88899778227E+00  0.88000000000E+00 0. -1.
        -11    1    4    4    0    0  0.18412192039E-01 -0.25567719738E-01  0.87604326433E-03  0.31523732030E-01  0.51100000000E-03 0.  1.
         11    1    4    4    0    0  0.49023467710E-01 -0.79096178917E-01  0.35247050419E-01  0.99509404529E-01  0.51100000000E-03 0. -1.
</event>
<event>
 8    1  0.5489035E+004  0.1043930E+01  0.7957747E-01            NaN
         13   -1    0    0    0    0  0.00000000000E+00  0.00000000000E+00  0.74505805969E-08  0.10566000000E+00  0.10566000000E+00 0. -1.
     999900   -1    0    0    0    0 -0.00000000000E+00 -0.00000000000E+00 -0.74505805969E-08  0.93827000000E+00  0.93827000000E+00 0.  1.
     999902    2    1    2    0    0  0.12246903208E-01  0.11153233027E-01  0.16867575825E-01  0.10202890110E+01  0.10200150831E+01 0.  0.
     999903    2    3    3    0    0 -0.70101711764E-01  0.62568073161E-01  0.90398896209E-01  0.13190191339E+00  0.19928385531E-01 0.  0.
         14    1    1    2    0    0 -0.12246903208E-01 -0.11153233027E-01 -0.16867575825E-01  0.23640988967E-01  0.00000000000E+00 0.  1.
     999901    1    3    3    0    0  0.82348614972E-01 -0.51414840134E-01 -0.73531320384E-01  0.88838709764E+00  0.88000000000E+00 0.  1.
        -11    1    4    4    0    0 -0.45853825800E-01  0.27750761993E-01  0.51828569758E-01  0.74559639859E-01  0.51100000000E-03 0.  1.
         11    1    4    4    0    0 -0.24247885964E-01  0.34817311167E-01  0.38570326451E-01  0.57342273535E-01  0.51100000000E-03 0. -1.
</event>
<event>
 7    1  0.5489035E+004  0.1043930E+01  0.7957747E-01            NaN
         13   -1    0    0    0    0  0.00000000000E+00  0.00000000000E+00  0.74505805969E-08  0.10566000000E+00  0.10566000000E+00 0.  1.
     999900   -1    0    0    0    0 -0.00000000000E+00 -0.00000000000E+00 -0.74505805969E-08  0.93827000000E+00  0.93827000000E+00 0.  1.
     999902    2    1    2    0    0 -0.23453730354E-01  0.96637416067E-03  0.12540066150E-02  0.10204228973E+01  0.10201520991E+01 0.  0.
         14    1    1    2    0    0  0.23453730354E-01 -0.96637416067E-03 -0.12540066150E-02  0.23507102738E-01  0.00000000000E+00 0. -1.
     999901    1    3    3    0    0  0.13710832101E-01 -0.11607846953E+00 -0.27388808672E-01  0.88815108222E+00  0.88000000000E+00 0.  1.
        -11    1    3    3    0    0 -0.12398086928E-01  0.48395477296E-01 -0.80165479240E-02  0.50600009326E-01  0.51100000000E-03 0.  1.
         11    1    3    3    0    0 -0.24766475528E-01  0.68649366399E-01  0.36659363211E-01  0.81671805717E-01  0.51100000000E-03 0. -1.
</event>
<event>
 8    1  0.5489035E+004  0.1043930E+01  0.7957747E-01            NaN
         13   -1    0    0    0    0  0.00000000000E+00  0.00000000000E+00  0.74505805969E-08  0.10566000000E+00  0.10566000000E+00 0. -1.
     999900   -1    0    0    0    0 -0.00000000000E+00 -0.00000000000E+00 -0.74505805969E-08  0.93827000000E+00  0.93827000000E+00 0.  1.
     999902    2    1    2    0    0  0.62272171607E-03  0.86801068981E-02 -0.22204206381E-01  0.10200813351E+01  0.10198025158E+01 0.  0.
     999903    2    3    3    0    0  0.30160160105E-01 -0.11261713056E+00  0.49381218701E-01  0.12839195352E+00  0.21301070754E-01 0.  0.
         14    1    1    2    0    0 -0.62272171607E-03 -0.86801068981E-02  0.22204206381E-01  0.23848664934E-01  0.00000000000E+00 0. -1.
     999901    1    3    3    0    0 -0.29537438389E-01  0.12129723746E+00 -0.71585425083E-01  0.89168938155E+00  0.88000000000E+00 0. -1.
        -11    1    4    4    0    0  0.83451663162E-02 -0.49387226507E-01  0.11036372594E-01  0.51291349991E-01  0.51100000000E-03 0. -1.
         11    1    4    4    0    0  0.21814993788E-01 -0.63229904051E-01  0.38344846107E-01  0.77100603527E-01  0.51100000000E-03 0.  1.
</event>
<event>
 8    1  0.5489035E+004  0.1043930E+01  0.7957747E-01            NaN
         13   -1    0    0    0    0  0.00000000000E+00  0.00000000000E+00  0.74505805969E-08  0.10566000000E+00  0.10566000000E+00 0.  1.
     999900   -1    0    0    0    0 -0.00000000000E+00 -0.00000000000E+00 -0.74505805969E-08  0.93827000000E+00  0.93827000000E+00 0. -1.
     999902    2    1    2    0    0 -0.76513728347E-02 -0.11851799258E-01  0.18727099065E-01  0.10204840432E+01  0.10202146683E+01 0.  0.
     999903    2    3    3    0    0 -0.12042377136E-01 -0.33485655850E-01 -0.12234558642E+00  0.12897475705E+00  0.19993434999E-01 0.  0.
         14    1    1    2    0    0  0.76513728347E-02  0.11851799258E-01 -0.18727099065E-01  0.23445956822E-01  0.00000000000E+00 0. -1.
     999901    1    3    3    0    0  0.43910043017E-02  0.21633856592E-01  0.14107268549E+00  0.89150928613E+00  0.88000000000E+00 0.  1.
        -11    1    4    4    0    0 -0.16457426460E-01 -0.27106847884E-01 -0.82677877721E-01  0.88552361196E-01  0.51100000000E-03 0. -1.
         11    1    4    4    0    0  0.44150493234E-02 -0.63788079655E-02 -0.39667708702E-01  0.40422395850E-01  0.51100000000E-03 0.  1.
</event>
<event>
 8    1  0.5489035E+004  0.1043930E+01  0.7957747E-01            NaN
         13   -1    0    0    0    0  0.00000000000E+00  0.00000000000E+00  0.74505805969E-08  0.10566000000E+00  0.10566000000E+00 0. -1.
     999900   -1    0    0    0    0 -0.00000000000E+00 -0.00000000000E+00 -0.74505805969E-08  0.93827000000E+00  0.93827000000E+00 0.  1.
     999902    2    1    2    0    0  0.63464952671E-02  0.15173781259E-01  0.17263414962E-01  0.10200857735E+01  0.10198070593E+01 0.  0.
     999903    2    3    3    0    0 -0.68082175972E-01  0.11011267998E+00  0.14964530657E-01  0.13185252350E+00  0.20029123701E-01 0.  0.
         14    1    1    2    0    0 -0.63464952671E-02 -0.15173781259E-01 -0.17263414962E-01  0.23844226472E-01  0.00000000000E+00 0.  1.
     999901    1    3    3    0    0  0.74428671239E-01 -0.94938898725E-01  0.22988843045E-02  0.88823325003E+00  0.88000000000E+00 0. -1.
        -11    1    4    4    0    0 -0.48941707034E-02  0.86555876985E-02  0.67811347802E-02  0.12046452390E-01  0.51100000000E-03 0.  1.
         11    1    4    4    0    0 -0.63188005268E-01  0.10145709229E+00  0.81833958771E-02  0.11980607111E+00  0.51100000000E-03 0. -1.
</event>
<event>
 8    1  0.5489035E+004  0.1043930E+01  0.7957747E-01            NaN
         13   -1    0    0    0    0  0.00000000000E+00  0.00000000000E+00  0.74505805969E-08  0.10566000000E+00  0.10566000000E+00 0.  1.
     999900   -1    0    0    0    0 -0.00000000000E+00 -0.00000000000E+00 -0.74505805969E-08  0.93827000000E+00  0.93827000000E+00 0.  1.
     999902    2    1    2    0    0 -0.12598777239E-01 -0.17614833014E-01 -0.84559392498E-02  0.10206810336E+01  0.10204162180E+01 0.  0.
     999903    2    3    3    0    0  0.47106571468E-01  0.10802679203E+00 -0.48478578080E-01  0.12885573780E+00  0.19100046104E-01 0.  0.
         14    1    1    2    0    0  0.12598777239E-01  0.17614833014E-01  0.84559392498E-02  0.23248966399E-01  0.00000000000E+00 0. -1.
     999901    1    3    3    0    0 -0.59705348708E-01 -0.12564162504E+00  0.40022638830E-01  0.89182529580E+00  0.88000000000E+00 0.  1.
        -11    1    4    4    0    0  0.16855451413E-01  0.36979264715E-01 -0.71382870410E-02  0.41264858222E-01  0.51100000000E-03 0.  1.
         11    1    4    4    0    0  0.30251120055E-01  0.71047527311E-01 -0.41340291039E-01  0.87590879581E-01  0.51100000000E-03 0. -1.
</event>
<event>
 8    1  0.5489035E+004  0.1043930E+01  0.7957747E-01            NaN
         13   -1    0    0    0    0  0.00000000000E+00  0.00000000000E+00  0.74505805969E-08  0.10566000000E+00  0.10566000000E+00 0.  1.
     999900   -1    0    0    0    0 -0.00000000000E+00 -0.00000000000E+00 -0.74505805969E-08  0.93827000000E+00  0.93827000000E+00 0.  1.
     999902    2    1    2    0    0  0.15607547912E-01 -0.14134756165E-01  0.11185906271E-01  0.10200865233E+01  0.10198078268E+01 0.  0.
     999903    2    3    3    0    0 -0.54677528972E-01  0.98562435577E-01 -0.56268393564E-01  0.12756720604E+00  0.20076704432E-01 0.  0.
         14    1    1    2    0    0 -0.15607547912E-01  0.14134756165E-01 -0.11185906271E-01  0.23843476734E-01  0.00000000000E+00 0. -1.
     999901    1    3    3    0    0  0.70285076884E-01 -0.11269719174E+00  0.67454299834E-01  0.89251931723E+00  0.88000000000E+00 0. -1.
        -11    1    4    4    0    0 -0.13570799855E-01  0.26120134263E-01 -0.24915271455E-01  0.38567601628E-01  0.51100000000E-03 0.  1.
         11    1    4    4    0    0 -0.41106729117E-01  0.72442301313E-01 -0.31353122109E-01  0.88999604411E-01  0.51100000000E-03 0. -1.
</event>
<event>
 8    1  0.5489035E+004  0.1043930E+01  0.7957747E-01            NaN
         13   -1    0    0    0    0  0.00000000000E+00  0.00000000000E+00  0.74505805969E-08  0.10566000000E+00  0.10566000000E+00 0. -1.
     999900   -1    0    0    0    0 -0.00000000000E+00 -0.00000000000E+00 -0.74505805969E-08  0.93827000000E+00  0.93827000000E+00 0.  1.
     999902    2    1    2    0    0  0.14637165757E-01  0.16915310937E-01  0.61768304776E-02  0.10207238025E+01  0.10204599715E+01 0.  0.
     999903    2    3    3    0    0 -0.95513856637E-01  0.22462327115E-02  0.86174083050E-01  0.13013523872E+00  0.19526018475E-01 0.  0.
         14    1    1    2    0    0 -0.14637165757E-01 -0.16915310937E-01 -0.61768304776E-02  0.23206197454E-01  0.00000000000E+00 0.  1.
     999901    1    3    3    0    0  0.11015102239E+00  0.14669078225E-01 -0.79997252572E-01  0.89058856382E+00  0.88000000000E+00 0.  1.
        -11    1    4    4    0    0 -0.58339932305E-01  0.19062596996E-02  0.64942252309E-01  0.87320895456E-01  0.51100000000E-03 0. -1.
         11    1    4    4    0    0 -0.37173924332E-01  0.33997301193E-03  0.21231830741E-01  0.42814343269E-01  0.51100000000E-03 0.  1.
</event>
<event>
 8    1  0.5489035E+004  0.1043930E+01  0.7957747E-01            NaN
         13   -1    0    0    0    0  0.00000000000E+00  0.00000000000E+00  0.74505805969E-08  0.10566000000E+00  0.10566000000E+00 0.  1.
     999900   -1    0    0    0    0 -0.00000000000E+00 -0.00000000000E+00 -0.74505805969E-08  0.93827000000E+00  0.93827000000E+00 0.  1.
     999902    2    1    2    0    0  0.19585385665E-01 -0.24692166374E-02  0.12547497823E-01  0.10205393167E+01  0.10202712252E+01 0.  0.
     999903    2    3    3    0    0 -0.10171997619E+00  0.73812487508E-01  0.21033656617E-01  0.12890828087E+00  0.19485720383E-01 0.  0.
         14    1    1    2    0    0 -0.19585385665E-01  0.24692166374E-02 -0.12547497823E-01  0.23390683275E-01  0.00000000000E+00 0.  1.
     999901    1    3    3    0    0  0.12130536186E+00 -0.76281704145E-01 -0.84861587938E-02  0.89163103585E+00  0.88000000000E+00 0.  1.
        -11    1    4    4    0    0 -0.50427679097E-01  0.47168280799E-01  0.16049342072E-01  0.70891748706E-01  0.51100000000E-03 0. -1.
         11    1    4    4    0    0 -0.51292297094E-01  0.26644206708E-01  0.49843145447E-02  0.58016532168E-01  0.51100000000E-03 0.  1.
</event>
<event>
 8    1  0.5489035E+004  0.1043930E+01  0.7957747E-01            NaN
         13   -1    0    0    0    0  0.00000000000E+00  0.00000000000E+00  0.74505805969E-08  0.10566000000E+00  0.10566000000E+00 0. -1.
     999900   -1    0    0    0    0 -0.00000000000E+00 -0.00000000000E+00 -0.74505805969E-08  0.93827000000E+00  0.93827000000E+00 0. -1.
     999902    2    1    2    0    0 -0.10799917291E-01 -0.21396165578E-01 -0.30394282420E-02  0.10197706904E+01  0.10194844721E+01 0.  0.
     999903    2    3    3    0    0 -0.63988806373E-01 -0.10374513250E+00  0.49703517370E-01  0.13275759662E+00  0.17219755058E-01 0.  0.
         14    1    1    2    0    0  0.10799917291E-01  0.21396165578E-01  0.30394282420E-02  0.24159309571E-01  0.00000000000E+00 0. -1.
     999901    1    3    3    0    0  0.53188889082E-01  0.82348966918E-01 -0.52742945612E-01  0.88701309381E+00  0.88000000000E+00 0. -1.
        -11    1    4    4    0    0 -0.35765772682E-01 -0.50459298906E-01  0.16932281183E-01  0.64127175274E-01  0.51100000000E-03 0.  1.
         11    1    4    4    0    0 -0.28223033691E-01 -0.53285833590E-01  0.32771236187E-01  0.68630421347E-01  0.51100000000E-03 0. -1.
</event>
<event>
 8    1  0.5489035E+004  0.1043930E+01  0.7957747E-01            NaN
         13   -1    0    0    0    0  0.00000000000E+00  0.00000000000E+00  0.74505805969E-08  0.10566000000E+00  0.10566000000E+00 0.  1.
     999900   -1    0    0    0    0 -0.00000000000E+00 -0.00000000000E+00 -0.74505805969E-08  0.93827000000E+00  0.93827000000E+00 0. -1.
     999902    2    1    2    0    0 -0.17187277055E-01 -0.13813357689E-01 -0.88861977471E-02  0.10201565725E+01  0.10198795304E+01 0.  0.
     999903    2    3    3    0    0 -0.50267187020E-01  0.11537683891E+00  0.23274326638E-01  0.12952831862E+00  0.19932034426E-01 0.  0.
         14    1    1    2    0    0  0.17187277055E-01  0.13813357689E-01  0.88861977471E-02  0.23773427469E-01  0.00000000000E+00 0.  1.
     999901    1    3    3    0    0  0.33079909965E-01 -0.12919019660E+00 -0.32160524385E-01  0.89062825391E+00  0.88000000000E+00 0.  1.
        -11    1    4    4    0    0 -0.38271322903E-01  0.64413588817E-01  0.10767758132E-01  0.75696831620E-01  0.51100000000E-03 0.  1.
         11    1    4    4    0    0 -0.11995864118E-01  0.50963250090E-01  0.12506568506E-01  0.53831486998E-01  0.51100000000E-03 0. -1.
</event>
<event>
 8    1  0.5489035E+004  0.1043930E+01  0.7957747E-01            NaN
         13   -1    0    0    0    0  0.00000000000E+00  0.00000000000E+00  0.74505805969E-08  0.10566000000E+00  0.10566000000E+00 0.  1.
     999900   -1    0    0    0    0 -0.00000000000E+00 -0.00000000000E+00 -0.74505805969E-08  0.93827000000E+00  0.93827000000E+00 0.  1.
     999902    2    1    2    0    0 -0.76597464149E-02 -0.13163319713E-01  0.18227050941E-01  0.10201777351E+01  0.10199011919E+01 0.  0.
     999903    2    3    3    0    0 -0.45448705763E-01 -0.12136548002E+00 -0.15731459229E-01  0.13209615477E+00  0.20168061336E-01 0.  0.
         14    1    1    2    0    0  0.76597464149E-02  0.13163319713E-01 -0.18227050941E-01  0.23752264882E-01  0.00000000000E+00 0. -1.
     999901    1    3    3    0    0  0.37788959349E-01  0.10820216031E+00  0.33958510170E-01  0.88808158035E+00  0.88000000000E+00 0. -1.
        -11    1    4    4    0    0 -0.33513323815E-01 -0.82494565105E-01 -0.16402517939E-02  0.89058675557E-01  0.51100000000E-03 0. -1.
         11    1    4    4    0    0 -0.11935381948E-01 -0.38870914919E-01 -0.14091207435E-01  0.43037479211E-01  0.51100000000E-03 0.  1.
</event>
<event>
 8    1  0.5489035E+004  0.1043930E+01  0.7957747E-01            NaN
         13   -1    0    0    0    0  0.00000000000E+00  0.00000000000E+00  0.74505805969E-08  0.10566000000E+00  0.10566000000E+00 0. -1.
     999900   -1    0    0    0    0 -0.00000000000E+00 -0.00000000000E+00 -0.74505805969E-08  0.93827000000E+00  0.93827000000E+00 0.  1.
     999902    2    1    2    0    0  0.11722148464E-01  0.20743404413E-01  0.17220688615E-02  0.10200414439E+01  0.10197616801E+01 0.  0.
     999903    2    3    3    0    0  0.53711088294E-01 -0.36678646217E-02  0.11783201826E+00  0.13108671982E+00  0.20025217838E-01 0.  0.
         14    1    1    2    0    0 -0.11722148464E-01 -0.20743404413E-01 -0.17220688615E-02  0.23888556097E-01  0.00000000000E+00 0.  1.
     999901    1    3    3    0    0 -0.41988939830E-01  0.24411269035E-01 -0.11610994940E+00  0.88895472408E+00  0.88000000000E+00 0.  1.
        -11    1    4    4    0    0  0.23674947724E-01 -0.98396083558E-02  0.66743139898E-01  0.71499852355E-01  0.51100000000E-03 0.  1.
         11    1    4    4    0    0  0.30036140570E-01  0.61717437341E-02  0.51088878359E-01  0.59586867462E-01  0.51100000000E-03 0. -1.
</event>
<event>
 8    1  0.5489035E+004  0.1043930E+01  0.7957747E-01            NaN
         13   -1    0    0    0    0  0.00000000000E+00  0.00000000000E+00  0.74505805969E-08  0.10566000000E+00  0.10566000000E+00 0.  1.
     999900   -1    0    0    0    0 -0.00000000000E+00 -0.00000000000E+00 -0.74505805969E-08  0.93827000000E+00  0.93827000000E+00 0. -1.
     999902    2    1    2    0    0  0.36273573202E-02  0.83486977503E-02  0.25457468613E-01  0.10168940761E+01  0.10165346136E+01 0.  0.
     999903    2    3    3    0    0 -0.86453563999E-01  0.47433845411E-01 -0.75311064549E-01  0.12571703504E+00  0.20219496489E-01 0.  0.
         14    1    1    2    0    0 -0.36273573202E-02 -0.83486977503E-02 -0.25457468613E-01  0.27035923943E-01  0.00000000000E+00 0. -1.
     999901    1    3    3    0    0  0.90080921319E-01 -0.39085147660E-01  0.10076853316E+00  0.89117704101E+00  0.88000000000E+00 0.  1.
        -11    1    4    4    0    0 -0.30754741389E-01  0.88770877719E-02 -0.16549527700E-01  0.36038934409E-01  0.51100000000E-03 0. -1.
         11    1    4    4    0    0 -0.55698822609E-01  0.38556757639E-01 -0.58761536849E-01  0.89678100635E-01  0.51100000000E-03 0.  1.
</event>
<event>
 8    1  0.5489035E+004  0.1043930E+01  0.7957747E-01            NaN
         13   -1    0    0    0    0  0.00000000000E+00  0.00000000000E+00  0.74505805969E-08  0.10566000000E+00  0.10566000000E+00 0.  1.
     999900   -1    0    0    0    0 -0.00000000000E+00 -0.00000000000E+00 -0.74505805969E-08  0.93827000000E+00  0.93827000000E+00 0. -1.
     999902    2    1    2    0    0  0.19381462372E-01  0.13762861563E-01  0.48709067295E-02  0.10196651453E+01  0.10193763904E+01 0.  0.
     999903    2    3    3    0    0  0.53086257955E-01  0.77686179584E-01  0.91137960292E-01  0.13249875257E+00  0.19912266167E-01 0.  0.
         14    1    1    2    0    0 -0.19381462372E-01 -0.13762861563E-01 -0.48709067295E-02  0.24264854717E-01  0.00000000000E+00 0. -1.
     999901    1    3    3    0    0 -0.33704795583E-01 -0.63923318022E-01 -0.86267053562E-01  0.88716639271E+00  0.88000000000E+00 0. -1.
        -11    1    4    4    0    0  0.18924241978E-01  0.13919320117E-01  0.17745503696E-01  0.29445516287E-01  0.51100000000E-03 0. -1.
         11    1    4    4    0    0  0.34162015977E-01  0.63766859467E-01  0.73392456595E-01  0.10305323628E+00  0.51100000000E-03 0.  1.
</event>
<event>
 8    1  0.5489035E+004  0.1043930E+01  0.7957747E-01            NaN
         13   -1    0    0    0    0  0.00000000000E+00  0.00000000000E+00  0.74505805969E-08  0.10566000000E+00  0.10566000000E+00 0.  1.
     999900   -1    0    0    0    0 -0.00000000000E+00 -0.00000000000E+00 -0.74505805969E-08  0.93827000000E+00  0.93827000000E+00 0.  1.
     999902    2    1    2    0    0 -0.27846470202E-02  0.17426593084E-02 -0.20790364191E-01  0.10228817135E+01  0.10226651307E+01 0.  0.
     999903    2    3    3    0    0 -0.10488565836E+00 -0.33961449845E-01  0.69224413639E-01  0.13170156330E+00  0.19972504230E-01 0.  0.
         14    1    1    2    0    0  0.27846470202E-02 -0.17426593084E-02  0.20790364191E-01  0.21048286479E-01  0.00000000000E+00 0.  1.
     999901    1    3    3    0    0  0.10210101134E+00  0.35704109154E-01 -0.90014777830E-01  0.89118015023E+00  0.88000000000E+00 0.  1.
        -11    1    4    4    0    0 -0.54551059935E-01 -0.24606774410E-01  0.45995152724E-01  0.75479312941E-01  0.51100000000E-03 0.  1.
         11    1    4    4    0    0 -0.50334598427E-01 -0.93546754352E-02  0.23229260915E-01  0.56222250355E-01  0.51100000000E-03 0. -1.
</event>
<event>
 8    1  0.5489035E+004  0.1043930E+01  0.7957747E-01            NaN
         13   -1    0    0    0    0  0.00000000000E+00  0.00000000000E+00  0.74505805969E-08  0.10566000000E+00  0.10566000000E+00 0. -1.
     999900   -1    0    0    0    0 -0.00000000000E+00 -0.00000000000E+00 -0.74505805969E-08  0.93827000000E+00  0.93827000000E+00 0.  1.
     999902    2    1    2    0    0  0.89391712613E-02  0.12378567180E-01 -0.19325320233E-01  0.10193006332E+01  0.10190030300E+01 0.  0.
     999903    2    3    3    0    0  0.13402917301E-01 -0.50159009572E-01  0.11422698652E+00  0.12701867539E+00  0.19757910193E-01 0.  0.
         14    1    1    2    0    0 -0.89391712613E-02 -0.12378567180E-01  0.19325320233E-01  0.24629366829E-01  0.00000000000E+00 0. -1.
     999901    1    3    3    0    0 -0.44637460393E-02  0.62537576752E-01 -0.13355230676E+00  0.89228195778E+00  0.88000000000E+00 0.  1.
        -11    1    4    4    0    0  0.14754386911E-01 -0.38876243465E-01  0.70636305102E-01  0.81968304597E-01  0.51100000000E-03 0.  1.
         11    1    4    4    0    0 -0.13514696109E-02 -0.11282766108E-01  0.43590681422E-01  0.45050370797E-01  0.51100000000E-03 0. -1.
</event>
<event>
 8    1  0.5489035E+004  0.1043930E+01  0.7957747E-01            NaN
         13   -1    0    0    0    0  0.00000000000E+00  0.00000000000E+00  0.74505805969E-08  0.10566000000E+00  0.10566000000E+00 0. -1.
     999900   -1    0    0    0    0 -0.00000000000E+00 -0.00000000000E+00 -0.74505805969E-08  0.93827000000E+00  0.93827000000E+00 0. -1.
     999902    2    1    2    0    0 -0.17937677052E-01 -0.14681940989E-01 -0.52313137508E-02  0.10201668711E+01  0.10198900719E+01 0.  0.
     999903    2    3    3    0    0 -0.17778684141E-01  0.52087879333E-01  0.11544973720E+00  0.12942439981E+00  0.19819300307E-01 0.  0.
         14    1    1    2    0    0  0.17937677052E-01  0.14681940989E-01  0.52313137508E-02  0.23763128851E-01  0.00000000000E+00 0.  1.
     999901    1    3    3    0    0 -0.15899291076E-03 -0.66769820323E-01 -0.12068105095E+00  0.89074247134E+00  0.88000000000E+00 0. -1.
        -11    1    4    4    0    0 -0.84692274428E-02  0.29906593595E-01  0.85689646382E-01  0.91154312964E-01  0.51100000000E-03 0. -1.
         11    1    4    4    0    0 -0.93094566981E-02  0.22181285739E-01  0.29760090816E-01  0.38270086849E-01  0.51100000000E-03 0.  1.
</event>
<event>
 8    1  0.5489035E+004  0.1043930E+01  0.7957747E-01            NaN
         13   -1    0    0    0    0  0.00000000000E+00  0.00000000000E+00  0.74505805969E-08  0.10566000000E+00  0.10566000000E+00 0. -1.
     999900   -1    0    0    0    0 -0.00000000000E+00 -0.00000000000E+00 -0.74505805969E-08  0.93827000000E+00  0.93827000000E+00 0. -1.
     999902    2    1    2    0    0  0.63993384271E-02  0.12642688313E-02  0.22470913278E-01  0.10205314562E+01  0.10202631824E+01 0.  0.
     999903    2    3    3    0    0 -0.44756118722E-01 -0.10578628756E+00  0.61278338025E-01  0.13172173606E+00  0.20043259202E-01 0.  0.
         14    1    1    2    0    0 -0.63993384271E-02 -0.12642688313E-02 -0.22470913278E-01  0.23398543791E-01  0.00000000000E+00 0.  1.
     999901    1    3    3    0    0  0.51155457149E-01  0.10705055640E+00 -0.38807424747E-01  0.88880972015E+00  0.88000000000E+00 0.  1.
        -11    1    4    4    0    0 -0.15588056521E-02 -0.94243409906E-02 -0.12142652123E-03  0.95668147033E-02  0.51100000000E-03 0.  1.
         11    1    4    4    0    0 -0.43197313070E-01 -0.96361946573E-01  0.61399764546E-01  0.12215492135E+00  0.51100000000E-03 0. -1.
</event>
<event>
 8    1  0.5489035E+004  0.1043930E+01  0.7957747E-01            NaN
         13   -1    0    0    0    0  0.00000000000E+00  0.00000000000E+00  0.74505805969E-08  0.10566000000E+00  0.10566000000E+00 0. -1.
     999900   -1    0    0    0    0 -0.00000000000E+00 -0.00000000000E+00 -0.74505805969E-08  0.93827000000E+00  0.93827000000E+00 0.  1.
     999902    2    1    2    0    0 -0.22232955815E-01  0.75881023776E-02 -0.89557824571E-02  0.10187886066E+01  0.10184783431E+01 0.  0.
     999903    2    3    3    0    0 -0.14879711134E-01  0.11892114060E+00  0.46595651094E-01  0.13000568746E+00  0.19148905597E-01 0.  0.
         14    1    1    2    0    0  0.22232955815E-01 -0.75881023776E-02  0.89557824571E-02  0.25141393386E-01  0.00000000000E+00 0. -1.
     999901    1    3    3    0    0 -0.73532446817E-02 -0.11133303823E+00 -0.55551433551E-01  0.88878291915E+00  0.88000000000E+00 0.  1.
        -11    1    4    4    0    0 -0.32571344178E-02  0.48358712896E-01  0.93192247467E-02  0.49358718667E-01  0.51100000000E-03 0. -1.
         11    1    4    4    0    0 -0.11622576716E-01  0.70562427707E-01  0.37276426347E-01  0.80646968794E-01  0.51100000000E-03 0.  1.
</event>
<event>
 8    1  0.5489035E+004  0.1043930E+01  0.7957747E-01            NaN
         13   -1    0    0    0    0  0.00000000000E+00  0.00000000000E+00  0.74505805969E-08  0.10566000000E+00  0.10566000000E+00 0.  1.
     999900   -1    0    0    0    0 -0.00000000000E+00 -0.00000000000E+00 -0.74505805969E-08  0.93827000000E+00  0.93827000000E+00 0.  1.
     999902    2    1    2    0    0  0.80897200684E-02  0.10709071169E-01  0.19732998765E-01  0.10200654024E+01  0.10197862062E+01 0.  0.
     999903    2    3    3    0    0 -0.11424516495E+00 -0.42828912559E-01  0.39351254108E-01  0.12977499155E+00  0.20168137413E-01 0.  0.
         14    1    1    2    0    0 -0.80897200684E-02 -0.10709071169E-01 -0.19732998765E-01  0.23864597552E-01  0.00000000000E+00 0. -1.
     999901    1    3    3    0    0  0.12233488502E+00  0.53537983728E-01 -0.19618255343E-01  0.89029041090E+00  0.88000000000E+00 0. -1.
        -11    1    4    4    0    0 -0.41538136164E-01 -0.20695854243E-01  0.23953401346E-01  0.52227978095E-01  0.51100000000E-03 0. -1.
         11    1    4    4    0    0 -0.72707028784E-01 -0.22133058315E-01  0.15397852762E-01  0.77547013455E-01  0.51100000000E-03 0.  1.
</event>
<event>
 8    1  0.5489035E+004  0.1043930E+01  0.7957747E-01            NaN
         13   -1    0    0    0    0  0.00000000000E+00  0.00000000000E+00  0.74505805969E-08  0.10566000000E+00  0.10566000000E+00 0.  1.
     999900   -1    0    0    0    0 -0.00000000000E+00 -0.00000000000E+00 -0.74505805969E-08  0.93827000000E+00  0.93827000000E+00 0.  1.
     999902    2    1    2    0    0 -0.18764282017E-01 -0.56221378330E-02 -0.17560406027E-01  0.10176226897E+01  0.10172825881E+01 0.  0.
     999903    2    3    3    0    0 -0.10159356700E+00  0.84537219550E-02 -0.80426550689E-01  0.13138853759E+00  0.20044936649E-01 0.  0.
         14    1    1    2    0    0  0.18764282017E-01  0.56221378330E-02  0.17560406027E-01  0.26307310263E-01  0.00000000000E+00 0. -1.
     999901    1    3    3    0    0  0.82829284981E-01 -0.14075859788E-01  0.62866144663E-01  0.88623415214E+00  0.88000000000E+00 0. -1.
        -11    1    4    4    0    0 -0.11226105776E-01  0.34128060094E-02 -0.17797495874E-01  0.21323336422E-01  0.51100000000E-03 0. -1.
         11    1    4    4    0    0 -0.90367461222E-01  0.50409159457E-02 -0.62629054815E-01  0.11006520117E+00  0.51100000000E-03 0.  1.
</event>
<event>
 8    1  0.5489035E+004  0.1043930E+01  0.7957747E-01            NaN
         13   -1    0    0    0    0  0.00000000000E+00  0.00000000000E+00  0.74505805969E-08  0.10566000000E+00  0.10566000000E+00 0. -1.
     999900   -1    0    0    0    0 -0.00000000000E+00 -0.00000000000E+00 -0.74505805969E-08  0.93827000000E+00  0.93827000000E+00 0.  1.
     999902    2    1    2    0    0  0.12833495678E-01 -0.85248648403E-03 -0.13684338878E-01  0.10251500512E+01  0.10249780198E+01 0.  0.
     999903    2    3    3    0    0 -0.56558870811E-01  0.11783708904E+00 -0.23113517479E-01  0.13442482691E+00  0.21244151608E-01 0.  0.
         14    1    1    2    0    0 -0.12833495678E-01  0.85248648403E-03  0.13684338878E-01  0.18779948751E-01  0.00000000000E+00 0. -1.
     999901    1    3    3    0    0  0.69392366489E-01 -0.11868957553E+00  0.94291786003E-02  0.89072522434E+00  0.88000000000E+00 0.  1.
        -11    1    4    4    0    0 -0.47035936022E-01  0.10158549194E+00 -0.27062975710E-01  0.11517229366E+00  0.51100000000E-03 0. -1.
         11    1    4    4    0    0 -0.95229347892E-02  0.16251597102E-01  0.39494582317E-02  0.19252533254E-01  0.51100000000E-03 0.  1.
</event>
<event>
 8    1  0.5489035E+004  0.1043930E+01  0.7957747E-01            NaN
         13   -1    0    0    0    0  0.00000000000E+00  0.00000000000E+00  0.74505805969E-08  0.10566000000E+00  0.10566000000E+00 0.  1.
     999900   -1    0    0    0    0 -0.00000000000E+00 -0.00000000000E+00 -0.74505805969E-08  0.93827000000E+00  0.93827000000E+00 0.  1.
     999902    2    1    2    0    0  0.64653404117E-02 -0.18755821622E-01  0.12393796182E-01  0.10205379574E+01  0.10202698344E+01 0.  0.
     999903    2    3    3    0    0  0.77766278285E-01 -0.44528364181E-01  0.96682907223E-01  0.13326533759E+00  0.19537051961E-01 0.  0.
         14    1    1    2    0    0 -0.64653404117E-02  0.18755821622E-01 -0.12393796182E-01  0.23392042561E-01  0.00000000000E+00 0. -1.
     999901    1    3    3    0    0 -0.71300937874E-01  0.25772542558E-01 -0.84289111041E-01  0.88727261985E+00  0.88000000000E+00 0.  1.
        -11    1    4    4    0    0  0.19615917560E-01 -0.67045464609E-02  0.33695136087E-01  0.39564611484E-01  0.51100000000E-03 0. -1.
         11    1    4    4    0    0  0.58150360725E-01 -0.37823817720E-01  0.62987771136E-01  0.93700726107E-01  0.51100000000E-03 0.  1.
</event>
<event>
 8    1  0.5489035E+004  0.1043930E+01  0.7957747E-01            NaN
         13   -1    0    0    0    0  0.00000000000E+00  0.00000000000E+00  0.74505805969E-08  0.10566000000E+00  0.10566000000E+00 0. -1.
     999900   -1    0    0    0    0 -0.00000000000E+00 -0.00000000000E+00 -0.74505805969E-08  0.93827000000E+00  0.93827000000E+00 0. -1.
     999902    2    1    2    0    0  0.45393286169E-03  0.22717903467E-01 -0.33265533243E-02  0.10209653500E+01  0.10207070445E+01 0.  0.
     999903    2    3    3    0    0 -0.10900740177E+00 -0.63847759260E-01  0.21741420941E-01  0.12961592296E+00  0.19195001880E-01 0.  0.
         14    1    1    2    0    0 -0.45393286169E-03 -0.22717903467E-01  0.33265533243E-02  0.22964650008E-01  0.00000000000E+00 0. -1.
     999901    1    3    3    0    0  0.10946133463E+00  0.86565662727E-01 -0.25067974265E-01  0.89134942703E+00  0.88000000000E+00 0. -1.
        -11    1    4    4    0    0 -0.97580574036E-01 -0.49476144813E-01  0.18958586636E-01  0.11103849091E+00  0.51100000000E-03 0.  1.
         11    1    4    4    0    0 -0.11426827730E-01 -0.14371614447E-01  0.27828343054E-02  0.18577432050E-01  0.51100000000E-03 0. -1.
</event>
<event>
 8    1  0.5489035E+004  0.1043930E+01  0.7957747E-01            NaN
         13   -1    0    0    0    0  0.00000000000E+00  0.00000000000E+00  0.74505805969E-08  0.10566000000E+00  0.10566000000E+00 0.  1.
     999900   -1    0    0    0    0 -0.00000000000E+00 -0.00000000000E+00 -0.74505805969E-08  0.93827000000E+00  0.93827000000E+00 0. -1.
     999902    2    1    2    0    0  0.23268752427E-01 -0.36574943402E-02  0.87394032305E-02  0.10188065195E+01  0.10184967034E+01 0.  0.
     999903    2    3    3    0    0  0.11371588391E+00  0.34792755877E-01 -0.51001375792E-01  0.13132239793E+00  0.22418602752E-01 0.  0.
         14    1    1    2    0    0 -0.23268752427E-01  0.36574943402E-02 -0.87394032305E-02  0.25123480515E-01  0.00000000000E+00 0. -1.
     999901    1    3    3    0    0 -0.90447131486E-01 -0.38450250217E-01  0.59740779022E-01  0.88748412156E+00  0.88000000000E+00 0.  1.
        -11    1    4    4    0    0  0.85720522380E-01  0.35945593866E-01 -0.37810138174E-01  0.10034919703E+00  0.51100000000E-03 0. -1.
         11    1    4    4    0    0  0.27995361533E-01 -0.11528379892E-02 -0.13191237618E-01  0.30973200895E-01  0.51100000000E-03 0.  1.
</event>
<event>
 8    1  0.5489035E+004  0.1043930E+01  0.7957747E-01            NaN
         13   -1    0    0    0    0  0.00000000000E+00  0.00000000000E+00  0.74505805969E-08  0.10566000000E+00  0.10566000000E+00 0. -1.
     999900   -1    0    0    0    0 -0.00000000000E+00 -0.00000000000E+00 -0.74505805969E-08  0.93827000000E+00  0.93827000000E+00 0. -1.
     999902    2    1    2    0    0 -0.10915415622E-01 -0.90361346555E-02  0.18172450179E-01  0.10208857822E+01  0.10206256632E+01 0.  0.
     999903    2    3    3    0    0 -0.25229678864E-01 -0.82429137154E-01  0.10043033513E+00  0.13389210096E+00  0.20242112981E-01 0.  0.
         14    1    1    2    0    0  0.10915415622E-01  0.90361346555E-02 -0.18172450179E-01  0.23044217783E-01  0.00000000000E+00 0.  1.
     999901    1    3    3    0    0  0.14314263241E-01  0.73393002499E-01 -0.82257884954E-01  0.88699368125E+00  0.88000000000E+00 0. -1.
        -11    1    4    4    0    0 -0.15961984466E-01 -0.65070373397E-01  0.64938718190E-01  0.93307216673E-01  0.51100000000E-03 0.  1.
         11    1    4    4    0    0 -0.92676943974E-02 -0.17358763757E-01  0.35491616943E-01  0.40584884290E-01  0.51100000000E-03 0. -1.
</event>
<event>
 8    1  0.5489035E+004  0.1043930E+01  0.7957747E-01            NaN
         13   -1    0    0    0    0  0.00000000000E+00  0.00000000000E+00  0.74505805969E-08  0.10566000000E+00  0.10566000000E+00 0. -1.
     999900   -1    0    0    0    0 -0.00000000000E+00 -0.00000000000E+00 -0.74505805969E-08  0.93827000000E+00  0.93827000000E+00 0. -1.
     999902    2    1    2    0    0 -0.16162603832E-01 -0.24553849194E-02  0.21835874372E-01  0.10166524619E+01  0.10162864577E+01 0.  0.
     999903    2    3    3    0    0  0.58408790954E-01  0.19737268412E-01 -0.10537546578E+00  0.12410771124E+00  0.22306693511E-01 0.  0.
         14    1    1    2    0    0  0.16162603832E-01  0.24553849194E-02 -0.21835874372E-01  0.27277538146E-01  0.00000000000E+00 0.  1.
     999901    1    3    3    0    0 -0.74571394787E-01 -0.22192653332E-01  0.12721134015E+00  0.89254475061E+00  0.88000000000E+00 0.  1.
        -11    1    4    4    0    0  0.94633273878E-02 -0.50010259788E-02 -0.17778268525E-01  0.20757957000E-01  0.51100000000E-03 0. -1.
         11    1    4    4    0    0  0.48945463567E-01  0.24738294391E-01 -0.87597197259E-01  0.10334975424E+00  0.51100000000E-03 0.  1.
</event>
<event>
 8    1  0.5489035E+004  0.1043930E+01  0.7957747E-01            NaN
         13   -1    0    0    0    0  0.00000000000E+00  0.00000000000E+00  0.74505805969E-08  0.10566000000E+00  0.10566000000E+00 0.  1.
     999900   -1    0    0    0    0 -0.00000000000E+00 -0.00000000000E+00 -0.74505805969E-08  0.93827000000E+00  0.93827000000E+00 0. -1.
     999902    2    1    2    0    0 -0.93411612719E-02  0.26922915577E-01  0.58970112978E-02  0.10148288760E+01  0.10144115398E+01 0.  0.
     999903    2    3    3    0    0 -0.55140555436E-02 -0.11798594843E+00 -0.25511894667E-01  0.12241655817E+00  0.19592552347E-01 0.  0.
         14    1    1    2    0    0  0.93411612719E-02 -0.26922915577E-01 -0.58970112978E-02  0.29101124022E-01  0.00000000000E+00 0. -1.
     999901    1    3    3    0    0 -0.38271057283E-02  0.14490886401E+00  0.31408905965E-01  0.89241231781E+00  0.88000000000E+00 0. -1.
        -11    1    4    4    0    0 -0.10731697775E-02 -0.59544327090E-01 -0.22703859611E-01  0.63736998237E-01  0.51100000000E-03 0. -1.
         11    1    4    4    0    0 -0.44408857661E-02 -0.58441621344E-01 -0.28080350556E-02  0.58679559930E-01  0.51100000000E-03 0.  1.
</event>
<event>
 8    1  0.5489035E+004  0.1043930E+01  0.7957747E-01            NaN
         13   -1    0    0    0    0  0.00000000000E+00  0.00000000000E+00  0.74505805969E-08  0.10566000000E+00  0.10566000000E+00 0. -1.
     999900   -1    0    0    0    0 -0.00000000000E+00 -0.00000000000E+00 -0.74505805969E-08  0.93827000000E+00  0.93827000000E+00 0. -1.
     999902    2    1    2    0    0 -0.11911405205E-01  0.15992644157E-01 -0.14399488446E-01  0.10193334249E+01  0.10190366233E+01 0.  0.
     999903    2    3    3    0    0  0.88734555164E-01 -0.88185213835E-01  0.11821552412E-01  0.12710577542E+00  0.19122652157E-01 0.  0.
         14    1    1    2    0    0  0.11911405205E-01 -0.15992644157E-01  0.14399488446E-01  0.24596575140E-01  0.00000000000E+00 0. -1.
     999901    1    3    3    0    0 -0.10064596037E+00  0.10417785799E+00 -0.26221040858E-01  0.89222764944E+00  0.88000000000E+00 0.  1.
        -11    1    4    4    0    0  0.46184936243E-01 -0.32541510296E-01  0.58461808678E-02  0.56801735712E-01  0.51100000000E-03 0.  1.
         11    1    4    4    0    0  0.42549618921E-01 -0.55643703538E-01  0.59753715443E-02  0.70304039712E-01  0.51100000000E-03 0. -1.
</event>
<event>
 8    1  0.5489035E+004  0.1043930E+01  0.7957747E-01            NaN
         13   -1    0    0    0    0  0.00000000000E+00  0.00000000000E+00  0.74505805969E-08  0.10566000000E+00  0.10566000000E+00 0. -1.
     999900   -1    0    0    0    0 -0.00000000000E+00 -0.00000000000E+00 -0.74505805969E-08  0.93827000000E+00  0.93827000000E+00 0. -1.
     999902    2    1    2    0    0 -0.34645005464E-02  0.21064946066E-01 -0.95943943460E-02  0.10205251475E+01  0.10202567273E+01 0.  0.
     999903    2    3    3    0    0  0.34843462004E-01 -0.93848546535E-01 -0.79892749414E-01  0.12945025196E+00  0.18785627260E-01 0.  0.
         14    1    1    2    0    0  0.34645005464E-02 -0.21064946066E-01  0.95943943460E-02  0.23404852481E-01  0.00000000000E+00 0.  1.
     999901    1    3    3    0    0 -0.38307962550E-01  0.11491349260E+00  0.70298355068E-01  0.89107489556E+00  0.88000000000E+00 0.  1.
        -11    1    4    4    0    0  0.33089591048E-01 -0.65404436838E-01 -0.55641355654E-01  0.92026534075E-01  0.51100000000E-03 0. -1.
         11    1    4    4    0    0  0.17538709558E-02 -0.28444109696E-01 -0.24251393761E-01  0.37423717881E-01  0.51100000000E-03 0.  1.
</event>
<event>
 7    1  0.5489035E+004  0.1043930E+01  0.7957747E-01            NaN
         13   -1    0    0    0    0  0.00000000000E+00  0.00000000000E+00  0.74505805969E-08  0.10566000000E+00  0.10566000000E+00 0.  1.
     999900   -1    0    0    0    0 -0.00000000000E+00 -0.00000000000E+00 -0.74505805969E-08  0.93827000000E+00  0.93827000000E+00 0.  1.
     999903    2    1    2    0    0  0.95501274644E-02 -0.91450862014E-01 -0.12057907027E-01  0.94778096984E-01  0.19571138145E-01 0.  0.
         14    1    1    2    0    0  0.58365992626E-01 -0.13988221882E-01 -0.35316064779E-02  0.60122638755E-01  0.00000000000E+00 0. -1.
     999901    1    1    2    0    0 -0.67916120090E-01  0.10543908390E+00  0.15589513505E-01  0.88902926426E+00  0.88000000000E+00 0. -1.
        -11    1    3    3    0    0  0.10436406248E-01 -0.40305518276E-01  0.21272733365E-02  0.41692203009E-01  0.51100000000E-03 0.  1.
         11    1    3    3    0    0 -0.88627878386E-03 -0.51145343738E-01 -0.14185180364E-01  0.53085893975E-01  0.51100000000E-03 0. -1.
</event>
<event>
 8    1  0.5489035E+004  0.1043930E+01  0.7957747E-01            NaN
         13   -1    0    0    0    0  0.00000000000E+00  0.00000000000E+00  0.74505805969E-08  0.10566000000E+00  0.10566000000E+00 0.  1.
     999900   -1    0    0    0    0 -0.00000000000E+00 -0.00000000000E+00 -0.74505805969E-08  0.93827000000E+00  0.93827000000E+00 0.  1.
     999902    2    1    2    0    0 -0.14858281972E-01  0.13031444008E-01  0.12219457576E-01  0.10206942039E+01  0.10204296917E+01 0.  0.
     999903    2    3    3    0    0 -0.13000753839E+00  0.20492560436E-01  0.26274040177E-02  0.13310926319E+00  0.19729866269E-01 0.  0.
         14    1    1    2    0    0  0.14858281972E-01 -0.13031444008E-01 -0.12219457576E-01  0.23235796082E-01  0.00000000000E+00 0.  1.
     999901    1    3    3    0    0  0.11514925642E+00 -0.74611164272E-02  0.95920535582E-02  0.88758494073E+00  0.88000000000E+00 0. -1.
        -11    1    4    4    0    0 -0.91323250779E-01  0.16555080017E-01 -0.69078157741E-02  0.93069790195E-01  0.51100000000E-03 0.  1.
         11    1    4    4    0    0 -0.38684287616E-01  0.39374804184E-02  0.95352197918E-02  0.40039472997E-01  0.51100000000E-03 0. -1.
</event>
<event>
 8    1  0.5489035E+004  0.1043930E+01  0.7957747E-01            NaN
         13   -1    0    0    0    0  0.00000000000E+00  0.00000000000E+00  0.74505805969E-08  0.10566000000E+00  0.10566000000E+00 0. -1.
     999900   -1    0    0    0    0 -0.00000000000E+00 -0.00000000000E+00 -0.74505805969E-08  0.93827000000E+00  0.93827000000E+00 0. -1.
     999902    2    1    2    0    0 -0.40882035646E-02  0.20600434093E-01 -0.10860400593E-01  0.10202859819E+01  0.10200119829E+01 0.  0.
     999903    2    3    3    0    0  0.21456903747E-01  0.65434593677E-01  0.10935790503E+00  0.13061464063E+00  0.18945927977E-01 0.  0.
         14    1    1    2    0    0  0.40882035646E-02 -0.20600434093E-01  0.10860400593E-01  0.23644018149E-01  0.00000000000E+00 0. -1.
     999901    1    3    3    0    0 -0.25545107312E-01 -0.44834159584E-01 -0.12021830563E+00  0.88967134122E+00  0.88000000000E+00 0. -1.
        -11    1    4    4    0    0  0.33996803564E-02  0.97441192706E-02  0.63415482492E-02  0.12123615058E-01  0.51100000000E-03 0. -1.
         11    1    4    4    0    0  0.18057223391E-01  0.55690474406E-01  0.10301635678E+00  0.11849102558E+00  0.51100000000E-03 0.  1.
</event>
<event>
 8    1  0.5489035E+004  0.1043930E+01  0.7957747E-01            NaN
         13   -1    0    0    0    0  0.00000000000E+00  0.00000000000E+00  0.74505805969E-08  0.10566000000E+00  0.10566000000E+00 0.  1.
     999900   -1    0    0    0    0 -0.00000000000E+00 -0.00000000000E+00 -0.74505805969E-08  0.93827000000E+00  0.93827000000E+00 0.  1.
     999902    2    1    2    0    0  0.21036281467E-02 -0.64699549779E-02  0.24659882114E-01  0.10183488477E+01  0.10180274948E+01 0.  0.
     999903    2    3    3    0    0 -0.85528192859E-01  0.10989961464E-01  0.96369028694E-01  0.13092201325E+00  0.20438513552E-01 0.  0.
         14    1    1    2    0    0 -0.21036281467E-02  0.64699549779E-02 -0.24659882114E-01  0.25581152333E-01  0.00000000000E+00 0. -1.
     999901    1    3    3    0    0  0.87631821005E-01 -0.17459916442E-01 -0.71709146580E-01  0.88742683441E+00  0.88000000000E+00 0.  1.
        -11    1    4    4    0    0 -0.14434729812E-01 -0.53625946403E-02  0.20811427372E-01  0.25893927401E-01  0.51100000000E-03 0. -1.
         11    1    4    4    0    0 -0.71093463047E-01  0.16352556104E-01  0.75557601322E-01  0.10502808585E+00  0.51100000000E-03 0.  1.
</event>
<event>
 8    1  0.5489035E+004  0.1043930E+01  0.7957747E-01            NaN
         13   -1    0    0    0    0  0.00000000000E+00  0.00000000000E+00  0.74505805969E-08  0.10566000000E+00  0.10566000000E+00 0. -1.
     999900   -1    0    0    0    0 -0.00000000000E+00 -0.00000000000E+00 -0.74505805969E-08  0.93827000000E+00  0.93827000000E+00 0.  1.
     999902    2    1    2    0    0  0.47770502579E-02 -0.24054352823E-01 -0.25489235936E-02  0.10192737815E+01  0.10189755211E+01 0.  0.
     999903    2    3    3    0    0  0.12178416310E+00  0.21910684761E-01 -0.34405625322E-01  0.12976925730E+00  0.18570207246E-01 0.  0.
         14    1    1    2    0    0 -0.47770502579E-02  0.24054352823E-01  0.25489235936E-02  0.24656218493E-01  0.00000000000E+00 0.  1.
     999901    1    3    3    0    0 -0.11700711285E+00 -0.45965037584E-01  0.31856701728E-01  0.88950452421E+00  0.88000000000E+00 0.  1.
        -11    1    4    4    0    0  0.49433034777E-01  0.14930158838E-01 -0.21527209858E-01  0.55948337379E-01  0.51100000000E-03 0. -1.
         11    1    4    4    0    0  0.72351128328E-01  0.69805259232E-02 -0.12878415464E-01  0.73820919923E-01  0.51100000000E-03 0.  1.
</event>
<event>
 8    1  0.5489035E+004  0.1043930E+01  0.7957747E-01            NaN
         13   -1    0    0    0    0  0.00000000000E+00  0.00000000000E+00  0.74505805969E-08  0.10566000000E+00  0.10566000000E+00 0.  1.
     999900   -1    0    0    0    0 -0.00000000000E+00 -0.00000000000E+00 -0.74505805969E-08  0.93827000000E+00  0.93827000000E+00 0.  1.
     999902    2    1    2    0    0  0.88638813531E-02  0.19622567569E-01 -0.11459595171E-01  0.10195386927E+01  0.10192468837E+01 0.  0.
     999903    2    3    3    0    0  0.71497208746E-01  0.19259926590E-01 -0.10758596261E+00  0.13209103580E+00  0.19761243796E-01 0.  0.
         14    1    1    2    0    0 -0.88638813531E-02 -0.19622567569E-01  0.11459595171E-01  0.24391307307E-01  0.00000000000E+00 0. -1.
     999901    1    3    3    0    0 -0.62633327393E-01  0.36264097924E-03  0.96126367442E-01  0.88744765689E+00  0.88000000000E+00 0. -1.
        -11    1    4    4    0    0  0.44205540027E-01  0.21656141562E-01 -0.70038668716E-01  0.85608378520E-01  0.51100000000E-03 0. -1.
         11    1    4    4    0    0  0.27291668719E-01 -0.23962149725E-02 -0.37547293898E-01  0.46482657279E-01  0.51100000000E-03 0.  1.
</event>
<event>
 8    1  0.5489035E+004  0.1043930E+01  0.7957747E-01            NaN
         13   -1    0    0    0    0  0.00000000000E+00  0.00000000000E+00  0.74505805969E-08  0.10566000000E+00  0.10566000000E+00 0.  1.
     999900   -1    0    0    0    0 -0.00000000000E+00 -0.00000000000E+00 -0.74505805969E-08  0.93827000000E+00  0.93827000000E+00 0.  1.
     999902    2    1    2    0    0  0.59030098279E-02  0.19980093122E-01  0.14060605767E-01  0.10187953570E+01  0.10184852621E+01 0.  0.
     999903    2    3    3    0    0  0.12531532482E+00  0.30774084601E-01  0.70798915980E-02  0.13063740840E+00  0.19105828701E-01 0.  0.
         14    1    1    2    0    0 -0.59030098279E-02 -0.19980093122E-01 -0.14060605767E-01  0.25134643040E-01  0.00000000000E+00 0. -1.
     999901    1    3    3    0    0 -0.11941231499E+00 -0.10793991479E-01  0.69807141689E-02  0.88815794856E+00  0.88000000000E+00 0.  1.
        -11    1    4    4    0    0  0.51161246408E-01  0.22209093628E-01  0.41722399923E-02  0.55931973695E-01  0.51100000000E-03 0.  1.
         11    1    4    4    0    0  0.74154078412E-01  0.85649909723E-02  0.29076516057E-02  0.74705434704E-01  0.51100000000E-03 0. -1.
</event>
<event>
 8    1  0.5489035E+004  0.1043930E+01  0.7957747E-01            NaN
         13   -1    0    0    0    0  0.00000000000E+00  0.00000000000E+00  0.74505805969E-08  0.10566000000E+00  0.10566000000E+00 0.  1.
     999900   -1    0    0    0    0 -0.00000000000E+00 -0.00000000000E+00 -0.74505805969E-08  0.93827000000E+00  0.93827000000E+00 0. -1.
     999902    2    1    2    0    0 -0.99466487804E-02 -0.17816328619E-01 -0.10969558849E-01  0.10207634593E+01  0.10205005395E+01 0.  0.
     999903    2    3    3    0    0  0.12195331783E+00 -0.41961537634E-01  0.29970723521E-02  0.13049627518E+00  0.19670104800E-01 0.  0.
         14    1    1    2    0    0  0.99466487804E-02  0.17816328619E-01  0.10969558849E-01  0.23166540716E-01  0.00000000000E+00 0.  1.
     999901    1    3    3    0    0 -0.13189996661E+00  0.24145209015E-01 -0.13966631201E-01  0.89026718411E+00  0.88000000000E+00 0.  1.
        -11    1    4    4    0    0  0.10865981715E+00 -0.34474495994E-01  0.83879873484E-02  0.11430689476E+00  0.51100000000E-03 0. -1.
         11    1    4    4    0    0  0.13293500676E-01 -0.74870416398E-02 -0.53909149963E-02  0.16189380415E-01  0.51100000000E-03 0.  1.
</event>
<event>
 8    1  0.5489035E+004  0.1043930E+01  0.7957747E-01            NaN
         13   -1    0    0    0    0  0.00000000000E+00  0.00000000000E+00  0.74505805969E-08  0.10566000000E+00  0.10566000000E+00 0.  1.
     999900   -1    0    0    0    0 -0.00000000000E+00 -0.00000000000E+00 -0.74505805969E-08  0.93827000000E+00  0.93827000000E+00 0.  1.
     999902    2    1    2    0    0  0.11075913270E-01 -0.20008921428E-01 -0.66361366369E-02  0.10201167453E+01  0.10198387632E+01 0.  0.
     999903    2    3    3    0    0 -0.10642580197E+00 -0.15742264874E-01  0.68500210221E-01  0.12912273403E+00  0.20152702425E-01 0.  0.
         14    1    1    2    0    0 -0.11075913270E-01  0.20008921428E-01  0.66361366369E-02  0.23813254732E-01  0.00000000000E+00 0. -1.
     999901    1    3    3    0    0  0.11750171524E+00 -0.42666565542E-02 -0.75136346858E-01  0.89099401124E+00  0.88000000000E+00 0. -1.
        -11    1    4    4    0    0 -0.40506666656E-01 -0.14613675492E-01  0.32901520230E-01  0.54195209285E-01  0.51100000000E-03 0.  1.
         11    1    4    4    0    0 -0.65919135313E-01 -0.11285893813E-02  0.35598689991E-01  0.74927524746E-01  0.51100000000E-03 0. -1.
</event>
<event>
 8    1  0.5489035E+004  0.1043930E+01  0.7957747E-01            NaN
         13   -1    0    0    0    0  0.00000000000E+00  0.00000000000E+00  0.74505805969E-08  0.10566000000E+00  0.10566000000E+00 0. -1.
     999900   -1    0    0    0    0 -0.00000000000E+00 -0.00000000000E+00 -0.74505805969E-08  0.93827000000E+00  0.93827000000E+00 0. -1.
     999902    2    1    2    0    0 -0.86966652490E-02  0.29557599568E-01 -0.12875492103E-01  0.10105374563E+01  0.10099855883E+01 0.  0.
     999903    2    3    3    0    0  0.32751848314E-01  0.11378940570E+00  0.31913640676E-01  0.12441159454E+00  0.20953567178E-01 0.  0.
         14    1    1    2    0    0  0.86966652490E-02 -0.29557599568E-01  0.12875492103E-01  0.33392543712E-01  0.00000000000E+00 0.  1.
     999901    1    3    3    0    0 -0.41448513563E-01 -0.84231806132E-01 -0.44789132779E-01  0.88612586175E+00  0.88000000000E+00 0. -1.
        -11    1    4    4    0    0  0.18530601963E-01  0.30520827868E-01  0.11336700017E-01  0.37465798151E-01  0.51100000000E-03 0. -1.
         11    1    4    4    0    0  0.14221246352E-01  0.83268577832E-01  0.20576940659E-01  0.86945796390E-01  0.51100000000E-03 0.  1.
</event>
<event>
 8    1  0.5489035E+004  0.1043930E+01  0.7957747E-01            NaN
         13   -1    0    0    0    0  0.00000000000E+00  0.00000000000E+00  0.74505805969E-08  0.10566000000E+00  0.10566000000E+00 0. -1.
     999900   -1    0    0    0    0 -0.00000000000E+00 -0.00000000000E+00 -0.74505805969E-08  0.93827000000E+00  0.93827000000E+00 0.  1.
     999902    2    1    2    0    0 -0.89326036406E-02 -0.21894465468E-01 -0.13267996658E-02  0.10202462625E+01  0.10199713313E+01 0.  0.
     999903    2    3    3    0    0  0.59634826578E-01 -0.16364148834E-01  0.11286503432E+00  0.13020589719E+00  0.19772753504E-01 0.  0.
         14    1    1    2    0    0  0.89326036406E-02  0.21894465468E-01  0.13267996658E-02  0.23683737527E-01  0.00000000000E+00 0. -1.
     999901    1    3    3    0    0 -0.68567430218E-01 -0.55303166340E-02 -0.11419183399E+00  0.89004036529E+00  0.88000000000E+00 0.  1.
        -11    1    4    4    0    0  0.21808704311E-01 -0.15468924055E-01  0.53399769658E-01  0.59721886404E-01  0.51100000000E-03 0. -1.
         11    1    4    4    0    0  0.37826122267E-01 -0.89522477844E-03  0.59465264667E-01  0.70484010783E-01  0.51100000000E-03 0.  1.
</event>
<event>
 8    1  0.5489035E+004  0.1043930E+01  0.7957747E-01            NaN
         13   -1    0    0    0    0  0.00000000000E+00  0.00000000000E+00  0.74505805969E-08  0.10566000000E+00  0.10566000000E+00 0. -1.
     999900   -1    0    0    0    0 -0.00000000000E+00 -0.00000000000E+00 -0.74505805969E-08  0.93827000000E+00  0.93827000000E+00 0.  1.
     999902    2    1    2    0    0  0.21791216020E-01  0.10371120680E-02 -0.12483142344E-02  0.10220784329E+01  0.10218448180E+01 0.  0.
     999903    2    3    3    0    0  0.43523890471E-01 -0.11750721528E+00 -0.40109489874E-01  0.13301417331E+00  0.19537769511E-01 0.  0.
         14    1    1    2    0    0 -0.21791216020E-01 -0.10371120680E-02  0.12483142344E-02  0.21851567118E-01  0.00000000000E+00 0.  1.
     999901    1    3    3    0    0 -0.21732674450E-01  0.11854432735E+00  0.38861175640E-01  0.88906425958E+00  0.88000000000E+00 0. -1.
        -11    1    4    4    0    0  0.21409743833E-01 -0.69767542603E-01 -0.32352863988E-01  0.79830170118E-01  0.51100000000E-03 0.  1.
         11    1    4    4    0    0  0.22114146638E-01 -0.47739672678E-01 -0.77566258857E-02  0.53184003187E-01  0.51100000000E-03 0. -1.
</event>
<event>
 8    1  0.5489035E+004  0.1043930E+01  0.7957747E-01            NaN
         13   -1    0    0    0    0  0.00000000000E+00  0.00000000000E+00  0.74505805969E-08  0.10566000000E+00  0.10566000000E+00 0.  1.
     999900   -1    0    0    0    0 -0.00000000000E+00 -0.00000000000E+00 -0.74505805969E-08  0.93827000000E+00  0.93827000000E+00 0. -1.
     999902    2    1    2    0    0  0.13908625921E-01  0.16682196092E-02 -0.17160058098E-01  0.10217782410E+01  0.10215380920E+01 0.  0.
     999903    2    3    3    0    0 -0.11434577317E+00  0.53206915111E-01  0.25200976463E-01  0.12998236457E+00  0.18825361281E-01 0.  0.
         14    1    1    2    0    0 -0.13908625921E-01 -0.16682196092E-02  0.17160058098E-01  0.22151758974E-01  0.00000000000E+00 0.  1.
     999901    1    3    3    0    0  0.12825439909E+00 -0.51538695502E-01 -0.42361034561E-01  0.89179587646E+00  0.88000000000E+00 0. -1.
        -11    1    4    4    0    0 -0.70108679210E-01  0.27781722966E-01  0.23259730276E-01  0.78919751679E-01  0.51100000000E-03 0.  1.
         11    1    4    4    0    0 -0.44237093957E-01  0.25425192145E-01  0.19412461867E-02  0.51062612889E-01  0.51100000000E-03 0. -1.
</event>
<event>
 8    1  0.5489035E+004  0.1043930E+01  0.7957747E-01            NaN
         13   -1    0    0    0    0  0.00000000000E+00  0.00000000000E+00  0.74505805969E-08  0.10566000000E+00  0.10566000000E+00 0. -1.
     999900   -1    0    0    0    0 -0.00000000000E+00 -0.00000000000E+00 -0.74505805969E-08  0.93827000000E+00  0.93827000000E+00 0.  1.
     999902    2    1    2    0    0 -0.34514757089E-02  0.23219336562E-01 -0.36210020987E-02  0.10201779068E+01  0.10199013676E+01 0.  0.
     999903    2    3    3    0    0  0.58343832581E-01  0.10037932720E-01 -0.11508407358E+00  0.13089930825E+00  0.19634714547E-01 0.  0.
         14    1    1    2    0    0  0.34514757089E-02 -0.23219336562E-01  0.36210020987E-02  0.23752093195E-01  0.00000000000E+00 0. -1.
     999901    1    3    3    0    0 -0.61795308290E-01  0.13181403842E-01  0.11146307149E+00  0.88927859855E+00  0.88000000000E+00 0. -1.
        -11    1    4    4    0    0  0.35657766849E-01  0.40265108312E-02 -0.48758285235E-01  0.60541891498E-01  0.51100000000E-03 0.  1.
         11    1    4    4    0    0  0.22686065733E-01  0.60114218891E-02 -0.66325788350E-01  0.70357416757E-01  0.51100000000E-03 0. -1.
</event>
<event>
 8    1  0.5489035E+004  0.1043930E+01  0.7957747E-01            NaN
         13   -1    0    0    0    0  0.00000000000E+00  0.00000000000E+00  0.74505805969E-08  0.10566000000E+00  0.10566000000E+00 0. -1.
     999900   -1    0    0    0    0 -0.00000000000E+00 -0.00000000000E+00 -0.74505805969E-08  0.93827000000E+00  0.93827000000E+00 0. -1.
     999902    2    1    2    0    0 -0.28616881220E-02  0.22628373813E-01 -0.27163814400E-02  0.10209602092E+01  0.10207017868E+01 0.  0.
     999903    2    3    3    0    0 -0.44048918685E-01 -0.32771893311E-01 -0.11701736190E+00  0.13088701465E+00  0.20592313827E-01 0.  0.
         14    1    1    2    0    0  0.28616881220E-02 -0.22628373813E-01  0.27163814400E-02  0.22969790780E-01  0.00000000000E+00 0.  1.
     999901    1    3    3    0    0  0.41187230563E-01  0.55400267124E-01  0.11430098046E+00  0.89007319457E+00  0.88000000000E+00 0.  1.
        -11    1    4    4    0    0 -0.38067000134E-01 -0.28958626362E-01 -0.80134795871E-01  0.93324943988E-01  0.51100000000E-03 0.  1.
         11    1    4    4    0    0 -0.59819185511E-02 -0.38132669493E-02 -0.36882566031E-01  0.37562070662E-01  0.51100000000E-03 0. -1.
</event>
<event>
 8    1  0.5489035E+004  0.1043930E+01  0.7957747E-01            NaN
         13   -1    0    0    0    0  0.00000000000E+00  0.00000000000E+00  0.74505805969E-08  0.10566000000E+00  0.10566000000E+00 0. -1.
     999900   -1    0    0    0    0 -0.00000000000E+00 -0.00000000000E+00 -0.74505805969E-08  0.93827000000E+00  0.93827000000E+00 0.  1.
     999902    2    1    2    0    0 -0.22341196537E-01 -0.42409352300E-02  0.68855977091E-02  0.10201702431E+01  0.10198935232E+01 0.  0.
     999903    2    3    3    0    0 -0.12356219419E+00 -0.77253088414E-02  0.45758397030E-01  0.13350856814E+00  0.20085085023E-01 0.  0.
         14    1    1    2    0    0  0.22341196537E-01  0.42409352300E-02 -0.68855977091E-02  0.23759756946E-01  0.00000000000E+00 0.  1.
     999901    1    3    3    0    0  0.10122099765E+00  0.34843736114E-02 -0.38872799321E-01  0.88666167491E+00  0.88000000000E+00 0.  1.
        -11    1    4    4    0    0 -0.44775312864E-01  0.32953824653E-02  0.86539127163E-02  0.45725698616E-01  0.51100000000E-03 0. -1.
         11    1    4    4    0    0 -0.78786881323E-01 -0.11020691307E-01  0.37104484314E-01  0.87782869529E-01  0.51100000000E-03 0.  1.
</event>
<event>
 8    1  0.5489035E+004  0.1043930E+01  0.7957747E-01            NaN
         13   -1    0    0    0    0  0.00000000000E+00  0.00000000000E+00  0.74505805969E-08  0.10566000000E+00  0.10566000000E+00 0. -1.
     999900   -1    0    0    0    0 -0.00000000000E+00 -0.00000000000E+00 -0.74505805969E-08  0.93827000000E+00  0.93827000000E+00 0.  1.
     999902    2    1    2    0    0  0.21433136186E-01  0.66961616896E-02  0.50122579558E-02  0.10209225960E+01  0.10206633169E+01 0.  0.
     999903    2    3    3    0    0 -0.44016284242E-01 -0.57720487329E-01  0.10605261890E+00  0.13039337929E+00  0.22049658758E-01 0.  0.
         14    1    1    2    0    0 -0.21433136186E-01 -0.66961616896E-02 -0.50122579558E-02  0.23007403981E-01  0.00000000000E+00 0.  1.
     999901    1    3    3    0    0  0.65449420428E-01  0.64416649019E-01 -0.10104036094E+00  0.89052921673E+00  0.88000000000E+00 0.  1.
        -11    1    4    4    0    0 -0.12424959684E-01 -0.29590152281E-01  0.33403570901E-01  0.46325116353E-01  0.51100000000E-03 0.  1.
         11    1    4    4    0    0 -0.31591324558E-01 -0.28130335048E-01  0.72649048000E-01  0.84068262939E-01  0.51100000000E-03 0. -1.
</event>
<event>
 8    1  0.5489035E+004  0.1043930E+01  0.7957747E-01            NaN
         13   -1    0    0    0    0  0.00000000000E+00  0.00000000000E+00  0.74505805969E-08  0.10566000000E+00  0.10566000000E+00 0.  1.
     999900   -1    0    0    0    0 -0.00000000000E+00 -0.00000000000E+00 -0.74505805969E-08  0.93827000000E+00  0.93827000000E+00 0. -1.
     999902    2    1    2    0    0  0.23042620790E-01 -0.71114020094E-02  0.33690300551E-02  0.10195807747E+01  0.10192899839E+01 0.  0.
     999903    2    3    3    0    0  0.61514254388E-01 -0.72119383974E-01 -0.88740642225E-01  0.13155470745E+00  0.21131266676E-01 0.  0.
         14    1    1    2    0    0 -0.23042620790E-01  0.71114020094E-02 -0.33690300551E-02  0.24349225346E-01  0.00000000000E+00 0. -1.
     999901    1    3    3    0    0 -0.38471633598E-01  0.65007981965E-01  0.92109672280E-01  0.88802606721E+00  0.88000000000E+00 0.  1.
        -11    1    4    4    0    0  0.53834894829E-01 -0.55349571472E-01 -0.79836359377E-01  0.11106699043E+00  0.51100000000E-03 0. -1.
         11    1    4    4    0    0  0.76793595595E-02 -0.16769812502E-01 -0.89042828485E-02  0.20487717019E-01  0.51100000000E-03 0.  1.
</event>
<event>
 8    1  0.5489035E+004  0.1043930E+01  0.7957747E-01            NaN
         13   -1    0    0    0    0  0.00000000000E+00  0.00000000000E+00  0.74505805969E-08  0.10566000000E+00  0.10566000000E+00 0.  1.
     999900   -1    0    0    0    0 -0.00000000000E+00 -0.00000000000E+00 -0.74505805969E-08  0.93827000000E+00  0.93827000000E+00 0.  1.
     999902    2    1    2    0    0  0.23062221322E-01  0.56750621266E-02  0.70036519747E-03  0.10201694677E+01  0.10198927296E+01 0.  0.
     999903    2    3    3    0    0 -0.69897082429E-01  0.10641669055E+00 -0.12233445857E-01  0.12946323595E+00  0.20023938339E-01 0.  0.
         14    1    1    2    0    0 -0.23062221322E-01 -0.56750621266E-02 -0.70036519747E-03  0.23760532272E-01  0.00000000000E+00 0. -1.
     999901    1    3    3    0    0  0.92959303751E-01 -0.10074162842E+00  0.12933811054E-01  0.89070623177E+00  0.88000000000E+00 0. -1.
        -11    1    4    4    0    0 -0.31713936851E-01  0.40508024859E-01 -0.13829145129E-01  0.53274574091E-01  0.51100000000E-03 0.  1.
         11    1    4    4    0    0 -0.38183145578E-01  0.65908665691E-01  0.15956992725E-02  0.76188661863E-01  0.51100000000E-03 0. -1.
</event>
<event>
 8    1  0.5489035E+004  0.1043930E+01  0.7957747E-01            NaN
         13   -1    0    0    0    0  0.00000000000E+00  0.00000000000E+00  0.74505805969E-08  0.10566000000E+00  0.10566000000E+00 0.  1.
     999900   -1    0    0    0    0 -0.00000000000E+00 -0.00000000000E+00 -0.74505805969E-08  0.93827000000E+00  0.93827000000E+00 0.  1.
     999902    2    1    2    0    0  0.67692772675E-02 -0.21730661886E-01 -0.30158906240E-02  0.10209704622E+01  0.10207122730E+01 0.  0.
     999903    2    3    3    0    0  0.83783553768E-01 -0.52128254453E-01  0.86277243318E-01  0.13258514252E+00  0.19950401190E-01 0.  0.
         14    1    1    2    0    0 -0.67692772675E-02  0.21730661886E-01  0.30158906240E-02  0.22959537822E-01  0.00000000000E+00 0.  1.
     999901    1    3    3    0    0 -0.77014276501E-01  0.30397592567E-01 -0.89293133942E-01  0.88838531966E+00  0.88000000000E+00 0.  1.
        -11    1    4    4    0    0  0.10414264474E-01 -0.48024609888E-02  0.19647790156E-01  0.22755599643E-01  0.51100000000E-03 0. -1.
         11    1    4    4    0    0  0.73369289294E-01 -0.47325793464E-01  0.66629453162E-01  0.10982954288E+00  0.51100000000E-03 0.  1.
</event>
<event>
 8    1  0.5489035E+004  0.1043930E+01  0.7957747E-01            NaN
         13   -1    0    0    0    0  0.00000000000E+00  0.00000000000E+00  0.74505805969E-08  0.10566000000E+00  0.10566000000E+00 0.  1.
     999900   -1    0    0    0    0 -0.00000000000E+00 -0.00000000000E+00 -0.74505805969E-08  0.93827000000E+00  0.93827000000E+00 0.  1.
     999902    2    1    2    0    0  0.85391616443E-02 -0.95388645188E-02  0.19767415584E-01  0.10203788230E+01  0.10201069966E+01 0.  0.
     999903    2    3    3    0    0 -0.22489521194E-01 -0.95532424141E-01 -0.82385508772E-01  0.12976505073E+00  0.20478615895E-01 0.  0.
         14    1    1    2    0    0 -0.85391616443E-02  0.95388645188E-02 -0.19767415584E-01  0.23551176972E-01  0.00000000000E+00 0. -1.
     999901    1    3    3    0    0  0.31028682839E-01  0.85993559623E-01  0.10215292436E+00  0.89061377230E+00  0.88000000000E+00 0.  1.
        -11    1    4    4    0    0  0.18227464017E-02 -0.10964772814E-01 -0.16221433301E-01  0.19670909146E-01  0.51100000000E-03 0. -1.
         11    1    4    4    0    0 -0.24312267596E-01 -0.84567651327E-01 -0.66164075471E-01  0.11009414158E+00  0.51100000000E-03 0.  1.
</event>
<event>
 8    1  0.5489035E+004  0.1043930E+01  0.7957747E-01            NaN
         13   -1    0    0    0    0  0.00000000000E+00  0.00000000000E+00  0.74505805969E-08  0.10566000000E+00  0.10566000000E+00 0.  1.
     999900   -1    0    0    0    0 -0.00000000000E+00 -0.00000000000E+00 -0.74505805969E-08  0.93827000000E+00  0.93827000000E+00 0. -1.
     999902    2    1    2    0    0  0.21622326471E-01  0.71736473767E-02 -0.53636996986E-02  0.10205258232E+01  0.10202574186E+01 0.  0.
     999903    2    3    3    0    0  0.69238268759E-01 -0.34385334749E-01  0.10473989513E+00  0.13141546525E+00  0.17980260552E-01 0.  0.
         14    1    1    2    0    0 -0.21622326471E-01 -0.71736473767E-02  0.53636996986E-02  0.23404176831E-01  0.00000000000E+00 0. -1.
     999901    1    3    3    0    0 -0.47615942288E-01  0.41558982126E-01 -0.11010359483E+00  0.88911035791E+00  0.88000000000E+00 0. -1.
        -11    1    4    4    0    0  0.31397015254E-01 -0.58818647723E-02  0.44355712764E-01  0.54663143669E-01  0.51100000000E-03 0.  1.
         11    1    4    4    0    0  0.37841253505E-01 -0.28503469977E-01  0.60384182368E-01  0.76752321585E-01  0.51100000000E-03 0. -1.
</event>
<event>
 8    1  0.5489035E+004  0.1043930E+01  0.7957747E-01            NaN
         13   -1    0    0    0    0  0.00000000000E+00  0.00000000000E+00  0.74505805969E-08  0.10566000000E+00  0.10566000000E+00 0. -1.
     999900   -1    0    0    0    0 -0.00000000000E+00 -0.00000000000E+00 -0.74505805969E-08  0.93827000000E+00  0.93827000000E+00 0. -1.
     999902    2    1    2    0    0 -0.18714906685E-02 -0.34225884574E-03  0.27190413222E-01  0.10166731075E+01  0.10163076647E+01 0.  0.
     999903    2    3    3    0    0 -0.92713512456E-01 -0.83012039073E-01 -0.15981022049E-01  0.12709436543E+00  0.20267970700E-01 0.  0.
         14    1    1    2    0    0  0.18714906685E-02  0.34225884574E-03 -0.27190413222E-01  0.27256892516E-01  0.00000000000E+00 0.  1.
     999901    1    3    3    0    0  0.90842021787E-01  0.82669780228E-01  0.43171435270E-01  0.88957874205E+00  0.88000000000E+00 0.  1.
        -11    1    4    4    0    0 -0.57690625430E-01 -0.63504220067E-01 -0.75879250824E-02  0.86132641646E-01  0.51100000000E-03 0.  1.
         11    1    4    4    0    0 -0.35022887026E-01 -0.19507819006E-01 -0.83930969662E-02  0.40961723788E-01  0.51100000000E-03 0. -1.
</event>
<event>
 8    1  0.5489035E+004  0.1043930E+01  0.7957747E-01            NaN
         13   -1    0    0    0    0  0.00000000000E+00  0.00000000000E+00  0.74505805969E-08  0.10566000000E+00  0.10566000000E+00 0. -1.
     999900   -1    0    0    0    0 -0.00000000000E+00 -0.00000000000E+00 -0.74505805969E-08  0.93827000000E+00  0.93827000000E+00 0. -1.
     999902    2    1    2    0    0  0.12163596995E-01  0.10940432901E-01  0.17465113799E-01  0.10199993426E+01  0.10197185801E+01 0.  0.
     999903    2    3    3    0    0  0.27824796683E-01  0.12591632497E+00 -0.17815342087E-01  0.13168102155E+00  0.19833426805E-01 0.  0.
         14    1    1    2    0    0 -0.12163596995E-01 -0.10940432901E-01 -0.17465113799E-01  0.23930657407E-01  0.00000000000E+00 0. -1.
     999901    1    3    3    0    0 -0.15661199687E-01 -0.11497589207E+00  0.35280455886E-01  0.88831832104E+00  0.88000000000E+00 0.  1.
        -11    1    4    4    0    0  0.15780865044E-01  0.39254070956E-01 -0.12057981088E-01  0.43995156745E-01  0.51100000000E-03 0. -1.
         11    1    4    4    0    0  0.12043931639E-01  0.86662254013E-01 -0.57573609990E-02  0.87685864805E-01  0.51100000000E-03 0.  1.
</event>
<event>
 8    1  0.5489035E+004  0.1043930E+01  0.7957747E-01            NaN
         13   -1    0    0    0    0  0.00000000000E+00  0.00000000000E+00  0.74505805969E-08  0.10566000000E+00  0.10566000000E+00 0. -1.
     999900   -1    0    0    0    0 -0.00000000000E+00 -0.00000000000E+00 -0.74505805969E-08  0.93827000000E+00  0.93827000000E+00 0. -1.
     999902    2    1    2    0    0  0.14394845531E-01  0.19610932770E-02  0.18532802875E-01  0.10203817039E+01  0.10201099448E+01 0.  0.
     999903    2    3    3    0    0  0.97957531877E-01 -0.10086676486E-01  0.88237277431E-01  0.13359729662E+00  0.19105010888E-01 0.  0.
         14    1    1    2    0    0 -0.14394845531E-01 -0.19610932770E-02 -0.18532802875E-01  0.23548296055E-01  0.00000000000E+00 0.  1.
     999901    1    3    3    0    0 -0.83562686345E-01  0.12047769764E-01 -0.69704474557E-01  0.88678440733E+00  0.88000000000E+00 0. -1.
        -11    1    4    4    0    0  0.23115952041E-01 -0.52236337026E-02  0.11687471147E-01  0.26428993372E-01  0.51100000000E-03 0.  1.
         11    1    4    4    0    0  0.74841579836E-01 -0.48630427839E-02  0.76549806284E-01  0.10716830325E+00  0.51100000000E-03 0. -1.
</event>
<event>
 8    1  0.5489035E+004  0.1043930E+01  0.7957747E-01            NaN
         13   -1    0    0    0    0  0.00000000000E+00  0.00000000000E+00  0.74505805969E-08  0.10566000000E+00  0.10566000000E+00 0. -1.
     999900   -1    0    0    0    0 -0.00000000000E+00 -0.00000000000E+00 -0.74505805969E-08  0.93827000000E+00  0.93827000000E+00 0. -1.
     999902    2    1    2    0    0 -0.11715766648E-01  0.19117351417E-01 -0.78082869954E-02  0.10201875979E+01  0.10199112869E+01 0.  0.
     999903    2    3    3    0    0 -0.48582447207E-01  0.92428478602E-01 -0.80528226608E-01  0.13338329977E+00  0.20075645525E-01 0.  0.
         14    1    1    2    0    0  0.11715766648E-01 -0.19117351417E-01  0.78082869954E-02  0.23742402135E-01  0.00000000000E+00 0.  1.
     999901    1    3    3    0    0  0.36866680558E-01 -0.73311127185E-01  0.72719939613E-01  0.88680429810E+00  0.88000000000E+00 0.  1.
        -11    1    4    4    0    0 -0.40859331963E-02  0.21850590201E-01 -0.23303875080E-01  0.32209856518E-01  0.51100000000E-03 0.  1.
         11    1    4    4    0    0 -0.44496514010E-01  0.70577888401E-01 -0.57224351529E-01  0.10117344325E+00  0.51100000000E-03 0. -1.
</event>
<event>
 8    1  0.5489035E+004  0.1043930E+01  0.7957747E-01            NaN
         13   -1    0    0    0    0  0.00000000000E+00  0.00000000000E+00  0.74505805969E-08  0.10566000000E+00  0.10566000000E+00 0. -1.
     999900   -1    0    0    0    0 -0.00000000000E+00 -0.00000000000E+00 -0.74505805969E-08  0.93827000000E+00  0.93827000000E+00 0. -1.
     999902    2    1    2    0    0  0.68797412746E-02  0.86698208593E-02 -0.19380058055E-01  0.10216122205E+01  0.10213684182E+01 0.  0.
     999903    2    3    3    0    0 -0.73194438815E-01 -0.47059660110E-01 -0.98113018641E-01  0.13272722876E+00  0.20452758872E-01 0.  0.
         14    1    1    2    0    0 -0.68797412746E-02 -0.86698208593E-02  0.19380058055E-01  0.22317779548E-01  0.00000000000E+00 0. -1.
     999901    1    3    3    0    0  0.80074180089E-01  0.55729480969E-01  0.78732960586E-01  0.88888499169E+00  0.88000000000E+00 0.  1.
        -11    1    4    4    0    0 -0.34913489119E-01 -0.19912158985E-01 -0.30665879903E-01  0.50557918363E-01  0.51100000000E-03 0.  1.
         11    1    4    4    0    0 -0.38280949695E-01 -0.27147501124E-01 -0.67447138738E-01  0.82169310401E-01  0.51100000000E-03 0. -1.
</event>
<event>
 8    1  0.5489035E+004  0.1043930E+01  0.7957747E-01            NaN
         13   -1    0    0    0    0  0.00000000000E+00  0.00000000000E+00  0.74505805969E-08  0.10566000000E+00  0.10566000000E+00 0. -1.
     999900   -1    0    0    0    0 -0.00000000000E+00 -0.00000000000E+00 -0.74505805969E-08  0.93827000000E+00  0.93827000000E+00 0.  1.
     999902    2    1    2    0    0 -0.20751383821E-01 -0.11070008760E-01  0.27537611373E-02  0.10202498770E+01  0.10199750307E+01 0.  0.
     999903    2    3    3    0    0  0.59585171613E-01  0.71982718810E-01  0.86401908492E-01  0.12876306822E+00  0.19563574883E-01 0.  0.
         14    1    1    2    0    0  0.20751383821E-01  0.11070008760E-01 -0.27537611373E-02  0.23680122990E-01  0.00000000000E+00 0. -1.
     999901    1    3    3    0    0 -0.80336555434E-01 -0.83052727570E-01 -0.83648147355E-01  0.89148680879E+00  0.88000000000E+00 0.  1.
        -11    1    4    4    0    0  0.45513061087E-01  0.40298941204E-01  0.54307654371E-01  0.81517027889E-01  0.51100000000E-03 0. -1.
         11    1    4    4    0    0  0.14072110526E-01  0.31683777606E-01  0.32094254121E-01  0.47246040328E-01  0.51100000000E-03 0.  1.
</event>
<event>
 8    1  0.5489035E+004  0.1043930E+01  0.7957747E-01            NaN
         13   -1    0    0    0    0  0.00000000000E+00  0.00000000000E+00  0.74505805969E-08  0.10566000000E+00  0.10566000000E+00 0.  1.
     999900   -1    0    0    0    0 -0.00000000000E+00 -0.00000000000E+00 -0.74505805969E-08  0.93827000000E+00  0.93827000000E+00 0.  1.
     999902    2    1    2    0    0  0.95134320251E-02 -0.28574867030E-02 -0.22100993672E-01  0.10196993471E+01  0.10194114154E+01 0.  0.
     999903    2    3    3    0    0  0.25997435289E-02  0.17163514888E-01 -0.12956232523E+00  0.13290930578E+00  0.24023790999E-01 0.  0.
         14    1    1    2    0    0 -0.95134320251E-02  0.28574867030E-02  0.22100993672E-01  0.24230652910E-01  0.00000000000E+00 0.  1.
     999901    1    3    3    0    0  0.69136884962E-02 -0.20021001591E-01  0.10746133156E+00  0.88679004131E+00  0.88000000000E+00 0. -1.
        -11    1    4    4    0    0  0.79954590672E-02  0.73346066304E-02 -0.10850512739E+00  0.10904745578E+00  0.51100000000E-03 0.  1.
         11    1    4    4    0    0 -0.53957155383E-02  0.98289082577E-02 -0.21057197833E-01  0.23861849997E-01  0.51100000000E-03 0. -1.
</event>
<event>
 8    1  0.5489035E+004  0.1043930E+01  0.7957747E-01            NaN
         13   -1    0    0    0    0  0.00000000000E+00  0.00000000000E+00  0.74505805969E-08  0.10566000000E+00  0.10566000000E+00 0. -1.
     999900   -1    0    0    0    0 -0.00000000000E+00 -0.00000000000E+00 -0.74505805969E-08  0.93827000000E+00  0.93827000000E+00 0.  1.
     999902    2    1    2    0    0  0.35508278989E-02 -0.21634677447E-01  0.82201717602E-02  0.10205154987E+01  0.10202468546E+01 0.  0.
     999903    2    3    3    0    0 -0.12865267817E+00 -0.69920931150E-02 -0.48787345445E-02  0.13042350703E+00  0.19649126414E-01 0.  0.
         14    1    1    2    0    0 -0.35508278989E-02  0.21634677447E-01 -0.82201717602E-02  0.23414501292E-01  0.00000000000E+00 0.  1.
     999901    1    3    3    0    0  0.13220350607E+00 -0.14642584332E-01  0.13098906305E-01  0.89009199167E+00  0.88000000000E+00 0. -1.
        -11    1    4    4    0    0 -0.43156003672E-01  0.39303023587E-02  0.51775488492E-02  0.43645802348E-01  0.51100000000E-03 0.  1.
         11    1    4    4    0    0 -0.85496674503E-01 -0.10922395474E-01 -0.10056283394E-01  0.86777704686E-01  0.51100000000E-03 0. -1.
</event>
<event>
 8    1  0.5489035E+004  0.1043930E+01  0.7957747E-01            NaN
         13   -1    0    0    0    0  0.00000000000E+00  0.00000000000E+00  0.74505805969E-08  0.10566000000E+00  0.10566000000E+00 0. -1.
     999900   -1    0    0    0    0 -0.00000000000E+00 -0.00000000000E+00 -0.74505805969E-08  0.93827000000E+00  0.93827000000E+00 0.  1.
     999902    2    1    2    0    0  0.21506545975E-01 -0.37758978107E-02  0.85922390923E-02  0.10204648024E+01  0.10201949801E+01 0.  0.
     999903    2    3    3    0    0  0.95897358115E-01  0.52377426717E-01 -0.71215111873E-01  0.13195121106E+00  0.19995795045E-01 0.  0.
         14    1    1    2    0    0 -0.21506545975E-01  0.37758978107E-02 -0.85922390923E-02  0.23465197563E-01  0.00000000000E+00 0.  1.
     999901    1    3    3    0    0 -0.74390812140E-01 -0.56153324528E-01  0.79807350965E-01  0.88851359137E+00  0.88000000000E+00 0.  1.
        -11    1    4    4    0    0  0.11829045386E-01  0.12313235875E-01 -0.17439756680E-01  0.24412052895E-01  0.51100000000E-03 0.  1.
         11    1    4    4    0    0  0.84068312728E-01  0.40064190842E-01 -0.53775355192E-01  0.10753915817E+00  0.51100000000E-03 0. -1.
</event>
<event>
 8    1  0.5489035E+004  0.1043930E+01  0.7957747E-01            NaN
         13   -1    0    0    0    0  0.00000000000E+00  0.00000000000E+00  0.74505805969E-08  0.10566000000E+00  0.10566000000E+00 0. -1.
     999900   -1    0    0    0    0 -0.00000000000E+00 -0.00000000000E+00 -0.74505805969E-08  0.93827000000E+00  0.93827000000E+00 0. -1.
     999902    2    1    2    0    0 -0.22643867679E-02 -0.21861740634E-01  0.53536144416E-02  0.10213086751E+01  0.10210581206E+01 0.  0.
     999903    2    3    3    0    0 -0.10249536089E+00  0.68547132659E-01  0.37209934785E-01  0.13044682407E+00  0.20682994534E-01 0.  0.
         14    1    1    2    0    0  0.22643867679E-02  0.21861740634E-01 -0.53536144416E-02  0.22621324863E-01  0.00000000000E+00 0.  1.
     999901    1    3    3    0    0  0.10023097412E+00 -0.90408873293E-01 -0.31856320344E-01  0.89086185107E+00  0.88000000000E+00 0.  1.
        -11    1    4    4    0    0 -0.79226714226E-01  0.45237814499E-01  0.33952313929E-01  0.97346560545E-01  0.51100000000E-03 0.  1.
         11    1    4    4    0    0 -0.23268646664E-01  0.23309318161E-01  0.32576208561E-02  0.33100263524E-01  0.51100000000E-03 0. -1.
</event>
<event>
 8    1  0.5489035E+004  0.1043930E+01  0.7957747E-01            NaN
         13   -1    0    0    0    0  0.00000000000E+00  0.00000000000E+00  0.74505805969E-08  0.10566000000E+00  0.10566000000E+00 0.  1.
     999900   -1    0    0    0    0 -0.00000000000E+00 -0.00000000000E+00 -0.74505805969E-08  0.93827000000E+00  0.93827000000E+00 0.  1.
     999902    2    1    2    0    0 -0.72468128172E-02 -0.15684320443E-01  0.16089553714E-01  0.10203209352E+01  0.10200477552E+01 0.  0.
     999903    2    3    3    0    0  0.60183949473E-01  0.52228804667E-01  0.10207241093E+00  0.13096602738E+00  0.19579771282E-01 0.  0.
         14    1    1    2    0    0  0.72468128172E-02  0.15684320443E-01 -0.16089553714E-01  0.23609064838E-01  0.00000000000E+00 0. -1.
     999901    1    3    3    0    0 -0.67430762290E-01 -0.67913125111E-01 -0.85982857214E-01  0.88935490778E+00  0.88000000000E+00 0.  1.
        -11    1    4    4    0    0  0.49319332371E-01  0.31181288707E-01  0.73658500801E-01  0.93970767647E-01  0.51100000000E-03 0. -1.
         11    1    4    4    0    0  0.10864617102E-01  0.21047515960E-01  0.28413910127E-01  0.36995259731E-01  0.51100000000E-03 0.  1.
</event>
<event>
 8    1  0.5489035E+004  0.1043930E+01  0.7957747E-01            NaN
         13   -1    0    0    0    0  0.00000000000E+00  0.00000000000E+00  0.74505805969E-08  0.10566000000E+00  0.10566000000E+00 0. -1.
     999900   -1    0    0    0    0 -0.00000000000E+00 -0.00000000000E+00 -0.74505805969E-08  0.93827000000E+00  0.93827000000E+00 0.  1.
     999902    2    1    2    0    0 -0.17704734723E-01 -0.60147016007E-02 -0.11406263113E-01  0.10220270982E+01  0.10217923725E+01 0.  0.
     999903    2    3    3    0    0  0.36655903967E-01  0.12137825627E+00 -0.27223851427E-01  0.13105333833E+00  0.18907750026E-01 0.  0.
         14    1    1    2    0    0  0.17704734723E-01  0.60147016007E-02  0.11406263113E-01  0.21902901752E-01  0.00000000000E+00 0. -1.
     999901    1    3    3    0    0 -0.54360638690E-01 -0.12739295787E+00  0.15817588314E-01  0.89097375991E+00  0.88000000000E+00 0. -1.
        -11    1    4    4    0    0  0.29478284820E-01  0.87277940579E-01 -0.27704363573E-01  0.96198758150E-01  0.51100000000E-03 0.  1.
         11    1    4    4    0    0  0.71776191474E-02  0.34100315692E-01  0.48051214554E-03  0.34854580184E-01  0.51100000000E-03 0. -1.
</event>
<event>
 8    1  0.5489035E+004  0.1043930E+01  0.7957747E-01            NaN
         13   -1    0    0    0    0  0.00000000000E+00  0.00000000000E+00  0.74505805969E-08  0.10566000000E+00  0.10566000000E+00 0.  1.
     999900   -1    0    0    0    0 -0.00000000000E+00 -0.00000000000E+00 -0.74505805969E-08  0.93827000000E+00  0.93827000000E+00 0.  1.
     999902    2    1    2    0    0 -0.72654301754E-02  0.19212618753E-01  0.13345046426E-01  0.10194350728E+01  0.10191407490E+01 0.  0.
     999903    2    3    3    0    0  0.70415159942E-01  0.91018524189E-01  0.60436885948E-01  0.13184958198E+00  0.22113990847E-01 0.  0.
         14    1    1    2    0    0  0.72654301754E-02 -0.19212618753E-01 -0.13345046426E-01  0.24494927212E-01  0.00000000000E+00 0.  1.
     999901    1    3    3    0    0 -0.77680590117E-01 -0.71805905435E-01 -0.47091839522E-01  0.88758549080E+00  0.88000000000E+00 0. -1.
        -11    1    4    4    0    0  0.65347182033E-01  0.71613233888E-01  0.47326859690E-01  0.10788328062E+00  0.51100000000E-03 0.  1.
         11    1    4    4    0    0  0.50679779086E-02  0.19405290300E-01  0.13110026258E-01  0.23966301367E-01  0.51100000000E-03 0. -1.
</event>
<event>
 8    1  0.5489035E+004  0.1043930E+01  0.7957747E-01            NaN
         13   -1    0    0    0    0  0.00000000000E+00  0.00000000000E+00  0.74505805969E-08  0.10566000000E+00  0.10566000000E+00 0. -1.
     999900   -1    0    0    0    0 -0.00000000000E+00 -0.00000000000E+00 -0.74505805969E-08  0.93827000000E+00  0.93827000000E+00 0.  1.
     999902    2    1    2    0    0 -0.51168082091E-02 -0.22093146629E-01  0.54927799228E-02  0.10205963444E+01  0.10203295735E+01 0.  0.
     999903    2    3    3    0    0 -0.88286906228E-01 -0.62694389074E-01 -0.74739474373E-01  0.13211283820E+00  0.11943565412E-01 0.  0.
         14    1    1    2    0    0  0.51168082091E-02  0.22093146629E-01 -0.54927799228E-02  0.23333655639E-01  0.00000000000E+00 0.  1.
     999901    1    3    3    0    0  0.83170098019E-01  0.40601242445E-01  0.80232254296E-01  0.88848350616E+00  0.88000000000E+00 0. -1.
        -11    1    4    4    0    0 -0.61388691827E-01 -0.39150928244E-01 -0.44875224616E-01  0.85530190997E-01  0.51100000000E-03 0.  1.
         11    1    4    4    0    0 -0.26898214401E-01 -0.23543460829E-01 -0.29864249757E-01  0.46582647202E-01  0.51100000000E-03 0. -1.
</event>
<event>
 7    1  0.5489035E+004  0.1043930E+01  0.7957747E-01            NaN
         13   -1    0    0    0    0  0.00000000000E+00  0.00000000000E+00  0.74505805969E-08  0.10566000000E+00  0.10566000000E+00 0. -1.
     999900   -1    0    0    0    0 -0.00000000000E+00 -0.00000000000E+00 -0.74505805969E-08  0.93827000000E+00  0.93827000000E+00 0.  1.
     999903    2    1    2    0    0 -0.67639077317E-02 -0.68232067082E-01 -0.89554093474E-01  0.11464495816E+00  0.20546662671E-01 0.  0.
         14    1    1    2    0    0  0.32438585324E-01 -0.15621289808E-01  0.22348668487E-01  0.42376284596E-01  0.00000000000E+00 0. -1.
     999901    1    1    2    0    0 -0.25674677592E-01  0.83853356890E-01  0.67205424988E-01  0.88690875725E+00  0.88000000000E+00 0. -1.
        -11    1    3    3    0    0 -0.15241888295E-02 -0.52910848643E-01 -0.79716495346E-01  0.95691492866E-01  0.51100000000E-03 0. -1.
         11    1    3    3    0    0 -0.52397189023E-02 -0.15321218439E-01 -0.98375981288E-02  0.18953465292E-01  0.51100000000E-03 0.  1.
</event>
<event>
 8    1  0.5489035E+004  0.1043930E+01  0.7957747E-01            NaN
         13   -1    0    0    0    0  0.00000000000E+00  0.00000000000E+00  0.74505805969E-08  0.10566000000E+00  0.10566000000E+00 0.  1.
     999900   -1    0    0    0    0 -0.00000000000E+00 -0.00000000000E+00 -0.74505805969E-08  0.93827000000E+00  0.93827000000E+00 0. -1.
     999902    2    1    2    0    0  0.72583652243E-02  0.20002074815E-01  0.43288753989E-02  0.10222158105E+01  0.10219851551E+01 0.  0.
     999903    2    3    3    0    0  0.10941606933E+00 -0.70397439930E-01 -0.43581559011E-02  0.13166332285E+00  0.19711957907E-01 0.  0.
         14    1    1    2    0    0 -0.72583652243E-02 -0.20002074815E-01 -0.43288753989E-02  0.21714189482E-01  0.00000000000E+00 0. -1.
     999901    1    3    3    0    0 -0.10215770411E+00  0.90399514745E-01  0.86870313000E-02  0.89055248767E+00  0.88000000000E+00 0. -1.
        -11    1    4    4    0    0  0.90971594414E-01 -0.50013239585E-01  0.67842837633E-04  0.10381435762E+00  0.51100000000E-03 0. -1.
         11    1    4    4    0    0  0.18444474919E-01 -0.20384200345E-01 -0.44259987387E-02  0.27848965234E-01  0.51100000000E-03 0.  1.
</event>
<event>
 8    1  0.5489035E+004  0.1043930E+01  0.7957747E-01            NaN
         13   -1    0    0    0    0  0.00000000000E+00  0.00000000000E+00  0.74505805969E-08  0.10566000000E+00  0.10566000000E+00 0.  1.
     999900   -1    0    0    0    0 -0.00000000000E+00 -0.00000000000E+00 -0.74505805969E-08  0.93827000000E+00  0.93827000000E+00 0.  1.
     999902    2    1    2    0    0  0.10454276964E-02 -0.18133919467E-01 -0.15462006134E-01  0.10200761620E+01  0.10197972204E+01 0.  0.
     999903    2    3    3    0    0  0.42410489137E-02  0.22033714267E-01  0.12453171183E+00  0.12809976551E+00  0.19948223334E-01 0.  0.
         14    1    1    2    0    0 -0.10454276964E-02  0.18133919467E-01  0.15462006134E-01  0.23853838014E-01  0.00000000000E+00 0.  1.
     999901    1    3    3    0    0 -0.31956212174E-02 -0.40167633735E-01 -0.13999371796E+00  0.89197639647E+00  0.88000000000E+00 0.  1.
        -11    1    4    4    0    0 -0.66965974511E-02  0.10183240288E-01  0.75566489185E-01  0.76544746448E-01  0.51100000000E-03 0.  1.
         11    1    4    4    0    0  0.10937646365E-01  0.11850473980E-01  0.48965222641E-01  0.51555019065E-01  0.51100000000E-03 0. -1.
</event>
<event>
 8    1  0.5489035E+004  0.1043930E+01  0.7957747E-01            NaN
         13   -1    0    0    0    0  0.00000000000E+00  0.00000000000E+00  0.74505805969E-08  0.10566000000E+00  0.10566000000E+00 0.  1.
     999900   -1    0    0    0    0 -0.00000000000E+00 -0.00000000000E+00 -0.74505805969E-08  0.93827000000E+00  0.93827000000E+00 0. -1.
     999902    2    1    2    0    0 -0.31645051250E-02 -0.11245992138E-01  0.20914077753E-01  0.10199741014E+01  0.10196927392E+01 0.  0.
     999903    2    3    3    0    0 -0.37210833351E-01 -0.27138515087E-01  0.12345599243E+00  0.13322353382E+00  0.19646444361E-01 0.  0.
         14    1    1    2    0    0  0.31645051250E-02  0.11245992138E-01 -0.20914077753E-01  0.23955898649E-01  0.00000000000E+00 0. -1.
     999901    1    3    3    0    0  0.34046328226E-01  0.15892522949E-01 -0.10254191468E+00  0.88675056753E+00  0.88000000000E+00 0. -1.
        -11    1    4    4    0    0 -0.18618689549E-02  0.30278166651E-02  0.83198108664E-02  0.90617108548E-02  0.51100000000E-03 0.  1.
         11    1    4    4    0    0 -0.35348964396E-01 -0.30166331753E-01  0.11513618157E+00  0.12416182296E+00  0.51100000000E-03 0. -1.
</event>
<event>
 8    1  0.5489035E+004  0.1043930E+01  0.7957747E-01            NaN
         13   -1    0    0    0    0  0.00000000000E+00  0.00000000000E+00  0.74505805969E-08  0.10566000000E+00  0.10566000000E+00 0. -1.
     999900   -1    0    0    0    0 -0.00000000000E+00 -0.00000000000E+00 -0.74505805969E-08  0.93827000000E+00  0.93827000000E+00 0. -1.
     999902    2    1    2    0    0  0.60854110388E-02  0.95372106601E-04 -0.23402000598E-01  0.10197495336E+01  0.10194628077E+01 0.  0.
     999903    2    3    3    0    0 -0.91107581037E-01 -0.76090771333E-01 -0.50665059570E-01  0.13070843188E+00  0.20672423637E-01 0.  0.
         14    1    1    2    0    0 -0.60854110388E-02 -0.95372106601E-04  0.23402000598E-01  0.24180466400E-01  0.00000000000E+00 0. -1.
     999901    1    3    3    0    0  0.97192992076E-01  0.76186143440E-01  0.27263058972E-01  0.88904110172E+00  0.88000000000E+00 0. -1.
        -11    1    4    4    0    0 -0.62555539684E-01 -0.41228349616E-01 -0.25804486325E-01  0.79240803837E-01  0.51100000000E-03 0.  1.
         11    1    4    4    0    0 -0.28552041353E-01 -0.34862421718E-01 -0.24860573244E-01  0.51467628044E-01  0.51100000000E-03 0. -1.
</event>
<event>
 8    1  0.5489035E+004  0.1043930E+01  0.7957747E-01            NaN
         13   -1    0    0    0    0  0.00000000000E+00  0.00000000000E+00  0.74505805969E-08  0.10566000000E+00  0.10566000000E+00 0. -1.
     999900   -1    0    0    0    0 -0.00000000000E+00 -0.00000000000E+00 -0.74505805969E-08  0.93827000000E+00  0.93827000000E+00 0. -1.
     999902    2    1    2    0    0  0.64626891900E-02  0.23502512935E-02  0.21660738426E-01  0.10212038560E+01  0.10209509478E+01 0.  0.
     999903    2    3    3    0    0 -0.38558035661E-01  0.12375851570E+00  0.11553820471E-01  0.13167084247E+00  0.20020681006E-01 0.  0.
         14    1    1    2    0    0 -0.64626891900E-02 -0.23502512935E-02 -0.21660738426E-01  0.22726144017E-01  0.00000000000E+00 0.  1.
     999901    1    3    3    0    0  0.45020724851E-01 -0.12140826441E+00  0.10106917955E-01  0.88953301351E+00  0.88000000000E+00 0.  1.
        -11    1    4    4    0    0 -0.14275795446E-01  0.77826728457E-01  0.91973477792E-02  0.79659590289E-01  0.51100000000E-03 0. -1.
         11    1    4    4    0    0 -0.24282240216E-01  0.45931787244E-01  0.23564726914E-02  0.52011252185E-01  0.51100000000E-03 0.  1.
</event>
<event>
 8    1  0.5489035E+004  0.1043930E+01  0.7957747E-01            NaN
         13   -1    0    0    0    0  0.00000000000E+00  0.00000000000E+00  0.74505805969E-08  0.10566000000E+00  0.10566000000E+00 0.  1.
     999900   -1    0    0    0    0 -0.00000000000E+00 -0.00000000000E+00 -0.74505805969E-08  0.93827000000E+00  0.93827000000E+00 0.  1.
     999902    2    1    2    0    0  0.44663637770E-02  0.21336494064E-01 -0.94865665527E-02  0.10201562891E+01  0.10198792403E+01 0.  0.
     999903    2    3    3    0    0 -0.62714411060E-01  0.68878327061E-01 -0.91919835034E-01  0.13248026367E+00  0.20602011949E-01 0.  0.
         14    1    1    2    0    0 -0.44663637770E-02 -0.21336494064E-01  0.94865665527E-02  0.23773710886E-01  0.00000000000E+00 0. -1.
     999901    1    3    3    0    0  0.67180774837E-01 -0.47541832997E-01  0.82433268482E-01  0.88767602544E+00  0.88000000000E+00 0. -1.
        -11    1    4    4    0    0 -0.29948003229E-01  0.30812376780E-01 -0.56656517947E-01  0.71109124640E-01  0.51100000000E-03 0. -1.
         11    1    4    4    0    0 -0.32766407831E-01  0.38065950282E-01 -0.35263317087E-01  0.61371139031E-01  0.51100000000E-03 0.  1.
</event>
<event>
 8    1  0.5489035E+004  0.1043930E+01  0.7957747E-01            NaN
         13   -1    0    0    0    0  0.00000000000E+00  0.00000000000E+00  0.74505805969E-08  0.10566000000E+00  0.10566000000E+00 0.  1.
     999900   -1    0    0    0    0 -0.00000000000E+00 -0.00000000000E+00 -0.74505805969E-08  0.93827000000E+00  0.93827000000E+00 0. -1.
     999902    2    1    2    0    0  0.93711942754E-02  0.64332570312E-02 -0.25926230085E-01  0.10156214238E+01  0.10152268225E+01 0.  0.
     999903    2    3    3    0    0  0.78597578104E-01 -0.12403356753E-01 -0.10020304984E+00  0.12958296181E+00  0.20485854912E-01 0.  0.
         14    1    1    2    0    0 -0.93711942754E-02 -0.64332570312E-02  0.25926230085E-01  0.28308576167E-01  0.00000000000E+00 0.  1.
     999901    1    3    3    0    0 -0.69226383828E-01  0.18836613784E-01  0.74276819752E-01  0.88603846203E+00  0.88000000000E+00 0.  1.
        -11    1    4    4    0    0  0.34179942020E-01  0.67362649040E-04 -0.56477666094E-01  0.66017125525E-01  0.51100000000E-03 0. -1.
         11    1    4    4    0    0  0.44417636084E-01 -0.12470719402E-01 -0.43725383743E-01  0.63565836282E-01  0.51100000000E-03 0.  1.
</event>
<event>
 8    1  0.5489035E+004  0.1043930E+01  0.7957747E-01            NaN
         13   -1    0    0    0    0  0.00000000000E+00  0.00000000000E+00  0.74505805969E-08  0.10566000000E+00  0.10566000000E+00 0. -1.
     999900   -1    0    0    0    0 -0.00000000000E+00 -0.00000000000E+00 -0.74505805969E-08  0.93827000000E+00  0.93827000000E+00 0. -1.
     999902    2    1    2    0    0  0.10639957340E-01  0.20028490900E-01 -0.36733366475E-02  0.10209551759E+01  0.10206966389E+01 0.  0.
     999903    2    3    3    0    0 -0.48967001882E-01 -0.10932548653E+00 -0.40674121679E-01  0.12873631310E+00  0.23850049437E-01 0.  0.
         14    1    1    2    0    0 -0.10639957340E-01 -0.20028490900E-01  0.36733366475E-02  0.22974824091E-01  0.00000000000E+00 0.  1.
     999901    1    3    3    0    0  0.59606959222E-01  0.12935397743E+00  0.37000785031E-01  0.89221886281E+00  0.88000000000E+00 0.  1.
        -11    1    4    4    0    0 -0.21130619430E-01 -0.64587296862E-01 -0.12901889081E-01  0.69171828487E-01  0.51100000000E-03 0. -1.
         11    1    4    4    0    0 -0.27836382452E-01 -0.44738189664E-01 -0.27772232597E-01  0.59564484610E-01  0.51100000000E-03 0.  1.
</event>
<event>
 8    1  0.5489035E+004  0.1043930E+01  0.7957747E-01            NaN
         13   -1    0    0    0    0  0.00000000000E+00  0.00000000000E+00  0.74505805969E-08  0.10566000000E+00  0.10566000000E+00 0.  1.
     999900   -1    0    0    0    0 -0.00000000000E+00 -0.00000000000E+00 -0.74505805969E-08  0.93827000000E+00  0.93827000000E+00 0. -1.
     999902    2    1    2    0    0 -0.20389618802E-01 -0.92118081707E-02  0.10124086746E-01  0.10193720869E+01  0.10190762289E+01 0.  0.
     999903    2    3    3    0    0  0.58579843007E-01 -0.97237487562E-01  0.60282815258E-01  0.13004616564E+00  0.19780303037E-01 0.  0.
         14    1    1    2    0    0  0.20389618802E-01  0.92118081707E-02 -0.10124086746E-01  0.24557913126E-01  0.00000000000E+00 0. -1.
     999901    1    3    3    0    0 -0.78969461809E-01  0.88025679392E-01 -0.50158728513E-01  0.88932592123E+00  0.88000000000E+00 0. -1.
        -11    1    4    4    0    0  0.52993347121E-01 -0.86534130811E-01  0.60150677223E-01  0.11796107716E+00  0.51100000000E-03 0.  1.
         11    1    4    4    0    0  0.55864958856E-02 -0.10703356751E-01  0.13213803539E-03  0.12085088477E-01  0.51100000000E-03 0. -1.
</event>
<event>
 8    1  0.5489035E+004  0.1043930E+01  0.7957747E-01            NaN
         13   -1    0    0    0    0  0.00000000000E+00  0.00000000000E+00  0.74505805969E-08  0.10566000000E+00  0.10566000000E+00 0.  1.
     999900   -1    0    0    0    0 -0.00000000000E+00 -0.00000000000E+00 -0.74505805969E-08  0.93827000000E+00  0.93827000000E+00 0.  1.
     999902    2    1    2    0    0  0.88539153811E-02  0.19155820437E-01  0.98911980659E-02  0.10206239263E+01  0.10203577930E+01 0.  0.
     999903    2    3    3    0    0 -0.14460972924E-01 -0.27208076096E-01  0.12659506138E+00  0.13140348866E+00  0.17063649232E-01 0.  0.
         14    1    1    2    0    0 -0.88539153811E-02 -0.19155820437E-01 -0.98911980659E-02  0.23306073744E-01  0.00000000000E+00 0.  1.
     999901    1    3    3    0    0  0.23314888305E-01  0.46363896533E-01 -0.11670386331E+00  0.88922043759E+00  0.88000000000E+00 0.  1.
        -11    1    4    4    0    0 -0.14535801587E-02 -0.10626154121E-01  0.73438421991E-01  0.74219209051E-01  0.51100000000E-03 0.  1.
         11    1    4    4    0    0 -0.13007392765E-01 -0.16581921975E-01  0.53156639387E-01  0.57184279613E-01  0.51100000000E-03 0. -1.
</event>
<event>
 8    1  0.5489035E+004  0.1043930E+01  0.7957747E-01            NaN
         13   -1    0    0    0    0  0.00000000000E+00  0.00000000000E+00  0.74505805969E-08  0.10566000000E+00  0.10566000000E+00 0. -1.
     999900   -1    0    0    0    0 -0.00000000000E+00 -0.00000000000E+00 -0.74505805969E-08  0.93827000000E+00  0.93827000000E+00 0. -1.
     999902    2    1    2    0    0  0.18530037993E-01 -0.35131503913E-02  0.13767685827E-01  0.10205793318E+01  0.10203121673E+01 0.  0.
     999903    2    3    3    0    0  0.55010233156E-01  0.11421820012E+00 -0.25598305127E-01  0.13111817086E+00  0.21558722430E-01 0.  0.
         14    1    1    2    0    0 -0.18530037993E-01  0.35131503913E-02 -0.13767685827E-01  0.23350668229E-01  0.00000000000E+00 0.  1.
     999901    1    3    3    0    0 -0.36480195163E-01 -0.11773135051E+00  0.39365990955E-01  0.88946116091E+00  0.88000000000E+00 0.  1.
        -11    1    4    4    0    0  0.21531224898E-02  0.95457167745E-02 -0.77755777932E-02  0.12509091742E-01  0.51100000000E-03 0. -1.
         11    1    4    4    0    0  0.52857110667E-01  0.10467248335E+00 -0.17822727334E-01  0.11860907911E+00  0.51100000000E-03 0.  1.
</event>
<event>
 8    1  0.5489035E+004  0.1043930E+01  0.7957747E-01            NaN
         13   -1    0    0    0    0  0.00000000000E+00  0.00000000000E+00  0.74505805969E-08  0.10566000000E+00  0.10566000000E+00 0. -1.
     999900   -1    0    0    0    0 -0.00000000000E+00 -0.00000000000E+00 -0.74505805969E-08  0.93827000000E+00  0.93827000000E+00 0. -1.
     999902    2    1    2    0    0  0.20371903902E-01 -0.75986703890E-02 -0.80100173950E-02  0.10207585814E+01  0.10204955497E+01 0.  0.
     999903    2    3    3    0    0 -0.10182733828E+00 -0.76997148868E-01  0.93969759885E-02  0.12943832078E+00  0.19199166004E-01 0.  0.
         14    1    1    2    0    0 -0.20371903902E-01  0.75986703890E-02  0.80100173950E-02  0.23171418578E-01  0.00000000000E+00 0. -1.
     999901    1    3    3    0    0  0.12219924218E+00  0.69398478479E-01 -0.17406993384E-01  0.89132026064E+00  0.88000000000E+00 0.  1.
        -11    1    4    4    0    0 -0.64257159632E-01 -0.50023511626E-01  0.15139763651E-01  0.82829993624E-01  0.51100000000E-03 0.  1.
         11    1    4    4    0    0 -0.37570178646E-01 -0.26973637242E-01 -0.57427876629E-02  0.46608327160E-01  0.51100000000E-03 0. -1.
</event>
<event>
 8    1  0.5489035E+004  0.1043930E+01  0.7957747E-01            NaN
         13   -1    0    0    0    0  0.00000000000E+00  0.00000000000E+00  0.74505805969E-08  0.10566000000E+00  0.10566000000E+00 0.  1.
     999900   -1    0    0    0    0 -0.00000000000E+00 -0.00000000000E+00 -0.74505805969E-08  0.93827000000E+00  0.93827000000E+00 0.  1.
     999902    2    1    2    0    0  0.41155693341E-02  0.18079979655E-01 -0.14397009756E-01  0.10204545348E+01  0.10201844736E+01 0.  0.
     999903    2    3    3    0    0  0.12507851224E+00 -0.13205117367E-01  0.29370957035E-01  0.13055205378E+00  0.19030929582E-01 0.  0.
         14    1    1    2    0    0 -0.41155693341E-02 -0.18079979655E-01  0.14397009756E-01  0.23475465175E-01  0.00000000000E+00 0.  1.
     999901    1    3    3    0    0 -0.12096294290E+00  0.31285097022E-01 -0.43767966791E-01  0.88990248104E+00  0.88000000000E+00 0. -1.
        -11    1    4    4    0    0  0.59500560766E-01  0.23062497626E-02  0.95515045678E-02  0.60308605356E-01  0.51100000000E-03 0. -1.
         11    1    4    4    0    0  0.65577951473E-01 -0.15511367129E-01  0.19819452467E-01  0.70243448425E-01  0.51100000000E-03 0.  1.
</event>
<event>
 8    1  0.5489035E+004  0.1043930E+01  0.7957747E-01            NaN
         13   -1    0    0    0    0  0.00000000000E+00  0.00000000000E+00  0.74505805969E-08  0.10566000000E+00  0.10566000000E+00 0.  1.
     999900   -1    0    0    0    0 -0.00000000000E+00 -0.00000000000E+00 -0.74505805969E-08  0.93827000000E+00  0.93827000000E+00 0. -1.
     999902    2    1    2    0    0 -0.60006001858E-02  0.24763814837E-02 -0.23274697125E-01  0.10197669871E+01  0.10194806799E+01 0.  0.
     999903    2    3    3    0    0  0.12453194465E+00  0.35623467656E-02  0.23965877883E-01  0.12888450519E+00  0.22714683003E-01 0.  0.
         14    1    1    2    0    0  0.60006001858E-02 -0.24763814837E-02  0.23274697125E-01  0.24163012935E-01  0.00000000000E+00 0.  1.
     999901    1    3    3    0    0 -0.13053254483E+00 -0.10859652819E-02 -0.47240575007E-01  0.89088248187E+00  0.88000000000E+00 0.  1.
        -11    1    4    4    0    0  0.21254230744E-01 -0.42398772802E-02 -0.29297923890E-02  0.21876098562E-01  0.51100000000E-03 0. -1.
         11    1    4    4    0    0  0.10327771390E+00  0.78022240458E-02  0.26895670272E-01  0.10700840663E+00  0.51100000000E-03 0.  1.
</event>
<event>
 8    1  0.5489035E+004  0.1043930E+01  0.7957747E-01            NaN
         13   -1    0    0    0    0  0.00000000000E+00  0.00000000000E+00  0.74505805969E-08  0.10566000000E+00  0.10566000000E+00 0.  1.
     999900   -1    0    0    0    0 -0.00000000000E+00 -0.00000000000E+00 -0.74505805969E-08  0.93827000000E+00  0.93827000000E+00 0.  1.
     999902    2    1    2    0    0  0.35017486152E-02 -0.39629725958E-02 -0.27464405661E-01  0.10159610713E+01  0.10155760126E+01 0.  0.
     999903    2    3    3    0    0  0.43389144516E-01 -0.70563320965E-01  0.91116210532E-01  0.12462052285E+00  0.19139246729E-01 0.  0.
         14    1    1    2    0    0 -0.35017486152E-02  0.39629725958E-02  0.27464405661E-01  0.27968928715E-01  0.00000000000E+00 0.  1.
     999901    1    3    3    0    0 -0.39887395900E-01  0.66600348369E-01 -0.11858061619E+00  0.89134054844E+00  0.88000000000E+00 0.  1.
        -11    1    4    4    0    0  0.18778518443E-01 -0.41810058530E-01  0.38836443228E-01  0.60076985550E-01  0.51100000000E-03 0.  1.
         11    1    4    4    0    0  0.24610626072E-01 -0.28753262435E-01  0.52279767303E-01  0.64543537296E-01  0.51100000000E-03 0. -1.
</event>
<event>
 8    1  0.5489035E+004  0.1043930E+01  0.7957747E-01            NaN
         13   -1    0    0    0    0  0.00000000000E+00  0.00000000000E+00  0.74505805969E-08  0.10566000000E+00  0.10566000000E+00 0. -1.
     999900   -1    0    0    0    0 -0.00000000000E+00 -0.00000000000E+00 -0.74505805969E-08  0.93827000000E+00  0.93827000000E+00 0. -1.
     999902    2    1    2    0    0  0.10015164809E-01 -0.21223281439E-01  0.16630896943E-02  0.10204034816E+01  0.10201322307E+01 0.  0.
     999903    2    3    3    0    0 -0.95398168787E-01  0.81338820341E-01 -0.15578012261E-01  0.12803124355E+00  0.20796888164E-01 0.  0.
         14    1    1    2    0    0 -0.10015164809E-01  0.21223281439E-01 -0.16630896943E-02  0.23526518411E-01  0.00000000000E+00 0. -1.
     999901    1    3    3    0    0  0.10541333360E+00 -0.10256210178E+00  0.17241101955E-01  0.89237223804E+00  0.88000000000E+00 0.  1.
        -11    1    4    4    0    0 -0.46593967659E-01  0.29406615656E-01 -0.13517708845E-01  0.56733909084E-01  0.51100000000E-03 0.  1.
         11    1    4    4    0    0 -0.48804201128E-01  0.51932204685E-01 -0.20603034160E-02  0.71297334469E-01  0.51100000000E-03 0. -1.
</event>
<event>
 8    1  0.5489035E+004  0.1043930E+01  0.7957747E-01            NaN
         13   -1    0    0    0    0  0.00000000000E+00  0.00000000000E+00  0.74505805969E-08  0.10566000000E+00  0.10566000000E+00 0.  1.
     999900   -1    0    0    0    0 -0.00000000000E+00 -0.00000000000E+00 -0.74505805969E-08  0.93827000000E+00  0.93827000000E+00 0.  1.
     999902    2    1    2    0    0  0.12022268107E-01  0.14690265801E-01  0.14039666564E-01  0.10203195981E+01  0.10200463868E+01 0.  0.
     999903    2    3    3    0    0  0.42442548378E-01  0.55698316827E-01 -0.10809525886E+00  0.13041848355E+00  0.20511544405E-01 0.  0.
         14    1    1    2    0    0 -0.12022268107E-01 -0.14690265801E-01 -0.14039666564E-01  0.23610401881E-01  0.00000000000E+00 0. -1.
     999901    1    3    3    0    0 -0.30420280271E-01 -0.41008051026E-01  0.12213492542E+00  0.88990111457E+00  0.88000000000E+00 0. -1.
        -11    1    4    4    0    0  0.15974307037E-01  0.20432214388E-01 -0.58860444410E-01  0.64323144414E-01  0.51100000000E-03 0.  1.
         11    1    4    4    0    0  0.26468241341E-01  0.35266102439E-01 -0.49234814449E-01  0.66095339138E-01  0.51100000000E-03 0. -1.
</event>
<event>
 8    1  0.5489035E+004  0.1043930E+01  0.7957747E-01            NaN
         13   -1    0    0    0    0  0.00000000000E+00  0.00000000000E+00  0.74505805969E-08  0.10566000000E+00  0.10566000000E+00 0.  1.
     999900   -1    0    0    0    0 -0.00000000000E+00 -0.00000000000E+00 -0.74505805969E-08  0.93827000000E+00  0.93827000000E+00 0. -1.
     999902    2    1    2    0    0  0.69600995775E-02  0.11341473586E-01 -0.17560837828E-01  0.10218969559E+01  0.10216594018E+01 0.  0.
     999903    2    3    3    0    0 -0.12342769763E+00  0.19880414149E-01  0.32550355095E-01  0.13083858357E+00  0.20726358208E-01 0.  0.
         14    1    1    2    0    0 -0.69600995775E-02 -0.11341473586E-01  0.17560837828E-01  0.22033044148E-01  0.00000000000E+00 0.  1.
     999901    1    3    3    0    0  0.13038779720E+00 -0.85389405627E-02 -0.50111192923E-01  0.89105837229E+00  0.88000000000E+00 0.  1.
        -11    1    4    4    0    0 -0.81464267069E-01  0.14140441806E-01  0.11309456383E-01  0.83453842502E-01  0.51100000000E-03 0.  1.
         11    1    4    4    0    0 -0.41963430557E-01  0.57399723425E-02  0.21240898712E-01  0.47384741064E-01  0.51100000000E-03 0. -1.
</event>
<event>
 8    1  0.5489035E+004  0.1043930E+01  0.7957747E-01            NaN
         13   -1    0    0    0    0  0.00000000000E+00  0.00000000000E+00  0.74505805969E-08  0.10566000000E+00  0.10566000000E+00 0.  1.
     999900   -1    0    0    0    0 -0.00000000000E+00 -0.00000000000E+00 -0.74505805969E-08  0.93827000000E+00  0.93827000000E+00 0. -1.
     999902    2    1    2    0    0  0.14026822731E-01  0.10317215749E-01 -0.16099139900E-01  0.10202154685E+01  0.10199398135E+01 0.  0.
     999903    2    3    3    0    0 -0.36900676694E-01  0.12348095950E+00  0.12599425518E-01  0.13104548999E+00  0.20123807378E-01 0.  0.
         14    1    1    2    0    0 -0.14026822731E-01 -0.10317215749E-01  0.16099139900E-01  0.23714531458E-01  0.00000000000E+00 0.  1.
     999901    1    3    3    0    0  0.50927499425E-01 -0.11316374375E+00 -0.28698565418E-01  0.88916997855E+00  0.88000000000E+00 0. -1.
        -11    1    4    4    0    0 -0.22200865900E-01  0.87249394212E-01  0.22662892701E-03  0.90031370748E-01  0.51100000000E-03 0. -1.
         11    1    4    4    0    0 -0.14699810794E-01  0.36231565291E-01  0.12372796591E-01  0.41014119243E-01  0.51100000000E-03 0.  1.
</event>
<event>
 8    1  0.5489035E+004  0.1043930E+01  0.7957747E-01            NaN
         13   -1    0    0    0    0  0.00000000000E+00  0.00000000000E+00  0.74505805969E-08  0.10566000000E+00  0.10566000000E+00 0. -1.
     999900   -1    0    0    0    0 -0.00000000000E+00 -0.00000000000E+00 -0.74505805969E-08  0.93827000000E+00  0.93827000000E+00 0. -1.
     999902    2    1    2    0    0  0.88267586821E-02  0.15072228179E-01 -0.15929396826E-01  0.10202904269E+01  0.10200165322E+01 0.  0.
     999903    2    3    3    0    0 -0.67866219695E-01  0.82180943220E-01  0.71872404405E-01  0.13006879787E+00  0.19817125435E-01 0.  0.
         14    1    1    2    0    0 -0.88267586821E-02 -0.15072228179E-01  0.15929396826E-01  0.23639573058E-01  0.00000000000E+00 0. -1.
     999901    1    3    3    0    0  0.76692978377E-01 -0.67108715041E-01 -0.87801801231E-01  0.89022162907E+00  0.88000000000E+00 0. -1.
        -11    1    4    4    0    0 -0.17757565682E-01  0.15926822181E-01  0.76108211466E-02  0.25043572494E-01  0.51100000000E-03 0. -1.
         11    1    4    4    0    0 -0.50108654013E-01  0.66254121039E-01  0.64261583258E-01  0.10502522538E+00  0.51100000000E-03 0.  1.
</event>
<event>
 8    1  0.5489035E+004  0.1043930E+01  0.7957747E-01            NaN
         13   -1    0    0    0    0  0.00000000000E+00  0.00000000000E+00  0.74505805969E-08  0.10566000000E+00  0.10566000000E+00 0.  1.
     999900   -1    0    0    0    0 -0.00000000000E+00 -0.00000000000E+00 -0.74505805969E-08  0.93827000000E+00  0.93827000000E+00 0. -1.
     999902    2    1    2    0    0  0.14118976864E-01 -0.18786542159E-01  0.41937966608E-02  0.10200581001E+01  0.10197787309E+01 0.  0.
     999903    2    3    3    0    0 -0.63986398305E-01  0.45134076766E-01 -0.99810236285E-01  0.12820433742E+00  0.18518229193E-01 0.  0.
         14    1    1    2    0    0 -0.14118976864E-01  0.18786542159E-01 -0.41937966608E-02  0.23871899891E-01  0.00000000000E+00 0.  1.
     999901    1    3    3    0    0  0.78105375168E-01 -0.63920618925E-01  0.10400403295E+00  0.89185376269E+00  0.88000000000E+00 0.  1.
        -11    1    4    4    0    0 -0.61180522567E-01  0.43016971880E-01 -0.86131499625E-01  0.11407196220E+00  0.51100000000E-03 0. -1.
         11    1    4    4    0    0 -0.28058757375E-02  0.21171048854E-02 -0.13678736661E-01  0.14132375221E-01  0.51100000000E-03 0.  1.
</event>
<event>
 8    1  0.5489035E+004  0.1043930E+01  0.7957747E-01            NaN
         13   -1    0    0    0    0  0.00000000000E+00  0.00000000000E+00  0.74505805969E-08  0.10566000000E+00  0.10566000000E+00 0.  1.
     999900   -1    0    0    0    0 -0.00000000000E+00 -0.00000000000E+00 -0.74505805969E-08  0.93827000000E+00  0.93827000000E+00 0. -1.
     999902    2    1    2    0    0  0.95543177588E-02  0.76927835783E-02 -0.19971137227E-01  0.10204926318E+01  0.10202234565E+01 0.  0.
     999903    2    3    3    0    0  0.20439702401E-01 -0.21156911217E-01  0.12332927339E+00  0.12836831075E+00  0.20072797625E-01 0.  0.
         14    1    1    2    0    0 -0.95543177588E-02 -0.76927835783E-02  0.19971137227E-01  0.23437368221E-01  0.00000000000E+00 0.  1.
     999901    1    3    3    0    0 -0.10885384642E-01  0.28849694796E-01 -0.14330041061E+00  0.89212432103E+00  0.88000000000E+00 0. -1.
        -11    1    4    4    0    0  0.16020558900E-01 -0.23448697619E-02  0.60622636062E-01  0.62749676061E-01  0.51100000000E-03 0.  1.
         11    1    4    4    0    0  0.44191435014E-02 -0.18812041456E-01  0.62706637324E-01  0.65618634689E-01  0.51100000000E-03 0. -1.
</event>
<event>
 8    1  0.5489035E+004  0.1043930E+01  0.7957747E-01            NaN
         13   -1    0    0    0    0  0.00000000000E+00  0.00000000000E+00  0.74505805969E-08  0.10566000000E+00  0.10566000000E+00 0.  1.
     999900   -1    0    0    0    0 -0.00000000000E+00 -0.00000000000E+00 -0.74505805969E-08  0.93827000000E+00  0.93827000000E+00 0. -1.
     999902    2    1    2    0    0  0.13496743333E-01 -0.95594283052E-02  0.22498931728E-01  0.10160060555E+01  0.10156222516E+01 0.  0.
     999903    2    3    3    0    0  0.71141229223E-01  0.48284429633E-01 -0.88886797171E-01  0.12523359334E+00  0.19751697387E-01 0.  0.
         14    1    1    2    0    0 -0.13496743333E-01  0.95594283052E-02 -0.22498931728E-01  0.27923944546E-01  0.00000000000E+00 0. -1.
     999901    1    3    3    0    0 -0.57644485890E-01 -0.57843857938E-01  0.11138572890E+00  0.89077246211E+00  0.88000000000E+00 0.  1.
        -11    1    4    4    0    0  0.44498862182E-01  0.20869628470E-01 -0.41363535805E-01  0.64240900860E-01  0.51100000000E-03 0.  1.
         11    1    4    4    0    0  0.26642367041E-01  0.27414801164E-01 -0.47523261366E-01  0.60992692482E-01  0.51100000000E-03 0. -1.
</event>
<event>
 8    1  0.5489035E+004  0.1043930E+01  0.7957747E-01            NaN
         13   -1    0    0    0    0  0.00000000000E+00  0.00000000000E+00  0.74505805969E-08  0.10566000000E+00  0.10566000000E+00 0.  1.
     999900   -1    0    0    0    0 -0.00000000000E+00 -0.00000000000E+00 -0.74505805969E-08  0.93827000000E+00  0.93827000000E+00 0. -1.
     999902    2    1    2    0    0  0.15194125815E-01  0.17485839443E-01 -0.50220852047E-02  0.10202268909E+01  0.10199515045E+01 0.  0.
     999903    2    3    3    0    0 -0.48526949381E-01  0.95378420880E-01 -0.74280351665E-01  0.13178762055E+00  0.19962422199E-01 0.  0.
         14    1    1    2    0    0 -0.15194125815E-01 -0.17485839443E-01  0.50220852047E-02  0.23703109081E-01  0.00000000000E+00 0. -1.
     999901    1    3    3    0    0  0.63721075196E-01 -0.77892581437E-01  0.69258266460E-01  0.88843927037E+00  0.88000000000E+00 0. -1.
        -11    1    4    4    0    0 -0.21948182000E-02  0.20578248375E-01 -0.17110369198E-01  0.26857166422E-01  0.51100000000E-03 0. -1.
         11    1    4    4    0    0 -0.46332131181E-01  0.74800172505E-01 -0.57169982467E-01  0.10493045413E+00  0.51100000000E-03 0.  1.
</event>
<event>
 8    1  0.5489035E+004  0.1043930E+01  0.7957747E-01            NaN
         13   -1    0    0    0    0  0.00000000000E+00  0.00000000000E+00  0.74505805969E-08  0.10566000000E+00  0.10566000000E+00 0.  1.
     999900   -1    0    0    0    0 -0.00000000000E+00 -0.00000000000E+00 -0.74505805969E-08  0.93827000000E+00  0.93827000000E+00 0. -1.
     999902    2    1    2    0    0 -0.16584167678E-01  0.65229609466E-02 -0.16216423206E-01  0.10198352699E+01  0.10195505979E+01 0.  0.
     999903    2    3    3    0    0 -0.12902809543E-01 -0.12617533635E+00 -0.20983154758E-01  0.12986610626E+00  0.18390616414E-01 0.  0.
         14    1    1    2    0    0  0.16584167678E-01 -0.65229609466E-02  0.16216423206E-01  0.24094730102E-01  0.00000000000E+00 0.  1.
     999901    1    3    3    0    0 -0.36813581351E-02  0.13269829730E+00  0.47667315518E-02  0.88996916364E+00  0.88000000000E+00 0. -1.
        -11    1    4    4    0    0 -0.16793664816E-01 -0.80217953986E-01 -0.15577268834E-01  0.83425773865E-01  0.51100000000E-03 0.  1.
         11    1    4    4    0    0  0.38908552726E-02 -0.45957382368E-01 -0.54058859239E-02  0.46440332390E-01  0.51100000000E-03 0. -1.
</event>
<event>
 7    1  0.5489035E+004  0.1043930E+01  0.7957747E-01            NaN
         13   -1    0    0    0    0  0.00000000000E+00  0.00000000000E+00  0.74505805969E-08  0.10566000000E+00  0.10566000000E+00 0. -1.
     999900   -1    0    0    0    0 -0.00000000000E+00 -0.00000000000E+00 -0.74505805969E-08  0.93827000000E+00  0.93827000000E+00 0. -1.
     999902    2    1    2    0    0 -0.95253129798E-03  0.91048766435E-02 -0.23916651252E-01  0.10183211675E+01  0.10179991100E+01 0.  0.
         14    1    1    2    0    0  0.95253129798E-03 -0.91048766435E-02  0.23916651252E-01  0.25608832493E-01  0.00000000000E+00 0. -1.
     999901    1    3    3    0    0  0.51945521022E-01  0.98718974333E-01 -0.32368317198E-01  0.88763251462E+00  0.88000000000E+00 0.  1.
        -11    1    3    3    0    0  0.18156262422E-01 -0.94707641099E-02 -0.86300233972E-02  0.22227992774E-01  0.51100000000E-03 0. -1.
         11    1    3    3    0    0 -0.71054314742E-01 -0.80143333580E-01  0.17081689343E-01  0.10846066011E+00  0.51100000000E-03 0.  1.
</event>
<event>
 8    1  0.5489035E+004  0.1043930E+01  0.7957747E-01            NaN
         13   -1    0    0    0    0  0.00000000000E+00  0.00000000000E+00  0.74505805969E-08  0.10566000000E+00  0.10566000000E+00 0.  1.
     999900   -1    0    0    0    0 -0.00000000000E+00 -0.00000000000E+00 -0.74505805969E-08  0.93827000000E+00  0.93827000000E+00 0. -1.
     999902    2    1    2    0    0  0.19216788593E-01 -0.34349866357E-02 -0.10035531516E-01  0.10219801483E+01  0.10217444042E+01 0.  0.
     999903    2    3    3    0    0 -0.60920516652E-01  0.11323640382E+00  0.87448107736E-02  0.13047193055E+00  0.20314045576E-01 0.  0.
         14    1    1    2    0    0 -0.19216788593E-01  0.34349866357E-02  0.10035531516E-01  0.21949851704E-01  0.00000000000E+00 0. -1.
     999901    1    3    3    0    0  0.80137305245E-01 -0.11667139046E+00 -0.18780342290E-01  0.89150821774E+00  0.88000000000E+00 0.  1.
        -11    1    4    4    0    0 -0.53980317705E-01  0.89014348722E-01  0.13001914527E-01  0.10491301102E+00  0.51100000000E-03 0. -1.
         11    1    4    4    0    0 -0.69401989473E-02  0.24222055100E-01 -0.42571037532E-02  0.25558919540E-01  0.51100000000E-03 0.  1.
</event>
<event>
 8    1  0.5489035E+004  0.1043930E+01  0.7957747E-01            NaN
         13   -1    0    0    0    0  0.00000000000E+00  0.00000000000E+00  0.74505805969E-08  0.10566000000E+00  0.10566000000E+00 0. -1.
     999900   -1    0    0    0    0 -0.00000000000E+00 -0.00000000000E+00 -0.74505805969E-08  0.93827000000E+00  0.93827000000E+00 0.  1.
     999902    2    1    2    0    0 -0.16372840472E-02 -0.19071227935E-01 -0.15828872174E-01  0.10190916098E+01  0.10187888709E+01 0.  0.
     999903    2    3    3    0    0  0.19869267419E-01  0.33637875547E-01  0.11912821650E+00  0.12698500342E+00  0.20183276920E-01 0.  0.
         14    1    1    2    0    0  0.16372840472E-02  0.19071227935E-01  0.15828872174E-01  0.24838390211E-01  0.00000000000E+00 0.  1.
     999901    1    3    3    0    0 -0.21506551466E-01 -0.52709103481E-01 -0.13495708868E+00  0.89210660637E+00  0.88000000000E+00 0.  1.
        -11    1    4    4    0    0  0.47154182562E-02  0.85868564203E-02  0.62183984367E-01  0.62952984880E-01  0.51100000000E-03 0.  1.
         11    1    4    4    0    0  0.15153849162E-01  0.25051019127E-01  0.56944232134E-01  0.64032018538E-01  0.51100000000E-03 0. -1.
</event>
<event>
 7    1  0.5489035E+004  0.1043930E+01  0.7957747E-01            NaN
         13   -1    0    0    0    0  0.00000000000E+00  0.00000000000E+00  0.74505805969E-08  0.10566000000E+00  0.10566000000E+00 0. -1.
     999900   -1    0    0    0    0 -0.00000000000E+00 -0.00000000000E+00 -0.74505805969E-08  0.93827000000E+00  0.93827000000E+00 0. -1.
     999903    2    1    2    0    0 -0.43187196094E-01 -0.63685159843E-01  0.46651390116E-01  0.92250039973E-01  0.20317090949E-01 0.  0.
         14    1    1    2    0    0 -0.29656554656E-01 -0.29176183200E-01  0.42332145957E-01  0.59352939957E-01  0.00000000000E+00 0. -1.
     999901    1    1    2    0    0  0.72843750750E-01  0.92861343043E-01 -0.88983536073E-01  0.89232702007E+00  0.88000000000E+00 0. -1.
        -11    1    3    3    0    0 -0.29092974936E-01 -0.25551217101E-01  0.19472538887E-01  0.43344051237E-01  0.51100000000E-03 0.  1.
         11    1    3    3    0    0 -0.14094221158E-01 -0.38133942742E-01  0.27178851229E-01  0.48905988736E-01  0.51100000000E-03 0. -1.
</event>
<event>
 8    1  0.5489035E+004  0.1043930E+01  0.7957747E-01            NaN
         13   -1    0    0    0    0  0.00000000000E+00  0.00000000000E+00  0.74505805969E-08  0.10566000000E+00  0.10566000000E+00 0.  1.
     999900   -1    0    0    0    0 -0.00000000000E+00 -0.00000000000E+00 -0.74505805969E-08  0.93827000000E+00  0.93827000000E+00 0.  1.
     999902    2    1    2    0    0 -0.11016003135E-01  0.27829071910E-01  0.13847690993E-01  0.10109517024E+01  0.10104136660E+01 0.  0.
     999903    2    3    3    0    0 -0.31416425368E-01  0.12011546458E+00  0.44172980039E-02  0.12584047331E+00  0.20039849984E-01 0.  0.
         14    1    1    2    0    0  0.11016003135E-01 -0.27829071910E-01 -0.13847690993E-01  0.32978297625E-01  0.00000000000E+00 0. -1.
     999901    1    3    3    0    0  0.20400422234E-01 -0.92286392672E-01  0.94303929889E-02  0.88511122906E+00  0.88000000000E+00 0. -1.
        -11    1    4    4    0    0 -0.11214460844E-01  0.18300118995E-01  0.49731753628E-02  0.22037515319E-01  0.51100000000E-03 0. -1.
         11    1    4    4    0    0 -0.20201964524E-01  0.10181534559E+00 -0.55587735896E-03  0.10380295799E+00  0.51100000000E-03 0.  1.
</event>
<event>
 8    1  0.5489035E+004  0.1043930E+01  0.7957747E-01            NaN
         13   -1    0    0    0    0  0.00000000000E+00  0.00000000000E+00  0.74505805969E-08  0.10566000000E+00  0.10566000000E+00 0.  1.
     999900   -1    0    0    0    0 -0.00000000000E+00 -0.00000000000E+00 -0.74505805969E-08  0.93827000000E+00  0.93827000000E+00 0.  1.
     999902    2    1    2    0    0 -0.19637662327E-01  0.76104727816E-03  0.13520202606E-01  0.10200760097E+01  0.10197970645E+01 0.  0.
     999903    2    3    3    0    0  0.49849939287E-01  0.10589193241E+00  0.53405446901E-01  0.13020418607E+00  0.20071634550E-01 0.  0.
         14    1    1    2    0    0  0.19637662327E-01 -0.76104727816E-03 -0.13520202606E-01  0.23853990298E-01  0.00000000000E+00 0. -1.
     999901    1    3    3    0    0 -0.69487601615E-01 -0.10513088513E+00 -0.39885244295E-01  0.88987182364E+00  0.88000000000E+00 0.  1.
        -11    1    4    4    0    0  0.35476957118E-01  0.92244068821E-01  0.46328666122E-01  0.10915213761E+00  0.51100000000E-03 0.  1.
         11    1    4    4    0    0  0.14372982169E-01  0.13647863591E-01  0.70767807789E-02  0.21052048457E-01  0.51100000000E-03 0. -1.
</event>
<event>
 8    1  0.5489035E+004  0.1043930E+01  0.7957747E-01            NaN
         13   -1    0    0    0    0  0.00000000000E+00  0.00000000000E+00  0.74505805969E-08  0.10566000000E+00  0.10566000000E+00 0.  1.
     999900   -1    0    0    0    0 -0.00000000000E+00 -0.00000000000E+00 -0.74505805969E-08  0.93827000000E+00  0.93827000000E+00 0. -1.
     999902    2    1    2    0    0 -0.53616853074E-02 -0.22627188217E-01 -0.18084090059E-03  0.10206755376E+01  0.10204105954E+01 0.  0.
     999903    2    3    3    0    0  0.65641774783E-01  0.10364826134E+00 -0.33322791059E-01  0.12821524757E+00  0.16641413092E-01 0.  0.
         14    1    1    2    0    0  0.53616853074E-02  0.22627188217E-01  0.18084090059E-03  0.23254462354E-01  0.00000000000E+00 0.  1.
     999901    1    3    3    0    0 -0.71003460090E-01 -0.12627544956E+00  0.33141950159E-01  0.89246029008E+00  0.88000000000E+00 0. -1.
        -11    1    4    4    0    0  0.36899890492E-01  0.72866482243E-01 -0.22876356650E-01  0.84821665672E-01  0.51100000000E-03 0. -1.
         11    1    4    4    0    0  0.28741884291E-01  0.30781779097E-01 -0.10446434410E-01  0.43393581897E-01  0.51100000000E-03 0.  1.
</event>
<event>
 8    1  0.5489035E+004  0.1043930E+01  0.7957747E-01            NaN
         13   -1    0    0    0    0  0.00000000000E+00  0.00000000000E+00  0.74505805969E-08  0.10566000000E+00  0.10566000000E+00 0. -1.
     999900   -1    0    0    0    0 -0.00000000000E+00 -0.00000000000E+00 -0.74505805969E-08  0.93827000000E+00  0.93827000000E+00 0. -1.
     999902    2    1    2    0    0 -0.52011872719E-02 -0.12982031699E-02 -0.21550595700E-01  0.10217226621E+01  0.10214812932E+01 0.  0.
     999903    2    3    3    0    0  0.98288863601E-01  0.49726490583E-01  0.65900960760E-01  0.12989224959E+00  0.19890583186E-01 0.  0.
         14    1    1    2    0    0  0.52011872719E-02  0.12982031699E-02  0.21550595700E-01  0.22207337876E-01  0.00000000000E+00 0. -1.
     999901    1    3    3    0    0 -0.10349005087E+00 -0.51024693753E-01 -0.87451556460E-01  0.89183041254E+00  0.88000000000E+00 0.  1.
        -11    1    4    4    0    0  0.46235818185E-01  0.28664734911E-01  0.22292326438E-01  0.58793085050E-01  0.51100000000E-03 0.  1.
         11    1    4    4    0    0  0.52053045417E-01  0.21061755673E-01  0.43608634322E-01  0.71099164535E-01  0.51100000000E-03 0. -1.
</event>
<event>
 8    1  0.5489035E+004  0.1043930E+01  0.7957747E-01            NaN
         13   -1    0    0    0    0  0.00000000000E+00  0.00000000000E+00  0.74505805969E-08  0.10566000000E+00  0.10566000000E+00 0.  1.
     999900   -1    0    0    0    0 -0.00000000000E+00 -0.00000000000E+00 -0.74505805969E-08  0.93827000000E+00  0.93827000000E+00 0.  1.
     999902    2    1    2    0    0  0.10982313402E-01 -0.13098187525E-01  0.14394965473E-01  0.10215829923E+01  0.10213385439E+01 0.  0.
     999903    2    3    3    0    0 -0.10930225040E+00 -0.40190873550E-01  0.57893428074E-01  0.13192322236E+00  0.22131410378E-01 0.  0.
         14    1    1    2    0    0 -0.10982313402E-01  0.13098187525E-01 -0.14394965473E-01  0.22347007743E-01  0.00000000000E+00 0. -1.
     999901    1    3    3    0    0  0.12028456380E+00  0.27092686025E-01 -0.43498462602E-01  0.88965976990E+00  0.88000000000E+00 0.  1.
        -11    1    4    4    0    0 -0.24611093023E-01 -0.19249592788E-01  0.16950565147E-01  0.35550464162E-01  0.51100000000E-03 0.  1.
         11    1    4    4    0    0 -0.84691157372E-01 -0.20941280762E-01  0.40942862928E-01  0.96372758198E-01  0.51100000000E-03 0. -1.
</event>
<event>
 8    1  0.5489035E+004  0.1043930E+01  0.7957747E-01            NaN
         13   -1    0    0    0    0  0.00000000000E+00  0.00000000000E+00  0.74505805969E-08  0.10566000000E+00  0.10566000000E+00 0.  1.
     999900   -1    0    0    0    0 -0.00000000000E+00 -0.00000000000E+00 -0.74505805969E-08  0.93827000000E+00  0.93827000000E+00 0. -1.
     999902    2    1    2    0    0 -0.59011721669E-02  0.55214486861E-02  0.20796290437E-01  0.10216186593E+01  0.10213749992E+01 0.  0.
     999903    2    3    3    0    0 -0.68865387794E-01 -0.10867505739E+00 -0.17500679310E-01  0.13118506135E+00  0.18722628283E-01 0.  0.
         14    1    1    2    0    0  0.59011721669E-02 -0.55214486861E-02 -0.20796290437E-01  0.22311340715E-01  0.00000000000E+00 0. -1.
     999901    1    3    3    0    0  0.62964215627E-01  0.11419650607E+00  0.38296969748E-01  0.89043359794E+00  0.88000000000E+00 0.  1.
        -11    1    4    4    0    0 -0.14457268736E-01 -0.11098253411E-01 -0.38190673005E-02  0.18628747787E-01  0.51100000000E-03 0.  1.
         11    1    4    4    0    0 -0.54408119058E-01 -0.97576803976E-01 -0.13681612010E-01  0.11255631356E+00  0.51100000000E-03 0. -1.
</event>
<event>
 8    1  0.5489035E+004  0.1043930E+01  0.7957747E-01            NaN
         13   -1    0    0    0    0  0.00000000000E+00  0.00000000000E+00  0.74505805969E-08  0.10566000000E+00  0.10566000000E+00 0. -1.
     999900   -1    0    0    0    0 -0.00000000000E+00 -0.00000000000E+00 -0.74505805969E-08  0.93827000000E+00  0.93827000000E+00 0.  1.
     999902    2    1    2    0    0  0.17371419005E-02 -0.22558398070E-01 -0.50901370240E-02  0.10207393019E+01  0.10204758272E+01 0.  0.
     999903    2    3    3    0    0 -0.16185649583E-01 -0.77651059761E-01 -0.10501386991E+00  0.13319145513E+00  0.20503378078E-01 0.  0.
         14    1    1    2    0    0 -0.17371419005E-02  0.22558398070E-01  0.50901370240E-02  0.23190698144E-01  0.00000000000E+00 0.  1.
     999901    1    3    3    0    0  0.17922791483E-01  0.55092661690E-01  0.99923732887E-01  0.88754784672E+00  0.88000000000E+00 0. -1.
        -11    1    4    4    0    0 -0.64657342122E-02 -0.49255352303E-01 -0.49788338328E-01  0.70335163353E-01  0.51100000000E-03 0.  1.
         11    1    4    4    0    0 -0.97199153706E-02 -0.28395707457E-01 -0.55225531583E-01  0.62856291781E-01  0.51100000000E-03 0. -1.
</event>
<event>
 8    1  0.5489035E+004  0.1043930E+01  0.7957747E-01            NaN
         13   -1    0    0    0    0  0.00000000000E+00  0.00000000000E+00  0.74505805969E-08  0.10566000000E+00  0.10566000000E+00 0.  1.
     999900   -1    0    0    0    0 -0.00000000000E+00 -0.00000000000E+00 -0.74505805969E-08  0.93827000000E+00  0.93827000000E+00 0. -1.
     999902    2    1    2    0    0  0.44996707068E-02 -0.21955196427E-01 -0.40188287580E-02  0.10211609712E+01  0.10209070969E+01 0.  0.
     999903    2    3    3    0    0 -0.39998919387E-01  0.70349529552E-01 -0.99825798596E-01  0.13004971980E+00  0.19969218653E-01 0.  0.
         14    1    1    2    0    0 -0.44996707068E-02  0.21955196427E-01  0.40188287580E-02  0.22769028772E-01  0.00000000000E+00 0. -1.
     999901    1    3    3    0    0  0.44498590093E-01 -0.92304725979E-01  0.95806969838E-01  0.89111125143E+00  0.88000000000E+00 0. -1.
        -11    1    4    4    0    0 -0.30403068573E-01  0.56299337963E-01 -0.64591549203E-01  0.90919147506E-01  0.51100000000E-03 0. -1.
         11    1    4    4    0    0 -0.95958508132E-02  0.14050191588E-01 -0.35234249393E-01  0.39130572290E-01  0.51100000000E-03 0.  1.
</event>
<event>
 8    1  0.5489035E+004  0.1043930E+01  0.7957747E-01            NaN
         13   -1    0    0    0    0  0.00000000000E+00  0.00000000000E+00  0.74505805969E-08  0.10566000000E+00  0.10566000000E+00 0.  1.
     999900   -1    0    0    0    0 -0.00000000000E+00 -0.00000000000E+00 -0.74505805969E-08  0.93827000000E+00  0.93827000000E+00 0.  1.
     999902    2    1    2    0    0  0.44808128629E-02 -0.23589152933E-01 -0.22044862680E-02  0.10198180615E+01  0.10195329778E+01 0.  0.
     999903    2    3    3    0    0 -0.10609455104E-01  0.78723563588E-02  0.12740564584E+00  0.12964036623E+00  0.19997285608E-01 0.  0.
         14    1    1    2    0    0 -0.44808128629E-02  0.23589152933E-01  0.22044862680E-02  0.24111938531E-01  0.00000000000E+00 0.  1.
     999901    1    3    3    0    0  0.15090267967E-01 -0.31461509292E-01 -0.12961013211E+00  0.89017769524E+00  0.88000000000E+00 0.  1.
        -11    1    4    4    0    0  0.46959760271E-02 -0.17398753637E-02  0.15885583452E-01  0.16664100328E-01  0.51100000000E-03 0.  1.
         11    1    4    4    0    0 -0.15305431131E-01  0.96122317225E-02  0.11152006239E+00  0.11297626590E+00  0.51100000000E-03 0. -1.
</event>
<event>
 8    1  0.5489035E+004  0.1043930E+01  0.7957747E-01            NaN
         13   -1    0    0    0    0  0.00000000000E+00  0.00000000000E+00  0.74505805969E-08  0.10566000000E+00  0.10566000000E+00 0.  1.
     999900   -1    0    0    0    0 -0.00000000000E+00 -0.00000000000E+00 -0.74505805969E-08  0.93827000000E+00  0.93827000000E+00 0.  1.
     999902    2    1    2    0    0  0.18538776778E-01  0.94715016526E-03  0.13760823815E-01  0.10208227801E+01  0.10205612205E+01 0.  0.
     999903    2    3    3    0    0  0.10020505288E+00  0.20441912359E-01 -0.80692668554E-01  0.13179472173E+00  0.19990435592E-01 0.  0.
         14    1    1    2    0    0 -0.18538776778E-01 -0.94715016526E-03 -0.13760823815E-01  0.23107219866E-01  0.00000000000E+00 0. -1.
     999901    1    3    3    0    0 -0.81666276099E-01 -0.19494762194E-01  0.94453492369E-01  0.88902805840E+00  0.88000000000E+00 0.  1.
        -11    1    4    4    0    0  0.88727038725E-01  0.17720373194E-01 -0.61998457837E-01  0.10968395016E+00  0.51100000000E-03 0. -1.
         11    1    4    4    0    0  0.11478014152E-01  0.27215391648E-02 -0.18694210717E-01  0.22110771575E-01  0.51100000000E-03 0.  1.
</event>
<event>
 8    1  0.5489035E+004  0.1043930E+01  0.7957747E-01            NaN
         13   -1    0    0    0    0  0.00000000000E+00  0.00000000000E+00  0.74505805969E-08  0.10566000000E+00  0.10566000000E+00 0.  1.
     999900   -1    0    0    0    0 -0.00000000000E+00 -0.00000000000E+00 -0.74505805969E-08  0.93827000000E+00  0.93827000000E+00 0.  1.
     999902    2    1    2    0    0 -0.30472804031E-01  0.39052974533E-02 -0.14003264436E-01  0.10101670832E+01  0.10096026949E+01 0.  0.
     999903    2    3    3    0    0 -0.49988124145E-01 -0.40373493223E-02 -0.11203044188E+00  0.12447342238E+00  0.20680914511E-01 0.  0.
         14    1    1    2    0    0  0.30472804031E-01 -0.39052974533E-02  0.14003264436E-01  0.33762916767E-01  0.00000000000E+00 0.  1.
     999901    1    3    3    0    0  0.19515320113E-01  0.79426467756E-02  0.98027177449E-01  0.88569366085E+00  0.88000000000E+00 0. -1.
        -11    1    4    4    0    0 -0.45626582263E-01 -0.16862543938E-02 -0.80466879533E-01  0.92519231977E-01  0.51100000000E-03 0.  1.
         11    1    4    4    0    0 -0.43615418816E-02 -0.23510949285E-02 -0.31563562352E-01  0.31954190403E-01  0.51100000000E-03 0. -1.
</event>
<event>
 8    1  0.5489035E+004  0.1043930E+01  0.7957747E-01            NaN
         13   -1    0    0    0    0  0.00000000000E+00  0.00000000000E+00  0.74505805969E-08  0.10566000000E+00  0.10566000000E+00 0.  1.
     999900   -1    0    0    0    0 -0.00000000000E+00 -0.00000000000E+00 -0.74505805969E-08  0.93827000000E+00  0.93827000000E+00 0. -1.
     999902    2    1    2    0    0  0.20029818698E-01  0.12234620014E-01  0.14472907107E-02  0.10204145962E+01  0.10201436046E+01 0.  0.
     999903    2    3    3    0    0 -0.26064031665E-01  0.12192939602E+00 -0.36636059989E-01  0.13159069437E+00  0.20683292609E-01 0.  0.
         14    1    1    2    0    0 -0.20029818698E-01 -0.12234620014E-01 -0.14472907107E-02  0.23515403768E-01  0.00000000000E+00 0. -1.
     999901    1    3    3    0    0  0.46093850362E-01 -0.10969477600E+00  0.38083350700E-01  0.88882390186E+00  0.88000000000E+00 0.  1.
        -11    1    4    4    0    0 -0.93505951241E-02  0.61472909393E-01 -0.82021654495E-02  0.62720721118E-01  0.51100000000E-03 0. -1.
         11    1    4    4    0    0 -0.16713436540E-01  0.60456486624E-01 -0.28433894539E-01  0.68869973251E-01  0.51100000000E-03 0.  1.
</event>
<event>
 8    1  0.5489035E+004  0.1043930E+01  0.7957747E-01            NaN
         13   -1    0    0    0    0  0.00000000000E+00  0.00000000000E+00  0.74505805969E-08  0.10566000000E+00  0.10566000000E+00 0.  1.
     999900   -1    0    0    0    0 -0.00000000000E+00 -0.00000000000E+00 -0.74505805969E-08  0.93827000000E+00  0.93827000000E+00 0.  1.
     999902    2    1    2    0    0 -0.11867875738E-01  0.10777631763E-01 -0.20886125289E-01  0.10176006618E+01  0.10172599829E+01 0.  0.
     999903    2    3    3    0    0  0.64650924103E-01 -0.47161689667E-01  0.93208054187E-01  0.12505958515E+00  0.23413489992E-01 0.  0.
         14    1    1    2    0    0  0.11867875738E-01 -0.10777631763E-01  0.20886125289E-01  0.26329338209E-01  0.00000000000E+00 0.  1.
     999901    1    3    3    0    0 -0.76518799841E-01  0.57939321430E-01 -0.11409417948E+00  0.89254107664E+00  0.88000000000E+00 0.  1.
        -11    1    4    4    0    0  0.22672232780E-01 -0.67128174104E-02  0.17076943332E-01  0.29171478731E-01  0.51100000000E-03 0.  1.
         11    1    4    4    0    0  0.41978691323E-01 -0.40448872256E-01  0.76131110855E-01  0.95888106421E-01  0.51100000000E-03 0. -1.
</event>
<event>
 7    1  0.5489035E+004  0.1043930E+01  0.7957747E-01            NaN
         13   -1    0    0    0    0  0.00000000000E+00  0.00000000000E+00  0.74505805969E-08  0.10566000000E+00  0.10566000000E+00 0.  1.
     999900   -1    0    0    0    0 -0.00000000000E+00 -0.00000000000E+00 -0.74505805969E-08  0.93827000000E+00  0.93827000000E+00 0.  1.
     999903    2    1    2    0    0  0.29091540067E-01 -0.92508126157E-01 -0.68256872161E-01  0.12019010709E+00  0.19559911480E-01 0.  0.
         14    1    1    2    0    0 -0.18468568099E-01  0.16376844742E-01  0.30968618709E-01  0.39602328165E-01  0.00000000000E+00 0.  1.
     999901    1    1    2    0    0 -0.10622971968E-01  0.76131281414E-01  0.37288253452E-01  0.88413756474E+00  0.88000000000E+00 0.  1.
        -11    1    3    3    0    0  0.71147204601E-02 -0.45537264278E-01 -0.23757940533E-01  0.51855207497E-01  0.51100000000E-03 0.  1.
         11    1    3    3    0    0  0.21976819607E-01 -0.46970861878E-01 -0.44498931629E-01  0.68334899596E-01  0.51100000000E-03 0. -1.
</event>
<event>
 8    1  0.5489035E+004  0.1043930E+01  0.7957747E-01            NaN
         13   -1    0    0    0    0  0.00000000000E+00  0.00000000000E+00  0.74505805969E-08  0.10566000000E+00  0.10566000000E+00 0.  1.
     999900   -1    0    0    0    0 -0.00000000000E+00 -0.00000000000E+00 -0.74505805969E-08  0.93827000000E+00  0.93827000000E+00 0. -1.
     999902    2    1    2    0    0 -0.21581330991E-01  0.69811159772E-02  0.71404095555E-02  0.10201502759E+01  0.10198730854E+01 0.  0.
     999903    2    3    3    0    0 -0.13509403935E-01 -0.87005622131E-01 -0.92746093244E-01  0.12948986008E+00  0.20329873933E-01 0.  0.
         14    1    1    2    0    0  0.21581330991E-01 -0.69811159772E-02 -0.71404095555E-02  0.23779724057E-01  0.00000000000E+00 0.  1.
     999901    1    3    3    0    0 -0.80719270554E-02  0.93986738108E-01  0.99886502799E-01  0.89066041586E+00  0.88000000000E+00 0.  1.
        -11    1    4    4    0    0 -0.25636880826E-02 -0.62823383255E-01 -0.73341916101E-01  0.96605630056E-01  0.51100000000E-03 0.  1.
         11    1    4    4    0    0 -0.10945715853E-01 -0.24182238876E-01 -0.19404177143E-01  0.32884230023E-01  0.51100000000E-03 0. -1.
</event>
<event>
 8    1  0.5489035E+004  0.1043930E+01  0.7957747E-01            NaN
         13   -1    0    0    0    0  0.00000000000E+00  0.00000000000E+00  0.74505805969E-08  0.10566000000E+00  0.10566000000E+00 0.  1.
     999900   -1    0    0    0    0 -0.00000000000E+00 -0.00000000000E+00 -0.74505805969E-08  0.93827000000E+00  0.93827000000E+00 0.  1.
     999902    2    1    2    0    0  0.20214908743E-01 -0.99135527086E-02  0.55244934123E-02  0.10207472243E+01  0.10204839317E+01 0.  0.
     999903    2    3    3    0    0 -0.23932028781E-02 -0.12403967686E+00 -0.40450129407E-01  0.13189990056E+00  0.19230235150E-01 0.  0.
         14    1    1    2    0    0 -0.20214908743E-01  0.99135527086E-02 -0.55244934123E-02  0.23182775724E-01  0.00000000000E+00 0.  1.
     999901    1    3    3    0    0  0.22608111622E-01  0.11412612415E+00  0.45974622819E-01  0.88884732371E+00  0.88000000000E+00 0. -1.
        -11    1    4    4    0    0 -0.11665743634E-02 -0.95842935768E-01 -0.22528560535E-01  0.98463325117E-01  0.51100000000E-03 0.  1.
         11    1    4    4    0    0 -0.12266285147E-02 -0.28196741094E-01 -0.17921568872E-01  0.33436575448E-01  0.51100000000E-03 0. -1.
</event>
<event>
 8    1  0.5489035E+004  0.1043930E+01  0.7957747E-01            NaN
         13   -1    0    0    0    0  0.00000000000E+00  0.00000000000E+00  0.74505805969E-08  0.10566000000E+00  0.10566000000E+00 0. -1.
     999900   -1    0    0    0    0 -0.00000000000E+00 -0.00000000000E+00 -0.74505805969E-08  0.93827000000E+00  0.93827000000E+00 0.  1.
     999902    2    1    2    0    0 -0.36978557465E-02 -0.19610235265E-01 -0.12169171013E-01  0.10205564212E+01  0.10202887261E+01 0.  0.
     999903    2    3    3    0    0  0.30361370573E-01 -0.56065638281E-01 -0.11519777215E+00  0.13314224506E+00  0.19777818164E-01 0.  0.
         14    1    1    2    0    0  0.36978557465E-02  0.19610235265E-01  0.12169171013E-01  0.23373578832E-01  0.00000000000E+00 0. -1.
     999901    1    3    3    0    0 -0.34059226319E-01  0.36455403017E-01  0.10302860114E+00  0.88741417611E+00  0.88000000000E+00 0. -1.
        -11    1    4    4    0    0  0.79613383222E-02 -0.32444371553E-01 -0.68521030488E-01  0.76232623551E-01  0.51100000000E-03 0. -1.
         11    1    4    4    0    0  0.22400032251E-01 -0.23621266729E-01 -0.46676741665E-01  0.56909621508E-01  0.51100000000E-03 0.  1.
</event>
<event>
 8    1  0.5489035E+004  0.1043930E+01  0.7957747E-01            NaN
         13   -1    0    0    0    0  0.00000000000E+00  0.00000000000E+00  0.74505805969E-08  0.10566000000E+00  0.10566000000E+00 0.  1.
     999900   -1    0    0    0    0 -0.00000000000E+00 -0.00000000000E+00 -0.74505805969E-08  0.93827000000E+00  0.93827000000E+00 0. -1.
     999902    2    1    2    0    0 -0.15047807188E-02 -0.13133741250E-01  0.20824303589E-01  0.10192640083E+01  0.10189655085E+01 0.  0.
     999903    2    3    3    0    0  0.12598205549E+00 -0.16696799824E-01 -0.14161544746E-01  0.12938221936E+00  0.19721762228E-01 0.  0.
         14    1    1    2    0    0  0.15047807188E-02  0.13133741250E-01 -0.20824303589E-01  0.24665991652E-01  0.00000000000E+00 0. -1.
     999901    1    3    3    0    0 -0.12748683621E+00  0.35630585742E-02  0.34985848334E-01  0.88988178899E+00  0.88000000000E+00 0. -1.
        -11    1    4    4    0    0  0.48125010906E-01 -0.76369839548E-02  0.40902287000E-02  0.48901240173E-01  0.51100000000E-03 0.  1.
         11    1    4    4    0    0  0.77857044588E-01 -0.90598158695E-02 -0.18251773446E-01  0.80480979184E-01  0.51100000000E-03 0. -1.
</event>
<event>
 8    1  0.5489035E+004  0.1043930E+01  0.7957747E-01            NaN
         13   -1    0    0    0    0  0.00000000000E+00  0.00000000000E+00  0.74505805969E-08  0.10566000000E+00  0.10566000000E+00 0.  1.
     999900   -1    0    0    0    0 -0.00000000000E+00 -0.00000000000E+00 -0.74505805969E-08  0.93827000000E+00  0.93827000000E+00 0. -1.
     999902    2    1    2    0    0 -0.22021105511E-01 -0.55913389184E-02  0.63217937264E-02  0.10203470139E+01  0.10200744441E+01 0.  0.
     999903    2    3    3    0    0  0.30559363991E-01 -0.12181009285E+00  0.30647689459E-01  0.13081722025E+00  0.20057188179E-01 0.  0.
         14    1    1    2    0    0  0.22021105511E-01  0.55913389184E-02 -0.63217937264E-02  0.23582986128E-01  0.00000000000E+00 0. -1.
     999901    1    3    3    0    0 -0.52580469502E-01  0.11621875393E+00 -0.24325895732E-01  0.88952979362E+00  0.88000000000E+00 0. -1.
        -11    1    4    4    0    0  0.72423021210E-02 -0.41120059159E-01  0.10741180682E-02  0.41769906104E-01  0.51100000000E-03 0.  1.
         11    1    4    4    0    0  0.23317061870E-01 -0.80690033688E-01  0.29573571390E-01  0.89047314146E-01  0.51100000000E-03 0. -1.
</event>
<event>
 8    1  0.5489035E+004  0.1043930E+01  0.7957747E-01            NaN
         13   -1    0    0    0    0  0.00000000000E+00  0.00000000000E+00  0.74505805969E-08  0.10566000000E+00  0.10566000000E+00 0.  1.
     999900   -1    0    0    0    0 -0.00000000000E+00 -0.00000000000E+00 -0.74505805969E-08  0.93827000000E+00  0.93827000000E+00 0.  1.
     999902    2    1    2    0    0 -0.73943042618E-02 -0.16891465612E-01  0.14445654315E-01  0.10205062028E+01  0.10202373428E+01 0.  0.
     999903    2    3    3    0    0 -0.84734148834E-01  0.43383774454E-01 -0.85670052886E-01  0.12941826610E+00  0.18646763122E-01 0.  0.
         14    1    1    2    0    0  0.73943042618E-02  0.16891465612E-01 -0.14445654315E-01  0.23423797186E-01  0.00000000000E+00 0.  1.
     999901    1    3    3    0    0  0.77339844572E-01 -0.60275240066E-01  0.10011570720E+00  0.89108793671E+00  0.88000000000E+00 0. -1.
        -11    1    4    4    0    0 -0.47958041880E-01  0.19096594229E-01 -0.35573038799E-01  0.62692550614E-01  0.51100000000E-03 0.  1.
         11    1    4    4    0    0 -0.36776106954E-01  0.24287180225E-01 -0.50097014087E-01  0.66725715489E-01  0.51100000000E-03 0. -1.
</event>
<event>
 8    1  0.5489035E+004  0.1043930E+01  0.7957747E-01            NaN
         13   -1    0    0    0    0  0.00000000000E+00  0.00000000000E+00  0.74505805969E-08  0.10566000000E+00  0.10566000000E+00 0.  1.
     999900   -1    0    0    0    0 -0.00000000000E+00 -0.00000000000E+00 -0.74505805969E-08  0.93827000000E+00  0.93827000000E+00 0.  1.
     999902    2    1    2    0    0  0.24146817070E-01 -0.20203818033E-02 -0.23787474544E-02  0.10195823275E+01  0.10192915743E+01 0.  0.
     999903    2    3    3    0    0  0.43533766316E-01 -0.19718509135E-01  0.12010145583E+00  0.13071198953E+00  0.19423081687E-01 0.  0.
         14    1    1    2    0    0 -0.24146817070E-01  0.20203818033E-02  0.23787474544E-02  0.24347672511E-01  0.00000000000E+00 0.  1.
     999901    1    3    3    0    0 -0.19386949245E-01  0.17698127332E-01 -0.12248020328E+00  0.88887033796E+00  0.88000000000E+00 0.  1.
        -11    1    4    4    0    0  0.35514363707E-01 -0.65599347978E-02  0.86772629429E-01  0.93989643648E-01  0.51100000000E-03 0. -1.
         11    1    4    4    0    0  0.80194026086E-02 -0.13158574337E-01  0.33328826398E-01  0.36722345879E-01  0.51100000000E-03 0.  1.
</event>
<event>
 8    1  0.5489035E+004  0.1043930E+01  0.7957747E-01            NaN
         13   -1    0    0    0    0  0.00000000000E+00  0.00000000000E+00  0.74505805969E-08  0.10566000000E+00  0.10566000000E+00 0. -1.
     999900   -1    0    0    0    0 -0.00000000000E+00 -0.00000000000E+00 -0.74505805969E-08  0.93827000000E+00  0.93827000000E+00 0. -1.
     999902    2    1    2    0    0 -0.22375009717E-01  0.25886382081E-02 -0.68737956080E-02  0.10203802405E+01  0.10201084472E+01 0.  0.
     999903    2    3    3    0    0 -0.17120883306E-01 -0.12450853023E+00  0.28480085047E-01  0.13053126849E+00  0.20779751303E-01 0.  0.
         14    1    1    2    0    0  0.22375009717E-01 -0.25886382081E-02  0.68737956080E-02  0.23549759524E-01  0.00000000000E+00 0. -1.
     999901    1    3    3    0    0 -0.52541264102E-02  0.12709716844E+00 -0.35353880655E-01  0.88984897199E+00  0.88000000000E+00 0. -1.
        -11    1    4    4    0    0 -0.19381736452E-01 -0.75400626579E-01  0.12592741639E-01  0.78865356522E-01  0.51100000000E-03 0.  1.
         11    1    4    4    0    0  0.22608531453E-02 -0.49107903649E-01  0.15887343408E-01  0.51665911967E-01  0.51100000000E-03 0. -1.
</event>
<event>
 8    1  0.5489035E+004  0.1043930E+01  0.7957747E-01            NaN
         13   -1    0    0    0    0  0.00000000000E+00  0.00000000000E+00  0.74505805969E-08  0.10566000000E+00  0.10566000000E+00 0. -1.
     999900   -1    0    0    0    0 -0.00000000000E+00 -0.00000000000E+00 -0.74505805969E-08  0.93827000000E+00  0.93827000000E+00 0.  1.
     999902    2    1    2    0    0 -0.72226393039E-02  0.17441157329E-01  0.91493770372E-02  0.10229521167E+01  0.10227369953E+01 0.  0.
     999903    2    3    3    0    0 -0.59386240699E-02 -0.94893745656E-01 -0.87066919757E-01  0.13060781382E+00  0.20920379863E-01 0.  0.
         14    1    1    2    0    0  0.72226393039E-02 -0.17441157329E-01 -0.91493770372E-02  0.20977883298E-01  0.00000000000E+00 0. -1.
     999901    1    3    3    0    0 -0.12840152340E-02  0.11233490298E+00  0.96216296794E-01  0.89234430289E+00  0.88000000000E+00 0. -1.
        -11    1    4    4    0    0 -0.11462394379E-01 -0.79793463909E-01 -0.66542252820E-01  0.10452997608E+00  0.51100000000E-03 0. -1.
         11    1    4    4    0    0  0.55237703090E-02 -0.15100281747E-01 -0.20524666937E-01  0.26077837739E-01  0.51100000000E-03 0.  1.
</event>
<event>
 8    1  0.5489035E+004  0.1043930E+01  0.7957747E-01            NaN
         13   -1    0    0    0    0  0.00000000000E+00  0.00000000000E+00  0.74505805969E-08  0.10566000000E+00  0.10566000000E+00 0. -1.
     999900   -1    0    0    0    0 -0.00000000000E+00 -0.00000000000E+00 -0.74505805969E-08  0.93827000000E+00  0.93827000000E+00 0.  1.
     999902    2    1    2    0    0 -0.20605495537E-02 -0.22100972785E-02 -0.24066151779E-01  0.10196748963E+01  0.10193863762E+01 0.  0.
     999903    2    3    3    0    0 -0.10807434196E+00 -0.19879173010E-01 -0.70455180827E-01  0.13192320667E+00  0.19093324570E-01 0.  0.
         14    1    1    2    0    0  0.20605495537E-02  0.22100972785E-02  0.24066151779E-01  0.24255103708E-01  0.00000000000E+00 0. -1.
     999901    1    3    3    0    0  0.10601379240E+00  0.17669075732E-01  0.46389029048E-01  0.88775168963E+00  0.88000000000E+00 0. -1.
        -11    1    4    4    0    0 -0.87274855673E-01 -0.17104540460E-01 -0.47530856234E-01  0.10084100928E+00  0.51100000000E-03 0.  1.
         11    1    4    4    0    0 -0.20799486283E-01 -0.27746325498E-02 -0.22924324592E-01  0.31082197388E-01  0.51100000000E-03 0. -1.
</event>
<event>
 8    1  0.5489035E+004  0.1043930E+01  0.7957747E-01            NaN
         13   -1    0    0    0    0  0.00000000000E+00  0.00000000000E+00  0.74505805969E-08  0.10566000000E+00  0.10566000000E+00 0.  1.
     999900   -1    0    0    0    0 -0.00000000000E+00 -0.00000000000E+00 -0.74505805969E-08  0.93827000000E+00  0.93827000000E+00 0. -1.
     999902    2    1    2    0    0  0.71453525115E-03  0.15502206636E-01 -0.16478840113E-01  0.10212941624E+01  0.10210432827E+01 0.  0.
     999903    2    3    3    0    0  0.48471395337E-01  0.12227423710E+00 -0.96621529474E-02  0.13352873654E+00  0.20883032777E-01 0.  0.
         14    1    1    2    0    0 -0.71453525115E-03 -0.15502206636E-01  0.16478840113E-01  0.22635837575E-01  0.00000000000E+00 0.  1.
     999901    1    3    3    0    0 -0.47756860086E-01 -0.10677203046E+00 -0.68166871658E-02  0.88776542589E+00  0.88000000000E+00 0.  1.
        -11    1    4    4    0    0  0.25565430795E-01  0.56041926469E-01  0.54303129743E-02  0.61838808156E-01  0.51100000000E-03 0. -1.
         11    1    4    4    0    0  0.22905964542E-01  0.66232310631E-01 -0.15092465922E-01  0.71689928384E-01  0.51100000000E-03 0.  1.
</event>
<event>
 8    1  0.5489035E+004  0.1043930E+01  0.7957747E-01            NaN
         13   -1    0    0    0    0  0.00000000000E+00  0.00000000000E+00  0.74505805969E-08  0.10566000000E+00  0.10566000000E+00 0. -1.
     999900   -1    0    0    0    0 -0.00000000000E+00 -0.00000000000E+00 -0.74505805969E-08  0.93827000000E+00  0.93827000000E+00 0. -1.
     999902    2    1    2    0    0  0.22228533738E-01 -0.59548633021E-02 -0.23937382820E-02  0.10207934901E+01  0.10205312593E+01 0.  0.
     999903    2    3    3    0    0 -0.51624088838E-01  0.35550445234E-01  0.11169948380E+00  0.12939337574E+00  0.18357295543E-01 0.  0.
         14    1    1    2    0    0 -0.22228533738E-01  0.59548633021E-02  0.23937382820E-02  0.23136509937E-01  0.00000000000E+00 0.  1.
     999901    1    3    3    0    0  0.73852622576E-01 -0.41505308536E-01 -0.11409322208E+00  0.89140011433E+00  0.88000000000E+00 0. -1.
        -11    1    4    4    0    0 -0.41733927908E-01  0.26096427692E-01  0.99693081229E-01  0.11118325343E+00  0.51100000000E-03 0.  1.
         11    1    4    4    0    0 -0.98901609297E-02  0.94540175421E-02  0.12006402566E-01  0.18210122308E-01  0.51100000000E-03 0. -1.
</event>
<event>
 8    1  0.5489035E+004  0.1043930E+01  0.7957747E-01            NaN
         13   -1    0    0    0    0  0.00000000000E+00  0.00000000000E+00  0.74505805969E-08  0.10566000000E+00  0.10566000000E+00 0.  1.
     999900   -1    0    0    0    0 -0.00000000000E+00 -0.00000000000E+00 -0.74505805969E-08  0.93827000000E+00  0.93827000000E+00 0.  1.
     999902    2    1    2    0    0 -0.11899792136E-01 -0.20150156186E-01 -0.55473991081E-02  0.10198798964E+01  0.10195962905E+01 0.  0.
     999903    2    3    3    0    0  0.53462412130E-01 -0.75545972699E-01  0.89634817565E-01  0.13061021366E+00  0.21429043164E-01 0.  0.
         14    1    1    2    0    0  0.11899792136E-01  0.20150156186E-01  0.55473991081E-02  0.24050103619E-01  0.00000000000E+00 0. -1.
     999901    1    3    3    0    0 -0.65362204266E-01  0.55395816513E-01 -0.95182216673E-01  0.88926968272E+00  0.88000000000E+00 0.  1.
        -11    1    4    4    0    0  0.41800338086E-01 -0.51846765446E-01  0.75396435039E-01  0.10059939805E+00  0.51100000000E-03 0. -1.
         11    1    4    4    0    0  0.11662074044E-01 -0.23699207253E-01  0.14238382526E-01  0.30010815607E-01  0.51100000000E-03 0.  1.
</event>
<event>
 8    1  0.5489035E+004  0.1043930E+01  0.7957747E-01            NaN
         13   -1    0    0    0    0  0.00000000000E+00  0.00000000000E+00  0.74505805969E-08  0.10566000000E+00  0.10566000000E+00 0.  1.
     999900   -1    0    0    0    0 -0.00000000000E+00 -0.00000000000E+00 -0.74505805969E-08  0.93827000000E+00  0.93827000000E+00 0. -1.
     999902    2    1    2    0    0 -0.61516235229E-03 -0.16980452155E-01 -0.18693491624E-01  0.10186681551E+01  0.10183548740E+01 0.  0.
     999903    2    3    3    0    0  0.45746289978E-01  0.16200914033E-01  0.11532031337E+00  0.12669837573E+00  0.19962742186E-01 0.  0.
         14    1    1    2    0    0  0.61516235229E-03  0.16980452155E-01  0.18693491624E-01  0.25261844929E-01  0.00000000000E+00 0.  1.
     999901    1    3    3    0    0 -0.46361452330E-01 -0.33181366188E-01 -0.13401380499E+00  0.89196977934E+00  0.88000000000E+00 0. -1.
        -11    1    4    4    0    0  0.46886955742E-01  0.15296710013E-01  0.10210602526E+00  0.11339434497E+00  0.51100000000E-03 0.  1.
         11    1    4    4    0    0 -0.11406657642E-02  0.90420401911E-03  0.13214288106E-01  0.13304030759E-01  0.51100000000E-03 0. -1.
</event>
<event>
 8    1  0.5489035E+004  0.1043930E+01  0.7957747E-01            NaN
         13   -1    0    0    0    0  0.00000000000E+00  0.00000000000E+00  0.74505805969E-08  0.10566000000E+00  0.10566000000E+00 0.  1.
     999900   -1    0    0    0    0 -0.00000000000E+00 -0.00000000000E+00 -0.74505805969E-08  0.93827000000E+00  0.93827000000E+00 0. -1.
     999902    2    1    2    0    0  0.65820359378E-02  0.17361741562E-01  0.12559663120E-01  0.10215135238E+01  0.10212675364E+01 0.  0.
     999903    2    3    3    0    0  0.92919221270E-01 -0.77344225550E-01 -0.44833207737E-01  0.13038094590E+00  0.19314855207E-01 0.  0.
         14    1    1    2    0    0 -0.65820359378E-02 -0.17361741562E-01 -0.12559663120E-01  0.22416476191E-01  0.00000000000E+00 0. -1.
     999901    1    3    3    0    0 -0.86337185332E-01  0.94705967111E-01  0.57392870857E-01  0.89113257790E+00  0.88000000000E+00 0.  1.
        -11    1    4    4    0    0  0.48106466235E-01 -0.42722050427E-01 -0.13798819069E-01  0.65803299424E-01  0.51100000000E-03 0.  1.
         11    1    4    4    0    0  0.44812755034E-01 -0.34622175123E-01 -0.31034388668E-01  0.64577646481E-01  0.51100000000E-03 0. -1.
</event>
<event>
 8    1  0.5489035E+004  0.1043930E+01  0.7957747E-01            NaN
         13   -1    0    0    0    0  0.00000000000E+00  0.00000000000E+00  0.74505805969E-08  0.10566000000E+00  0.10566000000E+00 0.  1.
     999900   -1    0    0    0    0 -0.00000000000E+00 -0.00000000000E+00 -0.74505805969E-08  0.93827000000E+00  0.93827000000E+00 0. -1.
     999902    2    1    2    0    0  0.98839972848E-02 -0.11466316336E-01  0.20011722496E-01  0.10188373945E+01  0.10185283490E+01 0.  0.
     999903    2    3    3    0    0  0.10657917996E+00  0.18199981836E-01  0.71969365863E-01  0.13152141681E+00  0.20686529831E-01 0.  0.
         14    1    1    2    0    0 -0.98839972848E-02  0.11466316336E-01 -0.20011722496E-01  0.25092605482E-01  0.00000000000E+00 0.  1.
     999901    1    3    3    0    0 -0.96695182673E-01 -0.29666298171E-01 -0.51957643368E-01  0.88731597771E+00  0.88000000000E+00 0. -1.
        -11    1    4    4    0    0  0.56415939627E-01  0.16006039159E-01  0.28957498284E-01  0.65404505666E-01  0.51100000000E-03 0. -1.
         11    1    4    4    0    0  0.50163240331E-01  0.21939426764E-02  0.43011867579E-01  0.66116911139E-01  0.51100000000E-03 0.  1.
</event>
<event>
 8    1  0.5489035E+004  0.1043930E+01  0.7957747E-01            NaN
         13   -1    0    0    0    0  0.00000000000E+00  0.00000000000E+00  0.74505805969E-08  0.10566000000E+00  0.10566000000E+00 0. -1.
     999900   -1    0    0    0    0 -0.00000000000E+00 -0.00000000000E+00 -0.74505805969E-08  0.93827000000E+00  0.93827000000E+00 0. -1.
     999902    2    1    2    0    0  0.21265632747E-01 -0.10078705261E-01 -0.11382526140E-02  0.10203693749E+01  0.10200973278E+01 0.  0.
     999903    2    3    3    0    0 -0.31698511075E-01 -0.11520070933E+00 -0.50376651019E-01  0.13116734154E+00  0.19775375692E-01 0.  0.
         14    1    1    2    0    0 -0.21265632747E-01  0.10078705261E-01  0.11382526140E-02  0.23560625095E-01  0.00000000000E+00 0. -1.
     999901    1    3    3    0    0  0.52964143822E-01  0.10512200407E+00  0.49238398405E-01  0.88920203337E+00  0.88000000000E+00 0. -1.
        -11    1    4    4    0    0 -0.19107724179E-01 -0.41846705125E-01 -0.26024299222E-01  0.52856192864E-01  0.51100000000E-03 0. -1.
         11    1    4    4    0    0 -0.12590786896E-01 -0.73354004203E-01 -0.24352351797E-01  0.78311148672E-01  0.51100000000E-03 0.  1.
</event>
<event>
 8    1  0.5489035E+004  0.1043930E+01  0.7957747E-01            NaN
         13   -1    0    0    0    0  0.00000000000E+00  0.00000000000E+00  0.74505805969E-08  0.10566000000E+00  0.10566000000E+00 0.  1.
     999900   -1    0    0    0    0 -0.00000000000E+00 -0.00000000000E+00 -0.74505805969E-08  0.93827000000E+00  0.93827000000E+00 0.  1.
     999902    2    1    2    0    0 -0.30976141276E-02 -0.21917464248E-01  0.86558688817E-02  0.10201624903E+01  0.10198855877E+01 0.  0.
     999903    2    3    3    0    0  0.11518434647E+00  0.52531351981E-01  0.16211366150E-01  0.12910113774E+00  0.19424694649E-01 0.  0.
         14    1    1    2    0    0  0.30976141276E-02  0.21917464248E-01 -0.86558688817E-02  0.23767509723E-01  0.00000000000E+00 0. -1.
     999901    1    3    3    0    0 -0.11828196059E+00 -0.74448816229E-01 -0.75554972680E-02  0.89106135253E+00  0.88000000000E+00 0.  1.
        -11    1    4    4    0    0  0.96620484894E-02  0.47658186097E-02 -0.40322755239E-02  0.11514711240E-01  0.51100000000E-03 0.  1.
         11    1    4    4    0    0  0.10552229798E+00  0.47765533371E-01  0.20243641674E-01  0.11758642650E+00  0.51100000000E-03 0. -1.
</event>
<event>
 8    1  0.5489035E+004  0.1043930E+01  0.7957747E-01            NaN
         13   -1    0    0    0    0  0.00000000000E+00  0.00000000000E+00  0.74505805969E-08  0.10566000000E+00  0.10566000000E+00 0.  1.
     999900   -1    0    0    0    0 -0.00000000000E+00 -0.00000000000E+00 -0.74505805969E-08  0.93827000000E+00  0.93827000000E+00 0.  1.
     999902    2    1    2    0    0 -0.73132352272E-02  0.25618953255E-02  0.21214952151E-01  0.10213441435E+01  0.10210943828E+01 0.  0.
     999903    2    3    3    0    0  0.30600678298E-01  0.12444969779E-01  0.12826750635E+00  0.13399111945E+00  0.20243224075E-01 0.  0.
         14    1    1    2    0    0  0.73132352272E-02 -0.25618953255E-02 -0.21214952151E-01  0.22585856458E-01  0.00000000000E+00 0. -1.
     999901    1    3    3    0    0 -0.37913913525E-01 -0.98830744531E-02 -0.10705255420E+00  0.88735302409E+00  0.88000000000E+00 0.  1.
        -11    1    4    4    0    0  0.27170534368E-01  0.16876673976E-01  0.94747869136E-01  0.10000239942E+00  0.51100000000E-03 0. -1.
         11    1    4    4    0    0  0.34301439296E-02 -0.44317041970E-02  0.33519637218E-01  0.33988720036E-01  0.51100000000E-03 0.  1.
</event>
<event>
 8    1  0.5489035E+004  0.1043930E+01  0.7957747E-01            NaN
         13   -1    0    0    0    0  0.00000000000E+00  0.00000000000E+00  0.74505805969E-08  0.10566000000E+00  0.10566000000E+00 0.  1.
     999900   -1    0    0    0    0 -0.00000000000E+00 -0.00000000000E+00 -0.74505805969E-08  0.93827000000E+00  0.93827000000E+00 0. -1.
     999902    2    1    2    0    0 -0.14931988554E-01 -0.15983591936E-01 -0.14493887245E-02  0.10220087724E+01  0.10217736494E+01 0.  0.
     999903    2    3    3    0    0 -0.11139557620E+00 -0.65623818845E-01 -0.32205289349E-01  0.13481358454E+00  0.20544145609E-01 0.  0.
         14    1    1    2    0    0  0.14931988554E-01  0.15983591936E-01  0.14493887245E-02  0.21921227635E-01  0.00000000000E+00 0. -1.
     999901    1    3    3    0    0  0.96463587647E-01  0.49640226909E-01  0.30755900625E-01  0.88719518782E+00  0.88000000000E+00 0.  1.
        -11    1    4    4    0    0 -0.93413318821E-01 -0.49700143303E-01 -0.32804121504E-01  0.11078142392E+00  0.51100000000E-03 0. -1.
         11    1    4    4    0    0 -0.17982257379E-01 -0.15923675542E-01  0.59883215496E-03  0.24032160622E-01  0.51100000000E-03 0.  1.
</event>
<event>
 8    1  0.5489035E+004  0.1043930E+01  0.7957747E-01            NaN
         13   -1    0    0    0    0  0.00000000000E+00  0.00000000000E+00  0.74505805969E-08  0.10566000000E+00  0.10566000000E+00 0. -1.
     999900   -1    0    0    0    0 -0.00000000000E+00 -0.00000000000E+00 -0.74505805969E-08  0.93827000000E+00  0.93827000000E+00 0.  1.
     999902    2    1    2    0    0 -0.14065732263E-01 -0.21211649115E-01 -0.40900517466E-02  0.10181519588E+01  0.10178255764E+01 0.  0.
     999903    2    3    3    0    0  0.93744812446E-01 -0.28711687916E-01 -0.79937148701E-01  0.12830245121E+00  0.21427094065E-01 0.  0.
         14    1    1    2    0    0  0.14065732263E-01  0.21211649115E-01  0.40900517466E-02  0.25778041150E-01  0.00000000000E+00 0. -1.
     999901    1    3    3    0    0 -0.10781054471E+00  0.75000388017E-02  0.75847096955E-01  0.88984950764E+00  0.88000000000E+00 0. -1.
        -11    1    4    4    0    0  0.41719106484E-01 -0.22329873912E-01 -0.30857372991E-01  0.56493766946E-01  0.51100000000E-03 0. -1.
         11    1    4    4    0    0  0.52025705962E-01 -0.63818140038E-02 -0.49079775710E-01  0.71808684263E-01  0.51100000000E-03 0.  1.
</event>
<event>
 8    1  0.5489035E+004  0.1043930E+01  0.7957747E-01            NaN
         13   -1    0    0    0    0  0.00000000000E+00  0.00000000000E+00  0.74505805969E-08  0.10566000000E+00  0.10566000000E+00 0. -1.
     999900   -1    0    0    0    0 -0.00000000000E+00 -0.00000000000E+00 -0.74505805969E-08  0.93827000000E+00  0.93827000000E+00 0.  1.
     999902    2    1    2    0    0 -0.23813578074E-01 -0.51943631396E-03  0.47845010089E-02  0.10196349848E+01  0.10193455030E+01 0.  0.
     999903    2    3    3    0    0 -0.73701855089E-01  0.52109307269E-02  0.10499929288E+00  0.13252468622E+00  0.32845451887E-01 0.  0.
         14    1    1    2    0    0  0.23813578074E-01  0.51943631396E-03 -0.47845010089E-02  0.24295015223E-01  0.00000000000E+00 0. -1.
     999901    1    3    3    0    0  0.49888277014E-01 -0.57303670409E-02 -0.10021479188E+00  0.88711029855E+00  0.88000000000E+00 0.  1.
        -11    1    4    4    0    0 -0.47431758173E-01  0.18719171980E-01  0.60703076153E-01  0.79279907029E-01  0.51100000000E-03 0.  1.
         11    1    4    4    0    0 -0.26270096915E-01 -0.13508241254E-01  0.44296216732E-01  0.53244779194E-01  0.51100000000E-03 0. -1.
</event>
<event>
 8    1  0.5489035E+004  0.1043930E+01  0.7957747E-01            NaN
         13   -1    0    0    0    0  0.00000000000E+00  0.00000000000E+00  0.74505805969E-08  0.10566000000E+00  0.10566000000E+00 0. -1.
     999900   -1    0    0    0    0 -0.00000000000E+00 -0.00000000000E+00 -0.74505805969E-08  0.93827000000E+00  0.93827000000E+00 0.  1.
     999902    2    1    2    0    0 -0.10414112323E-01 -0.14832131524E-01  0.15729545239E-01  0.10199328240E+01  0.10196504799E+01 0.  0.
     999903    2    3    3    0    0 -0.47404796431E-01  0.35787639595E-01 -0.11228541280E+00  0.12846296957E+00  0.19150737597E-01 0.  0.
         14    1    1    2    0    0  0.10414112323E-01  0.14832131524E-01 -0.15729545239E-01  0.23997175968E-01  0.00000000000E+00 0.  1.
     999901    1    3    3    0    0  0.36990684108E-01 -0.50619771118E-01  0.12801495804E+00  0.89146985447E+00  0.88000000000E+00 0. -1.
        -11    1    4    4    0    0 -0.10399335029E-01  0.18697605341E-01 -0.44165309537E-01  0.49077309441E-01  0.51100000000E-03 0. -1.
         11    1    4    4    0    0 -0.37005461402E-01  0.17090034254E-01 -0.68120103261E-01  0.79385660126E-01  0.51100000000E-03 0.  1.
</event>
<event>
 8    1  0.5489035E+004  0.1043930E+01  0.7957747E-01            NaN
         13   -1    0    0    0    0  0.00000000000E+00  0.00000000000E+00  0.74505805969E-08  0.10566000000E+00  0.10566000000E+00 0.  1.
     999900   -1    0    0    0    0 -0.00000000000E+00 -0.00000000000E+00 -0.74505805969E-08  0.93827000000E+00  0.93827000000E+00 0. -1.
     999902    2    1    2    0    0 -0.21000926313E-02 -0.20890468055E-01 -0.10815821701E-01  0.10203121245E+01  0.10200387382E+01 0.  0.
     999903    2    3    3    0    0 -0.86246419655E-01 -0.23024128147E-01  0.92782883257E-01  0.13024591991E+00  0.19666744735E-01 0.  0.
         14    1    1    2    0    0  0.21000926313E-02  0.20890468055E-01  0.10815821701E-01  0.23617875512E-01  0.00000000000E+00 0. -1.
     999901    1    3    3    0    0  0.84146327024E-01  0.21336600918E-02 -0.10359870496E+00  0.89006620457E+00  0.88000000000E+00 0. -1.
        -11    1    4    4    0    0 -0.28618802597E-02 -0.39977204804E-02  0.10296245008E-01  0.11421291955E-01  0.51100000000E-03 0. -1.
         11    1    4    4    0    0 -0.83384539395E-01 -0.19026407666E-01  0.82486638249E-01  0.11882462796E+00  0.51100000000E-03 0.  1.
</event>
<event>
 8    1  0.5489035E+004  0.1043930E+01  0.7957747E-01            NaN
         13   -1    0    0    0    0  0.00000000000E+00  0.00000000000E+00  0.74505805969E-08  0.10566000000E+00  0.10566000000E+00 0. -1.
     999900   -1    0    0    0    0 -0.00000000000E+00 -0.00000000000E+00 -0.74505805969E-08  0.93827000000E+00  0.93827000000E+00 0. -1.
     999902    2    1    2    0    0 -0.60526019053E-02  0.64005222706E-02 -0.20689527590E-01  0.10214431766E+01  0.10211956256E+01 0.  0.
     999903    2    3    3    0    0  0.10316135415E+00 -0.13732968687E-01  0.74432654095E-01  0.12937744185E+00  0.19168803945E-01 0.  0.
         14    1    1    2    0    0  0.60526019053E-02 -0.64005222706E-02  0.20689527590E-01  0.22486823410E-01  0.00000000000E+00 0. -1.
     999901    1    3    3    0    0 -0.10921395605E+00  0.20133490958E-01 -0.95122181685E-01  0.89206573474E+00  0.88000000000E+00 0. -1.
        -11    1    4    4    0    0  0.63807790203E-01 -0.16568048436E-01  0.52175258878E-01  0.84074092796E-01  0.51100000000E-03 0. -1.
         11    1    4    4    0    0  0.39353563945E-01  0.28350797491E-02  0.22257395217E-01  0.45303349051E-01  0.51100000000E-03 0.  1.
</event>
<event>
 8    1  0.5489035E+004  0.1043930E+01  0.7957747E-01            NaN
         13   -1    0    0    0    0  0.00000000000E+00  0.00000000000E+00  0.74505805969E-08  0.10566000000E+00  0.10566000000E+00 0. -1.
     999900   -1    0    0    0    0 -0.00000000000E+00 -0.00000000000E+00 -0.74505805969E-08  0.93827000000E+00  0.93827000000E+00 0. -1.
     999902    2    1    2    0    0  0.96044723961E-02 -0.11201030948E-01 -0.14297316420E-01  0.10233843863E+01  0.10231781272E+01 0.  0.
     999903    2    3    3    0    0  0.10015802630E-02  0.41833090392E-01  0.12257749522E+00  0.13118410509E+00  0.20809048022E-01 0.  0.
         14    1    1    2    0    0 -0.96044723961E-02  0.11201030948E-01  0.14297316420E-01  0.20545613671E-01  0.00000000000E+00 0. -1.
     999901    1    3    3    0    0  0.86028921331E-02 -0.53034121340E-01 -0.13687481164E+00  0.89220028124E+00  0.88000000000E+00 0. -1.
        -11    1    4    4    0    0 -0.43633185969E-02  0.38804791733E-01  0.91299854709E-01  0.99301435042E-01  0.51100000000E-03 0. -1.
         11    1    4    4    0    0  0.53648988599E-02  0.30282986592E-02  0.31277640511E-01  0.31882670049E-01  0.51100000000E-03 0.  1.
</event>
<event>
 8    1  0.5489035E+004  0.1043930E+01  0.7957747E-01            NaN
         13   -1    0    0    0    0  0.00000000000E+00  0.00000000000E+00  0.74505805969E-08  0.10566000000E+00  0.10566000000E+00 0. -1.
     999900   -1    0    0    0    0 -0.00000000000E+00 -0.00000000000E+00 -0.74505805969E-08  0.93827000000E+00  0.93827000000E+00 0. -1.
     999902    2    1    2    0    0  0.16168327630E-01 -0.13248702973E-01  0.92742636831E-02  0.10210617925E+01  0.10208056765E+01 0.  0.
     999903    2    3    3    0    0 -0.11755138249E+00  0.47336842465E-01  0.13695040768E-01  0.12888966084E+00  0.19128155912E-01 0.  0.
         14    1    1    2    0    0 -0.16168327630E-01  0.13248702973E-01 -0.92742636831E-02  0.22868207531E-01  0.00000000000E+00 0.  1.
     999901    1    3    3    0    0  0.13371971012E+00 -0.60585545438E-01 -0.44207770852E-02  0.89217213163E+00  0.88000000000E+00 0.  1.
        -11    1    4    4    0    0 -0.46229845792E-01  0.20612077601E-01 -0.37280684024E-02  0.50756438015E-01  0.51100000000E-03 0. -1.
         11    1    4    4    0    0 -0.71321536700E-01  0.26724764864E-01  0.17423109171E-01  0.78133222822E-01  0.51100000000E-03 0.  1.
</event>
<event>
 8    1  0.5489035E+004  0.1043930E+01  0.7957747E-01            NaN
         13   -1    0    0    0    0  0.00000000000E+00  0.00000000000E+00  0.74505805969E-08  0.10566000000E+00  0.10566000000E+00 0. -1.
     999900   -1    0    0    0    0 -0.00000000000E+00 -0.00000000000E+00 -0.74505805969E-08  0.93827000000E+00  0.93827000000E+00 0.  1.
     999902    2    1    2    0    0  0.17334111914E-01  0.15390577746E-01  0.26704735120E-02  0.10205960602E+01  0.10203292828E+01 0.  0.
     999903    2    3    3    0    0 -0.11824138441E+00  0.44292525911E-01 -0.20072116115E-01  0.12945450958E+00  0.20315692613E-01 0.  0.
         14    1    1    2    0    0 -0.17334111914E-01 -0.15390577746E-01 -0.26704735120E-02  0.23333939830E-01  0.00000000000E+00 0.  1.
     999901    1    3    3    0    0  0.13557549632E+00 -0.28901948165E-01  0.22742589627E-01  0.89114155059E+00  0.88000000000E+00 0.  1.
        -11    1    4    4    0    0 -0.30649581643E-01  0.18622757364E-01 -0.11998315620E-01  0.37820955110E-01  0.51100000000E-03 0. -1.
         11    1    4    4    0    0 -0.87591802765E-01  0.25669768546E-01 -0.80738004946E-02  0.91633554467E-01  0.51100000000E-03 0.  1.
</event>
<event>
 8    1  0.5489035E+004  0.1043930E+01  0.7957747E-01            NaN
         13   -1    0    0    0    0  0.00000000000E+00  0.00000000000E+00  0.74505805969E-08  0.10566000000E+00  0.10566000000E+00 0. -1.
     999900   -1    0    0    0    0 -0.00000000000E+00 -0.00000000000E+00 -0.74505805969E-08  0.93827000000E+00  0.93827000000E+00 0.  1.
     999902    2    1    2    0    0  0.82707191993E-02 -0.13724282128E-01 -0.18146598288E-01  0.10197213291E+01  0.10194339259E+01 0.  0.
     999903    2    3    3    0    0  0.11507600609E+00  0.50475029156E-01 -0.28472255873E-01  0.13088189476E+00  0.23004027388E-01 0.  0.
         14    1    1    2    0    0 -0.82707191993E-02  0.13724282128E-01  0.18146598288E-01  0.24208670873E-01  0.00000000000E+00 0. -1.
     999901    1    3    3    0    0 -0.10680528689E+00 -0.64199311284E-01  0.10325657585E-01  0.88883943436E+00  0.88000000000E+00 0.  1.
        -11    1    4    4    0    0  0.75565715079E-01  0.21831443490E-01 -0.13299340051E-01  0.79774198756E-01  0.51100000000E-03 0.  1.
         11    1    4    4    0    0  0.39510291011E-01  0.28643585666E-01 -0.15172915822E-01  0.51107696007E-01  0.51100000000E-03 0. -1.
</event>
<event>
 8    1  0.5489035E+004  0.1043930E+01  0.7957747E-01            NaN
         13   -1    0    0    0    0  0.00000000000E+00  0.00000000000E+00  0.74505805969E-08  0.10566000000E+00  0.10566000000E+00 0.  1.
     999900   -1    0    0    0    0 -0.00000000000E+00 -0.00000000000E+00 -0.74505805969E-08  0.93827000000E+00  0.93827000000E+00 0. -1.
     999902    2    1    2    0    0 -0.21259437308E-01 -0.26017114089E-02 -0.10866531695E-01  0.10199130458E+01  0.10196302305E+01 0.  0.
     999903    2    3    3    0    0 -0.85297099820E-02  0.81810640182E-01 -0.10053540223E+00  0.13124663068E+00  0.18776958311E-01 0.  0.
         14    1    1    2    0    0  0.21259437308E-01  0.26017114089E-02  0.10866531695E-01  0.24016954178E-01  0.00000000000E+00 0.  1.
     999901    1    3    3    0    0 -0.12729727326E-01 -0.84412351590E-01  0.89668870538E-01  0.88866641514E+00  0.88000000000E+00 0.  1.
        -11    1    4    4    0    0 -0.96514633610E-02  0.44573427845E-01 -0.67426837102E-01  0.81403812549E-01  0.51100000000E-03 0. -1.
         11    1    4    4    0    0  0.11217533790E-02  0.37237212337E-01 -0.33108565131E-01  0.49842818131E-01  0.51100000000E-03 0.  1.
</event>
<event>
 8    1  0.5489035E+004  0.1043930E+01  0.7957747E-01            NaN
         13   -1    0    0    0    0  0.00000000000E+00  0.00000000000E+00  0.74505805969E-08  0.10566000000E+00  0.10566000000E+00 0. -1.
     999900   -1    0    0    0    0 -0.00000000000E+00 -0.00000000000E+00 -0.74505805969E-08  0.93827000000E+00  0.93827000000E+00 0.  1.
     999902    2    1    2    0    0  0.19064078286E-01  0.32590510232E-03 -0.12015846672E-01  0.10213927893E+01  0.10211441153E+01 0.  0.
     999903    2    3    3    0    0  0.23642940688E-01  0.96732408653E-02 -0.12951591981E+00  0.13352196206E+00  0.20029494114E-01 0.  0.
         14    1    1    2    0    0 -0.19064078286E-01 -0.32590510232E-03  0.12015846672E-01  0.22537210703E-01  0.00000000000E+00 0. -1.
     999901    1    3    3    0    0 -0.45788624024E-02 -0.93473357630E-02  0.11750007314E+00  0.88787082724E+00  0.88000000000E+00 0. -1.
        -11    1    4    4    0    0  0.23738897267E-01  0.33073306968E-02 -0.11742959970E+00  0.11985176547E+00  0.51100000000E-03 0. -1.
         11    1    4    4    0    0 -0.95956579001E-04  0.63659101684E-02 -0.12086320110E-01  0.13670196587E-01  0.51100000000E-03 0.  1.
</event>
<event>
 8    1  0.5489035E+004  0.1043930E+01  0.7957747E-01            NaN
         13   -1    0    0    0    0  0.00000000000E+00  0.00000000000E+00  0.74505805969E-08  0.10566000000E+00  0.10566000000E+00 0.  1.
     999900   -1    0    0    0    0 -0.00000000000E+00 -0.00000000000E+00 -0.74505805969E-08  0.93827000000E+00  0.93827000000E+00 0. -1.
     999902    2    1    2    0    0 -0.15466984416E-02 -0.77383892005E-02  0.21541969849E-01  0.10209880862E+01  0.10207302978E+01 0.  0.
     999903    2    3    3    0    0 -0.37471203481E-01  0.50139527041E-01  0.11589862559E+00  0.13332621267E+00  0.20623392248E-01 0.  0.
         14    1    1    2    0    0  0.15466984416E-02  0.77383892005E-02 -0.21541969849E-01  0.22941913793E-01  0.00000000000E+00 0. -1.
     999901    1    3    3    0    0  0.35924505039E-01 -0.57877916241E-01 -0.94356655745E-01  0.88766187354E+00  0.88000000000E+00 0. -1.
        -11    1    4    4    0    0 -0.39537006435E-01  0.44737819854E-01  0.10088634447E+00  0.11723038440E+00  0.51100000000E-03 0. -1.
         11    1    4    4    0    0  0.20658029545E-02  0.54017071863E-02  0.15012281120E-01  0.16095828273E-01  0.51100000000E-03 0.  1.
</event>
<event>
 8    1  0.5489035E+004  0.1043930E+01  0.7957747E-01            NaN
         13   -1    0    0    0    0  0.00000000000E+00  0.00000000000E+00  0.74505805969E-08  0.10566000000E+00  0.10566000000E+00 0.  1.
     999900   -1    0    0    0    0 -0.00000000000E+00 -0.00000000000E+00 -0.74505805969E-08  0.93827000000E+00  0.93827000000E+00 0.  1.
     999902    2    1    2    0    0 -0.32218864141E-02  0.15884934795E-01 -0.17347497467E-01  0.10201887411E+01  0.10199124571E+01 0.  0.
     999903    2    3    3    0    0  0.10949163417E-02  0.90687962730E-01 -0.96081000637E-01  0.13350216046E+00  0.19124924536E-01 0.  0.
         14    1    1    2    0    0  0.32218864141E-02 -0.15884934795E-01  0.17347497467E-01  0.23741258894E-01  0.00000000000E+00 0.  1.
     999901    1    3    3    0    0 -0.43168027559E-02 -0.74803027935E-01  0.78733503170E-01  0.88668658064E+00  0.88000000000E+00 0. -1.
        -11    1    4    4    0    0 -0.60671724389E-02  0.60432648106E-01 -0.54692937566E-01  0.81734289494E-01  0.51100000000E-03 0. -1.
         11    1    4    4    0    0  0.71620887807E-02  0.30255314624E-01 -0.41388063071E-01  0.51767870967E-01  0.51100000000E-03 0.  1.
</event>
<event>
 8    1  0.5489035E+004  0.1043930E+01  0.7957747E-01            NaN
         13   -1    0    0    0    0  0.00000000000E+00  0.00000000000E+00  0.74505805969E-08  0.10566000000E+00  0.10566000000E+00 0. -1.
     999900   -1    0    0    0    0 -0.00000000000E+00 -0.00000000000E+00 -0.74505805969E-08  0.93827000000E+00  0.93827000000E+00 0.  1.
     999902    2    1    2    0    0 -0.14527347107E-01 -0.17428601620E-02  0.18310761702E-01  0.10204914555E+01  0.10202222529E+01 0.  0.
     999903    2    3    3    0    0  0.52729661776E-01  0.14945535573E-01  0.11845697511E+00  0.13210456236E+00  0.20390541424E-01 0.  0.
         14    1    1    2    0    0  0.14527347107E-01  0.17428601620E-02 -0.18310761702E-01  0.23438544529E-01  0.00000000000E+00 0.  1.
     999901    1    3    3    0    0 -0.67257008883E-01 -0.16688395735E-01 -0.10014621341E+00  0.88838689311E+00  0.88000000000E+00 0.  1.
        -11    1    4    4    0    0  0.44738274001E-01  0.85830053167E-02  0.77577327200E-01  0.89964904032E-01  0.51100000000E-03 0.  1.
         11    1    4    4    0    0  0.79913877745E-02  0.63625302567E-02  0.40879647907E-01  0.42139658326E-01  0.51100000000E-03 0. -1.
</event>
<event>
 8    1  0.5489035E+004  0.1043930E+01  0.7957747E-01            NaN
         13   -1    0    0    0    0  0.00000000000E+00  0.00000000000E+00  0.74505805969E-08  0.10566000000E+00  0.10566000000E+00 0. -1.
     999900   -1    0    0    0    0 -0.00000000000E+00 -0.00000000000E+00 -0.74505805969E-08  0.93827000000E+00  0.93827000000E+00 0. -1.
     999902    2    1    2    0    0 -0.26821744612E-02  0.13920507286E-02  0.27362768918E-01  0.10164008702E+01  0.10160279897E+01 0.  0.
     999903    2    3    3    0    0 -0.31596115806E-01 -0.27358250412E-01 -0.11498189618E+00  0.12403065582E+00  0.20395556740E-01 0.  0.
         14    1    1    2    0    0  0.26821744612E-02 -0.13920507286E-02 -0.27362768918E-01  0.27529129807E-01  0.00000000000E+00 0.  1.
     999901    1    3    3    0    0  0.28913941345E-01  0.28750301141E-01  0.14234466510E+00  0.89237021437E+00  0.88000000000E+00 0.  1.
        -11    1    4    4    0    0 -0.28948781850E-01 -0.15704805743E-01 -0.68108201923E-01  0.75654882091E-01  0.51100000000E-03 0. -1.
         11    1    4    4    0    0 -0.26473339560E-02 -0.11653444669E-01 -0.46873694255E-01  0.48375773729E-01  0.51100000000E-03 0.  1.
</event>
<event>
 8    1  0.5489035E+004  0.1043930E+01  0.7957747E-01            NaN
         13   -1    0    0    0    0  0.00000000000E+00  0.00000000000E+00  0.74505805969E-08  0.10566000000E+00  0.10566000000E+00 0. -1.
     999900   -1    0    0    0    0 -0.00000000000E+00 -0.00000000000E+00 -0.74505805969E-08  0.93827000000E+00  0.93827000000E+00 0.  1.
     999902    2    1    2    0    0 -0.87746857536E-02  0.10651724971E-01 -0.15796682546E-01  0.10229540725E+01  0.10227389916E+01 0.  0.
     999903    2    3    3    0    0 -0.81252554998E-01 -0.28475302695E-01 -0.10184707324E+00  0.13492894022E+00  0.20498098051E-01 0.  0.
         14    1    1    2    0    0  0.87746857536E-02 -0.10651724971E-01  0.15796682546E-01  0.20975927498E-01  0.00000000000E+00 0. -1.
     999901    1    3    3    0    0  0.72477869244E-01  0.39127027666E-01  0.86050390697E-01  0.88802513228E+00  0.88000000000E+00 0. -1.
        -11    1    4    4    0    0 -0.20416000187E-01  0.18743510731E-02 -0.22871648666E-01  0.30719695462E-01  0.51100000000E-03 0. -1.
         11    1    4    4    0    0 -0.60836554811E-01 -0.30349653768E-01 -0.78975424577E-01  0.10420924476E+00  0.51100000000E-03 0.  1.
</event>
<event>
 8    1  0.5489035E+004  0.1043930E+01  0.7957747E-01            NaN
         13   -1    0    0    0    0  0.00000000000E+00  0.00000000000E+00  0.74505805969E-08  0.10566000000E+00  0.10566000000E+00 0. -1.
     999900   -1    0    0    0    0 -0.00000000000E+00 -0.00000000000E+00 -0.74505805969E-08  0.93827000000E+00  0.93827000000E+00 0.  1.
     999902    2    1    2    0    0 -0.11495886492E-01  0.99884646997E-02 -0.17224407205E-01  0.10209385878E+01  0.10206796730E+01 0.  0.
     999903    2    3    3    0    0  0.41250252800E-01 -0.11507785853E+00 -0.37790212843E-01  0.13029461131E+00  0.24578215388E-01 0.  0.
         14    1    1    2    0    0  0.11495886492E-01 -0.99884646997E-02  0.17224407205E-01  0.22991412241E-01  0.00000000000E+00 0. -1.
     999901    1    3    3    0    0 -0.52746139292E-01  0.12506632323E+00  0.20565805639E-01  0.89064397644E+00  0.88000000000E+00 0. -1.
        -11    1    4    4    0    0  0.15695771492E-01 -0.17034453393E-01 -0.41629555231E-02  0.23539778351E-01  0.51100000000E-03 0. -1.
         11    1    4    4    0    0  0.25554481308E-01 -0.98043405133E-01 -0.33627257320E-01  0.10675483296E+00  0.51100000000E-03 0.  1.
</event>
<event>
 8    1  0.5489035E+004  0.1043930E+01  0.7957747E-01            NaN
         13   -1    0    0    0    0  0.00000000000E+00  0.00000000000E+00  0.74505805969E-08  0.10566000000E+00  0.10566000000E+00 0. -1.
     999900   -1    0    0    0    0 -0.00000000000E+00 -0.00000000000E+00 -0.74505805969E-08  0.93827000000E+00  0.93827000000E+00 0.  1.
     999902    2    1    2    0    0  0.23969256829E-01  0.48920209153E-02 -0.17808991680E-02  0.10194018785E+01  0.10191067467E+01 0.  0.
     999903    2    3    3    0    0 -0.70601836109E-01  0.64829627289E-01  0.83687322286E-01  0.12819986710E+00  0.15624921652E-01 0.  0.
         14    1    1    2    0    0 -0.23969256829E-01 -0.48920209153E-02  0.17808991680E-02  0.24528121481E-01  0.00000000000E+00 0.  1.
     999901    1    3    3    0    0  0.94571092938E-01 -0.59937606374E-01 -0.85468221455E-01  0.89120201142E+00  0.88000000000E+00 0.  1.
        -11    1    4    4    0    0 -0.57706966453E-02  0.12373351009E-01  0.10280011270E-01  0.17097967940E-01  0.51100000000E-03 0. -1.
         11    1    4    4    0    0 -0.64831139464E-01  0.52456276280E-01  0.73407311017E-01  0.11110189916E+00  0.51100000000E-03 0.  1.
</event>
<event>
 8    1  0.5489035E+004  0.1043930E+01  0.7957747E-01            NaN
         13   -1    0    0    0    0  0.00000000000E+00  0.00000000000E+00  0.74505805969E-08  0.10566000000E+00  0.10566000000E+00 0.  1.
     999900   -1    0    0    0    0 -0.00000000000E+00 -0.00000000000E+00 -0.74505805969E-08  0.93827000000E+00  0.93827000000E+00 0. -1.
     999902    2    1    2    0    0 -0.14527690407E-02  0.23164107698E-01 -0.17717681726E-02  0.10206528527E+01  0.10203873873E+01 0.  0.
     999903    2    3    3    0    0 -0.26457069277E-01  0.17602898830E-01  0.12572602630E+00  0.13109575524E+00  0.19215222903E-01 0.  0.
         14    1    1    2    0    0  0.14527690407E-02 -0.23164107698E-01  0.17717681726E-02  0.23277147287E-01  0.00000000000E+00 0.  1.
     999901    1    3    3    0    0  0.25004300237E-01  0.55612088678E-02 -0.12749779447E+00  0.88955709748E+00  0.88000000000E+00 0. -1.
        -11    1    4    4    0    0  0.23534721289E-03  0.90994497853E-02  0.30987987630E-01  0.32301267360E-01  0.51100000000E-03 0.  1.
         11    1    4    4    0    0 -0.26692416490E-01  0.85034490452E-02  0.94738038666E-01  0.98794487878E-01  0.51100000000E-03 0. -1.
</event>
<event>
 8    1  0.5489035E+004  0.1043930E+01  0.7957747E-01            NaN
         13   -1    0    0    0    0  0.00000000000E+00  0.00000000000E+00  0.74505805969E-08  0.10566000000E+00  0.10566000000E+00 0.  1.
     999900   -1    0    0    0    0 -0.00000000000E+00 -0.00000000000E+00 -0.74505805969E-08  0.93827000000E+00  0.93827000000E+00 0.  1.
     999902    2    1    2    0    0  0.21056058393E-02  0.21136826781E-01  0.12492299117E-01  0.10192874238E+01  0.10189894974E+01 0.  0.
     999903    2    3    3    0    0 -0.52863251766E-01  0.55183287759E-01 -0.10269652234E+00  0.12942833309E+00  0.19115414493E-01 0.  0.
         14    1    1    2    0    0 -0.21056058393E-02 -0.21136826781E-01 -0.12492299117E-01  0.24642576154E-01  0.00000000000E+00 0. -1.
     999901    1    3    3    0    0  0.54968857605E-01 -0.34046460978E-01  0.11518882145E+00  0.88985909076E+00  0.88000000000E+00 0. -1.
        -11    1    4    4    0    0 -0.29450100044E-01  0.24456777028E-01 -0.65085245941E-01  0.75510215835E-01  0.51100000000E-03 0. -1.
         11    1    4    4    0    0 -0.23413151722E-01  0.30726510731E-01 -0.37611276397E-01  0.53918117256E-01  0.51100000000E-03 0.  1.
</event>
<event>
 8    1  0.5489035E+004  0.1043930E+01  0.7957747E-01            NaN
         13   -1    0    0    0    0  0.00000000000E+00  0.00000000000E+00  0.74505805969E-08  0.10566000000E+00  0.10566000000E+00 0. -1.
     999900   -1    0    0    0    0 -0.00000000000E+00 -0.00000000000E+00 -0.74505805969E-08  0.93827000000E+00  0.93827000000E+00 0. -1.
     999902    2    1    2    0    0  0.58922567560E-02 -0.34692945613E-02 -0.22739645759E-01  0.10201845545E+01  0.10199081718E+01 0.  0.
     999903    2    3    3    0    0 -0.17599719193E-01 -0.94322848184E-01 -0.89366111324E-01  0.13269070826E+00  0.20346311701E-01 0.  0.
         14    1    1    2    0    0 -0.58922567560E-02  0.34692945613E-02  0.22739645759E-01  0.23745445535E-01  0.00000000000E+00 0. -1.
     999901    1    3    3    0    0  0.23491975949E-01  0.90853553622E-01  0.66626465565E-01  0.88749384621E+00  0.88000000000E+00 0.  1.
        -11    1    4    4    0    0 -0.78467982598E-02 -0.74939425483E-01 -0.76888482148E-01  0.10765495596E+00  0.51100000000E-03 0.  1.
         11    1    4    4    0    0 -0.97529209332E-02 -0.19383422700E-01 -0.12477629177E-01  0.25035752299E-01  0.51100000000E-03 0. -1.
</event>
<event>
 8    1  0.5489035E+004  0.1043930E+01  0.7957747E-01            NaN
         13   -1    0    0    0    0  0.00000000000E+00  0.00000000000E+00  0.74505805969E-08  0.10566000000E+00  0.10566000000E+00 0. -1.
     999900   -1    0    0    0    0 -0.00000000000E+00 -0.00000000000E+00 -0.74505805969E-08  0.93827000000E+00  0.93827000000E+00 0.  1.
     999902    2    1    2    0    0 -0.10343615480E-02  0.23907625078E-01 -0.50906800171E-02  0.10194645251E+01  0.10191709172E+01 0.  0.
     999903    2    3    3    0    0 -0.83704177940E-01 -0.62463966828E-01 -0.72984319283E-01  0.12878843541E+00  0.18751364697E-01 0.  0.
         14    1    1    2    0    0  0.10343615480E-02 -0.23907625078E-01  0.50906800171E-02  0.24465474933E-01  0.00000000000E+00 0.  1.
     999901    1    3    3    0    0  0.82669816392E-01  0.86371591906E-01  0.67893639266E-01  0.89067608966E+00  0.88000000000E+00 0. -1.
        -11    1    4    4    0    0 -0.14182009424E-01 -0.19068821557E-01 -0.11963738359E-01  0.26610928270E-01  0.51100000000E-03 0. -1.
         11    1    4    4    0    0 -0.69522168516E-01 -0.43395145271E-01 -0.61020580924E-01  0.10217750714E+00  0.51100000000E-03 0.  1.
</event>
<event>
 8    1  0.5489035E+004  0.1043930E+01  0.7957747E-01            NaN
         13   -1    0    0    0    0  0.00000000000E+00  0.00000000000E+00  0.74505805969E-08  0.10566000000E+00  0.10566000000E+00 0.  1.
     999900   -1    0    0    0    0 -0.00000000000E+00 -0.00000000000E+00 -0.74505805969E-08  0.93827000000E+00  0.93827000000E+00 0.  1.
     999902    2    1    2    0    0 -0.21347846100E-01 -0.13295053087E-01  0.35220385442E-02  0.10185352422E+01  0.10182186140E+01 0.  0.
     999903    2    3    3    0    0 -0.95389912000E-01 -0.80392803369E-01 -0.37886356571E-01  0.13191300536E+00  0.20085487918E-01 0.  0.
         14    1    1    2    0    0  0.21347846100E-01  0.13295053087E-01 -0.35220385442E-02  0.25394757829E-01  0.00000000000E+00 0. -1.
     999901    1    3    3    0    0  0.74042065900E-01  0.67097750283E-01  0.41408395115E-01  0.88662223681E+00  0.88000000000E+00 0. -1.
        -11    1    4    4    0    0 -0.34577868880E-01 -0.29911584501E-01 -0.24092610913E-01  0.51682172219E-01  0.51100000000E-03 0.  1.
         11    1    4    4    0    0 -0.60812043120E-01 -0.50481218869E-01 -0.13793745658E-01  0.80230833145E-01  0.51100000000E-03 0. -1.
</event>
<event>
 8    1  0.5489035E+004  0.1043930E+01  0.7957747E-01            NaN
         13   -1    0    0    0    0  0.00000000000E+00  0.00000000000E+00  0.74505805969E-08  0.10566000000E+00  0.10566000000E+00 0.  1.
     999900   -1    0    0    0    0 -0.00000000000E+00 -0.00000000000E+00 -0.74505805969E-08  0.93827000000E+00  0.93827000000E+00 0.  1.
     999902    2    1    2    0    0 -0.96105401911E-02 -0.89690849727E-02  0.20059555652E-01  0.10199468238E+01  0.10196648129E+01 0.  0.
     999903    2    3    3    0    0 -0.11862393128E-01  0.66322879957E-02 -0.12558755818E+00  0.12783609331E+00  0.19624687693E-01 0.  0.
         14    1    1    2    0    0  0.96105401911E-02  0.89690849727E-02 -0.20059555652E-01  0.23983176207E-01  0.00000000000E+00 0. -1.
     999901    1    3    3    0    0  0.22518529369E-02 -0.15601372968E-01  0.14564711383E+00  0.89211073049E+00  0.88000000000E+00 0. -1.
        -11    1    4    4    0    0 -0.15636807004E-01  0.10700528368E-02 -0.64557016393E-01  0.66434360334E-01  0.51100000000E-03 0.  1.
         11    1    4    4    0    0  0.37744138760E-02  0.55622351589E-02 -0.61030541789E-01  0.61401732973E-01  0.51100000000E-03 0. -1.
</event>
<event>
 8    1  0.5489035E+004  0.1043930E+01  0.7957747E-01            NaN
         13   -1    0    0    0    0  0.00000000000E+00  0.00000000000E+00  0.74505805969E-08  0.10566000000E+00  0.10566000000E+00 0.  1.
     999900   -1    0    0    0    0 -0.00000000000E+00 -0.00000000000E+00 -0.74505805969E-08  0.93827000000E+00  0.93827000000E+00 0. -1.
     999902    2    1    2    0    0 -0.60914428651E-02  0.19455244905E-01  0.12401709408E-01  0.10200675897E+01  0.10197884452E+01 0.  0.
     999903    2    3    3    0    0  0.99745350490E-01  0.36462712960E-01 -0.71707163729E-01  0.12958177657E+00  0.19257598693E-01 0.  0.
         14    1    1    2    0    0  0.60914428651E-02 -0.19455244905E-01 -0.12401709408E-01  0.23862410330E-01  0.00000000000E+00 0.  1.
     999901    1    3    3    0    0 -0.10583679336E+00 -0.17007468055E-01  0.84108873137E-01  0.89048581310E+00  0.88000000000E+00 0. -1.
        -11    1    4    4    0    0  0.87943387349E-01  0.26074859428E-01 -0.56684517153E-01  0.10783011304E+00  0.51100000000E-03 0.  1.
         11    1    4    4    0    0  0.11801963141E-01  0.10387853532E-01 -0.15022646576E-01  0.21751663526E-01  0.51100000000E-03 0. -1.
</event>
<event>
 8    1  0.5489035E+004  0.1043930E+01  0.7957747E-01            NaN
         13   -1    0    0    0    0  0.00000000000E+00  0.00000000000E+00  0.74505805969E-08  0.10566000000E+00  0.10566000000E+00 0. -1.
     999900   -1    0    0    0    0 -0.00000000000E+00 -0.00000000000E+00 -0.74505805969E-08  0.93827000000E+00  0.93827000000E+00 0.  1.
     999902    2    1    2    0    0  0.59585813180E-02 -0.21206138301E-01  0.10940280450E-01  0.10193353923E+01  0.10190386387E+01 0.  0.
     999903    2    3    3    0    0  0.83490004222E-01  0.73433841730E-01 -0.58956193090E-01  0.12812645809E+00  0.24030119477E-01 0.  0.
         14    1    1    2    0    0 -0.59585813180E-02  0.21206138301E-01 -0.10940280450E-01  0.24594607728E-01  0.00000000000E+00 0.  1.
     999901    1    3    3    0    0 -0.77531422904E-01 -0.94639980031E-01  0.69896473540E-01  0.89120893418E+00  0.88000000000E+00 0. -1.
        -11    1    4    4    0    0  0.73441380693E-01  0.58568172448E-01 -0.40238224661E-01  0.10219218692E+00  0.51100000000E-03 0.  1.
         11    1    4    4    0    0  0.10048623529E-01  0.14865669282E-01 -0.18717968429E-01  0.25934271170E-01  0.51100000000E-03 0. -1.
</event>
<event>
 8    1  0.5489035E+004  0.1043930E+01  0.7957747E-01            NaN
         13   -1    0    0    0    0  0.00000000000E+00  0.00000000000E+00  0.74505805969E-08  0.10566000000E+00  0.10566000000E+00 0. -1.
     999900   -1    0    0    0    0 -0.00000000000E+00 -0.00000000000E+00 -0.74505805969E-08  0.93827000000E+00  0.93827000000E+00 0. -1.
     999902    2    1    2    0    0 -0.17739208810E-02  0.21118952083E-01  0.11736657642E-01  0.10197038558E+01  0.10194160325E+01 0.  0.
     999903    2    3    3    0    0 -0.40238476552E-01 -0.73864489962E-01 -0.93408979758E-01  0.12753964365E+00  0.21587619809E-01 0.  0.
         14    1    1    2    0    0  0.17739208810E-02 -0.21118952083E-01 -0.11736657642E-01  0.24226144245E-01  0.00000000000E+00 0.  1.
     999901    1    3    3    0    0  0.38464555671E-01  0.94983442045E-01  0.10514563740E+00  0.89216421211E+00  0.88000000000E+00 0.  1.
        -11    1    4    4    0    0 -0.29362535233E-01 -0.33360228401E-01 -0.41541795733E-01  0.60836216417E-01  0.51100000000E-03 0.  1.
         11    1    4    4    0    0 -0.10875941320E-01 -0.40504261561E-01 -0.51867184026E-01  0.66703427228E-01  0.51100000000E-03 0. -1.
</event>
<event>
 8    1  0.5489035E+004  0.1043930E+01  0.7957747E-01            NaN
         13   -1    0    0    0    0  0.00000000000E+00  0.00000000000E+00  0.74505805969E-08  0.10566000000E+00  0.10566000000E+00 0.  1.
     999900   -1    0    0    0    0 -0.00000000000E+00 -0.00000000000E+00 -0.74505805969E-08  0.93827000000E+00  0.93827000000E+00 0.  1.
     999902    2    1    2    0    0  0.27167062137E-02 -0.53211467977E-02  0.23670674340E-01  0.10195169723E+01  0.10192246371E+01 0.  0.
     999903    2    3    3    0    0  0.31869461872E-01 -0.11918845140E+00  0.40502817088E-01  0.13154232898E+00  0.21008488150E-01 0.  0.
         14    1    1    2    0    0 -0.27167062137E-02  0.53211467977E-02 -0.23670674340E-01  0.24413027662E-01  0.00000000000E+00 0. -1.
     999901    1    3    3    0    0 -0.29152755658E-01  0.11386730460E+00 -0.16832142748E-01  0.88797464336E+00  0.88000000000E+00 0.  1.
        -11    1    4    4    0    0  0.21753590910E-01 -0.90082929955E-01  0.39410150559E-01  0.10070538255E+00  0.51100000000E-03 0.  1.
         11    1    4    4    0    0  0.10115870962E-01 -0.29105521443E-01  0.10926665285E-02  0.30836946427E-01  0.51100000000E-03 0. -1.
</event>
<event>
 8    1  0.5489035E+004  0.1043930E+01  0.7957747E-01            NaN
         13   -1    0    0    0    0  0.00000000000E+00  0.00000000000E+00  0.74505805969E-08  0.10566000000E+00  0.10566000000E+00 0. -1.
     999900   -1    0    0    0    0 -0.00000000000E+00 -0.00000000000E+00 -0.74505805969E-08  0.93827000000E+00  0.93827000000E+00 0.  1.
     999902    2    1    2    0    0  0.22213051706E-01 -0.38520259078E-04 -0.57275689389E-02  0.10209903793E+01  0.10207326430E+01 0.  0.
     999903    2    3    3    0    0  0.71975186835E-01  0.31097582691E-01 -0.10601444484E+00  0.13335127223E+00  0.19900053321E-01 0.  0.
         14    1    1    2    0    0 -0.22213051706E-01  0.38520259078E-04  0.57275689389E-02  0.22939620657E-01  0.00000000000E+00 0. -1.
     999901    1    3    3    0    0 -0.49762135129E-01 -0.31136102950E-01  0.10028687590E+00  0.88763910711E+00  0.88000000000E+00 0. -1.
        -11    1    4    4    0    0  0.32286330388E-01  0.48911462930E-02 -0.51739563827E-01  0.61184753232E-01  0.51100000000E-03 0.  1.
         11    1    4    4    0    0  0.39688856448E-01  0.26206436398E-01 -0.54274881009E-01  0.72166518999E-01  0.51100000000E-03 0. -1.
</event>
<event>
 8    1  0.5489035E+004  0.1043930E+01  0.7957747E-01            NaN
         13   -1    0    0    0    0  0.00000000000E+00  0.00000000000E+00  0.74505805969E-08  0.10566000000E+00  0.10566000000E+00 0.  1.
     999900   -1    0    0    0    0 -0.00000000000E+00 -0.00000000000E+00 -0.74505805969E-08  0.93827000000E+00  0.93827000000E+00 0.  1.
     999902    2    1    2    0    0 -0.23514211974E-03 -0.48903519174E-02  0.21991046323E-01  0.10214005315E+01  0.10211520302E+01 0.  0.
     999903    2    3    3    0    0 -0.10573461488E-01  0.49110798101E-01 -0.11686021491E+00  0.12881850286E+00  0.20352598709E-01 0.  0.
         14    1    1    2    0    0  0.23514211974E-03  0.48903519174E-02 -0.21991046323E-01  0.22529468526E-01  0.00000000000E+00 0.  1.
     999901    1    3    3    0    0  0.10338319368E-01 -0.54001150018E-01  0.13885126123E+00  0.89258202861E+00  0.88000000000E+00 0. -1.
        -11    1    4    4    0    0 -0.12524914200E-01  0.27866716526E-01 -0.49624756081E-01  0.58277825137E-01  0.51100000000E-03 0.  1.
         11    1    4    4    0    0  0.19514527120E-02  0.21244081575E-01 -0.67235458826E-01  0.70540677727E-01  0.51100000000E-03 0. -1.
</event>
<event>
 8    1  0.5489035E+004  0.1043930E+01  0.7957747E-01            NaN
         13   -1    0    0    0    0  0.00000000000E+00  0.00000000000E+00  0.74505805969E-08  0.10566000000E+00  0.10566000000E+00 0.  1.
     999900   -1    0    0    0    0 -0.00000000000E+00 -0.00000000000E+00 -0.74505805969E-08  0.93827000000E+00  0.93827000000E+00 0.  1.
     999902    2    1    2    0    0 -0.37026779013E-02 -0.14392744072E-01 -0.17760890704E-01  0.10207716291E+01  0.10205088969E+01 0.  0.
     999903    2    3    3    0    0 -0.11967510689E+00 -0.38335912055E-01 -0.38405975836E-01  0.13259985564E+00  0.17774402175E-01 0.  0.
         14    1    1    2    0    0  0.37026779013E-02  0.14392744072E-01  0.17760890704E-01  0.23158370931E-01  0.00000000000E+00 0. -1.
     999901    1    3    3    0    0  0.11597242899E+00  0.23943167984E-01  0.20645085132E-01  0.88817177343E+00  0.88000000000E+00 0.  1.
        -11    1    4    4    0    0 -0.46956912940E-01 -0.89876807538E-02 -0.79198704513E-02  0.48463548644E-01  0.51100000000E-03 0.  1.
         11    1    4    4    0    0 -0.72718193952E-01 -0.29348231302E-01 -0.30486105385E-01  0.84136306995E-01  0.51100000000E-03 0. -1.
</event>
<event>
 8    1  0.5489035E+004  0.1043930E+01  0.7957747E-01            NaN
         13   -1    0    0    0    0  0.00000000000E+00  0.00000000000E+00  0.74505805969E-08  0.10566000000E+00  0.10566000000E+00 0. -1.
     999900   -1    0    0    0    0 -0.00000000000E+00 -0.00000000000E+00 -0.74505805969E-08  0.93827000000E+00  0.93827000000E+00 0.  1.
     999902    2    1    2    0    0  0.20678303034E-01  0.15150091563E-01 -0.44461412139E-02  0.10179129736E+01  0.10175804323E+01 0.  0.
     999903    2    3    3    0    0 -0.69489911491E-01  0.62384660106E-01  0.84340281656E-01  0.12760716083E+00  0.21204027206E-01 0.  0.
         14    1    1    2    0    0 -0.20678303034E-01 -0.15150091563E-01  0.44461412139E-02  0.26017026394E-01  0.00000000000E+00 0. -1.
     999901    1    3    3    0    0  0.90168214524E-01 -0.47234568543E-01 -0.88786422870E-01  0.89030581278E+00  0.88000000000E+00 0.  1.
        -11    1    4    4    0    0 -0.36476589733E-01  0.41151318098E-01  0.60134831660E-01  0.81488843896E-01  0.51100000000E-03 0. -1.
         11    1    4    4    0    0 -0.33013321758E-01  0.21233342008E-01  0.24205449996E-01  0.46118316934E-01  0.51100000000E-03 0.  1.
</event>
<event>
 8    1  0.5489035E+004  0.1043930E+01  0.7957747E-01            NaN
         13   -1    0    0    0    0  0.00000000000E+00  0.00000000000E+00  0.74505805969E-08  0.10566000000E+00  0.10566000000E+00 0. -1.
     999900   -1    0    0    0    0 -0.00000000000E+00 -0.00000000000E+00 -0.74505805969E-08  0.93827000000E+00  0.93827000000E+00 0.  1.
     999902    2    1    2    0    0  0.19028843702E-01 -0.12664078439E-01 -0.98780875915E-02  0.10190291488E+01  0.10187248666E+01 0.  0.
     999903    2    3    3    0    0 -0.50421706090E-01  0.89257668822E-01 -0.74179849026E-01  0.12810483219E+00  0.19972935187E-01 0.  0.
         14    1    1    2    0    0 -0.19028843702E-01  0.12664078439E-01  0.98780875915E-02  0.24900851186E-01  0.00000000000E+00 0. -1.
     999901    1    3    3    0    0  0.69450549792E-01 -0.10192174726E+00  0.64301761434E-01  0.89092431663E+00  0.88000000000E+00 0. -1.
        -11    1    4    4    0    0 -0.37820726492E-01  0.78521846516E-01 -0.67531618250E-01  0.11025818934E+00  0.51100000000E-03 0.  1.
         11    1    4    4    0    0 -0.12600979598E-01  0.10735822305E-01 -0.66482307756E-02  0.17846642845E-01  0.51100000000E-03 0. -1.
</event>
<event>
 8    1  0.5489035E+004  0.1043930E+01  0.7957747E-01            NaN
         13   -1    0    0    0    0  0.00000000000E+00  0.00000000000E+00  0.74505805969E-08  0.10566000000E+00  0.10566000000E+00 0.  1.
     999900   -1    0    0    0    0 -0.00000000000E+00 -0.00000000000E+00 -0.74505805969E-08  0.93827000000E+00  0.93827000000E+00 0.  1.
     999902    2    1    2    0    0 -0.17571776076E-01 -0.62180462040E-02  0.14975969862E-01  0.10200195193E+01  0.10197392356E+01 0.  0.
     999903    2    3    3    0    0 -0.79915640453E-01 -0.37782655653E-01 -0.94212566582E-01  0.13052234761E+00  0.18602066166E-01 0.  0.
         14    1    1    2    0    0  0.17571776076E-01  0.62180462040E-02 -0.14975969862E-01  0.23910480680E-01  0.00000000000E+00 0. -1.
     999901    1    3    3    0    0  0.62343864377E-01  0.31564609449E-01  0.10918853644E+00  0.88949717171E+00  0.88000000000E+00 0. -1.
        -11    1    4    4    0    0 -0.40395071018E-01 -0.91706866256E-02 -0.46532571909E-01  0.62300919939E-01  0.51100000000E-03 0. -1.
         11    1    4    4    0    0 -0.39520569435E-01 -0.28611969027E-01 -0.47679994672E-01  0.68221427668E-01  0.51100000000E-03 0.  1.
</event>
<event>
 8    1  0.5489035E+004  0.1043930E+01  0.7957747E-01            NaN
         13   -1    0    0    0    0  0.00000000000E+00  0.00000000000E+00  0.74505805969E-08  0.10566000000E+00  0.10566000000E+00 0.  1.
     999900   -1    0    0    0    0 -0.00000000000E+00 -0.00000000000E+00 -0.74505805969E-08  0.93827000000E+00  0.93827000000E+00 0.  1.
     999902    2    1    2    0    0 -0.14812026263E-01  0.11984498535E-01  0.13837896185E-01  0.10203819279E+01  0.10201101740E+01 0.  0.
     999903    2    3    3    0    0  0.60352848283E-01 -0.64686516612E-01 -0.90412640336E-01  0.12774741298E+00  0.17836598964E-01 0.  0.
         14    1    1    2    0    0  0.14812026263E-01 -0.11984498535E-01 -0.13837896185E-01  0.23548072065E-01  0.00000000000E+00 0.  1.
     999901    1    3    3    0    0 -0.75164874546E-01  0.76671015147E-01  0.10425053652E+00  0.89263451496E+00  0.88000000000E+00 0. -1.
        -11    1    4    4    0    0  0.10588320647E-01 -0.49084719635E-02 -0.18105737514E-01  0.21547261615E-01  0.51100000000E-03 0.  1.
         11    1    4    4    0    0  0.49764527636E-01 -0.59778044649E-01 -0.72306902822E-01  0.10620015136E+00  0.51100000000E-03 0. -1.
</event>
<event>
 8    1  0.5489035E+004  0.1043930E+01  0.7957747E-01            NaN
         13   -1    0    0    0    0  0.00000000000E+00  0.00000000000E+00  0.74505805969E-08  0.10566000000E+00  0.10566000000E+00 0. -1.
     999900   -1    0    0    0    0 -0.00000000000E+00 -0.00000000000E+00 -0.74505805969E-08  0.93827000000E+00  0.93827000000E+00 0. -1.
     999902    2    1    2    0    0  0.38649154460E-02  0.18533272436E-01 -0.14110755063E-01  0.10203178598E+01  0.10200446077E+01 0.  0.
     999903    2    3    3    0    0  0.54664695228E-01  0.75744530095E-02  0.11528914848E+00  0.12933803485E+00  0.19777215620E-01 0.  0.
         14    1    1    2    0    0 -0.38649154460E-02 -0.18533272436E-01  0.14110755063E-01  0.23612140247E-01  0.00000000000E+00 0. -1.
     999901    1    3    3    0    0 -0.50799779782E-01  0.10958819426E-01 -0.12939990355E+00  0.89097982490E+00  0.88000000000E+00 0. -1.
        -11    1    4    4    0    0  0.94520721656E-02 -0.33942358806E-02  0.36273927703E-01  0.37642017181E-01  0.51100000000E-03 0. -1.
         11    1    4    4    0    0  0.45212623063E-01  0.10968688890E-01  0.79015220781E-01  0.91696017668E-01  0.51100000000E-03 0.  1.
</event>
<event>
 8    1  0.5489035E+004  0.1043930E+01  0.7957747E-01            NaN
         13   -1    0    0    0    0  0.00000000000E+00  0.00000000000E+00  0.74505805969E-08  0.10566000000E+00  0.10566000000E+00 0. -1.
     999900   -1    0    0    0    0 -0.00000000000E+00 -0.00000000000E+00 -0.74505805969E-08  0.93827000000E+00  0.93827000000E+00 0. -1.
     999902    2    1    2    0    0  0.80897229022E-02  0.24102833949E-01  0.20558188893E-02  0.10184228125E+01  0.10181033388E+01 0.  0.
     999903    2    3    3    0    0 -0.10998619474E+00  0.45902882746E-01 -0.45234808343E-01  0.12901089004E+00  0.19838956229E-01 0.  0.
         14    1    1    2    0    0 -0.80897229022E-02 -0.24102833949E-01 -0.20558188893E-02  0.25507187464E-01  0.00000000000E+00 0.  1.
     999901    1    3    3    0    0  0.11807591765E+00 -0.21800048797E-01  0.47290627232E-01  0.88941192250E+00  0.88000000000E+00 0.  1.
        -11    1    4    4    0    0 -0.85617923770E-01  0.31705029238E-01 -0.42385683521E-01  0.10066004688E+00  0.51100000000E-03 0. -1.
         11    1    4    4    0    0 -0.24368270974E-01  0.14197853508E-01 -0.28491248215E-02  0.28350843157E-01  0.51100000000E-03 0.  1.
</event>
<event>
 8    1  0.5489035E+004  0.1043930E+01  0.7957747E-01            NaN
         13   -1    0    0    0    0  0.00000000000E+00  0.00000000000E+00  0.74505805969E-08  0.10566000000E+00  0.10566000000E+00 0. -1.
     999900   -1    0    0    0    0 -0.00000000000E+00 -0.00000000000E+00 -0.74505805969E-08  0.93827000000E+00  0.93827000000E+00 0. -1.
     999902    2    1    2    0    0  0.18801116825E-01  0.10334016151E-01  0.10819783613E-01  0.10199020662E+01  0.10196189892E+01 0.  0.
     999903    2    3    3    0    0 -0.24985234944E-01  0.53018651133E-01 -0.11358756889E+00  0.12905055671E+00  0.17795253530E-01 0.  0.
         14    1    1    2    0    0 -0.18801116825E-01 -0.10334016151E-01 -0.10819783613E-01  0.24027933767E-01  0.00000000000E+00 0.  1.
     999901    1    3    3    0    0  0.43786351769E-01 -0.42684634983E-01  0.12440735250E+00  0.89085150952E+00  0.88000000000E+00 0.  1.
        -11    1    4    4    0    0 -0.26808824361E-01  0.48715395698E-01 -0.96989918434E-01  0.11179985796E+00  0.51100000000E-03 0.  1.
         11    1    4    4    0    0  0.18235894167E-02  0.43032554351E-02 -0.16597650452E-01  0.17250698746E-01  0.51100000000E-03 0. -1.
</event>
<event>
 8    1  0.5489035E+004  0.1043930E+01  0.7957747E-01            NaN
         13   -1    0    0    0    0  0.00000000000E+00  0.00000000000E+00  0.74505805969E-08  0.10566000000E+00  0.10566000000E+00 0. -1.
     999900   -1    0    0    0    0 -0.00000000000E+00 -0.00000000000E+00 -0.74505805969E-08  0.93827000000E+00  0.93827000000E+00 0.  1.
     999902    2    1    2    0    0  0.23565051418E-01 -0.53441974873E-02 -0.92876982548E-02  0.10180430644E+01  0.10177138830E+01 0.  0.
     999903    2    3    3    0    0 -0.76753412938E-01 -0.80679832188E-01  0.56763863257E-01  0.12669461351E+00  0.20713937382E-01 0.  0.
         14    1    1    2    0    0 -0.23565051418E-01  0.53441974873E-02  0.92876982548E-02  0.25886935585E-01  0.00000000000E+00 0. -1.
     999901    1    3    3    0    0  0.10031846436E+00  0.75335634701E-01 -0.66051561512E-01  0.89134845090E+00  0.88000000000E+00 0.  1.
        -11    1    4    4    0    0 -0.46370881653E-01 -0.36236188552E-01  0.36006426374E-01  0.68993071299E-01  0.51100000000E-03 0. -1.
         11    1    4    4    0    0 -0.30382531286E-01 -0.44443643636E-01  0.20757436882E-01  0.57701542214E-01  0.51100000000E-03 0.  1.
</event>
<event>
 8    1  0.5489035E+004  0.1043930E+01  0.7957747E-01            NaN
         13   -1    0    0    0    0  0.00000000000E+00  0.00000000000E+00  0.74505805969E-08  0.10566000000E+00  0.10566000000E+00 0. -1.
     999900   -1    0    0    0    0 -0.00000000000E+00 -0.00000000000E+00 -0.74505805969E-08  0.93827000000E+00  0.93827000000E+00 0.  1.
     999902    2    1    2    0    0 -0.10978796344E-01  0.71132396216E-02 -0.20430519196E-01  0.10196701925E+01  0.10193815592E+01 0.  0.
     999903    2    3    3    0    0  0.37478732622E-01 -0.11871448423E+00 -0.29502776351E-01  0.12935392615E+00  0.19085078821E-01 0.  0.
         14    1    1    2    0    0  0.10978796344E-01 -0.71132396216E-02  0.20430519196E-01  0.24259807537E-01  0.00000000000E+00 0. -1.
     999901    1    3    3    0    0 -0.48457528966E-01  0.12582772385E+00  0.90722571544E-02  0.89031626631E+00  0.88000000000E+00 0.  1.
        -11    1    4    4    0    0  0.11103602304E-01 -0.60966877373E-01 -0.20244210304E-01  0.65194626255E-01  0.51100000000E-03 0. -1.
         11    1    4    4    0    0  0.26375130318E-01 -0.57747606860E-01 -0.92585660471E-02  0.64159299899E-01  0.51100000000E-03 0.  1.
</event>
<event>
 8    1  0.5489035E+004  0.1043930E+01  0.7957747E-01            NaN
         13   -1    0    0    0    0  0.00000000000E+00  0.00000000000E+00  0.74505805969E-08  0.10566000000E+00  0.10566000000E+00 0. -1.
     999900   -1    0    0    0    0 -0.00000000000E+00 -0.00000000000E+00 -0.74505805969E-08  0.93827000000E+00  0.93827000000E+00 0.  1.
     999902    2    1    2    0    0  0.66010042670E-02  0.19816813784E-01  0.83432832239E-02  0.10214380072E+01  0.10211903411E+01 0.  0.
     999903    2    3    3    0    0 -0.26942894894E-01 -0.59230542989E-01  0.11213025347E+00  0.13118781034E+00  0.20071647434E-01 0.  0.
         14    1    1    2    0    0 -0.66010042670E-02 -0.19816813784E-01 -0.83432832239E-02  0.22491992816E-01  0.00000000000E+00 0.  1.
     999901    1    3    3    0    0  0.33543899161E-01  0.79047356773E-01 -0.10378697025E+00  0.89025019684E+00  0.88000000000E+00 0.  1.
        -11    1    4    4    0    0 -0.17612326249E-01 -0.25396753032E-01  0.68797614183E-01  0.75422555902E-01  0.51100000000E-03 0. -1.
         11    1    4    4    0    0 -0.93305686457E-02 -0.33833789957E-01  0.43332639289E-01  0.55765254440E-01  0.51100000000E-03 0.  1.
</event>
<event>
 8    1  0.5489035E+004  0.1043930E+01  0.7957747E-01            NaN
         13   -1    0    0    0    0  0.00000000000E+00  0.00000000000E+00  0.74505805969E-08  0.10566000000E+00  0.10566000000E+00 0.  1.
     999900   -1    0    0    0    0 -0.00000000000E+00 -0.00000000000E+00 -0.74505805969E-08  0.93827000000E+00  0.93827000000E+00 0.  1.
     999902    2    1    2    0    0  0.16005898253E-01  0.12390582682E-01 -0.11437803225E-01  0.10206805127E+01  0.10204156851E+01 0.  0.
     999903    2    3    3    0    0  0.41470439878E-01 -0.10501689952E+00 -0.63526567411E-01  0.13099169117E+00  0.19361090372E-01 0.  0.
         14    1    1    2    0    0 -0.16005898253E-01 -0.12390582682E-01  0.11437803225E-01  0.23249487321E-01  0.00000000000E+00 0.  1.
     999901    1    3    3    0    0 -0.25464541625E-01  0.11740748220E+00  0.52088764186E-01  0.88968882151E+00  0.88000000000E+00 0. -1.
        -11    1    4    4    0    0  0.23834189413E-01 -0.58564920605E-01 -0.24513875647E-01  0.67816736361E-01  0.51100000000E-03 0. -1.
         11    1    4    4    0    0  0.17636250465E-01 -0.46451978917E-01 -0.39012691764E-01  0.63174954812E-01  0.51100000000E-03 0.  1.
</event>
<event>
 8    1  0.5489035E+004  0.1043930E+01  0.7957747E-01            NaN
         13   -1    0    0    0    0  0.00000000000E+00  0.00000000000E+00  0.74505805969E-08  0.10566000000E+00  0.10566000000E+00 0. -1.
     999900   -1    0    0    0    0 -0.00000000000E+00 -0.00000000000E+00 -0.74505805969E-08  0.93827000000E+00  0.93827000000E+00 0.  1.
     999902    2    1    2    0    0  0.22311450863E-01 -0.74840316556E-02 -0.24058992796E-02  0.10202741356E+01  0.10199998587E+01 0.  0.
     999903    2    3    3    0    0 -0.25297821343E-02  0.17271483096E-01 -0.12771012617E+00  0.13070622270E+00  0.21668788666E-01 0.  0.
         14    1    1    2    0    0 -0.22311450863E-01  0.74840316556E-02  0.24058992796E-02  0.23655864406E-01  0.00000000000E+00 0. -1.
     999901    1    3    3    0    0  0.24841232998E-01 -0.24755514751E-01  0.12530422689E+00  0.88956791289E+00  0.88000000000E+00 0. -1.
        -11    1    4    4    0    0 -0.11610020075E-01  0.97790355621E-02 -0.87370773838E-01  0.88681087864E-01  0.51100000000E-03 0. -1.
         11    1    4    4    0    0  0.90802379405E-02  0.74924475339E-02 -0.40339352328E-01  0.42025134840E-01  0.51100000000E-03 0.  1.
</event>
<event>
 7    1  0.5489035E+004  0.1043930E+01  0.7957747E-01            NaN
         13   -1    0    0    0    0  0.00000000000E+00  0.00000000000E+00  0.74505805969E-08  0.10566000000E+00  0.10566000000E+00 0. -1.
     999900   -1    0    0    0    0 -0.00000000000E+00 -0.00000000000E+00 -0.74505805969E-08  0.93827000000E+00  0.93827000000E+00 0. -1.
     999902    2    1    2    0    0 -0.22158984552E-01  0.75231202005E-03  0.82597290633E-02  0.10202697022E+01  0.10199953213E+01 0.  0.
         14    1    1    2    0    0  0.22158984552E-01 -0.75231202005E-03 -0.82597290633E-02  0.23660297842E-01  0.00000000000E+00 0. -1.
     999901    1    3    3    0    0 -0.12934094911E+00  0.55833331074E-01 -0.10414610549E-01  0.89126590089E+00  0.88000000000E+00 0.  1.
        -11    1    3    3    0    0  0.72885453066E-01 -0.15145668905E-01  0.49928786296E-02  0.74611463685E-01  0.51100000000E-03 0.  1.
         11    1    3    3    0    0  0.34296511493E-01 -0.39935350149E-01  0.13681460983E-01  0.54392337583E-01  0.51100000000E-03 0. -1.
</event>
<event>
 8    1  0.5489035E+004  0.1043930E+01  0.7957747E-01            NaN
         13   -1    0    0    0    0  0.00000000000E+00  0.00000000000E+00  0.74505805969E-08  0.10566000000E+00  0.10566000000E+00 0.  1.
     999900   -1    0    0    0    0 -0.00000000000E+00 -0.00000000000E+00 -0.74505805969E-08  0.93827000000E+00  0.93827000000E+00 0. -1.
     999902    2    1    2    0    0  0.22373838000E-01  0.42699895410E-02 -0.47015416130E-02  0.10206721856E+01  0.10204071660E+01 0.  0.
     999903    2    3    3    0    0  0.41794305534E-01  0.53416948243E-01  0.11089514093E+00  0.13154049055E+00  0.20125457490E-01 0.  0.
         14    1    1    2    0    0 -0.22373838000E-01 -0.42699895410E-02  0.47015416130E-02  0.23257814409E-01  0.00000000000E+00 0.  1.
     999901    1    3    3    0    0 -0.19420467534E-01 -0.49146958702E-01 -0.11559668254E+00  0.88913169504E+00  0.88000000000E+00 0. -1.
        -11    1    4    4    0    0 -0.47933961029E-03  0.52153744093E-02  0.17364282508E-01  0.18144126452E-01  0.51100000000E-03 0.  1.
         11    1    4    4    0    0  0.42273645144E-01  0.48201573834E-01  0.93530858418E-01  0.11339636410E+00  0.51100000000E-03 0. -1.
</event>
<event>
 8    1  0.5489035E+004  0.1043930E+01  0.7957747E-01            NaN
         13   -1    0    0    0    0  0.00000000000E+00  0.00000000000E+00  0.74505805969E-08  0.10566000000E+00  0.10566000000E+00 0. -1.
     999900   -1    0    0    0    0 -0.00000000000E+00 -0.00000000000E+00 -0.74505805969E-08  0.93827000000E+00  0.93827000000E+00 0.  1.
     999902    2    1    2    0    0  0.35284063065E-02 -0.23909471630E-01  0.10023333046E-01  0.10177655262E+01  0.10174291556E+01 0.  0.
     999903    2    3    3    0    0  0.71605011415E-01  0.58285033162E-01  0.86550235048E-01  0.12802021009E+00  0.19334121503E-01 0.  0.
         14    1    1    2    0    0 -0.35284063065E-02  0.23909471630E-01 -0.10023333046E-01  0.26164473816E-01  0.00000000000E+00 0.  1.
     999901    1    3    3    0    0 -0.68076605109E-01 -0.82194504792E-01 -0.76526902001E-01  0.88974531609E+00  0.88000000000E+00 0.  1.
        -11    1    4    4    0    0  0.35129528291E-01  0.32397230702E-01  0.32183870886E-01  0.57617071961E-01  0.51100000000E-03 0. -1.
         11    1    4    4    0    0  0.36475483124E-01  0.25887802459E-01  0.54366364162E-01  0.70403138130E-01  0.51100000000E-03 0.  1.
</event>
<event>
 8    1  0.5489035E+004  0.1043930E+01  0.7957747E-01            NaN
         13   -1    0    0    0    0  0.00000000000E+00  0.00000000000E+00  0.74505805969E-08  0.10566000000E+00  0.10566000000E+00 0. -1.
     999900   -1    0    0    0    0 -0.00000000000E+00 -0.00000000000E+00 -0.74505805969E-08  0.93827000000E+00  0.93827000000E+00 0.  1.
     999902    2    1    2    0    0  0.23275034370E-01  0.10053316852E-02 -0.63424300732E-03  0.10206246319E+01  0.10203585150E+01 0.  0.
     999903    2    3    3    0    0  0.53053101413E-01 -0.51647519813E-01  0.10735973808E+00  0.13196172846E+00  0.20141661944E-01 0.  0.
         14    1    1    2    0    0 -0.23275034370E-01 -0.10053316852E-02  0.63424300732E-03  0.23305368070E-01  0.00000000000E+00 0. -1.
     999901    1    3    3    0    0 -0.29778067044E-01  0.52652851498E-01 -0.10799398109E+00  0.88866290347E+00  0.88000000000E+00 0.  1.
        -11    1    4    4    0    0  0.40740674581E-01 -0.40338793070E-01  0.66456406695E-01  0.87770928578E-01  0.51100000000E-03 0. -1.
         11    1    4    4    0    0  0.12312426833E-01 -0.11308726743E-01  0.40903331385E-01  0.44190799885E-01  0.51100000000E-03 0.  1.
</event>
<event>
 8    1  0.5489035E+004  0.1043930E+01  0.7957747E-01            NaN
         13   -1    0    0    0    0  0.00000000000E+00  0.00000000000E+00  0.74505805969E-08  0.10566000000E+00  0.10566000000E+00 0.  1.
     999900   -1    0    0    0    0 -0.00000000000E+00 -0.00000000000E+00 -0.74505805969E-08  0.93827000000E+00  0.93827000000E+00 0. -1.
     999902    2    1    2    0    0  0.12130183823E-01 -0.16409643534E-01 -0.12145979126E-01  0.10201825250E+01  0.10199060946E+01 0.  0.
     999903    2    3    3    0    0 -0.34061312038E-01  0.11525445331E+00 -0.41733473669E-01  0.12869808400E+00  0.19435843587E-01 0.  0.
         14    1    1    2    0    0 -0.12130183823E-01  0.16409643534E-01  0.12145979126E-01  0.23747475012E-01  0.00000000000E+00 0. -1.
     999901    1    3    3    0    0  0.46191495861E-01 -0.13166409684E+00  0.29587494542E-01  0.89148444099E+00  0.88000000000E+00 0.  1.
        -11    1    4    4    0    0 -0.35377057496E-01  0.94134798568E-01 -0.35177844679E-01  0.10653937477E+00  0.51100000000E-03 0. -1.
         11    1    4    4    0    0  0.13157454579E-02  0.21119654741E-01 -0.65556289901E-02  0.22158709235E-01  0.51100000000E-03 0.  1.
</event>
<event>
 8    1  0.5489035E+004  0.1043930E+01  0.7957747E-01            NaN
         13   -1    0    0    0    0  0.00000000000E+00  0.00000000000E+00  0.74505805969E-08  0.10566000000E+00  0.10566000000E+00 0.  1.
     999900   -1    0    0    0    0 -0.00000000000E+00 -0.00000000000E+00 -0.74505805969E-08  0.93827000000E+00  0.93827000000E+00 0.  1.
     999902    2    1    2    0    0  0.20057580743E-01  0.61338043437E-02 -0.11509707461E-01  0.10200050451E+01  0.10197244180E+01 0.  0.
     999903    2    3    3    0    0 -0.10694875716E+00 -0.60543758695E-01  0.32039641937E-01  0.12732758201E+00  0.90659312522E-02 0.  0.
         14    1    1    2    0    0 -0.20057580743E-01 -0.61338043437E-02  0.11509707461E-01  0.23924954897E-01  0.00000000000E+00 0.  1.
     999901    1    3    3    0    0  0.12700633791E+00  0.66677563039E-01 -0.43549349399E-01  0.89267746309E+00  0.88000000000E+00 0.  1.
        -11    1    4    4    0    0 -0.35701334243E-01 -0.17944406544E-01  0.65843811031E-02  0.40499409730E-01  0.51100000000E-03 0.  1.
         11    1    4    4    0    0 -0.71247422920E-01 -0.42599352151E-01  0.25455260834E-01  0.86828172280E-01  0.51100000000E-03 0. -1.
</event>
<event>
 8    1  0.5489035E+004  0.1043930E+01  0.7957747E-01            NaN
         13   -1    0    0    0    0  0.00000000000E+00  0.00000000000E+00  0.74505805969E-08  0.10566000000E+00  0.10566000000E+00 0.  1.
     999900   -1    0    0    0    0 -0.00000000000E+00 -0.00000000000E+00 -0.74505805969E-08  0.93827000000E+00  0.93827000000E+00 0. -1.
     999902    2    1    2    0    0 -0.55509781257E-02  0.91725544610E-02 -0.17490375373E-01  0.10234150702E+01  0.10232094329E+01 0.  0.
     999903    2    3    3    0    0  0.11664403091E+00  0.24698795009E-02  0.57926834921E-01  0.13175128734E+00  0.19772537976E-01 0.  0.
         14    1    1    2    0    0  0.55509781257E-02 -0.91725544610E-02  0.17490375373E-01  0.20514929787E-01  0.00000000000E+00 0.  1.
     999901    1    3    3    0    0 -0.12219500904E+00  0.67026749601E-02 -0.75417210293E-01  0.89166378288E+00  0.88000000000E+00 0. -1.
        -11    1    4    4    0    0  0.31675160524E-01 -0.37593927310E-02  0.75834174709E-02  0.32790519506E-01  0.51100000000E-03 0. -1.
         11    1    4    4    0    0  0.84968870391E-01  0.62292722319E-02  0.50343417450E-01  0.98960767830E-01  0.51100000000E-03 0.  1.
</event>
<event>
 8    1  0.5489035E+004  0.1043930E+01  0.7957747E-01            NaN
         13   -1    0    0    0    0  0.00000000000E+00  0.00000000000E+00  0.74505805969E-08  0.10566000000E+00  0.10566000000E+00 0.  1.
     999900   -1    0    0    0    0 -0.00000000000E+00 -0.00000000000E+00 -0.74505805969E-08  0.93827000000E+00  0.93827000000E+00 0. -1.
     999902    2    1    2    0    0 -0.19630045271E-01  0.13239075740E-01 -0.38295521019E-02  0.10199450615E+01  0.10196630087E+01 0.  0.
     999903    2    3    3    0    0  0.11261001693E+00  0.73249992600E-02 -0.57887096555E-01  0.12840446882E+00  0.20052933396E-01 0.  0.
         14    1    1    2    0    0  0.19630045271E-01 -0.13239075740E-01  0.38295521019E-02  0.23984938463E-01  0.00000000000E+00 0.  1.
     999901    1    3    3    0    0 -0.13224006220E+00  0.59140764799E-02  0.54057544453E-01  0.89154059272E+00  0.88000000000E+00 0.  1.
        -11    1    4    4    0    0  0.71681104099E-01  0.10874622567E-01 -0.28559178057E-01  0.77925129921E-01  0.51100000000E-03 0.  1.
         11    1    4    4    0    0  0.40928912832E-01 -0.35496233071E-02 -0.29327918497E-01  0.50479338898E-01  0.51100000000E-03 0. -1.
</event>
<event>
 8    1  0.5489035E+004  0.1043930E+01  0.7957747E-01            NaN
         13   -1    0    0    0    0  0.00000000000E+00  0.00000000000E+00  0.74505805969E-08  0.10566000000E+00  0.10566000000E+00 0.  1.
     999900   -1    0    0    0    0 -0.00000000000E+00 -0.00000000000E+00 -0.74505805969E-08  0.93827000000E+00  0.93827000000E+00 0. -1.
     999902    2    1    2    0    0 -0.22837876944E-01 -0.47817310089E-02  0.25255640597E-02  0.10204606147E+01  0.10201906949E+01 0.  0.
     999903    2    3    3    0    0 -0.34230682360E-01  0.12094525779E+00  0.31117520023E-01  0.13099191274E+00  0.19775898342E-01 0.  0.
         14    1    1    2    0    0  0.22837876944E-01  0.47817310089E-02 -0.25255640597E-02  0.23469385347E-01  0.00000000000E+00 0. -1.
     999901    1    3    3    0    0  0.11392805416E-01 -0.12572698880E+00 -0.28591955963E-01  0.88946870191E+00  0.88000000000E+00 0. -1.
        -11    1    4    4    0    0 -0.20988027314E-01  0.84816142549E-01  0.30364412453E-01  0.92501535079E-01  0.51100000000E-03 0.  1.
         11    1    4    4    0    0 -0.13242655046E-01  0.36129115242E-01  0.75310757033E-03  0.38490377666E-01  0.51100000000E-03 0. -1.
</event>
<event>
 8    1  0.5489035E+004  0.1043930E+01  0.7957747E-01            NaN
         13   -1    0    0    0    0  0.00000000000E+00  0.00000000000E+00  0.74505805969E-08  0.10566000000E+00  0.10566000000E+00 0. -1.
     999900   -1    0    0    0    0 -0.00000000000E+00 -0.00000000000E+00 -0.74505805969E-08  0.93827000000E+00  0.93827000000E+00 0. -1.
     999902    2    1    2    0    0  0.22674411798E-01 -0.22067664884E-02 -0.71744656278E-02  0.10200454501E+01  0.10197657812E+01 0.  0.
     999903    2    3    3    0    0 -0.10778658355E-01 -0.43274172353E-01  0.11992052584E+00  0.12933855294E+00  0.18939252624E-01 0.  0.
         14    1    1    2    0    0 -0.22674411798E-01  0.22067664884E-02  0.71744656278E-02  0.23884549939E-01  0.00000000000E+00 0. -1.
     999901    1    3    3    0    0  0.33453070153E-01  0.41067405864E-01 -0.12709499147E+00  0.89070689712E+00  0.88000000000E+00 0. -1.
        -11    1    4    4    0    0 -0.28965602657E-02 -0.28797077996E-01  0.52721757165E-01  0.60145711086E-01  0.51100000000E-03 0. -1.
         11    1    4    4    0    0 -0.78820980895E-02 -0.14477094357E-01  0.67198768674E-01  0.69192841852E-01  0.51100000000E-03 0.  1.
</event>
<event>
 8    1  0.5489035E+004  0.1043930E+01  0.7957747E-01            NaN
         13   -1    0    0    0    0  0.00000000000E+00  0.00000000000E+00  0.74505805969E-08  0.10566000000E+00  0.10566000000E+00 0.  1.
     999900   -1    0    0    0    0 -0.00000000000E+00 -0.00000000000E+00 -0.74505805969E-08  0.93827000000E+00  0.93827000000E+00 0.  1.
     999902    2    1    2    0    0  0.58214761248E-02  0.21168555181E-01 -0.12265157236E-01  0.10187818113E+01  0.10184713779E+01 0.  0.
     999903    2    3    3    0    0  0.67056703465E-01  0.24152705046E-01 -0.10855621958E+00  0.13140893201E+00  0.20097262549E-01 0.  0.
         14    1    1    2    0    0 -0.58214761248E-02 -0.21168555181E-01  0.12265157236E-01  0.25148188697E-01  0.00000000000E+00 0. -1.
     999901    1    3    3    0    0 -0.61235227340E-01 -0.29841498646E-02  0.96291062343E-01  0.88737287929E+00  0.88000000000E+00 0. -1.
        -11    1    4    4    0    0  0.23576448296E-01  0.16151068368E-01 -0.54799276481E-01  0.61805564050E-01  0.51100000000E-03 0.  1.
         11    1    4    4    0    0  0.43480255169E-01  0.80016366782E-02 -0.53756943098E-01  0.69603367960E-01  0.51100000000E-03 0. -1.
</event>
<event>
 8    1  0.5489035E+004  0.1043930E+01  0.7957747E-01            NaN
         13   -1    0    0    0    0  0.00000000000E+00  0.00000000000E+00  0.74505805969E-08  0.10566000000E+00  0.10566000000E+00 0.  1.
     999900   -1    0    0    0    0 -0.00000000000E+00 -0.00000000000E+00 -0.74505805969E-08  0.93827000000E+00  0.93827000000E+00 0. -1.
     999902    2    1    2    0    0 -0.39503620541E-02  0.23190503188E-01 -0.25620852022E-02  0.10202663342E+01  0.10199918743E+01 0.  0.
     999903    2    3    3    0    0 -0.27250905647E-01  0.10938002937E+00  0.67204905297E-01  0.13300144550E+00  0.21593576034E-01 0.  0.
         14    1    1    2    0    0  0.39503620541E-02 -0.23190503188E-01  0.25620852022E-02  0.23663665799E-01  0.00000000000E+00 0.  1.
     999901    1    3    3    0    0  0.23300543593E-01 -0.86189526182E-01 -0.69766990499E-01  0.88726488870E+00  0.88000000000E+00 0. -1.
        -11    1    4    4    0    0 -0.22489874389E-01  0.72377111696E-01  0.34058410005E-01  0.83093183599E-01  0.51100000000E-03 0.  1.
         11    1    4    4    0    0 -0.47610312584E-02  0.37002917674E-01  0.33146495292E-01  0.49908261903E-01  0.51100000000E-03 0. -1.
</event>
<event>
 8    1  0.5489035E+004  0.1043930E+01  0.7957747E-01            NaN
         13   -1    0    0    0    0  0.00000000000E+00  0.00000000000E+00  0.74505805969E-08  0.10566000000E+00  0.10566000000E+00 0. -1.
     999900   -1    0    0    0    0 -0.00000000000E+00 -0.00000000000E+00 -0.74505805969E-08  0.93827000000E+00  0.93827000000E+00 0. -1.
     999902    2    1    2    0    0 -0.10116863638E-01 -0.23411887256E-02  0.21059631526E-01  0.10204493660E+01  0.10201791844E+01 0.  0.
     999903    2    3    3    0    0  0.64565120020E-01 -0.11124730529E+00  0.81883775321E-02  0.13050351925E+00  0.20481732160E-01 0.  0.
         14    1    1    2    0    0  0.10116863638E-01  0.23411887256E-02 -0.21059631526E-01  0.23480634031E-01  0.00000000000E+00 0. -1.
     999901    1    3    3    0    0 -0.74681983658E-01  0.10890611657E+00  0.12871253994E-01  0.88994584672E+00  0.88000000000E+00 0. -1.
        -11    1    4    4    0    0  0.61260215272E-01 -0.96508381427E-01  0.24492043397E-02  0.11433696421E+00  0.51100000000E-03 0.  1.
         11    1    4    4    0    0  0.33049047480E-02 -0.14738923867E-01  0.57391731924E-02  0.16166555046E-01  0.51100000000E-03 0. -1.
</event>
<event>
 8    1  0.5489035E+004  0.1043930E+01  0.7957747E-01            NaN
         13   -1    0    0    0    0  0.00000000000E+00  0.00000000000E+00  0.74505805969E-08  0.10566000000E+00  0.10566000000E+00 0. -1.
     999900   -1    0    0    0    0 -0.00000000000E+00 -0.00000000000E+00 -0.74505805969E-08  0.93827000000E+00  0.93827000000E+00 0.  1.
     999902    2    1    2    0    0  0.24077112293E-01 -0.22584492635E-02  0.24585642499E-03  0.10197459479E+01  0.10194591360E+01 0.  0.
     999903    2    3    3    0    0  0.86899182816E-01  0.85361411458E-01 -0.46304275068E-01  0.13194486250E+00  0.20671775694E-01 0.  0.
         14    1    1    2    0    0 -0.24077112293E-01  0.22584492635E-02 -0.24585642499E-03  0.24184052076E-01  0.00000000000E+00 0. -1.
     999901    1    3    3    0    0 -0.62822070523E-01 -0.87619860721E-01  0.46550131493E-01  0.88780108542E+00  0.88000000000E+00 0. -1.
        -11    1    4    4    0    0  0.56697945539E-02  0.11390177534E-01 -0.10151417598E-01  0.16284812396E-01  0.51100000000E-03 0.  1.
         11    1    4    4    0    0  0.81229388262E-01  0.73971233924E-01 -0.36152857470E-01  0.11566005010E+00  0.51100000000E-03 0. -1.
</event>
<event>
 8    1  0.5489035E+004  0.1043930E+01  0.7957747E-01            NaN
         13   -1    0    0    0    0  0.00000000000E+00  0.00000000000E+00  0.74505805969E-08  0.10566000000E+00  0.10566000000E+00 0.  1.
     999900   -1    0    0    0    0 -0.00000000000E+00 -0.00000000000E+00 -0.74505805969E-08  0.93827000000E+00  0.93827000000E+00 0.  1.
     999902    2    1    2    0    0 -0.13556138499E-01  0.81207807417E-02  0.17150417765E-01  0.10206093482E+01  0.10203428781E+01 0.  0.
     999903    2    3    3    0    0  0.34944532761E-01 -0.53556180383E-01  0.11361434823E+00  0.13186773641E+00  0.19786231422E-01 0.  0.
         14    1    1    2    0    0  0.13556138499E-01 -0.81207807417E-02 -0.17150417765E-01  0.23320651800E-01  0.00000000000E+00 0. -1.
     999901    1    3    3    0    0 -0.48500671260E-01  0.61676961125E-01 -0.96463930469E-01  0.88874161179E+00  0.88000000000E+00 0.  1.
        -11    1    4    4    0    0  0.66692027687E-02 -0.27718497595E-01  0.44618791414E-01  0.52951780355E-01  0.51100000000E-03 0. -1.
         11    1    4    4    0    0  0.28275329993E-01 -0.25837682788E-01  0.68995556820E-01  0.78915956054E-01  0.51100000000E-03 0.  1.
</event>
<event>
 8    1  0.5489035E+004  0.1043930E+01  0.7957747E-01            NaN
         13   -1    0    0    0    0  0.00000000000E+00  0.00000000000E+00  0.74505805969E-08  0.10566000000E+00  0.10566000000E+00 0.  1.
     999900   -1    0    0    0    0 -0.00000000000E+00 -0.00000000000E+00 -0.74505805969E-08  0.93827000000E+00  0.93827000000E+00 0. -1.
     999902    2    1    2    0    0 -0.50182444679E-02  0.36647828924E-02  0.22134257766E-01  0.10209400288E+01  0.10206811468E+01 0.  0.
     999903    2    3    3    0    0 -0.26984644280E-01  0.74610695343E-01  0.10589548485E+00  0.13384827004E+00  0.20163799072E-01 0.  0.
         14    1    1    2    0    0  0.50182444679E-02 -0.36647828924E-02 -0.22134257766E-01  0.22989971250E-01  0.00000000000E+00 0. -1.
     999901    1    3    3    0    0  0.21966399812E-01 -0.70945912451E-01 -0.83761227087E-01  0.88709175871E+00  0.88000000000E+00 0. -1.
        -11    1    4    4    0    0 -0.78322195298E-02  0.24461638613E-01  0.20003681159E-01  0.32559542492E-01  0.51100000000E-03 0.  1.
         11    1    4    4    0    0 -0.19152424751E-01  0.50149056730E-01  0.85891803694E-01  0.10128872754E+00  0.51100000000E-03 0. -1.
</event>
<event>
 8    1  0.5489035E+004  0.1043930E+01  0.7957747E-01            NaN
         13   -1    0    0    0    0  0.00000000000E+00  0.00000000000E+00  0.74505805969E-08  0.10566000000E+00  0.10566000000E+00 0. -1.
     999900   -1    0    0    0    0 -0.00000000000E+00 -0.00000000000E+00 -0.74505805969E-08  0.93827000000E+00  0.93827000000E+00 0. -1.
     999902    2    1    2    0    0  0.14362795551E-01  0.13121730051E-01  0.13625955239E-01  0.10201784453E+01  0.10199019187E+01 0.  0.
     999903    2    3    3    0    0 -0.86824601953E-02 -0.10644382449E+00 -0.67557347167E-01  0.12809227554E+00  0.20927565822E-01 0.  0.
         14    1    1    2    0    0 -0.14362795551E-01 -0.13121730051E-01 -0.13625955239E-01  0.23751554723E-01  0.00000000000E+00 0.  1.
     999901    1    3    3    0    0  0.23045255747E-01  0.11956555454E+00  0.81183302406E-01  0.89208616974E+00  0.88000000000E+00 0.  1.
        -11    1    4    4    0    0 -0.25276506799E-03 -0.71297700393E-01 -0.34922356603E-01  0.79393060674E-01  0.51100000000E-03 0. -1.
         11    1    4    4    0    0 -0.84296951273E-02 -0.35146124093E-01 -0.32634990564E-01  0.48699214868E-01  0.51100000000E-03 0.  1.
</event>
<event>
 8    1  0.5489035E+004  0.1043930E+01  0.7957747E-01            NaN
         13   -1    0    0    0    0  0.00000000000E+00  0.00000000000E+00  0.74505805969E-08  0.10566000000E+00  0.10566000000E+00 0.  1.
     999900   -1    0    0    0    0 -0.00000000000E+00 -0.00000000000E+00 -0.74505805969E-08  0.93827000000E+00  0.93827000000E+00 0.  1.
     999902    2    1    2    0    0 -0.35574643741E-02 -0.67195285382E-02 -0.22712254886E-01  0.10199789220E+01  0.10196976744E+01 0.  0.
     999903    2    3    3    0    0  0.53774712951E-01 -0.83857466327E-01  0.79319820861E-01  0.12888533290E+00  0.19899764937E-01 0.  0.
         14    1    1    2    0    0  0.35574643741E-02  0.67195285382E-02  0.22712254886E-01  0.23951078025E-01  0.00000000000E+00 0.  1.
     999901    1    3    3    0    0 -0.57332177325E-01  0.77137937789E-01 -0.10203207575E+00  0.89109358907E+00  0.88000000000E+00 0.  1.
        -11    1    4    4    0    0  0.43269595220E-01 -0.52418376124E-01  0.58962948661E-01  0.89982411958E-01  0.51100000000E-03 0. -1.
         11    1    4    4    0    0  0.10505117730E-01 -0.31439090203E-01  0.20356872200E-01  0.38902920945E-01  0.51100000000E-03 0.  1.
</event>
<event>
 8    1  0.5489035E+004  0.1043930E+01  0.7957747E-01            NaN
         13   -1    0    0    0    0  0.00000000000E+00  0.00000000000E+00  0.74505805969E-08  0.10566000000E+00  0.10566000000E+00 0. -1.
     999900   -1    0    0    0    0 -0.00000000000E+00 -0.00000000000E+00 -0.74505805969E-08  0.93827000000E+00  0.93827000000E+00 0. -1.
     999902    2    1    2    0    0  0.23176341619E-01  0.78861406604E-02 -0.10741374654E-02  0.10194251475E+01  0.10191305822E+01 0.  0.
     999903    2    3    3    0    0  0.82256404450E-01  0.70353756269E-01 -0.73399651755E-01  0.13228162086E+00  0.19878411525E-01 0.  0.
         14    1    1    2    0    0 -0.23176341619E-01 -0.78861406604E-02  0.10741374654E-02  0.24504852513E-01  0.00000000000E+00 0.  1.
     999901    1    3    3    0    0 -0.59080062830E-01 -0.62467615608E-01  0.72325514290E-01  0.88714352663E+00  0.88000000000E+00 0.  1.
        -11    1    4    4    0    0  0.10159862549E-01  0.18560323470E-01 -0.16517926895E-01  0.26847931843E-01  0.51100000000E-03 0.  1.
         11    1    4    4    0    0  0.72096541901E-01  0.51793432798E-01 -0.56881724860E-01  0.10543368901E+00  0.51100000000E-03 0. -1.
</event>
<event>
 8    1  0.5489035E+004  0.1043930E+01  0.7957747E-01            NaN
         13   -1    0    0    0    0  0.00000000000E+00  0.00000000000E+00  0.74505805969E-08  0.10566000000E+00  0.10566000000E+00 0. -1.
     999900   -1    0    0    0    0 -0.00000000000E+00 -0.00000000000E+00 -0.74505805969E-08  0.93827000000E+00  0.93827000000E+00 0.  1.
     999902    2    1    2    0    0  0.27997129543E-03 -0.21223057781E-01 -0.85106983414E-02  0.10210623689E+01  0.10208062660E+01 0.  0.
     999903    2    3    3    0    0  0.96353688560E-01  0.73082967784E-01  0.41246871996E-01  0.12943486742E+00  0.20662211280E-01 0.  0.
         14    1    1    2    0    0 -0.27997129543E-03  0.21223057781E-01  0.85106983414E-02  0.22867631092E-01  0.00000000000E+00 0. -1.
     999901    1    3    3    0    0 -0.96073717264E-01 -0.94306025565E-01 -0.49757570337E-01  0.89162750149E+00  0.88000000000E+00 0. -1.
        -11    1    4    4    0    0  0.67465908439E-01  0.60491635383E-01  0.35900186025E-01  0.97467795863E-01  0.51100000000E-03 0. -1.
         11    1    4    4    0    0  0.28887780120E-01  0.12591332401E-01  0.53466859702E-02  0.31967071555E-01  0.51100000000E-03 0.  1.
</event>
<event>
 8    1  0.5489035E+004  0.1043930E+01  0.7957747E-01            NaN
         13   -1    0    0    0    0  0.00000000000E+00  0.00000000000E+00  0.74505805969E-08  0.10566000000E+00  0.10566000000E+00 0.  1.
     999900   -1    0    0    0    0 -0.00000000000E+00 -0.00000000000E+00 -0.74505805969E-08  0.93827000000E+00  0.93827000000E+00 0.  1.
     999902    2    1    2    0    0 -0.13321912921E-01  0.19743651989E-01 -0.11082277484E-02  0.10200864825E+01  0.10198077851E+01 0.  0.
     999903    2    3    3    0    0 -0.66760568783E-02  0.21530090232E-01 -0.12758317249E+00  0.13101771665E+00  0.19495170003E-01 0.  0.
         14    1    1    2    0    0  0.13321912921E-01 -0.19743651989E-01  0.11082277484E-02  0.23843517494E-01  0.00000000000E+00 0. -1.
     999901    1    3    3    0    0 -0.66458560429E-02 -0.17864382434E-02  0.12647494474E+00  0.88906876585E+00  0.88000000000E+00 0. -1.
        -11    1    4    4    0    0  0.21945886375E-02  0.74628913050E-02 -0.12455291153E-01  0.14693752572E-01  0.51100000000E-03 0.  1.
         11    1    4    4    0    0 -0.88706455159E-02  0.14067198927E-01 -0.11512788134E+00  0.11632396408E+00  0.51100000000E-03 0. -1.
</event>
<event>
 8    1  0.5489035E+004  0.1043930E+01  0.7957747E-01            NaN
         13   -1    0    0    0    0  0.00000000000E+00  0.00000000000E+00  0.74505805969E-08  0.10566000000E+00  0.10566000000E+00 0. -1.
     999900   -1    0    0    0    0 -0.00000000000E+00 -0.00000000000E+00 -0.74505805969E-08  0.93827000000E+00  0.93827000000E+00 0. -1.
     999902    2    1    2    0    0  0.21198992791E-01 -0.94858177251E-02 -0.55687304288E-02  0.10200471863E+01  0.10197675585E+01 0.  0.
     999903    2    3    3    0    0  0.48600734149E-01 -0.11798413074E+00  0.28453308135E-01  0.13230835166E+00  0.20337716455E-01 0.  0.
         14    1    1    2    0    0 -0.21198992791E-01  0.94858177251E-02  0.55687304288E-02  0.23882813734E-01  0.00000000000E+00 0. -1.
     999901    1    3    3    0    0 -0.27401741357E-01  0.10849831301E+00 -0.34022038564E-01  0.88773883460E+00  0.88000000000E+00 0.  1.
        -11    1    4    4    0    0  0.31896513883E-01 -0.96106506482E-01  0.17943365156E-01  0.10284003919E+00  0.51100000000E-03 0.  1.
         11    1    4    4    0    0  0.16704220266E-01 -0.21877624253E-01  0.10509942979E-01  0.29468312474E-01  0.51100000000E-03 0. -1.
</event>
<event>
 8    1  0.5489035E+004  0.1043930E+01  0.7957747E-01            NaN
         13   -1    0    0    0    0  0.00000000000E+00  0.00000000000E+00  0.74505805969E-08  0.10566000000E+00  0.10566000000E+00 0.  1.
     999900   -1    0    0    0    0 -0.00000000000E+00 -0.00000000000E+00 -0.74505805969E-08  0.93827000000E+00  0.93827000000E+00 0. -1.
     999902    2    1    2    0    0 -0.14483650612E-01 -0.65101152955E-02 -0.18007924471E-01  0.10199207709E+01  0.10196381397E+01 0.  0.
     999903    2    3    3    0    0 -0.48157743452E-01  0.68594991060E-01  0.95821351563E-01  0.12878002695E+00  0.19445381756E-01 0.  0.
         14    1    1    2    0    0  0.14483650612E-01  0.65101152955E-02  0.18007924471E-01  0.24009229058E-01  0.00000000000E+00 0.  1.
     999901    1    3    3    0    0  0.33674092840E-01 -0.75105106356E-01 -0.11382927603E+00  0.89114074400E+00  0.88000000000E+00 0. -1.
        -11    1    4    4    0    0 -0.11932887627E-01  0.56395843002E-02  0.18022855631E-01  0.22344645092E-01  0.51100000000E-03 0.  1.
         11    1    4    4    0    0 -0.36224855825E-01  0.62955406760E-01  0.77798495932E-01  0.10643538185E+00  0.51100000000E-03 0. -1.
</event>
<event>
 8    1  0.5489035E+004  0.1043930E+01  0.7957747E-01            NaN
         13   -1    0    0    0    0  0.00000000000E+00  0.00000000000E+00  0.74505805969E-08  0.10566000000E+00  0.10566000000E+00 0. -1.
     999900   -1    0    0    0    0 -0.00000000000E+00 -0.00000000000E+00 -0.74505805969E-08  0.93827000000E+00  0.93827000000E+00 0. -1.
     999902    2    1    2    0    0  0.12084484099E-01  0.25921616194E-02  0.20649413411E-01  0.10198644160E+01  0.10195804405E+01 0.  0.
     999903    2    3    3    0    0 -0.33940553454E-01 -0.11161752320E+00 -0.49928344072E-01  0.12849278980E+00  0.20177334654E-01 0.  0.
         14    1    1    2    0    0 -0.12084484099E-01 -0.25921616194E-02 -0.20649413411E-01  0.24065583974E-01  0.00000000000E+00 0.  1.
     999901    1    3    3    0    0  0.46025037553E-01  0.11420968482E+00  0.70577757483E-01  0.89137162623E+00  0.88000000000E+00 0.  1.
        -11    1    4    4    0    0 -0.93861583048E-02 -0.19582688538E-01 -0.17416010816E-01  0.27841699156E-01  0.51100000000E-03 0.  1.
         11    1    4    4    0    0 -0.24554395149E-01 -0.92034834666E-01 -0.32512333255E-01  0.10065109064E+00  0.51100000000E-03 0. -1.
</event>
<event>
 8    1  0.5489035E+004  0.1043930E+01  0.7957747E-01            NaN
         13   -1    0    0    0    0  0.00000000000E+00  0.00000000000E+00  0.74505805969E-08  0.10566000000E+00  0.10566000000E+00 0. -1.
     999900   -1    0    0    0    0 -0.00000000000E+00 -0.00000000000E+00 -0.74505805969E-08  0.93827000000E+00  0.93827000000E+00 0. -1.
     999902    2    1    2    0    0  0.18193291507E-01 -0.59586176598E-02 -0.15450172988E-01  0.10193290076E+01  0.10190320981E+01 0.  0.
     999903    2    3    3    0    0  0.76146241387E-01 -0.75366899028E-02  0.10279559513E+00  0.12952953787E+00  0.18865710454E-01 0.  0.
         14    1    1    2    0    0 -0.18193291507E-01  0.59586176598E-02  0.15450172988E-01  0.24600992371E-01  0.00000000000E+00 0.  1.
     999901    1    3    3    0    0 -0.57952949880E-01  0.15780722431E-02 -0.11824576811E+00  0.88979946976E+00  0.88000000000E+00 0. -1.
        -11    1    4    4    0    0  0.26123913793E-01  0.63523647594E-02  0.35558919384E-01  0.44581490315E-01  0.51100000000E-03 0. -1.
         11    1    4    4    0    0  0.50022327594E-01 -0.13889054662E-01  0.67236675741E-01  0.84948047553E-01  0.51100000000E-03 0.  1.
</event>
<event>
 8    1  0.5489035E+004  0.1043930E+01  0.7957747E-01            NaN
         13   -1    0    0    0    0  0.00000000000E+00  0.00000000000E+00  0.74505805969E-08  0.10566000000E+00  0.10566000000E+00 0. -1.
     999900   -1    0    0    0    0 -0.00000000000E+00 -0.00000000000E+00 -0.74505805969E-08  0.93827000000E+00  0.93827000000E+00 0. -1.
     999902    2    1    2    0    0  0.71963036094E-02  0.65740452671E-02 -0.20437792952E-01  0.10212869384E+01  0.10210358967E+01 0.  0.
     999903    2    3    3    0    0  0.10475222943E-01 -0.80959013738E-01  0.98105559265E-01  0.12902839176E+00  0.18961353371E-01 0.  0.
         14    1    1    2    0    0 -0.71963036094E-02 -0.65740452671E-02  0.20437792952E-01  0.22643061577E-01  0.00000000000E+00 0. -1.
     999901    1    3    3    0    0 -0.32789193337E-02  0.87533059005E-01 -0.11854335222E+00  0.89225854666E+00  0.88000000000E+00 0.  1.
        -11    1    4    4    0    0  0.73193802403E-02 -0.11160210803E-01  0.21792317144E-01  0.25559535202E-01  0.51100000000E-03 0. -1.
         11    1    4    4    0    0  0.31558427028E-02 -0.69798802935E-01  0.76313242121E-01  0.10346885656E+00  0.51100000000E-03 0.  1.
</event>
<event>
 8    1  0.5489035E+004  0.1043930E+01  0.7957747E-01            NaN
         13   -1    0    0    0    0  0.00000000000E+00  0.00000000000E+00  0.74505805969E-08  0.10566000000E+00  0.10566000000E+00 0.  1.
     999900   -1    0    0    0    0 -0.00000000000E+00 -0.00000000000E+00 -0.74505805969E-08  0.93827000000E+00  0.93827000000E+00 0.  1.
     999902    2    1    2    0    0 -0.22035351958E-01 -0.94604874618E-02 -0.71143391957E-03  0.10199390914E+01  0.10196568964E+01 0.  0.
     999903    2    3    3    0    0 -0.11681838563E-01  0.56656894363E-01  0.11461750738E+00  0.12989444747E+00  0.19721193023E-01 0.  0.
         14    1    1    2    0    0  0.22035351958E-01  0.94604874618E-02  0.71143391957E-03  0.23990908635E-01  0.00000000000E+00 0.  1.
     999901    1    3    3    0    0 -0.10353513394E-01 -0.66117381825E-01 -0.11532894130E+00  0.89004464389E+00  0.88000000000E+00 0.  1.
        -11    1    4    4    0    0 -0.97423961605E-02  0.22380429609E-01  0.66034377944E-01  0.70403111465E-01  0.51100000000E-03 0. -1.
         11    1    4    4    0    0 -0.19394424027E-02  0.34276464754E-01  0.48583129440E-01  0.59491336008E-01  0.51100000000E-03 0.  1.
</event>
<event>
 8    1  0.5489035E+004  0.1043930E+01  0.7957747E-01            NaN
         13   -1    0    0    0    0  0.00000000000E+00  0.00000000000E+00  0.74505805969E-08  0.10566000000E+00  0.10566000000E+00 0. -1.
     999900   -1    0    0    0    0 -0.00000000000E+00 -0.00000000000E+00 -0.74505805969E-08  0.93827000000E+00  0.93827000000E+00 0.  1.
     999902    2    1    2    0    0 -0.11934713208E-01  0.31222642255E-02  0.19809383517E-01  0.10205933852E+01  0.10203265460E+01 0.  0.
     999903    2    3    3    0    0  0.52307355338E-01 -0.20596109187E-01 -0.11293375701E+00  0.12800706114E+00  0.21714398301E-01 0.  0.
         14    1    1    2    0    0  0.11934713208E-01 -0.31222642255E-02 -0.19809383517E-01  0.23336614762E-01  0.00000000000E+00 0.  1.
     999901    1    3    3    0    0 -0.64242068546E-01  0.23718373412E-01  0.13274314053E+00  0.89258632410E+00  0.88000000000E+00 0. -1.
        -11    1    4    4    0    0  0.29972153215E-01 -0.15345201905E-03 -0.56995768395E-01  0.64398231745E-01  0.51100000000E-03 0. -1.
         11    1    4    4    0    0  0.22335202122E-01 -0.20442657168E-01 -0.55937988614E-01  0.63608829396E-01  0.51100000000E-03 0.  1.
</event>
<event>
 8    1  0.5489035E+004  0.1043930E+01  0.7957747E-01            NaN
         13   -1    0    0    0    0  0.00000000000E+00  0.00000000000E+00  0.74505805969E-08  0.10566000000E+00  0.10566000000E+00 0.  1.
     999900   -1    0    0    0    0 -0.00000000000E+00 -0.00000000000E+00 -0.74505805969E-08  0.93827000000E+00  0.93827000000E+00 0. -1.
     999902    2    1    2    0    0 -0.21029921574E-01 -0.11000485585E-01  0.54359464013E-02  0.10195821500E+01  0.10192913925E+01 0.  0.
     999903    2    3    3    0    0  0.10431671781E+00 -0.72299939759E-01 -0.45064956281E-02  0.12853318660E+00  0.19779096309E-01 0.  0.
         14    1    1    2    0    0  0.21029921574E-01  0.11000485585E-01 -0.54359464013E-02  0.24347849962E-01  0.00000000000E+00 0.  1.
     999901    1    3    3    0    0 -0.12534663939E+00  0.61299454175E-01  0.99424420293E-02  0.89104896344E+00  0.88000000000E+00 0. -1.
        -11    1    4    4    0    0  0.61431652968E-01 -0.47916648442E-01 -0.11323489868E-01  0.78729509893E-01  0.51100000000E-03 0.  1.
         11    1    4    4    0    0  0.42885064845E-01 -0.24383291317E-01  0.68169942399E-02  0.49803676708E-01  0.51100000000E-03 0. -1.
</event>
<event>
 8    1  0.5489035E+004  0.1043930E+01  0.7957747E-01            NaN
         13   -1    0    0    0    0  0.00000000000E+00  0.00000000000E+00  0.74505805969E-08  0.10566000000E+00  0.10566000000E+00 0. -1.
     999900   -1    0    0    0    0 -0.00000000000E+00 -0.00000000000E+00 -0.74505805969E-08  0.93827000000E+00  0.93827000000E+00 0.  1.
     999902    2    1    2    0    0  0.67464053509E-02 -0.83723660444E-02  0.20817830914E-01  0.10204994093E+01  0.10202303915E+01 0.  0.
     999903    2    3    3    0    0 -0.47885494342E-01 -0.25183093149E-02  0.12237575670E+00  0.13295621215E+00  0.20054078679E-01 0.  0.
         14    1    1    2    0    0 -0.67464053509E-02  0.83723660444E-02 -0.20817830914E-01  0.23430590737E-01  0.00000000000E+00 0.  1.
     999901    1    3    3    0    0  0.54631899693E-01 -0.58540567295E-02 -0.10155792579E+00  0.88754319711E+00  0.88000000000E+00 0.  1.
        -11    1    4    4    0    0 -0.46204937069E-01 -0.68086809327E-02  0.10403456609E+00  0.11403817961E+00  0.51100000000E-03 0. -1.
         11    1    4    4    0    0 -0.16805572732E-02  0.42903716178E-02  0.18341190609E-01  0.18918032544E-01  0.51100000000E-03 0.  1.
</event>
<event>
 8    1  0.5489035E+004  0.1043930E+01  0.7957747E-01            NaN
         13   -1    0    0    0    0  0.00000000000E+00  0.00000000000E+00  0.74505805969E-08  0.10566000000E+00  0.10566000000E+00 0.  1.
     999900   -1    0    0    0    0 -0.00000000000E+00 -0.00000000000E+00 -0.74505805969E-08  0.93827000000E+00  0.93827000000E+00 0. -1.
     999902    2    1    2    0    0 -0.25089293748E-01 -0.75622748442E-03 -0.37629829291E-02  0.10185488144E+01  0.10182325288E+01 0.  0.
     999903    2    3    3    0    0  0.95035884708E-01 -0.32538915536E-01 -0.74928175546E-01  0.12697454248E+00  0.20437772376E-01 0.  0.
         14    1    1    2    0    0  0.25089293748E-01  0.75622748442E-03  0.37629829291E-02  0.25381185577E-01  0.00000000000E+00 0. -1.
     999901    1    3    3    0    0 -0.12012517846E+00  0.31782688052E-01  0.71165192617E-01  0.89157427195E+00  0.88000000000E+00 0. -1.
        -11    1    4    4    0    0  0.49305021495E-01 -0.11833382533E-01 -0.26473627849E-01  0.57202518995E-01  0.51100000000E-03 0.  1.
         11    1    4    4    0    0  0.45730863212E-01 -0.20705533003E-01 -0.48454547697E-01  0.69772023481E-01  0.51100000000E-03 0. -1.
</event>
<event>
 8    1  0.5489035E+004  0.1043930E+01  0.7957747E-01            NaN
         13   -1    0    0    0    0  0.00000000000E+00  0.00000000000E+00  0.74505805969E-08  0.10566000000E+00  0.10566000000E+00 0.  1.
     999900   -1    0    0    0    0 -0.00000000000E+00 -0.00000000000E+00 -0.74505805969E-08  0.93827000000E+00  0.93827000000E+00 0. -1.
     999902    2    1    2    0    0 -0.10992635496E-01 -0.16786875550E-01  0.13349283485E-01  0.10198293652E+01  0.10195445521E+01 0.  0.
     999903    2    3    3    0    0  0.78853135205E-01  0.81466581058E-01  0.57379611255E-01  0.12872629937E+00  0.20577162138E-01 0.  0.
         14    1    1    2    0    0  0.10992635496E-01  0.16786875550E-01 -0.13349283485E-01  0.24100634752E-01  0.00000000000E+00 0.  1.
     999901    1    3    3    0    0 -0.89845770700E-01 -0.98253456608E-01 -0.44030327770E-01  0.89110306587E+00  0.88000000000E+00 0. -1.
        -11    1    4    4    0    0  0.46283220360E-01  0.53128346166E-01  0.45748821286E-01  0.84011745745E-01  0.51100000000E-03 0.  1.
         11    1    4    4    0    0  0.32569914845E-01  0.28338234893E-01  0.11630789969E-01  0.44714553628E-01  0.51100000000E-03 0. -1.
</event>
<event>
 8    1  0.5489035E+004  0.1043930E+01  0.7957747E-01            NaN
         13   -1    0    0    0    0  0.00000000000E+00  0.00000000000E+00  0.74505805969E-08  0.10566000000E+00  0.10566000000E+00 0. -1.
     999900   -1    0    0    0    0 -0.00000000000E+00 -0.00000000000E+00 -0.74505805969E-08  0.93827000000E+00  0.93827000000E+00 0. -1.
     999902    2    1    2    0    0  0.82089442551E-02  0.10693356578E-01  0.19038698506E-01  0.10206017621E+01  0.10203351166E+01 0.  0.
     999903    2    3    3    0    0 -0.63998936573E-01  0.10214834764E+00  0.50837052784E-01  0.13235116193E+00  0.20056802339E-01 0.  0.
         14    1    1    2    0    0 -0.82089442551E-02 -0.10693356578E-01 -0.19038698506E-01  0.23328237857E-01  0.00000000000E+00 0.  1.
     999901    1    3    3    0    0  0.72207880828E-01 -0.91454991063E-01 -0.31798354278E-01  0.88825060021E+00  0.88000000000E+00 0.  1.
        -11    1    4    4    0    0 -0.55366829491E-02  0.14189631818E-01  0.24351852580E-03  0.15242077663E-01  0.51100000000E-03 0. -1.
         11    1    4    4    0    0 -0.58462253624E-01  0.87958715823E-01  0.50593534258E-01  0.11710908427E+00  0.51100000000E-03 0.  1.
</event>
<event>
 8    1  0.5489035E+004  0.1043930E+01  0.7957747E-01            NaN
         13   -1    0    0    0    0  0.00000000000E+00  0.00000000000E+00  0.74505805969E-08  0.10566000000E+00  0.10566000000E+00 0.  1.
     999900   -1    0    0    0    0 -0.00000000000E+00 -0.00000000000E+00 -0.74505805969E-08  0.93827000000E+00  0.93827000000E+00 0. -1.
     999902    2    1    2    0    0 -0.63668667200E-02 -0.48193952679E-02  0.22007040257E-01  0.10205190328E+01  0.10202504707E+01 0.  0.
     999903    2    3    3    0    0 -0.52513629539E-01  0.25078862788E-01  0.11852120220E+00  0.13353627483E+00  0.19950706171E-01 0.  0.
         14    1    1    2    0    0  0.63668667200E-02  0.48193952679E-02 -0.22007040257E-01  0.23410967162E-01  0.00000000000E+00 0. -1.
     999901    1    3    3    0    0  0.46146762819E-01 -0.29898258056E-01 -0.96514161946E-01  0.88698275801E+00  0.88000000000E+00 0. -1.
        -11    1    4    4    0    0 -0.14469323719E-01  0.12692079076E-01  0.56847288565E-01  0.60019376357E-01  0.51100000000E-03 0. -1.
         11    1    4    4    0    0 -0.38044305820E-01  0.12386783712E-01  0.61673913639E-01  0.73516898469E-01  0.51100000000E-03 0.  1.
</event>
<event>
 8    1  0.5489035E+004  0.1043930E+01  0.7957747E-01            NaN
         13   -1    0    0    0    0  0.00000000000E+00  0.00000000000E+00  0.74505805969E-08  0.10566000000E+00  0.10566000000E+00 0. -1.
     999900   -1    0    0    0    0 -0.00000000000E+00 -0.00000000000E+00 -0.74505805969E-08  0.93827000000E+00  0.93827000000E+00 0. -1.
     999902    2    1    2    0    0  0.15542754324E-01  0.25617267949E-02  0.17660125475E-01  0.10202652649E+01  0.10199907799E+01 0.  0.
     999903    2    3    3    0    0  0.10048657018E+00 -0.75796730384E-01  0.36147424160E-01  0.13251683212E+00  0.20282489940E-01 0.  0.
         14    1    1    2    0    0 -0.15542754324E-01 -0.25617267949E-02 -0.17660125475E-01  0.23664735113E-01  0.00000000000E+00 0.  1.
     999901    1    3    3    0    0 -0.84943815860E-01  0.78358457179E-01 -0.18487298685E-01  0.88774843277E+00  0.88000000000E+00 0.  1.
        -11    1    4    4    0    0  0.16718492312E-01 -0.19874286408E-01  0.15599735024E-02  0.26022872319E-01  0.51100000000E-03 0. -1.
         11    1    4    4    0    0  0.83768077871E-01 -0.55922443976E-01  0.34587450658E-01  0.10649395980E+00  0.51100000000E-03 0.  1.
</event>
<event>
 8    1  0.5489035E+004  0.1043930E+01  0.7957747E-01            NaN
         13   -1    0    0    0    0  0.00000000000E+00  0.00000000000E+00  0.74505805969E-08  0.10566000000E+00  0.10566000000E+00 0. -1.
     999900   -1    0    0    0    0 -0.00000000000E+00 -0.00000000000E+00 -0.74505805969E-08  0.93827000000E+00  0.93827000000E+00 0.  1.
     999902    2    1    2    0    0  0.20835592640E-01  0.34089342113E-02  0.10978751899E-01  0.10201334510E+01  0.10198558634E+01 0.  0.
     999903    2    3    3    0    0  0.55988932224E-01 -0.31681147090E-01 -0.11179222480E+00  0.13022346460E+00  0.17949751943E-01 0.  0.
         14    1    1    2    0    0 -0.20835592640E-01 -0.34089342113E-02 -0.10978751899E-01  0.23796549043E-01  0.00000000000E+00 0.  1.
     999901    1    3    3    0    0 -0.35153339583E-01  0.35090081301E-01  0.12277097670E+00  0.88990998635E+00  0.88000000000E+00 0. -1.
        -11    1    4    4    0    0  0.47614071856E-01 -0.18337524804E-01 -0.85431827048E-01  0.99509913318E-01  0.51100000000E-03 0.  1.
         11    1    4    4    0    0  0.83748603674E-02 -0.13343622286E-01 -0.26360397754E-01  0.30713551287E-01  0.51100000000E-03 0. -1.
</event>
<event>
 8    1  0.5489035E+004  0.1043930E+01  0.7957747E-01            NaN
         13   -1    0    0    0    0  0.00000000000E+00  0.00000000000E+00  0.74505805969E-08  0.10566000000E+00  0.10566000000E+00 0.  1.
     999900   -1    0    0    0    0 -0.00000000000E+00 -0.00000000000E+00 -0.74505805969E-08  0.93827000000E+00  0.93827000000E+00 0.  1.
     999902    2    1    2    0    0  0.17786519783E-01 -0.76657673960E-02 -0.13646801085E-01  0.10202369745E+01  0.10199618251E+01 0.  0.
     999903    2    3    3    0    0  0.18122898159E-01 -0.60409906148E-01 -0.11421089260E+00  0.13294040978E+00  0.25519176436E-01 0.  0.
         14    1    1    2    0    0 -0.17786519783E-01  0.76657673960E-02  0.13646801085E-01  0.23693025464E-01  0.00000000000E+00 0.  1.
     999901    1    3    3    0    0 -0.33637837616E-03  0.52744138752E-01  0.10056409151E+00  0.88729656475E+00  0.88000000000E+00 0. -1.
        -11    1    4    4    0    0  0.22205615334E-01 -0.58034469033E-01 -0.97936253623E-01  0.11598646405E+00  0.51100000000E-03 0.  1.
         11    1    4    4    0    0 -0.40827171746E-02 -0.23754371148E-02 -0.16274638977E-01  0.16953945731E-01  0.51100000000E-03 0. -1.
</event>
<event>
 8    1  0.5489035E+004  0.1043930E+01  0.7957747E-01            NaN
         13   -1    0    0    0    0  0.00000000000E+00  0.00000000000E+00  0.74505805969E-08  0.10566000000E+00  0.10566000000E+00 0.  1.
     999900   -1    0    0    0    0 -0.00000000000E+00 -0.00000000000E+00 -0.74505805969E-08  0.93827000000E+00  0.93827000000E+00 0.  1.
     999902    2    1    2    0    0 -0.17989049448E-01  0.93564754656E-02 -0.12392803716E-01  0.10201659280E+01  0.10198891065E+01 0.  0.
     999903    2    3    3    0    0  0.10585550070E+00 -0.33357723004E-01  0.59393471548E-01  0.12757685982E+00  0.20739961092E-01 0.  0.
         14    1    1    2    0    0  0.17989049448E-01 -0.93564754656E-02  0.12392803716E-01  0.23764071981E-01  0.00000000000E+00 0.  1.
     999901    1    3    3    0    0 -0.12384455015E+00  0.42714198470E-01 -0.71786275264E-01  0.89258906820E+00  0.88000000000E+00 0.  1.
        -11    1    4    4    0    0  0.34294938913E-01 -0.18533586365E-01  0.13388744175E-01  0.41220823017E-01  0.51100000000E-03 0.  1.
         11    1    4    4    0    0  0.71560561789E-01 -0.14824136639E-01  0.46004727373E-01  0.86356036803E-01  0.51100000000E-03 0. -1.
</event>
<event>
 8    1  0.5489035E+004  0.1043930E+01  0.7957747E-01            NaN
         13   -1    0    0    0    0  0.00000000000E+00  0.00000000000E+00  0.74505805969E-08  0.10566000000E+00  0.10566000000E+00 0.  1.
     999900   -1    0    0    0    0 -0.00000000000E+00 -0.00000000000E+00 -0.74505805969E-08  0.93827000000E+00  0.93827000000E+00 0.  1.
     999902    2    1    2    0    0 -0.23023099357E-01 -0.69806782764E-02  0.77055325731E-02  0.10186680087E+01  0.10183547239E+01 0.  0.
     999903    2    3    3    0    0 -0.78359811352E-01  0.65427194454E-01  0.80823763905E-01  0.13094545772E+00  0.13901592601E-01 0.  0.
         14    1    1    2    0    0  0.23023099357E-01  0.69806782764E-02 -0.77055325731E-02  0.25261991320E-01  0.00000000000E+00 0. -1.
     999901    1    3    3    0    0  0.55336711995E-01 -0.72407872730E-01 -0.73118231332E-01  0.88772255096E+00  0.88000000000E+00 0.  1.
        -11    1    4    4    0    0 -0.63370630526E-01  0.58399494186E-01  0.64055988185E-01  0.10737675949E+00  0.51100000000E-03 0.  1.
         11    1    4    4    0    0 -0.14989180826E-01  0.70277002676E-02  0.16767775720E-01  0.23568698234E-01  0.51100000000E-03 0. -1.
</event>
<event>
 8    1  0.5489035E+004  0.1043930E+01  0.7957747E-01            NaN
         13   -1    0    0    0    0  0.00000000000E+00  0.00000000000E+00  0.74505805969E-08  0.10566000000E+00  0.10566000000E+00 0. -1.
     999900   -1    0    0    0    0 -0.00000000000E+00 -0.00000000000E+00 -0.74505805969E-08  0.93827000000E+00  0.93827000000E+00 0. -1.
     999902    2    1    2    0    0  0.21687601858E-01 -0.43478022029E-02  0.88209588375E-02  0.10201168781E+01  0.10198388992E+01 0.  0.
     999903    2    3    3    0    0  0.47952538670E-03  0.48394605704E-01 -0.11811963526E+00  0.12919294281E+00  0.19907295919E-01 0.  0.
         14    1    1    2    0    0 -0.21687601858E-01  0.43478022029E-02 -0.88209588375E-02  0.23813121869E-01  0.00000000000E+00 0.  1.
     999901    1    3    3    0    0  0.21208076471E-01 -0.52742407906E-01  0.12694059410E+00  0.89092393532E+00  0.88000000000E+00 0.  1.
        -11    1    4    4    0    0 -0.28403974830E-02  0.62954326802E-02 -0.37978106882E-01  0.38604378688E-01  0.51100000000E-03 0. -1.
         11    1    4    4    0    0  0.33199228697E-02  0.42099173023E-01 -0.80141528382E-01  0.90588564121E-01  0.51100000000E-03 0.  1.
</event>
<event>
 8    1  0.5489035E+004  0.1043930E+01  0.7957747E-01            NaN
         13   -1    0    0    0    0  0.00000000000E+00  0.00000000000E+00  0.74505805969E-08  0.10566000000E+00  0.10566000000E+00 0.  1.
     999900   -1    0    0    0    0 -0.00000000000E+00 -0.00000000000E+00 -0.74505805969E-08  0.93827000000E+00  0.93827000000E+00 0.  1.
     999902    2    1    2    0    0  0.16823684930E-01  0.82202754054E-02 -0.11083560856E-01  0.10221709875E+01  0.10219393686E+01 0.  0.
     999903    2    3    3    0    0 -0.15093636514E-01  0.11162217855E+00 -0.69000813881E-01  0.13365251435E+00  0.20360591095E-01 0.  0.
         14    1    1    2    0    0 -0.16823684930E-01 -0.82202754054E-02  0.11083560856E-01  0.21759012469E-01  0.00000000000E+00 0.  1.
     999901    1    3    3    0    0  0.31917321444E-01 -0.10340190314E+00  0.57917253026E-01  0.88851847318E+00  0.88000000000E+00 0. -1.
        -11    1    4    4    0    0 -0.56281446402E-03  0.32522265009E-01 -0.30071852434E-01  0.44301150225E-01  0.51100000000E-03 0. -1.
         11    1    4    4    0    0 -0.14530822050E-01  0.79099913538E-01 -0.38928961448E-01  0.89351364128E-01  0.51100000000E-03 0.  1.
</event>
<event>
 8    1  0.5489035E+004  0.1043930E+01  0.7957747E-01            NaN
         13   -1    0    0    0    0  0.00000000000E+00  0.00000000000E+00  0.74505805969E-08  0.10566000000E+00  0.10566000000E+00 0.  1.
     999900   -1    0    0    0    0 -0.00000000000E+00 -0.00000000000E+00 -0.74505805969E-08  0.93827000000E+00  0.93827000000E+00 0.  1.
     999902    2    1    2    0    0 -0.11562139868E-01  0.88194953169E-02  0.19476110377E-01  0.10196239215E+01  0.10193341728E+01 0.  0.
     999903    2    3    3    0    0 -0.11597383791E+00  0.25754082366E-01  0.55340332378E-01  0.13256427000E+00  0.19938140683E-01 0.  0.
         14    1    1    2    0    0  0.11562139868E-01 -0.88194953169E-02 -0.19476110377E-01  0.24306078486E-01  0.00000000000E+00 0. -1.
     999901    1    3    3    0    0  0.10441169804E+00 -0.16934587049E-01 -0.35864222001E-01  0.88705965152E+00  0.88000000000E+00 0.  1.
        -11    1    4    4    0    0 -0.10208837005E+00  0.28699890757E-01  0.46200350412E-01  0.11567390599E+00  0.51100000000E-03 0. -1.
         11    1    4    4    0    0 -0.13885467866E-01 -0.29458083917E-02  0.91399819658E-02  0.16890364007E-01  0.51100000000E-03 0.  1.
</event>
<event>
 8    1  0.5489035E+004  0.1043930E+01  0.7957747E-01            NaN
         13   -1    0    0    0    0  0.00000000000E+00  0.00000000000E+00  0.74505805969E-08  0.10566000000E+00  0.10566000000E+00 0.  1.
     999900   -1    0    0    0    0 -0.00000000000E+00 -0.00000000000E+00 -0.74505805969E-08  0.93827000000E+00  0.93827000000E+00 0. -1.
     999902    2    1    2    0    0  0.13766551881E-01 -0.19782666922E-01 -0.14152730181E-02  0.10197871986E+01  0.10195013760E+01 0.  0.
     999903    2    3    3    0    0 -0.18895713342E-01 -0.57203557539E-01  0.11445476761E+00  0.13080293950E+00  0.19499235283E-01 0.  0.
         14    1    1    2    0    0 -0.13766551881E-01  0.19782666922E-01  0.14152730181E-02  0.24142801390E-01  0.00000000000E+00 0. -1.
     999901    1    3    3    0    0  0.32662265223E-01  0.37420890617E-01 -0.11587004063E+00  0.88898425911E+00  0.88000000000E+00 0. -1.
        -11    1    4    4    0    0 -0.14238813712E-01 -0.41333208827E-01  0.98723711284E-01  0.10797133999E+00  0.51100000000E-03 0.  1.
         11    1    4    4    0    0 -0.46568996294E-02 -0.15870348712E-01  0.15731056325E-01  0.22831599517E-01  0.51100000000E-03 0. -1.
</event>
<event>
 8    1  0.5489035E+004  0.1043930E+01  0.7957747E-01            NaN
         13   -1    0    0    0    0  0.00000000000E+00  0.00000000000E+00  0.74505805969E-08  0.10566000000E+00  0.10566000000E+00 0. -1.
     999900   -1    0    0    0    0 -0.00000000000E+00 -0.00000000000E+00 -0.74505805969E-08  0.93827000000E+00  0.93827000000E+00 0.  1.
     999902    2    1    2    0    0  0.21055261094E-01 -0.10342337736E-01 -0.22926519588E-02  0.10203600144E+01  0.10200877485E+01 0.  0.
     999903    2    3    3    0    0  0.11185436323E+00  0.67646736323E-01 -0.13341696810E-02  0.13225659060E+00  0.20063555031E-01 0.  0.
         14    1    1    2    0    0 -0.21055261094E-01  0.10342337736E-01  0.22926519588E-02  0.23569985630E-01  0.00000000000E+00 0. -1.
     999901    1    3    3    0    0 -0.90799102135E-01 -0.77989074059E-01 -0.95848227786E-03  0.88810342377E+00  0.88000000000E+00 0.  1.
        -11    1    4    4    0    0  0.89628493782E-01  0.53148543289E-01  0.69984138425E-02  0.10443789288E+00  0.51100000000E-03 0.  1.
         11    1    4    4    0    0  0.22225869446E-01  0.14498193034E-01 -0.83325835235E-02  0.27818697724E-01  0.51100000000E-03 0. -1.
</event>
<event>
 8    1  0.5489035E+004  0.1043930E+01  0.7957747E-01            NaN
         13   -1    0    0    0    0  0.00000000000E+00  0.00000000000E+00  0.74505805969E-08  0.10566000000E+00  0.10566000000E+00 0. -1.
     999900   -1    0    0    0    0 -0.00000000000E+00 -0.00000000000E+00 -0.74505805969E-08  0.93827000000E+00  0.93827000000E+00 0. -1.
     999902    2    1    2    0    0 -0.84825531566E-02  0.15684655821E-01  0.14955191813E-01  0.10206572714E+01  0.10203919079E+01 0.  0.
     999903    2    3    3    0    0 -0.22687656991E-01 -0.94311214876E-01  0.85766854579E-01  0.13087349530E+00  0.19041622766E-01 0.  0.
         14    1    1    2    0    0  0.84825531566E-02 -0.15684655821E-01 -0.14955191813E-01  0.23272728642E-01  0.00000000000E+00 0.  1.
     999901    1    3    3    0    0  0.14205103835E-01  0.10999587070E+00 -0.70811662766E-01  0.88978377605E+00  0.88000000000E+00 0. -1.
        -11    1    4    4    0    0 -0.17023620398E-01 -0.58951188246E-01  0.42185708961E-01  0.74464363347E-01  0.51100000000E-03 0. -1.
         11    1    4    4    0    0 -0.56640365936E-02 -0.35360026629E-01  0.43581145618E-01  0.56409131957E-01  0.51100000000E-03 0.  1.
</event>
<event>
 8    1  0.5489035E+004  0.1043930E+01  0.7957747E-01            NaN
         13   -1    0    0    0    0  0.00000000000E+00  0.00000000000E+00  0.74505805969E-08  0.10566000000E+00  0.10566000000E+00 0. -1.
     999900   -1    0    0    0    0 -0.00000000000E+00 -0.00000000000E+00 -0.74505805969E-08  0.93827000000E+00  0.93827000000E+00 0. -1.
     999902    2    1    2    0    0 -0.60506909476E-02 -0.23385342362E-01 -0.41938088485E-02  0.10194132072E+01  0.10191183512E+01 0.  0.
     999903    2    3    3    0    0 -0.77108040847E-01 -0.10612320276E+00 -0.37827034428E-02  0.13268051377E+00  0.19545479317E-01 0.  0.
         14    1    1    2    0    0  0.60506909476E-02  0.23385342362E-01  0.41938088485E-02  0.24516792836E-01  0.00000000000E+00 0.  1.
     999901    1    3    3    0    0  0.71057349899E-01  0.82737860402E-01 -0.41110540569E-03  0.88673269339E+00  0.88000000000E+00 0.  1.
        -11    1    4    4    0    0 -0.19292573039E-01 -0.14754284916E-01 -0.35742456422E-02  0.24554605490E-01  0.51100000000E-03 0. -1.
         11    1    4    4    0    0 -0.57815467808E-01 -0.91368917848E-01 -0.20845780061E-03  0.10812590828E+00  0.51100000000E-03 0.  1.
</event>
<event>
 8    1  0.5489035E+004  0.1043930E+01  0.7957747E-01            NaN
         13   -1    0    0    0    0  0.00000000000E+00  0.00000000000E+00  0.74505805969E-08  0.10566000000E+00  0.10566000000E+00 0. -1.
     999900   -1    0    0    0    0 -0.00000000000E+00 -0.00000000000E+00 -0.74505805969E-08  0.93827000000E+00  0.93827000000E+00 0.  1.
     999902    2    1    2    0    0 -0.15807762841E-01 -0.13069386865E-01  0.12989223166E-01  0.10196521468E+01  0.10193630787E+01 0.  0.
     999903    2    3    3    0    0  0.10791708204E+00  0.78793742320E-02  0.67324559193E-01  0.12909107836E+00  0.20584681370E-01 0.  0.
         14    1    1    2    0    0  0.15807762841E-01  0.13069386865E-01 -0.12989223166E-01  0.24277853231E-01  0.00000000000E+00 0.  1.
     999901    1    3    3    0    0 -0.12372484488E+00 -0.20948761096E-01 -0.54335336027E-01  0.89056106841E+00  0.88000000000E+00 0.  1.
        -11    1    4    4    0    0  0.15422752426E-01  0.64160700080E-02  0.16751591368E-01  0.23662294502E-01  0.51100000000E-03 0. -1.
         11    1    4    4    0    0  0.92494329611E-01  0.14633042240E-02  0.50572967825E-01  0.10542878385E+00  0.51100000000E-03 0.  1.
</event>
<event>
 8    1  0.5489035E+004  0.1043930E+01  0.7957747E-01            NaN
         13   -1    0    0    0    0  0.00000000000E+00  0.00000000000E+00  0.74505805969E-08  0.10566000000E+00  0.10566000000E+00 0.  1.
     999900   -1    0    0    0    0 -0.00000000000E+00 -0.00000000000E+00 -0.74505805969E-08  0.93827000000E+00  0.93827000000E+00 0.  1.
     999902    2    1    2    0    0  0.21831462248E-01  0.31711362759E-02 -0.71678002983E-02  0.10207341769E+01  0.10204705844E+01 0.  0.
     999903    2    3    3    0    0  0.19703642025E-01 -0.11979043004E-01  0.12683770411E+00  0.13045807883E+00  0.19994403424E-01 0.  0.
         14    1    1    2    0    0 -0.21831462248E-01 -0.31711362759E-02  0.71678002983E-02  0.23195823121E-01  0.00000000000E+00 0.  1.
     999901    1    3    3    0    0  0.21278202225E-02  0.15150179280E-01 -0.13400550440E+00  0.89027609805E+00  0.88000000000E+00 0.  1.
        -11    1    4    4    0    0  0.13803391822E-02  0.34551577504E-03  0.60905048788E-01  0.60923811488E-01  0.51100000000E-03 0.  1.
         11    1    4    4    0    0  0.18323302843E-01 -0.12324558779E-01  0.65932655317E-01  0.69534267339E-01  0.51100000000E-03 0. -1.
</event>
<event>
 8    1  0.5489035E+004  0.1043930E+01  0.7957747E-01            NaN
         13   -1    0    0    0    0  0.00000000000E+00  0.00000000000E+00  0.74505805969E-08  0.10566000000E+00  0.10566000000E+00 0. -1.
     999900   -1    0    0    0    0 -0.00000000000E+00 -0.00000000000E+00 -0.74505805969E-08  0.93827000000E+00  0.93827000000E+00 0.  1.
     999902    2    1    2    0    0 -0.19809212779E-01 -0.91492568593E-02 -0.15881971218E-01  0.10169420245E+01  0.10165838531E+01 0.  0.
     999903    2    3    3    0    0  0.10254421365E+00 -0.43210698326E-01 -0.58058537073E-01  0.12682438875E+00  0.18197572724E-01 0.  0.
         14    1    1    2    0    0  0.19809212779E-01  0.91492568593E-02  0.15881971218E-01  0.26987975503E-01  0.00000000000E+00 0.  1.
     999901    1    3    3    0    0 -0.12235342643E+00  0.34061441467E-01  0.42176565855E-01  0.89011763574E+00  0.88000000000E+00 0. -1.
        -11    1    4    4    0    0  0.50219550870E-01 -0.30743539676E-01 -0.27983394835E-01  0.65195858986E-01  0.51100000000E-03 0. -1.
         11    1    4    4    0    0  0.52324662779E-01 -0.12467158650E-01 -0.30075142238E-01  0.61628529768E-01  0.51100000000E-03 0.  1.
</event>
<event>
 7    1  0.5489035E+004  0.1043930E+01  0.7957747E-01            NaN
         13   -1    0    0    0    0  0.00000000000E+00  0.00000000000E+00  0.74505805969E-08  0.10566000000E+00  0.10566000000E+00 0. -1.
     999900   -1    0    0    0    0 -0.00000000000E+00 -0.00000000000E+00 -0.74505805969E-08  0.93827000000E+00  0.93827000000E+00 0.  1.
     999902    2    1    2    0    0 -0.10370446457E-01  0.63321961960E-02 -0.20084773970E-01  0.10204557372E+01  0.10201857040E+01 0.  0.
         14    1    1    2    0    0  0.10370446457E-01 -0.63321961960E-02  0.20084773970E-01  0.23474262796E-01  0.00000000000E+00 0. -1.
     999901    1    3    3    0    0  0.51434061348E-01 -0.49326434236E-01  0.78937383933E-01  0.88640265702E+00  0.88000000000E+00 0. -1.
        -11    1    3    3    0    0 -0.36021723617E-01  0.50209513572E-01 -0.54915961454E-01  0.82671541469E-01  0.51100000000E-03 0. -1.
         11    1    3    3    0    0 -0.25782784188E-01  0.54491168603E-02 -0.44106196449E-01  0.51381538720E-01  0.51100000000E-03 0.  1.
</event>
<event>
 8    1  0.5489035E+004  0.1043930E+01  0.7957747E-01            NaN
         13   -1    0    0    0    0  0.00000000000E+00  0.00000000000E+00  0.74505805969E-08  0.10566000000E+00  0.10566000000E+00 0.  1.
     999900   -1    0    0    0    0 -0.00000000000E+00 -0.00000000000E+00 -0.74505805969E-08  0.93827000000E+00  0.93827000000E+00 0.  1.
     999902    2    1    2    0    0  0.17780911731E-01 -0.15642068841E-01 -0.66778019900E-02  0.10193245498E+01  0.10190275314E+01 0.  0.
     999903    2    3    3    0    0 -0.94257547578E-01 -0.10964166992E-01 -0.84789163925E-01  0.12877646914E+00  0.19735208403E-01 0.  0.
         14    1    1    2    0    0 -0.17780911731E-01  0.15642068841E-01  0.66778019900E-02  0.24605450189E-01  0.00000000000E+00 0. -1.
     999901    1    3    3    0    0  0.11203845931E+00 -0.46779018487E-02  0.78111361935E-01  0.89054808067E+00  0.88000000000E+00 0. -1.
        -11    1    4    4    0    0 -0.78215129250E-01 -0.12934437313E-01 -0.61089571626E-01  0.10008547844E+00  0.51100000000E-03 0.  1.
         11    1    4    4    0    0 -0.16042418329E-01  0.19702703209E-02 -0.23699592299E-01  0.28690990696E-01  0.51100000000E-03 0. -1.
</event>
<event>
 8    1  0.5489035E+004  0.1043930E+01  0.7957747E-01            NaN
         13   -1    0    0    0    0  0.00000000000E+00  0.00000000000E+00  0.74505805969E-08  0.10566000000E+00  0.10566000000E+00 0. -1.
     999900   -1    0    0    0    0 -0.00000000000E+00 -0.00000000000E+00 -0.74505805969E-08  0.93827000000E+00  0.93827000000E+00 0.  1.
     999902    2    1    2    0    0 -0.21382244203E-01 -0.35990457397E-02 -0.26083255047E-02  0.10220906580E+01  0.10218573072E+01 0.  0.
     999903    2    3    3    0    0  0.71604915173E-01  0.45818653573E-01  0.96057269313E-01  0.13033754170E+00  0.23114127642E-01 0.  0.
         14    1    1    2    0    0  0.21382244203E-01  0.35990457397E-02  0.26083255047E-02  0.21839342008E-01  0.00000000000E+00 0.  1.
     999901    1    3    3    0    0 -0.92987159376E-01 -0.49417699313E-01 -0.98665594818E-01  0.89175311629E+00  0.88000000000E+00 0.  1.
        -11    1    4    4    0    0  0.49602185593E-02  0.65325390493E-02  0.20984408294E-01  0.22536289558E-01  0.51100000000E-03 0. -1.
         11    1    4    4    0    0  0.66644696614E-01  0.39286114524E-01  0.75072861019E-01  0.10780125214E+00  0.51100000000E-03 0.  1.
</event>
<event>
 8    1  0.5489035E+004  0.1043930E+01  0.7957747E-01            NaN
         13   -1    0    0    0    0  0.00000000000E+00  0.00000000000E+00  0.74505805969E-08  0.10566000000E+00  0.10566000000E+00 0. -1.
     999900   -1    0    0    0    0 -0.00000000000E+00 -0.00000000000E+00 -0.74505805969E-08  0.93827000000E+00  0.93827000000E+00 0.  1.
     999902    2    1    2    0    0  0.15379239319E-01  0.23244864345E-01  0.94592247462E-03  0.10160420189E+01  0.10156592168E+01 0.  0.
     999903    2    3    3    0    0 -0.52946923151E-01 -0.37368170882E-01  0.10518462443E+00  0.12519516814E+00  0.20255074506E-01 0.  0.
         14    1    1    2    0    0 -0.15379239319E-01 -0.23244864345E-01 -0.94592247462E-03  0.27887981099E-01  0.00000000000E+00 0.  1.
     999901    1    3    3    0    0  0.68326162470E-01  0.60613035226E-01 -0.10423870196E+00  0.89084685076E+00  0.88000000000E+00 0.  1.
        -11    1    4    4    0    0 -0.17672289407E-01 -0.50049421221E-02  0.42645398377E-01  0.46435443168E-01  0.51100000000E-03 0.  1.
         11    1    4    4    0    0 -0.35274633743E-01 -0.32363228759E-01  0.62539226057E-01  0.78759724976E-01  0.51100000000E-03 0. -1.
</event>
<event>
 8    1  0.5489035E+004  0.1043930E+01  0.7957747E-01            NaN
         13   -1    0    0    0    0  0.00000000000E+00  0.00000000000E+00  0.74505805969E-08  0.10566000000E+00  0.10566000000E+00 0.  1.
     999900   -1    0    0    0    0 -0.00000000000E+00 -0.00000000000E+00 -0.74505805969E-08  0.93827000000E+00  0.93827000000E+00 0. -1.
     999902    2    1    2    0    0  0.19788723964E-02 -0.45695578873E-02  0.23593824164E-01  0.10198164077E+01  0.10195312845E+01 0.  0.
     999903    2    3    3    0    0 -0.11445936747E+00  0.55641118559E-01  0.18295480405E-01  0.13009102213E+00  0.19800721226E-01 0.  0.
         14    1    1    2    0    0 -0.19788723964E-02  0.45695578873E-02 -0.23593824164E-01  0.24113592307E-01  0.00000000000E+00 0. -1.
     999901    1    3    3    0    0  0.11643823986E+00 -0.60210676446E-01  0.52983437597E-02  0.88972538556E+00  0.88000000000E+00 0.  1.
        -11    1    4    4    0    0 -0.40036062602E-01  0.92552628982E-02  0.64305060266E-02  0.41595176748E-01  0.51100000000E-03 0. -1.
         11    1    4    4    0    0 -0.74423304866E-01  0.46385855661E-01  0.11864974378E-01  0.88495845386E-01  0.51100000000E-03 0.  1.
</event>
<event>
 8    1  0.5489035E+004  0.1043930E+01  0.7957747E-01            NaN
         13   -1    0    0    0    0  0.00000000000E+00  0.00000000000E+00  0.74505805969E-08  0.10566000000E+00  0.10566000000E+00 0. -1.
     999900   -1    0    0    0    0 -0.00000000000E+00 -0.00000000000E+00 -0.74505805969E-08  0.93827000000E+00  0.93827000000E+00 0.  1.
     999902    2    1    2    0    0  0.19719476767E-01 -0.51651464003E-02 -0.73837574741E-02  0.10222492164E+01  0.10220192778E+01 0.  0.
     999903    2    3    3    0    0  0.11598975452E+00  0.53147526437E-01 -0.37946889773E-01  0.13455420167E+00  0.19661740125E-01 0.  0.
         14    1    1    2    0    0 -0.19719476767E-01  0.51651464003E-02  0.73837574741E-02  0.21680783559E-01  0.00000000000E+00 0. -1.
     999901    1    3    3    0    0 -0.96270277749E-01 -0.58312672837E-01  0.30563132299E-01  0.88769501477E+00  0.88000000000E+00 0. -1.
        -11    1    4    4    0    0  0.93939015081E-01  0.34089496440E-01 -0.28737174433E-01  0.10398422302E+00  0.51100000000E-03 0. -1.
         11    1    4    4    0    0  0.22050739435E-01  0.19058029997E-01 -0.92097153396E-02  0.30569978650E-01  0.51100000000E-03 0.  1.
</event>
<event>
 6    1  0.5489035E+004  0.1043930E+01  0.7957747E-01            NaN
         13   -1    0    0    0    0  0.00000000000E+00  0.00000000000E+00  0.74505805969E-08  0.10566000000E+00  0.10566000000E+00 0.  1.
     999900   -1    0    0    0    0 -0.00000000000E+00 -0.00000000000E+00 -0.74505805969E-08  0.93827000000E+00  0.93827000000E+00 0. -1.
         14    1    1    2    0    0  0.20152461522E-01  0.11369692452E-01  0.30874952629E-01  0.38583083233E-01  0.00000000000E+00 0.  1.
     999901    1    1    2    0    0  0.33749912719E-01 -0.59401636577E-01 -0.11316886823E+00  0.88987347627E+00  0.88000000000E+00 0. -1.
        -11    1    1    2    0    0 -0.12658737612E-01  0.14442077296E-02  0.35198509442E-01  0.37436954495E-01  0.51100000000E-03 0.  1.
         11    1    1    2    0    0 -0.41243636630E-01  0.46587736395E-01  0.47095406161E-01  0.78036486000E-01  0.51100000000E-03 0. -1.
</event>
<event>
 8    1  0.5489035E+004  0.1043930E+01  0.7957747E-01            NaN
         13   -1    0    0    0    0  0.00000000000E+00  0.00000000000E+00  0.74505805969E-08  0.10566000000E+00  0.10566000000E+00 0. -1.
     999900   -1    0    0    0    0 -0.00000000000E+00 -0.00000000000E+00 -0.74505805969E-08  0.93827000000E+00  0.93827000000E+00 0. -1.
     999902    2    1    2    0    0 -0.14552786119E-02  0.11855233680E-01  0.22525106445E-01  0.10184340234E+01  0.10181148340E+01 0.  0.
     999903    2    3    3    0    0  0.34863785888E-01  0.30326195512E-01 -0.11615074984E+00  0.12664299185E+00  0.20304900771E-01 0.  0.
         14    1    1    2    0    0  0.14552786119E-02 -0.11855233680E-01 -0.22525106445E-01  0.25495976581E-01  0.00000000000E+00 0.  1.
     999901    1    3    3    0    0 -0.36319064500E-01 -0.18470961832E-01  0.13867585628E+00  0.89179103157E+00  0.88000000000E+00 0.  1.
        -11    1    4    4    0    0  0.28788373776E-01  0.27016974835E-01 -0.73519055039E-01  0.83450583993E-01  0.51100000000E-03 0. -1.
         11    1    4    4    0    0  0.60754121127E-02  0.33092206775E-02 -0.42631694798E-01  0.43192407854E-01  0.51100000000E-03 0.  1.
</event>
<event>
 7    1  0.5489035E+004  0.1043930E+01  0.7957747E-01            NaN
         13   -1    0    0    0    0  0.00000000000E+00  0.00000000000E+00  0.74505805969E-08  0.10566000000E+00  0.10566000000E+00 0.  1.
     999900   -1    0    0    0    0 -0.00000000000E+00 -0.00000000000E+00 -0.74505805969E-08  0.93827000000E+00  0.93827000000E+00 0.  1.
     999903    2    1    2    0    0  0.71813457722E-01  0.59004020832E-01 -0.42126177117E-01  0.10400951063E+00  0.20117562441E-01 0.  0.
         14    1    1    2    0    0  0.32386714668E-01 -0.35652667618E-01  0.22711928536E-01  0.53252640246E-01  0.00000000000E+00 0.  1.
     999901    1    1    2    0    0 -0.10420017239E+00 -0.23351353214E-01  0.19414248581E-01  0.88666784912E+00  0.88000000000E+00 0. -1.
        -11    1    3    3    0    0  0.37365550766E-01  0.26279589416E-01 -0.30995848066E-01  0.55206928209E-01  0.51100000000E-03 0.  1.
         11    1    3    3    0    0  0.34447906956E-01  0.32724431416E-01 -0.11130329051E-01  0.48802582421E-01  0.51100000000E-03 0. -1.
</event>
<event>
 8    1  0.5489035E+004  0.1043930E+01  0.7957747E-01            NaN
         13   -1    0    0    0    0  0.00000000000E+00  0.00000000000E+00  0.74505805969E-08  0.10566000000E+00  0.10566000000E+00 0. -1.
     999900   -1    0    0    0    0 -0.00000000000E+00 -0.00000000000E+00 -0.74505805969E-08  0.93827000000E+00  0.93827000000E+00 0.  1.
     999902    2    1    2    0    0 -0.15676026870E-01  0.16246892647E-01 -0.10351773424E-01  0.10190933627E+01  0.10187906671E+01 0.  0.
     999903    2    3    3    0    0  0.24918222716E-01 -0.11802690717E+00  0.33720842568E-01  0.12689397810E+00  0.20340054444E-01 0.  0.
         14    1    1    2    0    0  0.15676026870E-01 -0.16246892647E-01  0.10351773424E-01  0.24836637295E-01  0.00000000000E+00 0. -1.
     999901    1    3    3    0    0 -0.40594249586E-01  0.13427379981E+00 -0.44072615992E-01  0.89219938461E+00  0.88000000000E+00 0. -1.
        -11    1    4    4    0    0  0.12778664662E-01 -0.56692381169E-01  0.57640381516E-02  0.58402102787E-01  0.51100000000E-03 0. -1.
         11    1    4    4    0    0  0.12139558054E-01 -0.61334525998E-01  0.27956804416E-01  0.68491875309E-01  0.51100000000E-03 0.  1.
</event>
<event>
 8    1  0.5489035E+004  0.1043930E+01  0.7957747E-01            NaN
         13   -1    0    0    0    0  0.00000000000E+00  0.00000000000E+00  0.74505805969E-08  0.10566000000E+00  0.10566000000E+00 0. -1.
     999900   -1    0    0    0    0 -0.00000000000E+00 -0.00000000000E+00 -0.74505805969E-08  0.93827000000E+00  0.93827000000E+00 0.  1.
     999902    2    1    2    0    0  0.12725982602E-01 -0.31736233485E-02 -0.18057362661E-01  0.10216120506E+01  0.10213682446E+01 0.  0.
     999903    2    3    3    0    0 -0.93685363002E-01  0.87294683914E-01 -0.18806001857E-01  0.13059664696E+00  0.17450198035E-01 0.  0.
         14    1    1    2    0    0 -0.12725982602E-01  0.31736233485E-02  0.18057362661E-01  0.22317949382E-01  0.00000000000E+00 0. -1.
     999901    1    3    3    0    0  0.10641134560E+00 -0.90468307262E-01  0.74863919586E-03  0.89101540366E+00  0.88000000000E+00 0. -1.
        -11    1    4    4    0    0 -0.42286882186E-01  0.45187424183E-01 -0.16760294071E-01  0.64119047776E-01  0.51100000000E-03 0. -1.
         11    1    4    4    0    0 -0.51398480816E-01  0.42107259731E-01 -0.20457077852E-02  0.66477599186E-01  0.51100000000E-03 0.  1.
</event>
<event>
 8    1  0.5489035E+004  0.1043930E+01  0.7957747E-01            NaN
         13   -1    0    0    0    0  0.00000000000E+00  0.00000000000E+00  0.74505805969E-08  0.10566000000E+00  0.10566000000E+00 0.  1.
     999900   -1    0    0    0    0 -0.00000000000E+00 -0.00000000000E+00 -0.74505805969E-08  0.93827000000E+00  0.93827000000E+00 0.  1.
     999902    2    1    2    0    0 -0.15605590646E-01 -0.13902100843E-01  0.12968672323E-01  0.10193334692E+01  0.10190366686E+01 0.  0.
     999903    2    3    3    0    0 -0.61203925207E-01  0.50958037687E-01 -0.98743907144E-01  0.12873493666E+00  0.21901658701E-01 0.  0.
         14    1    1    2    0    0  0.15605590646E-01  0.13902100843E-01 -0.12968672323E-01  0.24596530834E-01  0.00000000000E+00 0. -1.
     999901    1    3    3    0    0  0.45598334561E-01 -0.64860138531E-01  0.11171257947E+00  0.89059853250E+00  0.88000000000E+00 0. -1.
        -11    1    4    4    0    0 -0.27758188207E-01  0.14054721141E-01 -0.25872850894E-01  0.40468725372E-01  0.51100000000E-03 0.  1.
         11    1    4    4    0    0 -0.33445737000E-01  0.36903316547E-01 -0.72871056250E-01  0.88266211291E-01  0.51100000000E-03 0. -1.
</event>
<event>
 8    1  0.5489035E+004  0.1043930E+01  0.7957747E-01            NaN
         13   -1    0    0    0    0  0.00000000000E+00  0.00000000000E+00  0.74505805969E-08  0.10566000000E+00  0.10566000000E+00 0.  1.
     999900   -1    0    0    0    0 -0.00000000000E+00 -0.00000000000E+00 -0.74505805969E-08  0.93827000000E+00  0.93827000000E+00 0.  1.
     999902    2    1    2    0    0 -0.20327793609E-01 -0.29528737704E-02 -0.10171582339E-01  0.10210084001E+01  0.10207510731E+01 0.  0.
     999903    2    3    3    0    0 -0.56641731210E-01  0.11745997440E+00 -0.10050231954E-01  0.13206634863E+00  0.18313437117E-01 0.  0.
         14    1    1    2    0    0  0.20327793609E-01  0.29528737704E-02  0.10171582339E-01  0.22921599940E-01  0.00000000000E+00 0. -1.
     999901    1    3    3    0    0  0.36313937601E-01 -0.12041284817E+00 -0.12135038474E-03  0.88894205143E+00  0.88000000000E+00 0. -1.
        -11    1    4    4    0    0 -0.37967260198E-01  0.58942360641E-01 -0.22960476857E-02  0.70151604977E-01  0.51100000000E-03 0.  1.
         11    1    4    4    0    0 -0.18674471013E-01  0.58517613758E-01 -0.77541842683E-02  0.61914743657E-01  0.51100000000E-03 0. -1.
</event>
<event>
 8    1  0.5489035E+004  0.1043930E+01  0.7957747E-01            NaN
         13   -1    0    0    0    0  0.00000000000E+00  0.00000000000E+00  0.74505805969E-08  0.10566000000E+00  0.10566000000E+00 0.  1.
     999900   -1    0    0    0    0 -0.00000000000E+00 -0.00000000000E+00 -0.74505805969E-08  0.93827000000E+00  0.93827000000E+00 0. -1.
     999902    2    1    2    0    0  0.98250539368E-02 -0.41921717998E-02  0.20327320054E-01  0.10209668571E+01  0.10207085860E+01 0.  0.
     999903    2    3    3    0    0  0.33712259753E-01 -0.84015795463E-01 -0.91049999074E-01  0.13004187898E+00  0.20630502001E-01 0.  0.
         14    1    1    2    0    0 -0.98250539368E-02  0.41921717998E-02 -0.20327320054E-01  0.22963142856E-01  0.00000000000E+00 0. -1.
     999901    1    3    3    0    0 -0.23887205816E-01  0.79823623663E-01  0.11137731913E+00  0.89092497816E+00  0.88000000000E+00 0.  1.
        -11    1    4    4    0    0  0.29982186231E-01 -0.63749169089E-01 -0.80196984313E-01  0.10674598571E+00  0.51100000000E-03 0.  1.
         11    1    4    4    0    0  0.37300735215E-02 -0.20266626374E-01 -0.10853014762E-01  0.23295893275E-01  0.51100000000E-03 0. -1.
</event>
<event>
 8    1  0.5489035E+004  0.1043930E+01  0.7957747E-01            NaN
         13   -1    0    0    0    0  0.00000000000E+00  0.00000000000E+00  0.74505805969E-08  0.10566000000E+00  0.10566000000E+00 0. -1.
     999900   -1    0    0    0    0 -0.00000000000E+00 -0.00000000000E+00 -0.74505805969E-08  0.93827000000E+00  0.93827000000E+00 0. -1.
     999902    2    1    2    0    0 -0.14434925166E-02  0.22594405120E-01  0.69514240890E-02  0.10202463958E+01  0.10199714677E+01 0.  0.
     999903    2    3    3    0    0  0.53770962954E-02  0.10625714538E+00  0.78111357247E-01  0.13339256866E+00  0.19305417199E-01 0.  0.
         14    1    1    2    0    0  0.14434925166E-02 -0.22594405120E-01 -0.69514240890E-02  0.23683604249E-01  0.00000000000E+00 0.  1.
     999901    1    3    3    0    0 -0.68205888120E-02 -0.83662740263E-01 -0.71159933158E-01  0.88685382709E+00  0.88000000000E+00 0. -1.
        -11    1    4    4    0    0 -0.42139448160E-02  0.72156656919E-01  0.57847779875E-01  0.92579518394E-01  0.51100000000E-03 0. -1.
         11    1    4    4    0    0  0.95910411114E-02  0.34100488464E-01  0.20263577372E-01  0.40813050266E-01  0.51100000000E-03 0.  1.
</event>
<event>
 8    1  0.5489035E+004  0.1043930E+01  0.7957747E-01            NaN
         13   -1    0    0    0    0  0.00000000000E+00  0.00000000000E+00  0.74505805969E-08  0.10566000000E+00  0.10566000000E+00 0.  1.
     999900   -1    0    0    0    0 -0.00000000000E+00 -0.00000000000E+00 -0.74505805969E-08  0.93827000000E+00  0.93827000000E+00 0. -1.
     999902    2    1    2    0    0  0.72193676696E-02  0.16815306226E-01  0.15922148884E-01  0.10196732768E+01  0.10193847178E+01 0.  0.
     999903    2    3    3    0    0 -0.99487610963E-01 -0.64647707108E-01 -0.43795395180E-01  0.12749123999E+00  0.16089402245E-01 0.  0.
         14    1    1    2    0    0 -0.72193676696E-02 -0.16815306226E-01 -0.15922148884E-01  0.24256723153E-01  0.00000000000E+00 0.  1.
     999901    1    3    3    0    0  0.10670697863E+00  0.81463013334E-01  0.59717544063E-01  0.89218203686E+00  0.88000000000E+00 0.  1.
        -11    1    4    4    0    0 -0.56135291675E-01 -0.39981013364E-01 -0.33190370277E-01  0.76495190706E-01  0.51100000000E-03 0. -1.
         11    1    4    4    0    0 -0.43352319288E-01 -0.24666693745E-01 -0.10605024903E-01  0.50996049280E-01  0.51100000000E-03 0.  1.
</event>
<event>
 8    1  0.5489035E+004  0.1043930E+01  0.7957747E-01            NaN
         13   -1    0    0    0    0  0.00000000000E+00  0.00000000000E+00  0.74505805969E-08  0.10566000000E+00  0.10566000000E+00 0.  1.
     999900   -1    0    0    0    0 -0.00000000000E+00 -0.00000000000E+00 -0.74505805969E-08  0.93827000000E+00  0.93827000000E+00 0. -1.
     999902    2    1    2    0    0  0.10966981932E-01 -0.14997405578E-01  0.24612993929E-01  0.10130917715E+01  0.10126223092E+01 0.  0.
     999903    2    3    3    0    0  0.47434264531E-01  0.13189459757E-01  0.11555716982E+00  0.12720509410E+00  0.20092415658E-01 0.  0.
         14    1    1    2    0    0 -0.10966981932E-01  0.14997405578E-01 -0.24612993929E-01  0.30838228498E-01  0.00000000000E+00 0. -1.
     999901    1    3    3    0    0 -0.36467282599E-01 -0.28186865334E-01 -0.90944175890E-01  0.88588667741E+00  0.88000000000E+00 0. -1.
        -11    1    4    4    0    0  0.20726702927E-01  0.85478396834E-03  0.69675380962E-01  0.72699702221E-01  0.51100000000E-03 0.  1.
         11    1    4    4    0    0  0.26707561605E-01  0.12334675788E-01  0.45881788858E-01  0.54505391875E-01  0.51100000000E-03 0. -1.
</event>
<event>
 8    1  0.5489035E+004  0.1043930E+01  0.7957747E-01            NaN
         13   -1    0    0    0    0  0.00000000000E+00  0.00000000000E+00  0.74505805969E-08  0.10566000000E+00  0.10566000000E+00 0. -1.
     999900   -1    0    0    0    0 -0.00000000000E+00 -0.00000000000E+00 -0.74505805969E-08  0.93827000000E+00  0.93827000000E+00 0.  1.
     999902    2    1    2    0    0  0.22776292043E-02  0.37523943880E-02 -0.23730963479E-01  0.10197964821E+01  0.10195108819E+01 0.  0.
     999903    2    3    3    0    0  0.69334619498E-02 -0.96027884900E-01 -0.87482391431E-01  0.13185390205E+00  0.21514067514E-01 0.  0.
         14    1    1    2    0    0 -0.22776292043E-02 -0.37523943880E-02  0.23730963479E-01  0.24133517897E-01  0.00000000000E+00 0. -1.
     999901    1    3    3    0    0 -0.46558327455E-02  0.99780279288E-01  0.63751427952E-01  0.88794258006E+00  0.88000000000E+00 0. -1.
        -11    1    4    4    0    0 -0.50156085206E-02 -0.44369931286E-01 -0.30866212776E-01  0.54284724769E-01  0.51100000000E-03 0. -1.
         11    1    4    4    0    0  0.11949070470E-01 -0.51657953614E-01 -0.56616178656E-01  0.77569177276E-01  0.51100000000E-03 0.  1.
</event>
<event>
 8    1  0.5489035E+004  0.1043930E+01  0.7957747E-01            NaN
         13   -1    0    0    0    0  0.00000000000E+00  0.00000000000E+00  0.74505805969E-08  0.10566000000E+00  0.10566000000E+00 0.  1.
     999900   -1    0    0    0    0 -0.00000000000E+00 -0.00000000000E+00 -0.74505805969E-08  0.93827000000E+00  0.93827000000E+00 0. -1.
     999902    2    1    2    0    0 -0.82509226270E-02 -0.88742693887E-02 -0.29868260711E-01  0.10116973554E+01  0.10111837595E+01 0.  0.
     999903    2    3    3    0    0  0.90370788835E-02  0.11969075268E+00  0.29956078355E-02  0.12158058003E+00  0.19113312168E-01 0.  0.
         14    1    1    2    0    0  0.82509226270E-02  0.88742693887E-02  0.29868260711E-01  0.32232644621E-01  0.00000000000E+00 0.  1.
     999901    1    3    3    0    0 -0.17288001511E-01 -0.12856502207E+00 -0.32863868546E-01  0.89011677535E+00  0.88000000000E+00 0. -1.
        -11    1    4    4    0    0 -0.52979232871E-02  0.26613541808E-01  0.37716797654E-02  0.27401373833E-01  0.51100000000E-03 0.  1.
         11    1    4    4    0    0  0.14335002171E-01  0.93077210876E-01 -0.77607192986E-03  0.94179206200E-01  0.51100000000E-03 0. -1.
</event>
<event>
 8    1  0.5489035E+004  0.1043930E+01  0.7957747E-01            NaN
         13   -1    0    0    0    0  0.00000000000E+00  0.00000000000E+00  0.74505805969E-08  0.10566000000E+00  0.10566000000E+00 0. -1.
     999900   -1    0    0    0    0 -0.00000000000E+00 -0.00000000000E+00 -0.74505805969E-08  0.93827000000E+00  0.93827000000E+00 0.  1.
     999902    2    1    2    0    0  0.14969586726E-02 -0.22687671856E-01  0.72645888470E-02  0.10200606558E+01  0.10197813472E+01 0.  0.
     999903    2    3    3    0    0  0.79564148118E-01  0.56779119246E-01  0.83146077710E-01  0.12979807811E+00  0.19492275241E-01 0.  0.
         14    1    1    2    0    0 -0.14969586726E-02  0.22687671856E-01 -0.72645888470E-02  0.23869344160E-01  0.00000000000E+00 0.  1.
     999901    1    3    3    0    0 -0.78067189445E-01 -0.79466791103E-01 -0.75881488863E-01  0.89026257773E+00  0.88000000000E+00 0.  1.
        -11    1    4    4    0    0  0.46885385988E-01  0.23134876211E-01  0.50162418793E-01  0.72456823672E-01  0.51100000000E-03 0. -1.
         11    1    4    4    0    0  0.32678762129E-01  0.33644243036E-01  0.32983658917E-01  0.57341254436E-01  0.51100000000E-03 0.  1.
</event>
<event>
 8    1  0.5489035E+004  0.1043930E+01  0.7957747E-01            NaN
         13   -1    0    0    0    0  0.00000000000E+00  0.00000000000E+00  0.74505805969E-08  0.10566000000E+00  0.10566000000E+00 0.  1.
     999900   -1    0    0    0    0 -0.00000000000E+00 -0.00000000000E+00 -0.74505805969E-08  0.93827000000E+00  0.93827000000E+00 0. -1.
     999902    2    1    2    0    0  0.12004029487E-01  0.10726228773E-01  0.41847688357E-02  0.10272968705E+01  0.10271622068E+01 0.  0.
     999903    2    3    3    0    0 -0.17427190831E-01  0.13114759012E+00  0.33997359276E-01  0.13810831255E+00  0.20363894105E-01 0.  0.
         14    1    1    2    0    0 -0.12004029487E-01 -0.10726228773E-01 -0.41847688357E-02  0.16633129526E-01  0.00000000000E+00 0. -1.
     999901    1    3    3    0    0  0.29431220317E-01 -0.12042136135E+00 -0.29812590440E-01  0.88918855793E+00  0.88000000000E+00 0. -1.
        -11    1    4    4    0    0 -0.11195688906E-01  0.68675515905E-01  0.75902830461E-02  0.69996738872E-01  0.51100000000E-03 0.  1.
         11    1    4    4    0    0 -0.62315019251E-02  0.62472074213E-01  0.26407076230E-01  0.68111573677E-01  0.51100000000E-03 0. -1.
</event>
<event>
 8    1  0.5489035E+004  0.1043930E+01  0.7957747E-01            NaN
         13   -1    0    0    0    0  0.00000000000E+00  0.00000000000E+00  0.74505805969E-08  0.10566000000E+00  0.10566000000E+00 0.  1.
     999900   -1    0    0    0    0 -0.00000000000E+00 -0.00000000000E+00 -0.74505805969E-08  0.93827000000E+00  0.93827000000E+00 0.  1.
     999902    2    1    2    0    0  0.13639859809E-01 -0.36747889374E-02  0.20481520842E-01  0.10190494344E+01  0.10187456538E+01 0.  0.
     999903    2    3    3    0    0  0.11805479670E+00  0.31711395915E-01  0.45271820694E-01  0.13182385986E+00  0.19632743659E-01 0.  0.
         14    1    1    2    0    0 -0.13639859809E-01  0.36747889374E-02 -0.20481520842E-01  0.24880565615E-01  0.00000000000E+00 0. -1.
     999901    1    3    3    0    0 -0.10441493690E+00 -0.35386184852E-01 -0.24790299851E-01  0.88722557453E+00  0.88000000000E+00 0.  1.
        -11    1    4    4    0    0  0.91942865809E-01  0.16051364274E-01  0.33128830585E-01  0.99039978823E-01  0.51100000000E-03 0. -1.
         11    1    4    4    0    0  0.26111930895E-01  0.15660031641E-01  0.12142990108E-01  0.32783881036E-01  0.51100000000E-03 0.  1.
</event>
<event>
 8    1  0.5489035E+004  0.1043930E+01  0.7957747E-01            NaN
         13   -1    0    0    0    0  0.00000000000E+00  0.00000000000E+00  0.74505805969E-08  0.10566000000E+00  0.10566000000E+00 0.  1.
     999900   -1    0    0    0    0 -0.00000000000E+00 -0.00000000000E+00 -0.74505805969E-08  0.93827000000E+00  0.93827000000E+00 0. -1.
     999902    2    1    2    0    0 -0.12946827299E-01 -0.13022626690E-01  0.11772150774E-01  0.10221173276E+01  0.10218845525E+01 0.  0.
     999903    2    3    3    0    0 -0.60609631034E-01 -0.10251049768E+00  0.60531303221E-01  0.13495484144E+00  0.19153095028E-01 0.  0.
         14    1    1    2    0    0  0.12946827299E-01  0.13022626690E-01 -0.11772150774E-01  0.21812672392E-01  0.00000000000E+00 0. -1.
     999901    1    3    3    0    0  0.47662803735E-01  0.89487870994E-01 -0.48759152447E-01  0.88716248617E+00  0.88000000000E+00 0. -1.
        -11    1    4    4    0    0 -0.10941655910E-01 -0.21745235149E-01  0.21272609909E-01  0.32332029616E-01  0.51100000000E-03 0. -1.
         11    1    4    4    0    0 -0.49667975124E-01 -0.80765262535E-01  0.39258693312E-01  0.10262281182E+00  0.51100000000E-03 0.  1.
</event>
<event>
 8    1  0.5489035E+004  0.1043930E+01  0.7957747E-01            NaN
         13   -1    0    0    0    0  0.00000000000E+00  0.00000000000E+00  0.74505805969E-08  0.10566000000E+00  0.10566000000E+00 0.  1.
     999900   -1    0    0    0    0 -0.00000000000E+00 -0.00000000000E+00 -0.74505805969E-08  0.93827000000E+00  0.93827000000E+00 0. -1.
     999902    2    1    2    0    0 -0.17144263754E-01 -0.92697525246E-02 -0.13316407407E-01  0.10203253225E+01  0.10200522452E+01 0.  0.
     999903    2    3    3    0    0 -0.10256373086E+00  0.80051244077E-01 -0.24605056260E-02  0.13162257337E+00  0.19771878170E-01 0.  0.
         14    1    1    2    0    0  0.17144263754E-01  0.92697525246E-02  0.13316407407E-01  0.23604677455E-01  0.00000000000E+00 0.  1.
     999901    1    3    3    0    0  0.85419467102E-01 -0.89320996601E-01 -0.10855901781E-01  0.88870274918E+00  0.88000000000E+00 0.  1.
        -11    1    4    4    0    0 -0.34508778923E-01  0.24028173294E-01  0.81538824367E-02  0.42836384703E-01  0.51100000000E-03 0.  1.
         11    1    4    4    0    0 -0.68054951933E-01  0.56023070782E-01 -0.10614388063E-01  0.88786188664E-01  0.51100000000E-03 0. -1.
</event>
<event>
 8    1  0.5489035E+004  0.1043930E+01  0.7957747E-01            NaN
         13   -1    0    0    0    0  0.00000000000E+00  0.00000000000E+00  0.74505805969E-08  0.10566000000E+00  0.10566000000E+00 0.  1.
     999900   -1    0    0    0    0 -0.00000000000E+00 -0.00000000000E+00 -0.74505805969E-08  0.93827000000E+00  0.93827000000E+00 0.  1.
     999902    2    1    2    0    0 -0.24708689136E-02  0.44930602087E-02 -0.22340664680E-01  0.10210084363E+01  0.10207511102E+01 0.  0.
     999903    2    3    3    0    0 -0.93536134617E-01  0.23620051519E-01  0.84352952974E-01  0.12969353548E+00  0.19951870998E-01 0.  0.
         14    1    1    2    0    0  0.24708689136E-02 -0.44930602087E-02  0.22340664680E-01  0.22921563681E-01  0.00000000000E+00 0.  1.
     999901    1    3    3    0    0  0.91065265703E-01 -0.19126991311E-01 -0.10669361765E+00  0.89131490084E+00  0.88000000000E+00 0.  1.
        -11    1    4    4    0    0 -0.50082592965E-01  0.91467219988E-02  0.32011663298E-01  0.60140970640E-01  0.51100000000E-03 0. -1.
         11    1    4    4    0    0 -0.43453541651E-01  0.14473329521E-01  0.52341289676E-01  0.69552564837E-01  0.51100000000E-03 0.  1.
</event>
<event>
 8    1  0.5489035E+004  0.1043930E+01  0.7957747E-01            NaN
         13   -1    0    0    0    0  0.00000000000E+00  0.00000000000E+00  0.74505805969E-08  0.10566000000E+00  0.10566000000E+00 0.  1.
     999900   -1    0    0    0    0 -0.00000000000E+00 -0.00000000000E+00 -0.74505805969E-08  0.93827000000E+00  0.93827000000E+00 0. -1.
     999902    2    1    2    0    0  0.21243231873E-01  0.19580574483E-02  0.10468982623E-01  0.10201664042E+01  0.10198895939E+01 0.  0.
     999903    2    3    3    0    0 -0.66808722801E-04  0.42772356345E-01  0.12309102370E+00  0.13179505786E+00  0.19724559052E-01 0.  0.
         14    1    1    2    0    0 -0.21243231873E-01 -0.19580574483E-02 -0.10468982623E-01  0.23763595826E-01  0.00000000000E+00 0.  1.
     999901    1    3    3    0    0  0.21310040596E-01 -0.40814298897E-01 -0.11262204107E+00  0.88837134632E+00  0.88000000000E+00 0. -1.
        -11    1    4    4    0    0 -0.50713165761E-03  0.39727351952E-02  0.38694790975E-01  0.38904855443E-01  0.51100000000E-03 0. -1.
         11    1    4    4    0    0  0.44032293481E-03  0.38799621150E-01  0.84396232722E-01  0.92890202413E-01  0.51100000000E-03 0.  1.
</event>
<event>
 8    1  0.5489035E+004  0.1043930E+01  0.7957747E-01            NaN
         13   -1    0    0    0    0  0.00000000000E+00  0.00000000000E+00  0.74505805969E-08  0.10566000000E+00  0.10566000000E+00 0.  1.
     999900   -1    0    0    0    0 -0.00000000000E+00 -0.00000000000E+00 -0.74505805969E-08  0.93827000000E+00  0.93827000000E+00 0. -1.
     999902    2    1    2    0    0 -0.19433490852E-02  0.16919802207E-01 -0.16974767639E-01  0.10198842301E+01  0.10196007276E+01 0.  0.
     999903    2    3    3    0    0  0.12704330739E+00  0.20571538900E-01 -0.29109426291E-02  0.13036262617E+00  0.20560898539E-01 0.  0.
         14    1    1    2    0    0  0.19433490852E-02 -0.16919802207E-01  0.16974767639E-01  0.24045769873E-01  0.00000000000E+00 0.  1.
     999901    1    3    3    0    0 -0.12898665648E+00 -0.36517366924E-02 -0.14063825010E-01  0.88952160396E+00  0.88000000000E+00 0. -1.
        -11    1    4    4    0    0  0.52569163503E-01 -0.19170530000E-03 -0.64465974799E-02  0.52965776143E-01  0.51100000000E-03 0.  1.
         11    1    4    4    0    0  0.74474143892E-01  0.20763244200E-01  0.35356548508E-02  0.77396850028E-01  0.51100000000E-03 0. -1.
</event>
<event>
 8    1  0.5489035E+004  0.1043930E+01  0.7957747E-01            NaN
         13   -1    0    0    0    0  0.00000000000E+00  0.00000000000E+00  0.74505805969E-08  0.10566000000E+00  0.10566000000E+00 0.  1.
     999900   -1    0    0    0    0 -0.00000000000E+00 -0.00000000000E+00 -0.74505805969E-08  0.93827000000E+00  0.93827000000E+00 0. -1.
     999902    2    1    2    0    0  0.13690217866E-01 -0.83945120760E-02 -0.16597592650E-01  0.10208351958E+01  0.10205739204E+01 0.  0.
     999903    2    3    3    0    0  0.99619042375E-01 -0.79349638308E-01 -0.36180357302E-01  0.13359121726E+00  0.17812253417E-01 0.  0.
         14    1    1    2    0    0 -0.13690217866E-01  0.83945120760E-02  0.16597592650E-01  0.23094804177E-01  0.00000000000E+00 0. -1.
     999901    1    3    3    0    0 -0.85928824509E-01  0.70955126232E-01  0.19582764652E-01  0.88724397856E+00  0.88000000000E+00 0. -1.
        -11    1    4    4    0    0  0.32885878712E-01 -0.26252809522E-01 -0.33738208972E-02  0.42217707363E-01  0.51100000000E-03 0.  1.
         11    1    4    4    0    0  0.66733163663E-01 -0.53096828786E-01 -0.32806536404E-01  0.91373509900E-01  0.51100000000E-03 0. -1.
</event>
<event>
 8    1  0.5489035E+004  0.1043930E+01  0.7957747E-01            NaN
         13   -1    0    0    0    0  0.00000000000E+00  0.00000000000E+00  0.74505805969E-08  0.10566000000E+00  0.10566000000E+00 0.  1.
     999900   -1    0    0    0    0 -0.00000000000E+00 -0.00000000000E+00 -0.74505805969E-08  0.93827000000E+00  0.93827000000E+00 0.  1.
     999902    2    1    2    0    0  0.18353694484E-01 -0.45484403986E-02  0.13858868154E-01  0.10204861386E+01  0.10202168125E+01 0.  0.
     999903    2    3    3    0    0 -0.86661365075E-01 -0.45910153078E-01 -0.80239167049E-01  0.12830151967E+00  0.20125150150E-01 0.  0.
         14    1    1    2    0    0 -0.18353694484E-01  0.45484403986E-02 -0.13858868154E-01  0.23443861409E-01  0.00000000000E+00 0. -1.
     999901    1    3    3    0    0  0.10501505956E+00  0.41361712679E-01  0.94098035203E-01  0.89218461892E+00  0.88000000000E+00 0.  1.
        -11    1    4    4    0    0 -0.77116997100E-01 -0.32600089136E-01 -0.67421336348E-01  0.10749741750E+00  0.51100000000E-03 0.  1.
         11    1    4    4    0    0 -0.95443679749E-02 -0.13310063942E-01 -0.12817830701E-01  0.20804102169E-01  0.51100000000E-03 0. -1.
</event>
<event>
 8    1  0.5489035E+004  0.1043930E+01  0.7957747E-01            NaN
         13   -1    0    0    0    0  0.00000000000E+00  0.00000000000E+00  0.74505805969E-08  0.10566000000E+00  0.10566000000E+00 0.  1.
     999900   -1    0    0    0    0 -0.00000000000E+00 -0.00000000000E+00 -0.74505805969E-08  0.93827000000E+00  0.93827000000E+00 0. -1.
     999902    2    1    2    0    0  0.21138407572E-01 -0.59767823234E-02  0.82308880890E-02  0.10204714894E+01  0.10202018226E+01 0.  0.
     999903    2    3    3    0    0 -0.12751011844E-01 -0.10025817995E+00  0.81887465539E-01  0.13172925111E+00  0.20802587225E-01 0.  0.
         14    1    1    2    0    0 -0.21138407572E-01  0.59767823234E-02 -0.82308880890E-02  0.23458510617E-01  0.00000000000E+00 0.  1.
     999901    1    3    3    0    0  0.33889419416E-01  0.94281397630E-01 -0.73656577450E-01  0.88874223827E+00  0.88000000000E+00 0. -1.
        -11    1    4    4    0    0 -0.15778128189E-01 -0.98225120401E-01  0.78511283325E-01  0.12673360382E+00  0.51100000000E-03 0. -1.
         11    1    4    4    0    0  0.30271163450E-02 -0.20330595520E-02  0.33761822139E-02  0.49956472904E-02  0.51100000000E-03 0.  1.
</event>
<event>
 8    1  0.5489035E+004  0.1043930E+01  0.7957747E-01            NaN
         13   -1    0    0    0    0  0.00000000000E+00  0.00000000000E+00  0.74505805969E-08  0.10566000000E+00  0.10566000000E+00 0.  1.
     999900   -1    0    0    0    0 -0.00000000000E+00 -0.00000000000E+00 -0.74505805969E-08  0.93827000000E+00  0.93827000000E+00 0.  1.
     999902    2    1    2    0    0 -0.23061698270E-01 -0.89471541700E-02  0.47511105945E-02  0.10187413806E+01  0.10184299357E+01 0.  0.
     999903    2    3    3    0    0  0.11109981606E+00 -0.17265466589E-01 -0.54425306129E-01  0.12656967374E+00  0.20408402615E-01 0.  0.
         14    1    1    2    0    0  0.23061698270E-01  0.89471541700E-02 -0.47511105945E-02  0.25188619389E-01  0.00000000000E+00 0. -1.
     999901    1    3    3    0    0 -0.13416151433E+00  0.83183124187E-02  0.59176416723E-01  0.89217170687E+00  0.88000000000E+00 0. -1.
        -11    1    4    4    0    0  0.55942991549E-01 -0.43953570432E-02 -0.16828669320E-01  0.58586710942E-01  0.51100000000E-03 0.  1.
         11    1    4    4    0    0  0.55156824514E-01 -0.12870109545E-01 -0.37596636809E-01  0.67982962796E-01  0.51100000000E-03 0. -1.
</event>
<event>
 8    1  0.5489035E+004  0.1043930E+01  0.7957747E-01            NaN
         13   -1    0    0    0    0  0.00000000000E+00  0.00000000000E+00  0.74505805969E-08  0.10566000000E+00  0.10566000000E+00 0. -1.
     999900   -1    0    0    0    0 -0.00000000000E+00 -0.00000000000E+00 -0.74505805969E-08  0.93827000000E+00  0.93827000000E+00 0.  1.
     999902    2    1    2    0    0  0.10755453827E-01  0.20297242572E-01  0.55530296501E-02  0.10202975227E+01  0.10200237943E+01 0.  0.
     999903    2    3    3    0    0  0.26764133467E-01 -0.12243494091E+00  0.19480417179E-01  0.12854490786E+00  0.20920637841E-01 0.  0.
         14    1    1    2    0    0 -0.10755453827E-01 -0.20297242572E-01 -0.55530296501E-02  0.23632477258E-01  0.00000000000E+00 0.  1.
     999901    1    3    3    0    0 -0.16008679640E-01  0.14273218348E+00 -0.13927387529E-01  0.89175261488E+00  0.88000000000E+00 0.  1.
        -11    1    4    4    0    0  0.13363627329E-01 -0.92105851371E-01  0.20759280200E-01  0.95358708189E-01  0.51100000000E-03 0. -1.
         11    1    4    4    0    0  0.13400506138E-01 -0.30329089538E-01 -0.12788630205E-02  0.33186199671E-01  0.51100000000E-03 0.  1.
</event>
<event>
 8    1  0.5489035E+004  0.1043930E+01  0.7957747E-01            NaN
         13   -1    0    0    0    0  0.00000000000E+00  0.00000000000E+00  0.74505805969E-08  0.10566000000E+00  0.10566000000E+00 0. -1.
     999900   -1    0    0    0    0 -0.00000000000E+00 -0.00000000000E+00 -0.74505805969E-08  0.93827000000E+00  0.93827000000E+00 0. -1.
     999902    2    1    2    0    0  0.65220946264E-02  0.12708215812E-01 -0.18929949599E-01  0.10202154589E+01  0.10199398037E+01 0.  0.
     999903    2    3    3    0    0 -0.11920105399E+00  0.48279952502E-01  0.49267732791E-02  0.13024871696E+00  0.20015246380E-01 0.  0.
         14    1    1    2    0    0 -0.65220946264E-02 -0.12708215812E-01  0.18929949599E-01  0.23714541093E-01  0.00000000000E+00 0. -1.
     999901    1    3    3    0    0  0.12572314862E+00 -0.35571736690E-01 -0.23856722878E-01  0.88996674195E+00  0.88000000000E+00 0.  1.
        -11    1    4    4    0    0 -0.76581386929E-01  0.40982827046E-01  0.15343454713E-02  0.86872989321E-01  0.51100000000E-03 0.  1.
         11    1    4    4    0    0 -0.42619667064E-01  0.72971254562E-02  0.33924278078E-02  0.43375727636E-01  0.51100000000E-03 0. -1.
</event>
<event>
 8    1  0.5489035E+004  0.1043930E+01  0.7957747E-01            NaN
         13   -1    0    0    0    0  0.00000000000E+00  0.00000000000E+00  0.74505805969E-08  0.10566000000E+00  0.10566000000E+00 0. -1.
     999900   -1    0    0    0    0 -0.00000000000E+00 -0.00000000000E+00 -0.74505805969E-08  0.93827000000E+00  0.93827000000E+00 0. -1.
     999902    2    1    2    0    0  0.20767606646E-01  0.38778685655E-02 -0.10262050990E-01  0.10204429601E+01  0.10201726294E+01 0.  0.
     999903    2    3    3    0    0 -0.48723527272E-01  0.11625936338E-01  0.11682767088E+00  0.12856805432E+00  0.19284589783E-01 0.  0.
         14    1    1    2    0    0 -0.20767606646E-01 -0.38778685655E-02  0.10262050990E-01  0.23487039850E-01  0.00000000000E+00 0.  1.
     999901    1    3    3    0    0  0.69491133918E-01 -0.77480677721E-02 -0.12708972187E+00  0.89187490583E+00  0.88000000000E+00 0. -1.
        -11    1    4    4    0    0 -0.24427859859E-01  0.86448449170E-02  0.37777506543E-01  0.45813260117E-01  0.51100000000E-03 0.  1.
         11    1    4    4    0    0 -0.24295667413E-01  0.29810914207E-02  0.79050164334E-01  0.82754794202E-01  0.51100000000E-03 0. -1.
</event>
<event>
 8    1  0.5489035E+004  0.1043930E+01  0.7957747E-01            NaN
         13   -1    0    0    0    0  0.00000000000E+00  0.00000000000E+00  0.74505805969E-08  0.10566000000E+00  0.10566000000E+00 0. -1.
     999900   -1    0    0    0    0 -0.00000000000E+00 -0.00000000000E+00 -0.74505805969E-08  0.93827000000E+00  0.93827000000E+00 0. -1.
     999902    2    1    2    0    0 -0.22208967926E-01 -0.29348996013E-02  0.72630073779E-02  0.10203799858E+01  0.10201081866E+01 0.  0.
     999903    2    3    3    0    0  0.57418106671E-01 -0.11006260545E+00 -0.31244718962E-01  0.12948175293E+00  0.19459593682E-01 0.  0.
         14    1    1    2    0    0  0.22208967926E-01  0.29348996013E-02 -0.72630073779E-02  0.23550014186E-01  0.00000000000E+00 0. -1.
     999901    1    3    3    0    0 -0.79627074597E-01  0.10712770585E+00  0.38507726340E-01  0.89089823288E+00  0.88000000000E+00 0.  1.
        -11    1    4    4    0    0  0.55647943676E-01 -0.95958770466E-01 -0.31294811019E-01  0.11525799574E+00  0.51100000000E-03 0.  1.
         11    1    4    4    0    0  0.17701629946E-02 -0.14103834984E-01  0.50092056889E-04  0.14223757187E-01  0.51100000000E-03 0. -1.
</event>
<event>
 8    1  0.5489035E+004  0.1043930E+01  0.7957747E-01            NaN
         13   -1    0    0    0    0  0.00000000000E+00  0.00000000000E+00  0.74505805969E-08  0.10566000000E+00  0.10566000000E+00 0.  1.
     999900   -1    0    0    0    0 -0.00000000000E+00 -0.00000000000E+00 -0.74505805969E-08  0.93827000000E+00  0.93827000000E+00 0.  1.
     999902    2    1    2    0    0  0.14773515295E-01  0.16417097810E-01 -0.13151900732E-01  0.10182249354E+01  0.10179004218E+01 0.  0.
     999903    2    3    3    0    0 -0.68328286391E-01  0.47433956307E-01  0.94058078150E-01  0.12729175352E+00  0.20917301852E-01 0.  0.
         14    1    1    2    0    0 -0.14773515295E-01 -0.16417097810E-01  0.13151900732E-01  0.25705064628E-01  0.00000000000E+00 0.  1.
     999901    1    3    3    0    0  0.83101801686E-01 -0.31016858497E-01 -0.10720997888E+00  0.89093318185E+00  0.88000000000E+00 0.  1.
        -11    1    4    4    0    0 -0.11825957719E-01  0.16803110022E-01  0.31412477921E-01  0.37539348323E-01  0.51100000000E-03 0.  1.
         11    1    4    4    0    0 -0.56502328672E-01  0.30630846285E-01  0.62645600229E-01  0.89752405197E-01  0.51100000000E-03 0. -1.
</event>
<event>
 8    1  0.5489035E+004  0.1043930E+01  0.7957747E-01            NaN
         13   -1    0    0    0    0  0.00000000000E+00  0.00000000000E+00  0.74505805969E-08  0.10566000000E+00  0.10566000000E+00 0. -1.
     999900   -1    0    0    0    0 -0.00000000000E+00 -0.00000000000E+00 -0.74505805969E-08  0.93827000000E+00  0.93827000000E+00 0.  1.
     999902    2    1    2    0    0 -0.23375901502E-01 -0.45671100472E-02  0.65901045749E-03  0.10201030077E+01  0.10198247010E+01 0.  0.
     999903    2    3    3    0    0  0.66506290593E-01 -0.23036567986E-01  0.10622567404E+00  0.12905629191E+00  0.20441685449E-01 0.  0.
         14    1    1    2    0    0  0.23375901502E-01  0.45671100472E-02 -0.65901045749E-03  0.23826992256E-01  0.00000000000E+00 0. -1.
     999901    1    3    3    0    0 -0.89882192095E-01  0.18469457938E-01 -0.10556666358E+00  0.89104671583E+00  0.88000000000E+00 0. -1.
        -11    1    4    4    0    0  0.39542187358E-01 -0.12052761899E-01  0.44117775577E-01  0.60460672286E-01  0.51100000000E-03 0. -1.
         11    1    4    4    0    0  0.26964103235E-01 -0.10983806087E-01  0.62107898464E-01  0.68595619627E-01  0.51100000000E-03 0.  1.
</event>
<event>
 8    1  0.5489035E+004  0.1043930E+01  0.7957747E-01            NaN
         13   -1    0    0    0    0  0.00000000000E+00  0.00000000000E+00  0.74505805969E-08  0.10566000000E+00  0.10566000000E+00 0.  1.
     999900   -1    0    0    0    0 -0.00000000000E+00 -0.00000000000E+00 -0.74505805969E-08  0.93827000000E+00  0.93827000000E+00 0. -1.
     999902    2    1    2    0    0 -0.16271928823E-02  0.21012587096E-01  0.10802820087E-01  0.10202471477E+01  0.10199722373E+01 0.  0.
     999903    2    3    3    0    0 -0.10055089358E+00 -0.75663414919E-01  0.23322132058E-01  0.12935496501E+00  0.18797621484E-01 0.  0.
         14    1    1    2    0    0  0.16271928823E-02 -0.21012587096E-01 -0.10802820087E-01  0.23682852341E-01  0.00000000000E+00 0. -1.
     999901    1    3    3    0    0  0.98923700696E-01  0.96676002016E-01 -0.12519311970E-01  0.89089218264E+00  0.88000000000E+00 0. -1.
        -11    1    4    4    0    0 -0.70790104847E-01 -0.48807953325E-01  0.77065107775E-02  0.86331377155E-01  0.51100000000E-03 0.  1.
         11    1    4    4    0    0 -0.29760788731E-01 -0.26855461595E-01  0.15615621280E-01  0.43023587860E-01  0.51100000000E-03 0. -1.
</event>
<event>
 8    1  0.5489035E+004  0.1043930E+01  0.7957747E-01            NaN
         13   -1    0    0    0    0  0.00000000000E+00  0.00000000000E+00  0.74505805969E-08  0.10566000000E+00  0.10566000000E+00 0. -1.
     999900   -1    0    0    0    0 -0.00000000000E+00 -0.00000000000E+00 -0.74505805969E-08  0.93827000000E+00  0.93827000000E+00 0.  1.
     999902    2    1    2    0    0 -0.19541632138E-01 -0.50423100442E-02 -0.10300194254E-01  0.10212717944E+01  0.10210204130E+01 0.  0.
     999903    2    3    3    0    0  0.76717587942E-01  0.95989854370E-01 -0.37041178237E-01  0.12987490421E+00  0.19894758535E-01 0.  0.
         14    1    1    2    0    0  0.19541632138E-01  0.50423100442E-02  0.10300194254E-01  0.22658205553E-01  0.00000000000E+00 0.  1.
     999901    1    3    3    0    0 -0.96259220080E-01 -0.10103216441E+00  0.26740983983E-01  0.89139689024E+00  0.88000000000E+00 0.  1.
        -11    1    4    4    0    0  0.76061328485E-01  0.87454714156E-01 -0.34567938851E-01  0.12094980875E+00  0.51100000000E-03 0. -1.
         11    1    4    4    0    0  0.65625945656E-03  0.85351402148E-02 -0.24732393855E-02  0.89250954628E-02  0.51100000000E-03 0.  1.
</event>
<event>
 8    1  0.5489035E+004  0.1043930E+01  0.7957747E-01            NaN
         13   -1    0    0    0    0  0.00000000000E+00  0.00000000000E+00  0.74505805969E-08  0.10566000000E+00  0.10566000000E+00 0.  1.
     999900   -1    0    0    0    0 -0.00000000000E+00 -0.00000000000E+00 -0.74505805969E-08  0.93827000000E+00  0.93827000000E+00 0. -1.
     999902    2    1    2    0    0  0.15017050225E-01 -0.52522627722E-02  0.18569429850E-01  0.10194775607E+01  0.10191842694E+01 0.  0.
     999903    2    3    3    0    0 -0.10523677063E+00  0.41606371941E-01  0.58768566000E-01  0.12915588648E+00  0.20533645200E-01 0.  0.
         14    1    1    2    0    0 -0.15017050225E-01  0.52522627722E-02 -0.18569429850E-01  0.24452439278E-01  0.00000000000E+00 0. -1.
     999901    1    3    3    0    0  0.12025382085E+00 -0.46858634713E-01 -0.40199136150E-01  0.89032167424E+00  0.88000000000E+00 0. -1.
        -11    1    4    4    0    0 -0.53381755555E-01  0.31984646998E-01  0.33411909274E-01  0.70634596849E-01  0.51100000000E-03 0.  1.
         11    1    4    4    0    0 -0.51855015071E-01  0.96217249430E-02  0.25356656726E-01  0.58521289632E-01  0.51100000000E-03 0. -1.
</event>
<event>
 8    1  0.5489035E+004  0.1043930E+01  0.7957747E-01            NaN
         13   -1    0    0    0    0  0.00000000000E+00  0.00000000000E+00  0.74505805969E-08  0.10566000000E+00  0.10566000000E+00 0.  1.
     999900   -1    0    0    0    0 -0.00000000000E+00 -0.00000000000E+00 -0.74505805969E-08  0.93827000000E+00  0.93827000000E+00 0. -1.
     999902    2    1    2    0    0  0.11628147548E-01 -0.18037626911E-01  0.11063468025E-01  0.10197852257E+01  0.10194993558E+01 0.  0.
     999903    2    3    3    0    0  0.11794875095E+00  0.27687643353E-01 -0.44305561251E-01  0.13048179019E+00  0.19595952886E-01 0.  0.
         14    1    1    2    0    0 -0.11628147548E-01  0.18037626911E-01 -0.11063468025E-01  0.24144774273E-01  0.00000000000E+00 0. -1.
     999901    1    3    3    0    0 -0.10632060340E+00 -0.45725270264E-01  0.55369029275E-01  0.88930343553E+00  0.88000000000E+00 0.  1.
        -11    1    4    4    0    0  0.73257827617E-01  0.73655707369E-02 -0.27054896957E-01  0.78442268643E-01  0.51100000000E-03 0.  1.
         11    1    4    4    0    0  0.44690923332E-01  0.20322072616E-01 -0.17250664294E-01  0.52039521551E-01  0.51100000000E-03 0. -1.
</event>
<event>
 8    1  0.5489035E+004  0.1043930E+01  0.7957747E-01            NaN
         13   -1    0    0    0    0  0.00000000000E+00  0.00000000000E+00  0.74505805969E-08  0.10566000000E+00  0.10566000000E+00 0.  1.
     999900   -1    0    0    0    0 -0.00000000000E+00 -0.00000000000E+00 -0.74505805969E-08  0.93827000000E+00  0.93827000000E+00 0.  1.
     999902    2    1    2    0    0  0.62067200486E-02  0.13413322386E-01 -0.19645292506E-01  0.10193458972E+01  0.10190494002E+01 0.  0.
     999903    2    3    3    0    0 -0.52541633213E-01 -0.66708521282E-01 -0.96808794348E-01  0.13039984439E+00  0.20531115952E-01 0.  0.
         14    1    1    2    0    0 -0.62067200486E-02 -0.13413322386E-01  0.19645292506E-01  0.24584102767E-01  0.00000000000E+00 0.  1.
     999901    1    3    3    0    0  0.58748353262E-01  0.80121843668E-01  0.77163501842E-01  0.88894605284E+00  0.88000000000E+00 0.  1.
        -11    1    4    4    0    0 -0.13064527834E-01 -0.14081329230E-01 -0.36022200152E-01  0.40826777306E-01  0.51100000000E-03 0.  1.
         11    1    4    4    0    0 -0.39477105379E-01 -0.52627192052E-01 -0.60786594196E-01  0.89573067087E-01  0.51100000000E-03 0. -1.
</event>
<event>
 8    1  0.5489035E+004  0.1043930E+01  0.7957747E-01            NaN
         13   -1    0    0    0    0  0.00000000000E+00  0.00000000000E+00  0.74505805969E-08  0.10566000000E+00  0.10566000000E+00 0. -1.
     999900   -1    0    0    0    0 -0.00000000000E+00 -0.00000000000E+00 -0.74505805969E-08  0.93827000000E+00  0.93827000000E+00 0. -1.
     999902    2    1    2    0    0 -0.22968492642E-01  0.74979436935E-02  0.22756896996E-02  0.10196617166E+01  0.10193728792E+01 0.  0.
     999903    2    3    3    0    0  0.71937565077E-01 -0.34602930323E-01  0.98659226131E-01  0.12833157046E+00  0.19051850827E-01 0.  0.
         14    1    1    2    0    0  0.22968492642E-01 -0.74979436935E-02 -0.22756896996E-02  0.24268283365E-01  0.00000000000E+00 0. -1.
     999901    1    3    3    0    0 -0.94906057719E-01  0.42100874016E-01 -0.96383536431E-01  0.89133014617E+00  0.88000000000E+00 0.  1.
        -11    1    4    4    0    0  0.58317156111E-01 -0.24481890527E-01  0.65351575245E-01  0.90946925009E-01  0.51100000000E-03 0.  1.
         11    1    4    4    0    0  0.13620408966E-01 -0.10121039796E-01  0.33307650886E-01  0.37384645451E-01  0.51100000000E-03 0. -1.
</event>
<event>
 8    1  0.5489035E+004  0.1043930E+01  0.7957747E-01            NaN
         13   -1    0    0    0    0  0.00000000000E+00  0.00000000000E+00  0.74505805969E-08  0.10566000000E+00  0.10566000000E+00 0. -1.
     999900   -1    0    0    0    0 -0.00000000000E+00 -0.00000000000E+00 -0.74505805969E-08  0.93827000000E+00  0.93827000000E+00 0. -1.
     999902    2    1    2    0    0  0.74746607501E-02 -0.20246294249E-01 -0.10022275956E-01  0.10201344332E+01  0.10198568688E+01 0.  0.
     999903    2    3    3    0    0  0.84313678811E-01  0.87026453583E-01 -0.41722981564E-01  0.12973193328E+00  0.20178386054E-01 0.  0.
         14    1    1    2    0    0 -0.74746607501E-02  0.20246294249E-01  0.10022275956E-01  0.23795566803E-01  0.00000000000E+00 0. -1.
     999901    1    3    3    0    0 -0.76839018061E-01 -0.10727274783E+00  0.31700705608E-01  0.89040249992E+00  0.88000000000E+00 0.  1.
        -11    1    4    4    0    0  0.26596827847E-02  0.89016877124E-02 -0.11202798648E-03  0.93052473322E-02  0.51100000000E-03 0. -1.
         11    1    4    4    0    0  0.81653996027E-01  0.78124765870E-01 -0.41610953577E-01  0.12042668595E+00  0.51100000000E-03 0.  1.
</event>
<event>
 8    1  0.5489035E+004  0.1043930E+01  0.7957747E-01            NaN
         13   -1    0    0    0    0  0.00000000000E+00  0.00000000000E+00  0.74505805969E-08  0.10566000000E+00  0.10566000000E+00 0.  1.
     999900   -1    0    0    0    0 -0.00000000000E+00 -0.00000000000E+00 -0.74505805969E-08  0.93827000000E+00  0.93827000000E+00 0. -1.
     999902    2    1    2    0    0 -0.10578514446E-01  0.23591868406E-01  0.59414238916E-02  0.10174011150E+01  0.10170551839E+01 0.  0.
     999903    2    3    3    0    0  0.34069610926E-01 -0.14971902925E-01 -0.11918832514E+00  0.12659357479E+00  0.20860969835E-01 0.  0.
         14    1    1    2    0    0  0.10578514446E-01 -0.23591868406E-01 -0.59414238916E-02  0.26528885024E-01  0.00000000000E+00 0. -1.
     999901    1    3    3    0    0 -0.44648125372E-01  0.38563771331E-01  0.12512974903E+00  0.89080754019E+00  0.88000000000E+00 0.  1.
        -11    1    4    4    0    0  0.33596487024E-01 -0.96370895139E-02 -0.83792382317E-01  0.90791089265E-01  0.51100000000E-03 0. -1.
         11    1    4    4    0    0  0.47312390178E-03 -0.53348134109E-02 -0.35395942824E-01  0.35802485525E-01  0.51100000000E-03 0.  1.
</event>
<event>
 8    1  0.5489035E+004  0.1043930E+01  0.7957747E-01            NaN
         13   -1    0    0    0    0  0.00000000000E+00  0.00000000000E+00  0.74505805969E-08  0.10566000000E+00  0.10566000000E+00 0. -1.
     999900   -1    0    0    0    0 -0.00000000000E+00 -0.00000000000E+00 -0.74505805969E-08  0.93827000000E+00  0.93827000000E+00 0.  1.
     999902    2    1    2    0    0  0.72969990367E-02  0.17653018953E-01  0.14092737645E-01  0.10201922552E+01  0.10199160539E+01 0.  0.
     999903    2    3    3    0    0  0.98952966476E-01 -0.69388148566E-01 -0.42152084509E-01  0.12938337491E+00  0.18890599230E-01 0.  0.
         14    1    1    2    0    0 -0.72969990367E-02 -0.17653018953E-01 -0.14092737645E-01  0.23737744784E-01  0.00000000000E+00 0.  1.
     999901    1    3    3    0    0 -0.91655967440E-01  0.87041167518E-01  0.56244822154E-01  0.89080888030E+00  0.88000000000E+00 0. -1.
        -11    1    4    4    0    0  0.39977199202E-01 -0.25193026725E-01 -0.71478187402E-02  0.47793487897E-01  0.51100000000E-03 0. -1.
         11    1    4    4    0    0  0.58975767274E-01 -0.44195121841E-01 -0.35004265768E-01  0.81589887015E-01  0.51100000000E-03 0.  1.
</event>
<event>
 8    1  0.5489035E+004  0.1043930E+01  0.7957747E-01            NaN
         13   -1    0    0    0    0  0.00000000000E+00  0.00000000000E+00  0.74505805969E-08  0.10566000000E+00  0.10566000000E+00 0. -1.
     999900   -1    0    0    0    0 -0.00000000000E+00 -0.00000000000E+00 -0.74505805969E-08  0.93827000000E+00  0.93827000000E+00 0. -1.
     999902    2    1    2    0    0 -0.13381551819E-01  0.12366698856E-01  0.15234033189E-01  0.10201796961E+01  0.10199031990E+01 0.  0.
     999903    2    3    3    0    0 -0.11880894246E+00  0.11127411495E-02 -0.51988067601E-01  0.13127002850E+00  0.20304142613E-01 0.  0.
         14    1    1    2    0    0  0.13381551819E-01 -0.12366698856E-01 -0.15234033189E-01  0.23750303932E-01  0.00000000000E+00 0. -1.
     999901    1    3    3    0    0  0.10542739064E+00  0.11253957707E-01  0.67222100790E-01  0.88890966757E+00  0.88000000000E+00 0.  1.
        -11    1    4    4    0    0 -0.26711145142E-01  0.80580879477E-02 -0.84081063102E-02  0.29144046200E-01  0.51100000000E-03 0.  1.
         11    1    4    4    0    0 -0.92097797320E-01 -0.69453467982E-02 -0.43579961291E-01  0.10212598230E+00  0.51100000000E-03 0. -1.
</event>
<event>
 8    1  0.5489035E+004  0.1043930E+01  0.7957747E-01            NaN
         13   -1    0    0    0    0  0.00000000000E+00  0.00000000000E+00  0.74505805969E-08  0.10566000000E+00  0.10566000000E+00 0.  1.
     999900   -1    0    0    0    0 -0.00000000000E+00 -0.00000000000E+00 -0.74505805969E-08  0.93827000000E+00  0.93827000000E+00 0. -1.
     999902    2    1    2    0    0  0.69224001484E-02  0.18569462057E-01 -0.29267526923E-01  0.10085840996E+01  0.10079645595E+01 0.  0.
     999903    2    3    3    0    0 -0.21467466888E-01 -0.32099997761E-01  0.10775505677E+00  0.11608840370E+00  0.19341748204E-01 0.  0.
         14    1    1    2    0    0 -0.69224001484E-02 -0.18569462057E-01  0.29267526923E-01  0.35345900429E-01  0.00000000000E+00 0.  1.
     999901    1    3    3    0    0  0.28389867037E-01  0.50669459818E-01 -0.13702258369E+00  0.89249569587E+00  0.88000000000E+00 0. -1.
        -11    1    4    4    0    0 -0.39360895668E-02 -0.22304201247E-01  0.48737135631E-01  0.53745136569E-01  0.51100000000E-03 0.  1.
         11    1    4    4    0    0 -0.17531377322E-01 -0.97957965140E-02  0.59017921137E-01  0.62343267130E-01  0.51100000000E-03 0. -1.
</event>
<event>
 8    1  0.5489035E+004  0.1043930E+01  0.7957747E-01            NaN
         13   -1    0    0    0    0  0.00000000000E+00  0.00000000000E+00  0.74505805969E-08  0.10566000000E+00  0.10566000000E+00 0.  1.
     999900   -1    0    0    0    0 -0.00000000000E+00 -0.00000000000E+00 -0.74505805969E-08  0.93827000000E+00  0.93827000000E+00 0. -1.
     999902    2    1    2    0    0  0.71373144438E-02  0.27878947041E-01  0.10848523769E-01  0.10131750425E+01  0.10127081511E+01 0.  0.
     999903    2    3    3    0    0 -0.18403130576E-01 -0.42838399136E-01  0.11337926962E+00  0.12403736401E+00  0.18883994200E-01 0.  0.
         14    1    1    2    0    0 -0.71373144438E-02 -0.27878947041E-01 -0.10848523769E-01  0.30754957544E-01  0.00000000000E+00 0. -1.
     999901    1    3    3    0    0  0.25540445020E-01  0.70717346177E-01 -0.10253074585E+00  0.88913767844E+00  0.88000000000E+00 0. -1.
        -11    1    4    4    0    0 -0.20663837518E-01 -0.28002126838E-01  0.86652299095E-01  0.93380915330E-01  0.51100000000E-03 0. -1.
         11    1    4    4    0    0  0.22607069421E-02 -0.14836272298E-01  0.26726970522E-01  0.30656448683E-01  0.51100000000E-03 0.  1.
</event>
<event>
 8    1  0.5489035E+004  0.1043930E+01  0.7957747E-01            NaN
         13   -1    0    0    0    0  0.00000000000E+00  0.00000000000E+00  0.74505805969E-08  0.10566000000E+00  0.10566000000E+00 0.  1.
     999900   -1    0    0    0    0 -0.00000000000E+00 -0.00000000000E+00 -0.74505805969E-08  0.93827000000E+00  0.93827000000E+00 0.  1.
     999902    2    1    2    0    0 -0.20156122177E-01 -0.12213125531E-01 -0.15467488294E-02  0.10203117416E+01  0.10200383463E+01 0.  0.
     999903    2    3    3    0    0  0.86815470768E-01 -0.61206516437E-01  0.71263135831E-01  0.12950056447E+00  0.20218754923E-01 0.  0.
         14    1    1    2    0    0  0.20156122177E-01  0.12213125531E-01  0.15467488294E-02  0.23618258369E-01  0.00000000000E+00 0.  1.
     999901    1    3    3    0    0 -0.10697159294E+00  0.48993390906E-01 -0.72809884661E-01  0.89081117716E+00  0.88000000000E+00 0.  1.
        -11    1    4    4    0    0  0.41969986242E-01 -0.18529382406E-01  0.25297671959E-01  0.52393235108E-01  0.51100000000E-03 0.  1.
         11    1    4    4    0    0  0.44845484526E-01 -0.42677134031E-01  0.45965463872E-01  0.77107329363E-01  0.51100000000E-03 0. -1.
</event>
<event>
 8    1  0.5489035E+004  0.1043930E+01  0.7957747E-01            NaN
         13   -1    0    0    0    0  0.00000000000E+00  0.00000000000E+00  0.74505805969E-08  0.10566000000E+00  0.10566000000E+00 0. -1.
     999900   -1    0    0    0    0 -0.00000000000E+00 -0.00000000000E+00 -0.74505805969E-08  0.93827000000E+00  0.93827000000E+00 0.  1.
     999902    2    1    2    0    0  0.23534615153E-01 -0.84876252393E-02  0.23238032364E-01  0.10097843701E+01  0.10092068916E+01 0.  0.
     999903    2    3    3    0    0  0.52582165224E-01 -0.71572066733E-01  0.85450043196E-01  0.12485853072E+00  0.20012445507E-01 0.  0.
         14    1    1    2    0    0 -0.23534615153E-01  0.84876252393E-02 -0.23238032364E-01  0.34145629893E-01  0.00000000000E+00 0.  1.
     999901    1    3    3    0    0 -0.29047550071E-01  0.63084441494E-01 -0.62212010832E-01  0.88492583939E+00  0.88000000000E+00 0.  1.
        -11    1    4    4    0    0  0.98669615965E-02 -0.28863506663E-01  0.25629313992E-01  0.39844470191E-01  0.51100000000E-03 0. -1.
         11    1    4    4    0    0  0.42715203628E-01 -0.42708560070E-01  0.59820729204E-01  0.85014060529E-01  0.51100000000E-03 0.  1.
</event>
<event>
 8    1  0.5489035E+004  0.1043930E+01  0.7957747E-01            NaN
         13   -1    0    0    0    0  0.00000000000E+00  0.00000000000E+00  0.74505805969E-08  0.10566000000E+00  0.10566000000E+00 0.  1.
     999900   -1    0    0    0    0 -0.00000000000E+00 -0.00000000000E+00 -0.74505805969E-08  0.93827000000E+00  0.93827000000E+00 0.  1.
     999902    2    1    2    0    0 -0.81556819790E-02 -0.16236579981E-01 -0.31750813968E-02  0.10254848700E+01  0.10253189727E+01 0.  0.
     999903    2    3    3    0    0  0.59276598428E-01  0.65660569452E-01  0.97705461447E-01  0.13339118691E+00  0.20538404183E-01 0.  0.
         14    1    1    2    0    0  0.81556819790E-02  0.16236579981E-01  0.31750813968E-02  0.18445129978E-01  0.00000000000E+00 0.  1.
     999901    1    3    3    0    0 -0.67432280407E-01 -0.81897149433E-01 -0.10088054284E+00  0.89209368311E+00  0.88000000000E+00 0.  1.
        -11    1    4    4    0    0  0.40785565144E-01  0.49674547780E-01  0.57003748552E-01  0.85911067338E-01  0.51100000000E-03 0. -1.
         11    1    4    4    0    0  0.18491033284E-01  0.15986021672E-01  0.40701712895E-01  0.47480119571E-01  0.51100000000E-03 0.  1.
</event>
<event>
 8    1  0.5489035E+004  0.1043930E+01  0.7957747E-01            NaN
         13   -1    0    0    0    0  0.00000000000E+00  0.00000000000E+00  0.74505805969E-08  0.10566000000E+00  0.10566000000E+00 0.  1.
     999900   -1    0    0    0    0 -0.00000000000E+00 -0.00000000000E+00 -0.74505805969E-08  0.93827000000E+00  0.93827000000E+00 0. -1.
     999902    2    1    2    0    0  0.72799346572E-02 -0.69507884391E-02  0.21466908194E-01  0.10202205281E+01  0.10199449921E+01 0.  0.
     999903    2    3    3    0    0  0.44521931198E-01 -0.73449254760E-01  0.99963283210E-01  0.13344508124E+00  0.20926928463E-01 0.  0.
         14    1    1    2    0    0 -0.72799346572E-02  0.69507884391E-02 -0.21466908194E-01  0.23709471862E-01  0.00000000000E+00 0. -1.
     999901    1    3    3    0    0 -0.37241996541E-01  0.66498466321E-01 -0.78496375016E-01  0.88677544690E+00  0.88000000000E+00 0. -1.
        -11    1    4    4    0    0  0.28433010447E-01 -0.35465960696E-01  0.65281831533E-01  0.79550292899E-01  0.51100000000E-03 0.  1.
         11    1    4    4    0    0  0.16088920751E-01 -0.37983294065E-01  0.34681451677E-01  0.53894788342E-01  0.51100000000E-03 0. -1.
</event>
<event>
 8    1  0.5489035E+004  0.1043930E+01  0.7957747E-01            NaN
         13   -1    0    0    0    0  0.00000000000E+00  0.00000000000E+00  0.74505805969E-08  0.10566000000E+00  0.10566000000E+00 0.  1.
     999900   -1    0    0    0    0 -0.00000000000E+00 -0.00000000000E+00 -0.74505805969E-08  0.93827000000E+00  0.93827000000E+00 0.  1.
     999902    2    1    2    0    0  0.18179551969E-01 -0.63584944683E-02 -0.14070216440E-01  0.10200784266E+01  0.10197995386E+01 0.  0.
     999903    2    3    3    0    0  0.58537042030E-01 -0.57520065629E-01 -0.10293119362E+00  0.13320610964E+00  0.20344379744E-01 0.  0.
         14    1    1    2    0    0 -0.18179551969E-01  0.63584944683E-02  0.14070216440E-01  0.23851573373E-01  0.00000000000E+00 0. -1.
     999901    1    3    3    0    0 -0.40357490060E-01  0.51161571161E-01  0.88860977177E-01  0.88687231698E+00  0.88000000000E+00 0. -1.
        -11    1    4    4    0    0  0.25128831451E-01 -0.32795686900E-01 -0.38156321553E-01  0.56242166074E-01  0.51100000000E-03 0.  1.
         11    1    4    4    0    0  0.33408210579E-01 -0.24724378729E-01 -0.64774872064E-01  0.76963943568E-01  0.51100000000E-03 0. -1.
</event>
<event>
 8    1  0.5489035E+004  0.1043930E+01  0.7957747E-01            NaN
         13   -1    0    0    0    0  0.00000000000E+00  0.00000000000E+00  0.74505805969E-08  0.10566000000E+00  0.10566000000E+00 0.  1.
     999900   -1    0    0    0    0 -0.00000000000E+00 -0.00000000000E+00 -0.74505805969E-08  0.93827000000E+00  0.93827000000E+00 0. -1.
     999902    2    1    2    0    0 -0.14427272669E-01 -0.14500415002E-01  0.12924942450E-01  0.10197336703E+01  0.10194465636E+01 0.  0.
     999903    2    3    3    0    0 -0.14028967584E-01 -0.12280850619E+00 -0.40009298105E-01  0.13151475864E+00  0.20411925030E-01 0.  0.
         14    1    1    2    0    0  0.14427272669E-01  0.14500415002E-01 -0.12924942450E-01  0.24196329664E-01  0.00000000000E+00 0. -1.
     999901    1    3    3    0    0 -0.39830508473E-03  0.10830809118E+00  0.52934240555E-01  0.88821891169E+00  0.88000000000E+00 0.  1.
        -11    1    4    4    0    0 -0.18860151179E-01 -0.80266265323E-01 -0.25600493672E-01  0.86336695840E-01  0.51100000000E-03 0. -1.
         11    1    4    4    0    0  0.48311835945E-02 -0.42542240863E-01 -0.14408804433E-01  0.45178062804E-01  0.51100000000E-03 0.  1.
</event>
<event>
 8    1  0.5489035E+004  0.1043930E+01  0.7957747E-01            NaN
         13   -1    0    0    0    0  0.00000000000E+00  0.00000000000E+00  0.74505805969E-08  0.10566000000E+00  0.10566000000E+00 0.  1.
     999900   -1    0    0    0    0 -0.00000000000E+00 -0.00000000000E+00 -0.74505805969E-08  0.93827000000E+00  0.93827000000E+00 0.  1.
     999902    2    1    2    0    0  0.19582445053E-01  0.11499009183E-01 -0.64398780395E-02  0.10203255217E+01  0.10200524491E+01 0.  0.
     999903    2    3    3    0    0 -0.73621452864E-01  0.60059848799E-03  0.10330943656E+00  0.12855724799E+00  0.20824199582E-01 0.  0.
         14    1    1    2    0    0 -0.19582445053E-01 -0.11499009183E-01  0.64398780395E-02  0.23604478296E-01  0.00000000000E+00 0.  1.
     999901    1    3    3    0    0  0.93203897917E-01  0.10898410695E-01 -0.10974931460E+00  0.89176827371E+00  0.88000000000E+00 0.  1.
        -11    1    4    4    0    0 -0.15397022811E-02  0.31854249080E-02  0.17242768277E-02  0.39688621212E-02  0.51100000000E-03 0. -1.
         11    1    4    4    0    0 -0.72081750583E-01 -0.25848264200E-02  0.10158515973E+00  0.12458838587E+00  0.51100000000E-03 0.  1.
</event>
<event>
 8    1  0.5489035E+004  0.1043930E+01  0.7957747E-01            NaN
         13   -1    0    0    0    0  0.00000000000E+00  0.00000000000E+00  0.74505805969E-08  0.10566000000E+00  0.10566000000E+00 0.  1.
     999900   -1    0    0    0    0 -0.00000000000E+00 -0.00000000000E+00 -0.74505805969E-08  0.93827000000E+00  0.93827000000E+00 0.  1.
     999902    2    1    2    0    0 -0.13356956662E-02  0.16168029480E-01 -0.13788226576E-01  0.10226390523E+01  0.10224173937E+01 0.  0.
     999903    2    3    3    0    0 -0.51830747299E-01 -0.10074789217E+00  0.61286487612E-01  0.13030767012E+00  0.19684795845E-01 0.  0.
         14    1    1    2    0    0  0.13356956662E-02 -0.16168029480E-01  0.13788226576E-01  0.21290947661E-01  0.00000000000E+00 0.  1.
     999901    1    3    3    0    0  0.50495051633E-01  0.11691592165E+00 -0.75074714188E-01  0.89233138221E+00  0.88000000000E+00 0. -1.
        -11    1    4    4    0    0 -0.33369454069E-01 -0.55925180856E-01  0.45023932059E-01  0.79174250218E-01  0.51100000000E-03 0. -1.
         11    1    4    4    0    0 -0.18461293230E-01 -0.44822711313E-01  0.16262555553E-01  0.51133419906E-01  0.51100000000E-03 0.  1.
</event>
<event>
 8    1  0.5489035E+004  0.1043930E+01  0.7957747E-01            NaN
         13   -1    0    0    0    0  0.00000000000E+00  0.00000000000E+00  0.74505805969E-08  0.10566000000E+00  0.10566000000E+00 0. -1.
     999900   -1    0    0    0    0 -0.00000000000E+00 -0.00000000000E+00 -0.74505805969E-08  0.93827000000E+00  0.93827000000E+00 0. -1.
     999902    2    1    2    0    0 -0.15089746880E-01  0.10844831736E-01  0.14648472649E-01  0.10202680350E+01  0.10199936150E+01 0.  0.
     999903    2    3    3    0    0  0.12582634672E+00 -0.70714938666E-02  0.17944869150E-01  0.12887070139E+00  0.20083918766E-01 0.  0.
         14    1    1    2    0    0  0.15089746880E-01 -0.10844831736E-01 -0.14648472649E-01  0.23661964991E-01  0.00000000000E+00 0.  1.
     999901    1    3    3    0    0 -0.14091609360E+00  0.17916325602E-01 -0.32963965017E-02  0.89139733362E+00  0.88000000000E+00 0. -1.
        -11    1    4    4    0    0  0.49242516735E-01  0.13593367323E-02 -0.19254284313E-02  0.49301537972E-01  0.51100000000E-03 0. -1.
         11    1    4    4    0    0  0.76583829984E-01 -0.84308305989E-02  0.19870297582E-01  0.79569163416E-01  0.51100000000E-03 0.  1.
</event>
<event>
 8    1  0.5489035E+004  0.1043930E+01  0.7957747E-01            NaN
         13   -1    0    0    0    0  0.00000000000E+00  0.00000000000E+00  0.74505805969E-08  0.10566000000E+00  0.10566000000E+00 0. -1.
     999900   -1    0    0    0    0 -0.00000000000E+00 -0.00000000000E+00 -0.74505805969E-08  0.93827000000E+00  0.93827000000E+00 0.  1.
     999902    2    1    2    0    0 -0.11688249508E-01  0.29387395042E-02 -0.20895924545E-01  0.10198075824E+01  0.10195222480E+01 0.  0.
     999903    2    3    3    0    0 -0.10971950833E+00 -0.64468455919E-01  0.21897095126E-01  0.13077153129E+00  0.20667808417E-01 0.  0.
         14    1    1    2    0    0  0.11688249508E-01 -0.29387395042E-02  0.20895924545E-01  0.24122417562E-01  0.00000000000E+00 0. -1.
     999901    1    3    3    0    0  0.98031258825E-01  0.67407195423E-01 -0.42793019671E-01  0.88903605114E+00  0.88000000000E+00 0. -1.
        -11    1    4    4    0    0 -0.25914118770E-01 -0.14168139464E-01  0.14061212439E-01  0.32714775619E-01  0.51100000000E-03 0. -1.
         11    1    4    4    0    0 -0.83805389562E-01 -0.50300316455E-01  0.78358826867E-02  0.98056755675E-01  0.51100000000E-03 0.  1.
</event>
<event>
 8    1  0.5489035E+004  0.1043930E+01  0.7957747E-01            NaN
         13   -1    0    0    0    0  0.00000000000E+00  0.00000000000E+00  0.74505805969E-08  0.10566000000E+00  0.10566000000E+00 0. -1.
     999900   -1    0    0    0    0 -0.00000000000E+00 -0.00000000000E+00 -0.74505805969E-08  0.93827000000E+00  0.93827000000E+00 0.  1.
     999902    2    1    2    0    0 -0.10701020503E-01 -0.21071643114E-01  0.11695009676E-02  0.10202679266E+01  0.10199935041E+01 0.  0.
     999903    2    3    3    0    0 -0.10569546202E+00  0.47777858723E-01 -0.56750968433E-01  0.13059440303E+00  0.19492850218E-01 0.  0.
         14    1    1    2    0    0  0.10701020503E-01  0.21071643114E-01 -0.11695009676E-02  0.23662073364E-01  0.00000000000E+00 0.  1.
     999901    1    3    3    0    0  0.94994441519E-01 -0.68849501837E-01  0.57920469401E-01  0.88967352360E+00  0.88000000000E+00 0.  1.
        -11    1    4    4    0    0 -0.94736008474E-01  0.36160994959E-01 -0.46100459042E-01  0.11139139241E+00  0.51100000000E-03 0.  1.
         11    1    4    4    0    0 -0.10959453549E-01  0.11616863764E-01 -0.10650509391E-01  0.19203010625E-01  0.51100000000E-03 0. -1.
</event>
<event>
 8    1  0.5489035E+004  0.1043930E+01  0.7957747E-01            NaN
         13   -1    0    0    0    0  0.00000000000E+00  0.00000000000E+00  0.74505805969E-08  0.10566000000E+00  0.10566000000E+00 0. -1.
     999900   -1    0    0    0    0 -0.00000000000E+00 -0.00000000000E+00 -0.74505805969E-08  0.93827000000E+00  0.93827000000E+00 0. -1.
     999902    2    1    2    0    0  0.23417167383E-01  0.12014554043E-02 -0.51072741465E-02  0.10199322611E+01  0.10196499035E+01 0.  0.
     999903    2    3    3    0    0 -0.33804910856E-01 -0.10971139998E+00  0.55640363291E-01  0.12905275006E+00  0.19478166957E-01 0.  0.
         14    1    1    2    0    0 -0.23417167383E-01 -0.12014554043E-02  0.51072741465E-02  0.23997738905E-01  0.00000000000E+00 0. -1.
     999901    1    3    3    0    0  0.57222078239E-01  0.11091285538E+00 -0.60747637437E-01  0.89087951103E+00  0.88000000000E+00 0. -1.
        -11    1    4    4    0    0 -0.24989906778E-01 -0.62231327860E-01  0.40934416842E-01  0.78569212871E-01  0.51100000000E-03 0. -1.
         11    1    4    4    0    0 -0.88150040772E-02 -0.47480072118E-01  0.14705946449E-01  0.50483537190E-01  0.51100000000E-03 0.  1.
</event>
<event>
 8    1  0.5489035E+004  0.1043930E+01  0.7957747E-01            NaN
         13   -1    0    0    0    0  0.00000000000E+00  0.00000000000E+00  0.74505805969E-08  0.10566000000E+00  0.10566000000E+00 0.  1.
     999900   -1    0    0    0    0 -0.00000000000E+00 -0.00000000000E+00 -0.74505805969E-08  0.93827000000E+00  0.93827000000E+00 0.  1.
     999902    2    1    2    0    0 -0.76954866994E-03 -0.26232340371E-02  0.23376549337E-01  0.10203941418E+01  0.10201226730E+01 0.  0.
     999903    2    3    3    0    0  0.22969067038E-01 -0.44750859967E-01  0.12208610000E+00  0.13355603136E+00  0.20049443708E-01 0.  0.
         14    1    1    2    0    0  0.76954866994E-03  0.26232340371E-02 -0.23376549337E-01  0.23535858193E-01  0.00000000000E+00 0. -1.
     999901    1    3    3    0    0 -0.23738615708E-01  0.42127625930E-01 -0.98709550659E-01  0.88683811044E+00  0.88000000000E+00 0.  1.
        -11    1    4    4    0    0  0.28771607697E-02 -0.27455283078E-01  0.60301128832E-01  0.66321624546E-01  0.51100000000E-03 0. -1.
         11    1    4    4    0    0  0.20091906268E-01 -0.17295576889E-01  0.61784971164E-01  0.67234406818E-01  0.51100000000E-03 0.  1.
</event>
<event>
 8    1  0.5489035E+004  0.1043930E+01  0.7957747E-01            NaN
         13   -1    0    0    0    0  0.00000000000E+00  0.00000000000E+00  0.74505805969E-08  0.10566000000E+00  0.10566000000E+00 0.  1.
     999900   -1    0    0    0    0 -0.00000000000E+00 -0.00000000000E+00 -0.74505805969E-08  0.93827000000E+00  0.93827000000E+00 0. -1.
     999902    2    1    2    0    0 -0.59967996060E-02 -0.15659007645E-01 -0.16479160539E-01  0.10204198137E+01  0.10201489437E+01 0.  0.
     999903    2    3    3    0    0  0.36751352904E-01  0.60808173448E-01  0.10470134556E+00  0.12780603982E+00  0.17992113676E-01 0.  0.
         14    1    1    2    0    0  0.59967996060E-02  0.15659007645E-01  0.16479160539E-01  0.23510186261E-01  0.00000000000E+00 0. -1.
     999901    1    3    3    0    0 -0.42748152511E-01 -0.76467181093E-01 -0.12118050610E+00  0.89261377392E+00  0.88000000000E+00 0. -1.
        -11    1    4    4    0    0  0.15121475249E-01  0.25313128236E-01  0.59430453343E-01  0.66344957460E-01  0.51100000000E-03 0.  1.
         11    1    4    4    0    0  0.21629877656E-01  0.35495045213E-01  0.45270892217E-01  0.61461082363E-01  0.51100000000E-03 0. -1.
</event>
<event>
 8    1  0.5489035E+004  0.1043930E+01  0.7957747E-01            NaN
         13   -1    0    0    0    0  0.00000000000E+00  0.00000000000E+00  0.74505805969E-08  0.10566000000E+00  0.10566000000E+00 0. -1.
     999900   -1    0    0    0    0 -0.00000000000E+00 -0.00000000000E+00 -0.74505805969E-08  0.93827000000E+00  0.93827000000E+00 0. -1.
     999902    2    1    2    0    0 -0.22262678131E-01 -0.10305863484E-01  0.74412159130E-02  0.10182939053E+01  0.10179711529E+01 0.  0.
     999903    2    3    3    0    0 -0.93780444886E-01 -0.81756202247E-01 -0.37354816081E-01  0.13137416460E+00  0.19619897845E-01 0.  0.
         14    1    1    2    0    0  0.22262678131E-01  0.10305863484E-01 -0.74412159130E-02  0.25636094749E-01  0.00000000000E+00 0.  1.
     999901    1    3    3    0    0  0.71517766755E-01  0.71450338763E-01  0.44796031994E-01  0.88691974065E+00  0.88000000000E+00 0. -1.
        -11    1    4    4    0    0 -0.67714429690E-01 -0.62773894885E-01 -0.35968622779E-01  0.99094948473E-01  0.51100000000E-03 0. -1.
         11    1    4    4    0    0 -0.26066015197E-01 -0.18982307362E-01 -0.13861933014E-02  0.32279216128E-01  0.51100000000E-03 0.  1.
</event>
<event>
 8    1  0.5489035E+004  0.1043930E+01  0.7957747E-01            NaN
         13   -1    0    0    0    0  0.00000000000E+00  0.00000000000E+00  0.74505805969E-08  0.10566000000E+00  0.10566000000E+00 0. -1.
     999900   -1    0    0    0    0 -0.00000000000E+00 -0.00000000000E+00 -0.74505805969E-08  0.93827000000E+00  0.93827000000E+00 0.  1.
     999902    2    1    2    0    0 -0.73719390248E-02 -0.39422196934E-02  0.21107059543E-01  0.10212276974E+01  0.10209753255E+01 0.  0.
     999903    2    3    3    0    0  0.12230506461E+00  0.35379535901E-01 -0.16274192847E-01  0.13007132292E+00  0.21058473427E-01 0.  0.
         14    1    1    2    0    0  0.73719390248E-02  0.39422196934E-02 -0.21107059543E-01  0.22702302607E-01  0.00000000000E+00 0.  1.
     999901    1    3    3    0    0 -0.12967700364E+00 -0.39321755594E-01  0.37381252390E-01  0.89115637447E+00  0.88000000000E+00 0. -1.
        -11    1    4    4    0    0  0.76476350180E-01  0.32568355445E-01 -0.11157348232E-01  0.83869407138E-01  0.51100000000E-03 0. -1.
         11    1    4    4    0    0  0.45828714432E-01  0.28111804555E-02 -0.51168446156E-02  0.46201915781E-01  0.51100000000E-03 0.  1.
</event>
<event>
 8    1  0.5489035E+004  0.1043930E+01  0.7957747E-01            NaN
         13   -1    0    0    0    0  0.00000000000E+00  0.00000000000E+00  0.74505805969E-08  0.10566000000E+00  0.10566000000E+00 0.  1.
     999900   -1    0    0    0    0 -0.00000000000E+00 -0.00000000000E+00 -0.74505805969E-08  0.93827000000E+00  0.93827000000E+00 0. -1.
     999902    2    1    2    0    0 -0.14826106645E-01  0.18604140096E-01  0.13939396264E-02  0.10200999657E+01  0.10198215871E+01 0.  0.
     999903    2    3    3    0    0 -0.25988159243E-02  0.21671208199E-01 -0.12726866784E+00  0.13065464411E+00  0.19923029510E-01 0.  0.
         14    1    1    2    0    0  0.14826106645E-01 -0.18604140096E-01 -0.13939396264E-02  0.23830034298E-01  0.00000000000E+00 0. -1.
     999901    1    3    3    0    0 -0.12227290721E-01 -0.30670681039E-02  0.12866260746E+00  0.88944532159E+00  0.88000000000E+00 0.  1.
        -11    1    4    4    0    0 -0.55714262477E-02  0.24344797844E-01 -0.99131525531E-01  0.10223028146E+00  0.51100000000E-03 0. -1.
         11    1    4    4    0    0  0.29726103235E-02 -0.26735896444E-02 -0.28137142307E-01  0.28424362648E-01  0.51100000000E-03 0.  1.
</event>
<event>
 8    1  0.5489035E+004  0.1043930E+01  0.7957747E-01            NaN
         13   -1    0    0    0    0  0.00000000000E+00  0.00000000000E+00  0.74505805969E-08  0.10566000000E+00  0.10566000000E+00 0. -1.
     999900   -1    0    0    0    0 -0.00000000000E+00 -0.00000000000E+00 -0.74505805969E-08  0.93827000000E+00  0.93827000000E+00 0. -1.
     999902    2    1    2    0    0  0.68326612931E-02 -0.76755805215E-03  0.22987744086E-01  0.10199360261E+01  0.10196537582E+01 0.  0.
     999903    2    3    3    0    0 -0.16092113146E-01  0.84554128190E-01 -0.92681709166E-01  0.12798044545E+00  0.19512521719E-01 0.  0.
         14    1    1    2    0    0 -0.68326612931E-02  0.76755805215E-03 -0.22987744086E-01  0.23993973908E-01  0.00000000000E+00 0.  1.
     999901    1    3    3    0    0  0.22924774439E-01 -0.85321686243E-01  0.11566945325E+00  0.89195558064E+00  0.88000000000E+00 0.  1.
        -11    1    4    4    0    0 -0.12699367960E-01  0.30438590257E-01 -0.44855947227E-01  0.55678531285E-01  0.51100000000E-03 0.  1.
         11    1    4    4    0    0 -0.33927451860E-02  0.54115537934E-01 -0.47825761938E-01  0.72301914164E-01  0.51100000000E-03 0. -1.
</event>
<event>
 8    1  0.5489035E+004  0.1043930E+01  0.7957747E-01            NaN
         13   -1    0    0    0    0  0.00000000000E+00  0.00000000000E+00  0.74505805969E-08  0.10566000000E+00  0.10566000000E+00 0. -1.
     999900   -1    0    0    0    0 -0.00000000000E+00 -0.00000000000E+00 -0.74505805969E-08  0.93827000000E+00  0.93827000000E+00 0. -1.
     999902    2    1    2    0    0 -0.15970313808E-01 -0.74048056826E-02  0.20407110860E-01  0.10169794482E+01  0.10166222827E+01 0.  0.
     999903    2    3    3    0    0 -0.27863985302E-01  0.84575775973E-01 -0.86339040890E-01  0.12569014175E+00  0.20349894176E-01 0.  0.
         14    1    1    2    0    0  0.15970313808E-01  0.74048056826E-02 -0.20407110860E-01  0.26950551831E-01  0.00000000000E+00 0.  1.
     999901    1    3    3    0    0  0.11893671494E-01 -0.91980581656E-01  0.10674615175E+00  0.89128930642E+00  0.88000000000E+00 0.  1.
        -11    1    4    4    0    0 -0.13223812638E-01  0.15105722682E-01 -0.15220998986E-01  0.25199047791E-01  0.51100000000E-03 0. -1.
         11    1    4    4    0    0 -0.14640172665E-01  0.69470053291E-01 -0.71118041903E-01  0.10049109396E+00  0.51100000000E-03 0.  1.
</event>
<event>
 8    1  0.5489035E+004  0.1043930E+01  0.7957747E-01            NaN
         13   -1    0    0    0    0  0.00000000000E+00  0.00000000000E+00  0.74505805969E-08  0.10566000000E+00  0.10566000000E+00 0.  1.
     999900   -1    0    0    0    0 -0.00000000000E+00 -0.00000000000E+00 -0.74505805969E-08  0.93827000000E+00  0.93827000000E+00 0. -1.
     999902    2    1    2    0    0  0.11375374010E-01  0.98830932444E-02 -0.18753462512E-01  0.10198724228E+01  0.10195886385E+01 0.  0.
     999903    2    3    3    0    0  0.10934419323E+00  0.58710323563E-01 -0.43147237987E-01  0.13275515643E+00  0.18952380495E-01 0.  0.
         14    1    1    2    0    0 -0.11375374010E-01 -0.98830932444E-02  0.18753462512E-01  0.24057577229E-01  0.00000000000E+00 0.  1.
     999901    1    3    3    0    0 -0.97968819220E-01 -0.48827230319E-01  0.24393775475E-01  0.88711726634E+00  0.88000000000E+00 0.  1.
        -11    1    4    4    0    0  0.31979897223E-01  0.25219590075E-01 -0.19739565389E-01  0.45262049365E-01  0.51100000000E-03 0.  1.
         11    1    4    4    0    0  0.77364296007E-01  0.33490733488E-01 -0.23407672598E-01  0.87493107064E-01  0.51100000000E-03 0. -1.
</event>
<event>
 8    1  0.5489035E+004  0.1043930E+01  0.7957747E-01            NaN
         13   -1    0    0    0    0  0.00000000000E+00  0.00000000000E+00  0.74505805969E-08  0.10566000000E+00  0.10566000000E+00 0. -1.
     999900   -1    0    0    0    0 -0.00000000000E+00 -0.00000000000E+00 -0.74505805969E-08  0.93827000000E+00  0.93827000000E+00 0. -1.
     999902    2    1    2    0    0 -0.44329500054E-02 -0.23679546351E-01  0.27895705896E-02  0.10196781204E+01  0.10193896780E+01 0.  0.
     999903    2    3    3    0    0 -0.50761407724E-01  0.70869577634E-02  0.11823571995E+00  0.13039710901E+00  0.19919213934E-01 0.  0.
         14    1    1    2    0    0  0.44329500054E-02  0.23679546351E-01 -0.27895705896E-02  0.24251879623E-01  0.00000000000E+00 0.  1.
     999901    1    3    3    0    0  0.46328457719E-01 -0.30766504115E-01 -0.11544614936E+00  0.88928101136E+00  0.88000000000E+00 0. -1.
        -11    1    4    4    0    0 -0.14065390010E-01  0.50625971870E-02  0.16728711333E-01  0.22440498886E-01  0.51100000000E-03 0. -1.
         11    1    4    4    0    0 -0.36696017715E-01  0.20243605764E-02  0.10150700861E+00  0.10795661013E+00  0.51100000000E-03 0.  1.
</event>
<event>
 8    1  0.5489035E+004  0.1043930E+01  0.7957747E-01            NaN
         13   -1    0    0    0    0  0.00000000000E+00  0.00000000000E+00  0.74505805969E-08  0.10566000000E+00  0.10566000000E+00 0.  1.
     999900   -1    0    0    0    0 -0.00000000000E+00 -0.00000000000E+00 -0.74505805969E-08  0.93827000000E+00  0.93827000000E+00 0.  1.
     999902    2    1    2    0    0 -0.37198063300E-02 -0.23184085432E-01  0.52941162143E-02  0.10198599679E+01  0.10195758862E+01 0.  0.
     999903    2    3    3    0    0  0.44129899796E-02 -0.12261303435E+00 -0.47094204887E-01  0.13267521016E+00  0.18204850619E-01 0.  0.
         14    1    1    2    0    0  0.37198063300E-02  0.23184085432E-01 -0.52941162143E-02  0.24070032051E-01  0.00000000000E+00 0. -1.
     999901    1    3    3    0    0 -0.81327963096E-02  0.99428948913E-01  0.52388321101E-01  0.88718475778E+00  0.88000000000E+00 0. -1.
        -11    1    4    4    0    0 -0.63018413665E-02 -0.72961819383E-01 -0.28307374167E-01  0.78515659875E-01  0.51100000000E-03 0. -1.
         11    1    4    4    0    0  0.10714831346E-01 -0.49651214962E-01 -0.18786830719E-01  0.54159550289E-01  0.51100000000E-03 0.  1.
</event>
<event>
 8    1  0.5489035E+004  0.1043930E+01  0.7957747E-01            NaN
         13   -1    0    0    0    0  0.00000000000E+00  0.00000000000E+00  0.74505805969E-08  0.10566000000E+00  0.10566000000E+00 0.  1.
     999900   -1    0    0    0    0 -0.00000000000E+00 -0.00000000000E+00 -0.74505805969E-08  0.93827000000E+00  0.93827000000E+00 0.  1.
     999902    2    1    2    0    0 -0.16109864313E-02 -0.87666367652E-02 -0.22239918845E-01  0.10199703842E+01  0.10196889337E+01 0.  0.
     999903    2    3    3    0    0  0.45471773120E-01  0.11096978123E+00  0.41534131475E-01  0.12833103700E+00  0.19020948555E-01 0.  0.
         14    1    1    2    0    0  0.16109864313E-02  0.87666367652E-02  0.22239918845E-01  0.23959615767E-01  0.00000000000E+00 0.  1.
     999901    1    3    3    0    0 -0.47082759551E-01 -0.11973641799E+00 -0.63774050320E-01  0.89163934723E+00  0.88000000000E+00 0.  1.
        -11    1    4    4    0    0  0.27588712473E-01  0.71284004486E-01  0.16798677108E-01  0.78262398539E-01  0.51100000000E-03 0.  1.
         11    1    4    4    0    0  0.17883060647E-01  0.39685776741E-01  0.24735454367E-01  0.50068638461E-01  0.51100000000E-03 0. -1.
</event>
<event>
 8    1  0.5489035E+004  0.1043930E+01  0.7957747E-01            NaN
         13   -1    0    0    0    0  0.00000000000E+00  0.00000000000E+00  0.74505805969E-08  0.10566000000E+00  0.10566000000E+00 0. -1.
     999900   -1    0    0    0    0 -0.00000000000E+00 -0.00000000000E+00 -0.74505805969E-08  0.93827000000E+00  0.93827000000E+00 0.  1.
     999902    2    1    2    0    0 -0.97570961357E-02  0.15874436005E-01  0.14750559894E-01  0.10201649488E+01  0.10198881042E+01 0.  0.
     999903    2    3    3    0    0  0.95912564926E-02 -0.83007805664E-03 -0.12633188743E+00  0.12856096913E+00  0.21805865551E-01 0.  0.
         14    1    1    2    0    0  0.97570961357E-02 -0.15874436005E-01 -0.14750559894E-01  0.23765051245E-01  0.00000000000E+00 0.  1.
     999901    1    3    3    0    0 -0.19348352628E-01  0.16704514062E-01  0.14108244732E+00  0.89160397962E+00  0.88000000000E+00 0. -1.
        -11    1    4    4    0    0  0.24025367815E-02  0.10063882566E-01 -0.44261246865E-01  0.45457375753E-01  0.51100000000E-03 0. -1.
         11    1    4    4    0    0  0.71887197111E-02 -0.10893960623E-01 -0.82070640562E-01  0.83103593378E-01  0.51100000000E-03 0.  1.
</event>
<event>
 8    1  0.5489035E+004  0.1043930E+01  0.7957747E-01            NaN
         13   -1    0    0    0    0  0.00000000000E+00  0.00000000000E+00  0.74505805969E-08  0.10566000000E+00  0.10566000000E+00 0. -1.
     999900   -1    0    0    0    0 -0.00000000000E+00 -0.00000000000E+00 -0.74505805969E-08  0.93827000000E+00  0.93827000000E+00 0. -1.
     999902    2    1    2    0    0  0.22862930941E-01  0.86553109849E-03  0.73057849206E-02  0.10199125637E+01  0.10196297368E+01 0.  0.
     999903    2    3    3    0    0  0.12122032665E+00 -0.48604017801E-01  0.15258742725E-01  0.13301648006E+00  0.20095686089E-01 0.  0.
         14    1    1    2    0    0 -0.22862930941E-01 -0.86553109849E-03 -0.73057849206E-02  0.24017436346E-01  0.00000000000E+00 0.  1.
     999901    1    3    3    0    0 -0.98357395704E-01  0.49469548900E-01 -0.79529578048E-02  0.88689608359E+00  0.88000000000E+00 0.  1.
        -11    1    4    4    0    0  0.33430289712E-01 -0.14162977972E-01  0.13365233618E-01  0.38691921714E-01  0.51100000000E-03 0. -1.
         11    1    4    4    0    0  0.87790036934E-01 -0.34441039830E-01  0.18935091075E-02  0.94324558346E-01  0.51100000000E-03 0.  1.
</event>
<event>
 8    1  0.5489035E+004  0.1043930E+01  0.7957747E-01            NaN
         13   -1    0    0    0    0  0.00000000000E+00  0.00000000000E+00  0.74505805969E-08  0.10566000000E+00  0.10566000000E+00 0.  1.
     999900   -1    0    0    0    0 -0.00000000000E+00 -0.00000000000E+00 -0.74505805969E-08  0.93827000000E+00  0.93827000000E+00 0.  1.
     999902    2    1    2    0    0 -0.97147641851E-03  0.21164670398E-01  0.11929248209E-01  0.10196155187E+01  0.10193255672E+01 0.  0.
     999903    2    3    3    0    0 -0.11536857708E+00  0.28709023591E-03 -0.55126100038E-01  0.12943632900E+00  0.20121763400E-01 0.  0.
         14    1    1    2    0    0  0.97147641851E-03 -0.21164670398E-01 -0.11929248209E-01  0.24314481329E-01  0.00000000000E+00 0.  1.
     999901    1    3    3    0    0  0.11439710066E+00  0.20877580162E-01  0.67055348247E-01  0.89017918967E+00  0.88000000000E+00 0.  1.
        -11    1    4    4    0    0 -0.17678622735E-01  0.64622750444E-02 -0.51027150883E-02  0.19508806289E-01  0.51100000000E-03 0. -1.
         11    1    4    4    0    0 -0.97689954342E-01 -0.61751848085E-02 -0.50023384949E-01  0.10992752271E+00  0.51100000000E-03 0.  1.
</event>
<event>
 8    1  0.5489035E+004  0.1043930E+01  0.7957747E-01            NaN
         13   -1    0    0    0    0  0.00000000000E+00  0.00000000000E+00  0.74505805969E-08  0.10566000000E+00  0.10566000000E+00 0. -1.
     999900   -1    0    0    0    0 -0.00000000000E+00 -0.00000000000E+00 -0.74505805969E-08  0.93827000000E+00  0.93827000000E+00 0. -1.
     999902    2    1    2    0    0 -0.46301298318E-02 -0.21144180996E-01  0.83011517196E-02  0.10207476012E+01  0.10204843173E+01 0.  0.
     999903    2    3    3    0    0 -0.48409171305E-01  0.89364855542E-01 -0.76484460471E-01  0.12871764005E+00  0.19718846172E-01 0.  0.
         14    1    1    2    0    0  0.46301298318E-02  0.21144180996E-01 -0.83011517196E-02  0.23182398757E-01  0.00000000000E+00 0.  1.
     999901    1    3    3    0    0  0.43779041474E-01 -0.11050903654E+00  0.84785612191E-01  0.89202996119E+00  0.88000000000E+00 0.  1.
        -11    1    4    4    0    0 -0.46212466367E-02  0.26202230019E-01 -0.21606732083E-01  0.34278634319E-01  0.51100000000E-03 0. -1.
         11    1    4    4    0    0 -0.43787924669E-01  0.63162625522E-01 -0.54877728388E-01  0.94439005733E-01  0.51100000000E-03 0.  1.
</event>
<event>
 8    1  0.5489035E+004  0.1043930E+01  0.7957747E-01            NaN
         13   -1    0    0    0    0  0.00000000000E+00  0.00000000000E+00  0.74505805969E-08  0.10566000000E+00  0.10566000000E+00 0. -1.
     999900   -1    0    0    0    0 -0.00000000000E+00 -0.00000000000E+00 -0.74505805969E-08  0.93827000000E+00  0.93827000000E+00 0. -1.
     999902    2    1    2    0    0  0.18765394972E-01 -0.43495166256E-02 -0.24008584103E-01  0.10131489920E+01  0.10126812971E+01 0.  0.
     999903    2    3    3    0    0  0.34518626836E-01  0.98564378824E-01  0.61416014312E-01  0.12290363469E+00  0.20661660959E-01 0.  0.
         14    1    1    2    0    0 -0.18765394972E-01  0.43495166256E-02  0.24008584103E-01  0.30781008008E-01  0.00000000000E+00 0. -1.
     999901    1    3    3    0    0 -0.15753231865E-01 -0.10291389545E+00 -0.85424598415E-01  0.89024535731E+00  0.88000000000E+00 0. -1.
        -11    1    4    4    0    0 -0.21330475638E-02  0.11857221689E-01  0.43410013004E-02  0.12815967048E-01  0.51100000000E-03 0. -1.
         11    1    4    4    0    0  0.36651674400E-01  0.86707157135E-01  0.57075013011E-01  0.11008766764E+00  0.51100000000E-03 0.  1.
</event>
<event>
 8    1  0.5489035E+004  0.1043930E+01  0.7957747E-01            NaN
         13   -1    0    0    0    0  0.00000000000E+00  0.00000000000E+00  0.74505805969E-08  0.10566000000E+00  0.10566000000E+00 0.  1.
     999900   -1    0    0    0    0 -0.00000000000E+00 -0.00000000000E+00 -0.74505805969E-08  0.93827000000E+00  0.93827000000E+00 0. -1.
     999902    2    1    2    0    0  0.23664001398E-01 -0.37482665753E-02 -0.28268370820E-03  0.10199693161E+01  0.10196878401E+01 0.  0.
     999903    2    3    3    0    0  0.45547177439E-01 -0.38678308468E-02  0.12111248844E+00  0.13136610005E+00  0.22345288092E-01 0.  0.
         14    1    1    2    0    0 -0.23664001398E-01  0.37482665753E-02  0.28268370820E-03  0.23960683933E-01  0.00000000000E+00 0. -1.
     999901    1    3    3    0    0 -0.21883176042E-01  0.11956427153E-03 -0.12139517214E+00  0.88860321601E+00  0.88000000000E+00 0. -1.
        -11    1    4    4    0    0  0.38604301715E-02 -0.48277817410E-02  0.36638710711E-01  0.37160014010E-01  0.51100000000E-03 0. -1.
         11    1    4    4    0    0  0.41686747268E-01  0.95995089418E-03  0.84473777725E-01  0.94206086044E-01  0.51100000000E-03 0.  1.
</event>
<event>
 8    1  0.5489035E+004  0.1043930E+01  0.7957747E-01            NaN
         13   -1    0    0    0    0  0.00000000000E+00  0.00000000000E+00  0.74505805969E-08  0.10566000000E+00  0.10566000000E+00 0.  1.
     999900   -1    0    0    0    0 -0.00000000000E+00 -0.00000000000E+00 -0.74505805969E-08  0.93827000000E+00  0.93827000000E+00 0.  1.
     999902    2    1    2    0    0  0.19837413006E-01  0.54253345346E-03 -0.14052773328E-01  0.10196133856E+01  0.10193233826E+01 0.  0.
     999903    2    3    3    0    0  0.11891187867E+00 -0.39161081065E-01 -0.39313006989E-01  0.13280438353E+00  0.20441785825E-01 0.  0.
         14    1    1    2    0    0 -0.19837413006E-01 -0.54253345346E-03  0.14052773328E-01  0.24316614393E-01  0.00000000000E+00 0. -1.
     999901    1    3    3    0    0 -0.99074465666E-01  0.39703614518E-01  0.25260233661E-01  0.88680900207E+00  0.88000000000E+00 0. -1.
        -11    1    4    4    0    0  0.68704700412E-01 -0.12768688461E-01 -0.17584716587E-01  0.72061492089E-01  0.51100000000E-03 0. -1.
         11    1    4    4    0    0  0.50207178261E-01 -0.26392392604E-01 -0.21728290402E-01  0.60742891445E-01  0.51100000000E-03 0.  1.
</event>
<event>
 8    1  0.5489035E+004  0.1043930E+01  0.7957747E-01            NaN
         13   -1    0    0    0    0  0.00000000000E+00  0.00000000000E+00  0.74505805969E-08  0.10566000000E+00  0.10566000000E+00 0.  1.
     999900   -1    0    0    0    0 -0.00000000000E+00 -0.00000000000E+00 -0.74505805969E-08  0.93827000000E+00  0.93827000000E+00 0.  1.
     999902    2    1    2    0    0 -0.19451522007E-02  0.22817415500E-01 -0.75562910670E-02  0.10198153654E+01  0.10195302173E+01 0.  0.
     999903    2    3    3    0    0 -0.73189174238E-01  0.49857335904E-01 -0.95888485018E-01  0.13211640491E+00  0.20438535113E-01 0.  0.
         14    1    1    2    0    0  0.19451522007E-02 -0.22817415500E-01  0.75562910670E-02  0.24114634600E-01  0.00000000000E+00 0.  1.
     999901    1    3    3    0    0  0.71244022038E-01 -0.27039920404E-01  0.88332193951E-01  0.88769896049E+00  0.88000000000E+00 0. -1.
        -11    1    4    4    0    0 -0.32042295912E-01  0.17926919508E-01 -0.53874207281E-01  0.65197963937E-01  0.51100000000E-03 0.  1.
         11    1    4    4    0    0 -0.41146878326E-01  0.31930416396E-01 -0.42014277737E-01  0.66918440971E-01  0.51100000000E-03 0. -1.
</event>
<event>
 8    1  0.5489035E+004  0.1043930E+01  0.7957747E-01            NaN
         13   -1    0    0    0    0  0.00000000000E+00  0.00000000000E+00  0.74505805969E-08  0.10566000000E+00  0.10566000000E+00 0.  1.
     999900   -1    0    0    0    0 -0.00000000000E+00 -0.00000000000E+00 -0.74505805969E-08  0.93827000000E+00  0.93827000000E+00 0.  1.
     999902    2    1    2    0    0  0.96637895734E-02  0.13587913193E-01 -0.16181097447E-01  0.10206953679E+01  0.10204308825E+01 0.  0.
     999903    2    3    3    0    0 -0.82558652106E-01  0.83026220334E-01  0.54468007891E-01  0.13034827080E+00  0.17737629941E-01 0.  0.
         14    1    1    2    0    0 -0.96637895734E-02 -0.13587913193E-01  0.16181097447E-01  0.23234632092E-01  0.00000000000E+00 0.  1.
     999901    1    3    3    0    0  0.92222441679E-01 -0.69438307142E-01 -0.70649105338E-01  0.89034709711E+00  0.88000000000E+00 0. -1.
        -11    1    4    4    0    0 -0.64115937499E-02  0.55190730576E-02  0.95662846102E-02  0.12780595607E-01  0.51100000000E-03 0.  1.
         11    1    4    4    0    0 -0.76147058356E-01  0.77507147277E-01  0.44901723280E-01  0.11756767519E+00  0.51100000000E-03 0. -1.
</event>
<event>
 8    1  0.5489035E+004  0.1043930E+01  0.7957747E-01            NaN
         13   -1    0    0    0    0  0.00000000000E+00  0.00000000000E+00  0.74505805969E-08  0.10566000000E+00  0.10566000000E+00 0. -1.
     999900   -1    0    0    0    0 -0.00000000000E+00 -0.00000000000E+00 -0.74505805969E-08  0.93827000000E+00  0.93827000000E+00 0. -1.
     999902    2    1    2    0    0  0.21005476349E-02  0.23274568244E-01 -0.28209663601E-02  0.10203911878E+01  0.10201196501E+01 0.  0.
     999903    2    3    3    0    0 -0.11268870509E+00 -0.18176384230E-01  0.58686413895E-01  0.12984196862E+00  0.19639664968E-01 0.  0.
         14    1    1    2    0    0 -0.21005476349E-02 -0.23274568244E-01  0.28209663601E-02  0.23538812173E-01  0.00000000000E+00 0. -1.
     999901    1    3    3    0    0  0.11478925273E+00  0.41450952474E-01 -0.61507380255E-01  0.89054921921E+00  0.88000000000E+00 0. -1.
        -11    1    4    4    0    0 -0.16076653072E-01 -0.39461362784E-02  0.13932597172E-02  0.16620260502E-01  0.51100000000E-03 0. -1.
         11    1    4    4    0    0 -0.96612052023E-01 -0.14230247952E-01  0.57293154178E-01  0.11322170812E+00  0.51100000000E-03 0.  1.
</event>
<event>
 8    1  0.5489035E+004  0.1043930E+01  0.7957747E-01            NaN
         13   -1    0    0    0    0  0.00000000000E+00  0.00000000000E+00  0.74505805969E-08  0.10566000000E+00  0.10566000000E+00 0.  1.
     999900   -1    0    0    0    0 -0.00000000000E+00 -0.00000000000E+00 -0.74505805969E-08  0.93827000000E+00  0.93827000000E+00 0. -1.
     999902    2    1    2    0    0  0.95500667655E-02 -0.63403524555E-02  0.13777450087E-01  0.10260073335E+01  0.10258507817E+01 0.  0.
     999903    2    3    3    0    0 -0.12774205813E+00  0.35988279225E-01 -0.24043610832E-03  0.13424652376E+00  0.20220822788E-01 0.  0.
         14    1    1    2    0    0 -0.95500667655E-02  0.63403524555E-02 -0.13777450087E-01  0.17922666525E-01  0.00000000000E+00 0. -1.
     999901    1    3    3    0    0  0.13729212489E+00 -0.42328631681E-01  0.14017886195E-01  0.89176080972E+00  0.88000000000E+00 0. -1.
        -11    1    4    4    0    0 -0.10129085081E+00  0.35127000773E-01 -0.51116473526E-02  0.10733188110E+00  0.51100000000E-03 0. -1.
         11    1    4    4    0    0 -0.26451207320E-01  0.86127845276E-03  0.48712112443E-02  0.26914642655E-01  0.51100000000E-03 0.  1.
</event>
<event>
 8    1  0.5489035E+004  0.1043930E+01  0.7957747E-01            NaN
         13   -1    0    0    0    0  0.00000000000E+00  0.00000000000E+00  0.74505805969E-08  0.10566000000E+00  0.10566000000E+00 0.  1.
     999900   -1    0    0    0    0 -0.00000000000E+00 -0.00000000000E+00 -0.74505805969E-08  0.93827000000E+00  0.93827000000E+00 0.  1.
     999902    2    1    2    0    0 -0.12213676902E-01 -0.20745461870E-01  0.97998052031E-03  0.10198362570E+01  0.10195516086E+01 0.  0.
     999903    2    3    3    0    0  0.27091683972E-01 -0.96760888842E-02 -0.12639736586E+00  0.12972815635E+00  0.50511798165E-02 0.  0.
         14    1    1    2    0    0  0.12213676902E-01  0.20745461870E-01 -0.97998052031E-03  0.24093743036E-01  0.00000000000E+00 0. -1.
     999901    1    3    3    0    0 -0.39305360874E-01 -0.11069372986E-01  0.12737734638E+00  0.89010810062E+00  0.88000000000E+00 0. -1.
        -11    1    4    4    0    0  0.20246923790E-01 -0.89941887724E-02 -0.10164577309E+00  0.10403344493E+00  0.51100000000E-03 0. -1.
         11    1    4    4    0    0  0.68447601828E-02 -0.68190011184E-03 -0.24751592765E-01  0.25694711423E-01  0.51100000000E-03 0.  1.
</event>
<event>
 8    1  0.5489035E+004  0.1043930E+01  0.7957747E-01            NaN
         13   -1    0    0    0    0  0.00000000000E+00  0.00000000000E+00  0.74505805969E-08  0.10566000000E+00  0.10566000000E+00 0. -1.
     999900   -1    0    0    0    0 -0.00000000000E+00 -0.00000000000E+00 -0.74505805969E-08  0.93827000000E+00  0.93827000000E+00 0.  1.
     999902    2    1    2    0    0 -0.16467339711E-01 -0.10587073432E-01  0.12900283455E-01  0.10204848147E+01  0.10202154578E+01 0.  0.
     999903    2    3    3    0    0  0.32961112813E-01 -0.83926016592E-01  0.94899970770E-01  0.13225864911E+00  0.18876826871E-01 0.  0.
         14    1    1    2    0    0  0.16467339711E-01  0.10587073432E-01 -0.12900283455E-01  0.23445185311E-01  0.00000000000E+00 0.  1.
     999901    1    3    3    0    0 -0.49428452525E-01  0.73338943160E-01 -0.81999687315E-01  0.88822616558E+00  0.88000000000E+00 0.  1.
        -11    1    4    4    0    0  0.18430133086E-01 -0.47862191665E-01  0.67103290973E-01  0.84460475827E-01  0.51100000000E-03 0. -1.
         11    1    4    4    0    0  0.14530979727E-01 -0.36063824927E-01  0.27796679797E-01  0.47798173281E-01  0.51100000000E-03 0.  1.
</event>
<event>
 8    1  0.5489035E+004  0.1043930E+01  0.7957747E-01            NaN
         13   -1    0    0    0    0  0.00000000000E+00  0.00000000000E+00  0.74505805969E-08  0.10566000000E+00  0.10566000000E+00 0.  1.
     999900   -1    0    0    0    0 -0.00000000000E+00 -0.00000000000E+00 -0.74505805969E-08  0.93827000000E+00  0.93827000000E+00 0.  1.
     999902    2    1    2    0    0  0.24216674302E-01 -0.30697293204E-02  0.42762195322E-02  0.10191478168E+01  0.10188464633E+01 0.  0.
     999903    2    3    3    0    0  0.29047963347E-01  0.19114489237E-01 -0.12320735404E+00  0.12967182359E+00  0.20629635749E-01 0.  0.
         14    1    1    2    0    0 -0.24216674302E-01  0.30697293204E-02 -0.42762195322E-02  0.24782183234E-01  0.00000000000E+00 0. -1.
     999901    1    3    3    0    0 -0.48312890448E-02 -0.22184218558E-01  0.12748357357E+00  0.88947599318E+00  0.88000000000E+00 0. -1.
        -11    1    4    4    0    0 -0.26220528806E-03 -0.18327299332E-02 -0.24832007441E-01  0.24906171226E-01  0.51100000000E-03 0.  1.
         11    1    4    4    0    0  0.29310168635E-01  0.20947219170E-01 -0.98375346595E-01  0.10476565236E+00  0.51100000000E-03 0. -1.
</event>
<event>
 8    1  0.5489035E+004  0.1043930E+01  0.7957747E-01            NaN
         13   -1    0    0    0    0  0.00000000000E+00  0.00000000000E+00  0.74505805969E-08  0.10566000000E+00  0.10566000000E+00 0.  1.
     999900   -1    0    0    0    0 -0.00000000000E+00 -0.00000000000E+00 -0.74505805969E-08  0.93827000000E+00  0.93827000000E+00 0.  1.
     999902    2    1    2    0    0 -0.34513635370E-02  0.31484135952E-02 -0.22598575421E-01  0.10208536045E+01  0.10205927502E+01 0.  0.
     999903    2    3    3    0    0  0.60904452069E-02  0.12773605059E+00 -0.23137385570E-01  0.13202661586E+00  0.23282966806E-01 0.  0.
         14    1    1    2    0    0  0.34513635370E-02 -0.31484135952E-02  0.22598575421E-01  0.23076395505E-01  0.00000000000E+00 0.  1.
     999901    1    3    3    0    0 -0.95418087438E-02 -0.12458763699E+00  0.53881014935E-03  0.88882698863E+00  0.88000000000E+00 0. -1.
        -11    1    4    4    0    0 -0.71965967802E-02  0.66410191905E-01 -0.65552791137E-02  0.67121810162E-01  0.51100000000E-03 0. -1.
         11    1    4    4    0    0  0.13287041987E-01  0.61325858680E-01 -0.16582106457E-01  0.64904805701E-01  0.51100000000E-03 0.  1.
</event>
<event>
 8    1  0.5489035E+004  0.1043930E+01  0.7957747E-01            NaN
         13   -1    0    0    0    0  0.00000000000E+00  0.00000000000E+00  0.74505805969E-08  0.10566000000E+00  0.10566000000E+00 0.  1.
     999900   -1    0    0    0    0 -0.00000000000E+00 -0.00000000000E+00 -0.74505805969E-08  0.93827000000E+00  0.93827000000E+00 0.  1.
     999902    2    1    2    0    0  0.25236545794E-02  0.12148377443E-01  0.22035602172E-01  0.10186412739E+01  0.10183273173E+01 0.  0.
     999903    2    3    3    0    0  0.11007446629E+00  0.65905018847E-01 -0.74835273551E-02  0.12997467011E+00  0.19430698670E-01 0.  0.
         14    1    1    2    0    0 -0.25236545794E-02 -0.12148377443E-01 -0.22035602172E-01  0.25288726145E-01  0.00000000000E+00 0. -1.
     999901    1    3    3    0    0 -0.10755081171E+00 -0.53756641404E-01  0.29519129527E-01  0.88866660374E+00  0.88000000000E+00 0. -1.
        -11    1    4    4    0    0  0.55042554100E-01  0.21874051016E-01 -0.16812744515E-02  0.59255756467E-01  0.51100000000E-03 0. -1.
         11    1    4    4    0    0  0.55031912193E-01  0.44030967831E-01 -0.58022529035E-02  0.70718913648E-01  0.51100000000E-03 0.  1.
</event>
<event>
 8    1  0.5489035E+004  0.1043930E+01  0.7957747E-01            NaN
         13   -1    0    0    0    0  0.00000000000E+00  0.00000000000E+00  0.74505805969E-08  0.10566000000E+00  0.10566000000E+00 0.  1.
     999900   -1    0    0    0    0 -0.00000000000E+00 -0.00000000000E+00 -0.74505805969E-08  0.93827000000E+00  0.93827000000E+00 0. -1.
     999902    2    1    2    0    0  0.23918851272E-01  0.20483139232E-02  0.59867365346E-02  0.10191883741E+01  0.10188880183E+01 0.  0.
     999903    2    3    3    0    0  0.72617345032E-01  0.91812843993E-01  0.57018402222E-01  0.13181390693E+00  0.20516596829E-01 0.  0.
         14    1    1    2    0    0 -0.23918851272E-01 -0.20483139232E-02 -0.59867365346E-02  0.24741625865E-01  0.00000000000E+00 0.  1.
     999901    1    3    3    0    0 -0.48698493760E-01 -0.89764530070E-01 -0.51031665687E-01  0.88737446721E+00  0.88000000000E+00 0. -1.
        -11    1    4    4    0    0  0.56131590427E-01  0.80223316703E-01  0.52716206224E-01  0.11120159849E+00  0.51100000000E-03 0.  1.
         11    1    4    4    0    0  0.16485754605E-01  0.11589527290E-01  0.43021959981E-02  0.20612308437E-01  0.51100000000E-03 0. -1.
</event>
<event>
 8    1  0.5489035E+004  0.1043930E+01  0.7957747E-01            NaN
         13   -1    0    0    0    0  0.00000000000E+00  0.00000000000E+00  0.74505805969E-08  0.10566000000E+00  0.10566000000E+00 0.  1.
     999900   -1    0    0    0    0 -0.00000000000E+00 -0.00000000000E+00 -0.74505805969E-08  0.93827000000E+00  0.93827000000E+00 0.  1.
     999902    2    1    2    0    0  0.57441360150E-02 -0.14069572928E-01 -0.18022946253E-01  0.10203551284E+01  0.10200827483E+01 0.  0.
     999903    2    3    3    0    0 -0.37942293503E-01 -0.97109176472E-01 -0.80928306046E-01  0.13313409380E+00  0.17478169866E-01 0.  0.
         14    1    1    2    0    0 -0.57441360150E-02  0.14069572928E-01  0.18022946253E-01  0.23574871634E-01  0.00000000000E+00 0.  1.
     999901    1    3    3    0    0  0.43686429518E-01  0.83039603544E-01  0.62905359793E-01  0.88722103456E+00  0.88000000000E+00 0. -1.
        -11    1    4    4    0    0 -0.27487241599E-01 -0.47760424565E-01 -0.45889373225E-01  0.71712636971E-01  0.51100000000E-03 0.  1.
         11    1    4    4    0    0 -0.10455051903E-01 -0.49348751907E-01 -0.35038932821E-01  0.61421456832E-01  0.51100000000E-03 0. -1.
</event>
<event>
 8    1  0.5489035E+004  0.1043930E+01  0.7957747E-01            NaN
         13   -1    0    0    0    0  0.00000000000E+00  0.00000000000E+00  0.74505805969E-08  0.10566000000E+00  0.10566000000E+00 0.  1.
     999900   -1    0    0    0    0 -0.00000000000E+00 -0.00000000000E+00 -0.74505805969E-08  0.93827000000E+00  0.93827000000E+00 0. -1.
     999902    2    1    2    0    0  0.17225355152E-01 -0.42105662474E-02 -0.16167840988E-01  0.10199333167E+01  0.10196509842E+01 0.  0.
     999903    2    3    3    0    0  0.52138493452E-01  0.80247678705E-01  0.84713220864E-01  0.12946764580E+00  0.20674358123E-01 0.  0.
         14    1    1    2    0    0 -0.17225355152E-01  0.42105662474E-02  0.16167840988E-01  0.23996683322E-01  0.00000000000E+00 0.  1.
     999901    1    3    3    0    0 -0.34913138300E-01 -0.84458244952E-01 -0.10088106185E+00  0.89046567087E+00  0.88000000000E+00 0. -1.
        -11    1    4    4    0    0  0.16227580423E-01  0.42393234160E-01  0.34138681839E-01  0.56799924187E-01  0.51100000000E-03 0.  1.
         11    1    4    4    0    0  0.35910913028E-01  0.37854444545E-01  0.50574539025E-01  0.72667721617E-01  0.51100000000E-03 0. -1.
</event>
<event>
 8    1  0.5489035E+004  0.1043930E+01  0.7957747E-01            NaN
         13   -1    0    0    0    0  0.00000000000E+00  0.00000000000E+00  0.74505805969E-08  0.10566000000E+00  0.10566000000E+00 0. -1.
     999900   -1    0    0    0    0 -0.00000000000E+00 -0.00000000000E+00 -0.74505805969E-08  0.93827000000E+00  0.93827000000E+00 0. -1.
     999902    2    1    2    0    0  0.26316304060E-03 -0.20425531874E-02 -0.23709033568E-01  0.10201316902E+01  0.10198540610E+01 0.  0.
     999903    2    3    3    0    0  0.98171629899E-01  0.32127538837E-01 -0.79728364327E-01  0.13227368998E+00  0.21676469131E-01 0.  0.
         14    1    1    2    0    0 -0.26316304060E-03  0.20425531874E-02  0.23709033568E-01  0.23798309836E-01  0.00000000000E+00 0. -1.
     999901    1    3    3    0    0 -0.97908466858E-01 -0.34170092025E-01  0.56019330759E-01  0.88785800018E+00  0.88000000000E+00 0.  1.
        -11    1    4    4    0    0  0.48460185835E-01  0.20525769383E-01 -0.52825915909E-01  0.74568997127E-01  0.51100000000E-03 0. -1.
         11    1    4    4    0    0  0.49711444064E-01  0.11601769455E-01 -0.26902448419E-01  0.57704692854E-01  0.51100000000E-03 0.  1.
</event>
<event>
 8    1  0.5489035E+004  0.1043930E+01  0.7957747E-01            NaN
         13   -1    0    0    0    0  0.00000000000E+00  0.00000000000E+00  0.74505805969E-08  0.10566000000E+00  0.10566000000E+00 0. -1.
     999900   -1    0    0    0    0 -0.00000000000E+00 -0.00000000000E+00 -0.74505805969E-08  0.93827000000E+00  0.93827000000E+00 0.  1.
     999902    2    1    2    0    0  0.21311947347E-01 -0.12532295277E-01 -0.22231411997E-02  0.10191066263E+01  0.10188042579E+01 0.  0.
     999903    2    3    3    0    0  0.13004249346E+00 -0.18689130096E-01  0.28469067093E-02  0.13237896594E+00  0.15992249870E-01 0.  0.
         14    1    1    2    0    0 -0.21311947347E-01  0.12532295277E-01  0.22231411997E-02  0.24823373691E-01  0.00000000000E+00 0.  1.
     999901    1    3    3    0    0 -0.10873054612E+00  0.61568348194E-02 -0.50700479090E-02  0.88672766037E+00  0.88000000000E+00 0.  1.
        -11    1    4    4    0    0  0.94488374693E-01 -0.20554067742E-01  0.35635745793E-02  0.96765091007E-01  0.51100000000E-03 0. -1.
         11    1    4    4    0    0  0.35554118771E-01  0.18649376459E-02 -0.71666787003E-03  0.35613874934E-01  0.51100000000E-03 0.  1.
</event>
<event>
 8    1  0.5489035E+004  0.1043930E+01  0.7957747E-01            NaN
         13   -1    0    0    0    0  0.00000000000E+00  0.00000000000E+00  0.74505805969E-08  0.10566000000E+00  0.10566000000E+00 0. -1.
     999900   -1    0    0    0    0 -0.00000000000E+00 -0.00000000000E+00 -0.74505805969E-08  0.93827000000E+00  0.93827000000E+00 0.  1.
     999902    2    1    2    0    0  0.11022329185E-01 -0.21394367264E-01 -0.54782142164E-02  0.10192475868E+01  0.10189486845E+01 0.  0.
     999903    2    3    3    0    0  0.14270817323E-01  0.22457952082E-02  0.12728387514E+00  0.12896943793E+00  0.14940924523E-01 0.  0.
         14    1    1    2    0    0 -0.11022329185E-01  0.21394367264E-01  0.54782142164E-02  0.24682413218E-01  0.00000000000E+00 0. -1.
     999901    1    3    3    0    0 -0.32484881377E-02 -0.23640162472E-01 -0.13276208936E+00  0.89027814885E+00  0.88000000000E+00 0.  1.
        -11    1    4    4    0    0 -0.19500747248E-02 -0.73000086923E-03  0.44813638974E-01  0.44864897769E-01  0.51100000000E-03 0.  1.
         11    1    4    4    0    0  0.16220892047E-01  0.29757960774E-02  0.82470236165E-01  0.84104540159E-01  0.51100000000E-03 0. -1.
</event>
<event>
 8    1  0.5489035E+004  0.1043930E+01  0.7957747E-01            NaN
         13   -1    0    0    0    0  0.00000000000E+00  0.00000000000E+00  0.74505805969E-08  0.10566000000E+00  0.10566000000E+00 0.  1.
     999900   -1    0    0    0    0 -0.00000000000E+00 -0.00000000000E+00 -0.74505805969E-08  0.93827000000E+00  0.93827000000E+00 0.  1.
     999902    2    1    2    0    0  0.22706633637E-01 -0.16586434779E-02 -0.47136284583E-02  0.10206800408E+01  0.10204152023E+01 0.  0.
     999903    2    3    3    0    0 -0.84858985426E-01 -0.85191808517E-01  0.41829253500E-01  0.12898817030E+00  0.20726070128E-01 0.  0.
         14    1    1    2    0    0 -0.22706633637E-01  0.16586434779E-02  0.47136284583E-02  0.23249959194E-01  0.00000000000E+00 0. -1.
     999901    1    3    3    0    0  0.10756561906E+00  0.83533165039E-01 -0.46542881958E-01  0.89169187051E+00  0.88000000000E+00 0. -1.
        -11    1    4    4    0    0 -0.26533256486E-01 -0.16095283049E-01  0.16153921325E-01  0.34989743231E-01  0.51100000000E-03 0.  1.
         11    1    4    4    0    0 -0.58325728940E-01 -0.69096525468E-01  0.25675332175E-01  0.93998427069E-01  0.51100000000E-03 0. -1.
</event>
<event>
 8    1  0.5489035E+004  0.1043930E+01  0.7957747E-01            NaN
         13   -1    0    0    0    0  0.00000000000E+00  0.00000000000E+00  0.74505805969E-08  0.10566000000E+00  0.10566000000E+00 0.  1.
     999900   -1    0    0    0    0 -0.00000000000E+00 -0.00000000000E+00 -0.74505805969E-08  0.93827000000E+00  0.93827000000E+00 0.  1.
     999902    2    1    2    0    0 -0.40744411585E-02 -0.54262301217E-02  0.22023413890E-01  0.10208849180E+01  0.10206247793E+01 0.  0.
     999903    2    3    3    0    0  0.14567292357E-01  0.10420890399E+00  0.77668418036E-01  0.13214212995E+00  0.18906550978E-01 0.  0.
         14    1    1    2    0    0  0.40744411585E-02  0.54262301217E-02 -0.22023413890E-01  0.23045081980E-01  0.00000000000E+00 0. -1.
     999901    1    3    3    0    0 -0.18641733515E-01 -0.10963513411E+00 -0.55645004146E-01  0.88874278807E+00  0.88000000000E+00 0.  1.
        -11    1    4    4    0    0  0.32586256850E-02  0.61854062548E-01  0.54756859526E-01  0.82674775362E-01  0.51100000000E-03 0. -1.
         11    1    4    4    0    0  0.11308666672E-01  0.42354841443E-01  0.22911558510E-01  0.49467354588E-01  0.51100000000E-03 0.  1.
</event>
<event>
 8    1  0.5489035E+004  0.1043930E+01  0.7957747E-01            NaN
         13   -1    0    0    0    0  0.00000000000E+00  0.00000000000E+00  0.74505805969E-08  0.10566000000E+00  0.10566000000E+00 0.  1.
     999900   -1    0    0    0    0 -0.00000000000E+00 -0.00000000000E+00 -0.74505805969E-08  0.93827000000E+00  0.93827000000E+00 0.  1.
     999902    2    1    2    0    0 -0.21868710088E-01  0.18169528937E-02  0.39316763860E-02  0.10216365059E+01  0.10213932398E+01 0.  0.
     999903    2    3    3    0    0 -0.30587201603E-01 -0.62194394050E-01  0.11157292925E+00  0.13272700325E+00  0.19084530339E-01 0.  0.
         14    1    1    2    0    0  0.21868710088E-01 -0.18169528937E-02 -0.39316763860E-02  0.22293494072E-01  0.00000000000E+00 0. -1.
     999901    1    3    3    0    0  0.87184915153E-02  0.64011346944E-01 -0.10764125286E+00  0.88890950268E+00  0.88000000000E+00 0.  1.
        -11    1    4    4    0    0 -0.23258561486E-01 -0.28729247286E-01  0.66824962732E-01  0.76368626393E-01  0.51100000000E-03 0.  1.
         11    1    4    4    0    0 -0.73286401171E-02 -0.33465146764E-01  0.44747966514E-01  0.56358376858E-01  0.51100000000E-03 0. -1.
</event>
<event>
 8    1  0.5489035E+004  0.1043930E+01  0.7957747E-01            NaN
         13   -1    0    0    0    0  0.00000000000E+00  0.00000000000E+00  0.74505805969E-08  0.10566000000E+00  0.10566000000E+00 0.  1.
     999900   -1    0    0    0    0 -0.00000000000E+00 -0.00000000000E+00 -0.74505805969E-08  0.93827000000E+00  0.93827000000E+00 0. -1.
     999902    2    1    2    0    0 -0.11775863624E-02 -0.16089017626E-01 -0.18427954432E-01  0.10194385178E+01  0.10191442777E+01 0.  0.
     999903    2    3    3    0    0 -0.27157616298E-01  0.10335068743E+00 -0.70660910955E-01  0.12945588487E+00  0.18626891189E-01 0.  0.
         14    1    1    2    0    0  0.11775863624E-02  0.16089017626E-01  0.18427954432E-01  0.24491482241E-01  0.00000000000E+00 0.  1.
     999901    1    3    3    0    0  0.25980029935E-01 -0.11943970505E+00  0.52232956523E-01  0.88998263289E+00  0.88000000000E+00 0.  1.
        -11    1    4    4    0    0 -0.21533411747E-01  0.65470695583E-01 -0.35794227484E-01  0.77663296632E-01  0.51100000000E-03 0.  1.
         11    1    4    4    0    0 -0.56242045510E-02  0.37879991845E-01 -0.34866683471E-01  0.51792588237E-01  0.51100000000E-03 0. -1.
</event>
<event>
 8    1  0.5489035E+004  0.1043930E+01  0.7957747E-01            NaN
         13   -1    0    0    0    0  0.00000000000E+00  0.00000000000E+00  0.74505805969E-08  0.10566000000E+00  0.10566000000E+00 0.  1.
     999900   -1    0    0    0    0 -0.00000000000E+00 -0.00000000000E+00 -0.74505805969E-08  0.93827000000E+00  0.93827000000E+00 0.  1.
     999902    2    1    2    0    0 -0.13196172814E-01  0.15241204360E-01 -0.13948895025E-01  0.10194145975E+01  0.10191197754E+01 0.  0.
     999903    2    3    3    0    0 -0.29056871477E-02  0.72523001640E-01 -0.10874386021E+00  0.13241223909E+00  0.20970101171E-01 0.  0.
         14    1    1    2    0    0  0.13196172814E-01 -0.15241204360E-01  0.13948895025E-01  0.24515402499E-01  0.00000000000E+00 0. -1.
     999901    1    3    3    0    0 -0.10290485666E-01 -0.57281797280E-01  0.94794965188E-01  0.88700235841E+00  0.88000000000E+00 0. -1.
        -11    1    4    4    0    0  0.89281937475E-03  0.34286648938E-01 -0.33621214273E-01  0.48031433375E-01  0.51100000000E-03 0.  1.
         11    1    4    4    0    0 -0.37985065225E-02  0.38236352701E-01 -0.75122645940E-01  0.84380805719E-01  0.51100000000E-03 0. -1.
</event>
<event>
 8    1  0.5489035E+004  0.1043930E+01  0.7957747E-01            NaN
         13   -1    0    0    0    0  0.00000000000E+00  0.00000000000E+00  0.74505805969E-08  0.10566000000E+00  0.10566000000E+00 0.  1.
     999900   -1    0    0    0    0 -0.00000000000E+00 -0.00000000000E+00 -0.74505805969E-08  0.93827000000E+00  0.93827000000E+00 0. -1.
     999902    2    1    2    0    0 -0.14945431394E-02  0.20983320386E-01  0.10777893776E-01  0.10202932407E+01  0.10200194119E+01 0.  0.
     999903    2    3    3    0    0 -0.77072369194E-01  0.44019058198E-01  0.96528695757E-01  0.13260193571E+00  0.19688998722E-01 0.  0.
         14    1    1    2    0    0  0.14945431394E-02 -0.20983320386E-01 -0.10777893776E-01  0.23636759251E-01  0.00000000000E+00 0. -1.
     999901    1    3    3    0    0  0.75577826055E-01 -0.23035737812E-01 -0.85750801981E-01  0.88769130504E+00  0.88000000000E+00 0. -1.
        -11    1    4    4    0    0 -0.48472380121E-01  0.16458108510E-01  0.54424148205E-01  0.74717400913E-01  0.51100000000E-03 0.  1.
         11    1    4    4    0    0 -0.28599989073E-01  0.27560949688E-01  0.42104547552E-01  0.57884534793E-01  0.51100000000E-03 0. -1.
</event>
<event>
 8    1  0.5489035E+004  0.1043930E+01  0.7957747E-01            NaN
         13   -1    0    0    0    0  0.00000000000E+00  0.00000000000E+00  0.74505805969E-08  0.10566000000E+00  0.10566000000E+00 0. -1.
     999900   -1    0    0    0    0 -0.00000000000E+00 -0.00000000000E+00 -0.74505805969E-08  0.93827000000E+00  0.93827000000E+00 0.  1.
     999902    2    1    2    0    0 -0.53695339789E-02 -0.35513661352E-03 -0.22947502900E-01  0.10203599786E+01  0.10200877120E+01 0.  0.
     999903    2    3    3    0    0 -0.22029363709E-01 -0.73286944174E-01 -0.10732325899E+00  0.13316447218E+00  0.18926850721E-01 0.  0.
         14    1    1    2    0    0  0.53695339789E-02  0.35513661352E-03  0.22947502900E-01  0.23570021352E-01  0.00000000000E+00 0. -1.
     999901    1    3    3    0    0  0.16659829730E-01  0.72931807561E-01  0.84375756093E-01  0.88719550647E+00  0.88000000000E+00 0. -1.
        -11    1    4    4    0    0 -0.22070284157E-01 -0.74385290901E-01 -0.10607406485E+00  0.13142388405E+00  0.51100000000E-03 0. -1.
         11    1    4    4    0    0  0.40920447841E-04  0.10983467268E-02 -0.12491941463E-02  0.17405881278E-02  0.51100000000E-03 0.  1.
</event>
<event>
 8    1  0.5489035E+004  0.1043930E+01  0.7957747E-01            NaN
         13   -1    0    0    0    0  0.00000000000E+00  0.00000000000E+00  0.74505805969E-08  0.10566000000E+00  0.10566000000E+00 0.  1.
     999900   -1    0    0    0    0 -0.00000000000E+00 -0.00000000000E+00 -0.74505805969E-08  0.93827000000E+00  0.93827000000E+00 0.  1.
     999902    2    1    2    0    0 -0.61582070101E-02  0.18801007715E-01 -0.12884597009E-01  0.10203203781E+01  0.10200471851E+01 0.  0.
     999903    2    3    3    0    0 -0.22676959152E-01  0.75475777672E-01 -0.10575677909E+00  0.13346630844E+00  0.20443132686E-01 0.  0.
         14    1    1    2    0    0  0.61582070101E-02 -0.18801007715E-01  0.12884597009E-01  0.23609621868E-01  0.00000000000E+00 0.  1.
     999901    1    3    3    0    0  0.16518752142E-01 -0.56674769957E-01  0.92872182080E-01  0.88685406969E+00  0.88000000000E+00 0. -1.
        -11    1    4    4    0    0 -0.78069072393E-02  0.28193845384E-01 -0.23937148512E-01  0.37803292424E-01  0.51100000000E-03 0. -1.
         11    1    4    4    0    0 -0.14870051913E-01  0.47281932288E-01 -0.81819630577E-01  0.95663016017E-01  0.51100000000E-03 0.  1.
</event>
<event>
 8    1  0.5489035E+004  0.1043930E+01  0.7957747E-01            NaN
         13   -1    0    0    0    0  0.00000000000E+00  0.00000000000E+00  0.74505805969E-08  0.10566000000E+00  0.10566000000E+00 0.  1.
     999900   -1    0    0    0    0 -0.00000000000E+00 -0.00000000000E+00 -0.74505805969E-08  0.93827000000E+00  0.93827000000E+00 0. -1.
     999902    2    1    2    0    0 -0.27152465211E-03 -0.18478491771E-02 -0.23032573514E-01  0.10208218258E+01  0.10205602443E+01 0.  0.
     999903    2    3    3    0    0  0.93501246917E-01 -0.89052798456E-01  0.67224448497E-02  0.13105590322E+00  0.21390989128E-01 0.  0.
         14    1    1    2    0    0  0.27152465211E-03  0.18478491771E-02  0.23032573514E-01  0.23108174201E-01  0.00000000000E+00 0.  1.
     999901    1    3    3    0    0 -0.93772771569E-01  0.87204949279E-01 -0.29755018364E-01  0.88976592258E+00  0.88000000000E+00 0.  1.
        -11    1    4    4    0    0  0.15326494779E-01 -0.23282450243E-01  0.75733954759E-02  0.28889295104E-01  0.51100000000E-03 0.  1.
         11    1    4    4    0    0  0.78174752138E-01 -0.65770348213E-01 -0.85095062620E-03  0.10216660812E+00  0.51100000000E-03 0. -1.
</event>
<event>
 8    1  0.5489035E+004  0.1043930E+01  0.7957747E-01            NaN
         13   -1    0    0    0    0  0.00000000000E+00  0.00000000000E+00  0.74505805969E-08  0.10566000000E+00  0.10566000000E+00 0.  1.
     999900   -1    0    0    0    0 -0.00000000000E+00 -0.00000000000E+00 -0.74505805969E-08  0.93827000000E+00  0.93827000000E+00 0.  1.
     999902    2    1    2    0    0  0.13296574240E-01 -0.17554141392E-01  0.19490115931E-02  0.10218224128E+01  0.10215832310E+01 0.  0.
     999903    2    3    3    0    0  0.70708410874E-01  0.88807650974E-01  0.63063030229E-01  0.13146075978E+00  0.20457451943E-01 0.  0.
         14    1    1    2    0    0 -0.13296574240E-01  0.17554141392E-01 -0.19490115931E-02  0.22107587221E-01  0.00000000000E+00 0. -1.
     999901    1    3    3    0    0 -0.57411836634E-01 -0.10636179237E+00 -0.61114018635E-01  0.89036165300E+00  0.88000000000E+00 0. -1.
        -11    1    4    4    0    0  0.42268847469E-01  0.58736470667E-01  0.50353083280E-01  0.88160776821E-01  0.51100000000E-03 0.  1.
         11    1    4    4    0    0  0.28439563404E-01  0.30071180307E-01  0.12709946949E-01  0.43299982957E-01  0.51100000000E-03 0. -1.
</event>
<event>
 8    1  0.5489035E+004  0.1043930E+01  0.7957747E-01            NaN
         13   -1    0    0    0    0  0.00000000000E+00  0.00000000000E+00  0.74505805969E-08  0.10566000000E+00  0.10566000000E+00 0.  1.
     999900   -1    0    0    0    0 -0.00000000000E+00 -0.00000000000E+00 -0.74505805969E-08  0.93827000000E+00  0.93827000000E+00 0. -1.
     999902    2    1    2    0    0 -0.44862057411E-02  0.12804981864E-01 -0.19454411002E-01  0.10202114901E+01  0.10199357416E+01 0.  0.
     999903    2    3    3    0    0  0.28492019223E-02  0.13078384100E+00 -0.22020266942E-02  0.13214028569E+00  0.18538477895E-01 0.  0.
         14    1    1    2    0    0  0.44862057411E-02 -0.12804981864E-01  0.19454411002E-01  0.23718509859E-01  0.00000000000E+00 0.  1.
     999901    1    3    3    0    0 -0.73354076634E-02 -0.11797885914E+00 -0.17252384308E-01  0.88807120445E+00  0.88000000000E+00 0. -1.
        -11    1    4    4    0    0  0.69215556705E-02  0.19825324799E-01  0.13571553768E-02  0.21048858116E-01  0.51100000000E-03 0. -1.
         11    1    4    4    0    0 -0.40723537482E-02  0.11095851620E+00 -0.35591820710E-02  0.11109142758E+00  0.51100000000E-03 0.  1.
</event>
<event>
 8    1  0.5489035E+004  0.1043930E+01  0.7957747E-01            NaN
         13   -1    0    0    0    0  0.00000000000E+00  0.00000000000E+00  0.74505805969E-08  0.10566000000E+00  0.10566000000E+00 0.  1.
     999900   -1    0    0    0    0 -0.00000000000E+00 -0.00000000000E+00 -0.74505805969E-08  0.93827000000E+00  0.93827000000E+00 0. -1.
     999902    2    1    2    0    0  0.14874195571E-01 -0.14887280120E-01 -0.35310534537E-02  0.10225912760E+01  0.10223686109E+01 0.  0.
     999903    2    3    3    0    0 -0.71769334444E-01 -0.10506960182E+00  0.33259255989E-01  0.13298828629E+00  0.19729358533E-01 0.  0.
         14    1    1    2    0    0 -0.14874195571E-01  0.14887280120E-01  0.35310534537E-02  0.21338723995E-01  0.00000000000E+00 0.  1.
     999901    1    3    3    0    0  0.86643530016E-01  0.90182321701E-01 -0.36790309442E-01  0.88960298971E+00  0.88000000000E+00 0. -1.
        -11    1    4    4    0    0 -0.59130639432E-01 -0.97164072834E-01  0.31084083179E-01  0.11791425239E+00  0.51100000000E-03 0. -1.
         11    1    4    4    0    0 -0.12638695013E-01 -0.79055289866E-02  0.21751728102E-02  0.15074033897E-01  0.51100000000E-03 0.  1.
</event>
<event>
 8    1  0.5489035E+004  0.1043930E+01  0.7957747E-01            NaN
         13   -1    0    0    0    0  0.00000000000E+00  0.00000000000E+00  0.74505805969E-08  0.10566000000E+00  0.10566000000E+00 0. -1.
     999900   -1    0    0    0    0 -0.00000000000E+00 -0.00000000000E+00 -0.74505805969E-08  0.93827000000E+00  0.93827000000E+00 0. -1.
     999902    2    1    2    0    0 -0.21120436073E-01 -0.17626364052E-02  0.98163148815E-02  0.10205732077E+01  0.10203059015E+01 0.  0.
     999903    2    3    3    0    0 -0.74893504917E-01 -0.15512208690E-01  0.10733725575E+00  0.13344811646E+00  0.20915248414E-01 0.  0.
         14    1    1    2    0    0  0.21120436073E-01  0.17626364052E-02 -0.98163148815E-02  0.23356792264E-01  0.00000000000E+00 0.  1.
     999901    1    3    3    0    0  0.53773068844E-01  0.13749572285E-01 -0.97520940869E-01  0.88712509128E+00  0.88000000000E+00 0. -1.
        -11    1    4    4    0    0 -0.33221127784E-01 -0.89532032873E-02  0.31425260048E-01  0.46600550109E-01  0.51100000000E-03 0. -1.
         11    1    4    4    0    0 -0.41672377133E-01 -0.65590054026E-02  0.75911995703E-01  0.86847566347E-01  0.51100000000E-03 0.  1.
</event>
<event>
 8    1  0.5489035E+004  0.1043930E+01  0.7957747E-01            NaN
         13   -1    0    0    0    0  0.00000000000E+00  0.00000000000E+00  0.74505805969E-08  0.10566000000E+00  0.10566000000E+00 0. -1.
     999900   -1    0    0    0    0 -0.00000000000E+00 -0.00000000000E+00 -0.74505805969E-08  0.93827000000E+00  0.93827000000E+00 0.  1.
     999902    2    1    2    0    0 -0.78169977172E-02 -0.25138186272E-01  0.20253812126E-02  0.10175266663E+01  0.10171840446E+01 0.  0.
     999903    2    3    3    0    0  0.49497079133E-02  0.12330959435E+00  0.45022974650E-02  0.12499886982E+00  0.19356939508E-01 0.  0.
         14    1    1    2    0    0  0.78169977172E-02  0.25138186272E-01 -0.20253812126E-02  0.26403333718E-01  0.00000000000E+00 0.  1.
     999901    1    3    3    0    0 -0.12766705630E-01 -0.14844778062E+00 -0.24769162524E-02  0.89252779646E+00  0.88000000000E+00 0.  1.
        -11    1    4    4    0    0  0.55151813462E-03  0.10985884136E+00  0.87647364534E-02  0.11021048463E+00  0.51100000000E-03 0.  1.
         11    1    4    4    0    0  0.43981897787E-02  0.13450752989E-01 -0.42624389885E-02  0.14788385186E-01  0.51100000000E-03 0. -1.
</event>
<event>
 8    1  0.5489035E+004  0.1043930E+01  0.7957747E-01            NaN
         13   -1    0    0    0    0  0.00000000000E+00  0.00000000000E+00  0.74505805969E-08  0.10566000000E+00  0.10566000000E+00 0. -1.
     999900   -1    0    0    0    0 -0.00000000000E+00 -0.00000000000E+00 -0.74505805969E-08  0.93827000000E+00  0.93827000000E+00 0.  1.
     999902    2    1    2    0    0  0.13999135919E-02  0.22147671695E-01  0.85861765618E-02  0.10201350100E+01  0.10198574592E+01 0.  0.
     999903    2    3    3    0    0  0.11563966033E+00  0.86512466577E-02 -0.56001797687E-01  0.13030104819E+00  0.19869240213E-01 0.  0.
         14    1    1    2    0    0 -0.13999135919E-02 -0.22147671695E-01 -0.85861765618E-02  0.23794989967E-01  0.00000000000E+00 0.  1.
     999901    1    3    3    0    0 -0.11423974674E+00  0.13496425038E-01  0.64587974249E-01  0.88983396184E+00  0.88000000000E+00 0.  1.
        -11    1    4    4    0    0  0.86677397230E-01 -0.69967710420E-03 -0.46763238038E-01  0.98491229515E-01  0.51100000000E-03 0.  1.
         11    1    4    4    0    0  0.28962263099E-01  0.93509237619E-02 -0.92385596493E-02  0.31809818679E-01  0.51100000000E-03 0. -1.
</event>
<event>
 8    1  0.5489035E+004  0.1043930E+01  0.7957747E-01            NaN
         13   -1    0    0    0    0  0.00000000000E+00  0.00000000000E+00  0.74505805969E-08  0.10566000000E+00  0.10566000000E+00 0.  1.
     999900   -1    0    0    0    0 -0.00000000000E+00 -0.00000000000E+00 -0.74505805969E-08  0.93827000000E+00  0.93827000000E+00 0.  1.
     999902    2    1    2    0    0  0.20666730977E-01  0.11946335212E-01  0.26543729599E-02  0.10199117904E+01  0.10196289452E+01 0.  0.
     999903    2    3    3    0    0 -0.36224552748E-01 -0.12066481503E+00 -0.76748615867E-02  0.12809957455E+00  0.21871938493E-01 0.  0.
         14    1    1    2    0    0 -0.20666730977E-01 -0.11946335212E-01 -0.26543729599E-02  0.24018209552E-01  0.00000000000E+00 0.  1.
     999901    1    3    3    0    0  0.56891283724E-01  0.13261115024E+00  0.10329234547E-01  0.89181221589E+00  0.88000000000E+00 0.  1.
        -11    1    4    4    0    0 -0.29718911004E-02 -0.22879278127E-01 -0.90924591513E-02  0.24803778719E-01  0.51100000000E-03 0.  1.
         11    1    4    4    0    0 -0.33252661647E-01 -0.97785536900E-01  0.14175975647E-02  0.10329579584E+00  0.51100000000E-03 0. -1.
</event>
<event>
 8    1  0.5489035E+004  0.1043930E+01  0.7957747E-01            NaN
         13   -1    0    0    0    0  0.00000000000E+00  0.00000000000E+00  0.74505805969E-08  0.10566000000E+00  0.10566000000E+00 0. -1.
     999900   -1    0    0    0    0 -0.00000000000E+00 -0.00000000000E+00 -0.74505805969E-08  0.93827000000E+00  0.93827000000E+00 0.  1.
     999902    2    1    2    0    0  0.16928878062E-01  0.58284902292E-02  0.15518279356E-01  0.10202366422E+01  0.10199614850E+01 0.  0.
     999903    2    3    3    0    0  0.28910223120E-01  0.56008653090E-02 -0.12405436996E+00  0.12915632656E+00  0.20608233576E-01 0.  0.
         14    1    1    2    0    0 -0.16928878062E-01 -0.58284902292E-02 -0.15518279356E-01  0.23693357824E-01  0.00000000000E+00 0.  1.
     999901    1    3    3    0    0 -0.11981345058E-01  0.22762492011E-03  0.13957264932E+00  0.89108031562E+00  0.88000000000E+00 0. -1.
        -11    1    4    4    0    0  0.21345743174E-02 -0.34207886191E-02 -0.45361157780E-01  0.45542880436E-01  0.51100000000E-03 0.  1.
         11    1    4    4    0    0  0.26775648803E-01  0.90216539281E-02 -0.78693212181E-01  0.83613446124E-01  0.51100000000E-03 0. -1.
</event>
<event>
 8    1  0.5489035E+004  0.1043930E+01  0.7957747E-01            NaN
         13   -1    0    0    0    0  0.00000000000E+00  0.00000000000E+00  0.74505805969E-08  0.10566000000E+00  0.10566000000E+00 0.  1.
     999900   -1    0    0    0    0 -0.00000000000E+00 -0.00000000000E+00 -0.74505805969E-08  0.93827000000E+00  0.93827000000E+00 0.  1.
     999902    2    1    2    0    0 -0.12349308993E-01  0.86043257683E-02  0.18556440278E-01  0.10200368769E+01  0.10197570049E+01 0.  0.
     999903    2    3    3    0    0 -0.78061228398E-01 -0.47789167822E-02 -0.10174319272E+00  0.12932414589E+00  0.16020737145E-01 0.  0.
         14    1    1    2    0    0  0.12349308993E-01 -0.86043257683E-02 -0.18556440278E-01  0.23893123076E-01  0.00000000000E+00 0. -1.
     999901    1    3    3    0    0  0.65711919405E-01  0.13383242551E-01  0.12029963300E+00  0.89071273104E+00  0.88000000000E+00 0. -1.
        -11    1    4    4    0    0 -0.55213615069E-01 -0.98652976057E-02 -0.76956487176E-01  0.95228301598E-01  0.51100000000E-03 0. -1.
         11    1    4    4    0    0 -0.22847613330E-01  0.50863808235E-02 -0.24786705549E-01  0.34095844288E-01  0.51100000000E-03 0.  1.
</event>
<event>
 8    1  0.5489035E+004  0.1043930E+01  0.7957747E-01            NaN
         13   -1    0    0    0    0  0.00000000000E+00  0.00000000000E+00  0.74505805969E-08  0.10566000000E+00  0.10566000000E+00 0.  1.
     999900   -1    0    0    0    0 -0.00000000000E+00 -0.00000000000E+00 -0.74505805969E-08  0.93827000000E+00  0.93827000000E+00 0.  1.
     999902    2    1    2    0    0  0.17916184058E-01 -0.76819144123E-02  0.14143150299E-01  0.10198461847E+01  0.10195617736E+01 0.  0.
     999903    2    3    3    0    0 -0.92761158563E-01  0.26581863238E-01  0.84060993692E-01  0.12950243900E+00  0.19834390755E-01 0.  0.
         14    1    1    2    0    0 -0.17916184058E-01  0.76819144123E-02 -0.14143150299E-01  0.24083815325E-01  0.00000000000E+00 0. -1.
     999901    1    3    3    0    0  0.11067734262E+00 -0.34263777650E-01 -0.69917843392E-01  0.89034374567E+00  0.88000000000E+00 0.  1.
        -11    1    4    4    0    0 -0.24181100254E-01  0.15076788643E-02  0.30436880800E-01  0.38905829112E-01  0.51100000000E-03 0.  1.
         11    1    4    4    0    0 -0.68580058309E-01  0.25074184373E-01  0.53624112892E-01  0.90596609893E-01  0.51100000000E-03 0. -1.
</event>
<event>
 8    1  0.5489035E+004  0.1043930E+01  0.7957747E-01            NaN
         13   -1    0    0    0    0  0.00000000000E+00  0.00000000000E+00  0.74505805969E-08  0.10566000000E+00  0.10566000000E+00 0.  1.
     999900   -1    0    0    0    0 -0.00000000000E+00 -0.00000000000E+00 -0.74505805969E-08  0.93827000000E+00  0.93827000000E+00 0.  1.
     999902    2    1    2    0    0  0.17185409387E-01 -0.12425286763E-01 -0.60502481561E-02  0.10218770739E+01  0.10216390863E+01 0.  0.
     999903    2    3    3    0    0  0.27391466842E-01  0.11524707025E+00  0.52643822316E-01  0.13067037045E+00  0.16467969830E-01 0.  0.
         14    1    1    2    0    0 -0.17185409387E-01  0.12425286763E-01  0.60502481561E-02  0.22052926103E-01  0.00000000000E+00 0.  1.
     999901    1    3    3    0    0 -0.10206057454E-01 -0.12767235701E+00 -0.58694070472E-01  0.89120670344E+00  0.88000000000E+00 0.  1.
        -11    1    4    4    0    0  0.23795767328E-01  0.73874662320E-01  0.39637849379E-01  0.87150011475E-01  0.51100000000E-03 0. -1.
         11    1    4    4    0    0  0.35956995134E-02  0.41372407927E-01  0.13005972937E-01  0.43520358979E-01  0.51100000000E-03 0.  1.
</event>
<event>
 8    1  0.5489035E+004  0.1043930E+01  0.7957747E-01            NaN
         13   -1    0    0    0    0  0.00000000000E+00  0.00000000000E+00  0.74505805969E-08  0.10566000000E+00  0.10566000000E+00 0.  1.
     999900   -1    0    0    0    0 -0.00000000000E+00 -0.00000000000E+00 -0.74505805969E-08  0.93827000000E+00  0.93827000000E+00 0.  1.
     999902    2    1    2    0    0 -0.24796359527E-02 -0.23813442232E-01  0.11490969451E-02  0.10199602472E+01  0.10196785556E+01 0.  0.
     999903    2    3    3    0    0  0.10527415711E+00  0.67797671370E-01  0.20489236805E-01  0.12845729316E+00  0.20057291509E-01 0.  0.
         14    1    1    2    0    0  0.24796359527E-02  0.23813442232E-01 -0.11490969451E-02  0.23969752798E-01  0.00000000000E+00 0.  1.
     999901    1    3    3    0    0 -0.10775379306E+00 -0.91611113603E-01 -0.19340139860E-01  0.89150295404E+00  0.88000000000E+00 0. -1.
        -11    1    4    4    0    0  0.20848090820E-01  0.23633204038E-01  0.43087815648E-02  0.31811915119E-01  0.51100000000E-03 0. -1.
         11    1    4    4    0    0  0.84426066291E-01  0.44164467332E-01  0.16180455240E-01  0.96645378042E-01  0.51100000000E-03 0.  1.
</event>
<event>
 8    1  0.5489035E+004  0.1043930E+01  0.7957747E-01            NaN
         13   -1    0    0    0    0  0.00000000000E+00  0.00000000000E+00  0.74505805969E-08  0.10566000000E+00  0.10566000000E+00 0.  1.
     999900   -1    0    0    0    0 -0.00000000000E+00 -0.00000000000E+00 -0.74505805969E-08  0.93827000000E+00  0.93827000000E+00 0.  1.
     999902    2    1    2    0    0  0.76661809472E-03  0.19863370940E-01 -0.11889615664E-01  0.10207674404E+01  0.10205046120E+01 0.  0.
     999903    2    3    3    0    0  0.90097840902E-01 -0.85539812538E-01  0.28636728766E-01  0.12906553779E+00  0.20079102227E-01 0.  0.
         14    1    1    2    0    0 -0.76661809472E-03 -0.19863370940E-01  0.11889615664E-01  0.23162559639E-01  0.00000000000E+00 0.  1.
     999901    1    3    3    0    0 -0.89331222808E-01  0.10540318348E+00 -0.40526344431E-01  0.89170190257E+00  0.88000000000E+00 0.  1.
        -11    1    4    4    0    0  0.36877723931E-01 -0.47513510422E-01  0.18090738942E-01  0.62809522776E-01  0.51100000000E-03 0.  1.
         11    1    4    4    0    0  0.53220116972E-01 -0.38026302116E-01  0.10545989825E-01  0.66256015014E-01  0.51100000000E-03 0. -1.
</event>
<event>
 8    1  0.5489035E+004  0.1043930E+01  0.7957747E-01            NaN
         13   -1    0    0    0    0  0.00000000000E+00  0.00000000000E+00  0.74505805969E-08  0.10566000000E+00  0.10566000000E+00 0. -1.
     999900   -1    0    0    0    0 -0.00000000000E+00 -0.00000000000E+00 -0.74505805969E-08  0.93827000000E+00  0.93827000000E+00 0.  1.
     999902    2    1    2    0    0 -0.15853386585E-01 -0.14580686681E-01  0.24915214011E-02  0.10222474271E+01  0.10220174500E+01 0.  0.
     999903    2    3    3    0    0  0.26345035468E-01  0.27370618118E-01  0.12467673588E+00  0.13181503466E+00  0.19690181927E-01 0.  0.
         14    1    1    2    0    0  0.15853386585E-01  0.14580686681E-01 -0.24915214011E-02  0.21682572937E-01  0.00000000000E+00 0.  1.
     999901    1    3    3    0    0 -0.42198422054E-01 -0.41951304799E-01 -0.12218521448E+00  0.89043239240E+00  0.88000000000E+00 0.  1.
        -11    1    4    4    0    0  0.14662873021E-01  0.92037879670E-02  0.29424875082E-01  0.34143724940E-01  0.51100000000E-03 0.  1.
         11    1    4    4    0    0  0.11682162447E-01  0.18166830151E-01  0.95251860794E-01  0.97671309723E-01  0.51100000000E-03 0. -1.
</event>
<event>
 8    1  0.5489035E+004  0.1043930E+01  0.7957747E-01            NaN
         13   -1    0    0    0    0  0.00000000000E+00  0.00000000000E+00  0.74505805969E-08  0.10566000000E+00  0.10566000000E+00 0. -1.
     999900   -1    0    0    0    0 -0.00000000000E+00 -0.00000000000E+00 -0.74505805969E-08  0.93827000000E+00  0.93827000000E+00 0. -1.
     999902    2    1    2    0    0  0.84804420392E-02 -0.42998633071E-02  0.19207625171E-01  0.10224977909E+01  0.10222731498E+01 0.  0.
     999903    2    3    3    0    0  0.11448910443E+00 -0.65984843727E-01  0.54468297399E-02  0.13388525848E+00  0.20828822519E-01 0.  0.
         14    1    1    2    0    0 -0.84804420392E-02  0.42998633071E-02 -0.19207625171E-01  0.21432209087E-01  0.00000000000E+00 0.  1.
     999901    1    3    3    0    0 -0.10600866239E+00  0.61684980420E-01  0.13760795431E-01  0.88861253244E+00  0.88000000000E+00 0.  1.
        -11    1    4    4    0    0  0.48472321372E-01 -0.39845226860E-01  0.14048471812E-02  0.62764980358E-01  0.51100000000E-03 0. -1.
         11    1    4    4    0    0  0.66016783061E-01 -0.26139616868E-01  0.40419825587E-02  0.71120278119E-01  0.51100000000E-03 0.  1.
</event>
<event>
 8    1  0.5489035E+004  0.1043930E+01  0.7957747E-01            NaN
         13   -1    0    0    0    0  0.00000000000E+00  0.00000000000E+00  0.74505805969E-08  0.10566000000E+00  0.10566000000E+00 0. -1.
     999900   -1    0    0    0    0 -0.00000000000E+00 -0.00000000000E+00 -0.74505805969E-08  0.93827000000E+00  0.93827000000E+00 0. -1.
     999902    2    1    2    0    0  0.20247317031E-01 -0.63343463496E-02  0.93904333878E-02  0.10207296114E+01  0.10204659140E+01 0.  0.
     999903    2    3    3    0    0 -0.22954376304E-01 -0.12575615387E+00  0.23948455062E-01  0.13149404623E+00  0.19381487762E-01 0.  0.
         14    1    1    2    0    0 -0.20247317031E-01  0.63343463496E-02 -0.93904333878E-02  0.23200388571E-01  0.00000000000E+00 0.  1.
     999901    1    3    3    0    0  0.43201693335E-01  0.11942180752E+00 -0.14558021675E-01  0.88923556520E+00  0.88000000000E+00 0. -1.
        -11    1    4    4    0    0 -0.17736786345E-01 -0.48960131735E-01  0.57133670698E-02  0.52388851616E-01  0.51100000000E-03 0.  1.
         11    1    4    4    0    0 -0.52175899589E-02 -0.76796022131E-01  0.18235087993E-01  0.79105194616E-01  0.51100000000E-03 0. -1.
</event>
<event>
 8    1  0.5489035E+004  0.1043930E+01  0.7957747E-01            NaN
         13   -1    0    0    0    0  0.00000000000E+00  0.00000000000E+00  0.74505805969E-08  0.10566000000E+00  0.10566000000E+00 0. -1.
     999900   -1    0    0    0    0 -0.00000000000E+00 -0.00000000000E+00 -0.74505805969E-08  0.93827000000E+00  0.93827000000E+00 0. -1.
     999902    2    1    2    0    0  0.42120803161E-02  0.13115170623E-01  0.19229019656E-01  0.10202761522E+01  0.10200019226E+01 0.  0.
     999903    2    3    3    0    0 -0.61623266540E-03  0.58995468988E-01 -0.11318891004E+00  0.12917412517E+00  0.19833813368E-01 0.  0.
         14    1    1    2    0    0 -0.42120803161E-02 -0.13115170623E-01 -0.19229019656E-01  0.23653847848E-01  0.00000000000E+00 0.  1.
     999901    1    3    3    0    0  0.48283129815E-02 -0.45880298365E-01  0.13241792970E+00  0.89110202698E+00  0.88000000000E+00 0.  1.
        -11    1    4    4    0    0 -0.88969906434E-02  0.22842063168E-01 -0.54263048367E-01  0.59545409826E-01  0.51100000000E-03 0. -1.
         11    1    4    4    0    0  0.82807579780E-02  0.36153405820E-01 -0.58925861678E-01  0.69628715345E-01  0.51100000000E-03 0.  1.
</event>
<event>
 8    1  0.5489035E+004  0.1043930E+01  0.7957747E-01            NaN
         13   -1    0    0    0    0  0.00000000000E+00  0.00000000000E+00  0.74505805969E-08  0.10566000000E+00  0.10566000000E+00 0. -1.
     999900   -1    0    0    0    0 -0.00000000000E+00 -0.00000000000E+00 -0.74505805969E-08  0.93827000000E+00  0.93827000000E+00 0.  1.
     999902    2    1    2    0    0 -0.16163863899E-01  0.17814023337E-01  0.47052022108E-02  0.10194198215E+01  0.10191251265E+01 0.  0.
     999903    2    3    3    0    0  0.95090220032E-01  0.62217538324E-01  0.58979143242E-01  0.12964748879E+00  0.20414700365E-01 0.  0.
         14    1    1    2    0    0  0.16163863899E-01 -0.17814023337E-01 -0.47052022108E-02  0.24510178527E-01  0.00000000000E+00 0.  1.
     999901    1    3    3    0    0 -0.11125408393E+00 -0.44403514987E-01 -0.54273941031E-01  0.88977233268E+00  0.88000000000E+00 0. -1.
        -11    1    4    4    0    0  0.86649640884E-01  0.48393282069E-01  0.50897215390E-01  0.11153859274E+00  0.51100000000E-03 0. -1.
         11    1    4    4    0    0  0.84405791484E-02  0.13824256255E-01  0.80819278516E-02  0.18108896051E-01  0.51100000000E-03 0.  1.
</event>
<event>
 8    1  0.5489035E+004  0.1043930E+01  0.7957747E-01            NaN
         13   -1    0    0    0    0  0.00000000000E+00  0.00000000000E+00  0.74505805969E-08  0.10566000000E+00  0.10566000000E+00 0. -1.
     999900   -1    0    0    0    0 -0.00000000000E+00 -0.00000000000E+00 -0.74505805969E-08  0.93827000000E+00  0.93827000000E+00 0.  1.
     999902    2    1    2    0    0  0.54037110217E-02  0.50043095385E-02 -0.23969918574E-01  0.10188541111E+01  0.10185454823E+01 0.  0.
     999903    2    3    3    0    0  0.44526782389E-01  0.89680461014E-01  0.77320851642E-01  0.12814625471E+00  0.20438421157E-01 0.  0.
         14    1    1    2    0    0 -0.54037110217E-02 -0.50043095385E-02  0.23969918574E-01  0.25075888882E-01  0.00000000000E+00 0. -1.
     999901    1    3    3    0    0 -0.39123071367E-01 -0.84676151475E-01 -0.10129077022E+00  0.89070785641E+00  0.88000000000E+00 0.  1.
        -11    1    4    4    0    0  0.23597501126E-01  0.25829054915E-01  0.25840679913E-01  0.43496942382E-01  0.51100000000E-03 0.  1.
         11    1    4    4    0    0  0.20929281262E-01  0.63851406099E-01  0.51480171729E-01  0.84649312326E-01  0.51100000000E-03 0. -1.
</event>
<event>
 8    1  0.5489035E+004  0.1043930E+01  0.7957747E-01            NaN
         13   -1    0    0    0    0  0.00000000000E+00  0.00000000000E+00  0.74505805969E-08  0.10566000000E+00  0.10566000000E+00 0. -1.
     999900   -1    0    0    0    0 -0.00000000000E+00 -0.00000000000E+00 -0.74505805969E-08  0.93827000000E+00  0.93827000000E+00 0.  1.
     999902    2    1    2    0    0 -0.51045237489E-02 -0.23981189278E-01  0.14033847076E-02  0.10193714355E+01  0.10190755617E+01 0.  0.
     999903    2    3    3    0    0  0.96601077785E-01 -0.83208800210E-01  0.23986113957E-01  0.13124874187E+00  0.19885319131E-01 0.  0.
         14    1    1    2    0    0  0.51045237489E-02  0.23981189278E-01 -0.14033847076E-02  0.24558564505E-01  0.00000000000E+00 0.  1.
     999901    1    3    3    0    0 -0.10170560153E+00  0.59227610932E-01 -0.22582729249E-01  0.88812269363E+00  0.88000000000E+00 0.  1.
        -11    1    4    4    0    0  0.93644853543E-01 -0.76500122718E-01  0.19091062489E-01  0.12241877780E+00  0.51100000000E-03 0. -1.
         11    1    4    4    0    0  0.29562242416E-02 -0.67086774916E-02  0.48950514680E-02  0.88299640615E-02  0.51100000000E-03 0.  1.
</event>
<event>
 8    1  0.5489035E+004  0.1043930E+01  0.7957747E-01            NaN
         13   -1    0    0    0    0  0.00000000000E+00  0.00000000000E+00  0.74505805969E-08  0.10566000000E+00  0.10566000000E+00 0.  1.
     999900   -1    0    0    0    0 -0.00000000000E+00 -0.00000000000E+00 -0.74505805969E-08  0.93827000000E+00  0.93827000000E+00 0.  1.
     999902    2    1    2    0    0  0.19738968251E-01 -0.25082596729E-02  0.13390174088E-01  0.10199463598E+01  0.10196643379E+01 0.  0.
     999903    2    3    3    0    0 -0.65785640431E-01 -0.86535289117E-01  0.68640792072E-01  0.13009938918E+00  0.19954597958E-01 0.  0.
         14    1    1    2    0    0 -0.19738968251E-01  0.25082596729E-02 -0.13390174088E-01  0.23983640180E-01  0.00000000000E+00 0. -1.
     999901    1    3    3    0    0  0.85524608681E-01  0.84027029444E-01 -0.55250617984E-01  0.88984697064E+00  0.88000000000E+00 0.  1.
        -11    1    4    4    0    0 -0.50305099444E-01 -0.64586701765E-01  0.41019676776E-01  0.91569209229E-01  0.51100000000E-03 0. -1.
         11    1    4    4    0    0 -0.15480540986E-01 -0.21948587351E-01  0.27621115296E-01  0.38530179952E-01  0.51100000000E-03 0.  1.
</event>
<event>
 8    1  0.5489035E+004  0.1043930E+01  0.7957747E-01            NaN
         13   -1    0    0    0    0  0.00000000000E+00  0.00000000000E+00  0.74505805969E-08  0.10566000000E+00  0.10566000000E+00 0.  1.
     999900   -1    0    0    0    0 -0.00000000000E+00 -0.00000000000E+00 -0.74505805969E-08  0.93827000000E+00  0.93827000000E+00 0. -1.
     999902    2    1    2    0    0  0.13958449054E-01  0.17237305387E-01  0.80645608641E-02  0.10203291496E+01  0.10200561619E+01 0.  0.
     999903    2    3    3    0    0  0.12859430186E-01 -0.12260281790E+00  0.30961879104E-01  0.12899265025E+00  0.21992043068E-01 0.  0.
         14    1    1    2    0    0 -0.13958449054E-01 -0.17237305387E-01 -0.80645608641E-02  0.23600850385E-01  0.00000000000E+00 0. -1.
     999901    1    3    3    0    0  0.10990188679E-02  0.13984012329E+00 -0.22897318240E-01  0.89133649937E+00  0.88000000000E+00 0. -1.
        -11    1    4    4    0    0  0.12658979081E-01 -0.62493240755E-01  0.25351410656E-01  0.68619312403E-01  0.51100000000E-03 0.  1.
         11    1    4    4    0    0  0.20045110532E-03 -0.60109577144E-01  0.56104684485E-02  0.60373337843E-01  0.51100000000E-03 0. -1.
</event>
<event>
 8    1  0.5489035E+004  0.1043930E+01  0.7957747E-01            NaN
         13   -1    0    0    0    0  0.00000000000E+00  0.00000000000E+00  0.74505805969E-08  0.10566000000E+00  0.10566000000E+00 0.  1.
     999900   -1    0    0    0    0 -0.00000000000E+00 -0.00000000000E+00 -0.74505805969E-08  0.93827000000E+00  0.93827000000E+00 0.  1.
     999902    2    1    2    0    0  0.92943480111E-02  0.21431479246E-01  0.69718599013E-02  0.10195517302E+01  0.10192602369E+01 0.  0.
     999903    2    3    3    0    0 -0.68988084351E-01  0.63160578960E-01  0.89852596004E-01  0.13121695469E+00  0.19894362821E-01 0.  0.
         14    1    1    2    0    0 -0.92943480111E-02 -0.21431479246E-01 -0.69718599013E-02  0.24378269793E-01  0.00000000000E+00 0. -1.
     999901    1    3    3    0    0  0.78282432362E-01 -0.41729099714E-01 -0.82880736103E-01  0.88833477552E+00  0.88000000000E+00 0. -1.
        -11    1    4    4    0    0 -0.28952673856E-01  0.14615345955E-01  0.35253788909E-01  0.47905703359E-01  0.51100000000E-03 0. -1.
         11    1    4    4    0    0 -0.40035410495E-01  0.48545233005E-01  0.54598807095E-01  0.83311251330E-01  0.51100000000E-03 0.  1.
</event>
<event>
 7    1  0.5489035E+004  0.1043930E+01  0.7957747E-01            NaN
         13   -1    0    0    0    0  0.00000000000E+00  0.00000000000E+00  0.74505805969E-08  0.10566000000E+00  0.10566000000E+00 0. -1.
     999900   -1    0    0    0    0 -0.00000000000E+00 -0.00000000000E+00 -0.74505805969E-08  0.93827000000E+00  0.93827000000E+00 0.  1.
     999902    2    1    2    0    0 -0.12051250024E-01 -0.16106712264E-01  0.45802241253E-03  0.10238086533E+01  0.10236109075E+01 0.  0.
         14    1    1    2    0    0  0.12051250024E-01  0.16106712264E-01 -0.45802241253E-03  0.20121346666E-01  0.00000000000E+00 0. -1.
     999901    1    3    3    0    0 -0.85465587834E-01  0.36106627624E-02  0.88442188298E-01  0.88856030986E+00  0.88000000000E+00 0. -1.
        -11    1    3    3    0    0  0.17746115544E-01  0.24199137680E-01 -0.15231278497E-01  0.33656735537E-01  0.51100000000E-03 0.  1.
         11    1    3    3    0    0  0.55668222266E-01 -0.43916512707E-01 -0.72752887389E-01  0.10159160794E+00  0.51100000000E-03 0. -1.
</event>
<event>
 8    1  0.5489035E+004  0.1043930E+01  0.7957747E-01            NaN
         13   -1    0    0    0    0  0.00000000000E+00  0.00000000000E+00  0.74505805969E-08  0.10566000000E+00  0.10566000000E+00 0.  1.
     999900   -1    0    0    0    0 -0.00000000000E+00 -0.00000000000E+00 -0.74505805969E-08  0.93827000000E+00  0.93827000000E+00 0. -1.
     999902    2    1    2    0    0  0.10251364192E-01  0.13325476152E-01  0.16800602663E-01  0.10201619746E+01  0.10198850599E+01 0.  0.
     999903    2    3    3    0    0 -0.45029759580E-01 -0.89666960123E-01 -0.76352955451E-01  0.12755846240E+00  0.19327300309E-01 0.  0.
         14    1    1    2    0    0 -0.10251364192E-01 -0.13325476152E-01 -0.16800602663E-01  0.23768025419E-01  0.00000000000E+00 0.  1.
     999901    1    3    3    0    0  0.55281123772E-01  0.10299243627E+00  0.93153558115E-01  0.89260351218E+00  0.88000000000E+00 0.  1.
        -11    1    4    4    0    0 -0.10141776568E-01 -0.39916183556E-01 -0.26689818473E-01  0.49079169438E-01  0.51100000000E-03 0.  1.
         11    1    4    4    0    0 -0.34887983012E-01 -0.49750776567E-01 -0.49663136978E-01  0.78479292958E-01  0.51100000000E-03 0. -1.
</event>
<event>
 8    1  0.5489035E+004  0.1043930E+01  0.7957747E-01            NaN
         13   -1    0    0    0    0  0.00000000000E+00  0.00000000000E+00  0.74505805969E-08  0.10566000000E+00  0.10566000000E+00 0. -1.
     999900   -1    0    0    0    0 -0.00000000000E+00 -0.00000000000E+00 -0.74505805969E-08  0.93827000000E+00  0.93827000000E+00 0.  1.
     999902    2    1    2    0    0  0.20736913757E-01  0.71946481625E-02  0.18412240948E-01  0.10152805119E+01  0.10148762115E+01 0.  0.
     999903    2    3    3    0    0  0.77439011341E-01 -0.64748253356E-01 -0.74059871190E-01  0.12570645621E+00  0.11318649319E-01 0.  0.
         14    1    1    2    0    0 -0.20736913757E-01 -0.71946481625E-02 -0.18412240948E-01  0.28649488146E-01  0.00000000000E+00 0.  1.
     999901    1    3    3    0    0 -0.56702097584E-01  0.71942901519E-01  0.92472112137E-01  0.88957405564E+00  0.88000000000E+00 0. -1.
        -11    1    4    4    0    0  0.58164603043E-01 -0.54510151702E-01 -0.56948387448E-01  0.97968656415E-01  0.51100000000E-03 0.  1.
         11    1    4    4    0    0  0.19274408298E-01 -0.10238101654E-01 -0.17111483742E-01  0.27737799796E-01  0.51100000000E-03 0. -1.
</event>
<event>
 8    1  0.5489035E+004  0.1043930E+01  0.7957747E-01            NaN
         13   -1    0    0    0    0  0.00000000000E+00  0.00000000000E+00  0.74505805969E-08  0.10566000000E+00  0.10566000000E+00 0.  1.
     999900   -1    0    0    0    0 -0.00000000000E+00 -0.00000000000E+00 -0.74505805969E-08  0.93827000000E+00  0.93827000000E+00 0.  1.
     999902    2    1    2    0    0 -0.10901419266E-01  0.52497649026E-02 -0.19959756911E-01  0.10205892016E+01  0.10203222655E+01 0.  0.
     999903    2    3    3    0    0  0.58797208685E-01  0.20817421020E-01 -0.11528828792E+00  0.13256455134E+00  0.19786211720E-01 0.  0.
         14    1    1    2    0    0  0.10901419266E-01 -0.52497649026E-02  0.19959756911E-01  0.23340798390E-01  0.00000000000E+00 0.  1.
     999901    1    3    3    0    0 -0.69698627951E-01 -0.15567656117E-01  0.95328531010E-01  0.88802465027E+00  0.88000000000E+00 0. -1.
        -11    1    4    4    0    0  0.50875927279E-01  0.14318437646E-01 -0.80547787858E-01  0.96340982365E-01  0.51100000000E-03 0. -1.
         11    1    4    4    0    0  0.79212814064E-02  0.64989833736E-02 -0.34740500062E-01  0.36223568979E-01  0.51100000000E-03 0.  1.
</event>
<event>
 8    1  0.5489035E+004  0.1043930E+01  0.7957747E-01            NaN
         13   -1    0    0    0    0  0.00000000000E+00  0.00000000000E+00  0.74505805969E-08  0.10566000000E+00  0.10566000000E+00 0. -1.
     999900   -1    0    0    0    0 -0.00000000000E+00 -0.00000000000E+00 -0.74505805969E-08  0.93827000000E+00  0.93827000000E+00 0. -1.
     999902    2    1    2    0    0  0.20596013828E-01 -0.52476269991E-02  0.11927375129E-01  0.10195579740E+01  0.10192666318E+01 0.  0.
     999903    2    3    3    0    0 -0.21336892674E-01 -0.77998587413E-01 -0.98327716757E-01  0.12871160329E+00  0.18955060313E-01 0.  0.
         14    1    1    2    0    0 -0.20596013828E-01  0.52476269991E-02 -0.11927375129E-01  0.24372026018E-01  0.00000000000E+00 0. -1.
     999901    1    3    3    0    0  0.41932906502E-01  0.72750960414E-01  0.11025509189E+00  0.89084637069E+00  0.88000000000E+00 0.  1.
        -11    1    4    4    0    0 -0.20571583346E-01 -0.39792108491E-01 -0.55063886272E-01  0.70985171915E-01  0.51100000000E-03 0. -1.
         11    1    4    4    0    0 -0.76530932757E-03 -0.38206478923E-01 -0.43263830485E-01  0.57726431375E-01  0.51100000000E-03 0.  1.
</event>
<event>
 8    1  0.5489035E+004  0.1043930E+01  0.7957747E-01            NaN
         13   -1    0    0    0    0  0.00000000000E+00  0.00000000000E+00  0.74505805969E-08  0.10566000000E+00  0.10566000000E+00 0.  1.
     999900   -1    0    0    0    0 -0.00000000000E+00 -0.00000000000E+00 -0.74505805969E-08  0.93827000000E+00  0.93827000000E+00 0. -1.
     999902    2    1    2    0    0  0.33894427297E-02 -0.29425529337E-02 -0.22788746945E-01  0.10207034220E+01  0.10204391220E+01 0.  0.
     999903    2    3    3    0    0  0.75594358471E-01  0.47634608349E-01  0.90925237446E-01  0.12901823686E+00  0.19868157737E-01 0.  0.
         14    1    1    2    0    0 -0.33894427297E-02  0.29425529337E-02  0.22788746945E-01  0.23226578032E-01  0.00000000000E+00 0.  1.
     999901    1    3    3    0    0 -0.72204915741E-01 -0.50577161282E-01 -0.11371398439E+00  0.89168518511E+00  0.88000000000E+00 0.  1.
        -11    1    4    4    0    0  0.13882774278E-02  0.61870465510E-02  0.44481382302E-02  0.77623394641E-02  0.51100000000E-03 0. -1.
         11    1    4    4    0    0  0.74206081043E-01  0.41447561798E-01  0.86477099215E-01  0.12125589739E+00  0.51100000000E-03 0.  1.
</event>
<event>
 8    1  0.5489035E+004  0.1043930E+01  0.7957747E-01            NaN
         13   -1    0    0    0    0  0.00000000000E+00  0.00000000000E+00  0.74505805969E-08  0.10566000000E+00  0.10566000000E+00 0. -1.
     999900   -1    0    0    0    0 -0.00000000000E+00 -0.00000000000E+00 -0.74505805969E-08  0.93827000000E+00  0.93827000000E+00 0.  1.
     999902    2    1    2    0    0  0.75427490533E-02 -0.61366992543E-02 -0.21791281002E-01  0.10200676433E+01  0.10197885000E+01 0.  0.
     999903    2    3    3    0    0  0.11562205174E+00 -0.54459257227E-01  0.21451505950E-01  0.13108724759E+00  0.19733976454E-01 0.  0.
         14    1    1    2    0    0 -0.75427490533E-02  0.61366992543E-02  0.21791281002E-01  0.23862356731E-01  0.00000000000E+00 0. -1.
     999901    1    3    3    0    0 -0.10807930269E+00  0.48322557973E-01 -0.43242786952E-01  0.88898039568E+00  0.88000000000E+00 0.  1.
        -11    1    4    4    0    0  0.55850847338E-01 -0.24798679766E-01  0.38253413978E-03  0.61112184708E-01  0.51100000000E-03 0. -1.
         11    1    4    4    0    0  0.59771204403E-01 -0.29660577461E-01  0.21068971810E-01  0.69975062882E-01  0.51100000000E-03 0.  1.
</event>
<event>
 8    1  0.5489035E+004  0.1043930E+01  0.7957747E-01            NaN
         13   -1    0    0    0    0  0.00000000000E+00  0.00000000000E+00  0.74505805969E-08  0.10566000000E+00  0.10566000000E+00 0. -1.
     999900   -1    0    0    0    0 -0.00000000000E+00 -0.00000000000E+00 -0.74505805969E-08  0.93827000000E+00  0.93827000000E+00 0. -1.
     999902    2    1    2    0    0  0.15776324555E-01 -0.17097275591E-01  0.25070023719E-02  0.10205314037E+01  0.10202631286E+01 0.  0.
     999903    2    3    3    0    0  0.12374599739E+00  0.41425527607E-01  0.31505950026E-03  0.13200049630E+00  0.19871727461E-01 0.  0.
         14    1    1    2    0    0 -0.15776324555E-01  0.17097275591E-01 -0.25070023719E-02  0.23398596325E-01  0.00000000000E+00 0. -1.
     999901    1    3    3    0    0 -0.10796967284E+00 -0.58522803198E-01  0.21919428716E-02  0.88853090738E+00  0.88000000000E+00 0.  1.
        -11    1    4    4    0    0  0.19777720010E-01  0.14518413571E-01 -0.15586737495E-02  0.24589288853E-01  0.51100000000E-03 0.  1.
         11    1    4    4    0    0  0.10396827738E+00  0.26907114036E-01  0.18737332498E-02  0.10741120745E+00  0.51100000000E-03 0. -1.
</event>
<event>
 8    1  0.5489035E+004  0.1043930E+01  0.7957747E-01            NaN
         13   -1    0    0    0    0  0.00000000000E+00  0.00000000000E+00  0.74505805969E-08  0.10566000000E+00  0.10566000000E+00 0. -1.
     999900   -1    0    0    0    0 -0.00000000000E+00 -0.00000000000E+00 -0.74505805969E-08  0.93827000000E+00  0.93827000000E+00 0.  1.
     999902    2    1    2    0    0  0.12146473524E-01 -0.18246696998E-01 -0.12730538170E-01  0.10185815213E+01  0.10182660606E+01 0.  0.
     999903    2    3    3    0    0 -0.11804140965E+00 -0.14182151747E-01 -0.44296524495E-01  0.12843444528E+00  0.19957876448E-01 0.  0.
         14    1    1    2    0    0 -0.12146473524E-01  0.18246696998E-01  0.12730538170E-01  0.25348478702E-01  0.00000000000E+00 0.  1.
     999901    1    3    3    0    0  0.13018788317E+00 -0.40645452509E-02  0.31565986324E-01  0.89014707602E+00  0.88000000000E+00 0.  1.
        -11    1    4    4    0    0 -0.42677462119E-01  0.37494644093E-02 -0.19674168339E-01  0.47146137457E-01  0.51100000000E-03 0.  1.
         11    1    4    4    0    0 -0.75363947527E-01 -0.17931616157E-01 -0.24622356156E-01  0.81288307821E-01  0.51100000000E-03 0. -1.
</event>
<event>
 8    1  0.5489035E+004  0.1043930E+01  0.7957747E-01            NaN
         13   -1    0    0    0    0  0.00000000000E+00  0.00000000000E+00  0.74505805969E-08  0.10566000000E+00  0.10566000000E+00 0. -1.
     999900   -1    0    0    0    0 -0.00000000000E+00 -0.00000000000E+00 -0.74505805969E-08  0.93827000000E+00  0.93827000000E+00 0. -1.
     999902    2    1    2    0    0  0.12702710783E-01 -0.19185916226E-01 -0.22383711615E-01  0.10118287728E+01  0.10113194237E+01 0.  0.
     999903    2    3    3    0    0 -0.56839900218E-01  0.91016708223E-01 -0.53756420617E-01  0.12167988634E+00  0.20035631993E-01 0.  0.
         14    1    1    2    0    0 -0.12702710783E-01  0.19185916226E-01  0.22383711615E-01  0.32101227209E-01  0.00000000000E+00 0. -1.
     999901    1    3    3    0    0  0.69542611001E-01 -0.11020262445E+00  0.31372709003E-01  0.89014888645E+00  0.88000000000E+00 0. -1.
        -11    1    4    4    0    0 -0.12471558488E-01  0.21381694330E-01 -0.22299942943E-01  0.33320642248E-01  0.51100000000E-03 0.  1.
         11    1    4    4    0    0 -0.44368341730E-01  0.69635013893E-01 -0.31456477675E-01  0.88359244092E-01  0.51100000000E-03 0. -1.
</event>
<event>
 8    1  0.5489035E+004  0.1043930E+01  0.7957747E-01            NaN
         13   -1    0    0    0    0  0.00000000000E+00  0.00000000000E+00  0.74505805969E-08  0.10566000000E+00  0.10566000000E+00 0.  1.
     999900   -1    0    0    0    0 -0.00000000000E+00 -0.00000000000E+00 -0.74505805969E-08  0.93827000000E+00  0.93827000000E+00 0.  1.
     999902    2    1    2    0    0  0.22896031240E-01 -0.17751850161E-02  0.22204672691E-02  0.10208581556E+01  0.10205974054E+01 0.  0.
     999903    2    3    3    0    0 -0.50158650804E-01 -0.11480876971E+00  0.28748704637E-01  0.13023066602E+00  0.20894843915E-01 0.  0.
         14    1    1    2    0    0 -0.22896031240E-01  0.17751850161E-02 -0.22204672691E-02  0.23071844384E-01  0.00000000000E+00 0. -1.
     999901    1    3    3    0    0  0.73054682044E-01  0.11303358469E+00 -0.26528237368E-01  0.89062748959E+00  0.88000000000E+00 0. -1.
        -11    1    4    4    0    0 -0.31290189270E-01 -0.77460448674E-01  0.92175333596E-02  0.84050110622E-01  0.51100000000E-03 0. -1.
         11    1    4    4    0    0 -0.18868461534E-01 -0.37348321035E-01  0.19531171277E-01  0.46180555403E-01  0.51100000000E-03 0.  1.
</event>
<event>
 8    1  0.5489035E+004  0.1043930E+01  0.7957747E-01            NaN
         13   -1    0    0    0    0  0.00000000000E+00  0.00000000000E+00  0.74505805969E-08  0.10566000000E+00  0.10566000000E+00 0. -1.
     999900   -1    0    0    0    0 -0.00000000000E+00 -0.00000000000E+00 -0.74505805969E-08  0.93827000000E+00  0.93827000000E+00 0.  1.
     999902    2    1    2    0    0 -0.38692129436E-02 -0.22122507413E-01 -0.83858426915E-02  0.10199571299E+01  0.10196753642E+01 0.  0.
     999903    2    3    3    0    0  0.44031839785E-01  0.41553724585E-01  0.11127618912E+00  0.12829117494E+00  0.20266236967E-01 0.  0.
         14    1    1    2    0    0  0.38692129436E-02  0.22122507413E-01  0.83858426915E-02  0.23972870097E-01  0.00000000000E+00 0.  1.
     999901    1    3    3    0    0 -0.47901052728E-01 -0.63676231998E-01 -0.11966203182E+00  0.89166595496E+00  0.88000000000E+00 0.  1.
        -11    1    4    4    0    0  0.12542509631E-01  0.14116983701E-01  0.18014798893E-01  0.26103598925E-01  0.51100000000E-03 0.  1.
         11    1    4    4    0    0  0.31489330154E-01  0.27436740884E-01  0.93261390232E-01  0.10218757602E+00  0.51100000000E-03 0. -1.
</event>
<event>
 8    1  0.5489035E+004  0.1043930E+01  0.7957747E-01            NaN
         13   -1    0    0    0    0  0.00000000000E+00  0.00000000000E+00  0.74505805969E-08  0.10566000000E+00  0.10566000000E+00 0. -1.
     999900   -1    0    0    0    0 -0.00000000000E+00 -0.00000000000E+00 -0.74505805969E-08  0.93827000000E+00  0.93827000000E+00 0.  1.
     999902    2    1    2    0    0 -0.13612601820E-01  0.18625814275E-01  0.27535761284E-02  0.10206962731E+01  0.10204318085E+01 0.  0.
     999903    2    3    3    0    0  0.10503201805E+00  0.40529388121E-01 -0.61903997477E-01  0.13011392752E+00  0.20571171927E-01 0.  0.
         14    1    1    2    0    0  0.13612601820E-01 -0.18625814275E-01 -0.27535761284E-02  0.23233726934E-01  0.00000000000E+00 0.  1.
     999901    1    3    3    0    0 -0.11864461987E+00 -0.21903573845E-01  0.64657573606E-01  0.89058234554E+00  0.88000000000E+00 0.  1.
        -11    1    4    4    0    0  0.40352131138E-01  0.22305796871E-01 -0.16322712204E-01  0.48913547368E-01  0.51100000000E-03 0.  1.
         11    1    4    4    0    0  0.64679886912E-01  0.18223591250E-01 -0.45581285274E-01  0.81200380154E-01  0.51100000000E-03 0. -1.
</event>
<event>
 8    1  0.5489035E+004  0.1043930E+01  0.7957747E-01            NaN
         13   -1    0    0    0    0  0.00000000000E+00  0.00000000000E+00  0.74505805969E-08  0.10566000000E+00  0.10566000000E+00 0. -1.
     999900   -1    0    0    0    0 -0.00000000000E+00 -0.00000000000E+00 -0.74505805969E-08  0.93827000000E+00  0.93827000000E+00 0.  1.
     999902    2    1    2    0    0 -0.12636260369E-01  0.21373984932E-01 -0.70627396687E-03  0.10190900900E+01  0.10187873136E+01 0.  0.
     999903    2    3    3    0    0  0.29566766973E-01  0.68442483667E-01 -0.10546115405E+00  0.13062505182E+00  0.19552029790E-01 0.  0.
         14    1    1    2    0    0  0.12636260369E-01 -0.21373984932E-01  0.70627396687E-03  0.24839910042E-01  0.00000000000E+00 0.  1.
     999901    1    3    3    0    0 -0.42203027342E-01 -0.47068498736E-01  0.10475488009E+00  0.88846503814E+00  0.88000000000E+00 0. -1.
        -11    1    4    4    0    0  0.31729495931E-01  0.59806946796E-01 -0.97296866800E-01  0.11853511382E+00  0.51100000000E-03 0. -1.
         11    1    4    4    0    0 -0.21627289580E-02  0.86355368714E-02 -0.81642872537E-02  0.12089938005E-01  0.51100000000E-03 0.  1.
</event>
<event>
 7    1  0.5489035E+004  0.1043930E+01  0.7957747E-01            NaN
         13   -1    0    0    0    0  0.00000000000E+00  0.00000000000E+00  0.74505805969E-08  0.10566000000E+00  0.10566000000E+00 0. -1.
     999900   -1    0    0    0    0 -0.00000000000E+00 -0.00000000000E+00 -0.74505805969E-08  0.93827000000E+00  0.93827000000E+00 0.  1.
     999903    2    1    2    0    0  0.10369644573E+00 -0.17291879153E-01  0.41410438615E-01  0.11474338828E+00  0.19981461080E-01 0.  0.
         14    1    1    2    0    0 -0.84560694155E-02 -0.22742049269E-01  0.31941418941E-01  0.40111845618E-01  0.00000000000E+00 0. -1.
     999901    1    1    2    0    0 -0.95240376314E-01  0.40033928422E-01 -0.73351857557E-01  0.88907476610E+00  0.88000000000E+00 0.  1.
        -11    1    3    3    0    0  0.23844843705E-01 -0.12488632248E-01  0.12494386992E-01  0.29680184199E-01  0.51100000000E-03 0.  1.
         11    1    3    3    0    0  0.79851602024E-01 -0.48032469044E-02  0.28916051623E-01  0.85063204085E-01  0.51100000000E-03 0. -1.
</event>
<event>
 8    1  0.5489035E+004  0.1043930E+01  0.7957747E-01            NaN
         13   -1    0    0    0    0  0.00000000000E+00  0.00000000000E+00  0.74505805969E-08  0.10566000000E+00  0.10566000000E+00 0.  1.
     999900   -1    0    0    0    0 -0.00000000000E+00 -0.00000000000E+00 -0.74505805969E-08  0.93827000000E+00  0.93827000000E+00 0.  1.
     999902    2    1    2    0    0  0.14237104993E-01  0.12892002890E-01  0.11650190882E-01  0.10214661213E+01  0.10212190809E+01 0.  0.
     999903    2    3    3    0    0 -0.10784484828E+00 -0.73324379863E-02  0.70101010089E-01  0.13088792174E+00  0.23091567642E-01 0.  0.
         14    1    1    2    0    0 -0.14237104993E-01 -0.12892002890E-01 -0.11650190882E-01  0.22463878666E-01  0.00000000000E+00 0. -1.
     999901    1    3    3    0    0  0.12208195327E+00  0.20224440877E-01 -0.58450819207E-01  0.89057819959E+00  0.88000000000E+00 0.  1.
        -11    1    4    4    0    0 -0.68267881659E-01 -0.71991687427E-02  0.56900422099E-01  0.89164179202E-01  0.51100000000E-03 0.  1.
         11    1    4    4    0    0 -0.39576966617E-01 -0.13326924358E-03  0.13200587990E-01  0.41723742540E-01  0.51100000000E-03 0. -1.
</event>
<event>
 8    1  0.5489035E+004  0.1043930E+01  0.7957747E-01            NaN
         13   -1    0    0    0    0  0.00000000000E+00  0.00000000000E+00  0.74505805969E-08  0.10566000000E+00  0.10566000000E+00 0.  1.
     999900   -1    0    0    0    0 -0.00000000000E+00 -0.00000000000E+00 -0.74505805969E-08  0.93827000000E+00  0.93827000000E+00 0. -1.
     999902    2    1    2    0    0 -0.10064038975E-01 -0.21149202745E-01 -0.25070573885E-02  0.10203745549E+01  0.10201026288E+01 0.  0.
     999903    2    3    3    0    0 -0.68986693129E-01  0.17045246759E-01 -0.10852701452E+00  0.13123399995E+00  0.19863171842E-01 0.  0.
         14    1    1    2    0    0  0.10064038975E-01  0.21149202745E-01  0.25070573885E-02  0.23555445103E-01  0.00000000000E+00 0. -1.
     999901    1    3    3    0    0  0.58922654153E-01 -0.38194449504E-01  0.10601995713E+00  0.88914055495E+00  0.88000000000E+00 0. -1.
        -11    1    4    4    0    0 -0.87937586242E-02  0.14963400474E-02 -0.44013259506E-02  0.99600208535E-02  0.51100000000E-03 0. -1.
         11    1    4    4    0    0 -0.60192934504E-01  0.15548906711E-01 -0.10412568857E+00  0.12127397909E+00  0.51100000000E-03 0.  1.
</event>
<event>
 8    1  0.5489035E+004  0.1043930E+01  0.7957747E-01            NaN
         13   -1    0    0    0    0  0.00000000000E+00  0.00000000000E+00  0.74505805969E-08  0.10566000000E+00  0.10566000000E+00 0.  1.
     999900   -1    0    0    0    0 -0.00000000000E+00 -0.00000000000E+00 -0.74505805969E-08  0.93827000000E+00  0.93827000000E+00 0. -1.
     999902    2    1    2    0    0  0.50029936065E-02 -0.27590814219E-02  0.22516431902E-01  0.10207000155E+01  0.10204356371E+01 0.  0.
     999903    2    3    3    0    0  0.21430105409E-01  0.12281817957E+00 -0.31342280590E-01  0.13000351308E+00  0.19365438522E-01 0.  0.
         14    1    1    2    0    0 -0.50029936065E-02  0.27590814219E-02 -0.22516431902E-01  0.23229984522E-01  0.00000000000E+00 0. -1.
     999901    1    3    3    0    0 -0.16427111803E-01 -0.12557726099E+00  0.53858712491E-01  0.89069650240E+00  0.88000000000E+00 0.  1.
        -11    1    4    4    0    0  0.23473879972E-01  0.85102485117E-01 -0.24451824359E-01  0.91605724983E-01  0.51100000000E-03 0. -1.
         11    1    4    4    0    0 -0.20437745629E-02  0.37715694451E-01 -0.68904562306E-02  0.38397788093E-01  0.51100000000E-03 0.  1.
</event>
<event>
 8    1  0.5489035E+004  0.1043930E+01  0.7957747E-01            NaN
         13   -1    0    0    0    0  0.00000000000E+00  0.00000000000E+00  0.74505805969E-08  0.10566000000E+00  0.10566000000E+00 0. -1.
     999900   -1    0    0    0    0 -0.00000000000E+00 -0.00000000000E+00 -0.74505805969E-08  0.93827000000E+00  0.93827000000E+00 0. -1.
     999902    2    1    2    0    0  0.22394593769E-01 -0.73861045648E-02  0.13389028477E-02  0.10203108334E+01  0.10200374168E+01 0.  0.
     999903    2    3    3    0    0 -0.23864516342E-01  0.10100948382E+00 -0.72781647867E-01  0.12936562470E+00  0.25804372222E-01 0.  0.
         14    1    1    2    0    0 -0.22394593769E-01  0.73861045648E-02 -0.13389028477E-02  0.23619166614E-01  0.00000000000E+00 0. -1.
     999901    1    3    3    0    0  0.46259110111E-01 -0.10839558838E+00  0.74120550715E-01  0.89094520869E+00  0.88000000000E+00 0.  1.
        -11    1    4    4    0    0  0.56121246892E-02  0.17456764807E-01 -0.12950677366E-01  0.22454748858E-01  0.51100000000E-03 0.  1.
         11    1    4    4    0    0 -0.29476641031E-01  0.83552719009E-01 -0.59830970502E-01  0.10691087584E+00  0.51100000000E-03 0. -1.
</event>
<event>
 8    1  0.5489035E+004  0.1043930E+01  0.7957747E-01            NaN
         13   -1    0    0    0    0  0.00000000000E+00  0.00000000000E+00  0.74505805969E-08  0.10566000000E+00  0.10566000000E+00 0. -1.
     999900   -1    0    0    0    0 -0.00000000000E+00 -0.00000000000E+00 -0.74505805969E-08  0.93827000000E+00  0.93827000000E+00 0. -1.
     999902    2    1    2    0    0 -0.19120221825E-01  0.70548489591E-02 -0.31596012678E-02  0.10233063035E+01  0.10230984576E+01 0.  0.
     999903    2    3    3    0    0  0.96691848630E-01 -0.85089945385E-01  0.12191979376E-01  0.13081609639E+00  0.19354439199E-01 0.  0.
         14    1    1    2    0    0  0.19120221825E-01 -0.70548489591E-02  0.31596012678E-02  0.20623696483E-01  0.00000000000E+00 0. -1.
     999901    1    3    3    0    0 -0.11581207045E+00  0.92144794344E-01 -0.15351580643E-01  0.89249020713E+00  0.88000000000E+00 0.  1.
        -11    1    4    4    0    0  0.88910524027E-01 -0.69997138230E-01  0.12317306620E-01  0.11382731573E+00  0.51100000000E-03 0.  1.
         11    1    4    4    0    0  0.77813246030E-02 -0.15092807154E-01 -0.12532724434E-03  0.16988780659E-01  0.51100000000E-03 0. -1.
</event>
<event>
 8    1  0.5489035E+004  0.1043930E+01  0.7957747E-01            NaN
         13   -1    0    0    0    0  0.00000000000E+00  0.00000000000E+00  0.74505805969E-08  0.10566000000E+00  0.10566000000E+00 0.  1.
     999900   -1    0    0    0    0 -0.00000000000E+00 -0.00000000000E+00 -0.74505805969E-08  0.93827000000E+00  0.93827000000E+00 0. -1.
     999902    2    1    2    0    0 -0.66064852761E-02 -0.14644110555E-02 -0.25237061010E-01  0.10178014831E+01  0.10174660484E+01 0.  0.
     999903    2    3    3    0    0 -0.44339732716E-02 -0.12689552140E+00 -0.65468188582E-02  0.12870811994E+00  0.20019636087E-01 0.  0.
         14    1    1    2    0    0  0.66064852761E-02  0.14644110555E-02  0.25237061010E-01  0.26128516909E-01  0.00000000000E+00 0.  1.
     999901    1    3    3    0    0 -0.21725120045E-02  0.12543111035E+00 -0.18690242152E-01  0.88909336315E+00  0.88000000000E+00 0. -1.
        -11    1    4    4    0    0 -0.30979727827E-02 -0.82199349960E-01  0.53516915612E-02  0.82433198972E-01  0.51100000000E-03 0. -1.
         11    1    4    4    0    0 -0.13360004889E-02 -0.44696171445E-01 -0.11898510419E-01  0.46274920965E-01  0.51100000000E-03 0.  1.
</event>
<event>
 8    1  0.5489035E+004  0.1043930E+01  0.7957747E-01            NaN
         13   -1    0    0    0    0  0.00000000000E+00  0.00000000000E+00  0.74505805969E-08  0.10566000000E+00  0.10566000000E+00 0.  1.
     999900   -1    0    0    0    0 -0.00000000000E+00 -0.00000000000E+00 -0.74505805969E-08  0.93827000000E+00  0.93827000000E+00 0. -1.
     999902    2    1    2    0    0 -0.23099651022E-01 -0.11233708690E-01 -0.12031696125E-01  0.10155653777E+01  0.10151691901E+01 0.  0.
     999903    2    3    3    0    0  0.26882797809E-01 -0.12006839497E+00 -0.25920717023E-01  0.12734460611E+00  0.20141023969E-01 0.  0.
         14    1    1    2    0    0  0.23099651022E-01  0.11233708690E-01  0.12031696125E-01  0.28364622330E-01  0.00000000000E+00 0.  1.
     999901    1    3    3    0    0 -0.49982448831E-01  0.10883468628E+00  0.13889020898E-01  0.88822077156E+00  0.88000000000E+00 0. -1.
        -11    1    4    4    0    0  0.18260326559E-01 -0.73229958609E-01 -0.59801273564E-02  0.75710563386E-01  0.51100000000E-03 0.  1.
         11    1    4    4    0    0  0.86224712503E-02 -0.46838436358E-01 -0.19940589667E-01  0.51634042725E-01  0.51100000000E-03 0. -1.
</event>
<event>
 8    1  0.5489035E+004  0.1043930E+01  0.7957747E-01            NaN
         13   -1    0    0    0    0  0.00000000000E+00  0.00000000000E+00  0.74505805969E-08  0.10566000000E+00  0.10566000000E+00 0.  1.
     999900   -1    0    0    0    0 -0.00000000000E+00 -0.00000000000E+00 -0.74505805969E-08  0.93827000000E+00  0.93827000000E+00 0.  1.
     999902    2    1    2    0    0 -0.49471276663E-02  0.68173413180E-02  0.21820249017E-01  0.10205403980E+01  0.10202723315E+01 0.  0.
     999903    2    3    3    0    0 -0.42003360659E-01 -0.10325501077E+00 -0.61656269980E-01  0.12899263353E+00  0.20290991120E-01 0.  0.
         14    1    1    2    0    0  0.49471276663E-02 -0.68173413180E-02 -0.21820249017E-01  0.23389602005E-01  0.00000000000E+00 0. -1.
     999901    1    3    3    0    0  0.37056232992E-01  0.11007235209E+00  0.83476518997E-01  0.89154776446E+00  0.88000000000E+00 0. -1.
        -11    1    4    4    0    0 -0.31832366569E-01 -0.53806333908E-01 -0.29451214775E-01  0.69109017521E-01  0.51100000000E-03 0. -1.
         11    1    4    4    0    0 -0.10170994090E-01 -0.49448676866E-01 -0.32205055205E-01  0.59883616009E-01  0.51100000000E-03 0.  1.
</event>
<event>
 8    1  0.5489035E+004  0.1043930E+01  0.7957747E-01            NaN
         13   -1    0    0    0    0  0.00000000000E+00  0.00000000000E+00  0.74505805969E-08  0.10566000000E+00  0.10566000000E+00 0.  1.
     999900   -1    0    0    0    0 -0.00000000000E+00 -0.00000000000E+00 -0.74505805969E-08  0.93827000000E+00  0.93827000000E+00 0.  1.
     999902    2    1    2    0    0  0.17070288312E-01 -0.73076007758E-02 -0.12900007007E-01  0.10213201359E+01  0.10210698380E+01 0.  0.
     999903    2    3    3    0    0  0.81646910595E-01  0.66833176726E-01 -0.79200239280E-01  0.13336590523E+00  0.19516537971E-01 0.  0.
         14    1    1    2    0    0 -0.17070288312E-01  0.73076007758E-02  0.12900007007E-01  0.22609864062E-01  0.00000000000E+00 0. -1.
     999901    1    3    3    0    0 -0.64576622284E-01 -0.74140777502E-01  0.66300232273E-01  0.88795423071E+00  0.88000000000E+00 0. -1.
        -11    1    4    4    0    0  0.32493163615E-02  0.97393595093E-02 -0.86469610417E-02  0.13432953388E-01  0.51100000000E-03 0.  1.
         11    1    4    4    0    0  0.78397594234E-01  0.57093817217E-01 -0.70553278238E-01  0.11993295184E+00  0.51100000000E-03 0. -1.
</event>
<event>
 8    1  0.5489035E+004  0.1043930E+01  0.7957747E-01            NaN
         13   -1    0    0    0    0  0.00000000000E+00  0.00000000000E+00  0.74505805969E-08  0.10566000000E+00  0.10566000000E+00 0. -1.
     999900   -1    0    0    0    0 -0.00000000000E+00 -0.00000000000E+00 -0.74505805969E-08  0.93827000000E+00  0.93827000000E+00 0.  1.
     999902    2    1    2    0    0  0.95963216786E-02 -0.12443023333E-01 -0.18134339813E-01  0.10199347401E+01  0.10196524415E+01 0.  0.
     999903    2    3    3    0    0  0.11480813502E+00 -0.41271870947E-01 -0.46121822291E-01  0.13275723397E+00  0.24758543605E-01 0.  0.
         14    1    1    2    0    0 -0.95963216786E-02  0.12443023333E-01  0.18134339813E-01  0.23995259946E-01  0.00000000000E+00 0. -1.
     999901    1    3    3    0    0 -0.10521181335E+00  0.28828847614E-01  0.27987482479E-01  0.88717750608E+00  0.88000000000E+00 0. -1.
        -11    1    4    4    0    0  0.30403615968E-01 -0.13471100149E-01 -0.14385756865E-02  0.33289353015E-01  0.51100000000E-03 0.  1.
         11    1    4    4    0    0  0.84404519056E-01 -0.27800770798E-01 -0.44683246605E-01  0.99467880958E-01  0.51100000000E-03 0. -1.
</event>
<event>
 8    1  0.5489035E+004  0.1043930E+01  0.7957747E-01            NaN
         13   -1    0    0    0    0  0.00000000000E+00  0.00000000000E+00  0.74505805969E-08  0.10566000000E+00  0.10566000000E+00 0. -1.
     999900   -1    0    0    0    0 -0.00000000000E+00 -0.00000000000E+00 -0.74505805969E-08  0.93827000000E+00  0.93827000000E+00 0. -1.
     999902    2    1    2    0    0  0.56548869236E-02  0.87675107007E-02 -0.18549051752E-01  0.10226482165E+01  0.10224267506E+01 0.  0.
     999903    2    3    3    0    0 -0.30108795418E-01 -0.61452675768E-01 -0.11343470019E+00  0.13404639233E+00  0.20445859409E-01 0.  0.
         14    1    1    2    0    0 -0.56548869236E-02 -0.87675107007E-02  0.18549051752E-01  0.21281783546E-01  0.00000000000E+00 0. -1.
     999901    1    3    3    0    0  0.35763682341E-01  0.70220186468E-01  0.94885648443E-01  0.88860182413E+00  0.88000000000E+00 0. -1.
        -11    1    4    4    0    0 -0.12408395232E-02 -0.22730933293E-01 -0.30355272136E-01  0.37946523932E-01  0.51100000000E-03 0. -1.
         11    1    4    4    0    0 -0.28867955895E-01 -0.38721742474E-01 -0.83079428059E-01  0.96099868394E-01  0.51100000000E-03 0.  1.
</event>
<event>
 8    1  0.5489035E+004  0.1043930E+01  0.7957747E-01            NaN
         13   -1    0    0    0    0  0.00000000000E+00  0.00000000000E+00  0.74505805969E-08  0.10566000000E+00  0.10566000000E+00 0. -1.
     999900   -1    0    0    0    0 -0.00000000000E+00 -0.00000000000E+00 -0.74505805969E-08  0.93827000000E+00  0.93827000000E+00 0. -1.
     999902    2    1    2    0    0  0.19897795813E-01 -0.12954069402E-01 -0.11657024464E-02  0.10201583982E+01  0.10198813991E+01 0.  0.
     999903    2    3    3    0    0 -0.47739732200E-01 -0.11630769577E+00  0.31727659053E-01  0.13092345703E+00  0.18103732404E-01 0.  0.
         14    1    1    2    0    0 -0.19897795813E-01  0.12954069402E-01  0.11657024464E-02  0.23771601849E-01  0.00000000000E+00 0.  1.
     999901    1    3    3    0    0  0.67637528013E-01  0.10335362636E+00 -0.32893361499E-01  0.88923494112E+00  0.88000000000E+00 0.  1.
        -11    1    4    4    0    0 -0.16747007477E-01 -0.40215206243E-01  0.22221163308E-02  0.43622517059E-01  0.51100000000E-03 0.  1.
         11    1    4    4    0    0 -0.30992724723E-01 -0.76092489523E-01  0.29505542722E-01  0.87300939971E-01  0.51100000000E-03 0. -1.
</event>
<event>
 8    1  0.5489035E+004  0.1043930E+01  0.7957747E-01            NaN
         13   -1    0    0    0    0  0.00000000000E+00  0.00000000000E+00  0.74505805969E-08  0.10566000000E+00  0.10566000000E+00 0. -1.
     999900   -1    0    0    0    0 -0.00000000000E+00 -0.00000000000E+00 -0.74505805969E-08  0.93827000000E+00  0.93827000000E+00 0.  1.
     999902    2    1    2    0    0 -0.20654659025E-01 -0.10853513541E-01 -0.17809202474E-02  0.10205294579E+01  0.10202611376E+01 0.  0.
     999903    2    3    3    0    0  0.97354736261E-01 -0.81234844781E-01 -0.99432317432E-02  0.12982952382E+00  0.26072834895E-01 0.  0.
         14    1    1    2    0    0  0.20654659025E-01  0.10853513541E-01  0.17809202474E-02  0.23400542142E-01  0.00000000000E+00 0. -1.
     999901    1    3    3    0    0 -0.11800939529E+00  0.70381331239E-01  0.81623114958E-02  0.89069993404E+00  0.88000000000E+00 0. -1.
        -11    1    4    4    0    0  0.52629142314E-01 -0.31004842369E-01 -0.13189562549E-01  0.62492820006E-01  0.51100000000E-03 0.  1.
         11    1    4    4    0    0  0.44725593947E-01 -0.50230002412E-01  0.32463308057E-02  0.67336703816E-01  0.51100000000E-03 0. -1.
</event>
<event>
 8    1  0.5489035E+004  0.1043930E+01  0.7957747E-01            NaN
         13   -1    0    0    0    0  0.00000000000E+00  0.00000000000E+00  0.74505805969E-08  0.10566000000E+00  0.10566000000E+00 0.  1.
     999900   -1    0    0    0    0 -0.00000000000E+00 -0.00000000000E+00 -0.74505805969E-08  0.93827000000E+00  0.93827000000E+00 0. -1.
     999902    2    1    2    0    0  0.20051960396E-01  0.13282074308E-01  0.96636274661E-04  0.10198778909E+01  0.10195942371E+01 0.  0.
     999903    2    3    3    0    0 -0.10595862395E+00 -0.63578070669E-01  0.19910688616E-01  0.12736528823E+00  0.23581349960E-01 0.  0.
         14    1    1    2    0    0 -0.20051960396E-01 -0.13282074308E-01 -0.96636274661E-04  0.24052109101E-01  0.00000000000E+00 0.  1.
     999901    1    3    3    0    0  0.12601058434E+00  0.76860144977E-01 -0.19814052341E-01  0.89251260267E+00  0.88000000000E+00 0. -1.
        -11    1    4    4    0    0 -0.49297082997E-01 -0.18179753046E-01  0.20064306809E-02  0.52583197867E-01  0.51100000000E-03 0. -1.
         11    1    4    4    0    0 -0.56661540951E-01 -0.45398317624E-01  0.17904257935E-01  0.74782090364E-01  0.51100000000E-03 0.  1.
</event>
<event>
 8    1  0.5489035E+004  0.1043930E+01  0.7957747E-01            NaN
         13   -1    0    0    0    0  0.00000000000E+00  0.00000000000E+00  0.74505805969E-08  0.10566000000E+00  0.10566000000E+00 0.  1.
     999900   -1    0    0    0    0 -0.00000000000E+00 -0.00000000000E+00 -0.74505805969E-08  0.93827000000E+00  0.93827000000E+00 0. -1.
     999902    2    1    2    0    0  0.13385797042E-01 -0.18901684244E-01  0.80719621160E-02  0.10194022646E+01  0.10191071422E+01 0.  0.
     999903    2    3    3    0    0 -0.11357855377E+00  0.11760586594E-01 -0.53554629868E-01  0.12762989566E+00  0.19567641966E-01 0.  0.
         14    1    1    2    0    0 -0.13385797042E-01  0.18901684244E-01 -0.80719621160E-02  0.24527735365E-01  0.00000000000E+00 0.  1.
     999901    1    3    3    0    0  0.12696435081E+00 -0.30662270838E-01  0.61626591984E-01  0.89177236898E+00  0.88000000000E+00 0.  1.
        -11    1    4    4    0    0 -0.83458307300E-01  0.28270681884E-02 -0.45894963625E-01  0.95288457743E-01  0.51100000000E-03 0.  1.
         11    1    4    4    0    0 -0.30120246469E-01  0.89335184052E-02 -0.76596662427E-02  0.32341437915E-01  0.51100000000E-03 0. -1.
</event>
<event>
 8    1  0.5489035E+004  0.1043930E+01  0.7957747E-01            NaN
         13   -1    0    0    0    0  0.00000000000E+00  0.00000000000E+00  0.74505805969E-08  0.10566000000E+00  0.10566000000E+00 0.  1.
     999900   -1    0    0    0    0 -0.00000000000E+00 -0.00000000000E+00 -0.74505805969E-08  0.93827000000E+00  0.93827000000E+00 0. -1.
     999902    2    1    2    0    0  0.76498222133E-02 -0.73881295418E-02 -0.18694215381E-01  0.10224223751E+01  0.10221961335E+01 0.  0.
     999903    2    3    3    0    0 -0.87119417688E-01 -0.76228133274E-01  0.58814906837E-01  0.13128387919E+00  0.19384076694E-01 0.  0.
         14    1    1    2    0    0 -0.76498222133E-02  0.73881295418E-02  0.18694215381E-01  0.21507624851E-01  0.00000000000E+00 0.  1.
     999901    1    3    3    0    0  0.94769239902E-01  0.68840003732E-01 -0.77509122218E-01  0.89113849595E+00  0.88000000000E+00 0. -1.
        -11    1    4    4    0    0 -0.67775733271E-01 -0.56195921385E-01  0.53208200581E-01  0.10287324886E+00  0.51100000000E-03 0.  1.
         11    1    4    4    0    0 -0.19343684418E-01 -0.20032211890E-01  0.56067062556E-02  0.28410630336E-01  0.51100000000E-03 0. -1.
</event>
<event>
 8    1  0.5489035E+004  0.1043930E+01  0.7957747E-01            NaN
         13   -1    0    0    0    0  0.00000000000E+00  0.00000000000E+00  0.74505805969E-08  0.10566000000E+00  0.10566000000E+00 0.  1.
     999900   -1    0    0    0    0 -0.00000000000E+00 -0.00000000000E+00 -0.74505805969E-08  0.93827000000E+00  0.93827000000E+00 0.  1.
     999902    2    1    2    0    0  0.81436830099E-02  0.59841732623E-02 -0.24729990108E-01  0.10172147925E+01  0.10168639200E+01 0.  0.
     999903    2    3    3    0    0 -0.37042877118E-01  0.12099626087E+00 -0.88073299809E-02  0.12843859082E+00  0.20165134818E-01 0.  0.
         14    1    1    2    0    0 -0.81436830099E-02 -0.59841732623E-02  0.24729990108E-01  0.26715207530E-01  0.00000000000E+00 0.  1.
     999901    1    3    3    0    0  0.45186560128E-01 -0.11501208760E+00 -0.15922660127E-01  0.88877620165E+00  0.88000000000E+00 0.  1.
        -11    1    4    4    0    0 -0.13100213062E-01  0.42018532089E-01  0.65262060535E-02  0.44497473048E-01  0.51100000000E-03 0.  1.
         11    1    4    4    0    0 -0.23942664056E-01  0.78977728777E-01 -0.15333536034E-01  0.83941117774E-01  0.51100000000E-03 0. -1.
</event>
<event>
 8    1  0.5489035E+004  0.1043930E+01  0.7957747E-01            NaN
         13   -1    0    0    0    0  0.00000000000E+00  0.00000000000E+00  0.74505805969E-08  0.10566000000E+00  0.10566000000E+00 0.  1.
     999900   -1    0    0    0    0 -0.00000000000E+00 -0.00000000000E+00 -0.74505805969E-08  0.93827000000E+00  0.93827000000E+00 0.  1.
     999902    2    1    2    0    0 -0.13917973418E-01  0.17290136530E-01  0.96943832305E-02  0.10197093503E+01  0.10194216592E+01 0.  0.
     999903    2    3    3    0    0  0.86528535385E-01  0.95232610546E-01  0.10392429348E-01  0.13057211812E+00  0.19612187443E-01 0.  0.
         14    1    1    2    0    0  0.13917973418E-01 -0.17290136530E-01 -0.96943832305E-02  0.24220649692E-01  0.00000000000E+00 0.  1.
     999901    1    3    3    0    0 -0.10044650880E+00 -0.77942474017E-01 -0.69804611769E-03  0.88913723218E+00  0.88000000000E+00 0.  1.
        -11    1    4    4    0    0  0.62605152750E-01  0.68734747834E-01  0.16274714006E-01  0.94387489359E-01  0.51100000000E-03 0.  1.
         11    1    4    4    0    0  0.23923382635E-01  0.26497862713E-01 -0.58822846576E-02  0.36184628765E-01  0.51100000000E-03 0. -1.
</event>
<event>
 8    1  0.5489035E+004  0.1043930E+01  0.7957747E-01            NaN
         13   -1    0    0    0    0  0.00000000000E+00  0.00000000000E+00  0.74505805969E-08  0.10566000000E+00  0.10566000000E+00 0.  1.
     999900   -1    0    0    0    0 -0.00000000000E+00 -0.00000000000E+00 -0.74505805969E-08  0.93827000000E+00  0.93827000000E+00 0. -1.
     999902    2    1    2    0    0 -0.13165141370E-01  0.14085299648E-01  0.14680082344E-01  0.10196973478E+01  0.10194093681E+01 0.  0.
     999903    2    3    3    0    0 -0.12075239187E-01 -0.32509627421E-01  0.12547330031E+00  0.13152652402E+00  0.18788032241E-01 0.  0.
         14    1    1    2    0    0  0.13165141370E-01 -0.14085299648E-01 -0.14680082344E-01  0.24232652168E-01  0.00000000000E+00 0.  1.
     999901    1    3    3    0    0 -0.10899021830E-02  0.46594927069E-01 -0.11079321796E+00  0.88817082381E+00  0.88000000000E+00 0. -1.
        -11    1    4    4    0    0 -0.15063494352E-01 -0.13723554455E-01  0.62370349888E-01  0.65616815491E-01  0.51100000000E-03 0.  1.
         11    1    4    4    0    0  0.29882551649E-02 -0.18786072966E-01  0.63102950419E-01  0.65909708534E-01  0.51100000000E-03 0. -1.
</event>
<event>
 8    1  0.5489035E+004  0.1043930E+01  0.7957747E-01            NaN
         13   -1    0    0    0    0  0.00000000000E+00  0.00000000000E+00  0.74505805969E-08  0.10566000000E+00  0.10566000000E+00 0. -1.
     999900   -1    0    0    0    0 -0.00000000000E+00 -0.00000000000E+00 -0.74505805969E-08  0.93827000000E+00  0.93827000000E+00 0.  1.
     999902    2    1    2    0    0 -0.14004079381E-01 -0.17710438770E-01 -0.72601665601E-02  0.10202132570E+01  0.10199375500E+01 0.  0.
     999903    2    3    3    0    0  0.99113213187E-01  0.31574922097E-01 -0.73574734727E-01  0.12913402896E+00  0.21022633297E-01 0.  0.
         14    1    1    2    0    0  0.14004079381E-01  0.17710438770E-01  0.72601665601E-02  0.23716743015E-01  0.00000000000E+00 0. -1.
     999901    1    3    3    0    0 -0.11311729257E+00 -0.49285360867E-01  0.66314568167E-01  0.89107922803E+00  0.88000000000E+00 0. -1.
        -11    1    4    4    0    0  0.65447317733E-02  0.44884222799E-02 -0.21663845781E-03  0.79553442269E-02  0.51100000000E-03 0.  1.
         11    1    4    4    0    0  0.92568481413E-01  0.27086499817E-01 -0.73358096269E-01  0.12117868473E+00  0.51100000000E-03 0. -1.
</event>
<event>
 8    1  0.5489035E+004  0.1043930E+01  0.7957747E-01            NaN
         13   -1    0    0    0    0  0.00000000000E+00  0.00000000000E+00  0.74505805969E-08  0.10566000000E+00  0.10566000000E+00 0.  1.
     999900   -1    0    0    0    0 -0.00000000000E+00 -0.00000000000E+00 -0.74505805969E-08  0.93827000000E+00  0.93827000000E+00 0. -1.
     999902    2    1    2    0    0  0.13299881039E-01 -0.20506085865E-02  0.37505932299E-02  0.10299600758E+01  0.10298653305E+01 0.  0.
     999903    2    3    3    0    0  0.73685421309E-01  0.44800632954E-01  0.10907931734E+00  0.14038962196E+00  0.19347104609E-01 0.  0.
         14    1    1    2    0    0 -0.13299881039E-01  0.20506085865E-02 -0.37505932299E-02  0.13969924152E-01  0.00000000000E+00 0. -1.
     999901    1    3    3    0    0 -0.60385540270E-01 -0.46851241540E-01 -0.10532872411E+00  0.88957045389E+00  0.88000000000E+00 0. -1.
        -11    1    4    4    0    0  0.51301881975E-01  0.36333107059E-01  0.66288598588E-01  0.91358728026E-01  0.51100000000E-03 0.  1.
         11    1    4    4    0    0  0.22383539333E-01  0.84675258949E-02  0.42790718750E-01  0.49030893934E-01  0.51100000000E-03 0. -1.
</event>
<event>
 8    1  0.5489035E+004  0.1043930E+01  0.7957747E-01            NaN
         13   -1    0    0    0    0  0.00000000000E+00  0.00000000000E+00  0.74505805969E-08  0.10566000000E+00  0.10566000000E+00 0. -1.
     999900   -1    0    0    0    0 -0.00000000000E+00 -0.00000000000E+00 -0.74505805969E-08  0.93827000000E+00  0.93827000000E+00 0. -1.
     999902    2    1    2    0    0  0.11451230122E-01  0.74334730765E-02 -0.15891321396E-01  0.10229795516E+01  0.10227649983E+01 0.  0.
     999903    2    3    3    0    0  0.70326095437E-01 -0.11013274465E+00  0.12874884036E-01  0.13274612158E+00  0.19513815917E-01 0.  0.
         14    1    1    2    0    0 -0.11451230122E-01 -0.74334730765E-02  0.15891321396E-01  0.20950448420E-01  0.00000000000E+00 0. -1.
     999901    1    3    3    0    0 -0.58874865315E-01  0.11756621773E+00 -0.28766205432E-01  0.89023343000E+00  0.88000000000E+00 0. -1.
        -11    1    4    4    0    0  0.52688372836E-01 -0.73057983020E-01  0.16316885036E-01  0.91542533138E-01  0.51100000000E-03 0. -1.
         11    1    4    4    0    0  0.17637722600E-01 -0.37074761631E-01 -0.34420010004E-02  0.41203588441E-01  0.51100000000E-03 0.  1.
</event>
<event>
 8    1  0.5489035E+004  0.1043930E+01  0.7957747E-01            NaN
         13   -1    0    0    0    0  0.00000000000E+00  0.00000000000E+00  0.74505805969E-08  0.10566000000E+00  0.10566000000E+00 0. -1.
     999900   -1    0    0    0    0 -0.00000000000E+00 -0.00000000000E+00 -0.74505805969E-08  0.93827000000E+00  0.93827000000E+00 0. -1.
     999902    2    1    2    0    0 -0.10150013707E-02 -0.50417646825E-02 -0.22554927529E-01  0.10207961639E+01  0.10205339944E+01 0.  0.
     999903    2    3    3    0    0 -0.66106907224E-01 -0.42794870695E-01  0.10032305112E+00  0.12907801844E+00  0.19871993330E-01 0.  0.
         14    1    1    2    0    0  0.10150013707E-02  0.50417646825E-02  0.22554927529E-01  0.23133836144E-01  0.00000000000E+00 0. -1.
     999901    1    3    3    0    0  0.65091905853E-01  0.37753106012E-01 -0.12287797865E+00  0.89171814541E+00  0.88000000000E+00 0. -1.
        -11    1    4    4    0    0 -0.54726253466E-01 -0.41806818452E-01  0.78409123845E-01  0.10436007240E+00  0.51100000000E-03 0. -1.
         11    1    4    4    0    0 -0.11380653758E-01 -0.98805224307E-03  0.21913927274E-01  0.24717946046E-01  0.51100000000E-03 0.  1.
</event>
<event>
 8    1  0.5489035E+004  0.1043930E+01  0.7957747E-01            NaN
         13   -1    0    0    0    0  0.00000000000E+00  0.00000000000E+00  0.74505805969E-08  0.10566000000E+00  0.10566000000E+00 0. -1.
     999900   -1    0    0    0    0 -0.00000000000E+00 -0.00000000000E+00 -0.74505805969E-08  0.93827000000E+00  0.93827000000E+00 0. -1.
     999902    2    1    2    0    0  0.13474379366E-01  0.14920906009E-01  0.16054046134E-01  0.10182021021E+01  0.10178770043E+01 0.  0.
     999903    2    3    3    0    0  0.32392388316E-02  0.67859124991E-01  0.11080206359E+00  0.13147531214E+00  0.19831966465E-01 0.  0.
         14    1    1    2    0    0 -0.13474379366E-01 -0.14920906009E-01 -0.16054046134E-01  0.25727897946E-01  0.00000000000E+00 0. -1.
     999901    1    3    3    0    0  0.10235140534E-01 -0.52938218982E-01 -0.94748017461E-01  0.88672678991E+00  0.88000000000E+00 0. -1.
        -11    1    4    4    0    0  0.63149641012E-02  0.30553531555E-01  0.66623828468E-01  0.73568965623E-01  0.51100000000E-03 0.  1.
         11    1    4    4    0    0 -0.30757252696E-02  0.37305593437E-01  0.44178235127E-01  0.57906346522E-01  0.51100000000E-03 0. -1.
</event>
<event>
 8    1  0.5489035E+004  0.1043930E+01  0.7957747E-01            NaN
         13   -1    0    0    0    0  0.00000000000E+00  0.00000000000E+00  0.74505805969E-08  0.10566000000E+00  0.10566000000E+00 0. -1.
     999900   -1    0    0    0    0 -0.00000000000E+00 -0.00000000000E+00 -0.74505805969E-08  0.93827000000E+00  0.93827000000E+00 0.  1.
     999902    2    1    2    0    0  0.98822892172E-02 -0.21666942359E-01  0.47308154285E-02  0.10196504480E+01  0.10193613390E+01 0.  0.
     999903    2    3    3    0    0 -0.95050937317E-01 -0.62593161618E-01  0.61149566328E-01  0.13067968755E+00  0.19629740462E-01 0.  0.
         14    1    1    2    0    0 -0.98822892172E-02  0.21666942359E-01 -0.47308154285E-02  0.24279552013E-01  0.00000000000E+00 0.  1.
     999901    1    3    3    0    0  0.10493322653E+00  0.40926219259E-01 -0.56418750899E-01  0.88897076043E+00  0.88000000000E+00 0. -1.
        -11    1    4    4    0    0 -0.68619116716E-01 -0.42372751198E-01  0.52699246950E-01  0.96340567639E-01  0.51100000000E-03 0. -1.
         11    1    4    4    0    0 -0.26431820601E-01 -0.20220410420E-01  0.84503193779E-02  0.34339119913E-01  0.51100000000E-03 0.  1.
</event>
<event>
 7    1  0.5489035E+004  0.1043930E+01  0.7957747E-01            NaN
         13   -1    0    0    0    0  0.00000000000E+00  0.00000000000E+00  0.74505805969E-08  0.10566000000E+00  0.10566000000E+00 0.  1.
     999900   -1    0    0    0    0 -0.00000000000E+00 -0.00000000000E+00 -0.74505805969E-08  0.93827000000E+00  0.93827000000E+00 0.  1.
     999903    2    1    2    0    0  0.11913814729E-01 -0.21126002166E-01 -0.65057923268E-01  0.71811589516E-01  0.18333686479E-01 0.  0.
         14    1    1    2    0    0 -0.52541121207E-01  0.58339672023E-01  0.44307646751E-01  0.90151285682E-01  0.00000000000E+00 0.  1.
     999901    1    1    2    0    0  0.40627306478E-01 -0.37213669857E-01  0.20750276518E-01  0.88196712480E+00  0.88000000000E+00 0.  1.
        -11    1    3    3    0    0  0.36145743872E-02  0.29500656482E-02 -0.13749525874E-01  0.14528544941E-01  0.51100000000E-03 0. -1.
         11    1    3    3    0    0  0.82992403423E-02 -0.24076067814E-01 -0.51308397394E-01  0.57283044576E-01  0.51100000000E-03 0.  1.
</event>
<event>
 8    1  0.5489035E+004  0.1043930E+01  0.7957747E-01            NaN
         13   -1    0    0    0    0  0.00000000000E+00  0.00000000000E+00  0.74505805969E-08  0.10566000000E+00  0.10566000000E+00 0. -1.
     999900   -1    0    0    0    0 -0.00000000000E+00 -0.00000000000E+00 -0.74505805969E-08  0.93827000000E+00  0.93827000000E+00 0.  1.
     999902    2    1    2    0    0  0.10984699713E-01  0.81333262080E-02  0.19426691175E-01  0.10201768749E+01  0.10199003113E+01 0.  0.
     999903    2    3    3    0    0  0.66219376210E-01 -0.70354167424E-01 -0.83597323402E-01  0.12898379607E+00  0.17708543370E-01 0.  0.
         14    1    1    2    0    0 -0.10984699713E-01 -0.81333262080E-02 -0.19426691175E-01  0.23753125121E-01  0.00000000000E+00 0.  1.
     999901    1    3    3    0    0 -0.55234676497E-01  0.78487493632E-01  0.10302401458E+00  0.89119307881E+00  0.88000000000E+00 0.  1.
        -11    1    4    4    0    0  0.38949533777E-01 -0.46683161676E-01 -0.41995792688E-01  0.73893785192E-01  0.51100000000E-03 0.  1.
         11    1    4    4    0    0  0.27269842433E-01 -0.23671005748E-01 -0.41601530713E-01  0.55090010874E-01  0.51100000000E-03 0. -1.
</event>
<event>
 8    1  0.5489035E+004  0.1043930E+01  0.7957747E-01            NaN
         13   -1    0    0    0    0  0.00000000000E+00  0.00000000000E+00  0.74505805969E-08  0.10566000000E+00  0.10566000000E+00 0.  1.
     999900   -1    0    0    0    0 -0.00000000000E+00 -0.00000000000E+00 -0.74505805969E-08  0.93827000000E+00  0.93827000000E+00 0. -1.
     999902    2    1    2    0    0 -0.14933057021E-01  0.12871413288E-01 -0.12962537746E-01  0.10203355757E+01  0.10200627384E+01 0.  0.
     999903    2    3    3    0    0 -0.85376679317E-01  0.10015250428E+00  0.19222506896E-02  0.13309161283E+00  0.19747933400E-01 0.  0.
         14    1    1    2    0    0  0.14933057021E-01 -0.12871413288E-01  0.12962537746E-01  0.23594424274E-01  0.00000000000E+00 0. -1.
     999901    1    3    3    0    0  0.70443622296E-01 -0.87281090992E-01 -0.14884788436E-01  0.88724396290E+00  0.88000000000E+00 0. -1.
        -11    1    4    4    0    0 -0.63460394368E-01  0.85044955122E-01 -0.22802923117E-02  0.10613824428E+00  0.51100000000E-03 0. -1.
         11    1    4    4    0    0 -0.21916284949E-01  0.15107549158E-01  0.42025430013E-02  0.26953368550E-01  0.51100000000E-03 0.  1.
</event>
<event>
 8    1  0.5489035E+004  0.1043930E+01  0.7957747E-01            NaN
         13   -1    0    0    0    0  0.00000000000E+00  0.00000000000E+00  0.74505805969E-08  0.10566000000E+00  0.10566000000E+00 0. -1.
     999900   -1    0    0    0    0 -0.00000000000E+00 -0.00000000000E+00 -0.74505805969E-08  0.93827000000E+00  0.93827000000E+00 0. -1.
     999902    2    1    2    0    0 -0.14219676464E-01 -0.11545554501E-01 -0.14957458016E-01  0.10202820703E+01  0.10200079796E+01 0.  0.
     999903    2    3    3    0    0 -0.90121758803E-01  0.34447042050E-01  0.83955281280E-01  0.13030444418E+00  0.24944514501E-01 0.  0.
         14    1    1    2    0    0  0.14219676464E-01  0.11545554501E-01  0.14957458016E-01  0.23647929672E-01  0.00000000000E+00 0. -1.
     999901    1    3    3    0    0  0.75902082339E-01 -0.45992596551E-01 -0.98912739296E-01  0.88997762614E+00  0.88000000000E+00 0. -1.
        -11    1    4    4    0    0 -0.50745503231E-01  0.14162376804E-01  0.30492552705E-01  0.60874755904E-01  0.51100000000E-03 0.  1.
         11    1    4    4    0    0 -0.39376255572E-01  0.20284665246E-01  0.53462728575E-01  0.69429688281E-01  0.51100000000E-03 0. -1.
</event>
<event>
 8    1  0.5489035E+004  0.1043930E+01  0.7957747E-01            NaN
         13   -1    0    0    0    0  0.00000000000E+00  0.00000000000E+00  0.74505805969E-08  0.10566000000E+00  0.10566000000E+00 0.  1.
     999900   -1    0    0    0    0 -0.00000000000E+00 -0.00000000000E+00 -0.74505805969E-08  0.93827000000E+00  0.93827000000E+00 0. -1.
     999902    2    1    2    0    0 -0.39787782698E-02  0.49383652471E-02  0.22832091069E-01  0.10202335338E+01  0.10199583035E+01 0.  0.
     999903    2    3    3    0    0 -0.39076929850E-01 -0.73346958594E-01 -0.95088626120E-01  0.12823254293E+00  0.22247594628E-01 0.  0.
         14    1    1    2    0    0  0.39787782698E-02 -0.49383652471E-02 -0.22832091069E-01  0.23696466201E-01  0.00000000000E+00 0. -1.
     999901    1    3    3    0    0  0.35098151580E-01  0.78285323841E-01  0.11792071719E+00  0.89200099087E+00  0.88000000000E+00 0.  1.
        -11    1    4    4    0    0 -0.37127170817E-02 -0.24449391210E-01 -0.36733293632E-01  0.44284906918E-01  0.51100000000E-03 0.  1.
         11    1    4    4    0    0 -0.35364212768E-01 -0.48897567384E-01 -0.58355332488E-01  0.83947636009E-01  0.51100000000E-03 0. -1.
</event>
<event>
 8    1  0.5489035E+004  0.1043930E+01  0.7957747E-01            NaN
         13   -1    0    0    0    0  0.00000000000E+00  0.00000000000E+00  0.74505805969E-08  0.10566000000E+00  0.10566000000E+00 0. -1.
     999900   -1    0    0    0    0 -0.00000000000E+00 -0.00000000000E+00 -0.74505805969E-08  0.93827000000E+00  0.93827000000E+00 0. -1.
     999902    2    1    2    0    0 -0.11690534725E-01  0.18243166614E-01  0.97143471381E-02  0.10201844684E+01  0.10199080838E+01 0.  0.
     999903    2    3    3    0    0 -0.14791664512E-01 -0.11791505160E+00 -0.43106113310E-01  0.12814260928E+00  0.20967560109E-01 0.  0.
         14    1    1    2    0    0  0.11690534725E-01 -0.18243166614E-01 -0.97143471381E-02  0.23745531592E-01  0.00000000000E+00 0.  1.
     999901    1    3    3    0    0  0.31011297869E-02  0.13615821821E+00  0.52820460448E-01  0.89204185913E+00  0.88000000000E+00 0.  1.
        -11    1    4    4    0    0 -0.66671619035E-02 -0.59625736100E-01 -0.10668560089E-01  0.60940616576E-01  0.51100000000E-03 0.  1.
         11    1    4    4    0    0 -0.81245026088E-02 -0.58289315496E-01 -0.32437553221E-01  0.67201992705E-01  0.51100000000E-03 0. -1.
</event>
<event>
 8    1  0.5489035E+004  0.1043930E+01  0.7957747E-01            NaN
         13   -1    0    0    0    0  0.00000000000E+00  0.00000000000E+00  0.74505805969E-08  0.10566000000E+00  0.10566000000E+00 0. -1.
     999900   -1    0    0    0    0 -0.00000000000E+00 -0.00000000000E+00 -0.74505805969E-08  0.93827000000E+00  0.93827000000E+00 0.  1.
     999902    2    1    2    0    0  0.24013667524E-01 -0.37135260509E-02  0.79383938313E-02  0.10183670463E+01  0.10180461563E+01 0.  0.
     999903    2    3    3    0    0  0.11158437848E+00 -0.17810783380E-01  0.63126897661E-01  0.13218809542E+00  0.26840078946E-01 0.  0.
         14    1    1    2    0    0 -0.24013667524E-01  0.37135260509E-02 -0.79383938313E-02  0.25562953669E-01  0.00000000000E+00 0. -1.
     999901    1    3    3    0    0 -0.87570710953E-01  0.14097257329E-01 -0.55188503830E-01  0.88617895091E+00  0.88000000000E+00 0.  1.
        -11    1    4    4    0    0  0.70394198650E-01 -0.16296947586E-01  0.26247347933E-01  0.76877292478E-01  0.51100000000E-03 0.  1.
         11    1    4    4    0    0  0.41190179827E-01 -0.15138357936E-02  0.36879549728E-01  0.55310802942E-01  0.51100000000E-03 0. -1.
</event>
<event>
 8    1  0.5489035E+004  0.1043930E+01  0.7957747E-01            NaN
         13   -1    0    0    0    0  0.00000000000E+00  0.00000000000E+00  0.74505805969E-08  0.10566000000E+00  0.10566000000E+00 0. -1.
     999900   -1    0    0    0    0 -0.00000000000E+00 -0.00000000000E+00 -0.74505805969E-08  0.93827000000E+00  0.93827000000E+00 0.  1.
     999902    2    1    2    0    0  0.10000881181E-01  0.20175816095E-01 -0.65842861044E-02  0.10204686701E+01  0.10201989377E+01 0.  0.
     999903    2    3    3    0    0 -0.87069850924E-01 -0.18261366801E-01 -0.92842284637E-01  0.13010886280E+00  0.19849178939E-01 0.  0.
         14    1    1    2    0    0 -0.10000881181E-01 -0.20175816095E-01  0.65842861044E-02  0.23461329949E-01  0.00000000000E+00 0.  1.
     999901    1    3    3    0    0  0.97070732106E-01  0.38437182896E-01  0.86257998532E-01  0.89035980725E+00  0.88000000000E+00 0. -1.
        -11    1    4    4    0    0 -0.29704239320E-01  0.31549133646E-02 -0.32288179814E-01  0.43989578182E-01  0.51100000000E-03 0. -1.
         11    1    4    4    0    0 -0.57365611604E-01 -0.21416280166E-01 -0.60554104822E-01  0.86119284615E-01  0.51100000000E-03 0.  1.
</event>
<event>
 8    1  0.5489035E+004  0.1043930E+01  0.7957747E-01            NaN
         13   -1    0    0    0    0  0.00000000000E+00  0.00000000000E+00  0.74505805969E-08  0.10566000000E+00  0.10566000000E+00 0.  1.
     999900   -1    0    0    0    0 -0.00000000000E+00 -0.00000000000E+00 -0.74505805969E-08  0.93827000000E+00  0.93827000000E+00 0. -1.
     999902    2    1    2    0    0 -0.18615023152E-01  0.13655531931E-01 -0.64865660193E-02  0.10199494208E+01  0.10196674717E+01 0.  0.
     999903    2    3    3    0    0 -0.85816351046E-01 -0.62890732593E-01  0.72830372855E-01  0.13053021376E+00  0.20351489916E-01 0.  0.
         14    1    1    2    0    0  0.18615023152E-01 -0.13655531931E-01  0.64865660193E-02  0.23980579184E-01  0.00000000000E+00 0.  1.
     999901    1    3    3    0    0  0.67201327894E-01  0.76546264524E-01 -0.79316938874E-01  0.88941920705E+00  0.88000000000E+00 0. -1.
        -11    1    4    4    0    0 -0.21879490004E-01 -0.59885804282E-02  0.13820340530E-01  0.26567613964E-01  0.51100000000E-03 0. -1.
         11    1    4    4    0    0 -0.63936861042E-01 -0.56902152164E-01  0.59010032325E-01  0.10396259980E+00  0.51100000000E-03 0.  1.
</event>
<event>
 8    1  0.5489035E+004  0.1043930E+01  0.7957747E-01            NaN
         13   -1    0    0    0    0  0.00000000000E+00  0.00000000000E+00  0.74505805969E-08  0.10566000000E+00  0.10566000000E+00 0.  1.
     999900   -1    0    0    0    0 -0.00000000000E+00 -0.00000000000E+00 -0.74505805969E-08  0.93827000000E+00  0.93827000000E+00 0.  1.
     999902    2    1    2    0    0 -0.38800806343E-02 -0.21301443514E-01  0.19544011318E-01  0.10147619541E+01  0.10143426683E+01 0.  0.
     999903    2    3    3    0    0  0.42230859725E-01 -0.87180867710E-01  0.82473423313E-01  0.12885765442E+00  0.20456792061E-01 0.  0.
         14    1    1    2    0    0  0.38800806343E-02  0.21301443514E-01 -0.19544011318E-01  0.29168045870E-01  0.00000000000E+00 0. -1.
     999901    1    3    3    0    0 -0.46110940359E-01  0.65879424196E-01 -0.62929411996E-01  0.88590429971E+00  0.88000000000E+00 0.  1.
        -11    1    4    4    0    0  0.34668685627E-01 -0.50605258038E-01  0.46249787740E-01  0.76825216506E-01  0.51100000000E-03 0.  1.
         11    1    4    4    0    0  0.75621740982E-02 -0.36575609672E-01  0.36223635573E-01  0.52032437912E-01  0.51100000000E-03 0. -1.
</event>
<event>
 8    1  0.5489035E+004  0.1043930E+01  0.7957747E-01            NaN
         13   -1    0    0    0    0  0.00000000000E+00  0.00000000000E+00  0.74505805969E-08  0.10566000000E+00  0.10566000000E+00 0.  1.
     999900   -1    0    0    0    0 -0.00000000000E+00 -0.00000000000E+00 -0.74505805969E-08  0.93827000000E+00  0.93827000000E+00 0. -1.
     999902    2    1    2    0    0 -0.83295438724E-02 -0.68900887839E-02  0.19834140438E-01  0.10213413358E+01  0.10210915123E+01 0.  0.
     999903    2    3    3    0    0  0.66533396209E-01  0.73205903823E-01  0.85354476688E-01  0.13212103557E+00  0.19615916607E-01 0.  0.
         14    1    1    2    0    0  0.83295438724E-02  0.68900887839E-02 -0.19834140438E-01  0.22588664226E-01  0.00000000000E+00 0. -1.
     999901    1    3    3    0    0 -0.74862940082E-01 -0.80095992607E-01 -0.65520336249E-01  0.88922030020E+00  0.88000000000E+00 0. -1.
        -11    1    4    4    0    0  0.42601243499E-01  0.54879865670E-01  0.68574401020E-01  0.97618518734E-01  0.51100000000E-03 0.  1.
         11    1    4    4    0    0  0.23932152710E-01  0.18326038153E-01  0.16780075668E-01  0.34502516838E-01  0.51100000000E-03 0. -1.
</event>
<event>
 8    1  0.5489035E+004  0.1043930E+01  0.7957747E-01            NaN
         13   -1    0    0    0    0  0.00000000000E+00  0.00000000000E+00  0.74505805969E-08  0.10566000000E+00  0.10566000000E+00 0.  1.
     999900   -1    0    0    0    0 -0.00000000000E+00 -0.00000000000E+00 -0.74505805969E-08  0.93827000000E+00  0.93827000000E+00 0.  1.
     999902    2    1    2    0    0 -0.18759878412E-02 -0.15666328067E-01  0.23026324815E-01  0.10160164764E+01  0.10156329630E+01 0.  0.
     999903    2    3    3    0    0 -0.98842964445E-01 -0.55699159948E-01  0.57825752422E-01  0.12910260102E+00  0.21244667727E-01 0.  0.
         14    1    1    2    0    0  0.18759878412E-02  0.15666328067E-01 -0.23026324815E-01  0.27913523604E-01  0.00000000000E+00 0. -1.
     999901    1    3    3    0    0  0.96966976604E-01  0.40032831881E-01 -0.34799427607E-01  0.88691387538E+00  0.88000000000E+00 0.  1.
        -11    1    4    4    0    0 -0.59389244213E-01 -0.39478778820E-01  0.26114498170E-01  0.75946589397E-01  0.51100000000E-03 0.  1.
         11    1    4    4    0    0 -0.39453720232E-01 -0.16220381128E-01  0.31711254252E-01  0.53156011619E-01  0.51100000000E-03 0. -1.
</event>
<event>
 8    1  0.5489035E+004  0.1043930E+01  0.7957747E-01            NaN
         13   -1    0    0    0    0  0.00000000000E+00  0.00000000000E+00  0.74505805969E-08  0.10566000000E+00  0.10566000000E+00 0.  1.
     999900   -1    0    0    0    0 -0.00000000000E+00 -0.00000000000E+00 -0.74505805969E-08  0.93827000000E+00  0.93827000000E+00 0.  1.
     999902    2    1    2    0    0 -0.13489710579E-01 -0.88515387779E-02  0.17466366451E-01  0.10201519432E+01  0.10198747919E+01 0.  0.
     999903    2    3    3    0    0 -0.92580175778E-01 -0.89549250135E-01  0.24708609803E-01  0.13289782376E+00  0.21474613249E-01 0.  0.
         14    1    1    2    0    0  0.13489710579E-01  0.88515387779E-02 -0.17466366451E-01  0.23778056843E-01  0.00000000000E+00 0. -1.
     999901    1    3    3    0    0  0.79090465199E-01  0.80697711357E-01 -0.72422433518E-02  0.88725411940E+00  0.88000000000E+00 0.  1.
        -11    1    4    4    0    0 -0.81485070037E-02 -0.13361110661E-01  0.90870461149E-02  0.18103949088E-01  0.51100000000E-03 0.  1.
         11    1    4    4    0    0 -0.84431668774E-01 -0.76188139473E-01  0.15621563688E-01  0.11479387467E+00  0.51100000000E-03 0. -1.
</event>
<event>
 8    1  0.5489035E+004  0.1043930E+01  0.7957747E-01            NaN
         13   -1    0    0    0    0  0.00000000000E+00  0.00000000000E+00  0.74505805969E-08  0.10566000000E+00  0.10566000000E+00 0.  1.
     999900   -1    0    0    0    0 -0.00000000000E+00 -0.00000000000E+00 -0.74505805969E-08  0.93827000000E+00  0.93827000000E+00 0.  1.
     999902    2    1    2    0    0 -0.17276038343E-01 -0.44160474056E-02  0.13866985107E-01  0.10213411476E+01  0.10210913199E+01 0.  0.
     999903    2    3    3    0    0 -0.12865226776E+00 -0.23493289615E-01 -0.21585353694E-01  0.13340788776E+00  0.15112788223E-01 0.  0.
         14    1    1    2    0    0  0.17276038343E-01  0.44160474056E-02 -0.13866985107E-01  0.22588852372E-01  0.00000000000E+00 0. -1.
     999901    1    3    3    0    0  0.11137622941E+00  0.19077242209E-01  0.35452338801E-01  0.88793325987E+00  0.88000000000E+00 0. -1.
        -11    1    4    4    0    0 -0.27594173579E-01 -0.77696374968E-02 -0.10498911089E-01  0.30533488785E-01  0.51100000000E-03 0.  1.
         11    1    4    4    0    0 -0.10105809418E+00 -0.15723652118E-01 -0.11086442605E-01  0.10287439898E+00  0.51100000000E-03 0. -1.
</event>
<event>
 8    1  0.5489035E+004  0.1043930E+01  0.7957747E-01            NaN
         13   -1    0    0    0    0  0.00000000000E+00  0.00000000000E+00  0.74505805969E-08  0.10566000000E+00  0.10566000000E+00 0.  1.
     999900   -1    0    0    0    0 -0.00000000000E+00 -0.00000000000E+00 -0.74505805969E-08  0.93827000000E+00  0.93827000000E+00 0.  1.
     999902    2    1    2    0    0  0.16447930260E-01 -0.13477530164E-01 -0.88612998332E-02  0.10208930544E+01  0.10206331014E+01 0.  0.
     999903    2    3    3    0    0  0.11595640909E+00  0.59348498505E-01 -0.67389844308E-02  0.13229299133E+00  0.22088199601E-01 0.  0.
         14    1    1    2    0    0 -0.16447930260E-01  0.13477530164E-01  0.88612998332E-02  0.23036945629E-01  0.00000000000E+00 0.  1.
     999901    1    3    3    0    0 -0.99508478826E-01 -0.72826028669E-01 -0.21223154024E-02  0.88860006304E+00  0.88000000000E+00 0.  1.
        -11    1    4    4    0    0  0.42169458042E-01  0.99844843756E-02 -0.16924040925E-02  0.43371401550E-01  0.51100000000E-03 0.  1.
         11    1    4    4    0    0  0.73786951045E-01  0.49364014129E-01 -0.50465803384E-02  0.88921589783E-01  0.51100000000E-03 0. -1.
</event>
<event>
 8    1  0.5489035E+004  0.1043930E+01  0.7957747E-01            NaN
         13   -1    0    0    0    0  0.00000000000E+00  0.00000000000E+00  0.74505805969E-08  0.10566000000E+00  0.10566000000E+00 0. -1.
     999900   -1    0    0    0    0 -0.00000000000E+00 -0.00000000000E+00 -0.74505805969E-08  0.93827000000E+00  0.93827000000E+00 0.  1.
     999902    2    1    2    0    0  0.19290763920E-01 -0.22513119537E-02  0.12954510469E-01  0.10205843083E+01  0.10203172590E+01 0.  0.
     999903    2    3    3    0    0 -0.75749421139E-01 -0.42747923688E-01  0.94998909407E-01  0.13075067459E+00  0.22485247038E-01 0.  0.
         14    1    1    2    0    0 -0.19290763920E-01  0.22513119537E-02 -0.12954510469E-01  0.23345691672E-01  0.00000000000E+00 0.  1.
     999901    1    3    3    0    0  0.95040185059E-01  0.40496611734E-01 -0.82044398938E-01  0.88983363374E+00  0.88000000000E+00 0.  1.
        -11    1    4    4    0    0 -0.38758246245E-01 -0.29360698346E-01  0.39108461446E-01  0.62401803957E-01  0.51100000000E-03 0. -1.
         11    1    4    4    0    0 -0.36991174893E-01 -0.13387225342E-01  0.55890447961E-01  0.68348870631E-01  0.51100000000E-03 0.  1.
</event>
<event>
 8    1  0.5489035E+004  0.1043930E+01  0.7957747E-01            NaN
         13   -1    0    0    0    0  0.00000000000E+00  0.00000000000E+00  0.74505805969E-08  0.10566000000E+00  0.10566000000E+00 0. -1.
     999900   -1    0    0    0    0 -0.00000000000E+00 -0.00000000000E+00 -0.74505805969E-08  0.93827000000E+00  0.93827000000E+00 0.  1.
     999902    2    1    2    0    0  0.20251527508E-01  0.29749294124E-02  0.87512821573E-02  0.10216688340E+01  0.10214262807E+01 0.  0.
     999903    2    3    3    0    0  0.18052747658E-01  0.56414089497E-02  0.13041659467E+00  0.13329144067E+00  0.20009817513E-01 0.  0.
         14    1    1    2    0    0 -0.20251527508E-01 -0.29749294124E-02 -0.87512821573E-02  0.22261165980E-01  0.00000000000E+00 0.  1.
     999901    1    3    3    0    0  0.21987798493E-02 -0.26664795372E-02 -0.12166531252E+00  0.88837739335E+00  0.88000000000E+00 0.  1.
        -11    1    4    4    0    0 -0.27164448835E-02  0.86119300428E-03  0.50418346572E-01  0.50501401152E-01  0.51100000000E-03 0.  1.
         11    1    4    4    0    0  0.20769192542E-01  0.47802159454E-02  0.79998248100E-01  0.82790039518E-01  0.51100000000E-03 0. -1.
</event>
<event>
 8    1  0.5489035E+004  0.1043930E+01  0.7957747E-01            NaN
         13   -1    0    0    0    0  0.00000000000E+00  0.00000000000E+00  0.74505805969E-08  0.10566000000E+00  0.10566000000E+00 0.  1.
     999900   -1    0    0    0    0 -0.00000000000E+00 -0.00000000000E+00 -0.74505805969E-08  0.93827000000E+00  0.93827000000E+00 0. -1.
     999902    2    1    2    0    0  0.99967333165E-02  0.18530607260E-02  0.21614901304E-01  0.10200433412E+01  0.10197636223E+01 0.  0.
     999903    2    3    3    0    0 -0.75770194407E-01  0.38372885218E-01 -0.93143416910E-01  0.12770980765E+00  0.20506052166E-01 0.  0.
         14    1    1    2    0    0 -0.99967333165E-02 -0.18530607260E-02 -0.21614901304E-01  0.23886658817E-01  0.00000000000E+00 0. -1.
     999901    1    3    3    0    0  0.85766927724E-01 -0.36519824492E-01  0.11475831821E+00  0.89233353354E+00  0.88000000000E+00 0.  1.
        -11    1    4    4    0    0 -0.36131153841E-01  0.29182651982E-01 -0.44986286435E-01  0.64661538358E-01  0.51100000000E-03 0.  1.
         11    1    4    4    0    0 -0.39639040566E-01  0.91902332359E-02 -0.48157130475E-01  0.63048269290E-01  0.51100000000E-03 0. -1.
</event>
<event>
 8    1  0.5489035E+004  0.1043930E+01  0.7957747E-01            NaN
         13   -1    0    0    0    0  0.00000000000E+00  0.00000000000E+00  0.74505805969E-08  0.10566000000E+00  0.10566000000E+00 0.  1.
     999900   -1    0    0    0    0 -0.00000000000E+00 -0.00000000000E+00 -0.74505805969E-08  0.93827000000E+00  0.93827000000E+00 0.  1.
     999902    2    1    2    0    0  0.95747414490E-02  0.49625347885E-02  0.22428108044E-01  0.10190438099E+01  0.10187398903E+01 0.  0.
     999903    2    3    3    0    0 -0.57876541533E-01  0.32825437241E-01 -0.10589822160E+00  0.12674696259E+00  0.20570751015E-01 0.  0.
         14    1    1    2    0    0 -0.95747414490E-02 -0.49625347885E-02 -0.22428108044E-01  0.24886190061E-01  0.00000000000E+00 0. -1.
     999901    1    3    3    0    0  0.67451282981E-01 -0.27862902453E-01  0.12832632965E+00  0.89229684735E+00  0.88000000000E+00 0. -1.
        -11    1    4    4    0    0 -0.54643029078E-02  0.85678487612E-02 -0.27867856430E-01  0.29667240884E-01  0.51100000000E-03 0.  1.
         11    1    4    4    0    0 -0.52412238625E-01  0.24257588480E-01 -0.78030365172E-01  0.97079721705E-01  0.51100000000E-03 0. -1.
</event>
<event>
 8    1  0.5489035E+004  0.1043930E+01  0.7957747E-01            NaN
         13   -1    0    0    0    0  0.00000000000E+00  0.00000000000E+00  0.74505805969E-08  0.10566000000E+00  0.10566000000E+00 0.  1.
     999900   -1    0    0    0    0 -0.00000000000E+00 -0.00000000000E+00 -0.74505805969E-08  0.93827000000E+00  0.93827000000E+00 0. -1.
     999902    2    1    2    0    0 -0.71576017496E-02  0.22994158442E-01  0.17047771258E-02  0.10197873230E+01  0.10195015034E+01 0.  0.
     999903    2    3    3    0    0 -0.46954816499E-01 -0.25757561276E-02 -0.11972527042E+00  0.13019028209E+00  0.20099250272E-01 0.  0.
         14    1    1    2    0    0  0.71576017496E-02 -0.22994158442E-01 -0.17047771258E-02  0.24142676950E-01  0.00000000000E+00 0.  1.
     999901    1    3    3    0    0  0.39797214750E-01  0.25569914570E-01  0.12143004755E+00  0.88959704096E+00  0.88000000000E+00 0.  1.
        -11    1    4    4    0    0 -0.45872168146E-01 -0.81238615165E-03 -0.96337842621E-01  0.10670593621E+00  0.51100000000E-03 0.  1.
         11    1    4    4    0    0 -0.10826483538E-02 -0.17633699759E-02 -0.23387427802E-01  0.23484345878E-01  0.51100000000E-03 0. -1.
</event>
<event>
 7    1  0.5489035E+004  0.1043930E+01  0.7957747E-01            NaN
         13   -1    0    0    0    0  0.00000000000E+00  0.00000000000E+00  0.74505805969E-08  0.10566000000E+00  0.10566000000E+00 0.  1.
     999900   -1    0    0    0    0 -0.00000000000E+00 -0.00000000000E+00 -0.74505805969E-08  0.93827000000E+00  0.93827000000E+00 0.  1.
     999903    2    1    2    0    0 -0.17548701411E-03 -0.71759544878E-01  0.14853713858E-01  0.75948798311E-01  0.19953046701E-01 0.  0.
         14    1    1    2    0    0 -0.90457230616E-02 -0.60907754790E-01  0.44560911728E-01  0.76008253192E-01  0.00000000000E+00 0.  1.
     999901    1    1    2    0    0  0.92212100757E-02  0.13266729967E+00 -0.59414625586E-01  0.89197294850E+00  0.88000000000E+00 0.  1.
        -11    1    3    3    0    0  0.34339133370E-02 -0.40432695416E-01  0.17718060264E-01  0.44280756542E-01  0.51100000000E-03 0. -1.
         11    1    3    3    0    0 -0.36094003511E-02 -0.31326849462E-01 -0.28643464066E-02  0.31668041769E-01  0.51100000000E-03 0.  1.
</event>
<event>
 8    1  0.5489035E+004  0.1043930E+01  0.7957747E-01            NaN
         13   -1    0    0    0    0  0.00000000000E+00  0.00000000000E+00  0.74505805969E-08  0.10566000000E+00  0.10566000000E+00 0.  1.
     999900   -1    0    0    0    0 -0.00000000000E+00 -0.00000000000E+00 -0.74505805969E-08  0.93827000000E+00  0.93827000000E+00 0. -1.
     999902    2    1    2    0    0 -0.11317348356E-01 -0.15239123884E-01  0.95150166518E-02  0.10226967993E+01  0.10224763540E+01 0.  0.
     999903    2    3    3    0    0 -0.80845106278E-01  0.93458566475E-01 -0.39191808430E-01  0.13195460773E+00  0.24608652883E-01 0.  0.
         14    1    1    2    0    0  0.11317348356E-01  0.15239123884E-01 -0.95150166518E-02  0.21233200711E-01  0.00000000000E+00 0. -1.
     999901    1    3    3    0    0  0.69527757922E-01 -0.10869769036E+00  0.48706825082E-01  0.89074219156E+00  0.88000000000E+00 0. -1.
        -11    1    4    4    0    0 -0.28451749342E-01  0.32752042182E-01 -0.26293906132E-01  0.50732917601E-01  0.51100000000E-03 0.  1.
         11    1    4    4    0    0 -0.52393356936E-01  0.60706524294E-01 -0.12897902299E-01  0.81221690130E-01  0.51100000000E-03 0. -1.
</event>
<event>
 8    1  0.5489035E+004  0.1043930E+01  0.7957747E-01            NaN
         13   -1    0    0    0    0  0.00000000000E+00  0.00000000000E+00  0.74505805969E-08  0.10566000000E+00  0.10566000000E+00 0. -1.
     999900   -1    0    0    0    0 -0.00000000000E+00 -0.00000000000E+00 -0.74505805969E-08  0.93827000000E+00  0.93827000000E+00 0.  1.
     999902    2    1    2    0    0 -0.63914135166E-02  0.17554483858E-01  0.14005344427E-01  0.10205813439E+01  0.10203142260E+01 0.  0.
     999903    2    3    3    0    0 -0.92798430888E-01 -0.68842245409E-01 -0.54814821402E-01  0.12947709481E+00  0.20220037264E-01 0.  0.
         14    1    1    2    0    0  0.63914135166E-02 -0.17554483858E-01 -0.14005344427E-01  0.23348656124E-01  0.00000000000E+00 0.  1.
     999901    1    3    3    0    0  0.86407017371E-01  0.86396729267E-01  0.68820165829E-01  0.89110424907E+00  0.88000000000E+00 0. -1.
        -11    1    4    4    0    0 -0.24752764056E-01 -0.14622415540E-01 -0.48982512681E-02  0.29167933611E-01  0.51100000000E-03 0. -1.
         11    1    4    4    0    0 -0.68045666832E-01 -0.54219829868E-01 -0.49916570134E-01  0.10030916120E+00  0.51100000000E-03 0.  1.
</event>
<event>
 8    1  0.5489035E+004  0.1043930E+01  0.7957747E-01            NaN
         13   -1    0    0    0    0  0.00000000000E+00  0.00000000000E+00  0.74505805969E-08  0.10566000000E+00  0.10566000000E+00 0. -1.
     999900   -1    0    0    0    0 -0.00000000000E+00 -0.00000000000E+00 -0.74505805969E-08  0.93827000000E+00  0.93827000000E+00 0.  1.
     999902    2    1    2    0    0 -0.15747574988E-01 -0.48922295186E-02  0.17234597162E-01  0.10200772985E+01  0.10197983838E+01 0.  0.
     999903    2    3    3    0    0 -0.11609571754E-01  0.11605272110E+00 -0.52785582799E-01  0.12903990889E+00  0.16185305207E-01 0.  0.
         14    1    1    2    0    0  0.15747574988E-01  0.48922295186E-02 -0.17234597162E-01  0.23852701462E-01  0.00000000000E+00 0.  1.
     999901    1    3    3    0    0 -0.41380032346E-02 -0.12094495061E+00  0.70020179962E-01  0.89103738965E+00  0.88000000000E+00 0. -1.
        -11    1    4    4    0    0 -0.98016937865E-02  0.38597948565E-01 -0.23299876818E-01  0.46141307038E-01  0.51100000000E-03 0.  1.
         11    1    4    4    0    0 -0.18078779673E-02  0.77454772532E-01 -0.29485705982E-01  0.82898601851E-01  0.51100000000E-03 0. -1.
</event>
<event>
 8    1  0.5489035E+004  0.1043930E+01  0.7957747E-01            NaN
         13   -1    0    0    0    0  0.00000000000E+00  0.00000000000E+00  0.74505805969E-08  0.10566000000E+00  0.10566000000E+00 0.  1.
     999900   -1    0    0    0    0 -0.00000000000E+00 -0.00000000000E+00 -0.74505805969E-08  0.93827000000E+00  0.93827000000E+00 0.  1.
     999902    2    1    2    0    0  0.21848061402E-01 -0.36298179574E-02 -0.56509693989E-02  0.10210729044E+01  0.10208170400E+01 0.  0.
     999903    2    3    3    0    0  0.94257674668E-02 -0.31529762465E-01 -0.12655738731E+00  0.13228098149E+00  0.19962834644E-01 0.  0.
         14    1    1    2    0    0 -0.21848061402E-01  0.36298179574E-02  0.56509693989E-02  0.22857095629E-01  0.00000000000E+00 0. -1.
     999901    1    3    3    0    0  0.12422293936E-01  0.27899944508E-01  0.12090641791E+00  0.88879192288E+00  0.88000000000E+00 0. -1.
        -11    1    4    4    0    0  0.15744410949E-02 -0.25814985265E-01 -0.11067662356E+00  0.11365944067E+00  0.51100000000E-03 0.  1.
         11    1    4    4    0    0  0.78513263719E-02 -0.57147772001E-02 -0.15880763749E-01  0.18621540819E-01  0.51100000000E-03 0. -1.
</event>
<event>
 8    1  0.5489035E+004  0.1043930E+01  0.7957747E-01            NaN
         13   -1    0    0    0    0  0.00000000000E+00  0.00000000000E+00  0.74505805969E-08  0.10566000000E+00  0.10566000000E+00 0. -1.
     999900   -1    0    0    0    0 -0.00000000000E+00 -0.00000000000E+00 -0.74505805969E-08  0.93827000000E+00  0.93827000000E+00 0. -1.
     999902    2    1    2    0    0  0.18566968015E-01  0.82545690544E-02 -0.12196167573E-01  0.10202315461E+01  0.10199562692E+01 0.  0.
     999903    2    3    3    0    0  0.12710382953E+00 -0.19394574424E-01  0.23996597195E-01  0.13239448809E+00  0.20516598157E-01 0.  0.
         14    1    1    2    0    0 -0.18566968015E-01 -0.82545690544E-02  0.12196167573E-01  0.23698453853E-01  0.00000000000E+00 0. -1.
     999901    1    3    3    0    0 -0.10853686152E+00  0.27649143479E-01 -0.36192764767E-01  0.88783705806E+00  0.88000000000E+00 0. -1.
        -11    1    4    4    0    0  0.45299615122E-01 -0.14577686067E-01  0.15288365483E-01  0.49985590938E-01  0.51100000000E-03 0.  1.
         11    1    4    4    0    0  0.81804214411E-01 -0.48168883577E-02  0.87082317115E-02  0.82408897150E-01  0.51100000000E-03 0. -1.
</event>
<event>
 8    1  0.5489035E+004  0.1043930E+01  0.7957747E-01            NaN
         13   -1    0    0    0    0  0.00000000000E+00  0.00000000000E+00  0.74505805969E-08  0.10566000000E+00  0.10566000000E+00 0.  1.
     999900   -1    0    0    0    0 -0.00000000000E+00 -0.00000000000E+00 -0.74505805969E-08  0.93827000000E+00  0.93827000000E+00 0.  1.
     999902    2    1    2    0    0 -0.60802278813E-02  0.15763925371E-01 -0.16587153482E-01  0.10202529188E+01  0.10199781439E+01 0.  0.
     999903    2    3    3    0    0 -0.47676997847E-01  0.92241393660E-01  0.77342246452E-01  0.13098252875E+00  0.19824957072E-01 0.  0.
         14    1    1    2    0    0  0.60802278813E-02 -0.15763925371E-01  0.16587153482E-01  0.23677081214E-01  0.00000000000E+00 0. -1.
     999901    1    3    3    0    0  0.41596769966E-01 -0.76477468289E-01 -0.93929399933E-01  0.88927039004E+00  0.88000000000E+00 0.  1.
        -11    1    4    4    0    0 -0.49444922121E-01  0.86023282247E-01  0.72360814838E-01  0.12280535028E+00  0.51100000000E-03 0.  1.
         11    1    4    4    0    0  0.17679242745E-02  0.62181114130E-02  0.49814316137E-02  0.81771784685E-02  0.51100000000E-03 0. -1.
</event>
<event>
 8    1  0.5489035E+004  0.1043930E+01  0.7957747E-01            NaN
         13   -1    0    0    0    0  0.00000000000E+00  0.00000000000E+00  0.74505805969E-08  0.10566000000E+00  0.10566000000E+00 0. -1.
     999900   -1    0    0    0    0 -0.00000000000E+00 -0.00000000000E+00 -0.74505805969E-08  0.93827000000E+00  0.93827000000E+00 0. -1.
     999902    2    1    2    0    0  0.13612288482E-01 -0.19551323382E-01 -0.21490874307E-02  0.10200099828E+01  0.10197294729E+01 0.  0.
     999903    2    3    3    0    0 -0.12572346888E+00 -0.10806960013E-01 -0.16788745429E-01  0.12888415741E+00  0.20151502343E-01 0.  0.
         14    1    1    2    0    0 -0.13612288482E-01  0.19551323382E-01  0.21490874307E-02  0.23920017151E-01  0.00000000000E+00 0. -1.
     999901    1    3    3    0    0  0.13933575736E+00 -0.87443633694E-02  0.14639657999E-01  0.89112582544E+00  0.88000000000E+00 0. -1.
        -11    1    4    4    0    0 -0.16961879040E-01 -0.65411704508E-02  0.24489424709E-02  0.18350768149E-01  0.51100000000E-03 0. -1.
         11    1    4    4    0    0 -0.10876158984E+00 -0.42657895618E-02 -0.19237687900E-01  0.11053338927E+00  0.51100000000E-03 0.  1.
</event>
<event>
 8    1  0.5489035E+004  0.1043930E+01  0.7957747E-01            NaN
         13   -1    0    0    0    0  0.00000000000E+00  0.00000000000E+00  0.74505805969E-08  0.10566000000E+00  0.10566000000E+00 0. -1.
     999900   -1    0    0    0    0 -0.00000000000E+00 -0.00000000000E+00 -0.74505805969E-08  0.93827000000E+00  0.93827000000E+00 0. -1.
     999902    2    1    2    0    0 -0.84788043354E-02 -0.95208923177E-03 -0.21970223145E-01  0.10203612219E+01  0.10200889843E+01 0.  0.
     999903    2    3    3    0    0  0.59808881668E-01  0.10045406711E+00  0.50948042498E-01  0.12892222225E+00  0.18897471549E-01 0.  0.
         14    1    1    2    0    0  0.84788043354E-02  0.95208923177E-03  0.21970223145E-01  0.23568778117E-01  0.00000000000E+00 0. -1.
     999901    1    3    3    0    0 -0.68287686004E-01 -0.10140615634E+00 -0.72918265643E-01  0.89143899963E+00  0.88000000000E+00 0. -1.
        -11    1    4    4    0    0  0.10337248205E-01  0.31215908577E-01  0.92830288680E-02  0.34172026494E-01  0.51100000000E-03 0.  1.
         11    1    4    4    0    0  0.49471633464E-01  0.69238158529E-01  0.41665013630E-01  0.94750195756E-01  0.51100000000E-03 0. -1.
</event>
<event>
 8    1  0.5489035E+004  0.1043930E+01  0.7957747E-01            NaN
         13   -1    0    0    0    0  0.00000000000E+00  0.00000000000E+00  0.74505805969E-08  0.10566000000E+00  0.10566000000E+00 0. -1.
     999900   -1    0    0    0    0 -0.00000000000E+00 -0.00000000000E+00 -0.74505805969E-08  0.93827000000E+00  0.93827000000E+00 0. -1.
     999902    2    1    2    0    0  0.15740006414E-01  0.13817108664E-01  0.21753661600E-02  0.10228731125E+01  0.10226563508E+01 0.  0.
     999903    2    3    3    0    0 -0.12440669538E+00  0.18737459241E-01 -0.31236810909E-01  0.13114351140E+00  0.19868668647E-01 0.  0.
         14    1    1    2    0    0 -0.15740006414E-01 -0.13817108664E-01 -0.21753661600E-02  0.21056887511E-01  0.00000000000E+00 0. -1.
     999901    1    3    3    0    0  0.14014670179E+00 -0.49203505776E-02  0.33412177070E-01  0.89172960108E+00  0.88000000000E+00 0. -1.
        -11    1    4    4    0    0 -0.72996725928E-01  0.60817125952E-02 -0.93299148461E-02  0.73843196412E-01  0.51100000000E-03 0.  1.
         11    1    4    4    0    0 -0.51409969450E-01  0.12655746646E-01 -0.21906896063E-01  0.57300314992E-01  0.51100000000E-03 0. -1.
</event>
<event>
 8    1  0.5489035E+004  0.1043930E+01  0.7957747E-01            NaN
         13   -1    0    0    0    0  0.00000000000E+00  0.00000000000E+00  0.74505805969E-08  0.10566000000E+00  0.10566000000E+00 0. -1.
     999900   -1    0    0    0    0 -0.00000000000E+00 -0.00000000000E+00 -0.74505805969E-08  0.93827000000E+00  0.93827000000E+00 0.  1.
     999902    2    1    2    0    0 -0.94440292102E-02 -0.17656100017E-01  0.10527627316E-01  0.10213079202E+01  0.10210573488E+01 0.  0.
     999903    2    3    3    0    0 -0.54527241497E-01  0.10948634339E+00  0.40616393428E-01  0.13052004943E+00  0.20623104350E-01 0.  0.
         14    1    1    2    0    0  0.94440292102E-02  0.17656100017E-01 -0.10527627316E-01  0.22622079755E-01  0.00000000000E+00 0.  1.
     999901    1    3    3    0    0  0.45083212287E-01 -0.12714244341E+00 -0.30088766112E-01  0.89078787082E+00  0.88000000000E+00 0.  1.
        -11    1    4    4    0    0 -0.20688391803E-01  0.28531335248E-01  0.41126980427E-02  0.35485518914E-01  0.51100000000E-03 0. -1.
         11    1    4    4    0    0 -0.33838849694E-01  0.80955008145E-01  0.36503695385E-01  0.95034530515E-01  0.51100000000E-03 0.  1.
</event>
<event>
 8    1  0.5489035E+004  0.1043930E+01  0.7957747E-01            NaN
         13   -1    0    0    0    0  0.00000000000E+00  0.00000000000E+00  0.74505805969E-08  0.10566000000E+00  0.10566000000E+00 0.  1.
     999900   -1    0    0    0    0 -0.00000000000E+00 -0.00000000000E+00 -0.74505805969E-08  0.93827000000E+00  0.93827000000E+00 0.  1.
     999902    2    1    2    0    0 -0.83962782384E-02  0.64864866344E-02 -0.17612074921E-01  0.10233689402E+01  0.10231623677E+01 0.  0.
     999903    2    3    3    0    0  0.10124237755E+00 -0.29267688343E-01 -0.79731591530E-01  0.13367358210E+00  0.20121711427E-01 0.  0.
         14    1    1    2    0    0  0.83962782384E-02 -0.64864866344E-02  0.17612074921E-01  0.20561059801E-01  0.00000000000E+00 0.  1.
     999901    1    3    3    0    0 -0.10963865579E+00  0.35754174978E-01  0.62119516609E-01  0.88969535810E+00  0.88000000000E+00 0. -1.
        -11    1    4    4    0    0  0.77791517624E-01 -0.28903500048E-01 -0.68769079911E-01  0.10777931157E+00  0.51100000000E-03 0. -1.
         11    1    4    4    0    0  0.23450859930E-01 -0.36418829504E-03 -0.10962511619E-01  0.25894270535E-01  0.51100000000E-03 0.  1.
</event>
<event>
 8    1  0.5489035E+004  0.1043930E+01  0.7957747E-01            NaN
         13   -1    0    0    0    0  0.00000000000E+00  0.00000000000E+00  0.74505805969E-08  0.10566000000E+00  0.10566000000E+00 0. -1.
     999900   -1    0    0    0    0 -0.00000000000E+00 -0.00000000000E+00 -0.74505805969E-08  0.93827000000E+00  0.93827000000E+00 0. -1.
     999902    2    1    2    0    0  0.93673698245E-02  0.51177788647E-02  0.19944409513E-01  0.10213087987E+01  0.10210582469E+01 0.  0.
     999903    2    3    3    0    0  0.11382844575E+00 -0.64137042850E-01  0.39184059427E-02  0.13228395117E+00  0.20327678280E-01 0.  0.
         14    1    1    2    0    0 -0.93673698245E-02 -0.51177788647E-02 -0.19944409513E-01  0.22621201311E-01  0.00000000000E+00 0.  1.
     999901    1    3    3    0    0 -0.10446107593E+00  0.69254821714E-01  0.16026003570E-01  0.88902484752E+00  0.88000000000E+00 0. -1.
        -11    1    4    4    0    0  0.31023064514E-01 -0.12189224063E-01 -0.65477619155E-02  0.33972665810E-01  0.51100000000E-03 0.  1.
         11    1    4    4    0    0  0.82805381238E-01 -0.51947818786E-01  0.10466167858E-01  0.98311285361E-01  0.51100000000E-03 0. -1.
</event>
<event>
 8    1  0.5489035E+004  0.1043930E+01  0.7957747E-01            NaN
         13   -1    0    0    0    0  0.00000000000E+00  0.00000000000E+00  0.74505805969E-08  0.10566000000E+00  0.10566000000E+00 0. -1.
     999900   -1    0    0    0    0 -0.00000000000E+00 -0.00000000000E+00 -0.74505805969E-08  0.93827000000E+00  0.93827000000E+00 0. -1.
     999902    2    1    2    0    0  0.57245688617E-03  0.18336115100E-01  0.14170475676E-01  0.10207493355E+01  0.10204860914E+01 0.  0.
     999903    2    3    3    0    0 -0.58857595822E-01  0.11844165521E+00 -0.28671907784E-02  0.13291864650E+00  0.12903624655E-01 0.  0.
         14    1    1    2    0    0 -0.57245688617E-03 -0.18336115100E-01 -0.14170475676E-01  0.23180664458E-01  0.00000000000E+00 0.  1.
     999901    1    3    3    0    0  0.59430052709E-01 -0.10010554011E+00  0.17037666455E-01  0.88783068904E+00  0.88000000000E+00 0.  1.
        -11    1    4    4    0    0 -0.11039950272E-01  0.32509539262E-01  0.25221516830E-02  0.34429246509E-01  0.51100000000E-03 0.  1.
         11    1    4    4    0    0 -0.47817645550E-01  0.85932115949E-01 -0.53893424614E-02  0.98489399991E-01  0.51100000000E-03 0. -1.
</event>
<event>
 8    1  0.5489035E+004  0.1043930E+01  0.7957747E-01            NaN
         13   -1    0    0    0    0  0.00000000000E+00  0.00000000000E+00  0.74505805969E-08  0.10566000000E+00  0.10566000000E+00 0. -1.
     999900   -1    0    0    0    0 -0.00000000000E+00 -0.00000000000E+00 -0.74505805969E-08  0.93827000000E+00  0.93827000000E+00 0. -1.
     999902    2    1    2    0    0 -0.22067334542E-01  0.40258940929E-02 -0.58657898377E-02  0.10207441731E+01  0.10204808104E+01 0.  0.
     999903    2    3    3    0    0  0.32254250169E-01  0.51936999696E-01  0.11253317222E+00  0.12986560519E+00  0.21530721531E-01 0.  0.
         14    1    1    2    0    0  0.22067334542E-01 -0.40258940929E-02  0.58657898377E-02  0.23185826866E-01  0.00000000000E+00 0.  1.
     999901    1    3    3    0    0 -0.54321584710E-01 -0.47911105603E-01 -0.11839896206E+00  0.89087856794E+00  0.88000000000E+00 0. -1.
        -11    1    4    4    0    0  0.20524107570E-01  0.34036179064E-01  0.50653337472E-01  0.64387282866E-01  0.51100000000E-03 0. -1.
         11    1    4    4    0    0  0.11730142599E-01  0.17900820632E-01  0.61879834750E-01  0.65478322324E-01  0.51100000000E-03 0.  1.
</event>
<event>
 8    1  0.5489035E+004  0.1043930E+01  0.7957747E-01            NaN
         13   -1    0    0    0    0  0.00000000000E+00  0.00000000000E+00  0.74505805969E-08  0.10566000000E+00  0.10566000000E+00 0. -1.
     999900   -1    0    0    0    0 -0.00000000000E+00 -0.00000000000E+00 -0.74505805969E-08  0.93827000000E+00  0.93827000000E+00 0.  1.
     999902    2    1    2    0    0  0.20677637914E-01  0.13809735557E-01  0.75454763654E-02  0.10179452406E+01  0.10176135343E+01 0.  0.
     999903    2    3    3    0    0  0.92994667859E-01 -0.78957195034E-01  0.38672269732E-01  0.12957350904E+00  0.20285534257E-01 0.  0.
         14    1    1    2    0    0 -0.20677637914E-01 -0.13809735557E-01 -0.75454763654E-02  0.25984759369E-01  0.00000000000E+00 0. -1.
     999901    1    3    3    0    0 -0.72317029945E-01  0.92766930590E-01 -0.31126793366E-01  0.88837173159E+00  0.88000000000E+00 0. -1.
        -11    1    4    4    0    0  0.48508015022E-01 -0.53873812075E-01  0.25227713147E-01  0.76760105396E-01  0.51100000000E-03 0. -1.
         11    1    4    4    0    0  0.44486652837E-01 -0.25083382959E-01  0.13444556585E-01  0.52813403640E-01  0.51100000000E-03 0.  1.
</event>
<event>
 8    1  0.5489035E+004  0.1043930E+01  0.7957747E-01            NaN
         13   -1    0    0    0    0  0.00000000000E+00  0.00000000000E+00  0.74505805969E-08  0.10566000000E+00  0.10566000000E+00 0.  1.
     999900   -1    0    0    0    0 -0.00000000000E+00 -0.00000000000E+00 -0.74505805969E-08  0.93827000000E+00  0.93827000000E+00 0. -1.
     999902    2    1    2    0    0 -0.19589825876E-01  0.28125212166E-01 -0.11976310133E-01  0.10076226889E+01  0.10069683522E+01 0.  0.
     999903    2    3    3    0    0 -0.22223305173E-01 -0.64066158697E-01 -0.95533298352E-01  0.11886627997E+00  0.20105557370E-01 0.  0.
         14    1    1    2    0    0  0.19589825876E-01 -0.28125212166E-01  0.11976310133E-01  0.36307311132E-01  0.00000000000E+00 0.  1.
     999901    1    3    3    0    0  0.26334792966E-02  0.92191370863E-01  0.83556988220E-01  0.88875640890E+00  0.88000000000E+00 0.  1.
        -11    1    4    4    0    0 -0.33789501875E-02 -0.15921992365E-01 -0.38956452527E-01  0.42223138914E-01  0.51100000000E-03 0. -1.
         11    1    4    4    0    0 -0.18844354985E-01 -0.48144166332E-01 -0.56576845825E-01  0.76643141058E-01  0.51100000000E-03 0.  1.
</event>
<event>
 8    1  0.5489035E+004  0.1043930E+01  0.7957747E-01            NaN
         13   -1    0    0    0    0  0.00000000000E+00  0.00000000000E+00  0.74505805969E-08  0.10566000000E+00  0.10566000000E+00 0. -1.
     999900   -1    0    0    0    0 -0.00000000000E+00 -0.00000000000E+00 -0.74505805969E-08  0.93827000000E+00  0.93827000000E+00 0.  1.
     999902    2    1    2    0    0 -0.20779351685E-01 -0.10367471180E-01  0.25542373800E-02  0.10205678502E+01  0.10203004199E+01 0.  0.
     999903    2    3    3    0    0  0.92883936957E-01  0.38005449668E-01  0.78237418456E-01  0.12872300575E+00  0.19408209950E-01 0.  0.
         14    1    1    2    0    0  0.20779351685E-01  0.10367471180E-01 -0.25542373800E-02  0.23362149810E-01  0.00000000000E+00 0. -1.
     999901    1    3    3    0    0 -0.11366328864E+00 -0.48372920849E-01 -0.75683181076E-01  0.89184484444E+00  0.88000000000E+00 0.  1.
        -11    1    4    4    0    0  0.56368560803E-01  0.18816033904E-01  0.35030914736E-01  0.68984664145E-01  0.51100000000E-03 0. -1.
         11    1    4    4    0    0  0.36515376154E-01  0.19189415764E-01  0.43206503720E-01  0.59738341605E-01  0.51100000000E-03 0.  1.
</event>
<event>
 8    1  0.5489035E+004  0.1043930E+01  0.7957747E-01            NaN
         13   -1    0    0    0    0  0.00000000000E+00  0.00000000000E+00  0.74505805969E-08  0.10566000000E+00  0.10566000000E+00 0. -1.
     999900   -1    0    0    0    0 -0.00000000000E+00 -0.00000000000E+00 -0.74505805969E-08  0.93827000000E+00  0.93827000000E+00 0. -1.
     999902    2    1    2    0    0  0.18629224732E-01 -0.83227420771E-02 -0.12118018585E-01  0.10201989565E+01  0.10199229130E+01 0.  0.
     999903    2    3    3    0    0 -0.11275154639E+00  0.56111845816E-01  0.10093462588E-01  0.12783912270E+00  0.19481089581E-01 0.  0.
         14    1    1    2    0    0 -0.18629224732E-01  0.83227420771E-02  0.12118018585E-01  0.23731043471E-01  0.00000000000E+00 0.  1.
     999901    1    3    3    0    0  0.13138077112E+00 -0.64434587893E-01 -0.22211481173E-01  0.89235983383E+00  0.88000000000E+00 0. -1.
        -11    1    4    4    0    0 -0.10292168841E+00  0.56390478551E-01  0.11377294652E-01  0.11790871032E+00  0.51100000000E-03 0. -1.
         11    1    4    4    0    0 -0.98298579819E-02 -0.27863273490E-03 -0.12838320641E-02  0.99304123738E-02  0.51100000000E-03 0.  1.
</event>
<event>
 8    1  0.5489035E+004  0.1043930E+01  0.7957747E-01            NaN
         13   -1    0    0    0    0  0.00000000000E+00  0.00000000000E+00  0.74505805969E-08  0.10566000000E+00  0.10566000000E+00 0.  1.
     999900   -1    0    0    0    0 -0.00000000000E+00 -0.00000000000E+00 -0.74505805969E-08  0.93827000000E+00  0.93827000000E+00 0.  1.
     999902    2    1    2    0    0 -0.19513941200E-01 -0.37560837857E-02 -0.13531810115E-01  0.10198881209E+01  0.10196047112E+01 0.  0.
     999903    2    3    3    0    0 -0.11284041440E+00  0.43075443953E-01 -0.51674698360E-01  0.13289437653E+00  0.20054622149E-01 0.  0.
         14    1    1    2    0    0  0.19513941200E-01  0.37560837857E-02  0.13531810115E-01  0.24041879118E-01  0.00000000000E+00 0.  1.
     999901    1    3    3    0    0  0.93326473201E-01 -0.46831527738E-01  0.38142888245E-01  0.88699374435E+00  0.88000000000E+00 0. -1.
        -11    1    4    4    0    0 -0.20737535269E-01  0.12947671257E-03 -0.10434402419E-01  0.23220680613E-01  0.51100000000E-03 0.  1.
         11    1    4    4    0    0 -0.92102879132E-01  0.42945967240E-01 -0.41240295941E-01  0.10967369592E+00  0.51100000000E-03 0. -1.
</event>
<event>
 8    1  0.5489035E+004  0.1043930E+01  0.7957747E-01            NaN
         13   -1    0    0    0    0  0.00000000000E+00  0.00000000000E+00  0.74505805969E-08  0.10566000000E+00  0.10566000000E+00 0. -1.
     999900   -1    0    0    0    0 -0.00000000000E+00 -0.00000000000E+00 -0.74505805969E-08  0.93827000000E+00  0.93827000000E+00 0. -1.
     999902    2    1    2    0    0 -0.10918699797E-01 -0.52138234700E-02 -0.20927822202E-01  0.10197561360E+01  0.10194695685E+01 0.  0.
     999903    2    3    3    0    0  0.14135502678E-01 -0.59636054564E-01 -0.11575568253E+00  0.13263618049E+00  0.20897533259E-01 0.  0.
         14    1    1    2    0    0  0.10918699797E-01  0.52138234700E-02  0.20927822202E-01  0.24173864038E-01  0.00000000000E+00 0. -1.
     999901    1    3    3    0    0 -0.25054202475E-01  0.54422231094E-01  0.94827860332E-01  0.88711995547E+00  0.88000000000E+00 0.  1.
        -11    1    4    4    0    0  0.14054278750E-01 -0.47805365646E-01 -0.10658495143E+00  0.11765835596E+00  0.51100000000E-03 0.  1.
         11    1    4    4    0    0  0.81223927628E-04 -0.11830688918E-01 -0.91707311064E-02  0.14977824529E-01  0.51100000000E-03 0. -1.
</event>
<event>
 8    1  0.5489035E+004  0.1043930E+01  0.7957747E-01            NaN
         13   -1    0    0    0    0  0.00000000000E+00  0.00000000000E+00  0.74505805969E-08  0.10566000000E+00  0.10566000000E+00 0.  1.
     999900   -1    0    0    0    0 -0.00000000000E+00 -0.00000000000E+00 -0.74505805969E-08  0.93827000000E+00  0.93827000000E+00 0. -1.
     999902    2    1    2    0    0 -0.17931221756E-01  0.11778349539E-01  0.40859317903E-02  0.10220907447E+01  0.10218573958E+01 0.  0.
     999903    2    3    3    0    0  0.83564615292E-01 -0.62350455089E-01  0.75597026044E-01  0.13028901722E+00  0.19740655581E-01 0.  0.
         14    1    1    2    0    0  0.17931221756E-01 -0.11778349539E-01 -0.40859317903E-02  0.21839255256E-01  0.00000000000E+00 0. -1.
     999901    1    3    3    0    0 -0.10149583705E+00  0.74128804628E-01 -0.71511094253E-01  0.89180172752E+00  0.88000000000E+00 0. -1.
        -11    1    4    4    0    0  0.67046655686E-01 -0.48882664117E-01  0.69161688554E-01  0.10802022577E+00  0.51100000000E-03 0.  1.
         11    1    4    4    0    0  0.16517959607E-01 -0.13467790972E-01  0.64353374897E-02  0.22268791455E-01  0.51100000000E-03 0. -1.
</event>
<event>
 8    1  0.5489035E+004  0.1043930E+01  0.7957747E-01            NaN
         13   -1    0    0    0    0  0.00000000000E+00  0.00000000000E+00  0.74505805969E-08  0.10566000000E+00  0.10566000000E+00 0. -1.
     999900   -1    0    0    0    0 -0.00000000000E+00 -0.00000000000E+00 -0.74505805969E-08  0.93827000000E+00  0.93827000000E+00 0. -1.
     999902    2    1    2    0    0  0.89622460560E-02  0.18313081056E-01 -0.13856896172E-01  0.10192783395E+01  0.10189801907E+01 0.  0.
     999903    2    3    3    0    0 -0.11170274846E+00  0.38749472172E-01 -0.50815393166E-01  0.13004067868E+00  0.18690861962E-01 0.  0.
         14    1    1    2    0    0 -0.89622460560E-02 -0.18313081056E-01  0.13856896172E-01  0.24651660464E-01  0.00000000000E+00 0. -1.
     999901    1    3    3    0    0  0.12066499452E+00 -0.20436391116E-01  0.36958496994E-01  0.88923766086E+00  0.88000000000E+00 0.  1.
        -11    1    4    4    0    0 -0.66202391547E-01  0.26868478422E-01 -0.21459931291E-01  0.74602021094E-01  0.51100000000E-03 0.  1.
         11    1    4    4    0    0 -0.45500356917E-01  0.11880993750E-01 -0.29355461875E-01  0.55438657586E-01  0.51100000000E-03 0. -1.
</event>
<event>
 8    1  0.5489035E+004  0.1043930E+01  0.7957747E-01            NaN
         13   -1    0    0    0    0  0.00000000000E+00  0.00000000000E+00  0.74505805969E-08  0.10566000000E+00  0.10566000000E+00 0.  1.
     999900   -1    0    0    0    0 -0.00000000000E+00 -0.00000000000E+00 -0.74505805969E-08  0.93827000000E+00  0.93827000000E+00 0. -1.
     999902    2    1    2    0    0 -0.10916960991E-01  0.11264795834E-01 -0.17050250330E-01  0.10207613423E+01  0.10204983740E+01 0.  0.
     999903    2    3    3    0    0  0.17287204593E-01 -0.80454847408E-01 -0.10001557639E+00  0.13166561449E+00  0.23683086869E-01 0.  0.
         14    1    1    2    0    0  0.10916960991E-01 -0.11264795834E-01  0.17050250330E-01  0.23168657682E-01  0.00000000000E+00 0. -1.
     999901    1    3    3    0    0 -0.28204165584E-01  0.91719643242E-01  0.82965326064E-01  0.88909572783E+00  0.88000000000E+00 0.  1.
        -11    1    4    4    0    0  0.15044956474E-01 -0.28886281657E-01 -0.50784928585E-01  0.60333556796E-01  0.51100000000E-03 0.  1.
         11    1    4    4    0    0  0.22422481188E-02 -0.51568565751E-01 -0.49230647809E-01  0.71332057695E-01  0.51100000000E-03 0. -1.
</event>
<event>
 8    1  0.5489035E+004  0.1043930E+01  0.7957747E-01            NaN
         13   -1    0    0    0    0  0.00000000000E+00  0.00000000000E+00  0.74505805969E-08  0.10566000000E+00  0.10566000000E+00 0.  1.
     999900   -1    0    0    0    0 -0.00000000000E+00 -0.00000000000E+00 -0.74505805969E-08  0.93827000000E+00  0.93827000000E+00 0.  1.
     999902    2    1    2    0    0  0.22248951239E-01 -0.28122756226E-02 -0.74588230885E-02  0.10202961521E+01  0.10200223915E+01 0.  0.
     999903    2    3    3    0    0  0.33225301844E-01  0.61971708286E-02  0.12404496704E+00  0.13041138583E+00  0.21855207514E-01 0.  0.
         14    1    1    2    0    0 -0.22248951239E-01  0.28122756226E-02  0.74588230885E-02  0.23633847915E-01  0.00000000000E+00 0.  1.
     999901    1    3    3    0    0 -0.10976350604E-01 -0.90094464512E-02 -0.13150379013E+00  0.88988476626E+00  0.88000000000E+00 0.  1.
        -11    1    4    4    0    0  0.58080986559E-02  0.82832713092E-02  0.16126642983E-01  0.19044062815E-01  0.51100000000E-03 0.  1.
         11    1    4    4    0    0  0.27417203188E-01 -0.20861004806E-02  0.10791832406E+00  0.11136732301E+00  0.51100000000E-03 0. -1.
</event>
<event>
 8    1  0.5489035E+004  0.1043930E+01  0.7957747E-01            NaN
         13   -1    0    0    0    0  0.00000000000E+00  0.00000000000E+00  0.74505805969E-08  0.10566000000E+00  0.10566000000E+00 0.  1.
     999900   -1    0    0    0    0 -0.00000000000E+00 -0.00000000000E+00 -0.74505805969E-08  0.93827000000E+00  0.93827000000E+00 0. -1.
     999902    2    1    2    0    0  0.22799628271E-01 -0.29132172371E-02 -0.69956379164E-02  0.10199039967E+01  0.10196209657E+01 0.  0.
     999903    2    3    3    0    0 -0.75237610015E-02 -0.30030506592E-01  0.12369228562E+00  0.12932318136E+00  0.21593179724E-01 0.  0.
         14    1    1    2    0    0 -0.22799628271E-01  0.29132172371E-02  0.69956379164E-02  0.24026003285E-01  0.00000000000E+00 0. -1.
     999901    1    3    3    0    0  0.30323389273E-01  0.27117289355E-01 -0.13068792353E+00  0.89058081535E+00  0.88000000000E+00 0. -1.
        -11    1    4    4    0    0  0.72174438452E-02 -0.13888328920E-01  0.44877278510E-01  0.47531131097E-01  0.51100000000E-03 0.  1.
         11    1    4    4    0    0 -0.14741204847E-01 -0.16142177672E-01  0.78815007106E-01  0.81792050265E-01  0.51100000000E-03 0. -1.
</event>
<event>
 8    1  0.5489035E+004  0.1043930E+01  0.7957747E-01            NaN
         13   -1    0    0    0    0  0.00000000000E+00  0.00000000000E+00  0.74505805969E-08  0.10566000000E+00  0.10566000000E+00 0.  1.
     999900   -1    0    0    0    0 -0.00000000000E+00 -0.00000000000E+00 -0.74505805969E-08  0.93827000000E+00  0.93827000000E+00 0. -1.
     999902    2    1    2    0    0  0.10175526565E-01  0.10406760887E-01  0.13987668219E-01  0.10237434482E+01  0.10235444059E+01 0.  0.
     999903    2    3    3    0    0  0.13271719330E+00  0.61962667289E-02 -0.12223500098E-01  0.13485582101E+00  0.19606921961E-01 0.  0.
         14    1    1    2    0    0 -0.10175526565E-01 -0.10406760887E-01 -0.13987668219E-01  0.20186551841E-01  0.00000000000E+00 0. -1.
     999901    1    3    3    0    0 -0.12254166673E+00  0.42104941579E-02  0.26211168317E-01  0.88888762714E+00  0.88000000000E+00 0. -1.
        -11    1    4    4    0    0  0.34060037287E-01 -0.22572547732E-02 -0.10867343008E-01  0.35826548873E-01  0.51100000000E-03 0.  1.
         11    1    4    4    0    0  0.98657156009E-01  0.84535215022E-02 -0.13561570900E-02  0.99029272141E-01  0.51100000000E-03 0. -1.
</event>
<event>
 8    1  0.5489035E+004  0.1043930E+01  0.7957747E-01            NaN
         13   -1    0    0    0    0  0.00000000000E+00  0.00000000000E+00  0.74505805969E-08  0.10566000000E+00  0.10566000000E+00 0. -1.
     999900   -1    0    0    0    0 -0.00000000000E+00 -0.00000000000E+00 -0.74505805969E-08  0.93827000000E+00  0.93827000000E+00 0.  1.
     999902    2    1    2    0    0  0.15770194573E-02 -0.18929903402E-01  0.16926083038E-01  0.10184875056E+01  0.10181696708E+01 0.  0.
     999903    2    3    3    0    0 -0.12618214697E+00 -0.19050726294E-01 -0.74695891274E-02  0.12892718275E+00  0.16779729003E-01 0.  0.
         14    1    1    2    0    0 -0.15770194573E-02  0.18929903402E-01 -0.16926083038E-01  0.25442494379E-01  0.00000000000E+00 0.  1.
     999901    1    3    3    0    0  0.12775916642E+00  0.12082289135E-03  0.24395672166E-01  0.88956032287E+00  0.88000000000E+00 0.  1.
        -11    1    4    4    0    0 -0.63857787549E-01 -0.92889775017E-02  0.46042073552E-02  0.64695919347E-01  0.51100000000E-03 0.  1.
         11    1    4    4    0    0 -0.62324359416E-01 -0.97617487921E-02 -0.12073796483E-01  0.64231263405E-01  0.51100000000E-03 0. -1.
</event>
<event>
 8    1  0.5489035E+004  0.1043930E+01  0.7957747E-01            NaN
         13   -1    0    0    0    0  0.00000000000E+00  0.00000000000E+00  0.74505805969E-08  0.10566000000E+00  0.10566000000E+00 0. -1.
     999900   -1    0    0    0    0 -0.00000000000E+00 -0.00000000000E+00 -0.74505805969E-08  0.93827000000E+00  0.93827000000E+00 0. -1.
     999902    2    1    2    0    0 -0.13910099509E-01 -0.14794186556E-01 -0.11708563796E-01  0.10204896653E+01  0.10202204211E+01 0.  0.
     999903    2    3    3    0    0  0.16280741620E-01  0.10732801021E+00  0.65446147117E-01  0.12820150152E+00  0.19184954921E-01 0.  0.
         14    1    1    2    0    0  0.13910099509E-01  0.14794186556E-01  0.11708563796E-01  0.23440334690E-01  0.00000000000E+00 0. -1.
     999901    1    3    3    0    0 -0.30190841129E-01 -0.12212219677E+00 -0.77154710913E-01  0.89228816379E+00  0.88000000000E+00 0.  1.
        -11    1    4    4    0    0  0.12338555665E-01  0.36239246428E-01  0.15882840325E-01  0.41449350723E-01  0.51100000000E-03 0. -1.
         11    1    4    4    0    0  0.39421859552E-02  0.71088763782E-01  0.49563306792E-01  0.86752150794E-01  0.51100000000E-03 0.  1.
</event>
<event>
 8    1  0.5489035E+004  0.1043930E+01  0.7957747E-01            NaN
         13   -1    0    0    0    0  0.00000000000E+00  0.00000000000E+00  0.74505805969E-08  0.10566000000E+00  0.10566000000E+00 0.  1.
     999900   -1    0    0    0    0 -0.00000000000E+00 -0.00000000000E+00 -0.74505805969E-08  0.93827000000E+00  0.93827000000E+00 0.  1.
     999902    2    1    2    0    0  0.10862908682E-01  0.20811968345E-01 -0.16981708661E-02  0.10203922729E+01  0.10201207605E+01 0.  0.
     999903    2    3    3    0    0  0.22696806519E-01  0.12628198924E+00 -0.32184996578E-01  0.13349125647E+00  0.17937550463E-01 0.  0.
         14    1    1    2    0    0 -0.10862908682E-01 -0.20811968345E-01  0.16981708661E-02  0.23537727072E-01  0.00000000000E+00 0. -1.
     999901    1    3    3    0    0 -0.11833897837E-01 -0.10547002090E+00  0.30486825712E-01  0.88690101645E+00  0.88000000000E+00 0. -1.
        -11    1    4    4    0    0  0.13896103866E-01  0.93184747911E-01 -0.15835632681E-01  0.95538093603E-01  0.51100000000E-03 0. -1.
         11    1    4    4    0    0  0.88007026537E-02  0.33097241332E-01 -0.16349363897E-01  0.37953162870E-01  0.51100000000E-03 0.  1.
</event>
<event>
 8    1  0.5489035E+004  0.1043930E+01  0.7957747E-01            NaN
         13   -1    0    0    0    0  0.00000000000E+00  0.00000000000E+00  0.74505805969E-08  0.10566000000E+00  0.10566000000E+00 0. -1.
     999900   -1    0    0    0    0 -0.00000000000E+00 -0.00000000000E+00 -0.74505805969E-08  0.93827000000E+00  0.93827000000E+00 0. -1.
     999902    2    1    2    0    0  0.27598500087E-02 -0.15904278278E-01  0.14965383871E-01  0.10219180588E+01  0.10216809646E+01 0.  0.
     999903    2    3    3    0    0 -0.71740599362E-01  0.10060350966E+00  0.38027022930E-01  0.13081973608E+00  0.19999228046E-01 0.  0.
         14    1    1    2    0    0 -0.27598500087E-02  0.15904278278E-01 -0.14965383871E-01  0.22011941169E-01  0.00000000000E+00 0.  1.
     999901    1    3    3    0    0  0.74500449371E-01 -0.11650778794E+00 -0.23061639059E-01  0.89109832275E+00  0.88000000000E+00 0. -1.
        -11    1    4    4    0    0 -0.11969409807E-01  0.29413570751E-01  0.14611274539E-01  0.34959624999E-01  0.51100000000E-03 0.  1.
         11    1    4    4    0    0 -0.59771189556E-01  0.71189938913E-01  0.23415748391E-01  0.95860111084E-01  0.51100000000E-03 0. -1.
</event>
<event>
 8    1  0.5489035E+004  0.1043930E+01  0.7957747E-01            NaN
         13   -1    0    0    0    0  0.00000000000E+00  0.00000000000E+00  0.74505805969E-08  0.10566000000E+00  0.10566000000E+00 0. -1.
     999900   -1    0    0    0    0 -0.00000000000E+00 -0.00000000000E+00 -0.74505805969E-08  0.93827000000E+00  0.93827000000E+00 0. -1.
     999902    2    1    2    0    0 -0.16084378337E-01  0.63409424673E-02  0.16951687838E-01  0.10197168941E+01  0.10194293843E+01 0.  0.
     999903    2    3    3    0    0 -0.78455187142E-01  0.10504064030E-01 -0.10076243628E+00  0.12968090358E+00  0.19962876434E-01 0.  0.
         14    1    1    2    0    0  0.16084378337E-01 -0.63409424673E-02 -0.16951687838E-01  0.24213105922E-01  0.00000000000E+00 0.  1.
     999901    1    3    3    0    0  0.62370808805E-01 -0.41631215625E-02  0.11771412412E+00  0.89003599050E+00  0.88000000000E+00 0.  1.
        -11    1    4    4    0    0 -0.24184459710E-01  0.90028587986E-02 -0.44837516920E-01  0.51735902452E-01  0.51100000000E-03 0.  1.
         11    1    4    4    0    0 -0.54270727432E-01  0.15012052312E-02 -0.55924919365E-01  0.77945001123E-01  0.51100000000E-03 0. -1.
</event>
<event>
 8    1  0.5489035E+004  0.1043930E+01  0.7957747E-01            NaN
         13   -1    0    0    0    0  0.00000000000E+00  0.00000000000E+00  0.74505805969E-08  0.10566000000E+00  0.10566000000E+00 0. -1.
     999900   -1    0    0    0    0 -0.00000000000E+00 -0.00000000000E+00 -0.74505805969E-08  0.93827000000E+00  0.93827000000E+00 0. -1.
     999902    2    1    2    0    0 -0.14781423159E-02  0.17488655198E-01  0.16431410579E-01  0.10198877618E+01  0.10196043436E+01 0.  0.
     999903    2    3    3    0    0 -0.46068268538E-01  0.11759738819E+00  0.36272986114E-01  0.13286818707E+00  0.19667092801E-01 0.  0.
         14    1    1    2    0    0  0.14781423159E-02 -0.17488655198E-01 -0.16431410579E-01  0.24042238227E-01  0.00000000000E+00 0.  1.
     999901    1    3    3    0    0  0.44590126222E-01 -0.10010873299E+00 -0.19841575535E-01  0.88701957470E+00  0.88000000000E+00 0. -1.
        -11    1    4    4    0    0 -0.17998846765E-01  0.50964832278E-01  0.25498354030E-01  0.59764536250E-01  0.51100000000E-03 0.  1.
         11    1    4    4    0    0 -0.28069421774E-01  0.66632555914E-01  0.10774632084E-01  0.73103650825E-01  0.51100000000E-03 0. -1.
</event>
<event>
 8    1  0.5489035E+004  0.1043930E+01  0.7957747E-01            NaN
         13   -1    0    0    0    0  0.00000000000E+00  0.00000000000E+00  0.74505805969E-08  0.10566000000E+00  0.10566000000E+00 0. -1.
     999900   -1    0    0    0    0 -0.00000000000E+00 -0.00000000000E+00 -0.74505805969E-08  0.93827000000E+00  0.93827000000E+00 0. -1.
     999902    2    1    2    0    0 -0.11619696412E-02 -0.14549314717E-01 -0.19475473076E-01  0.10195922354E+01  0.10193017217E+01 0.  0.
     999903    2    3    3    0    0 -0.93813217175E-01  0.85523295754E-01  0.56384919213E-02  0.12873338452E+00  0.20623720912E-01 0.  0.
         14    1    1    2    0    0  0.11619696412E-02  0.14549314717E-01  0.19475473076E-01  0.24337764559E-01  0.00000000000E+00 0.  1.
     999901    1    3    3    0    0  0.92651247533E-01 -0.10007261047E+00 -0.25113964997E-01  0.89085885093E+00  0.88000000000E+00 0.  1.
        -11    1    4    4    0    0 -0.32194527306E-01  0.34051623205E-01 -0.72303967783E-02  0.47418776766E-01  0.51100000000E-03 0.  1.
         11    1    4    4    0    0 -0.61618689868E-01  0.51471672549E-01  0.12868888700E-01  0.81314607749E-01  0.51100000000E-03 0. -1.
</event>
<event>
 8    1  0.5489035E+004  0.1043930E+01  0.7957747E-01            NaN
         13   -1    0    0    0    0  0.00000000000E+00  0.00000000000E+00  0.74505805969E-08  0.10566000000E+00  0.10566000000E+00 0.  1.
     999900   -1    0    0    0    0 -0.00000000000E+00 -0.00000000000E+00 -0.74505805969E-08  0.93827000000E+00  0.93827000000E+00 0. -1.
     999902    2    1    2    0    0  0.66318323522E-02 -0.13980582263E-02  0.11964737993E-01  0.10301789738E+01  0.10300871940E+01 0.  0.
     999903    2    3    3    0    0 -0.24410347033E-01 -0.85374680887E-01  0.10709550371E+00  0.14053547627E+00  0.19901557665E-01 0.  0.
         14    1    1    2    0    0 -0.66318323522E-02  0.13980582263E-02 -0.11964737993E-01  0.13751026230E-01  0.00000000000E+00 0. -1.
     999901    1    3    3    0    0  0.31042179385E-01  0.83976622661E-01 -0.95130765716E-01  0.88964349750E+00  0.88000000000E+00 0. -1.
        -11    1    4    4    0    0 -0.25121307918E-01 -0.56794270991E-01  0.67894590558E-01  0.92014161285E-01  0.51100000000E-03 0.  1.
         11    1    4    4    0    0  0.71096088557E-03 -0.28580409896E-01  0.39200913150E-01  0.48521314986E-01  0.51100000000E-03 0. -1.
</event>
<event>
 8    1  0.5489035E+004  0.1043930E+01  0.7957747E-01            NaN
         13   -1    0    0    0    0  0.00000000000E+00  0.00000000000E+00  0.74505805969E-08  0.10566000000E+00  0.10566000000E+00 0.  1.
     999900   -1    0    0    0    0 -0.00000000000E+00 -0.00000000000E+00 -0.74505805969E-08  0.93827000000E+00  0.93827000000E+00 0.  1.
     999902    2    1    2    0    0  0.15680443971E-01 -0.12966852236E-01 -0.85958601621E-02  0.10218414421E+01  0.10216026763E+01 0.  0.
     999903    2    3    3    0    0  0.89370506287E-01 -0.82130431379E-01 -0.55125699812E-01  0.13483588856E+00  0.20233114211E-01 0.  0.
         14    1    1    2    0    0 -0.15680443971E-01  0.12966852236E-01  0.85958601621E-02  0.22088557943E-01  0.00000000000E+00 0.  1.
     999901    1    3    3    0    0 -0.73690062315E-01  0.69163579142E-01  0.46529839650E-01  0.88700555350E+00  0.88000000000E+00 0. -1.
        -11    1    4    4    0    0  0.19650536405E-01 -0.94427765090E-02 -0.51925644556E-02  0.22417257991E-01  0.51100000000E-03 0.  1.
         11    1    4    4    0    0  0.69719969882E-01 -0.72687654870E-01 -0.49933135356E-01  0.11241863057E+00  0.51100000000E-03 0. -1.
</event>
<event>
 8    1  0.5489035E+004  0.1043930E+01  0.7957747E-01            NaN
         13   -1    0    0    0    0  0.00000000000E+00  0.00000000000E+00  0.74505805969E-08  0.10566000000E+00  0.10566000000E+00 0. -1.
     999900   -1    0    0    0    0 -0.00000000000E+00 -0.00000000000E+00 -0.74505805969E-08  0.93827000000E+00  0.93827000000E+00 0. -1.
     999902    2    1    2    0    0  0.59320431168E-02 -0.30412104840E-01  0.25645785516E-02  0.10128388064E+01  0.10123614895E+01 0.  0.
     999903    2    3    3    0    0  0.30780113238E-02  0.10039612262E+00  0.64475784882E-01  0.12101374769E+00  0.19958574712E-01 0.  0.
         14    1    1    2    0    0 -0.59320431168E-02  0.30412104840E-01 -0.25645785516E-02  0.31091193600E-01  0.00000000000E+00 0.  1.
     999901    1    3    3    0    0  0.28540317931E-02 -0.13080822746E+00 -0.61911206331E-01  0.89182505871E+00  0.88000000000E+00 0. -1.
        -11    1    4    4    0    0 -0.56633746234E-02  0.80095618239E-01  0.50813001131E-01  0.95024228900E-01  0.51100000000E-03 0. -1.
         11    1    4    4    0    0  0.87413859471E-02  0.20300504377E-01  0.13662783752E-01  0.25989518793E-01  0.51100000000E-03 0.  1.
</event>
<event>
 8    1  0.5489035E+004  0.1043930E+01  0.7957747E-01            NaN
         13   -1    0    0    0    0  0.00000000000E+00  0.00000000000E+00  0.74505805969E-08  0.10566000000E+00  0.10566000000E+00 0.  1.
     999900   -1    0    0    0    0 -0.00000000000E+00 -0.00000000000E+00 -0.74505805969E-08  0.93827000000E+00  0.93827000000E+00 0. -1.
     999902    2    1    2    0    0 -0.17802295134E-01 -0.14581163298E-01  0.54621005105E-02  0.10202790682E+01  0.10200049070E+01 0.  0.
     999903    2    3    3    0    0 -0.17638779385E-01 -0.10445796297E+00  0.77520852052E-01  0.13277113606E+00  0.19902248679E-01 0.  0.
         14    1    1    2    0    0  0.17802295134E-01  0.14581163298E-01 -0.54621005105E-02  0.23650931845E-01  0.00000000000E+00 0.  1.
     999901    1    3    3    0    0 -0.16351574881E-03  0.89876799670E-01 -0.72058751541E-01  0.88750793209E+00  0.88000000000E+00 0. -1.
        -11    1    4    4    0    0  0.34225425374E-03 -0.52146976144E-01  0.42750348761E-01  0.67433505760E-01  0.51100000000E-03 0. -1.
         11    1    4    4    0    0 -0.17981033639E-01 -0.52310986824E-01  0.34770503290E-01  0.65337630300E-01  0.51100000000E-03 0.  1.
</event>
<event>
 8    1  0.5489035E+004  0.1043930E+01  0.7957747E-01            NaN
         13   -1    0    0    0    0  0.00000000000E+00  0.00000000000E+00  0.74505805969E-08  0.10566000000E+00  0.10566000000E+00 0.  1.
     999900   -1    0    0    0    0 -0.00000000000E+00 -0.00000000000E+00 -0.74505805969E-08  0.93827000000E+00  0.93827000000E+00 0. -1.
     999902    2    1    2    0    0 -0.21656269440E-01 -0.57999620220E-02  0.29971935791E-03  0.10215085059E+01  0.10212624071E+01 0.  0.
     999903    2    3    3    0    0 -0.98479789266E-01  0.79244706178E-01  0.37087221128E-01  0.13331496333E+00  0.20479871257E-01 0.  0.
         14    1    1    2    0    0  0.21656269440E-01  0.57999620220E-02 -0.29971935791E-03  0.22421494089E-01  0.00000000000E+00 0. -1.
     999901    1    3    3    0    0  0.76823519826E-01 -0.85044668200E-01 -0.36787501770E-01  0.88819354258E+00  0.88000000000E+00 0. -1.
        -11    1    4    4    0    0 -0.50720222002E-01  0.29472709212E-01  0.11762485892E-01  0.59831419034E-01  0.51100000000E-03 0.  1.
         11    1    4    4    0    0 -0.47759567264E-01  0.49771996965E-01  0.25324735236E-01  0.73483544300E-01  0.51100000000E-03 0. -1.
</event>
<event>
 8    1  0.5489035E+004  0.1043930E+01  0.7957747E-01            NaN
         13   -1    0    0    0    0  0.00000000000E+00  0.00000000000E+00  0.74505805969E-08  0.10566000000E+00  0.10566000000E+00 0. -1.
     999900   -1    0    0    0    0 -0.00000000000E+00 -0.00000000000E+00 -0.74505805969E-08  0.93827000000E+00  0.93827000000E+00 0. -1.
     999902    2    1    2    0    0  0.12561084349E-02 -0.18606058025E-01  0.14695195535E-01  0.10201873806E+01  0.10199110645E+01 0.  0.
     999903    2    3    3    0    0  0.19901415558E-02 -0.17169606491E-01 -0.12621345399E+00  0.12897593000E+00  0.20154366789E-01 0.  0.
         14    1    1    2    0    0 -0.12561084349E-02  0.18606058025E-01 -0.14695195535E-01  0.23742619389E-01  0.00000000000E+00 0.  1.
     999901    1    3    3    0    0 -0.73403312091E-03 -0.14364515335E-02  0.14090864952E+00  0.89121145062E+00  0.88000000000E+00 0.  1.
        -11    1    4    4    0    0 -0.73555797494E-02 -0.63352406085E-03 -0.41831987831E-01  0.42481551679E-01  0.51100000000E-03 0.  1.
         11    1    4    4    0    0  0.93457213052E-02 -0.16536082431E-01 -0.84381466156E-01  0.86494378317E-01  0.51100000000E-03 0. -1.
</event>
<event>
 8    1  0.5489035E+004  0.1043930E+01  0.7957747E-01            NaN
         13   -1    0    0    0    0  0.00000000000E+00  0.00000000000E+00  0.74505805969E-08  0.10566000000E+00  0.10566000000E+00 0. -1.
     999900   -1    0    0    0    0 -0.00000000000E+00 -0.00000000000E+00 -0.74505805969E-08  0.93827000000E+00  0.93827000000E+00 0.  1.
     999902    2    1    2    0    0  0.12625400307E-01 -0.18310615809E-01 -0.45265347986E-02  0.10212326675E+01  0.10209804074E+01 0.  0.
     999903    2    3    3    0    0 -0.47973038233E-02  0.73962444615E-01 -0.10560719988E+00  0.13048288832E+00  0.19479377317E-01 0.  0.
         14    1    1    2    0    0 -0.12625400307E-01  0.18310615809E-01  0.45265347986E-02  0.22697332476E-01  0.00000000000E+00 0. -1.
     999901    1    3    3    0    0  0.17422704131E-01 -0.92273060424E-01  0.10108066508E+00  0.89074977920E+00  0.88000000000E+00 0. -1.
        -11    1    4    4    0    0  0.32889963130E-02  0.56964464860E-01 -0.86744862945E-01  0.10383015035E+00  0.51100000000E-03 0.  1.
         11    1    4    4    0    0 -0.80863001364E-02  0.16997979755E-01 -0.18862336934E-01  0.26652737969E-01  0.51100000000E-03 0. -1.
</event>
<event>
 8    1  0.5489035E+004  0.1043930E+01  0.7957747E-01            NaN
         13   -1    0    0    0    0  0.00000000000E+00  0.00000000000E+00  0.74505805969E-08  0.10566000000E+00  0.10566000000E+00 0. -1.
     999900   -1    0    0    0    0 -0.00000000000E+00 -0.00000000000E+00 -0.74505805969E-08  0.93827000000E+00  0.93827000000E+00 0. -1.
     999902    2    1    2    0    0  0.29034828251E-02 -0.11247925201E-01 -0.20378841303E-01  0.10204727366E+01  0.10202030989E+01 0.  0.
     999903    2    3    3    0    0 -0.50973973656E-01  0.18310188411E-01 -0.11953907235E+00  0.13277390601E+00  0.20142276651E-01 0.  0.
         14    1    1    2    0    0 -0.29034828251E-02  0.11247925201E-01  0.20378841303E-01  0.23457263410E-01  0.00000000000E+00 0.  1.
     999901    1    3    3    0    0  0.53877456481E-01 -0.29558113612E-01  0.99160231045E-01  0.88769883058E+00  0.88000000000E+00 0. -1.
        -11    1    4    4    0    0 -0.49460998074E-02  0.91372849116E-02 -0.28671587725E-01  0.30500408891E-01  0.51100000000E-03 0.  1.
         11    1    4    4    0    0 -0.46027873848E-01  0.91729034995E-02 -0.90867484623E-01  0.10227349712E+00  0.51100000000E-03 0. -1.
</event>
<event>
 8    1  0.5489035E+004  0.1043930E+01  0.7957747E-01            NaN
         13   -1    0    0    0    0  0.00000000000E+00  0.00000000000E+00  0.74505805969E-08  0.10566000000E+00  0.10566000000E+00 0.  1.
     999900   -1    0    0    0    0 -0.00000000000E+00 -0.00000000000E+00 -0.74505805969E-08  0.93827000000E+00  0.93827000000E+00 0. -1.
     999902    2    1    2    0    0  0.51295565205E-02  0.40487537406E-02  0.21741645180E-01  0.10212274915E+01  0.10209751150E+01 0.  0.
     999903    2    3    3    0    0  0.68803318185E-01  0.11105846857E+00  0.37777952166E-04  0.13219628573E+00  0.20198428095E-01 0.  0.
         14    1    1    2    0    0 -0.51295565205E-02 -0.40487537406E-02 -0.21741645180E-01  0.22702508498E-01  0.00000000000E+00 0. -1.
     999901    1    3    3    0    0 -0.63673761665E-01 -0.10700971483E+00  0.21703867228E-01  0.88903120578E+00  0.88000000000E+00 0. -1.
        -11    1    4    4    0    0  0.27513627992E-01  0.42033003941E-01  0.97532779251E-02  0.51177736340E-01  0.51100000000E-03 0. -1.
         11    1    4    4    0    0  0.41289690193E-01  0.69025464631E-01 -0.97154999729E-02  0.81018549385E-01  0.51100000000E-03 0.  1.
</event>
<event>
 8    1  0.5489035E+004  0.1043930E+01  0.7957747E-01            NaN
         13   -1    0    0    0    0  0.00000000000E+00  0.00000000000E+00  0.74505805969E-08  0.10566000000E+00  0.10566000000E+00 0.  1.
     999900   -1    0    0    0    0 -0.00000000000E+00 -0.00000000000E+00 -0.74505805969E-08  0.93827000000E+00  0.93827000000E+00 0.  1.
     999902    2    1    2    0    0 -0.11605720755E-01  0.21538378637E-02  0.20600055774E-01  0.10201877577E+01  0.10199114505E+01 0.  0.
     999903    2    3    3    0    0 -0.13004273667E-01  0.61747312510E-01  0.11535098912E+00  0.13309639964E+00  0.20662990337E-01 0.  0.
         14    1    1    2    0    0  0.11605720755E-01 -0.21538378637E-02 -0.20600055774E-01  0.23742242305E-01  0.00000000000E+00 0. -1.
     999901    1    3    3    0    0  0.13985529122E-02 -0.59593474646E-01 -0.94750933346E-01  0.88709135806E+00  0.88000000000E+00 0.  1.
        -11    1    4    4    0    0 -0.12860402144E-01  0.43813865421E-01  0.98096066538E-01  0.10820417800E+00  0.51100000000E-03 0. -1.
         11    1    4    4    0    0 -0.14387152366E-03  0.17933447089E-01  0.17254922581E-01  0.24892221632E-01  0.51100000000E-03 0.  1.
</event>
<event>
 8    1  0.5489035E+004  0.1043930E+01  0.7957747E-01            NaN
         13   -1    0    0    0    0  0.00000000000E+00  0.00000000000E+00  0.74505805969E-08  0.10566000000E+00  0.10566000000E+00 0. -1.
     999900   -1    0    0    0    0 -0.00000000000E+00 -0.00000000000E+00 -0.74505805969E-08  0.93827000000E+00  0.93827000000E+00 0.  1.
     999902    2    1    2    0    0 -0.17230472959E-01  0.16075442912E-01 -0.28748455146E-02  0.10201902907E+01  0.10199140431E+01 0.  0.
     999903    2    3    3    0    0  0.18759659319E-02 -0.78799761263E-01  0.10012372701E+00  0.12891307995E+00  0.19516655650E-01 0.  0.
         14    1    1    2    0    0  0.17230472959E-01 -0.16075442912E-01  0.28748455146E-02  0.23739709348E-01  0.00000000000E+00 0. -1.
     999901    1    3    3    0    0 -0.19106438891E-01  0.94875204175E-01 -0.10299857253E+00  0.89127721070E+00  0.88000000000E+00 0.  1.
        -11    1    4    4    0    0 -0.84771385211E-02 -0.24861472790E-01  0.33074285378E-01  0.42238894174E-01  0.51100000000E-03 0.  1.
         11    1    4    4    0    0  0.10353104453E-01 -0.53938288474E-01  0.67049441636E-01  0.86674185776E-01  0.51100000000E-03 0. -1.
</event>
<event>
 8    1  0.5489035E+004  0.1043930E+01  0.7957747E-01            NaN
         13   -1    0    0    0    0  0.00000000000E+00  0.00000000000E+00  0.74505805969E-08  0.10566000000E+00  0.10566000000E+00 0. -1.
     999900   -1    0    0    0    0 -0.00000000000E+00 -0.00000000000E+00 -0.74505805969E-08  0.93827000000E+00  0.93827000000E+00 0. -1.
     999902    2    1    2    0    0  0.24703747319E-01  0.17747491674E-02 -0.10285807924E-03  0.10191623710E+01  0.10188613758E+01 0.  0.
     999903    2    3    3    0    0  0.63036812803E-01 -0.11284526385E+00 -0.32493458695E-02  0.13089604176E+00  0.20384360613E-01 0.  0.
         14    1    1    2    0    0 -0.24703747319E-01 -0.17747491674E-02  0.10285807924E-03  0.24767628994E-01  0.00000000000E+00 0. -1.
     999901    1    3    3    0    0 -0.38333065484E-01  0.11462001302E+00  0.31464877902E-02  0.88826632925E+00  0.88000000000E+00 0. -1.
        -11    1    4    4    0    0  0.48280586244E-01 -0.74907318552E-01 -0.98195003346E-02  0.89659383717E-01  0.51100000000E-03 0. -1.
         11    1    4    4    0    0  0.14756226559E-01 -0.37937945296E-01  0.65701544651E-02  0.41236658040E-01  0.51100000000E-03 0.  1.
</event>
<event>
 8    1  0.5489035E+004  0.1043930E+01  0.7957747E-01            NaN
         13   -1    0    0    0    0  0.00000000000E+00  0.00000000000E+00  0.74505805969E-08  0.10566000000E+00  0.10566000000E+00 0.  1.
     999900   -1    0    0    0    0 -0.00000000000E+00 -0.00000000000E+00 -0.74505805969E-08  0.93827000000E+00  0.93827000000E+00 0. -1.
     999902    2    1    2    0    0 -0.35079342845E-02 -0.80387394504E-02  0.22115996712E-01  0.10201383156E+01  0.10198608428E+01 0.  0.
     999903    2    3    3    0    0 -0.11327029118E+00 -0.62700021310E-01  0.10099894483E-01  0.13155516395E+00  0.21054732407E-01 0.  0.
         14    1    1    2    0    0  0.35079342845E-02  0.80387394504E-02 -0.22115996712E-01  0.23791684376E-01  0.00000000000E+00 0. -1.
     999901    1    3    3    0    0  0.10976235690E+00  0.54661281860E-01  0.12016102228E-01  0.88858315167E+00  0.88000000000E+00 0.  1.
        -11    1    4    4    0    0 -0.10006829119E+00 -0.59038547555E-01  0.14656276272E-01  0.11710798672E+00  0.51100000000E-03 0. -1.
         11    1    4    4    0    0 -0.13201999993E-01 -0.36614737554E-02 -0.45563817885E-02  0.14447177229E-01  0.51100000000E-03 0.  1.
</event>
<event>
 8    1  0.5489035E+004  0.1043930E+01  0.7957747E-01            NaN
         13   -1    0    0    0    0  0.00000000000E+00  0.00000000000E+00  0.74505805969E-08  0.10566000000E+00  0.10566000000E+00 0. -1.
     999900   -1    0    0    0    0 -0.00000000000E+00 -0.00000000000E+00 -0.74505805969E-08  0.93827000000E+00  0.93827000000E+00 0. -1.
     999902    2    1    2    0    0  0.10285319000E-01 -0.19107295529E-01  0.62241659206E-02  0.10213553069E+01  0.10211057957E+01 0.  0.
     999903    2    3    3    0    0 -0.75715046527E-01  0.62423523128E-01 -0.81491007267E-01  0.12909004984E+00  0.19849236558E-01 0.  0.
         14    1    1    2    0    0 -0.10285319000E-01  0.19107295529E-01 -0.62241659206E-02  0.22574693149E-01  0.00000000000E+00 0.  1.
     999901    1    3    3    0    0  0.86000365527E-01 -0.81530818657E-01  0.87715173188E-01  0.89226525701E+00  0.88000000000E+00 0.  1.
        -11    1    4    4    0    0 -0.31299777582E-01  0.29927044677E-01 -0.24046429068E-01  0.49535804745E-01  0.51100000000E-03 0.  1.
         11    1    4    4    0    0 -0.44415268945E-01  0.32496478451E-01 -0.57444578199E-01  0.79554245095E-01  0.51100000000E-03 0. -1.
</event>
<event>
 8    1  0.5489035E+004  0.1043930E+01  0.7957747E-01            NaN
         13   -1    0    0    0    0  0.00000000000E+00  0.00000000000E+00  0.74505805969E-08  0.10566000000E+00  0.10566000000E+00 0. -1.
     999900   -1    0    0    0    0 -0.00000000000E+00 -0.00000000000E+00 -0.74505805969E-08  0.93827000000E+00  0.93827000000E+00 0. -1.
     999902    2    1    2    0    0  0.85577530022E-02  0.34687313838E-02 -0.21886526839E-01  0.10201752680E+01  0.10198986666E+01 0.  0.
     999903    2    3    3    0    0  0.13719118187E-02  0.77226296105E-01  0.10074396259E+00  0.12858676900E+00  0.20479946542E-01 0.  0.
         14    1    1    2    0    0 -0.85577530022E-02 -0.34687313838E-02  0.21886526839E-01  0.23754731969E-01  0.00000000000E+00 0. -1.
     999901    1    3    3    0    0  0.71858411836E-02 -0.73757564721E-01 -0.12263048943E+00  0.89158849903E+00  0.88000000000E+00 0.  1.
        -11    1    4    4    0    0 -0.92870287432E-02  0.27328027232E-01  0.35271696598E-01  0.45578763445E-01  0.51100000000E-03 0.  1.
         11    1    4    4    0    0  0.10658940562E-01  0.49898268873E-01  0.65472265996E-01  0.83008005554E-01  0.51100000000E-03 0. -1.
</event>
<event>
 8    1  0.5489035E+004  0.1043930E+01  0.7957747E-01            NaN
         13   -1    0    0    0    0  0.00000000000E+00  0.00000000000E+00  0.74505805969E-08  0.10566000000E+00  0.10566000000E+00 0.  1.
     999900   -1    0    0    0    0 -0.00000000000E+00 -0.00000000000E+00 -0.74505805969E-08  0.93827000000E+00  0.93827000000E+00 0. -1.
     999902    2    1    2    0    0 -0.17123764282E-03  0.16631183803E-01  0.17212604894E-01  0.10199946837E+01  0.10197138106E+01 0.  0.
     999903    2    3    3    0    0 -0.59999455910E-01 -0.64774460340E-01  0.93957839482E-01  0.13089619334E+00  0.22584782710E-01 0.  0.
         14    1    1    2    0    0  0.17123764282E-03 -0.16631183803E-01 -0.17212604894E-01  0.23935316256E-01  0.00000000000E+00 0. -1.
     999901    1    3    3    0    0  0.59828218267E-01  0.81405644143E-01 -0.76745234588E-01  0.88909849040E+00  0.88000000000E+00 0.  1.
        -11    1    4    4    0    0 -0.37888330316E-01 -0.41501390972E-01  0.43397872625E-01  0.71003714664E-01  0.51100000000E-03 0.  1.
         11    1    4    4    0    0 -0.22111125595E-01 -0.23273069367E-01  0.50559966857E-01  0.59892478680E-01  0.51100000000E-03 0. -1.
</event>
<event>
 8    1  0.5489035E+004  0.1043930E+01  0.7957747E-01            NaN
         13   -1    0    0    0    0  0.00000000000E+00  0.00000000000E+00  0.74505805969E-08  0.10566000000E+00  0.10566000000E+00 0. -1.
     999900   -1    0    0    0    0 -0.00000000000E+00 -0.00000000000E+00 -0.74505805969E-08  0.93827000000E+00  0.93827000000E+00 0. -1.
     999902    2    1    2    0    0  0.14085574894E-01  0.81632053134E-02  0.17778189305E-01  0.10198238731E+01  0.10195389285E+01 0.  0.
     999903    2    3    3    0    0 -0.10034950972E+00 -0.71664939984E-01  0.29722202616E-01  0.12875115951E+00  0.22080851963E-01 0.  0.
         14    1    1    2    0    0 -0.14085574894E-01 -0.81632053134E-02 -0.17778189305E-01  0.24106126940E-01  0.00000000000E+00 0.  1.
     999901    1    3    3    0    0  0.11443508462E+00  0.79828145297E-01 -0.11944013311E-01  0.89107271355E+00  0.88000000000E+00 0.  1.
        -11    1    4    4    0    0 -0.96486206808E-02 -0.13058444200E-01 -0.15689662265E-02  0.16319976164E-01  0.51100000000E-03 0.  1.
         11    1    4    4    0    0 -0.90700889042E-01 -0.58606495784E-01  0.31291168842E-01  0.11243118335E+00  0.51100000000E-03 0. -1.
</event>
<event>
 8    1  0.5489035E+004  0.1043930E+01  0.7957747E-01            NaN
         13   -1    0    0    0    0  0.00000000000E+00  0.00000000000E+00  0.74505805969E-08  0.10566000000E+00  0.10566000000E+00 0.  1.
     999900   -1    0    0    0    0 -0.00000000000E+00 -0.00000000000E+00 -0.74505805969E-08  0.93827000000E+00  0.93827000000E+00 0.  1.
     999902    2    1    2    0    0 -0.25322158998E-02  0.49702923901E-02  0.23868811718E-01  0.10194180418E+01  0.10191233035E+01 0.  0.
     999903    2    3    3    0    0  0.50609099807E-01  0.11636617753E+00 -0.17481977168E-01  0.12984346344E+00  0.21244698532E-01 0.  0.
         14    1    1    2    0    0  0.25322158998E-02 -0.49702923901E-02 -0.23868811718E-01  0.24511958238E-01  0.00000000000E+00 0. -1.
     999901    1    3    3    0    0 -0.53141315707E-01 -0.11139588514E+00  0.41350788886E-01  0.88957457833E+00  0.88000000000E+00 0.  1.
        -11    1    4    4    0    0  0.25704755423E-01  0.52578896158E-01  0.22736515037E-02  0.58572223662E-01  0.51100000000E-03 0.  1.
         11    1    4    4    0    0  0.24904344384E-01  0.63787281371E-01 -0.19755628671E-01  0.71271239775E-01  0.51100000000E-03 0. -1.
</event>
<event>
 8    1  0.5489035E+004  0.1043930E+01  0.7957747E-01            NaN
         13   -1    0    0    0    0  0.00000000000E+00  0.00000000000E+00  0.74505805969E-08  0.10566000000E+00  0.10566000000E+00 0. -1.
     999900   -1    0    0    0    0 -0.00000000000E+00 -0.00000000000E+00 -0.74505805969E-08  0.93827000000E+00  0.93827000000E+00 0.  1.
     999902    2    1    2    0    0  0.10954963616E-01  0.20783588583E-01 -0.43912199739E-02  0.10200291298E+01  0.10197490741E+01 0.  0.
     999903    2    3    3    0    0 -0.28794727995E-01  0.90763575373E-01 -0.89571627431E-01  0.13226061363E+00  0.20065654796E-01 0.  0.
         14    1    1    2    0    0 -0.10954963616E-01 -0.20783588583E-01  0.43912199739E-02  0.23900870174E-01  0.00000000000E+00 0.  1.
     999901    1    3    3    0    0  0.39749691612E-01 -0.69979986789E-01  0.85180407457E-01  0.88776851620E+00  0.88000000000E+00 0. -1.
        -11    1    4    4    0    0 -0.18350447229E-01  0.46350469588E-01 -0.59453212841E-01  0.77588984931E-01  0.51100000000E-03 0.  1.
         11    1    4    4    0    0 -0.10444280766E-01  0.44413105784E-01 -0.30118414590E-01  0.54671628698E-01  0.51100000000E-03 0. -1.
</event>
<event>
 8    1  0.5489035E+004  0.1043930E+01  0.7957747E-01            NaN
         13   -1    0    0    0    0  0.00000000000E+00  0.00000000000E+00  0.74505805969E-08  0.10566000000E+00  0.10566000000E+00 0. -1.
     999900   -1    0    0    0    0 -0.00000000000E+00 -0.00000000000E+00 -0.74505805969E-08  0.93827000000E+00  0.93827000000E+00 0. -1.
     999902    2    1    2    0    0 -0.14023410189E-01  0.18660923276E-01  0.25860481604E-02  0.10204443930E+01  0.10201740957E+01 0.  0.
     999903    2    3    3    0    0  0.10321568521E+00 -0.74887061492E-02 -0.74207273838E-01  0.12897031996E+00  0.20422182707E-01 0.  0.
         14    1    1    2    0    0  0.14023410189E-01 -0.18660923276E-01 -0.25860481604E-02  0.23485606995E-01  0.00000000000E+00 0.  1.
     999901    1    3    3    0    0 -0.11723909540E+00  0.26149629425E-01  0.76793321999E-01  0.89147407305E+00  0.88000000000E+00 0. -1.
        -11    1    4    4    0    0  0.65461135635E-01 -0.36041930195E-02 -0.58584821304E-01  0.87923790262E-01  0.51100000000E-03 0.  1.
         11    1    4    4    0    0  0.37754549576E-01 -0.38845131296E-02 -0.15622452534E-01  0.41046529697E-01  0.51100000000E-03 0. -1.
</event>
<event>
 8    1  0.5489035E+004  0.1043930E+01  0.7957747E-01            NaN
         13   -1    0    0    0    0  0.00000000000E+00  0.00000000000E+00  0.74505805969E-08  0.10566000000E+00  0.10566000000E+00 0. -1.
     999900   -1    0    0    0    0 -0.00000000000E+00 -0.00000000000E+00 -0.74505805969E-08  0.93827000000E+00  0.93827000000E+00 0. -1.
     999902    2    1    2    0    0 -0.19547473666E-01  0.18772449138E-01  0.41988938519E-02  0.10165048422E+01  0.10161348113E+01 0.  0.
     999903    2    3    3    0    0  0.35452314243E-01  0.96892953981E-01  0.73935336288E-01  0.12859101674E+00  0.20593798069E-01 0.  0.
         14    1    1    2    0    0  0.19547473666E-01 -0.18772449138E-01 -0.41988938519E-02  0.27425157848E-01  0.00000000000E+00 0.  1.
     999901    1    3    3    0    0 -0.54999787910E-01 -0.78120504843E-01 -0.69736442436E-01  0.88791382541E+00  0.88000000000E+00 0. -1.
        -11    1    4    4    0    0  0.29627619749E-01  0.58204630986E-01  0.38584427448E-01  0.75859040877E-01  0.51100000000E-03 0. -1.
         11    1    4    4    0    0  0.58246944949E-02  0.38688322995E-01  0.35350908840E-01  0.52731975868E-01  0.51100000000E-03 0.  1.
</event>
<event>
 8    1  0.5489035E+004  0.1043930E+01  0.7957747E-01            NaN
         13   -1    0    0    0    0  0.00000000000E+00  0.00000000000E+00  0.74505805969E-08  0.10566000000E+00  0.10566000000E+00 0. -1.
     999900   -1    0    0    0    0 -0.00000000000E+00 -0.00000000000E+00 -0.74505805969E-08  0.93827000000E+00  0.93827000000E+00 0.  1.
     999902    2    1    2    0    0  0.19413809158E-01 -0.11997037698E-01 -0.71583189123E-02  0.10200120898E+01  0.10197316298E+01 0.  0.
     999903    2    3    3    0    0  0.17649615292E-01  0.11134553195E+00 -0.61058727598E-01  0.12977517978E+00  0.20102056310E-01 0.  0.
         14    1    1    2    0    0 -0.19413809158E-01  0.11997037698E-01  0.71583189123E-02  0.23917910218E-01  0.00000000000E+00 0.  1.
     999901    1    3    3    0    0  0.17641938663E-02 -0.12334256964E+00  0.53900408685E-01  0.89023691000E+00  0.88000000000E+00 0. -1.
        -11    1    4    4    0    0 -0.23201176995E-02  0.29138802511E-01 -0.22034877903E-01  0.36609421234E-01  0.51100000000E-03 0.  1.
         11    1    4    4    0    0  0.19969732991E-01  0.82206729436E-01 -0.39023849694E-01  0.93165758550E-01  0.51100000000E-03 0. -1.
</event>
<event>
 8    1  0.5489035E+004  0.1043930E+01  0.7957747E-01            NaN
         13   -1    0    0    0    0  0.00000000000E+00  0.00000000000E+00  0.74505805969E-08  0.10566000000E+00  0.10566000000E+00 0. -1.
     999900   -1    0    0    0    0 -0.00000000000E+00 -0.00000000000E+00 -0.74505805969E-08  0.93827000000E+00  0.93827000000E+00 0. -1.
     999902    2    1    2    0    0 -0.19073793634E-01  0.36594195126E-03  0.14040890637E-01  0.10202426589E+01  0.10199676431E+01 0.  0.
     999903    2    3    3    0    0 -0.25036208683E-01  0.15347947944E-02  0.12804587896E+00  0.13286784862E+00  0.25078890287E-01 0.  0.
         14    1    1    2    0    0  0.19073793634E-01 -0.36594195126E-03 -0.14040890637E-01  0.23687341070E-01  0.00000000000E+00 0.  1.
     999901    1    3    3    0    0  0.59624150496E-02 -0.11688528432E-02 -0.11400498832E+00  0.88737481031E+00  0.88000000000E+00 0. -1.
        -11    1    4    4    0    0  0.21315801774E-02 -0.66786559000E-02  0.28456635329E-01  0.29311930914E-01  0.51100000000E-03 0. -1.
         11    1    4    4    0    0 -0.27167788861E-01  0.82134506944E-02  0.99589243631E-01  0.10355591771E+00  0.51100000000E-03 0.  1.
</event>
<event>
 8    1  0.5489035E+004  0.1043930E+01  0.7957747E-01            NaN
         13   -1    0    0    0    0  0.00000000000E+00  0.00000000000E+00  0.74505805969E-08  0.10566000000E+00  0.10566000000E+00 0. -1.
     999900   -1    0    0    0    0 -0.00000000000E+00 -0.00000000000E+00 -0.74505805969E-08  0.93827000000E+00  0.93827000000E+00 0. -1.
     999902    2    1    2    0    0  0.79821623731E-02 -0.85518737668E-02 -0.18868243527E-01  0.10217295479E+01  0.10214883303E+01 0.  0.
     999903    2    3    3    0    0  0.59847337304E-01 -0.73352771827E-01  0.88881822462E-01  0.13128065575E+00  0.19295058746E-01 0.  0.
         14    1    1    2    0    0 -0.79821623731E-02  0.85518737668E-02  0.18868243527E-01  0.22200452132E-01  0.00000000000E+00 0. -1.
     999901    1    3    3    0    0 -0.51865174930E-01  0.64800898061E-01 -0.10775006599E+00  0.89044889212E+00  0.88000000000E+00 0. -1.
        -11    1    4    4    0    0  0.30977345624E-01 -0.27053116284E-01  0.47267957334E-01  0.62657704667E-01  0.51100000000E-03 0. -1.
         11    1    4    4    0    0  0.28869991679E-01 -0.46299655543E-01  0.41613865128E-01  0.68622951079E-01  0.51100000000E-03 0.  1.
</event>
<event>
 8    1  0.5489035E+004  0.1043930E+01  0.7957747E-01            NaN
         13   -1    0    0    0    0  0.00000000000E+00  0.00000000000E+00  0.74505805969E-08  0.10566000000E+00  0.10566000000E+00 0. -1.
     999900   -1    0    0    0    0 -0.00000000000E+00 -0.00000000000E+00 -0.74505805969E-08  0.93827000000E+00  0.93827000000E+00 0.  1.
     999902    2    1    2    0    0  0.16283429986E-01 -0.13631666196E-01  0.89254421359E-02  0.10208944637E+01  0.10206345429E+01 0.  0.
     999903    2    3    3    0    0  0.13039633169E+00 -0.19966977121E-01 -0.93011545247E-02  0.13331680550E+00  0.16881222140E-01 0.  0.
         14    1    1    2    0    0 -0.16283429986E-01  0.13631666196E-01 -0.89254421359E-02  0.23035536302E-01  0.00000000000E+00 0. -1.
     999901    1    3    3    0    0 -0.11411290170E+00  0.63353109252E-02  0.18226596661E-01  0.88757765819E+00  0.88000000000E+00 0. -1.
        -11    1    4    4    0    0  0.10031789049E+00 -0.22403945778E-01 -0.62166128383E-02  0.10297826633E+00  0.51100000000E-03 0.  1.
         11    1    4    4    0    0  0.30078441197E-01  0.24369686564E-02 -0.30845416864E-02  0.30338539178E-01  0.51100000000E-03 0. -1.
</event>
<event>
 8    1  0.5489035E+004  0.1043930E+01  0.7957747E-01            NaN
         13   -1    0    0    0    0  0.00000000000E+00  0.00000000000E+00  0.74505805969E-08  0.10566000000E+00  0.10566000000E+00 0. -1.
     999900   -1    0    0    0    0 -0.00000000000E+00 -0.00000000000E+00 -0.74505805969E-08  0.93827000000E+00  0.93827000000E+00 0. -1.
     999902    2    1    2    0    0  0.10529026780E-01 -0.21272659831E-01  0.20694908539E-02  0.10201041893E+01  0.10198259106E+01 0.  0.
     999903    2    3    3    0    0  0.13547676105E-01 -0.91685703113E-01 -0.92125617432E-01  0.13227547425E+00  0.20490583657E-01 0.  0.
         14    1    1    2    0    0 -0.10529026780E-01  0.21272659831E-01 -0.20694908539E-02  0.23825810660E-01  0.00000000000E+00 0. -1.
     999901    1    3    3    0    0 -0.30186493251E-02  0.70413043282E-01  0.94195108286E-01  0.88782871509E+00  0.88000000000E+00 0.  1.
        -11    1    4    4    0    0  0.59715354751E-02 -0.13428734932E-01 -0.66534443332E-02  0.16140619576E-01  0.51100000000E-03 0.  1.
         11    1    4    4    0    0  0.75761406296E-02 -0.78256968181E-01 -0.85472173099E-01  0.11613485468E+00  0.51100000000E-03 0. -1.
</event>
<event>
 8    1  0.5489035E+004  0.1043930E+01  0.7957747E-01            NaN
         13   -1    0    0    0    0  0.00000000000E+00  0.00000000000E+00  0.74505805969E-08  0.10566000000E+00  0.10566000000E+00 0. -1.
     999900   -1    0    0    0    0 -0.00000000000E+00 -0.00000000000E+00 -0.74505805969E-08  0.93827000000E+00  0.93827000000E+00 0.  1.
     999902    2    1    2    0    0 -0.10780795826E-01  0.18669283674E-01  0.43014338707E-02  0.10219465961E+01  0.10217101229E+01 0.  0.
     999903    2    3    3    0    0  0.77527376240E-01 -0.60837387102E-01 -0.81795631755E-01  0.12979618918E+00  0.21091316094E-01 0.  0.
         14    1    1    2    0    0  0.10780795826E-01 -0.18669283674E-01 -0.43014338707E-02  0.21983403851E-01  0.00000000000E+00 0.  1.
     999901    1    3    3    0    0 -0.88308172065E-01  0.79506670776E-01  0.86097065626E-01  0.89215040697E+00  0.88000000000E+00 0. -1.
        -11    1    4    4    0    0  0.15319027283E-01 -0.60474628323E-02 -0.22438282532E-01  0.27838499377E-01  0.51100000000E-03 0. -1.
         11    1    4    4    0    0  0.62208348957E-01 -0.54789924270E-01 -0.59357349224E-01  0.10195768980E+00  0.51100000000E-03 0.  1.
</event>
<event>
 8    1  0.5489035E+004  0.1043930E+01  0.7957747E-01            NaN
         13   -1    0    0    0    0  0.00000000000E+00  0.00000000000E+00  0.74505805969E-08  0.10566000000E+00  0.10566000000E+00 0.  1.
     999900   -1    0    0    0    0 -0.00000000000E+00 -0.00000000000E+00 -0.74505805969E-08  0.93827000000E+00  0.93827000000E+00 0. -1.
     999902    2    1    2    0    0  0.80098794455E-02 -0.20290340197E-01  0.80581882564E-02  0.10206750979E+01  0.10204101455E+01 0.  0.
     999903    2    3    3    0    0  0.88711405208E-01  0.80962033817E-01 -0.44518746988E-01  0.12964809851E+00  0.20053585238E-01 0.  0.
         14    1    1    2    0    0 -0.80098794455E-02  0.20290340197E-01 -0.80581882564E-02  0.23254902107E-01  0.00000000000E+00 0.  1.
     999901    1    3    3    0    0 -0.80701525763E-01 -0.10125237401E+00  0.52576935244E-01  0.89102699938E+00  0.88000000000E+00 0.  1.
        -11    1    4    4    0    0  0.40864683587E-01  0.43844172348E-01 -0.12811782559E-01  0.61291408101E-01  0.51100000000E-03 0. -1.
         11    1    4    4    0    0  0.47846721621E-01  0.37117861469E-01 -0.31706964429E-01  0.68356690413E-01  0.51100000000E-03 0.  1.
</event>
<event>
 8    1  0.5489035E+004  0.1043930E+01  0.7957747E-01            NaN
         13   -1    0    0    0    0  0.00000000000E+00  0.00000000000E+00  0.74505805969E-08  0.10566000000E+00  0.10566000000E+00 0. -1.
     999900   -1    0    0    0    0 -0.00000000000E+00 -0.00000000000E+00 -0.74505805969E-08  0.93827000000E+00  0.93827000000E+00 0.  1.
     999902    2    1    2    0    0 -0.10259693915E-02 -0.20427265386E-01 -0.11642513396E-01  0.10203954742E+01  0.10201240366E+01 0.  0.
     999903    2    3    3    0    0  0.15364442168E-01 -0.36318793666E-01  0.12231941927E+00  0.12996468768E+00  0.19330257560E-01 0.  0.
         14    1    1    2    0    0  0.10259693915E-02  0.20427265386E-01  0.11642513396E-01  0.23534525755E-01  0.00000000000E+00 0. -1.
     999901    1    3    3    0    0 -0.16390411560E-01  0.15891528280E-01 -0.13396193266E+00  0.89043078657E+00  0.88000000000E+00 0.  1.
        -11    1    4    4    0    0  0.11937385962E-01 -0.24704292390E-01  0.53939091413E-01  0.60518509148E-01  0.51100000000E-03 0.  1.
         11    1    4    4    0    0  0.34270562060E-02 -0.11614501276E-01  0.68380327854E-01  0.69446178531E-01  0.51100000000E-03 0. -1.
</event>
<event>
 8    1  0.5489035E+004  0.1043930E+01  0.7957747E-01            NaN
         13   -1    0    0    0    0  0.00000000000E+00  0.00000000000E+00  0.74505805969E-08  0.10566000000E+00  0.10566000000E+00 0.  1.
     999900   -1    0    0    0    0 -0.00000000000E+00 -0.00000000000E+00 -0.74505805969E-08  0.93827000000E+00  0.93827000000E+00 0. -1.
     999902    2    1    2    0    0 -0.11468109724E-01 -0.17512024254E-01  0.68847548936E-02  0.10218939299E+01  0.10216563099E+01 0.  0.
     999903    2    3    3    0    0 -0.42282784897E-01 -0.69743729902E-01  0.10476691206E+00  0.13439259924E+00  0.20814492769E-01 0.  0.
         14    1    1    2    0    0  0.11468109724E-01  0.17512024254E-01 -0.68847548936E-02  0.22036070068E-01  0.00000000000E+00 0. -1.
     999901    1    3    3    0    0  0.30814675174E-01  0.52231705649E-01 -0.97882157168E-01  0.88750133069E+00  0.88000000000E+00 0. -1.
        -11    1    4    4    0    0 -0.17841826930E-01 -0.26382473114E-01  0.57582255424E-01  0.65805341246E-01  0.51100000000E-03 0. -1.
         11    1    4    4    0    0 -0.24440957968E-01 -0.43361256788E-01  0.47184656638E-01  0.68587257998E-01  0.51100000000E-03 0.  1.
</event>
<event>
 8    1  0.5489035E+004  0.1043930E+01  0.7957747E-01            NaN
         13   -1    0    0    0    0  0.00000000000E+00  0.00000000000E+00  0.74505805969E-08  0.10566000000E+00  0.10566000000E+00 0. -1.
     999900   -1    0    0    0    0 -0.00000000000E+00 -0.00000000000E+00 -0.74505805969E-08  0.93827000000E+00  0.93827000000E+00 0. -1.
     999902    2    1    2    0    0  0.12446591730E-01 -0.20588856862E-01  0.69564740132E-02  0.10188858150E+01  0.10185779758E+01 0.  0.
     999903    2    3    3    0    0  0.54238351571E-01  0.59324426504E-01 -0.98095321760E-01  0.12806116117E+00  0.17770269747E-01 0.  0.
         14    1    1    2    0    0 -0.12446591730E-01  0.20588856862E-01 -0.69564740132E-02  0.25044185019E-01  0.00000000000E+00 0.  1.
     999901    1    3    3    0    0 -0.41791759840E-01 -0.79913283365E-01  0.10505179577E+00  0.89082465381E+00  0.88000000000E+00 0.  1.
        -11    1    4    4    0    0  0.39046943568E-01  0.35234779945E-01 -0.52605213207E-01  0.74388998496E-01  0.51100000000E-03 0.  1.
         11    1    4    4    0    0  0.15191408002E-01  0.24089646559E-01 -0.45490108554E-01  0.53672162670E-01  0.51100000000E-03 0. -1.
</event>
<event>
 8    1  0.5489035E+004  0.1043930E+01  0.7957747E-01            NaN
         13   -1    0    0    0    0  0.00000000000E+00  0.00000000000E+00  0.74505805969E-08  0.10566000000E+00  0.10566000000E+00 0. -1.
     999900   -1    0    0    0    0 -0.00000000000E+00 -0.00000000000E+00 -0.74505805969E-08  0.93827000000E+00  0.93827000000E+00 0.  1.
     999902    2    1    2    0    0  0.99166810120E-02 -0.46887596444E-03 -0.64811509496E-02  0.10320739583E+01  0.10320058574E+01 0.  0.
     999903    2    3    3    0    0  0.11144779672E+00  0.18367109266E-01 -0.84743834736E-01  0.14258623525E+00  0.19782690920E-01 0.  0.
         14    1    1    2    0    0 -0.99166810120E-02  0.46887596444E-03  0.64811509496E-02  0.11856041692E-01  0.00000000000E+00 0.  1.
     999901    1    3    3    0    0 -0.10153111571E+00 -0.18835985231E-01  0.78262683786E-01  0.88948772306E+00  0.88000000000E+00 0. -1.
        -11    1    4    4    0    0  0.32241796278E-01  0.14338611120E-01 -0.28421771229E-01  0.45312110930E-01  0.51100000000E-03 0. -1.
         11    1    4    4    0    0  0.79206000445E-01  0.40284981460E-02 -0.56322063506E-01  0.97274124321E-01  0.51100000000E-03 0.  1.
</event>
<event>
 8    1  0.5489035E+004  0.1043930E+01  0.7957747E-01            NaN
         13   -1    0    0    0    0  0.00000000000E+00  0.00000000000E+00  0.74505805969E-08  0.10566000000E+00  0.10566000000E+00 0. -1.
     999900   -1    0    0    0    0 -0.00000000000E+00 -0.00000000000E+00 -0.74505805969E-08  0.93827000000E+00  0.93827000000E+00 0.  1.
     999902    2    1    2    0    0 -0.22743458685E-01 -0.15721760839E-02 -0.56208957110E-02  0.10204495588E+01  0.10201793817E+01 0.  0.
     999903    2    3    3    0    0 -0.10973408131E+00 -0.72827181413E-01  0.24808724443E-03  0.13327477941E+00  0.20414169745E-01 0.  0.
         14    1    1    2    0    0  0.22743458685E-01  0.15721760839E-02  0.56208957110E-02  0.23480441205E-01  0.00000000000E+00 0.  1.
     999901    1    3    3    0    0  0.86990622627E-01  0.71255005329E-01 -0.58689829554E-02  0.88717477938E+00  0.88000000000E+00 0.  1.
        -11    1    4    4    0    0 -0.40205301301E-01 -0.38716426445E-01 -0.66335110969E-03  0.55822299174E-01  0.51100000000E-03 0. -1.
         11    1    4    4    0    0 -0.69528780011E-01 -0.34110754968E-01  0.91143835412E-03  0.77452480239E-01  0.51100000000E-03 0.  1.
</event>
<event>
 8    1  0.5489035E+004  0.1043930E+01  0.7957747E-01            NaN
         13   -1    0    0    0    0  0.00000000000E+00  0.00000000000E+00  0.74505805969E-08  0.10566000000E+00  0.10566000000E+00 0.  1.
     999900   -1    0    0    0    0 -0.00000000000E+00 -0.00000000000E+00 -0.74505805969E-08  0.93827000000E+00  0.93827000000E+00 0. -1.
     999902    2    1    2    0    0  0.22585553676E-01  0.48970336099E-02  0.15567009492E-02  0.10207672823E+01  0.10205044503E+01 0.  0.
     999903    2    3    3    0    0 -0.57398498018E-01  0.92697444469E-01 -0.68162426363E-01  0.13005570307E+00  0.19518343880E-01 0.  0.
         14    1    1    2    0    0 -0.22585553676E-01 -0.48970336099E-02 -0.15567009492E-02  0.23162717692E-01  0.00000000000E+00 0. -1.
     999901    1    3    3    0    0  0.79984051695E-01 -0.87800410859E-01  0.69719127312E-01  0.89071157924E+00  0.88000000000E+00 0.  1.
        -11    1    4    4    0    0 -0.21211988782E-01  0.18320690784E-01 -0.16315361511E-01  0.32435294374E-01  0.51100000000E-03 0.  1.
         11    1    4    4    0    0 -0.36186509236E-01  0.74376753686E-01 -0.51847064853E-01  0.97620408698E-01  0.51100000000E-03 0. -1.
</event>
<event>
 8    1  0.5489035E+004  0.1043930E+01  0.7957747E-01            NaN
         13   -1    0    0    0    0  0.00000000000E+00  0.00000000000E+00  0.74505805969E-08  0.10566000000E+00  0.10566000000E+00 0.  1.
     999900   -1    0    0    0    0 -0.00000000000E+00 -0.00000000000E+00 -0.74505805969E-08  0.93827000000E+00  0.93827000000E+00 0.  1.
     999902    2    1    2    0    0 -0.95737178754E-02 -0.17251186211E-01 -0.12791337973E-01  0.10204166458E+01  0.10201457019E+01 0.  0.
     999903    2    3    3    0    0 -0.81520537397E-01  0.80203992850E-01 -0.60317150846E-01  0.13084789652E+00  0.20118023047E-01 0.  0.
         14    1    1    2    0    0  0.95737178754E-02  0.17251186211E-01  0.12791337973E-01  0.23513354222E-01  0.00000000000E+00 0.  1.
     999901    1    3    3    0    0  0.71946819521E-01 -0.97455179061E-01  0.47525812872E-01  0.88956874926E+00  0.88000000000E+00 0. -1.
        -11    1    4    4    0    0 -0.39965541034E-01  0.50944106879E-01 -0.40010442365E-01  0.76115984623E-01  0.51100000000E-03 0. -1.
         11    1    4    4    0    0 -0.41554996363E-01  0.29259885971E-01 -0.20306708481E-01  0.54731911899E-01  0.51100000000E-03 0.  1.
</event>
<event>
 8    1  0.5489035E+004  0.1043930E+01  0.7957747E-01            NaN
         13   -1    0    0    0    0  0.00000000000E+00  0.00000000000E+00  0.74505805969E-08  0.10566000000E+00  0.10566000000E+00 0. -1.
     999900   -1    0    0    0    0 -0.00000000000E+00 -0.00000000000E+00 -0.74505805969E-08  0.93827000000E+00  0.93827000000E+00 0. -1.
     999902    2    1    2    0    0 -0.84415116611E-02 -0.17509187696E-01  0.11376381983E-01  0.10214077257E+01  0.10211593849E+01 0.  0.
     999903    2    3    3    0    0 -0.50948043997E-01 -0.73934958231E-01  0.98355278949E-01  0.13430231967E+00  0.17357158093E-01 0.  0.
         14    1    1    2    0    0  0.84415116611E-02  0.17509187696E-01 -0.11376381983E-01  0.22522274306E-01  0.00000000000E+00 0.  1.
     999901    1    3    3    0    0  0.42506532336E-01  0.56425770536E-01 -0.86978896966E-01  0.88710540602E+00  0.88000000000E+00 0.  1.
        -11    1    4    4    0    0 -0.23024427782E-02 -0.42343056948E-02  0.12864743448E-01  0.13747484586E-01  0.51100000000E-03 0.  1.
         11    1    4    4    0    0 -0.48645601218E-01 -0.69700652536E-01  0.85490535501E-01  0.12055483509E+00  0.51100000000E-03 0. -1.
</event>
<event>
 8    1  0.5489035E+004  0.1043930E+01  0.7957747E-01            NaN
         13   -1    0    0    0    0  0.00000000000E+00  0.00000000000E+00  0.74505805969E-08  0.10566000000E+00  0.10566000000E+00 0.  1.
     999900   -1    0    0    0    0 -0.00000000000E+00 -0.00000000000E+00 -0.74505805969E-08  0.93827000000E+00  0.93827000000E+00 0.  1.
     999902    2    1    2    0    0  0.45504282005E-02 -0.21285459417E-01  0.81641835989E-02  0.10206828266E+01  0.10204180522E+01 0.  0.
     999903    2    3    3    0    0 -0.67468539781E-01 -0.82490669052E-01 -0.74831426324E-01  0.13173902591E+00  0.19967830160E-01 0.  0.
         14    1    1    2    0    0 -0.45504282005E-02  0.21285459417E-01 -0.81641835989E-02  0.23247173446E-01  0.00000000000E+00 0.  1.
     999901    1    3    3    0    0  0.72018967981E-01  0.61205209636E-01  0.82995609923E-01  0.88894380064E+00  0.88000000000E+00 0. -1.
        -11    1    4    4    0    0 -0.27251229438E-01 -0.27163028695E-01 -0.37870368715E-01  0.53989680323E-01  0.51100000000E-03 0.  1.
         11    1    4    4    0    0 -0.40217310343E-01 -0.55327640357E-01 -0.36961057610E-01  0.77749345588E-01  0.51100000000E-03 0. -1.
</event>
<event>
 8    1  0.5489035E+004  0.1043930E+01  0.7957747E-01            NaN
         13   -1    0    0    0    0  0.00000000000E+00  0.00000000000E+00  0.74505805969E-08  0.10566000000E+00  0.10566000000E+00 0.  1.
     999900   -1    0    0    0    0 -0.00000000000E+00 -0.00000000000E+00 -0.74505805969E-08  0.93827000000E+00  0.93827000000E+00 0.  1.
     999902    2    1    2    0    0 -0.69825988366E-02  0.27066713461E-01  0.15962395984E-01  0.10117405336E+01  0.10112283350E+01 0.  0.
     999903    2    3    3    0    0  0.11347055190E+00  0.56133413439E-02 -0.38641519063E-01  0.12159964795E+00  0.19652776801E-01 0.  0.
         14    1    1    2    0    0  0.69825988366E-02 -0.27066713461E-01 -0.15962395984E-01  0.32189466439E-01  0.00000000000E+00 0.  1.
     999901    1    3    3    0    0 -0.12045315074E+00  0.21453372117E-01  0.54603915047E-01  0.89014088561E+00  0.88000000000E+00 0. -1.
        -11    1    4    4    0    0  0.64888344739E-01  0.21730610361E-02 -0.32187550655E-01  0.72467365175E-01  0.51100000000E-03 0. -1.
         11    1    4    4    0    0  0.48582207164E-01  0.34402803077E-02 -0.64539684077E-02  0.49132282775E-01  0.51100000000E-03 0.  1.
</event>
<event>
 8    1  0.5489035E+004  0.1043930E+01  0.7957747E-01            NaN
         13   -1    0    0    0    0  0.00000000000E+00  0.00000000000E+00  0.74505805969E-08  0.10566000000E+00  0.10566000000E+00 0. -1.
     999900   -1    0    0    0    0 -0.00000000000E+00 -0.00000000000E+00 -0.74505805969E-08  0.93827000000E+00  0.93827000000E+00 0.  1.
     999902    2    1    2    0    0  0.10833254996E-03  0.20890022410E-01  0.10479038656E-01  0.10205587565E+01  0.10202911155E+01 0.  0.
     999903    2    3    3    0    0 -0.90392320408E-01  0.48961406177E-02  0.93727824034E-01  0.13186503382E+00  0.20217278856E-01 0.  0.
         14    1    1    2    0    0 -0.10833254996E-03 -0.20890022410E-01 -0.10479038656E-01  0.23371243514E-01  0.00000000000E+00 0.  1.
     999901    1    3    3    0    0  0.90500652958E-01  0.15993881792E-01 -0.83248785378E-01  0.88869372267E+00  0.88000000000E+00 0.  1.
        -11    1    4    4    0    0 -0.56769325400E-01 -0.50279053174E-04  0.71310235556E-01  0.91149161545E-01  0.51100000000E-03 0. -1.
         11    1    4    4    0    0 -0.33622995008E-01  0.49464196709E-02  0.22417588478E-01  0.40715872274E-01  0.51100000000E-03 0.  1.
</event>
<event>
 7    1  0.5489035E+004  0.1043930E+01  0.7957747E-01            NaN
         13   -1    0    0    0    0  0.00000000000E+00  0.00000000000E+00  0.74505805969E-08  0.10566000000E+00  0.10566000000E+00 0.  1.
     999900   -1    0    0    0    0 -0.00000000000E+00 -0.00000000000E+00 -0.74505805969E-08  0.93827000000E+00  0.93827000000E+00 0. -1.
     999903    2    1    2    0    0 -0.38770713666E-01  0.48463887505E-01  0.74717719311E-01  0.98171646067E-01  0.14248434375E-01 0.  0.
         14    1    1    2    0    0  0.32093472351E-01 -0.17975570178E-01  0.43874979523E-01  0.57254920478E-01  0.00000000000E+00 0.  1.
     999901    1    1    2    0    0  0.66772413153E-02 -0.30488317327E-01 -0.11859269883E+00  0.88850343346E+00  0.88000000000E+00 0. -1.
        -11    1    3    3    0    0 -0.19376833743E-01  0.13660367548E-01  0.25006425189E-01  0.34462294601E-01  0.51100000000E-03 0. -1.
         11    1    3    3    0    0 -0.19393879924E-01  0.34803519957E-01  0.49711294123E-01  0.63709351466E-01  0.51100000000E-03 0.  1.
</event>
<event>
 8    1  0.5489035E+004  0.1043930E+01  0.7957747E-01            NaN
         13   -1    0    0    0    0  0.00000000000E+00  0.00000000000E+00  0.74505805969E-08  0.10566000000E+00  0.10566000000E+00 0. -1.
     999900   -1    0    0    0    0 -0.00000000000E+00 -0.00000000000E+00 -0.74505805969E-08  0.93827000000E+00  0.93827000000E+00 0. -1.
     999902    2    1    2    0    0  0.11044910628E-01 -0.23114395790E-01 -0.55170673321E-02  0.10177249742E+01  0.10173875465E+01 0.  0.
     999903    2    3    3    0    0  0.20687039719E-01 -0.12657069033E+00 -0.21789530548E-01  0.13146261545E+00  0.18961602185E-01 0.  0.
         14    1    1    2    0    0 -0.11044910628E-01  0.23114395790E-01  0.55170673321E-02  0.26205025767E-01  0.00000000000E+00 0.  1.
     999901    1    3    3    0    0 -0.96421290908E-02  0.10345629454E+00  0.16272463216E-01  0.88626235878E+00  0.88000000000E+00 0.  1.
        -11    1    4    4    0    0  0.46788338734E-02 -0.57350080971E-01 -0.14577861370E-02  0.57561354529E-01  0.51100000000E-03 0. -1.
         11    1    4    4    0    0  0.16008205846E-01 -0.69220609357E-01 -0.20331744411E-01  0.73901260922E-01  0.51100000000E-03 0.  1.
</event>
<event>
 8    1  0.5489035E+004  0.1043930E+01  0.7957747E-01            NaN
         13   -1    0    0    0    0  0.00000000000E+00  0.00000000000E+00  0.74505805969E-08  0.10566000000E+00  0.10566000000E+00 0.  1.
     999900   -1    0    0    0    0 -0.00000000000E+00 -0.00000000000E+00 -0.74505805969E-08  0.93827000000E+00  0.93827000000E+00 0. -1.
     999902    2    1    2    0    0  0.58561842332E-02 -0.14386196452E-01 -0.18307390569E-01  0.10199212913E+01  0.10196386725E+01 0.  0.
     999903    2    3    3    0    0 -0.69622505159E-01  0.33337665301E-01  0.99055724323E-01  0.12764963973E+00  0.22884511117E-01 0.  0.
         14    1    1    2    0    0 -0.58561842332E-02  0.14386196452E-01  0.18307390569E-01  0.24008708661E-01  0.00000000000E+00 0.  1.
     999901    1    3    3    0    0  0.75478689392E-01 -0.47723861752E-01 -0.11736311489E+00  0.89227165161E+00  0.88000000000E+00 0. -1.
        -11    1    4    4    0    0 -0.23320123224E-01  0.23482513031E-01  0.43436836330E-01  0.54610222824E-01  0.51100000000E-03 0. -1.
         11    1    4    4    0    0 -0.46302381935E-01  0.98551522691E-02  0.55618887993E-01  0.73039416903E-01  0.51100000000E-03 0.  1.
</event>
<event>
 8    1  0.5489035E+004  0.1043930E+01  0.7957747E-01            NaN
         13   -1    0    0    0    0  0.00000000000E+00  0.00000000000E+00  0.74505805969E-08  0.10566000000E+00  0.10566000000E+00 0.  1.
     999900   -1    0    0    0    0 -0.00000000000E+00 -0.00000000000E+00 -0.74505805969E-08  0.93827000000E+00  0.93827000000E+00 0.  1.
     999902    2    1    2    0    0  0.11093195377E-01  0.14379378303E-01  0.15017539192E-01  0.10203640927E+01  0.10200919222E+01 0.  0.
     999903    2    3    3    0    0  0.12541025017E+00  0.22856177345E-01 -0.27803760402E-01  0.13189692456E+00  0.19329095340E-01 0.  0.
         14    1    1    2    0    0 -0.11093195377E-01 -0.14379378303E-01 -0.15017539192E-01  0.23565907312E-01  0.00000000000E+00 0.  1.
     999901    1    3    3    0    0 -0.11431705479E+00 -0.84767990418E-02  0.42821299594E-01  0.88846716813E+00  0.88000000000E+00 0.  1.
        -11    1    4    4    0    0  0.31307166350E-01 -0.15768735527E-02 -0.11037642092E-01  0.33237266118E-01  0.51100000000E-03 0.  1.
         11    1    4    4    0    0  0.94103083818E-01  0.24433050897E-01 -0.16766118309E-01  0.98659658444E-01  0.51100000000E-03 0. -1.
</event>
<event>
 8    1  0.5489035E+004  0.1043930E+01  0.7957747E-01            NaN
         13   -1    0    0    0    0  0.00000000000E+00  0.00000000000E+00  0.74505805969E-08  0.10566000000E+00  0.10566000000E+00 0. -1.
     999900   -1    0    0    0    0 -0.00000000000E+00 -0.00000000000E+00 -0.74505805969E-08  0.93827000000E+00  0.93827000000E+00 0. -1.
     999902    2    1    2    0    0  0.12748522182E-01  0.19812928399E-01 -0.25653683519E-03  0.10203685323E+01  0.10200964655E+01 0.  0.
     999903    2    3    3    0    0  0.49627800804E-01 -0.50783021178E-01 -0.10737181578E+00  0.13030249414E+00  0.20203942718E-01 0.  0.
         14    1    1    2    0    0 -0.12748522182E-01 -0.19812928399E-01  0.25653683519E-03  0.23561467711E-01  0.00000000000E+00 0. -1.
     999901    1    3    3    0    0 -0.36879278622E-01  0.70595949577E-01  0.10711527895E+00  0.89006603815E+00  0.88000000000E+00 0.  1.
        -11    1    4    4    0    0  0.30115619459E-01 -0.16456105156E-01 -0.48671152567E-01  0.59555823775E-01  0.51100000000E-03 0.  1.
         11    1    4    4    0    0  0.19512181345E-01 -0.34326916022E-01 -0.58700663215E-01  0.70746670362E-01  0.51100000000E-03 0. -1.
</event>
<event>
 8    1  0.5489035E+004  0.1043930E+01  0.7957747E-01            NaN
         13   -1    0    0    0    0  0.00000000000E+00  0.00000000000E+00  0.74505805969E-08  0.10566000000E+00  0.10566000000E+00 0. -1.
     999900   -1    0    0    0    0 -0.00000000000E+00 -0.00000000000E+00 -0.74505805969E-08  0.93827000000E+00  0.93827000000E+00 0.  1.
     999902    2    1    2    0    0  0.10688617364E-01  0.22301525013E-01 -0.83191377531E-02  0.10178376139E+01  0.10175031183E+01 0.  0.
     999903    2    3    3    0    0  0.98620320205E-01 -0.51340189067E-01  0.59863623124E-01  0.12777920273E+00  0.19547089484E-01 0.  0.
         14    1    1    2    0    0 -0.10688617364E-01 -0.22301525013E-01  0.83191377531E-02  0.26092386093E-01  0.00000000000E+00 0. -1.
     999901    1    3    3    0    0 -0.87931702840E-01  0.73641714081E-01 -0.68182760877E-01  0.89005841117E+00  0.88000000000E+00 0. -1.
        -11    1    4    4    0    0  0.43268802336E-01 -0.12666292569E-01  0.28368903983E-01  0.53269879456E-01  0.51100000000E-03 0.  1.
         11    1    4    4    0    0  0.55351517869E-01 -0.38673896499E-01  0.31494719141E-01  0.74509323279E-01  0.51100000000E-03 0. -1.
</event>
<event>
 7    1  0.5489035E+004  0.1043930E+01  0.7957747E-01            NaN
         13   -1    0    0    0    0  0.00000000000E+00  0.00000000000E+00  0.74505805969E-08  0.10566000000E+00  0.10566000000E+00 0.  1.
     999900   -1    0    0    0    0 -0.00000000000E+00 -0.00000000000E+00 -0.74505805969E-08  0.93827000000E+00  0.93827000000E+00 0. -1.
     999902    2    1    2    0    0 -0.28144474917E-02  0.16284750734E-01  0.17924897699E-01  0.10195493483E+01  0.10192577973E+01 0.  0.
         14    1    1    2    0    0  0.28144474917E-02 -0.16284750734E-01 -0.17924897699E-01  0.24380651728E-01  0.00000000000E+00 0. -1.
     999901    1    3    3    0    0 -0.28630549627E-01  0.10218748613E+00 -0.69194964889E-01  0.88907251327E+00  0.88000000000E+00 0. -1.
        -11    1    3    3    0    0  0.17444745858E-01 -0.28090266099E-01  0.54005352771E-01  0.63326309354E-01  0.51100000000E-03 0.  1.
         11    1    3    3    0    0  0.83713562772E-02 -0.57812469302E-01  0.33114509818E-01  0.67150525643E-01  0.51100000000E-03 0. -1.
</event>
<event>
 8    1  0.5489035E+004  0.1043930E+01  0.7957747E-01            NaN
         13   -1    0    0    0    0  0.00000000000E+00  0.00000000000E+00  0.74505805969E-08  0.10566000000E+00  0.10566000000E+00 0.  1.
     999900   -1    0    0    0    0 -0.00000000000E+00 -0.00000000000E+00 -0.74505805969E-08  0.93827000000E+00  0.93827000000E+00 0. -1.
     999902    2    1    2    0    0 -0.13232784468E-01  0.15570739762E-01 -0.69903652543E-02  0.10223332473E+01  0.10221051065E+01 0.  0.
     999903    2    3    3    0    0 -0.12545445113E-01  0.13209460980E+00 -0.11358893484E-01  0.13464108850E+00  0.19819791159E-01 0.  0.
         14    1    1    2    0    0  0.13232784468E-01 -0.15570739762E-01  0.69903652543E-02  0.21596752717E-01  0.00000000000E+00 0.  1.
     999901    1    3    3    0    0 -0.68733935580E-03 -0.11652387003E+00  0.43685282299E-02  0.88769215878E+00  0.88000000000E+00 0. -1.
        -11    1    4    4    0    0 -0.28175446059E-02  0.94036332845E-01 -0.13014299594E-02  0.94088922268E-01  0.51100000000E-03 0.  1.
         11    1    4    4    0    0 -0.97279005066E-02  0.38058276951E-01 -0.10057463525E-01  0.40552166234E-01  0.51100000000E-03 0. -1.
</event>
<event>
 8    1  0.5489035E+004  0.1043930E+01  0.7957747E-01            NaN
         13   -1    0    0    0    0  0.00000000000E+00  0.00000000000E+00  0.74505805969E-08  0.10566000000E+00  0.10566000000E+00 0. -1.
     999900   -1    0    0    0    0 -0.00000000000E+00 -0.00000000000E+00 -0.74505805969E-08  0.93827000000E+00  0.93827000000E+00 0. -1.
     999902    2    1    2    0    0 -0.22401021186E-01  0.42631456555E-02  0.43434615107E-02  0.10207169472E+01  0.10204529585E+01 0.  0.
     999903    2    3    3    0    0 -0.97584739918E-01 -0.84369759663E-01  0.23805577457E-01  0.13286157757E+00  0.21082112490E-01 0.  0.
         14    1    1    2    0    0  0.22401021186E-01 -0.42631456555E-02 -0.43434615107E-02  0.23213052771E-01  0.00000000000E+00 0.  1.
     999901    1    3    3    0    0  0.75183718732E-01  0.88632905319E-01 -0.19462115946E-01  0.88785536965E+00  0.88000000000E+00 0.  1.
        -11    1    4    4    0    0 -0.20348810888E-01 -0.10241478043E-01 -0.15710278829E-02  0.22840560997E-01  0.51100000000E-03 0. -1.
         11    1    4    4    0    0 -0.77235929030E-01 -0.74128281621E-01  0.25376605340E-01  0.11002101658E+00  0.51100000000E-03 0.  1.
</event>
<event>
 8    1  0.5489035E+004  0.1043930E+01  0.7957747E-01            NaN
         13   -1    0    0    0    0  0.00000000000E+00  0.00000000000E+00  0.74505805969E-08  0.10566000000E+00  0.10566000000E+00 0. -1.
     999900   -1    0    0    0    0 -0.00000000000E+00 -0.00000000000E+00 -0.74505805969E-08  0.93827000000E+00  0.93827000000E+00 0.  1.
     999902    2    1    2    0    0 -0.85547914229E-02  0.50023852537E-02 -0.19525246177E-01  0.10220338005E+01  0.10217992199E+01 0.  0.
     999903    2    3    3    0    0  0.61721773749E-01 -0.11301268732E+00  0.11645817183E-01  0.13083349296E+00  0.20008322529E-01 0.  0.
         14    1    1    2    0    0  0.85547914229E-02 -0.50023852537E-02  0.19525246177E-01  0.21896199505E-01  0.00000000000E+00 0. -1.
     999901    1    3    3    0    0 -0.70276565172E-01  0.11801507258E+00 -0.31171063359E-01  0.89120030754E+00  0.88000000000E+00 0.  1.
        -11    1    4    4    0    0  0.41798023660E-02 -0.30772838390E-02 -0.27841201157E-02  0.59120951839E-02  0.51100000000E-03 0. -1.
         11    1    4    4    0    0  0.57541971383E-01 -0.10993540348E+00  0.14429937298E-01  0.12492139777E+00  0.51100000000E-03 0.  1.
</event>
<event>
 8    1  0.5489035E+004  0.1043930E+01  0.7957747E-01            NaN
         13   -1    0    0    0    0  0.00000000000E+00  0.00000000000E+00  0.74505805969E-08  0.10566000000E+00  0.10566000000E+00 0.  1.
     999900   -1    0    0    0    0 -0.00000000000E+00 -0.00000000000E+00 -0.74505805969E-08  0.93827000000E+00  0.93827000000E+00 0.  1.
     999902    2    1    2    0    0  0.11296944592E-01 -0.12697170550E-01  0.16129151962E-01  0.10204994934E+01  0.10202304776E+01 0.  0.
     999903    2    3    3    0    0  0.10555339398E-01 -0.65925467685E-01  0.11382477819E+00  0.13349428654E+00  0.20175775805E-01 0.  0.
         14    1    1    2    0    0 -0.11296944592E-01  0.12697170550E-01 -0.16129151962E-01  0.23430506612E-01  0.00000000000E+00 0. -1.
     999901    1    3    3    0    0  0.74160519358E-03  0.53228297135E-01 -0.97695626226E-01  0.88700520685E+00  0.88000000000E+00 0.  1.
        -11    1    4    4    0    0 -0.80027075516E-03 -0.68897805680E-02  0.33485955008E-02  0.77190493187E-02  0.51100000000E-03 0. -1.
         11    1    4    4    0    0  0.11355610153E-01 -0.59035687117E-01  0.11047618269E+00  0.12577523722E+00  0.51100000000E-03 0.  1.
</event>
<event>
 8    1  0.5489035E+004  0.1043930E+01  0.7957747E-01            NaN
         13   -1    0    0    0    0  0.00000000000E+00  0.00000000000E+00  0.74505805969E-08  0.10566000000E+00  0.10566000000E+00 0.  1.
     999900   -1    0    0    0    0 -0.00000000000E+00 -0.00000000000E+00 -0.74505805969E-08  0.93827000000E+00  0.93827000000E+00 0.  1.
     999902    2    1    2    0    0 -0.18883514211E-01 -0.40379530930E-02  0.13809367362E-01  0.10201899326E+01  0.10199136766E+01 0.  0.
     999903    2    3    3    0    0 -0.61529065787E-01 -0.96469375620E-01 -0.61130259604E-01  0.13115778545E+00  0.19320705893E-01 0.  0.
         14    1    1    2    0    0  0.18883514211E-01  0.40379530930E-02 -0.13809367362E-01  0.23740067420E-01  0.00000000000E+00 0. -1.
     999901    1    3    3    0    0  0.42645551576E-01  0.92431422527E-01  0.74939626966E-01  0.88903214713E+00  0.88000000000E+00 0. -1.
        -11    1    4    4    0    0 -0.52734473953E-02 -0.56350795990E-02 -0.10184111707E-01  0.12788300191E-01  0.51100000000E-03 0. -1.
         11    1    4    4    0    0 -0.56255618392E-01 -0.90834296021E-01 -0.50946147896E-01  0.11836948526E+00  0.51100000000E-03 0.  1.
</event>
<event>
 8    1  0.5489035E+004  0.1043930E+01  0.7957747E-01            NaN
         13   -1    0    0    0    0  0.00000000000E+00  0.00000000000E+00  0.74505805969E-08  0.10566000000E+00  0.10566000000E+00 0.  1.
     999900   -1    0    0    0    0 -0.00000000000E+00 -0.00000000000E+00 -0.74505805969E-08  0.93827000000E+00  0.93827000000E+00 0. -1.
     999902    2    1    2    0    0 -0.18041611470E-01  0.44752344086E-03 -0.16318455023E-01  0.10195991144E+01  0.10193087668E+01 0.  0.
     999903    2    3    3    0    0  0.24358132983E-01  0.11341226572E+00 -0.56352401088E-01  0.13046386696E+00  0.19737447037E-01 0.  0.
         14    1    1    2    0    0  0.18041611470E-01 -0.44752344086E-03  0.16318455023E-01  0.24330885640E-01  0.00000000000E+00 0.  1.
     999901    1    3    3    0    0 -0.42399744453E-01 -0.11296474228E+00  0.40033946065E-01  0.88913524740E+00  0.88000000000E+00 0.  1.
        -11    1    4    4    0    0  0.63479391411E-02  0.14174053098E-01 -0.14537135647E-01  0.21278852092E-01  0.51100000000E-03 0.  1.
         11    1    4    4    0    0  0.18010193842E-01  0.99238212624E-01 -0.41815265442E-01  0.10918501487E+00  0.51100000000E-03 0. -1.
</event>
<event>
 8    1  0.5489035E+004  0.1043930E+01  0.7957747E-01            NaN
         13   -1    0    0    0    0  0.00000000000E+00  0.00000000000E+00  0.74505805969E-08  0.10566000000E+00  0.10566000000E+00 0. -1.
     999900   -1    0    0    0    0 -0.00000000000E+00 -0.00000000000E+00 -0.74505805969E-08  0.93827000000E+00  0.93827000000E+00 0. -1.
     999902    2    1    2    0    0  0.42317518601E-02 -0.26254556985E-01 -0.82863834137E-02  0.10160754916E+01  0.10156936207E+01 0.  0.
     999903    2    3    3    0    0  0.50816748986E-01 -0.70557105677E-01  0.91826320795E-01  0.12806905510E+00  0.20222822377E-01 0.  0.
         14    1    1    2    0    0 -0.42317518601E-02  0.26254556985E-01  0.82863834137E-02  0.27854508367E-01  0.00000000000E+00 0.  1.
     999901    1    3    3    0    0 -0.46584997126E-01  0.44302548693E-01 -0.10011270421E+00  0.88800643653E+00  0.88000000000E+00 0.  1.
        -11    1    4    4    0    0  0.25122331370E-01 -0.31802468681E-01  0.57141930560E-01  0.70057047445E-01  0.51100000000E-03 0.  1.
         11    1    4    4    0    0  0.25694417616E-01 -0.38754636996E-01  0.34684390235E-01  0.58012007657E-01  0.51100000000E-03 0. -1.
</event>
<event>
 8    1  0.5489035E+004  0.1043930E+01  0.7957747E-01            NaN
         13   -1    0    0    0    0  0.00000000000E+00  0.00000000000E+00  0.74505805969E-08  0.10566000000E+00  0.10566000000E+00 0.  1.
     999900   -1    0    0    0    0 -0.00000000000E+00 -0.00000000000E+00 -0.74505805969E-08  0.93827000000E+00  0.93827000000E+00 0. -1.
     999902    2    1    2    0    0 -0.14704804038E-01  0.14800078649E-01  0.10246840825E-01  0.10206862624E+01  0.10204215673E+01 0.  0.
     999903    2    3    3    0    0 -0.28705522620E-01 -0.95922284472E-01  0.81764495948E-01  0.13075916607E+00  0.19683369309E-01 0.  0.
         14    1    1    2    0    0  0.14704804038E-01 -0.14800078649E-01 -0.10246840825E-01  0.23243737581E-01  0.00000000000E+00 0. -1.
     999901    1    3    3    0    0  0.14000718581E-01  0.11072236312E+00 -0.71517655123E-01  0.88992709635E+00  0.88000000000E+00 0. -1.
        -11    1    4    4    0    0 -0.11909568614E-01 -0.26714429688E-01  0.34740921712E-01  0.45416861852E-01  0.51100000000E-03 0.  1.
         11    1    4    4    0    0 -0.16795954006E-01 -0.69207854785E-01  0.47023574236E-01  0.85342304221E-01  0.51100000000E-03 0. -1.
</event>
<event>
 8    1  0.5489035E+004  0.1043930E+01  0.7957747E-01            NaN
         13   -1    0    0    0    0  0.00000000000E+00  0.00000000000E+00  0.74505805969E-08  0.10566000000E+00  0.10566000000E+00 0. -1.
     999900   -1    0    0    0    0 -0.00000000000E+00 -0.00000000000E+00 -0.74505805969E-08  0.93827000000E+00  0.93827000000E+00 0.  1.
     999902    2    1    2    0    0  0.88178842683E-02  0.18929989575E-02 -0.25136328737E-01  0.10172246906E+01  0.10168740815E+01 0.  0.
     999903    2    3    3    0    0  0.12302391490E+00  0.32327773257E-01  0.32659077904E-02  0.12886891729E+00  0.20409878227E-01 0.  0.
         14    1    1    2    0    0 -0.88178842683E-02 -0.18929989575E-02  0.25136328737E-01  0.26705309404E-01  0.00000000000E+00 0. -1.
     999901    1    3    3    0    0 -0.11420603063E+00 -0.30434774300E-01 -0.28402236527E-01  0.88835577330E+00  0.88000000000E+00 0.  1.
        -11    1    4    4    0    0  0.91721910669E-01  0.30508534100E-01  0.86529759306E-02  0.97050577861E-01  0.51100000000E-03 0. -1.
         11    1    4    4    0    0  0.31302004233E-01  0.18192391568E-02 -0.53870681402E-02  0.31818339432E-01  0.51100000000E-03 0.  1.
</event>
<event>
 8    1  0.5489035E+004  0.1043930E+01  0.7957747E-01            NaN
         13   -1    0    0    0    0  0.00000000000E+00  0.00000000000E+00  0.74505805969E-08  0.10566000000E+00  0.10566000000E+00 0.  1.
     999900   -1    0    0    0    0 -0.00000000000E+00 -0.00000000000E+00 -0.74505805969E-08  0.93827000000E+00  0.93827000000E+00 0. -1.
     999902    2    1    2    0    0 -0.11406923693E-01  0.20568315408E-01 -0.25893246091E-02  0.10202682564E+01  0.10199938416E+01 0.  0.
     999903    2    3    3    0    0 -0.64334264977E-01  0.11262900287E+00 -0.25045930222E-01  0.13359990086E+00  0.19936021486E-01 0.  0.
         14    1    1    2    0    0  0.11406923693E-01 -0.20568315408E-01  0.25893246091E-02  0.23661743570E-01  0.00000000000E+00 0.  1.
     999901    1    3    3    0    0  0.52927341284E-01 -0.92060687459E-01  0.22456605613E-01  0.88666835557E+00  0.88000000000E+00 0. -1.
        -11    1    4    4    0    0 -0.51205310295E-01  0.83822756753E-01 -0.27025869444E-01  0.10187687222E+00  0.51100000000E-03 0.  1.
         11    1    4    4    0    0 -0.13128954682E-01  0.28806246113E-01  0.19799392220E-02  0.31723028646E-01  0.51100000000E-03 0. -1.
</event>
<event>
 8    1  0.5489035E+004  0.1043930E+01  0.7957747E-01            NaN
         13   -1    0    0    0    0  0.00000000000E+00  0.00000000000E+00  0.74505805969E-08  0.10566000000E+00  0.10566000000E+00 0.  1.
     999900   -1    0    0    0    0 -0.00000000000E+00 -0.00000000000E+00 -0.74505805969E-08  0.93827000000E+00  0.93827000000E+00 0.  1.
     999902    2    1    2    0    0  0.36469132649E-02 -0.22093670689E-01 -0.76401479056E-02  0.10202698622E+01  0.10199954851E+01 0.  0.
     999903    2    3    3    0    0 -0.67289437910E-01  0.10549744270E-01  0.10812984182E+00  0.12925906037E+00  0.19408153859E-01 0.  0.
         14    1    1    2    0    0 -0.36469132649E-02  0.22093670689E-01  0.76401479056E-02  0.23660137803E-01  0.00000000000E+00 0.  1.
     999901    1    3    3    0    0  0.70936351175E-01 -0.32643414959E-01 -0.11576998973E+00  0.89101080183E+00  0.88000000000E+00 0.  1.
        -11    1    4    4    0    0 -0.36591032603E-01 -0.18497668209E-02  0.45543898107E-01  0.58453683203E-01  0.51100000000E-03 0.  1.
         11    1    4    4    0    0 -0.30698405307E-01  0.12399511091E-01  0.62585943713E-01  0.70805377163E-01  0.51100000000E-03 0. -1.
</event>
<event>
 8    1  0.5489035E+004  0.1043930E+01  0.7957747E-01            NaN
         13   -1    0    0    0    0  0.00000000000E+00  0.00000000000E+00  0.74505805969E-08  0.10566000000E+00  0.10566000000E+00 0.  1.
     999900   -1    0    0    0    0 -0.00000000000E+00 -0.00000000000E+00 -0.74505805969E-08  0.93827000000E+00  0.93827000000E+00 0. -1.
     999902    2    1    2    0    0  0.16091969785E-01  0.14297583534E-01  0.35224398796E-02  0.10221176189E+01  0.10218848501E+01 0.  0.
     999903    2    3    3    0    0  0.30377192159E-01 -0.39878909232E-01 -0.12012198019E+00  0.13170922801E+00  0.20122858011E-01 0.  0.
         14    1    1    2    0    0 -0.16091969785E-01 -0.14297583534E-01 -0.35224398796E-02  0.21812381099E-01  0.00000000000E+00 0.  1.
     999901    1    3    3    0    0 -0.14285222373E-01  0.54176492766E-01  0.12364442007E+00  0.89040839089E+00  0.88000000000E+00 0.  1.
        -11    1    4    4    0    0  0.21127564139E-01 -0.37999222743E-01 -0.86933180751E-01  0.97200586068E-01  0.51100000000E-03 0.  1.
         11    1    4    4    0    0  0.92496280197E-02 -0.18796864890E-02 -0.33188799439E-01  0.34508641947E-01  0.51100000000E-03 0. -1.
</event>
<event>
 8    1  0.5489035E+004  0.1043930E+01  0.7957747E-01            NaN
         13   -1    0    0    0    0  0.00000000000E+00  0.00000000000E+00  0.74505805969E-08  0.10566000000E+00  0.10566000000E+00 0.  1.
     999900   -1    0    0    0    0 -0.00000000000E+00 -0.00000000000E+00 -0.74505805969E-08  0.93827000000E+00  0.93827000000E+00 0. -1.
     999902    2    1    2    0    0  0.27910736669E-02  0.23340215717E-01 -0.26276283927E-02  0.10202770891E+01  0.10200028816E+01 0.  0.
     999903    2    3    3    0    0  0.26365359842E-01 -0.12303430094E+00 -0.85104777544E-02  0.12785574580E+00  0.21025986195E-01 0.  0.
         14    1    1    2    0    0 -0.27910736669E-02 -0.23340215717E-01  0.26276283927E-02  0.23652910876E-01  0.00000000000E+00 0. -1.
     999901    1    3    3    0    0 -0.23574286175E-01  0.14637451666E+00  0.58828493618E-02  0.89242134332E+00  0.88000000000E+00 0.  1.
        -11    1    4    4    0    0  0.79801075360E-02 -0.77092606838E-01 -0.11123035828E-01  0.78300288585E-01  0.51100000000E-03 0.  1.
         11    1    4    4    0    0  0.18385252306E-01 -0.45941694105E-01  0.26125580736E-02  0.49555457220E-01  0.51100000000E-03 0. -1.
</event>
<event>
 8    1  0.5489035E+004  0.1043930E+01  0.7957747E-01            NaN
         13   -1    0    0    0    0  0.00000000000E+00  0.00000000000E+00  0.74505805969E-08  0.10566000000E+00  0.10566000000E+00 0.  1.
     999900   -1    0    0    0    0 -0.00000000000E+00 -0.00000000000E+00 -0.74505805969E-08  0.93827000000E+00  0.93827000000E+00 0.  1.
     999902    2    1    2    0    0  0.85830629809E-02 -0.19630409280E-01 -0.85727671052E-02  0.10208537292E+01  0.10205928778E+01 0.  0.
     999903    2    3    3    0    0 -0.57532256925E-01  0.66765033321E-01  0.91422188138E-01  0.12853405603E+00  0.19886096027E-01 0.  0.
         14    1    1    2    0    0 -0.85830629809E-02  0.19630409280E-01  0.85727671052E-02  0.23076270809E-01  0.00000000000E+00 0.  1.
     999901    1    3    3    0    0  0.66115319906E-01 -0.86395442601E-01 -0.99994955243E-01  0.89231967316E+00  0.88000000000E+00 0.  1.
        -11    1    4    4    0    0 -0.24667374049E-02  0.81607099463E-02  0.30987382069E-02  0.90854432873E-02  0.51100000000E-03 0. -1.
         11    1    4    4    0    0 -0.55065519521E-01  0.58604323375E-01  0.88323449931E-01  0.11944861275E+00  0.51100000000E-03 0.  1.
</event>
<event>
 8    1  0.5489035E+004  0.1043930E+01  0.7957747E-01            NaN
         13   -1    0    0    0    0  0.00000000000E+00  0.00000000000E+00  0.74505805969E-08  0.10566000000E+00  0.10566000000E+00 0. -1.
     999900   -1    0    0    0    0 -0.00000000000E+00 -0.00000000000E+00 -0.74505805969E-08  0.93827000000E+00  0.93827000000E+00 0. -1.
     999902    2    1    2    0    0 -0.66307215702E-02 -0.21589061593E-01 -0.35810277141E-02  0.10210634784E+01  0.10208074006E+01 0.  0.
     999903    2    3    3    0    0  0.51240502796E-01 -0.11198752744E+00 -0.47458971160E-01  0.13345645100E+00  0.19785725635E-01 0.  0.
         14    1    1    2    0    0  0.66307215702E-02  0.21589061593E-01  0.35810277141E-02  0.22866521565E-01  0.00000000000E+00 0.  1.
     999901    1    3    3    0    0 -0.57871224366E-01  0.90398465851E-01  0.43877943446E-01  0.88760702744E+00  0.88000000000E+00 0. -1.
        -11    1    4    4    0    0  0.36886824233E-01 -0.65438983711E-01 -0.36527663036E-01  0.83531010283E-01  0.51100000000E-03 0. -1.
         11    1    4    4    0    0  0.14353678563E-01 -0.46548543734E-01 -0.10931308124E-01  0.49925440712E-01  0.51100000000E-03 0.  1.
</event>
<event>
 8    1  0.5489035E+004  0.1043930E+01  0.7957747E-01            NaN
         13   -1    0    0    0    0  0.00000000000E+00  0.00000000000E+00  0.74505805969E-08  0.10566000000E+00  0.10566000000E+00 0. -1.
     999900   -1    0    0    0    0 -0.00000000000E+00 -0.00000000000E+00 -0.74505805969E-08  0.93827000000E+00  0.93827000000E+00 0. -1.
     999902    2    1    2    0    0 -0.19357257915E-01 -0.12719945107E-01 -0.52858352589E-03  0.10207614904E+01  0.10204985254E+01 0.  0.
     999903    2    3    3    0    0  0.82896711250E-01  0.88420493262E-01 -0.37432842163E-01  0.12832259231E+00  0.19375800877E-01 0.  0.
         14    1    1    2    0    0  0.19357257915E-01  0.12719945107E-01  0.52858352589E-03  0.23168509621E-01  0.00000000000E+00 0. -1.
     999901    1    3    3    0    0 -0.10225396917E+00 -0.10114043837E+00  0.36904258637E-01  0.89243889807E+00  0.88000000000E+00 0.  1.
        -11    1    4    4    0    0  0.52798939794E-01  0.61374379932E-01 -0.15992596048E-01  0.82526158306E-01  0.51100000000E-03 0.  1.
         11    1    4    4    0    0  0.30097771457E-01  0.27046113330E-01 -0.21440246114E-01  0.45796434003E-01  0.51100000000E-03 0. -1.
</event>
<event>
 8    1  0.5489035E+004  0.1043930E+01  0.7957747E-01            NaN
         13   -1    0    0    0    0  0.00000000000E+00  0.00000000000E+00  0.74505805969E-08  0.10566000000E+00  0.10566000000E+00 0.  1.
     999900   -1    0    0    0    0 -0.00000000000E+00 -0.00000000000E+00 -0.74505805969E-08  0.93827000000E+00  0.93827000000E+00 0. -1.
     999902    2    1    2    0    0 -0.23046085658E-01  0.12118942772E-01 -0.12816405963E-02  0.10178602198E+01  0.10175263110E+01 0.  0.
     999903    2    3    3    0    0 -0.84309262832E-02 -0.21542629881E-02 -0.12675887692E+00  0.12872476097E+00  0.20652598883E-01 0.  0.
         14    1    1    2    0    0  0.23046085658E-01 -0.12118942772E-01  0.12816405963E-02  0.26069780219E-01  0.00000000000E+00 0.  1.
     999901    1    3    3    0    0 -0.14615159375E-01  0.14273205760E-01  0.12547723632E+00  0.88913545881E+00  0.88000000000E+00 0.  1.
        -11    1    4    4    0    0 -0.12136344081E-01 -0.66620986338E-02 -0.54662546701E-01  0.56390863965E-01  0.51100000000E-03 0.  1.
         11    1    4    4    0    0  0.37054177982E-02  0.45078356457E-02 -0.72096330220E-01  0.72333897002E-01  0.51100000000E-03 0. -1.
</event>
<event>
 8    1  0.5489035E+004  0.1043930E+01  0.7957747E-01            NaN
         13   -1    0    0    0    0  0.00000000000E+00  0.00000000000E+00  0.74505805969E-08  0.10566000000E+00  0.10566000000E+00 0.  1.
     999900   -1    0    0    0    0 -0.00000000000E+00 -0.00000000000E+00 -0.74505805969E-08  0.93827000000E+00  0.93827000000E+00 0. -1.
     999902    2    1    2    0    0 -0.47121096127E-02 -0.22329102845E-01  0.22461967172E-02  0.10209988376E+01  0.10207412934E+01 0.  0.
     999903    2    3    3    0    0 -0.18290084475E-01 -0.91512475429E-01 -0.92553683560E-01  0.13310373242E+00  0.21008543357E-01 0.  0.
         14    1    1    2    0    0  0.47121096127E-02  0.22329102845E-01 -0.22461967172E-02  0.22931162434E-01  0.00000000000E+00 0.  1.
     999901    1    3    3    0    0  0.13577974863E-01  0.69183372584E-01  0.94799880277E-01  0.88789510515E+00  0.88000000000E+00 0.  1.
        -11    1    4    4    0    0 -0.20777353396E-01 -0.89822949990E-01 -0.91454832421E-01  0.12986188145E+00  0.51100000000E-03 0.  1.
         11    1    4    4    0    0  0.24872689202E-02 -0.16895254394E-02 -0.10988511390E-02  0.32418509709E-02  0.51100000000E-03 0. -1.
</event>
<event>
 7    1  0.5489035E+004  0.1043930E+01  0.7957747E-01            NaN
         13   -1    0    0    0    0  0.00000000000E+00  0.00000000000E+00  0.74505805969E-08  0.10566000000E+00  0.10566000000E+00 0. -1.
     999900   -1    0    0    0    0 -0.00000000000E+00 -0.00000000000E+00 -0.74505805969E-08  0.93827000000E+00  0.93827000000E+00 0. -1.
     999903    2    1    2    0    0  0.11996616168E-01  0.16657462423E-01 -0.11636884189E+00  0.11995082008E+00  0.20618002337E-01 0.  0.
         14    1    1    2    0    0 -0.45444806995E-02 -0.21136947171E-01  0.33730763449E-01  0.40064788074E-01  0.00000000000E+00 0. -1.
     999901    1    1    2    0    0 -0.74521354688E-02  0.44794847486E-02  0.82638078442E-01  0.88391439185E+00  0.88000000000E+00 0.  1.
        -11    1    3    3    0    0  0.94057220282E-02  0.20115040514E-01 -0.71474585851E-01  0.74846242426E-01  0.51100000000E-03 0.  1.
         11    1    3    3    0    0  0.25908941401E-02 -0.34575780916E-02 -0.44894256041E-01  0.45104577652E-01  0.51100000000E-03 0. -1.
</event>
<event>
 8    1  0.5489035E+004  0.1043930E+01  0.7957747E-01            NaN
         13   -1    0    0    0    0  0.00000000000E+00  0.00000000000E+00  0.74505805969E-08  0.10566000000E+00  0.10566000000E+00 0.  1.
     999900   -1    0    0    0    0 -0.00000000000E+00 -0.00000000000E+00 -0.74505805969E-08  0.93827000000E+00  0.93827000000E+00 0.  1.
     999902    2    1    2    0    0  0.19042483859E-01  0.17032837919E-02  0.14214508661E-01  0.10201062802E+01  0.10198280509E+01 0.  0.
     999903    2    3    3    0    0 -0.31046029336E-01  0.36934965234E-01  0.12072970151E+00  0.13157062150E+00  0.20177215379E-01 0.  0.
         14    1    1    2    0    0 -0.19042483859E-01 -0.17032837919E-02 -0.14214508661E-01  0.23823719769E-01  0.00000000000E+00 0.  1.
     999901    1    3    3    0    0  0.50088513194E-01 -0.35231681442E-01 -0.10651519285E+00  0.88853565873E+00  0.88000000000E+00 0.  1.
        -11    1    4    4    0    0 -0.88225345874E-02  0.24113003738E-01  0.72902490702E-01  0.77293650045E-01  0.51100000000E-03 0. -1.
         11    1    4    4    0    0 -0.22223494748E-01  0.12821961496E-01  0.47827210808E-01  0.54276971453E-01  0.51100000000E-03 0.  1.
</event>
<event>
 8    1  0.5489035E+004  0.1043930E+01  0.7957747E-01            NaN
         13   -1    0    0    0    0  0.00000000000E+00  0.00000000000E+00  0.74505805969E-08  0.10566000000E+00  0.10566000000E+00 0.  1.
     999900   -1    0    0    0    0 -0.00000000000E+00 -0.00000000000E+00 -0.74505805969E-08  0.93827000000E+00  0.93827000000E+00 0.  1.
     999902    2    1    2    0    0 -0.17942074890E-01  0.10536745789E-01 -0.12172365318E-01  0.10198238277E+01  0.10195388821E+01 0.  0.
     999903    2    3    3    0    0  0.13373149666E-01 -0.10251820515E+00  0.72651879841E-01  0.12799580745E+00  0.20391359994E-01 0.  0.
         14    1    1    2    0    0  0.17942074890E-01 -0.10536745789E-01  0.12172365318E-01  0.24106172252E-01  0.00000000000E+00 0.  1.
     999901    1    3    3    0    0 -0.31315224556E-01  0.11305495093E+00 -0.84824245159E-01  0.89182802030E+00  0.88000000000E+00 0.  1.
        -11    1    4    4    0    0  0.25620328807E-02 -0.69586625930E-01  0.39643308173E-01  0.80129367429E-01  0.51100000000E-03 0. -1.
         11    1    4    4    0    0  0.10811116785E-01 -0.32931579216E-01  0.33008571668E-01  0.47866440022E-01  0.51100000000E-03 0.  1.
</event>
<event>
 8    1  0.5489035E+004  0.1043930E+01  0.7957747E-01            NaN
         13   -1    0    0    0    0  0.00000000000E+00  0.00000000000E+00  0.74505805969E-08  0.10566000000E+00  0.10566000000E+00 0.  1.
     999900   -1    0    0    0    0 -0.00000000000E+00 -0.00000000000E+00 -0.74505805969E-08  0.93827000000E+00  0.93827000000E+00 0.  1.
     999902    2    1    2    0    0  0.20350551530E-01  0.90434581488E-02  0.88100942052E-02  0.10199811620E+01  0.10196999676E+01 0.  0.
     999903    2    3    3    0    0  0.87504869931E-01 -0.88707973999E-01 -0.35518854027E-01  0.13091980266E+00  0.18766961014E-01 0.  0.
         14    1    1    2    0    0 -0.20350551530E-01 -0.90434581488E-02 -0.88100942052E-02  0.23948838026E-01  0.00000000000E+00 0.  1.
     999901    1    3    3    0    0 -0.67154318400E-01  0.97751432148E-01  0.44328948232E-01  0.88906135931E+00  0.88000000000E+00 0. -1.
        -11    1    4    4    0    0  0.36589930480E-01 -0.26671495566E-01 -0.74160144432E-02  0.45885183659E-01  0.51100000000E-03 0.  1.
         11    1    4    4    0    0  0.50914939451E-01 -0.62036478433E-01 -0.28102839584E-01  0.85034619005E-01  0.51100000000E-03 0. -1.
</event>
<event>
 7    1  0.5489035E+004  0.1043930E+01  0.7957747E-01            NaN
         13   -1    0    0    0    0  0.00000000000E+00  0.00000000000E+00  0.74505805969E-08  0.10566000000E+00  0.10566000000E+00 0. -1.
     999900   -1    0    0    0    0 -0.00000000000E+00 -0.00000000000E+00 -0.74505805969E-08  0.93827000000E+00  0.93827000000E+00 0. -1.
     999903    2    1    2    0    0  0.58258551778E-01  0.31903293370E-02 -0.88394652819E-01  0.10709405473E+00  0.15851966913E-01 0.  0.
         14    1    1    2    0    0  0.14558382573E-02 -0.13948089314E-01 -0.42804226953E-01  0.45042985087E-01  0.00000000000E+00 0.  1.
     999901    1    1    2    0    0 -0.59714390036E-01  0.10757759977E-01  0.13119887977E+00  0.89179296018E+00  0.88000000000E+00 0.  1.
        -11    1    3    3    0    0  0.20584566520E-01 -0.63753567893E-02 -0.29854206327E-01  0.36822605957E-01  0.51100000000E-03 0. -1.
         11    1    3    3    0    0  0.37673985259E-01  0.95656861263E-02 -0.58540446492E-01  0.70271448774E-01  0.51100000000E-03 0.  1.
</event>
<event>
 8    1  0.5489035E+004  0.1043930E+01  0.7957747E-01            NaN
         13   -1    0    0    0    0  0.00000000000E+00  0.00000000000E+00  0.74505805969E-08  0.10566000000E+00  0.10566000000E+00 0.  1.
     999900   -1    0    0    0    0 -0.00000000000E+00 -0.00000000000E+00 -0.74505805969E-08  0.93827000000E+00  0.93827000000E+00 0. -1.
     999902    2    1    2    0    0  0.23417731093E-01  0.46799853746E-02 -0.27812603045E-02  0.10198877913E+01  0.10196043737E+01 0.  0.
     999903    2    3    3    0    0 -0.91956783016E-01  0.39560778143E-01 -0.77998436719E-01  0.12849249631E+00  0.20136046492E-01 0.  0.
         14    1    1    2    0    0 -0.23417731093E-01 -0.46799853746E-02  0.27812603045E-02  0.24042208749E-01  0.00000000000E+00 0. -1.
     999901    1    3    3    0    0  0.11537451411E+00 -0.34880792768E-01  0.75217176414E-01  0.89139529494E+00  0.88000000000E+00 0.  1.
        -11    1    4    4    0    0 -0.66182208934E-01  0.34525449815E-01 -0.48628839183E-01  0.89090496606E-01  0.51100000000E-03 0. -1.
         11    1    4    4    0    0 -0.25774574082E-01  0.50353283281E-02 -0.29369597536E-01  0.39401999707E-01  0.51100000000E-03 0.  1.
</event>
<event>
 8    1  0.5489035E+004  0.1043930E+01  0.7957747E-01            NaN
         13   -1    0    0    0    0  0.00000000000E+00  0.00000000000E+00  0.74505805969E-08  0.10566000000E+00  0.10566000000E+00 0.  1.
     999900   -1    0    0    0    0 -0.00000000000E+00 -0.00000000000E+00 -0.74505805969E-08  0.93827000000E+00  0.93827000000E+00 0. -1.
     999902    2    1    2    0    0 -0.12715376240E-01  0.27423640252E-02  0.18379174879E-01  0.10214134411E+01  0.10211652277E+01 0.  0.
     999903    2    3    3    0    0 -0.33588171269E-01  0.97076737228E-01  0.83385709110E-01  0.13374205092E+00  0.19537183511E-01 0.  0.
         14    1    1    2    0    0  0.12715376240E-01 -0.27423640252E-02 -0.18379174879E-01  0.22516558854E-01  0.00000000000E+00 0. -1.
     999901    1    3    3    0    0  0.20872795029E-01 -0.94334373203E-01 -0.65006534230E-01  0.88767139023E+00  0.88000000000E+00 0. -1.
        -11    1    4    4    0    0 -0.32740460401E-01  0.71952756298E-01  0.67915539390E-01  0.10422052820E+00  0.51100000000E-03 0.  1.
         11    1    4    4    0    0 -0.84771086848E-03  0.25123980930E-01  0.15470169720E-01  0.29521522719E-01  0.51100000000E-03 0. -1.
</event>
<event>
 8    1  0.5489035E+004  0.1043930E+01  0.7957747E-01            NaN
         13   -1    0    0    0    0  0.00000000000E+00  0.00000000000E+00  0.74505805969E-08  0.10566000000E+00  0.10566000000E+00 0.  1.
     999900   -1    0    0    0    0 -0.00000000000E+00 -0.00000000000E+00 -0.74505805969E-08  0.93827000000E+00  0.93827000000E+00 0.  1.
     999902    2    1    2    0    0  0.95182805612E-02  0.20275077888E-01  0.18031377101E-01  0.10151757480E+01  0.10147684427E+01 0.  0.
     999903    2    3    3    0    0  0.11493830643E+00 -0.47999838415E-01  0.27898443033E-02  0.12612729579E+00  0.19634478315E-01 0.  0.
         14    1    1    2    0    0 -0.95182805612E-02 -0.20275077888E-01 -0.18031377101E-01  0.28754252005E-01  0.00000000000E+00 0.  1.
     999901    1    3    3    0    0 -0.10542002587E+00  0.68274916303E-01  0.15241532798E-01  0.88904845221E+00  0.88000000000E+00 0.  1.
        -11    1    4    4    0    0  0.63608982678E-01 -0.22804251115E-01 -0.76272205703E-02  0.68004206935E-01  0.51100000000E-03 0.  1.
         11    1    4    4    0    0  0.51329323751E-01 -0.25195587300E-01  0.10417064874E-01  0.58123088852E-01  0.51100000000E-03 0. -1.
</event>
<event>
 8    1  0.5489035E+004  0.1043930E+01  0.7957747E-01            NaN
         13   -1    0    0    0    0  0.00000000000E+00  0.00000000000E+00  0.74505805969E-08  0.10566000000E+00  0.10566000000E+00 0. -1.
     999900   -1    0    0    0    0 -0.00000000000E+00 -0.00000000000E+00 -0.74505805969E-08  0.93827000000E+00  0.93827000000E+00 0.  1.
     999902    2    1    2    0    0  0.14154323152E-01  0.15522714478E-02 -0.20853719157E-01  0.10186786235E+01  0.10183656053E+01 0.  0.
     999903    2    3    3    0    0 -0.12093702642E+00  0.15946383908E-01  0.29357398278E-01  0.12683894091E+00  0.18606681027E-01 0.  0.
         14    1    1    2    0    0 -0.14154323152E-01 -0.15522714478E-02  0.20853719157E-01  0.25251376462E-01  0.00000000000E+00 0. -1.
     999901    1    3    3    0    0  0.13509134957E+00 -0.14394112460E-01 -0.50211117435E-01  0.89183968263E+00  0.88000000000E+00 0.  1.
        -11    1    4    4    0    0 -0.54126979331E-01  0.14056213466E-02  0.20470266398E-01  0.57887810377E-01  0.51100000000E-03 0. -1.
         11    1    4    4    0    0 -0.66810047085E-01  0.14540762561E-01  0.88871318796E-02  0.68951130530E-01  0.51100000000E-03 0.  1.
</event>
<event>
 8    1  0.5489035E+004  0.1043930E+01  0.7957747E-01            NaN
         13   -1    0    0    0    0  0.00000000000E+00  0.00000000000E+00  0.74505805969E-08  0.10566000000E+00  0.10566000000E+00 0.  1.
     999900   -1    0    0    0    0 -0.00000000000E+00 -0.00000000000E+00 -0.74505805969E-08  0.93827000000E+00  0.93827000000E+00 0.  1.
     999902    2    1    2    0    0  0.18080654187E-01  0.12451459850E-01  0.10743367459E-01  0.10194888697E+01  0.10191958529E+01 0.  0.
     999903    2    3    3    0    0  0.53804551958E-01  0.11301786501E-01 -0.11590666552E+00  0.12970364305E+00  0.19131641845E-01 0.  0.
         14    1    1    2    0    0 -0.18080654187E-01 -0.12451459850E-01 -0.10743367459E-01  0.24441130346E-01  0.00000000000E+00 0. -1.
     999901    1    3    3    0    0 -0.35723897771E-01  0.11496733488E-02  0.12665003298E+00  0.88978522660E+00  0.88000000000E+00 0. -1.
        -11    1    4    4    0    0  0.17116261076E-01  0.10598209664E-01 -0.55291810736E-01  0.58844998910E-01  0.51100000000E-03 0.  1.
         11    1    4    4    0    0  0.36688290882E-01  0.70357683701E-03 -0.60614854786E-01  0.70858644144E-01  0.51100000000E-03 0. -1.
</event>
<event>
 8    1  0.5489035E+004  0.1043930E+01  0.7957747E-01            NaN
         13   -1    0    0    0    0  0.00000000000E+00  0.00000000000E+00  0.74505805969E-08  0.10566000000E+00  0.10566000000E+00 0.  1.
     999900   -1    0    0    0    0 -0.00000000000E+00 -0.00000000000E+00 -0.74505805969E-08  0.93827000000E+00  0.93827000000E+00 0. -1.
     999902    2    1    2    0    0  0.68199542378E-02 -0.74900146160E-02  0.21425214765E-01  0.10202308033E+01  0.10199555089E+01 0.  0.
     999903    2    3    3    0    0  0.54294784995E-01 -0.91616260081E-01 -0.71898491681E-01  0.13003958853E+00  0.19985962343E-01 0.  0.
         14    1    1    2    0    0 -0.68199542378E-02  0.74900146160E-02 -0.21425214765E-01  0.23699196663E-01  0.00000000000E+00 0. -1.
     999901    1    3    3    0    0 -0.47474830757E-01  0.84126245465E-01  0.93323706446E-01  0.89019121481E+00  0.88000000000E+00 0.  1.
        -11    1    4    4    0    0  0.34217662457E-01 -0.39593214904E-01 -0.39290141357E-01  0.65440411210E-01  0.51100000000E-03 0.  1.
         11    1    4    4    0    0  0.20077122537E-01 -0.52023045176E-01 -0.32608350324E-01  0.64599177322E-01  0.51100000000E-03 0. -1.
</event>
<event>
 8    1  0.5489035E+004  0.1043930E+01  0.7957747E-01            NaN
         13   -1    0    0    0    0  0.00000000000E+00  0.00000000000E+00  0.74505805969E-08  0.10566000000E+00  0.10566000000E+00 0. -1.
     999900   -1    0    0    0    0 -0.00000000000E+00 -0.00000000000E+00 -0.74505805969E-08  0.93827000000E+00  0.93827000000E+00 0. -1.
     999902    2    1    2    0    0  0.17523729618E-01 -0.84960324112E-02  0.13233228592E-01  0.10203846819E+01  0.10201129923E+01 0.  0.
     999903    2    3    3    0    0  0.30859015161E-01 -0.74711065924E-01  0.10381718729E+00  0.13315995608E+00  0.20482757071E-01 0.  0.
         14    1    1    2    0    0 -0.17523729618E-01  0.84960324112E-02 -0.13233228592E-01  0.23545318121E-01  0.00000000000E+00 0.  1.
     999901    1    3    3    0    0 -0.13335285543E-01  0.66215033513E-01 -0.90583958697E-01  0.88722472580E+00  0.88000000000E+00 0. -1.
        -11    1    4    4    0    0  0.23684154066E-01 -0.45453176211E-01  0.78775361408E-01  0.93982706215E-01  0.51100000000E-03 0. -1.
         11    1    4    4    0    0  0.71748610950E-02 -0.29257889713E-01  0.25041825881E-01  0.39177249861E-01  0.51100000000E-03 0.  1.
</event>
<event>
 8    1  0.5489035E+004  0.1043930E+01  0.7957747E-01            NaN
         13   -1    0    0    0    0  0.00000000000E+00  0.00000000000E+00  0.74505805969E-08  0.10566000000E+00  0.10566000000E+00 0.  1.
     999900   -1    0    0    0    0 -0.00000000000E+00 -0.00000000000E+00 -0.74505805969E-08  0.93827000000E+00  0.93827000000E+00 0.  1.
     999902    2    1    2    0    0 -0.10207201788E-01  0.18764225951E-01  0.84409265126E-02  0.10209619268E+01  0.10207035435E+01 0.  0.
     999903    2    3    3    0    0  0.12797333604E+00 -0.45602121613E-02 -0.56080030271E-02  0.12976314831E+00  0.20225100447E-01 0.  0.
         14    1    1    2    0    0  0.10207201788E-01 -0.18764225951E-01 -0.84409265126E-02  0.22968073151E-01  0.00000000000E+00 0. -1.
     999901    1    3    3    0    0 -0.13818053783E+00  0.23324438112E-01  0.14048929540E-01  0.89119877854E+00  0.88000000000E+00 0. -1.
        -11    1    4    4    0    0  0.35154876868E-01  0.30506386058E-02 -0.95115657390E-02  0.36550003656E-01  0.51100000000E-03 0. -1.
         11    1    4    4    0    0  0.92818459176E-01 -0.76108507671E-02  0.39035627119E-02  0.93213144653E-01  0.51100000000E-03 0.  1.
</event>
<event>
 8    1  0.5489035E+004  0.1043930E+01  0.7957747E-01            NaN
         13   -1    0    0    0    0  0.00000000000E+00  0.00000000000E+00  0.74505805969E-08  0.10566000000E+00  0.10566000000E+00 0. -1.
     999900   -1    0    0    0    0 -0.00000000000E+00 -0.00000000000E+00 -0.74505805969E-08  0.93827000000E+00  0.93827000000E+00 0. -1.
     999902    2    1    2    0    0 -0.13326187522E-01 -0.11677950319E-03 -0.11407713327E-01  0.10263875704E+01  0.10262376469E+01 0.  0.
     999903    2    3    3    0    0  0.78690500908E-01 -0.10042771373E+00  0.37447929990E-01  0.13458253101E+00  0.20789169651E-01 0.  0.
         14    1    1    2    0    0  0.13326187522E-01  0.11677950319E-03  0.11407713327E-01  0.17542429555E-01  0.00000000000E+00 0. -1.
     999901    1    3    3    0    0 -0.92016688430E-01  0.10031093423E+00 -0.48855643318E-01  0.89180503943E+00  0.88000000000E+00 0. -1.
        -11    1    4    4    0    0  0.42636884728E-01 -0.39397893334E-01  0.12108802964E-01  0.59304149675E-01  0.51100000000E-03 0. -1.
         11    1    4    4    0    0  0.36053616180E-01 -0.61029820396E-01  0.25339127027E-01  0.75278381337E-01  0.51100000000E-03 0.  1.
</event>
<event>
 8    1  0.5489035E+004  0.1043930E+01  0.7957747E-01            NaN
         13   -1    0    0    0    0  0.00000000000E+00  0.00000000000E+00  0.74505805969E-08  0.10566000000E+00  0.10566000000E+00 0. -1.
     999900   -1    0    0    0    0 -0.00000000000E+00 -0.00000000000E+00 -0.74505805969E-08  0.93827000000E+00  0.93827000000E+00 0.  1.
     999902    2    1    2    0    0 -0.17318194921E-01  0.10476357851E-01  0.18145872082E-02  0.10236084185E+01  0.10234066776E+01 0.  0.
     999903    2    3    3    0    0  0.44406414208E-01  0.11068359487E+00 -0.57808210235E-01  0.13377343619E+00  0.18186678183E-01 0.  0.
         14    1    1    2    0    0  0.17318194921E-01 -0.10476357851E-01 -0.18145872082E-02  0.20321581530E-01  0.00000000000E+00 0.  1.
     999901    1    3    3    0    0 -0.61724609128E-01 -0.10020723701E+00  0.59622797443E-01  0.88983498228E+00  0.88000000000E+00 0. -1.
        -11    1    4    4    0    0  0.21387658832E-01  0.50596931399E-01 -0.16700143448E-01  0.57416350716E-01  0.51100000000E-03 0. -1.
         11    1    4    4    0    0  0.23018755375E-01  0.60086663466E-01 -0.41108066787E-01  0.76357085470E-01  0.51100000000E-03 0.  1.
</event>
<event>
 8    1  0.5489035E+004  0.1043930E+01  0.7957747E-01            NaN
         13   -1    0    0    0    0  0.00000000000E+00  0.00000000000E+00  0.74505805969E-08  0.10566000000E+00  0.10566000000E+00 0. -1.
     999900   -1    0    0    0    0 -0.00000000000E+00 -0.00000000000E+00 -0.74505805969E-08  0.93827000000E+00  0.93827000000E+00 0. -1.
     999902    2    1    2    0    0  0.22325216456E-01  0.10221924800E-03  0.88258307560E-02  0.10199233129E+01  0.10196407422E+01 0.  0.
     999903    2    3    3    0    0  0.15521337700E-01 -0.12165943501E+00  0.41176513231E-01  0.13092457278E+00  0.20094986086E-01 0.  0.
         14    1    1    2    0    0 -0.22325216456E-01 -0.10221924800E-03 -0.88258307560E-02  0.24006687134E-01  0.00000000000E+00 0. -1.
     999901    1    3    3    0    0  0.68038787566E-02  0.12176165426E+00 -0.32350682475E-01  0.88899874008E+00  0.88000000000E+00 0.  1.
        -11    1    4    4    0    0  0.32338322548E-02 -0.69300953268E-01  0.14452034709E-01  0.70867497650E-01  0.51100000000E-03 0.  1.
         11    1    4    4    0    0  0.12287505445E-01 -0.52358481741E-01  0.26724478521E-01  0.60057075133E-01  0.51100000000E-03 0. -1.
</event>
<event>
 8    1  0.5489035E+004  0.1043930E+01  0.7957747E-01            NaN
         13   -1    0    0    0    0  0.00000000000E+00  0.00000000000E+00  0.74505805969E-08  0.10566000000E+00  0.10566000000E+00 0. -1.
     999900   -1    0    0    0    0 -0.00000000000E+00 -0.00000000000E+00 -0.74505805969E-08  0.93827000000E+00  0.93827000000E+00 0. -1.
     999902    2    1    2    0    0 -0.16241911413E-01  0.17220164818E-01  0.69114427062E-03  0.10202485422E+01  0.10199736646E+01 0.  0.
     999903    2    3    3    0    0 -0.49127348928E-01  0.12044673905E+00  0.21407894124E-01  0.13336277654E+00  0.20159833165E-01 0.  0.
         14    1    1    2    0    0  0.16241911413E-01 -0.17220164818E-01 -0.69114427062E-03  0.23681457791E-01  0.00000000000E+00 0.  1.
     999901    1    3    3    0    0  0.32885437515E-01 -0.10322657424E+00 -0.20716749853E-01  0.88688576567E+00  0.88000000000E+00 0. -1.
        -11    1    4    4    0    0 -0.24423557593E-01  0.55688859899E-01  0.20071392702E-01  0.64038123086E-01  0.51100000000E-03 0.  1.
         11    1    4    4    0    0 -0.24703791335E-01  0.64757879154E-01  0.13365014213E-02  0.69324653450E-01  0.51100000000E-03 0. -1.
</event>
<event>
 8    1  0.5489035E+004  0.1043930E+01  0.7957747E-01            NaN
         13   -1    0    0    0    0  0.00000000000E+00  0.00000000000E+00  0.74505805969E-08  0.10566000000E+00  0.10566000000E+00 0.  1.
     999900   -1    0    0    0    0 -0.00000000000E+00 -0.00000000000E+00 -0.74505805969E-08  0.93827000000E+00  0.93827000000E+00 0.  1.
     999902    2    1    2    0    0 -0.47336625556E-02 -0.15675515252E-01 -0.17449606846E-01  0.10200005596E+01  0.10197198259E+01 0.  0.
     999903    2    3    3    0    0  0.20085169896E-01 -0.12529223001E+00  0.28594103978E-01  0.13165838344E+00  0.20365416697E-01 0.  0.
         14    1    1    2    0    0  0.47336625556E-02  0.15675515252E-01  0.17449606846E-01  0.23929440417E-01  0.00000000000E+00 0.  1.
     999901    1    3    3    0    0 -0.24818832451E-01  0.10961671476E+00 -0.46043710824E-01  0.88834217614E+00  0.88000000000E+00 0.  1.
        -11    1    4    4    0    0 -0.21241708666E-02 -0.48225844647E-01  0.92349322438E-02  0.49150679429E-01  0.51100000000E-03 0.  1.
         11    1    4    4    0    0  0.22209340762E-01 -0.77066385367E-01  0.19359171734E-01  0.82507704015E-01  0.51100000000E-03 0. -1.
</event>
<event>
 8    1  0.5489035E+004  0.1043930E+01  0.7957747E-01            NaN
         13   -1    0    0    0    0  0.00000000000E+00  0.00000000000E+00  0.74505805969E-08  0.10566000000E+00  0.10566000000E+00 0. -1.
     999900   -1    0    0    0    0 -0.00000000000E+00 -0.00000000000E+00 -0.74505805969E-08  0.93827000000E+00  0.93827000000E+00 0. -1.
     999902    2    1    2    0    0 -0.10950324849E-01  0.19723282156E-01  0.58302932204E-02  0.10206295753E+01  0.10203635725E+01 0.  0.
     999903    2    3    3    0    0 -0.67998801544E-01  0.87674629074E-01 -0.70432324828E-01  0.13288642484E+00  0.19682782584E-01 0.  0.
         14    1    1    2    0    0  0.10950324849E-01 -0.19723282156E-01 -0.58302932204E-02  0.23300424725E-01  0.00000000000E+00 0.  1.
     999901    1    3    3    0    0  0.57048476695E-01 -0.67951346917E-01  0.76262618048E-01  0.88774315044E+00  0.88000000000E+00 0.  1.
        -11    1    4    4    0    0 -0.22782051934E-01  0.34895041554E-01 -0.37132420877E-01  0.55819025578E-01  0.51100000000E-03 0. -1.
         11    1    4    4    0    0 -0.45216749611E-01  0.52779587520E-01 -0.33299903951E-01  0.77067399257E-01  0.51100000000E-03 0.  1.
</event>
<event>
 8    1  0.5489035E+004  0.1043930E+01  0.7957747E-01            NaN
         13   -1    0    0    0    0  0.00000000000E+00  0.00000000000E+00  0.74505805969E-08  0.10566000000E+00  0.10566000000E+00 0. -1.
     999900   -1    0    0    0    0 -0.00000000000E+00 -0.00000000000E+00 -0.74505805969E-08  0.93827000000E+00  0.93827000000E+00 0.  1.
     999902    2    1    2    0    0  0.10903678473E-01 -0.10192219085E-01 -0.17771601402E-01  0.10207222136E+01  0.10204583460E+01 0.  0.
     999903    2    3    3    0    0 -0.16491320939E-01  0.70335714084E-01  0.10416181295E+00  0.12825205075E+00  0.19489199639E-01 0.  0.
         14    1    1    2    0    0 -0.10903678473E-01  0.10192219085E-01  0.17771601402E-01  0.23207786420E-01  0.00000000000E+00 0. -1.
     999901    1    3    3    0    0  0.27394999412E-01 -0.80527933169E-01 -0.12193341435E+00  0.89247016283E+00  0.88000000000E+00 0.  1.
        -11    1    4    4    0    0 -0.25162193299E-02  0.43165877893E-01  0.71218876255E-01  0.83318748371E-01  0.51100000000E-03 0.  1.
         11    1    4    4    0    0 -0.13975101609E-01  0.27169836191E-01  0.32942936690E-01  0.44933302376E-01  0.51100000000E-03 0. -1.
</event>
<event>
 8    1  0.5489035E+004  0.1043930E+01  0.7957747E-01            NaN
         13   -1    0    0    0    0  0.00000000000E+00  0.00000000000E+00  0.74505805969E-08  0.10566000000E+00  0.10566000000E+00 0. -1.
     999900   -1    0    0    0    0 -0.00000000000E+00 -0.00000000000E+00 -0.74505805969E-08  0.93827000000E+00  0.93827000000E+00 0.  1.
     999902    2    1    2    0    0  0.18958972592E-01  0.13463427618E-02 -0.15948930449E-01  0.10191182354E+01  0.10188161532E+01 0.  0.
     999903    2    3    3    0    0 -0.11175655076E+00  0.58411513956E-03 -0.59961348992E-01  0.12837460110E+00  0.19869751095E-01 0.  0.
         14    1    1    2    0    0 -0.18958972592E-01 -0.13463427618E-02  0.15948930449E-01  0.24811764610E-01  0.00000000000E+00 0. -1.
     999901    1    3    3    0    0  0.13071552335E+00  0.76222762221E-03  0.44012418543E-01  0.89074363429E+00  0.88000000000E+00 0. -1.
        -11    1    4    4    0    0 -0.62248697701E-01  0.79049965261E-02 -0.26185752421E-01  0.67995176935E-01  0.51100000000E-03 0.  1.
         11    1    4    4    0    0 -0.49507853055E-01 -0.73208813865E-02 -0.33775596571E-01  0.60379424170E-01  0.51100000000E-03 0. -1.
</event>
<event>
 8    1  0.5489035E+004  0.1043930E+01  0.7957747E-01            NaN
         13   -1    0    0    0    0  0.00000000000E+00  0.00000000000E+00  0.74505805969E-08  0.10566000000E+00  0.10566000000E+00 0. -1.
     999900   -1    0    0    0    0 -0.00000000000E+00 -0.00000000000E+00 -0.74505805969E-08  0.93827000000E+00  0.93827000000E+00 0. -1.
     999902    2    1    2    0    0 -0.12503933360E-01 -0.17902804414E-01 -0.74206023130E-02  0.10208665203E+01  0.10206059613E+01 0.  0.
     999903    2    3    3    0    0  0.64990675245E-02 -0.11905803710E+00  0.52505736680E-01  0.13284362579E+00  0.25952311127E-01 0.  0.
         14    1    1    2    0    0  0.12503933360E-01  0.17902804414E-01  0.74206023130E-02  0.23063479660E-01  0.00000000000E+00 0. -1.
     999901    1    3    3    0    0 -0.19003000884E-01  0.10115523268E+00 -0.59926338993E-01  0.88802289455E+00  0.88000000000E+00 0. -1.
        -11    1    4    4    0    0  0.96035271717E-02 -0.21315126474E-01  0.41561061206E-02  0.23750719775E-01  0.51100000000E-03 0. -1.
         11    1    4    4    0    0 -0.31044596471E-02 -0.97742910621E-01  0.48349630559E-01  0.10909290601E+00  0.51100000000E-03 0.  1.
</event>
<event>
 8    1  0.5489035E+004  0.1043930E+01  0.7957747E-01            NaN
         13   -1    0    0    0    0  0.00000000000E+00  0.00000000000E+00  0.74505805969E-08  0.10566000000E+00  0.10566000000E+00 0. -1.
     999900   -1    0    0    0    0 -0.00000000000E+00 -0.00000000000E+00 -0.74505805969E-08  0.93827000000E+00  0.93827000000E+00 0. -1.
     999902    2    1    2    0    0  0.18204208395E-01 -0.13288893550E-01  0.47391989198E-02  0.10208985454E+01  0.10206387177E+01 0.  0.
     999903    2    3    3    0    0 -0.15140951685E-01  0.50730767762E-01 -0.11686668765E+00  0.12960824005E+00  0.18374275280E-01 0.  0.
         14    1    1    2    0    0 -0.18204208395E-01  0.13288893550E-01 -0.47391989198E-02  0.23031454611E-01  0.00000000000E+00 0.  1.
     999901    1    3    3    0    0  0.33345160080E-01 -0.64019661313E-01  0.12160588657E+00  0.89129030533E+00  0.88000000000E+00 0.  1.
        -11    1    4    4    0    0 -0.17421509035E-01  0.33933777854E-01 -0.69257367505E-01  0.79068668455E-01  0.51100000000E-03 0. -1.
         11    1    4    4    0    0  0.22805573505E-02  0.16796989908E-01 -0.47609320144E-01  0.50539571599E-01  0.51100000000E-03 0.  1.
</event>
<event>
 8    1  0.5489035E+004  0.1043930E+01  0.7957747E-01            NaN
         13   -1    0    0    0    0  0.00000000000E+00  0.00000000000E+00  0.74505805969E-08  0.10566000000E+00  0.10566000000E+00 0.  1.
     999900   -1    0    0    0    0 -0.00000000000E+00 -0.00000000000E+00 -0.74505805969E-08  0.93827000000E+00  0.93827000000E+00 0.  1.
     999902    2    1    2    0    0 -0.67811210903E-02 -0.45978880146E-02 -0.22433462141E-01  0.10200472782E+01  0.10197676526E+01 0.  0.
     999903    2    3    3    0    0 -0.14391206743E-01  0.12706694774E+00 -0.13926814818E-01  0.13017880171E+00  0.19986200378E-01 0.  0.
         14    1    1    2    0    0  0.67811210903E-02  0.45978880146E-02  0.22433462141E-01  0.23882721810E-01  0.00000000000E+00 0.  1.
     999901    1    3    3    0    0  0.76100856527E-02 -0.13166483575E+00 -0.85066473229E-02  0.88986847648E+00  0.88000000000E+00 0. -1.
        -11    1    4    4    0    0 -0.23989328358E-02  0.93742468258E-01 -0.13610362794E-01  0.94757101740E-01  0.51100000000E-03 0. -1.
         11    1    4    4    0    0 -0.11992273907E-01  0.33324479481E-01 -0.31645202353E-03  0.35421699973E-01  0.51100000000E-03 0.  1.
</event>
<event>
 8    1  0.5489035E+004  0.1043930E+01  0.7957747E-01            NaN
         13   -1    0    0    0    0  0.00000000000E+00  0.00000000000E+00  0.74505805969E-08  0.10566000000E+00  0.10566000000E+00 0. -1.
     999900   -1    0    0    0    0 -0.00000000000E+00 -0.00000000000E+00 -0.74505805969E-08  0.93827000000E+00  0.93827000000E+00 0. -1.
     999902    2    1    2    0    0 -0.78740871027E-03  0.29628653266E-02 -0.23362377539E-01  0.10203673332E+01  0.10200952384E+01 0.  0.
     999903    2    3    3    0    0  0.74485355594E-01 -0.17002298389E-01 -0.10697261613E+00  0.13298056924E+00  0.20088425680E-01 0.  0.
         14    1    1    2    0    0  0.78740871027E-03 -0.29628653266E-02  0.23362377539E-01  0.23562666821E-01  0.00000000000E+00 0. -1.
     999901    1    3    3    0    0 -0.75272764305E-01  0.19965163715E-01  0.83610238591E-01  0.88738676393E+00  0.88000000000E+00 0.  1.
        -11    1    4    4    0    0  0.57003311677E-01 -0.18077563936E-01 -0.70011924047E-01  0.92076633788E-01  0.51100000000E-03 0.  1.
         11    1    4    4    0    0  0.17482043918E-01  0.10752655474E-02 -0.36960692084E-01  0.40903935457E-01  0.51100000000E-03 0. -1.
</event>
<event>
 8    1  0.5489035E+004  0.1043930E+01  0.7957747E-01            NaN
         13   -1    0    0    0    0  0.00000000000E+00  0.00000000000E+00  0.74505805969E-08  0.10566000000E+00  0.10566000000E+00 0.  1.
     999900   -1    0    0    0    0 -0.00000000000E+00 -0.00000000000E+00 -0.74505805969E-08  0.93827000000E+00  0.93827000000E+00 0. -1.
     999902    2    1    2    0    0 -0.16270168829E-01 -0.11160770997E-01 -0.19519742739E-01  0.10161756930E+01  0.10157966024E+01 0.  0.
     999903    2    3    3    0    0 -0.10762269005E+00  0.53708686033E-01  0.36610172104E-01  0.12729780656E+00  0.19928885669E-01 0.  0.
         14    1    1    2    0    0  0.16270168829E-01  0.11160770997E-01  0.19519742739E-01  0.27754307045E-01  0.00000000000E+00 0.  1.
     999901    1    3    3    0    0  0.91352521219E-01 -0.64869457030E-01 -0.56129914843E-01  0.88887788640E+00  0.88000000000E+00 0. -1.
        -11    1    4    4    0    0 -0.45552235109E-01  0.22496970207E-01  0.25804506686E-01  0.56984677574E-01  0.51100000000E-03 0. -1.
         11    1    4    4    0    0 -0.62070454939E-01  0.31211715826E-01  0.10805665418E-01  0.70313128982E-01  0.51100000000E-03 0.  1.
</event>
<event>
 8    1  0.5489035E+004  0.1043930E+01  0.7957747E-01            NaN
         13   -1    0    0    0    0  0.00000000000E+00  0.00000000000E+00  0.74505805969E-08  0.10566000000E+00  0.10566000000E+00 0.  1.
     999900   -1    0    0    0    0 -0.00000000000E+00 -0.00000000000E+00 -0.74505805969E-08  0.93827000000E+00  0.93827000000E+00 0.  1.
     999902    2    1    2    0    0  0.70975790019E-02  0.22843348439E-01 -0.39950909392E-03  0.10200060830E+01  0.10197254805E+01 0.  0.
     999903    2    3    3    0    0  0.12293104067E+00 -0.17564483990E-01 -0.35907432776E-01  0.13078676452E+00  0.19881704824E-01 0.  0.
         14    1    1    2    0    0 -0.70975790019E-02 -0.22843348439E-01  0.39950909392E-03  0.23923916969E-01  0.00000000000E+00 0.  1.
     999901    1    3    3    0    0 -0.11583346167E+00  0.40407832430E-01  0.35507923682E-01  0.88921931851E+00  0.88000000000E+00 0. -1.
        -11    1    4    4    0    0  0.10497214332E+00 -0.19661527311E-01 -0.35985483241E-01  0.11269845897E+00  0.51100000000E-03 0. -1.
         11    1    4    4    0    0  0.17958897353E-01  0.20970433203E-02  0.78050464695E-04  0.18088305551E-01  0.51100000000E-03 0.  1.
</event>
<event>
 8    1  0.5489035E+004  0.1043930E+01  0.7957747E-01            NaN
         13   -1    0    0    0    0  0.00000000000E+00  0.00000000000E+00  0.74505805969E-08  0.10566000000E+00  0.10566000000E+00 0.  1.
     999900   -1    0    0    0    0 -0.00000000000E+00 -0.00000000000E+00 -0.74505805969E-08  0.93827000000E+00  0.93827000000E+00 0.  1.
     999902    2    1    2    0    0 -0.15019484398E-01  0.13330444190E-01 -0.14621824073E-01  0.10190888367E+01  0.10187860294E+01 0.  0.
     999903    2    3    3    0    0 -0.14245443138E-01 -0.61230153303E-01  0.10888821066E+00  0.12734077223E+00  0.20173386648E-01 0.  0.
         14    1    1    2    0    0  0.15019484398E-01 -0.13330444190E-01  0.14621824073E-01  0.24841163280E-01  0.00000000000E+00 0.  1.
     999901    1    3    3    0    0 -0.77404125961E-03  0.74560597493E-01 -0.12351003473E+00  0.89174806449E+00  0.88000000000E+00 0.  1.
        -11    1    4    4    0    0  0.33105720221E-03 -0.40359096621E-01  0.61909651939E-01  0.73905564087E-01  0.51100000000E-03 0.  1.
         11    1    4    4    0    0 -0.14576500340E-01 -0.20871056682E-01  0.46978558719E-01  0.53435208145E-01  0.51100000000E-03 0. -1.
</event>
<event>
 8    1  0.5489035E+004  0.1043930E+01  0.7957747E-01            NaN
         13   -1    0    0    0    0  0.00000000000E+00  0.00000000000E+00  0.74505805969E-08  0.10566000000E+00  0.10566000000E+00 0. -1.
     999900   -1    0    0    0    0 -0.00000000000E+00 -0.00000000000E+00 -0.74505805969E-08  0.93827000000E+00  0.93827000000E+00 0. -1.
     999902    2    1    2    0    0 -0.33068726853E-02  0.10058463547E-01  0.21176282066E-01  0.10202542103E+01  0.10199794658E+01 0.  0.
     999903    2    3    3    0    0  0.76985416663E-01  0.10064331619E+00  0.29309582686E-01  0.13193072314E+00  0.22154742133E-01 0.  0.
         14    1    1    2    0    0  0.33068726853E-02 -0.10058463547E-01 -0.21176282066E-01  0.23675789702E-01  0.00000000000E+00 0.  1.
     999901    1    3    3    0    0 -0.80292289348E-01 -0.90584852641E-01 -0.81333006196E-02  0.88832348716E+00  0.88000000000E+00 0.  1.
        -11    1    4    4    0    0  0.10848894939E-01  0.41805615800E-02  0.17474848407E-02  0.11768196157E-01  0.51100000000E-03 0. -1.
         11    1    4    4    0    0  0.66136521723E-01  0.96462754608E-01  0.27562097845E-01  0.12016252698E+00  0.51100000000E-03 0.  1.
</event>
<event>
 8    1  0.5489035E+004  0.1043930E+01  0.7957747E-01            NaN
         13   -1    0    0    0    0  0.00000000000E+00  0.00000000000E+00  0.74505805969E-08  0.10566000000E+00  0.10566000000E+00 0.  1.
     999900   -1    0    0    0    0 -0.00000000000E+00 -0.00000000000E+00 -0.74505805969E-08  0.93827000000E+00  0.93827000000E+00 0.  1.
     999902    2    1    2    0    0 -0.67160359445E-02 -0.45201697456E-02 -0.22573142885E-01  0.10199490940E+01  0.10196671371E+01 0.  0.
     999903    2    3    3    0    0  0.10557627203E+00  0.60859508847E-01 -0.41195284725E-01  0.13021270102E+00  0.20200668095E-01 0.  0.
         14    1    1    2    0    0  0.67160359445E-02  0.45201697456E-02  0.22573142885E-01  0.23980906010E-01  0.00000000000E+00 0.  1.
     999901    1    3    3    0    0 -0.11229230797E+00 -0.65379678592E-01  0.18622141840E-01  0.88973639297E+00  0.88000000000E+00 0.  1.
        -11    1    4    4    0    0  0.26526077411E-01  0.22540217983E-01 -0.18748585299E-01  0.39540672493E-01  0.51100000000E-03 0. -1.
         11    1    4    4    0    0  0.79050194619E-01  0.38319290864E-01 -0.22446699426E-01  0.90672028530E-01  0.51100000000E-03 0.  1.
</event>
<event>
 8    1  0.5489035E+004  0.1043930E+01  0.7957747E-01            NaN
         13   -1    0    0    0    0  0.00000000000E+00  0.00000000000E+00  0.74505805969E-08  0.10566000000E+00  0.10566000000E+00 0.  1.
     999900   -1    0    0    0    0 -0.00000000000E+00 -0.00000000000E+00 -0.74505805969E-08  0.93827000000E+00  0.93827000000E+00 0.  1.
     999902    2    1    2    0    0 -0.19910902574E-01  0.11242559874E-01  0.59925857047E-02  0.10202921008E+01  0.10200182453E+01 0.  0.
     999903    2    3    3    0    0 -0.19464463414E-01  0.11883520623E+00  0.51854924440E-01  0.13255355206E+00  0.19515106971E-01 0.  0.
         14    1    1    2    0    0  0.19910902574E-01 -0.11242559874E-01 -0.59925857047E-02  0.23637899172E-01  0.00000000000E+00 0. -1.
     999901    1    3    3    0    0 -0.44643916027E-03 -0.10759264635E+00 -0.45862338736E-01  0.88773854877E+00  0.88000000000E+00 0.  1.
        -11    1    4    4    0    0 -0.21320880512E-02  0.58508840382E-01  0.18098302526E-01  0.61283275677E-01  0.51100000000E-03 0. -1.
         11    1    4    4    0    0 -0.17332375363E-01  0.60326365843E-01  0.33756621914E-01  0.71270276382E-01  0.51100000000E-03 0.  1.
</event>
<event>
 8    1  0.5489035E+004  0.1043930E+01  0.7957747E-01            NaN
         13   -1    0    0    0    0  0.00000000000E+00  0.00000000000E+00  0.74505805969E-08  0.10566000000E+00  0.10566000000E+00 0. -1.
     999900   -1    0    0    0    0 -0.00000000000E+00 -0.00000000000E+00 -0.74505805969E-08  0.93827000000E+00  0.93827000000E+00 0.  1.
     999902    2    1    2    0    0 -0.21182270612E-01 -0.10160052545E-01  0.31318901046E-02  0.10202292829E+01  0.10199539527E+01 0.  0.
     999903    2    3    3    0    0 -0.70084318322E-01 -0.10339280242E+00 -0.40737969387E-01  0.13286897248E+00  0.19816620043E-01 0.  0.
         14    1    1    2    0    0  0.21182270612E-01  0.10160052545E-01 -0.31318901046E-02  0.23700717112E-01  0.00000000000E+00 0.  1.
     999901    1    3    3    0    0  0.48902047710E-01  0.93232749878E-01  0.43869859491E-01  0.88736031041E+00  0.88000000000E+00 0. -1.
        -11    1    4    4    0    0 -0.53600019590E-02 -0.20352777651E-01 -0.90692315471E-02  0.22923290797E-01  0.51100000000E-03 0.  1.
         11    1    4    4    0    0 -0.64724316363E-01 -0.83040024772E-01 -0.31668737839E-01  0.10994568168E+00  0.51100000000E-03 0. -1.
</event>
<event>
 8    1  0.5489035E+004  0.1043930E+01  0.7957747E-01            NaN
         13   -1    0    0    0    0  0.00000000000E+00  0.00000000000E+00  0.74505805969E-08  0.10566000000E+00  0.10566000000E+00 0.  1.
     999900   -1    0    0    0    0 -0.00000000000E+00 -0.00000000000E+00 -0.74505805969E-08  0.93827000000E+00  0.93827000000E+00 0. -1.
     999902    2    1    2    0    0 -0.10825139859E-01 -0.22358020318E-02  0.20667691905E-01  0.10204920830E+01  0.10202228950E+01 0.  0.
     999903    2    3    3    0    0  0.65543866613E-01  0.11037494954E+00  0.28512680062E-02  0.12985701102E+00  0.19392927683E-01 0.  0.
         14    1    1    2    0    0  0.10825139859E-01  0.22358020318E-02 -0.20667691905E-01  0.23437916981E-01  0.00000000000E+00 0.  1.
     999901    1    3    3    0    0 -0.76369006472E-01 -0.11261075157E+00  0.17816423899E-01  0.89063507200E+00  0.88000000000E+00 0.  1.
        -11    1    4    4    0    0  0.87610118637E-02  0.30875568370E-01  0.19127828248E-02  0.32155495801E-01  0.51100000000E-03 0. -1.
         11    1    4    4    0    0  0.56782854749E-01  0.79499381172E-01  0.93848518139E-03  0.97701515216E-01  0.51100000000E-03 0.  1.
</event>
<event>
 8    1  0.5489035E+004  0.1043930E+01  0.7957747E-01            NaN
         13   -1    0    0    0    0  0.00000000000E+00  0.00000000000E+00  0.74505805969E-08  0.10566000000E+00  0.10566000000E+00 0.  1.
     999900   -1    0    0    0    0 -0.00000000000E+00 -0.00000000000E+00 -0.74505805969E-08  0.93827000000E+00  0.93827000000E+00 0. -1.
     999902    2    1    2    0    0 -0.15397919391E-01  0.16136808017E-01  0.10993748034E-01  0.10190632553E+01  0.10187598163E+01 0.  0.
     999903    2    3    3    0    0  0.10176215750E+00 -0.72000689795E-01 -0.10363472896E-01  0.12667834229E+00  0.20009118067E-01 0.  0.
         14    1    1    2    0    0  0.15397919391E-01 -0.16136808017E-01 -0.10993748034E-01  0.24866744668E-01  0.00000000000E+00 0. -1.
     999901    1    3    3    0    0 -0.11716007689E+00  0.88137497812E-01  0.21357220931E-01  0.89238491304E+00  0.88000000000E+00 0.  1.
        -11    1    4    4    0    0  0.73778469457E-01 -0.40928789562E-01 -0.50496734583E-02  0.84523302666E-01  0.51100000000E-03 0. -1.
         11    1    4    4    0    0  0.27983688040E-01 -0.31071900233E-01 -0.53137994381E-02  0.42155039626E-01  0.51100000000E-03 0.  1.
</event>
<event>
 8    1  0.5489035E+004  0.1043930E+01  0.7957747E-01            NaN
         13   -1    0    0    0    0  0.00000000000E+00  0.00000000000E+00  0.74505805969E-08  0.10566000000E+00  0.10566000000E+00 0. -1.
     999900   -1    0    0    0    0 -0.00000000000E+00 -0.00000000000E+00 -0.74505805969E-08  0.93827000000E+00  0.93827000000E+00 0. -1.
     999902    2    1    2    0    0 -0.36681038308E-02 -0.22164267317E-01 -0.80847540153E-02  0.10200537989E+01  0.10197743278E+01 0.  0.
     999903    2    3    3    0    0  0.71575783789E-01 -0.10866710598E+00  0.13740416267E-01  0.13234848644E+00  0.19891960050E-01 0.  0.
         14    1    1    2    0    0  0.36681038308E-02  0.22164267317E-01  0.80847540153E-02  0.23876201099E-01  0.00000000000E+00 0. -1.
     999901    1    3    3    0    0 -0.75243887620E-01  0.86502838667E-01 -0.21825170282E-01  0.88770531247E+00  0.88000000000E+00 0.  1.
        -11    1    4    4    0    0  0.13553177714E-01 -0.35109969818E-01 -0.13023512955E-03  0.37638765774E-01  0.51100000000E-03 0.  1.
         11    1    4    4    0    0  0.58022606076E-01 -0.73557136166E-01  0.13870651397E-01  0.94709720662E-01  0.51100000000E-03 0. -1.
</event>
<event>
 8    1  0.5489035E+004  0.1043930E+01  0.7957747E-01            NaN
         13   -1    0    0    0    0  0.00000000000E+00  0.00000000000E+00  0.74505805969E-08  0.10566000000E+00  0.10566000000E+00 0. -1.
     999900   -1    0    0    0    0 -0.00000000000E+00 -0.00000000000E+00 -0.74505805969E-08  0.93827000000E+00  0.93827000000E+00 0.  1.
     999902    2    1    2    0    0  0.57679015964E-02  0.12178057483E-01  0.16559225538E-01  0.10225809550E+01  0.10223580722E+01 0.  0.
     999903    2    3    3    0    0 -0.78642400819E-01  0.10260759715E-01  0.10612996714E+00  0.13401374146E+00  0.20154467992E-01 0.  0.
         14    1    1    2    0    0 -0.57679015964E-02 -0.12178057483E-01 -0.16559225538E-01  0.21349045021E-01  0.00000000000E+00 0.  1.
     999901    1    3    3    0    0  0.84410302416E-01  0.19172977674E-02 -0.89570741599E-01  0.88856721352E+00  0.88000000000E+00 0.  1.
        -11    1    4    4    0    0 -0.13913625809E-01 -0.53964076021E-02  0.15237899770E-01  0.21334594174E-01  0.51100000000E-03 0. -1.
         11    1    4    4    0    0 -0.64728775011E-01  0.15657167317E-01  0.90892067367E-01  0.11267914729E+00  0.51100000000E-03 0.  1.
</event>
<event>
 7    1  0.5489035E+004  0.1043930E+01  0.7957747E-01            NaN
         13   -1    0    0    0    0  0.00000000000E+00  0.00000000000E+00  0.74505805969E-08  0.10566000000E+00  0.10566000000E+00 0.  1.
     999900   -1    0    0    0    0 -0.00000000000E+00 -0.00000000000E+00 -0.74505805969E-08  0.93827000000E+00  0.93827000000E+00 0.  1.
     999903    2    1    2    0    0 -0.67779591521E-01  0.46844531302E-01  0.11423645223E-01  0.85482838486E-01  0.19706163143E-01 0.  0.
         14    1    1    2    0    0 -0.13728988008E-01 -0.72155188876E-01  0.95590544891E-02  0.74069102305E-01  0.00000000000E+00 0. -1.
     999901    1    1    2    0    0  0.81508579528E-01  0.25310657574E-01 -0.20982699712E-01  0.88437805921E+00  0.88000000000E+00 0. -1.
        -11    1    3    3    0    0 -0.46448956683E-02  0.72635529276E-02 -0.37833943847E-02  0.94291808218E-02  0.51100000000E-03 0.  1.
         11    1    3    3    0    0 -0.63134695852E-01  0.39580978375E-01  0.15207039608E-01  0.76053657664E-01  0.51100000000E-03 0. -1.
</event>
<event>
 8    1  0.5489035E+004  0.1043930E+01  0.7957747E-01            NaN
         13   -1    0    0    0    0  0.00000000000E+00  0.00000000000E+00  0.74505805969E-08  0.10566000000E+00  0.10566000000E+00 0. -1.
     999900   -1    0    0    0    0 -0.00000000000E+00 -0.00000000000E+00 -0.74505805969E-08  0.93827000000E+00  0.93827000000E+00 0. -1.
     999902    2    1    2    0    0  0.68581855353E-02 -0.14094982005E-01  0.18572739932E-01  0.10196267102E+01  0.10193370288E+01 0.  0.
     999903    2    3    3    0    0  0.23774643352E-01 -0.12348414754E+00 -0.30415776154E-01  0.13134070288E+00  0.22620619671E-01 0.  0.
         14    1    1    2    0    0 -0.68581855353E-02  0.14094982005E-01 -0.18572739932E-01  0.24303289801E-01  0.00000000000E+00 0.  1.
     999901    1    3    3    0    0 -0.16916457816E-01  0.10938916554E+00  0.48988516086E-01  0.88828600731E+00  0.88000000000E+00 0. -1.
        -11    1    4    4    0    0  0.29665514998E-02 -0.71471027506E-01 -0.20810865548E-01  0.74500076821E-01  0.51100000000E-03 0.  1.
         11    1    4    4    0    0  0.20808091852E-01 -0.52013120037E-01 -0.96049106057E-02  0.56840626063E-01  0.51100000000E-03 0. -1.
</event>
<event>
 8    1  0.5489035E+004  0.1043930E+01  0.7957747E-01            NaN
         13   -1    0    0    0    0  0.00000000000E+00  0.00000000000E+00  0.74505805969E-08  0.10566000000E+00  0.10566000000E+00 0.  1.
     999900   -1    0    0    0    0 -0.00000000000E+00 -0.00000000000E+00 -0.74505805969E-08  0.93827000000E+00  0.93827000000E+00 0. -1.
     999902    2    1    2    0    0 -0.76559707034E-02  0.14668539638E-01  0.17375885498E-01  0.10199362229E+01  0.10196539597E+01 0.  0.
     999903    2    3    3    0    0 -0.17047199306E-01  0.57727513447E-01 -0.11273893030E+00  0.12927796314E+00  0.19484674330E-01 0.  0.
         14    1    1    2    0    0  0.76559707034E-02 -0.14668539638E-01 -0.17375885498E-01  0.23993777097E-01  0.00000000000E+00 0.  1.
     999901    1    3    3    0    0  0.93912286025E-02 -0.43058973809E-01  0.13011481580E+00  0.89065825977E+00  0.88000000000E+00 0. -1.
        -11    1    4    4    0    0 -0.18329207041E-01  0.57062470394E-01 -0.10104248170E+00  0.11748161383E+00  0.51100000000E-03 0.  1.
         11    1    4    4    0    0  0.12820077349E-02  0.66504305276E-03 -0.11696448605E-01  0.11796349311E-01  0.51100000000E-03 0. -1.
</event>
<event>
 8    1  0.5489035E+004  0.1043930E+01  0.7957747E-01            NaN
         13   -1    0    0    0    0  0.00000000000E+00  0.00000000000E+00  0.74505805969E-08  0.10566000000E+00  0.10566000000E+00 0. -1.
     999900   -1    0    0    0    0 -0.00000000000E+00 -0.00000000000E+00 -0.74505805969E-08  0.93827000000E+00  0.93827000000E+00 0. -1.
     999902    2    1    2    0    0  0.14159945515E-01  0.14861297047E-01  0.99323198314E-02  0.10211262024E+01  0.10208715434E+01 0.  0.
     999903    2    3    3    0    0 -0.28871183143E-01  0.12449099529E+00 -0.28840009139E-01  0.13243410599E+00  0.19377646331E-01 0.  0.
         14    1    1    2    0    0 -0.14159945515E-01 -0.14861297047E-01 -0.99323198314E-02  0.22803797581E-01  0.00000000000E+00 0.  1.
     999901    1    3    3    0    0  0.43031128658E-01 -0.10962969824E+00  0.38772328970E-01  0.88869209643E+00  0.88000000000E+00 0. -1.
        -11    1    4    4    0    0 -0.20744565494E-01  0.47502449788E-01 -0.11784023648E-01  0.53159609364E-01  0.51100000000E-03 0. -1.
         11    1    4    4    0    0 -0.81266176485E-02  0.76988545499E-01 -0.17055985490E-01  0.79274496621E-01  0.51100000000E-03 0.  1.
</event>
<event>
 8    1  0.5489035E+004  0.1043930E+01  0.7957747E-01            NaN
         13   -1    0    0    0    0  0.00000000000E+00  0.00000000000E+00  0.74505805969E-08  0.10566000000E+00  0.10566000000E+00 0. -1.
     999900   -1    0    0    0    0 -0.00000000000E+00 -0.00000000000E+00 -0.74505805969E-08  0.93827000000E+00  0.93827000000E+00 0.  1.
     999902    2    1    2    0    0  0.87678769618E-02 -0.15251383097E-01  0.16464606314E-01  0.10198351123E+01  0.10195504365E+01 0.  0.
     999903    2    3    3    0    0  0.12040299449E+00 -0.50102543343E-01  0.45541421262E-02  0.13201820437E+00  0.20022990336E-01 0.  0.
         14    1    1    2    0    0 -0.87678769618E-02  0.15251383097E-01 -0.16464606314E-01  0.24094887712E-01  0.00000000000E+00 0.  1.
     999901    1    3    3    0    0 -0.11163511753E+00  0.34851160246E-01  0.11910464188E-01  0.88781690792E+00  0.88000000000E+00 0. -1.
        -11    1    4    4    0    0  0.60838597330E-01 -0.35361501586E-01  0.61061730838E-02  0.70635098855E-01  0.51100000000E-03 0.  1.
         11    1    4    4    0    0  0.59564397159E-01 -0.14741041756E-01 -0.15520309576E-02  0.61383105510E-01  0.51100000000E-03 0. -1.
</event>
<event>
 8    1  0.5489035E+004  0.1043930E+01  0.7957747E-01            NaN
         13   -1    0    0    0    0  0.00000000000E+00  0.00000000000E+00  0.74505805969E-08  0.10566000000E+00  0.10566000000E+00 0.  1.
     999900   -1    0    0    0    0 -0.00000000000E+00 -0.00000000000E+00 -0.74505805969E-08  0.93827000000E+00  0.93827000000E+00 0. -1.
     999902    2    1    2    0    0  0.12428397706E-01  0.19040146553E-01  0.66627683588E-02  0.10202364411E+01  0.10199612792E+01 0.  0.
     999903    2    3    3    0    0  0.10494349420E+00 -0.52112229271E-01  0.55106451047E-01  0.13120972945E+00  0.21223824827E-01 0.  0.
         14    1    1    2    0    0 -0.12428397706E-01 -0.19040146553E-01 -0.66627683588E-02  0.23693558882E-01  0.00000000000E+00 0. -1.
     999901    1    3    3    0    0 -0.92515096498E-01  0.71152375824E-01 -0.48443682688E-01  0.88902671167E+00  0.88000000000E+00 0.  1.
        -11    1    4    4    0    0  0.75844521931E-01 -0.42091333028E-01  0.49656909868E-01  0.99950696054E-01  0.51100000000E-03 0. -1.
         11    1    4    4    0    0  0.29098972273E-01 -0.10020896243E-01  0.54495411789E-02  0.31259033397E-01  0.51100000000E-03 0.  1.
</event>
<event>
 8    1  0.5489035E+004  0.1043930E+01  0.7957747E-01            NaN
         13   -1    0    0    0    0  0.00000000000E+00  0.00000000000E+00  0.74505805969E-08  0.10566000000E+00  0.10566000000E+00 0.  1.
     999900   -1    0    0    0    0 -0.00000000000E+00 -0.00000000000E+00 -0.74505805969E-08  0.93827000000E+00  0.93827000000E+00 0.  1.
     999902    2    1    2    0    0 -0.33098213735E-02  0.17782139110E-01 -0.15260429375E-01  0.10202648338E+01  0.10199903386E+01 0.  0.
     999903    2    3    3    0    0  0.64788769747E-01 -0.25850075316E-02 -0.11312732921E+00  0.13199113221E+00  0.20484125978E-01 0.  0.
         14    1    1    2    0    0  0.33098213735E-02 -0.17782139110E-01  0.15260429375E-01  0.23665166248E-01  0.00000000000E+00 0.  1.
     999901    1    3    3    0    0 -0.68098591121E-01  0.20367146642E-01  0.97866899837E-01  0.88827370155E+00  0.88000000000E+00 0. -1.
        -11    1    4    4    0    0  0.69718981487E-02 -0.57754464477E-02 -0.24489272048E-01  0.26114147735E-01  0.51100000000E-03 0.  1.
         11    1    4    4    0    0  0.57816871599E-01  0.31904389161E-02 -0.88638057163E-01  0.10587698447E+00  0.51100000000E-03 0. -1.
</event>
<event>
 8    1  0.5489035E+004  0.1043930E+01  0.7957747E-01            NaN
         13   -1    0    0    0    0  0.00000000000E+00  0.00000000000E+00  0.74505805969E-08  0.10566000000E+00  0.10566000000E+00 0. -1.
     999900   -1    0    0    0    0 -0.00000000000E+00 -0.00000000000E+00 -0.74505805969E-08  0.93827000000E+00  0.93827000000E+00 0.  1.
     999902    2    1    2    0    0  0.14413521469E-01 -0.11078031150E-01  0.14336908352E-01  0.10207779090E+01  0.10205153209E+01 0.  0.
     999903    2    3    3    0    0  0.11642819447E+00 -0.23573404219E-02 -0.58548864614E-01  0.13184856434E+00  0.19874427015E-01 0.  0.
         14    1    1    2    0    0 -0.14413521469E-01  0.11078031150E-01 -0.14336908352E-01  0.23152090972E-01  0.00000000000E+00 0.  1.
     999901    1    3    3    0    0 -0.10201467300E+00 -0.87206907285E-02  0.72885772966E-01  0.88892934469E+00  0.88000000000E+00 0. -1.
        -11    1    4    4    0    0  0.42950906278E-01  0.83042507948E-02 -0.24803028657E-01  0.50291075579E-01  0.51100000000E-03 0.  1.
         11    1    4    4    0    0  0.73477288189E-01 -0.10661591217E-01 -0.33745835958E-01  0.81557488757E-01  0.51100000000E-03 0. -1.
</event>
<event>
 8    1  0.5489035E+004  0.1043930E+01  0.7957747E-01            NaN
         13   -1    0    0    0    0  0.00000000000E+00  0.00000000000E+00  0.74505805969E-08  0.10566000000E+00  0.10566000000E+00 0.  1.
     999900   -1    0    0    0    0 -0.00000000000E+00 -0.00000000000E+00 -0.74505805969E-08  0.93827000000E+00  0.93827000000E+00 0. -1.
     999902    2    1    2    0    0  0.17109187454E-01 -0.10986567230E-01 -0.12857692273E-01  0.10198727931E+01  0.10195890176E+01 0.  0.
     999903    2    3    3    0    0  0.78736387754E-01 -0.10496362499E+00 -0.80728901430E-02  0.13271300276E+00  0.18187584203E-01 0.  0.
         14    1    1    2    0    0 -0.17109187454E-01  0.10986567230E-01  0.12857692273E-01  0.24057206933E-01  0.00000000000E+00 0.  1.
     999901    1    3    3    0    0 -0.61627200300E-01  0.93977057761E-01 -0.47848021301E-02  0.88715979030E+00  0.88000000000E+00 0.  1.
        -11    1    4    4    0    0  0.55793790233E-01 -0.61666907231E-01 -0.94039009311E-02  0.83692585991E-01  0.51100000000E-03 0.  1.
         11    1    4    4    0    0  0.22942597521E-01 -0.43296717760E-01  0.13310107881E-02  0.49020416772E-01  0.51100000000E-03 0. -1.
</event>
<event>
 8    1  0.5489035E+004  0.1043930E+01  0.7957747E-01            NaN
         13   -1    0    0    0    0  0.00000000000E+00  0.00000000000E+00  0.74505805969E-08  0.10566000000E+00  0.10566000000E+00 0.  1.
     999900   -1    0    0    0    0 -0.00000000000E+00 -0.00000000000E+00 -0.74505805969E-08  0.93827000000E+00  0.93827000000E+00 0.  1.
     999902    2    1    2    0    0  0.12582800548E-01  0.12805880852E-01  0.74210655046E-02  0.10245034803E+01  0.10243192820E+01 0.  0.
     999903    2    3    3    0    0  0.13375643567E+00  0.89723525430E-02  0.16608255487E-01  0.13614423414E+00  0.16974426263E-01 0.  0.
         14    1    1    2    0    0 -0.12582800548E-01 -0.12805880852E-01 -0.74210655046E-02  0.19426519690E-01  0.00000000000E+00 0. -1.
     999901    1    3    3    0    0 -0.12117363512E+00  0.38335283092E-02 -0.91871899822E-02  0.88835924617E+00  0.88000000000E+00 0.  1.
        -11    1    4    4    0    0  0.88000107467E-01 -0.16911674618E-02  0.13605015029E-01  0.89063104125E-01  0.51100000000E-03 0.  1.
         11    1    4    4    0    0  0.45756328204E-01  0.10663520005E-01  0.30032404581E-02  0.47081130019E-01  0.51100000000E-03 0. -1.
</event>
<event>
 8    1  0.5489035E+004  0.1043930E+01  0.7957747E-01            NaN
         13   -1    0    0    0    0  0.00000000000E+00  0.00000000000E+00  0.74505805969E-08  0.10566000000E+00  0.10566000000E+00 0. -1.
     999900   -1    0    0    0    0 -0.00000000000E+00 -0.00000000000E+00 -0.74505805969E-08  0.93827000000E+00  0.93827000000E+00 0. -1.
     999902    2    1    2    0    0  0.24262448384E-01 -0.17061613360E-03 -0.46846465534E-02  0.10192188401E+01  0.10189192326E+01 0.  0.
     999903    2    3    3    0    0 -0.72739465963E-01 -0.97026148242E-01  0.34790991654E-01  0.12773205302E+00  0.19999022894E-01 0.  0.
         14    1    1    2    0    0 -0.24262448384E-01  0.17061613360E-03  0.46846465534E-02  0.24711159924E-01  0.00000000000E+00 0. -1.
     999901    1    3    3    0    0  0.97001914347E-01  0.96855532108E-01 -0.39475638207E-01  0.89148678706E+00  0.88000000000E+00 0. -1.
        -11    1    4    4    0    0 -0.65054271861E-01 -0.88751079392E-01  0.25159964220E-01  0.11288089874E+00  0.51100000000E-03 0. -1.
         11    1    4    4    0    0 -0.76851941014E-02 -0.82750688496E-02  0.96310274334E-02  0.14851154274E-01  0.51100000000E-03 0.  1.
</event>
<event>
 8    1  0.5489035E+004  0.1043930E+01  0.7957747E-01            NaN
         13   -1    0    0    0    0  0.00000000000E+00  0.00000000000E+00  0.74505805969E-08  0.10566000000E+00  0.10566000000E+00 0.  1.
     999900   -1    0    0    0    0 -0.00000000000E+00 -0.00000000000E+00 -0.74505805969E-08  0.93827000000E+00  0.93827000000E+00 0.  1.
     999902    2    1    2    0    0  0.24225625497E-03  0.92459005659E-02 -0.21673040695E-01  0.10203659159E+01  0.10200937880E+01 0.  0.
     999903    2    3    3    0    0 -0.91624406277E-01 -0.60357960275E-01 -0.69816047366E-01  0.13154538836E+00  0.19793775152E-01 0.  0.
         14    1    1    2    0    0 -0.24225625497E-03 -0.92459005659E-02  0.21673040695E-01  0.23564084076E-01  0.00000000000E+00 0.  1.
     999901    1    3    3    0    0  0.91866662532E-01  0.69603860840E-01  0.48143006670E-01  0.88882052756E+00  0.88000000000E+00 0. -1.
        -11    1    4    4    0    0 -0.62745886076E-01 -0.49556773927E-01 -0.43607012276E-01  0.91075532950E-01  0.51100000000E-03 0. -1.
         11    1    4    4    0    0 -0.28878520201E-01 -0.10801186347E-01 -0.26209035089E-01  0.40469855409E-01  0.51100000000E-03 0.  1.
</event>
<event>
 8    1  0.5489035E+004  0.1043930E+01  0.7957747E-01            NaN
         13   -1    0    0    0    0  0.00000000000E+00  0.00000000000E+00  0.74505805969E-08  0.10566000000E+00  0.10566000000E+00 0. -1.
     999900   -1    0    0    0    0 -0.00000000000E+00 -0.00000000000E+00 -0.74505805969E-08  0.93827000000E+00  0.93827000000E+00 0.  1.
     999902    2    1    2    0    0 -0.13588753003E-01 -0.13439845737E-01  0.61401183100E-02  0.10238555208E+01  0.10236587043E+01 0.  0.
     999903    2    3    3    0    0  0.61106829498E-01  0.76312252802E-02  0.11678849028E+00  0.13353732921E+00  0.20009663204E-01 0.  0.
         14    1    1    2    0    0  0.13588753003E-01  0.13439845737E-01 -0.61401183100E-02  0.20074479183E-01  0.00000000000E+00 0.  1.
     999901    1    3    3    0    0 -0.74695582501E-01 -0.21071071018E-01 -0.11064837197E+00  0.89031819160E+00  0.88000000000E+00 0.  1.
        -11    1    4    4    0    0  0.25235636893E-01  0.12211704847E-01  0.59704006982E-01  0.65960538774E-01  0.51100000000E-03 0. -1.
         11    1    4    4    0    0  0.35871192605E-01 -0.45804795667E-02  0.57084483297E-01  0.67576790440E-01  0.51100000000E-03 0.  1.
</event>
<event>
 8    1  0.5489035E+004  0.1043930E+01  0.7957747E-01            NaN
         13   -1    0    0    0    0  0.00000000000E+00  0.00000000000E+00  0.74505805969E-08  0.10566000000E+00  0.10566000000E+00 0.  1.
     999900   -1    0    0    0    0 -0.00000000000E+00 -0.00000000000E+00 -0.74505805969E-08  0.93827000000E+00  0.93827000000E+00 0. -1.
     999902    2    1    2    0    0 -0.69267700673E-02  0.35512684265E-02 -0.22548304784E-01  0.10200759081E+01  0.10197969605E+01 0.  0.
     999903    2    3    3    0    0  0.76464850644E-01 -0.46005631177E-01 -0.94800044181E-01  0.13180209754E+00  0.20526886172E-01 0.  0.
         14    1    1    2    0    0  0.69267700673E-02 -0.35512684265E-02  0.22548304784E-01  0.23854091885E-01  0.00000000000E+00 0.  1.
     999901    1    3    3    0    0 -0.83391620711E-01  0.49556899604E-01  0.72251739397E-01  0.88827381057E+00  0.88000000000E+00 0.  1.
        -11    1    4    4    0    0  0.40720840027E-01 -0.28049975884E-01 -0.66183699818E-01  0.82616773129E-01  0.51100000000E-03 0. -1.
         11    1    4    4    0    0  0.35744010617E-01 -0.17955655293E-01 -0.28616344363E-01  0.49185324414E-01  0.51100000000E-03 0.  1.
</event>
<event>
 8    1  0.5489035E+004  0.1043930E+01  0.7957747E-01            NaN
         13   -1    0    0    0    0  0.00000000000E+00  0.00000000000E+00  0.74505805969E-08  0.10566000000E+00  0.10566000000E+00 0. -1.
     999900   -1    0    0    0    0 -0.00000000000E+00 -0.00000000000E+00 -0.74505805969E-08  0.93827000000E+00  0.93827000000E+00 0.  1.
     999902    2    1    2    0    0  0.17577933207E-01 -0.14518364185E-01  0.74208840402E-02  0.10199542590E+01  0.10196724250E+01 0.  0.
     999903    2    3    3    0    0  0.27095171708E-01  0.53020112501E-01  0.11476422512E+00  0.13081162901E+00  0.19889048741E-01 0.  0.
         14    1    1    2    0    0 -0.17577933207E-01  0.14518364185E-01 -0.74208840402E-02  0.23975740956E-01  0.00000000000E+00 0.  1.
     999901    1    3    3    0    0 -0.95172385005E-02 -0.67538476686E-01 -0.10734334107E+00  0.88914263003E+00  0.88000000000E+00 0.  1.
        -11    1    4    4    0    0  0.10824213495E-01  0.41287486036E-01  0.79737098576E-01  0.90443828486E-01  0.51100000000E-03 0. -1.
         11    1    4    4    0    0  0.16270958213E-01  0.11732626464E-01  0.35027126539E-01  0.40367800529E-01  0.51100000000E-03 0.  1.
</event>
<event>
 8    1  0.5489035E+004  0.1043930E+01  0.7957747E-01            NaN
         13   -1    0    0    0    0  0.00000000000E+00  0.00000000000E+00  0.74505805969E-08  0.10566000000E+00  0.10566000000E+00 0.  1.
     999900   -1    0    0    0    0 -0.00000000000E+00 -0.00000000000E+00 -0.74505805969E-08  0.93827000000E+00  0.93827000000E+00 0.  1.
     999902    2    1    2    0    0 -0.10224673073E-01  0.75799268289E-02 -0.25779341257E-01  0.10151798058E+01  0.10147726171E+01 0.  0.
     999903    2    3    3    0    0 -0.72333134332E-01 -0.54600656118E-01 -0.88955128841E-01  0.12854850364E+00  0.19959681109E-01 0.  0.
         14    1    1    2    0    0  0.10224673073E-01 -0.75799268289E-02  0.25779341257E-01  0.28750194188E-01  0.00000000000E+00 0.  1.
     999901    1    3    3    0    0  0.62108461259E-01  0.62180582947E-01  0.63175787584E-01  0.88663130217E+00  0.88000000000E+00 0.  1.
        -11    1    4    4    0    0 -0.10047165336E-01 -0.15893816566E-01 -0.24693180067E-01  0.31041475467E-01  0.51100000000E-03 0.  1.
         11    1    4    4    0    0 -0.62285968996E-01 -0.38706839552E-01 -0.64261948774E-01  0.97507028173E-01  0.51100000000E-03 0. -1.
</event>
<event>
 8    1  0.5489035E+004  0.1043930E+01  0.7957747E-01            NaN
         13   -1    0    0    0    0  0.00000000000E+00  0.00000000000E+00  0.74505805969E-08  0.10566000000E+00  0.10566000000E+00 0.  1.
     999900   -1    0    0    0    0 -0.00000000000E+00 -0.00000000000E+00 -0.74505805969E-08  0.93827000000E+00  0.93827000000E+00 0.  1.
     999902    2    1    2    0    0 -0.82080354699E-02 -0.20903543688E-01  0.69438539871E-02  0.10204236797E+01  0.10201528998E+01 0.  0.
     999903    2    3    3    0    0  0.70966616915E-01 -0.13917902957E-01  0.10809423551E+00  0.13107064271E+00  0.16284375645E-01 0.  0.
         14    1    1    2    0    0  0.82080354699E-02  0.20903543688E-01 -0.69438539871E-02  0.23506320281E-01  0.00000000000E+00 0.  1.
     999901    1    3    3    0    0 -0.79174652385E-01 -0.69856407311E-02 -0.10115038152E+00  0.88935303701E+00  0.88000000000E+00 0. -1.
        -11    1    4    4    0    0  0.45377717114E-01 -0.13041735365E-01  0.57823181571E-01  0.74652565394E-01  0.51100000000E-03 0. -1.
         11    1    4    4    0    0  0.25588899802E-01 -0.87616759103E-03  0.50271053940E-01  0.56418077315E-01  0.51100000000E-03 0.  1.
</event>
<event>
 8    1  0.5489035E+004  0.1043930E+01  0.7957747E-01            NaN
         13   -1    0    0    0    0  0.00000000000E+00  0.00000000000E+00  0.74505805969E-08  0.10566000000E+00  0.10566000000E+00 0.  1.
     999900   -1    0    0    0    0 -0.00000000000E+00 -0.00000000000E+00 -0.74505805969E-08  0.93827000000E+00  0.93827000000E+00 0.  1.
     999902    2    1    2    0    0 -0.78228583773E-02  0.18930547093E-02  0.22001099194E-01  0.10205028974E+01  0.10202339607E+01 0.  0.
     999903    2    3    3    0    0 -0.39026723398E-01 -0.49539271900E-01  0.11579883127E+00  0.13347585164E+00  0.20717360994E-01 0.  0.
         14    1    1    2    0    0  0.78228583773E-02 -0.18930547093E-02 -0.22001099194E-01  0.23427102575E-01  0.00000000000E+00 0. -1.
     999901    1    3    3    0    0  0.31203865021E-01  0.51432326610E-01 -0.93797732081E-01  0.88702704579E+00  0.88000000000E+00 0.  1.
        -11    1    4    4    0    0 -0.56379295195E-02 -0.65488712215E-02  0.34970931316E-01  0.36026394791E-01  0.51100000000E-03 0.  1.
         11    1    4    4    0    0 -0.33388793879E-01 -0.42990400679E-01  0.80827899958E-01  0.97449456848E-01  0.51100000000E-03 0. -1.
</event>
<event>
 8    1  0.5489035E+004  0.1043930E+01  0.7957747E-01            NaN
         13   -1    0    0    0    0  0.00000000000E+00  0.00000000000E+00  0.74505805969E-08  0.10566000000E+00  0.10566000000E+00 0. -1.
     999900   -1    0    0    0    0 -0.00000000000E+00 -0.00000000000E+00 -0.74505805969E-08  0.93827000000E+00  0.93827000000E+00 0.  1.
     999902    2    1    2    0    0 -0.38572456078E-03 -0.20920597706E-01  0.11700542421E-01  0.10199566213E+01  0.10196748435E+01 0.  0.
     999903    2    3    3    0    0  0.84003348466E-01 -0.40810905740E-03  0.98956529076E-01  0.13138704890E+00  0.20333048630E-01 0.  0.
         14    1    1    2    0    0  0.38572456078E-03  0.20920597706E-01 -0.11700542421E-01  0.23973378668E-01  0.00000000000E+00 0.  1.
     999901    1    3    3    0    0 -0.84389073027E-01 -0.20512488648E-01 -0.87255986656E-01  0.88856957243E+00  0.88000000000E+00 0. -1.
        -11    1    4    4    0    0  0.79481810979E-01  0.24389796326E-02  0.84825633437E-01  0.11627104587E+00  0.51100000000E-03 0. -1.
         11    1    4    4    0    0  0.45215374871E-02 -0.28470886900E-02  0.14130895639E-01  0.15116003037E-01  0.51100000000E-03 0.  1.
</event>
<event>
 8    1  0.5489035E+004  0.1043930E+01  0.7957747E-01            NaN
         13   -1    0    0    0    0  0.00000000000E+00  0.00000000000E+00  0.74505805969E-08  0.10566000000E+00  0.10566000000E+00 0. -1.
     999900   -1    0    0    0    0 -0.00000000000E+00 -0.00000000000E+00 -0.74505805969E-08  0.93827000000E+00  0.93827000000E+00 0.  1.
     999902    2    1    2    0    0  0.35558102554E-02  0.15922533472E-01  0.18892146638E-01  0.10189683481E+01  0.10186625597E+01 0.  0.
     999903    2    3    3    0    0  0.72609583259E-01 -0.10312058318E+00 -0.45852716887E-02  0.12796280587E+00  0.21152983555E-01 0.  0.
         14    1    1    2    0    0 -0.35558102554E-02 -0.15922533472E-01 -0.18892146638E-01  0.24961651855E-01  0.00000000000E+00 0.  1.
     999901    1    3    3    0    0 -0.69053773004E-01  0.11904311665E+00  0.23477418327E-01  0.89100554227E+00  0.88000000000E+00 0. -1.
        -11    1    4    4    0    0  0.28462673521E-01 -0.29876098609E-01  0.63215762449E-02  0.41748395170E-01  0.51100000000E-03 0.  1.
         11    1    4    4    0    0  0.44146909738E-01 -0.73244484574E-01 -0.10906847934E-01  0.86214410702E-01  0.51100000000E-03 0. -1.
</event>
<event>
 8    1  0.5489035E+004  0.1043930E+01  0.7957747E-01            NaN
         13   -1    0    0    0    0  0.00000000000E+00  0.00000000000E+00  0.74505805969E-08  0.10566000000E+00  0.10566000000E+00 0.  1.
     999900   -1    0    0    0    0 -0.00000000000E+00 -0.00000000000E+00 -0.74505805969E-08  0.93827000000E+00  0.93827000000E+00 0.  1.
     999902    2    1    2    0    0 -0.63743264922E-02 -0.17967224548E-01  0.12876807570E-01  0.10209242318E+01  0.10206649900E+01 0.  0.
     999903    2    3    3    0    0  0.51401727269E-01 -0.93541364025E-01 -0.74177229513E-01  0.13152672322E+00  0.20121957951E-01 0.  0.
         14    1    1    2    0    0  0.63743264922E-02  0.17967224548E-01 -0.12876807570E-01  0.23005768176E-01  0.00000000000E+00 0. -1.
     999901    1    3    3    0    0 -0.57776053761E-01  0.75574139477E-01  0.87054037083E-01  0.88939750861E+00  0.88000000000E+00 0. -1.
        -11    1    4    4    0    0  0.79014213517E-02 -0.31249336416E-01 -0.27355332225E-01  0.42279177002E-01  0.51100000000E-03 0.  1.
         11    1    4    4    0    0  0.43500305917E-01 -0.62292027609E-01 -0.46821897287E-01  0.89247546213E-01  0.51100000000E-03 0. -1.
</event>
<event>
 8    1  0.5489035E+004  0.1043930E+01  0.7957747E-01            NaN
         13   -1    0    0    0    0  0.00000000000E+00  0.00000000000E+00  0.74505805969E-08  0.10566000000E+00  0.10566000000E+00 0. -1.
     999900   -1    0    0    0    0 -0.00000000000E+00 -0.00000000000E+00 -0.74505805969E-08  0.93827000000E+00  0.93827000000E+00 0.  1.
     999902    2    1    2    0    0  0.75653221352E-02  0.18242796291E-02 -0.23343339942E-01  0.10193236265E+01  0.10190265855E+01 0.  0.
     999903    2    3    3    0    0 -0.91122456776E-01 -0.80751257893E-01 -0.40396135425E-01  0.12980196017E+00  0.19814977352E-01 0.  0.
         14    1    1    2    0    0 -0.75653221352E-02 -0.18242796291E-02  0.23343339942E-01  0.24606373459E-01  0.00000000000E+00 0. -1.
     999901    1    3    3    0    0  0.98687778911E-01  0.82575537522E-01  0.17052795483E-01  0.88952166637E+00  0.88000000000E+00 0.  1.
        -11    1    4    4    0    0 -0.36205215204E-01 -0.39880315183E-01 -0.26145369747E-01  0.59875693125E-01  0.51100000000E-03 0.  1.
         11    1    4    4    0    0 -0.54917241572E-01 -0.40870942710E-01 -0.14250765678E-01  0.69926267048E-01  0.51100000000E-03 0. -1.
</event>
<event>
 8    1  0.5489035E+004  0.1043930E+01  0.7957747E-01            NaN
         13   -1    0    0    0    0  0.00000000000E+00  0.00000000000E+00  0.74505805969E-08  0.10566000000E+00  0.10566000000E+00 0.  1.
     999900   -1    0    0    0    0 -0.00000000000E+00 -0.00000000000E+00 -0.74505805969E-08  0.93827000000E+00  0.93827000000E+00 0.  1.
     999902    2    1    2    0    0 -0.19691543730E-01 -0.10076309925E-01  0.70005082627E-02  0.10207287924E+01  0.10204650762E+01 0.  0.
     999903    2    3    3    0    0  0.10730741215E+00  0.49462026229E-01  0.47472361191E-01  0.12870215655E+00  0.18688158899E-01 0.  0.
         14    1    1    2    0    0  0.19691543730E-01  0.10076309925E-01 -0.70005082627E-02  0.23201207558E-01  0.00000000000E+00 0. -1.
     999901    1    3    3    0    0 -0.12699895588E+00 -0.59538336155E-01 -0.40471852928E-01  0.89202663589E+00  0.88000000000E+00 0.  1.
        -11    1    4    4    0    0  0.87850671522E-01  0.45992172895E-01  0.34221066463E-01  0.10490168238E+00  0.51100000000E-03 0.  1.
         11    1    4    4    0    0  0.19456740624E-01  0.34698533344E-02  0.13251294728E-01  0.23800474172E-01  0.51100000000E-03 0. -1.
</event>
<event>
 8    1  0.5489035E+004  0.1043930E+01  0.7957747E-01            NaN
         13   -1    0    0    0    0  0.00000000000E+00  0.00000000000E+00  0.74505805969E-08  0.10566000000E+00  0.10566000000E+00 0.  1.
     999900   -1    0    0    0    0 -0.00000000000E+00 -0.00000000000E+00 -0.74505805969E-08  0.93827000000E+00  0.93827000000E+00 0.  1.
     999902    2    1    2    0    0  0.43898843738E-02 -0.22910673070E-01 -0.70376822322E-02  0.10195640607E+01  0.10192728658E+01 0.  0.
     999903    2    3    3    0    0  0.90319257583E-01  0.76879499520E-01  0.44464075640E-01  0.12827602267E+00  0.20240015630E-01 0.  0.
         14    1    1    2    0    0 -0.43898843738E-02  0.22910673070E-01  0.70376822322E-02  0.24365939270E-01  0.00000000000E+00 0.  1.
     999901    1    3    3    0    0 -0.85929373209E-01 -0.99790172589E-01 -0.51501757872E-01  0.89128803806E+00  0.88000000000E+00 0. -1.
        -11    1    4    4    0    0  0.64155134469E-01  0.62875663711E-01  0.26826557180E-01  0.93750496836E-01  0.51100000000E-03 0.  1.
         11    1    4    4    0    0  0.26164123114E-01  0.14003835809E-01  0.17637518460E-01  0.34525525834E-01  0.51100000000E-03 0. -1.
</event>
<event>
 8    1  0.5489035E+004  0.1043930E+01  0.7957747E-01            NaN
         13   -1    0    0    0    0  0.00000000000E+00  0.00000000000E+00  0.74505805969E-08  0.10566000000E+00  0.10566000000E+00 0.  1.
     999900   -1    0    0    0    0 -0.00000000000E+00 -0.00000000000E+00 -0.74505805969E-08  0.93827000000E+00  0.93827000000E+00 0. -1.
     999902    2    1    2    0    0 -0.41917814182E-02  0.24011034136E-01  0.14382450913E-02  0.10195134208E+01  0.10192209995E+01 0.  0.
     999903    2    3    3    0    0 -0.10754757190E+00  0.73018262997E-01 -0.11491623402E-01  0.13201620422E+00  0.19951787275E-01 0.  0.
         14    1    1    2    0    0  0.41917814182E-02 -0.24011034136E-01 -0.14382450913E-02  0.24416579218E-01  0.00000000000E+00 0.  1.
     999901    1    3    3    0    0  0.10335579048E+00 -0.49007228861E-01  0.12929868494E-01  0.88749721656E+00  0.88000000000E+00 0. -1.
        -11    1    4    4    0    0 -0.91246950435E-01  0.53074451367E-01 -0.12053900546E-01  0.10624716933E+00  0.51100000000E-03 0. -1.
         11    1    4    4    0    0 -0.16300621465E-01  0.19943811630E-01  0.56227714424E-03  0.25769034888E-01  0.51100000000E-03 0.  1.
</event>
<event>
 8    1  0.5489035E+004  0.1043930E+01  0.7957747E-01            NaN
         13   -1    0    0    0    0  0.00000000000E+00  0.00000000000E+00  0.74505805969E-08  0.10566000000E+00  0.10566000000E+00 0.  1.
     999900   -1    0    0    0    0 -0.00000000000E+00 -0.00000000000E+00 -0.74505805969E-08  0.93827000000E+00  0.93827000000E+00 0.  1.
     999902    2    1    2    0    0 -0.15954504520E-01  0.11205729518E-01 -0.13125897155E-01  0.10204267286E+01  0.10201560198E+01 0.  0.
     999903    2    3    3    0    0 -0.10915420581E-01 -0.10252394765E+00  0.74731492298E-01  0.12875484240E+00  0.19044874684E-01 0.  0.
         14    1    1    2    0    0  0.15954504520E-01 -0.11205729518E-01  0.13125897155E-01  0.23503271360E-01  0.00000000000E+00 0.  1.
     999901    1    3    3    0    0 -0.50390839390E-02  0.11372967717E+00 -0.87857389453E-01  0.89167188624E+00  0.88000000000E+00 0.  1.
        -11    1    4    4    0    0 -0.14564168013E-01 -0.79713980500E-01  0.51651470155E-01  0.96096665745E-01  0.51100000000E-03 0. -1.
         11    1    4    4    0    0  0.36487474319E-02 -0.22809967148E-01  0.23080022143E-01  0.32658176652E-01  0.51100000000E-03 0.  1.
</event>
<event>
 8    1  0.5489035E+004  0.1043930E+01  0.7957747E-01            NaN
         13   -1    0    0    0    0  0.00000000000E+00  0.00000000000E+00  0.74505805969E-08  0.10566000000E+00  0.10566000000E+00 0.  1.
     999900   -1    0    0    0    0 -0.00000000000E+00 -0.00000000000E+00 -0.74505805969E-08  0.93827000000E+00  0.93827000000E+00 0. -1.
     999902    2    1    2    0    0  0.22274757644E-01  0.28008143003E-02  0.69772166543E-02  0.10204206201E+01  0.10201497689E+01 0.  0.
     999903    2    3    3    0    0 -0.12570820999E+00 -0.12551446201E-01 -0.39471945282E-02  0.12786586363E+00  0.19339231575E-01 0.  0.
         14    1    1    2    0    0 -0.22274757644E-01 -0.28008143003E-02 -0.69772166543E-02  0.23509379853E-01  0.00000000000E+00 0.  1.
     999901    1    3    3    0    0  0.14798296763E+00  0.15352260501E-01  0.10924411183E-01  0.89255475651E+00  0.88000000000E+00 0. -1.
        -11    1    4    4    0    0 -0.11291840247E+00 -0.58872861990E-02 -0.70455604271E-03  0.11307512226E+00  0.51100000000E-03 0.  1.
         11    1    4    4    0    0 -0.12789807523E-01 -0.66641600019E-02 -0.32426384855E-02  0.14790741373E-01  0.51100000000E-03 0. -1.
</event>
<event>
 8    1  0.5489035E+004  0.1043930E+01  0.7957747E-01            NaN
         13   -1    0    0    0    0  0.00000000000E+00  0.00000000000E+00  0.74505805969E-08  0.10566000000E+00  0.10566000000E+00 0. -1.
     999900   -1    0    0    0    0 -0.00000000000E+00 -0.00000000000E+00 -0.74505805969E-08  0.93827000000E+00  0.93827000000E+00 0. -1.
     999902    2    1    2    0    0  0.20023950035E-01  0.96058727387E-02 -0.86225103345E-02  0.10201060824E+01  0.10198278483E+01 0.  0.
     999903    2    3    3    0    0 -0.11059374324E+00 -0.11453604186E-01  0.59451964858E-01  0.12761596057E+00  0.19726534790E-01 0.  0.
         14    1    1    2    0    0 -0.20023950035E-01 -0.96058727387E-02  0.86225103345E-02  0.23823917615E-01  0.00000000000E+00 0. -1.
     999901    1    3    3    0    0  0.13061769327E+00  0.21059476924E-01 -0.68074475193E-01  0.89249012181E+00  0.88000000000E+00 0.  1.
        -11    1    4    4    0    0 -0.65051900906E-01 -0.41634896183E-02  0.24089606575E-01  0.69495717302E-01  0.51100000000E-03 0. -1.
         11    1    4    4    0    0 -0.45541842330E-01 -0.72901145675E-02  0.35362358283E-01  0.58120243269E-01  0.51100000000E-03 0.  1.
</event>
<event>
 8    1  0.5489035E+004  0.1043930E+01  0.7957747E-01            NaN
         13   -1    0    0    0    0  0.00000000000E+00  0.00000000000E+00  0.74505805969E-08  0.10566000000E+00  0.10566000000E+00 0.  1.
     999900   -1    0    0    0    0 -0.00000000000E+00 -0.00000000000E+00 -0.74505805969E-08  0.93827000000E+00  0.93827000000E+00 0.  1.
     999902    2    1    2    0    0  0.24942621396E-02 -0.15491099067E-01 -0.16874406607E-01  0.10208878410E+01  0.10206277690E+01 0.  0.
     999903    2    3    3    0    0  0.10493982771E+00  0.41655145247E-01  0.60647950765E-01  0.12972539617E+00  0.20074509076E-01 0.  0.
         14    1    1    2    0    0 -0.24942621396E-02  0.15491099067E-01  0.16874406607E-01  0.23042159019E-01  0.00000000000E+00 0. -1.
     999901    1    3    3    0    0 -0.10244556557E+00 -0.57146244314E-01 -0.77522357372E-01  0.89116244481E+00  0.88000000000E+00 0. -1.
        -11    1    4    4    0    0  0.50362491578E-01  0.20407859735E-01  0.17899836809E-01  0.57214740895E-01  0.51100000000E-03 0.  1.
         11    1    4    4    0    0  0.54577336133E-01  0.21247285512E-01  0.42748113956E-01  0.72510655278E-01  0.51100000000E-03 0. -1.
</event>
<event>
 8    1  0.5489035E+004  0.1043930E+01  0.7957747E-01            NaN
         13   -1    0    0    0    0  0.00000000000E+00  0.00000000000E+00  0.74505805969E-08  0.10566000000E+00  0.10566000000E+00 0.  1.
     999900   -1    0    0    0    0 -0.00000000000E+00 -0.00000000000E+00 -0.74505805969E-08  0.93827000000E+00  0.93827000000E+00 0.  1.
     999902    2    1    2    0    0 -0.10359103121E-01 -0.19331741281E-01 -0.10405967805E-01  0.10196542631E+01  0.10193652460E+01 0.  0.
     999903    2    3    3    0    0  0.75959582926E-01 -0.50594680656E-01 -0.91883222333E-01  0.13113480353E+00  0.20594421624E-01 0.  0.
         14    1    1    2    0    0  0.10359103121E-01  0.19331741281E-01  0.10405967805E-01  0.24275736948E-01  0.00000000000E+00 0. -1.
     999901    1    3    3    0    0 -0.86318686047E-01  0.31262939375E-01  0.81477254528E-01  0.88851945952E+00  0.88000000000E+00 0. -1.
        -11    1    4    4    0    0  0.39975542025E-01 -0.28461310173E-01 -0.34997194134E-01  0.60275657236E-01  0.51100000000E-03 0.  1.
         11    1    4    4    0    0  0.35984040901E-01 -0.22133370483E-01 -0.56886028199E-01  0.70859146296E-01  0.51100000000E-03 0. -1.
</event>
<event>
 8    1  0.5489035E+004  0.1043930E+01  0.7957747E-01            NaN
         13   -1    0    0    0    0  0.00000000000E+00  0.00000000000E+00  0.74505805969E-08  0.10566000000E+00  0.10566000000E+00 0. -1.
     999900   -1    0    0    0    0 -0.00000000000E+00 -0.00000000000E+00 -0.74505805969E-08  0.93827000000E+00  0.93827000000E+00 0. -1.
     999902    2    1    2    0    0 -0.12625000709E-01 -0.10108374916E-01  0.23353993997E-01  0.10155226256E+01  0.10151252258E+01 0.  0.
     999903    2    3    3    0    0 -0.93848966388E-02  0.12285975018E+00 -0.72184683231E-02  0.12500272348E+00  0.19773216538E-01 0.  0.
         14    1    1    2    0    0  0.12625000709E-01  0.10108374916E-01 -0.23353993997E-01  0.28407374430E-01  0.00000000000E+00 0.  1.
     999901    1    3    3    0    0 -0.32401040707E-02 -0.13296812510E+00  0.30572462321E-01  0.89051990209E+00  0.88000000000E+00 0. -1.
        -11    1    4    4    0    0 -0.98007328415E-02  0.55384425928E-01  0.48405506749E-02  0.56455124226E-01  0.51100000000E-03 0.  1.
         11    1    4    4    0    0  0.41583620270E-03  0.67475324256E-01 -0.12059018998E-01  0.68547599254E-01  0.51100000000E-03 0. -1.
</event>
<event>
 8    1  0.5489035E+004  0.1043930E+01  0.7957747E-01            NaN
         13   -1    0    0    0    0  0.00000000000E+00  0.00000000000E+00  0.74505805969E-08  0.10566000000E+00  0.10566000000E+00 0.  1.
     999900   -1    0    0    0    0 -0.00000000000E+00 -0.00000000000E+00 -0.74505805969E-08  0.93827000000E+00  0.93827000000E+00 0. -1.
     999902    2    1    2    0    0 -0.15997892081E-01 -0.14652113713E-01 -0.74150413220E-02  0.10210040360E+01  0.10207466099E+01 0.  0.
     999903    2    3    3    0    0 -0.29649294223E-01 -0.12787448783E+00 -0.15027328324E-01  0.13361257014E+00  0.19888011884E-01 0.  0.
         14    1    1    2    0    0  0.15997892081E-01  0.14652113713E-01  0.74150413220E-02  0.22925963995E-01  0.00000000000E+00 0. -1.
     999901    1    3    3    0    0  0.13651402142E-01  0.11322237412E+00  0.76122870022E-02  0.88739146587E+00  0.88000000000E+00 0.  1.
        -11    1    4    4    0    0 -0.13292534269E-01 -0.39774477146E-01 -0.13266713758E-01  0.43988263372E-01  0.51100000000E-03 0.  1.
         11    1    4    4    0    0 -0.16356759953E-01 -0.88100010683E-01 -0.17606145659E-02  0.89624306766E-01  0.51100000000E-03 0. -1.
</event>
<event>
 8    1  0.5489035E+004  0.1043930E+01  0.7957747E-01            NaN
         13   -1    0    0    0    0  0.00000000000E+00  0.00000000000E+00  0.74505805969E-08  0.10566000000E+00  0.10566000000E+00 0.  1.
     999900   -1    0    0    0    0 -0.00000000000E+00 -0.00000000000E+00 -0.74505805969E-08  0.93827000000E+00  0.93827000000E+00 0.  1.
     999902    2    1    2    0    0  0.13070066194E-01  0.41041427482E-02  0.18578416116E-01  0.10208469291E+01  0.10205859221E+01 0.  0.
     999903    2    3    3    0    0  0.52593981790E-01  0.82083163308E-02 -0.11673185133E+00  0.12961864596E+00  0.18470649383E-01 0.  0.
         14    1    1    2    0    0 -0.13070066194E-01 -0.41041427482E-02 -0.18578416116E-01  0.23083070927E-01  0.00000000000E+00 0.  1.
     999901    1    3    3    0    0 -0.39523915596E-01 -0.41041735825E-02  0.13531026744E+00  0.89122828311E+00  0.88000000000E+00 0. -1.
        -11    1    4    4    0    0  0.30837796616E-01 -0.10053487025E-02 -0.81955293375E-01  0.87572322451E-01  0.51100000000E-03 0. -1.
         11    1    4    4    0    0  0.21756185174E-01  0.92136650333E-02 -0.34776557952E-01  0.42046323510E-01  0.51100000000E-03 0.  1.
</event>
<event>
 8    1  0.5489035E+004  0.1043930E+01  0.7957747E-01            NaN
         13   -1    0    0    0    0  0.00000000000E+00  0.00000000000E+00  0.74505805969E-08  0.10566000000E+00  0.10566000000E+00 0. -1.
     999900   -1    0    0    0    0 -0.00000000000E+00 -0.00000000000E+00 -0.74505805969E-08  0.93827000000E+00  0.93827000000E+00 0. -1.
     999902    2    1    2    0    0 -0.20870814045E-01  0.49024264225E-02 -0.13528355851E-01  0.10185796336E+01  0.10182641253E+01 0.  0.
     999903    2    3    3    0    0 -0.77326258886E-01  0.71102002405E-01  0.73771249916E-01  0.12999040215E+00  0.20505176847E-01 0.  0.
         14    1    1    2    0    0  0.20870814045E-01 -0.49024264225E-02  0.13528355851E-01  0.25350366383E-01  0.00000000000E+00 0. -1.
     999901    1    3    3    0    0  0.56455444842E-01 -0.66199575983E-01 -0.87299605767E-01  0.88858923147E+00  0.88000000000E+00 0.  1.
        -11    1    4    4    0    0 -0.68620262035E-01  0.69552826546E-01  0.63997328034E-01  0.11680006489E+00  0.51100000000E-03 0. -1.
         11    1    4    4    0    0 -0.87059968515E-02  0.15491758590E-02  0.97739218818E-02  0.13190337258E-01  0.51100000000E-03 0.  1.
</event>
<event>
 8    1  0.5489035E+004  0.1043930E+01  0.7957747E-01            NaN
         13   -1    0    0    0    0  0.00000000000E+00  0.00000000000E+00  0.74505805969E-08  0.10566000000E+00  0.10566000000E+00 0. -1.
     999900   -1    0    0    0    0 -0.00000000000E+00 -0.00000000000E+00 -0.74505805969E-08  0.93827000000E+00  0.93827000000E+00 0. -1.
     999902    2    1    2    0    0 -0.47543465449E-02 -0.22628123981E-01 -0.90997227357E-02  0.10190816447E+01  0.10187786599E+01 0.  0.
     999903    2    3    3    0    0 -0.11181418496E+00  0.22064521758E-01 -0.59030261568E-01  0.13006404069E+00  0.21043474503E-01 0.  0.
         14    1    1    2    0    0  0.47543465449E-02  0.22628123981E-01  0.90997227357E-02  0.24848355275E-01  0.00000000000E+00 0. -1.
     999901    1    3    3    0    0  0.10705983842E+00 -0.44692645739E-01  0.49930538833E-01  0.88901760404E+00  0.88000000000E+00 0. -1.
        -11    1    4    4    0    0 -0.56847471901E-01  0.18622206809E-01 -0.22204345465E-01  0.63809997074E-01  0.51100000000E-03 0. -1.
         11    1    4    4    0    0 -0.54966713062E-01  0.34423149486E-02 -0.36825916103E-01  0.66254043611E-01  0.51100000000E-03 0.  1.
</event>
<event>
 8    1  0.5489035E+004  0.1043930E+01  0.7957747E-01            NaN
         13   -1    0    0    0    0  0.00000000000E+00  0.00000000000E+00  0.74505805969E-08  0.10566000000E+00  0.10566000000E+00 0.  1.
     999900   -1    0    0    0    0 -0.00000000000E+00 -0.00000000000E+00 -0.74505805969E-08  0.93827000000E+00  0.93827000000E+00 0.  1.
     999902    2    1    2    0    0  0.62839828315E-02 -0.20166753861E-01 -0.11348118099E-01  0.10199515475E+01  0.10196696490E+01 0.  0.
     999903    2    3    3    0    0 -0.56679062671E-01 -0.11780376195E+00  0.96736840546E-03  0.13223030650E+00  0.19841262068E-01 0.  0.
         14    1    1    2    0    0 -0.62839828315E-02  0.20166753861E-01  0.11348118099E-01  0.23978452534E-01  0.00000000000E+00 0.  1.
     999901    1    3    3    0    0  0.62963045503E-01  0.97637008093E-01 -0.12315486505E-01  0.88772124096E+00  0.88000000000E+00 0. -1.
        -11    1    4    4    0    0 -0.32727201106E-01 -0.85788657224E-01  0.55147647417E-02  0.91986070422E-01  0.51100000000E-03 0.  1.
         11    1    4    4    0    0 -0.23951861565E-01 -0.32015104731E-01 -0.45473963362E-02  0.40244236082E-01  0.51100000000E-03 0. -1.
</event>
<event>
 8    1  0.5489035E+004  0.1043930E+01  0.7957747E-01            NaN
         13   -1    0    0    0    0  0.00000000000E+00  0.00000000000E+00  0.74505805969E-08  0.10566000000E+00  0.10566000000E+00 0. -1.
     999900   -1    0    0    0    0 -0.00000000000E+00 -0.00000000000E+00 -0.74505805969E-08  0.93827000000E+00  0.93827000000E+00 0.  1.
     999902    2    1    2    0    0 -0.19342474966E-01  0.12276352492E-01 -0.97455472179E-02  0.10190338987E+01  0.10187297340E+01 0.  0.
     999903    2    3    3    0    0 -0.17338951681E-01 -0.11270764522E+00  0.54526739805E-01  0.12787962438E+00  0.19400526855E-01 0.  0.
         14    1    1    2    0    0  0.19342474966E-01 -0.12276352492E-01  0.97455472179E-02  0.24896101279E-01  0.00000000000E+00 0.  1.
     999901    1    3    3    0    0 -0.20035232844E-02  0.12498399771E+00 -0.64272287023E-01  0.89115427434E+00  0.88000000000E+00 0.  1.
        -11    1    4    4    0    0 -0.11634416196E-01 -0.38503658221E-01  0.11175862035E-01  0.41749878441E-01  0.51100000000E-03 0.  1.
         11    1    4    4    0    0 -0.57045354851E-02 -0.74203987000E-01  0.43350877770E-01  0.86129745943E-01  0.51100000000E-03 0. -1.
</event>
<event>
 8    1  0.5489035E+004  0.1043930E+01  0.7957747E-01            NaN
         13   -1    0    0    0    0  0.00000000000E+00  0.00000000000E+00  0.74505805969E-08  0.10566000000E+00  0.10566000000E+00 0.  1.
     999900   -1    0    0    0    0 -0.00000000000E+00 -0.00000000000E+00 -0.74505805969E-08  0.93827000000E+00  0.93827000000E+00 0.  1.
     999902    2    1    2    0    0 -0.34470343597E-02 -0.24236369514E-01 -0.13097848535E-02  0.10194147152E+01  0.10191198960E+01 0.  0.
     999903    2    3    3    0    0 -0.74295819292E-01 -0.10695232820E+00  0.14594560660E-01  0.13255822829E+00  0.20000335347E-01 0.  0.
         14    1    1    2    0    0  0.34470343597E-02  0.24236369514E-01  0.13097848535E-02  0.24515284813E-01  0.00000000000E+00 0.  1.
     999901    1    3    3    0    0  0.70848784932E-01  0.82715958688E-01 -0.15904345513E-01  0.88685648690E+00  0.88000000000E+00 0. -1.
        -11    1    4    4    0    0 -0.61105378971E-01 -0.72731433415E-01  0.12584233832E-01  0.95824593962E-01  0.51100000000E-03 0. -1.
         11    1    4    4    0    0 -0.13190440321E-01 -0.34220894787E-01  0.20103268279E-02  0.36733634326E-01  0.51100000000E-03 0.  1.
</event>
<event>
 8    1  0.5489035E+004  0.1043930E+01  0.7957747E-01            NaN
         13   -1    0    0    0    0  0.00000000000E+00  0.00000000000E+00  0.74505805969E-08  0.10566000000E+00  0.10566000000E+00 0.  1.
     999900   -1    0    0    0    0 -0.00000000000E+00 -0.00000000000E+00 -0.74505805969E-08  0.93827000000E+00  0.93827000000E+00 0.  1.
     999902    2    1    2    0    0  0.15550379033E-01  0.22177310574E-02  0.17408240738E-01  0.10204826235E+01  0.10202132157E+01 0.  0.
     999903    2    3    3    0    0 -0.73784133101E-01  0.92635254668E-01 -0.46927726105E-01  0.12902589417E+00  0.20495882141E-01 0.  0.
         14    1    1    2    0    0 -0.15550379033E-01 -0.22177310574E-02 -0.17408240738E-01  0.23447376500E-01  0.00000000000E+00 0. -1.
     999901    1    3    3    0    0  0.89334512134E-01 -0.90417523611E-01  0.64335966843E-01  0.89145672933E+00  0.88000000000E+00 0. -1.
        -11    1    4    4    0    0 -0.55157147824E-01  0.81418752736E-01 -0.36421491109E-01  0.10487187606E+00  0.51100000000E-03 0.  1.
         11    1    4    4    0    0 -0.18626985277E-01  0.11216501933E-01 -0.10506234996E-01  0.24154018111E-01  0.51100000000E-03 0. -1.
</event>
<event>
 8    1  0.5489035E+004  0.1043930E+01  0.7957747E-01            NaN
         13   -1    0    0    0    0  0.00000000000E+00  0.00000000000E+00  0.74505805969E-08  0.10566000000E+00  0.10566000000E+00 0. -1.
     999900   -1    0    0    0    0 -0.00000000000E+00 -0.00000000000E+00 -0.74505805969E-08  0.93827000000E+00  0.93827000000E+00 0.  1.
     999902    2    1    2    0    0 -0.20396233038E-01 -0.12652527635E-01 -0.31145488285E-02  0.10197268351E+01  0.10194395642E+01 0.  0.
     999903    2    3    3    0    0 -0.25241453994E-01 -0.12560830442E+00 -0.25816932495E-01  0.13220338080E+00  0.19915891953E-01 0.  0.
         14    1    1    2    0    0  0.20396233038E-01  0.12652527635E-01  0.31145488285E-02  0.24203164919E-01  0.00000000000E+00 0. -1.
     999901    1    3    3    0    0  0.48452209558E-02  0.11295577679E+00  0.22702383667E-01  0.88752345428E+00  0.88000000000E+00 0. -1.
        -11    1    4    4    0    0 -0.17641377743E-01 -0.43129014059E-01 -0.55499006305E-02  0.46929655661E-01  0.51100000000E-03 0.  1.
         11    1    4    4    0    0 -0.76000762506E-02 -0.82479290361E-01 -0.20267031865E-01  0.85273725139E-01  0.51100000000E-03 0. -1.
</event>
<event>
 8    1  0.5489035E+004  0.1043930E+01  0.7957747E-01            NaN
         13   -1    0    0    0    0  0.00000000000E+00  0.00000000000E+00  0.74505805969E-08  0.10566000000E+00  0.10566000000E+00 0. -1.
     999900   -1    0    0    0    0 -0.00000000000E+00 -0.00000000000E+00 -0.74505805969E-08  0.93827000000E+00  0.93827000000E+00 0.  1.
     999902    2    1    2    0    0 -0.11811156620E-01 -0.96615972450E-02  0.17533257148E-01  0.10206863990E+01  0.10204217070E+01 0.  0.
     999903    2    3    3    0    0 -0.12173733912E+00  0.20410977396E-01  0.45115688512E-01  0.13290888414E+00  0.19818133058E-01 0.  0.
         14    1    1    2    0    0  0.11811156620E-01  0.96615972450E-02 -0.17533257148E-01  0.23243601017E-01  0.00000000000E+00 0.  1.
     999901    1    3    3    0    0  0.10992618250E+00 -0.30072574641E-01 -0.27582431364E-01  0.88777751485E+00  0.88000000000E+00 0. -1.
        -11    1    4    4    0    0 -0.92334462120E-01  0.68026700449E-02  0.34645639108E-01  0.98856009655E-01  0.51100000000E-03 0.  1.
         11    1    4    4    0    0 -0.29402877002E-01  0.13608307351E-01  0.10470049404E-01  0.34052874482E-01  0.51100000000E-03 0. -1.
</event>
<event>
 8    1  0.5489035E+004  0.1043930E+01  0.7957747E-01            NaN
         13   -1    0    0    0    0  0.00000000000E+00  0.00000000000E+00  0.74505805969E-08  0.10566000000E+00  0.10566000000E+00 0. -1.
     999900   -1    0    0    0    0 -0.00000000000E+00 -0.00000000000E+00 -0.74505805969E-08  0.93827000000E+00  0.93827000000E+00 0. -1.
     999902    2    1    2    0    0  0.20895428414E-01  0.54739381224E-03  0.12467024860E-01  0.10195918555E+01  0.10193013325E+01 0.  0.
     999903    2    3    3    0    0  0.72664570203E-01  0.87465533626E-02  0.10907899874E+00  0.13275413430E+00  0.19203912345E-01 0.  0.
         14    1    1    2    0    0 -0.20895428414E-01 -0.54739381224E-03 -0.12467024860E-01  0.24338144495E-01  0.00000000000E+00 0. -1.
     999901    1    3    3    0    0 -0.51769141789E-01 -0.81991595503E-02 -0.96611973877E-01  0.88683772121E+00  0.88000000000E+00 0. -1.
        -11    1    4    4    0    0  0.41331376186E-01  0.34168619640E-02  0.44839769802E-01  0.61080468892E-01  0.51100000000E-03 0.  1.
         11    1    4    4    0    0  0.31333194017E-01  0.53296913985E-02  0.64239228935E-01  0.71673665407E-01  0.51100000000E-03 0. -1.
</event>
<event>
 8    1  0.5489035E+004  0.1043930E+01  0.7957747E-01            NaN
         13   -1    0    0    0    0  0.00000000000E+00  0.00000000000E+00  0.74505805969E-08  0.10566000000E+00  0.10566000000E+00 0.  1.
     999900   -1    0    0    0    0 -0.00000000000E+00 -0.00000000000E+00 -0.74505805969E-08  0.93827000000E+00  0.93827000000E+00 0. -1.
     999902    2    1    2    0    0 -0.35762186830E-03  0.73648911933E-02  0.23052092847E-01  0.10197273452E+01  0.10194400865E+01 0.  0.
     999903    2    3    3    0    0 -0.42486394117E-01 -0.77206876585E-01  0.95774882458E-01  0.13168690608E+00  0.20065334404E-01 0.  0.
         14    1    1    2    0    0  0.35762186830E-03 -0.73648911933E-02 -0.23052092847E-01  0.24202654820E-01  0.00000000000E+00 0. -1.
     999901    1    3    3    0    0  0.42128772249E-01  0.84571767778E-01 -0.72722789611E-01  0.88804043910E+00  0.88000000000E+00 0.  1.
        -11    1    4    4    0    0 -0.79306231691E-02 -0.28908951825E-01  0.41762034015E-01  0.51409638061E-01  0.51100000000E-03 0. -1.
         11    1    4    4    0    0 -0.34555770948E-01 -0.48297924760E-01  0.54012848443E-01  0.80277268015E-01  0.51100000000E-03 0.  1.
</event>
<event>
 8    1  0.5489035E+004  0.1043930E+01  0.7957747E-01            NaN
         13   -1    0    0    0    0  0.00000000000E+00  0.00000000000E+00  0.74505805969E-08  0.10566000000E+00  0.10566000000E+00 0.  1.
     999900   -1    0    0    0    0 -0.00000000000E+00 -0.00000000000E+00 -0.74505805969E-08  0.93827000000E+00  0.93827000000E+00 0. -1.
     999902    2    1    2    0    0  0.25752390754E-02  0.21328899436E-01  0.10271505881E-01  0.10201170279E+01  0.10198390525E+01 0.  0.
     999903    2    3    3    0    0  0.97682897874E-01  0.68116825921E-01 -0.52103234570E-01  0.13156473057E+00  0.20314545716E-01 0.  0.
         14    1    1    2    0    0 -0.25752390754E-02 -0.21328899436E-01 -0.10271505881E-01  0.23812972106E-01  0.00000000000E+00 0. -1.
     999901    1    3    3    0    0 -0.95107658799E-01 -0.46787926485E-01  0.62374740451E-01  0.88855229732E+00  0.88000000000E+00 0.  1.
        -11    1    4    4    0    0  0.64117041864E-01  0.36422723827E-01 -0.24157692739E-01  0.77598099898E-01  0.51100000000E-03 0.  1.
         11    1    4    4    0    0  0.33565856011E-01  0.31694102094E-01 -0.27945541831E-01  0.53966630676E-01  0.51100000000E-03 0. -1.
</event>
<event>
 8    1  0.5489035E+004  0.1043930E+01  0.7957747E-01            NaN
         13   -1    0    0    0    0  0.00000000000E+00  0.00000000000E+00  0.74505805969E-08  0.10566000000E+00  0.10566000000E+00 0.  1.
     999900   -1    0    0    0    0 -0.00000000000E+00 -0.00000000000E+00 -0.74505805969E-08  0.93827000000E+00  0.93827000000E+00 0. -1.
     999902    2    1    2    0    0  0.97701685822E-02  0.19960391289E-01  0.10882452091E-01  0.10191852798E+01  0.10188848479E+01 0.  0.
     999903    2    3    3    0    0  0.10377083144E+00 -0.33429782052E-01  0.69697297336E-01  0.13062137031E+00  0.17840777439E-01 0.  0.
         14    1    1    2    0    0 -0.97701685822E-02 -0.19960391289E-01 -0.10882452091E-01  0.24744720205E-01  0.00000000000E+00 0.  1.
     999901    1    3    3    0    0 -0.94000662853E-01  0.53390173341E-01 -0.58814845245E-01  0.88856390949E+00  0.88000000000E+00 0.  1.
        -11    1    4    4    0    0  0.69804001771E-01 -0.14364601037E-01  0.40825654874E-01  0.82133645013E-01  0.51100000000E-03 0.  1.
         11    1    4    4    0    0  0.33966829664E-01 -0.19065181014E-01  0.28871642462E-01  0.48487725292E-01  0.51100000000E-03 0. -1.
</event>
<event>
 8    1  0.5489035E+004  0.1043930E+01  0.7957747E-01            NaN
         13   -1    0    0    0    0  0.00000000000E+00  0.00000000000E+00  0.74505805969E-08  0.10566000000E+00  0.10566000000E+00 0. -1.
     999900   -1    0    0    0    0 -0.00000000000E+00 -0.00000000000E+00 -0.74505805969E-08  0.93827000000E+00  0.93827000000E+00 0. -1.
     999902    2    1    2    0    0 -0.61143687152E-02 -0.57973682561E-02  0.21697711853E-01  0.10206537099E+01  0.10203882642E+01 0.  0.
     999903    2    3    3    0    0  0.91315834065E-01  0.90513996619E-01  0.81498248689E-02  0.12995057824E+00  0.17010820223E-01 0.  0.
         14    1    1    2    0    0  0.61143687152E-02  0.57973682561E-02 -0.21697711853E-01  0.23276290149E-01  0.00000000000E+00 0.  1.
     999901    1    3    3    0    0 -0.97430202781E-01 -0.96311364875E-01  0.13547886984E-01  0.89070313161E+00  0.88000000000E+00 0.  1.
        -11    1    4    4    0    0  0.61528947287E-01  0.53028716642E-01  0.11070908174E-01  0.81979767454E-01  0.51100000000E-03 0. -1.
         11    1    4    4    0    0  0.29786886779E-01  0.37485279977E-01 -0.29210833047E-02  0.47970810787E-01  0.51100000000E-03 0.  1.
</event>
<event>
 8    1  0.5489035E+004  0.1043930E+01  0.7957747E-01            NaN
         13   -1    0    0    0    0  0.00000000000E+00  0.00000000000E+00  0.74505805969E-08  0.10566000000E+00  0.10566000000E+00 0. -1.
     999900   -1    0    0    0    0 -0.00000000000E+00 -0.00000000000E+00 -0.74505805969E-08  0.93827000000E+00  0.93827000000E+00 0. -1.
     999902    2    1    2    0    0 -0.21155268618E-02  0.20525455757E-01 -0.11423898507E-01  0.10203445120E+01  0.10200718837E+01 0.  0.
     999903    2    3    3    0    0  0.67627886413E-01 -0.66898873952E-01 -0.86473814512E-01  0.13009755354E+00  0.19966534119E-01 0.  0.
         14    1    1    2    0    0  0.21155268618E-02 -0.20525455757E-01  0.11423898507E-01  0.23585488017E-01  0.00000000000E+00 0. -1.
     999901    1    3    3    0    0 -0.69743413275E-01  0.87424329708E-01  0.75049916005E-01  0.89024695844E+00  0.88000000000E+00 0.  1.
        -11    1    4    4    0    0  0.49550563781E-01 -0.38511948769E-01 -0.48220894180E-01  0.79145084026E-01  0.51100000000E-03 0. -1.
         11    1    4    4    0    0  0.18077322632E-01 -0.28386925182E-01 -0.38252920332E-01  0.50952469516E-01  0.51100000000E-03 0.  1.
</event>
<event>
 8    1  0.5489035E+004  0.1043930E+01  0.7957747E-01            NaN
         13   -1    0    0    0    0  0.00000000000E+00  0.00000000000E+00  0.74505805969E-08  0.10566000000E+00  0.10566000000E+00 0. -1.
     999900   -1    0    0    0    0 -0.00000000000E+00 -0.00000000000E+00 -0.74505805969E-08  0.93827000000E+00  0.93827000000E+00 0.  1.
     999902    2    1    2    0    0  0.41510575728E-02  0.18860470133E-01  0.14238486024E-01  0.10199366031E+01  0.10196543489E+01 0.  0.
     999903    2    3    3    0    0 -0.98796566885E-01  0.84109705136E-01 -0.21591087509E-02  0.13138465907E+00  0.20544166131E-01 0.  0.
         14    1    1    2    0    0 -0.41510575728E-02 -0.18860470133E-01 -0.14238486024E-01  0.23993396942E-01  0.00000000000E+00 0.  1.
     999901    1    3    3    0    0  0.10294762446E+00 -0.65249235003E-01  0.16397594775E-01  0.88855194399E+00  0.88000000000E+00 0. -1.
        -11    1    4    4    0    0 -0.19800872318E-01  0.10147319758E-01  0.54077067086E-02  0.22902992286E-01  0.51100000000E-03 0.  1.
         11    1    4    4    0    0 -0.78995694567E-01  0.73962385378E-01 -0.75668154595E-02  0.10848166678E+00  0.51100000000E-03 0. -1.
</event>
<event>
 7    1  0.5489035E+004  0.1043930E+01  0.7957747E-01            NaN
         13   -1    0    0    0    0  0.00000000000E+00  0.00000000000E+00  0.74505805969E-08  0.10566000000E+00  0.10566000000E+00 0. -1.
     999900   -1    0    0    0    0 -0.00000000000E+00 -0.00000000000E+00 -0.74505805969E-08  0.93827000000E+00  0.93827000000E+00 0. -1.
     999903    2    1    2    0    0 -0.83660958564E-02  0.34472681137E-01 -0.83267318354E-01  0.92634842634E-01  0.19733485738E-01 0.  0.
         14    1    1    2    0    0  0.23158235121E-01 -0.10652052454E-01 -0.54470387764E-01  0.60139780666E-01  0.00000000000E+00 0.  1.
     999901    1    1    2    0    0 -0.14792139265E-01 -0.23820628683E-01  0.13773770612E+00  0.89115537670E+00  0.88000000000E+00 0.  1.
        -11    1    3    3    0    0 -0.14127148638E-01  0.28399039381E-01 -0.59454965866E-01  0.67388692327E-01  0.51100000000E-03 0.  1.
         11    1    3    3    0    0  0.57610527812E-02  0.60736417555E-02 -0.23812352488E-01  0.25246150307E-01  0.51100000000E-03 0. -1.
</event>
<event>
 8    1  0.5489035E+004  0.1043930E+01  0.7957747E-01            NaN
         13   -1    0    0    0    0  0.00000000000E+00  0.00000000000E+00  0.74505805969E-08  0.10566000000E+00  0.10566000000E+00 0. -1.
     999900   -1    0    0    0    0 -0.00000000000E+00 -0.00000000000E+00 -0.74505805969E-08  0.93827000000E+00  0.93827000000E+00 0. -1.
     999902    2    1    2    0    0 -0.51650151635E-02 -0.42658985051E-02  0.23096328753E-01  0.10198818052E+01  0.10195982448E+01 0.  0.
     999903    2    3    3    0    0 -0.58317394859E-01 -0.34383391468E-01  0.11316023443E+00  0.13317793920E+00  0.18654454758E-01 0.  0.
         14    1    1    2    0    0  0.51650151635E-02  0.42658985051E-02 -0.23096328753E-01  0.24048194809E-01  0.00000000000E+00 0.  1.
     999901    1    3    3    0    0  0.53152379695E-01  0.30117492962E-01 -0.90063905678E-01  0.88670386599E+00  0.88000000000E+00 0. -1.
        -11    1    4    4    0    0 -0.32625317026E-01 -0.24133636514E-01  0.82097432598E-01  0.91581074916E-01  0.51100000000E-03 0. -1.
         11    1    4    4    0    0 -0.25692077833E-01 -0.10249754954E-01  0.31062801833E-01  0.41596864289E-01  0.51100000000E-03 0.  1.
</event>
<event>
 8    1  0.5489035E+004  0.1043930E+01  0.7957747E-01            NaN
         13   -1    0    0    0    0  0.00000000000E+00  0.00000000000E+00  0.74505805969E-08  0.10566000000E+00  0.10566000000E+00 0. -1.
     999900   -1    0    0    0    0 -0.00000000000E+00 -0.00000000000E+00 -0.74505805969E-08  0.93827000000E+00  0.93827000000E+00 0.  1.
     999902    2    1    2    0    0 -0.26841713339E-02  0.53376637670E-02 -0.20830135666E-01  0.10222599750E+01  0.10220302670E+01 0.  0.
     999903    2    3    3    0    0  0.76796420727E-01  0.88115942802E-01 -0.61995637599E-01  0.13385465844E+00  0.20285484793E-01 0.  0.
         14    1    1    2    0    0  0.26841713339E-02 -0.53376637670E-02  0.20830135666E-01  0.21670024968E-01  0.00000000000E+00 0. -1.
     999901    1    3    3    0    0 -0.79480592061E-01 -0.82778279035E-01  0.41165501933E-01  0.88840531659E+00  0.88000000000E+00 0. -1.
        -11    1    4    4    0    0  0.54187921596E-01  0.50926318188E-01 -0.46223105312E-01  0.87559450186E-01  0.51100000000E-03 0.  1.
         11    1    4    4    0    0  0.22608499130E-01  0.37189624614E-01 -0.15772532287E-01  0.46295208257E-01  0.51100000000E-03 0. -1.
</event>
<event>
 8    1  0.5489035E+004  0.1043930E+01  0.7957747E-01            NaN
         13   -1    0    0    0    0  0.00000000000E+00  0.00000000000E+00  0.74505805969E-08  0.10566000000E+00  0.10566000000E+00 0.  1.
     999900   -1    0    0    0    0 -0.00000000000E+00 -0.00000000000E+00 -0.74505805969E-08  0.93827000000E+00  0.93827000000E+00 0.  1.
     999902    2    1    2    0    0  0.15843194471E-02  0.83639747836E-02 -0.21290250294E-01  0.10210009595E+01  0.10207434635E+01 0.  0.
     999903    2    3    3    0    0  0.16496341498E-01  0.12871940526E+00  0.14311700013E-01  0.13197042179E+00  0.19249750593E-01 0.  0.
         14    1    1    2    0    0 -0.15843194471E-02 -0.83639747836E-02  0.21290250294E-01  0.22929040535E-01  0.00000000000E+00 0.  1.
     999901    1    3    3    0    0 -0.14912022051E-01 -0.12035543048E+00 -0.35601950307E-01  0.88903053767E+00  0.88000000000E+00 0. -1.
        -11    1    4    4    0    0  0.87087060647E-02  0.35480403223E-01 -0.35729246569E-02  0.36711408115E-01  0.51100000000E-03 0.  1.
         11    1    4    4    0    0  0.77876354338E-02  0.93239002036E-01  0.17884624670E-01  0.95259013678E-01  0.51100000000E-03 0. -1.
</event>
<event>
 8    1  0.5489035E+004  0.1043930E+01  0.7957747E-01            NaN
         13   -1    0    0    0    0  0.00000000000E+00  0.00000000000E+00  0.74505805969E-08  0.10566000000E+00  0.10566000000E+00 0. -1.
     999900   -1    0    0    0    0 -0.00000000000E+00 -0.00000000000E+00 -0.74505805969E-08  0.93827000000E+00  0.93827000000E+00 0.  1.
     999902    2    1    2    0    0  0.12884973645E-01  0.49337959093E-02 -0.17082699368E-01  0.10219713228E+01  0.10217353870E+01 0.  0.
     999903    2    3    3    0    0  0.21094072805E-01 -0.55750734803E-01 -0.11843817020E+00  0.13403949372E+00  0.19643863631E-01 0.  0.
         14    1    1    2    0    0 -0.12884973645E-01 -0.49337959093E-02  0.17082699368E-01  0.21958677228E-01  0.00000000000E+00 0. -1.
     999901    1    3    3    0    0 -0.82090991596E-02  0.60684530713E-01  0.10135547083E+00  0.88793182905E+00  0.88000000000E+00 0.  1.
        -11    1    4    4    0    0  0.85812124365E-03 -0.78614914676E-03 -0.15900698210E-01  0.15951417715E-01  0.51100000000E-03 0. -1.
         11    1    4    4    0    0  0.20235951561E-01 -0.54964585657E-01 -0.10253747199E+00  0.11808807601E+00  0.51100000000E-03 0.  1.
</event>
<event>
 8    1  0.5489035E+004  0.1043930E+01  0.7957747E-01            NaN
         13   -1    0    0    0    0  0.00000000000E+00  0.00000000000E+00  0.74505805969E-08  0.10566000000E+00  0.10566000000E+00 0. -1.
     999900   -1    0    0    0    0 -0.00000000000E+00 -0.00000000000E+00 -0.74505805969E-08  0.93827000000E+00  0.93827000000E+00 0. -1.
     999902    2    1    2    0    0  0.18787221464E-01 -0.11478672014E-01 -0.82064564599E-02  0.10204339252E+01  0.10201633841E+01 0.  0.
     999903    2    3    3    0    0  0.12392619256E-01  0.12691126825E+00 -0.12072405619E-01  0.12958735480E+00  0.19674667059E-01 0.  0.
         14    1    1    2    0    0 -0.18787221464E-01  0.11478672014E-01  0.82064564599E-02  0.23496074761E-01  0.00000000000E+00 0.  1.
     999901    1    3    3    0    0  0.63946022079E-02 -0.13838994027E+00  0.38659491590E-02  0.89084657044E+00  0.88000000000E+00 0. -1.
        -11    1    4    4    0    0  0.63242662995E-02  0.58586094672E-01 -0.15409822164E-01  0.60910184479E-01  0.51100000000E-03 0.  1.
         11    1    4    4    0    0  0.60683529567E-02  0.68325173583E-01  0.33374165454E-02  0.68677170318E-01  0.51100000000E-03 0. -1.
</event>
<event>
 8    1  0.5489035E+004  0.1043930E+01  0.7957747E-01            NaN
         13   -1    0    0    0    0  0.00000000000E+00  0.00000000000E+00  0.74505805969E-08  0.10566000000E+00  0.10566000000E+00 0. -1.
     999900   -1    0    0    0    0 -0.00000000000E+00 -0.00000000000E+00 -0.74505805969E-08  0.93827000000E+00  0.93827000000E+00 0. -1.
     999902    2    1    2    0    0 -0.13188139666E-01  0.18840123104E-02  0.19138446432E-01  0.10206114095E+01  0.10203449870E+01 0.  0.
     999903    2    3    3    0    0  0.76491181524E-01  0.68738839494E-01  0.80807074529E-01  0.13138985768E+00  0.12553186874E-01 0.  0.
         14    1    1    2    0    0  0.13188139666E-01 -0.18840123104E-02 -0.19138446432E-01  0.23318590482E-01  0.00000000000E+00 0.  1.
     999901    1    3    3    0    0 -0.89679321190E-01 -0.66854827184E-01 -0.61668628097E-01  0.88922155184E+00  0.88000000000E+00 0. -1.
        -11    1    4    4    0    0  0.57054303165E-01  0.57627163171E-01  0.60739740946E-01  0.10131959680E+00  0.51100000000E-03 0.  1.
         11    1    4    4    0    0  0.19436878359E-01  0.11111676323E-01  0.20067333583E-01  0.30070260876E-01  0.51100000000E-03 0. -1.
</event>
<event>
 7    1  0.5489035E+004  0.1043930E+01  0.7957747E-01            NaN
         13   -1    0    0    0    0  0.00000000000E+00  0.00000000000E+00  0.74505805969E-08  0.10566000000E+00  0.10566000000E+00 0. -1.
     999900   -1    0    0    0    0 -0.00000000000E+00 -0.00000000000E+00 -0.74505805969E-08  0.93827000000E+00  0.93827000000E+00 0. -1.
     999903    2    1    2    0    0  0.87914910667E-01 -0.27669075875E-01  0.27495334069E-01  0.97940109046E-01  0.18484109037E-01 0.  0.
         14    1    1    2    0    0 -0.43458834212E-01  0.47195835093E-01 -0.52362546620E-02  0.64370299705E-01  0.00000000000E+00 0.  1.
     999901    1    1    2    0    0 -0.44456076456E-01 -0.19526759218E-01 -0.22259079407E-01  0.88161959125E+00  0.88000000000E+00 0. -1.
        -11    1    3    3    0    0  0.22270389213E-01 -0.14406730199E-01  0.33121685072E-02  0.26734915222E-01  0.51100000000E-03 0. -1.
         11    1    3    3    0    0  0.65644521455E-01 -0.13262345676E-01  0.24183165562E-01  0.71205193823E-01  0.51100000000E-03 0.  1.
</event>
<event>
 8    1  0.5489035E+004  0.1043930E+01  0.7957747E-01            NaN
         13   -1    0    0    0    0  0.00000000000E+00  0.00000000000E+00  0.74505805969E-08  0.10566000000E+00  0.10566000000E+00 0. -1.
     999900   -1    0    0    0    0 -0.00000000000E+00 -0.00000000000E+00 -0.74505805969E-08  0.93827000000E+00  0.93827000000E+00 0.  1.
     999902    2    1    2    0    0 -0.18798199809E-01  0.13266796641E-01  0.41914021252E-02  0.10205430793E+01  0.10202750750E+01 0.  0.
     999903    2    3    3    0    0  0.77470962480E-01 -0.83096197862E-01 -0.55756023468E-01  0.12804810890E+00  0.19515530031E-01 0.  0.
         14    1    1    2    0    0  0.18798199809E-01 -0.13266796641E-01 -0.41914021252E-02  0.23386920724E-01  0.00000000000E+00 0.  1.
     999901    1    3    3    0    0 -0.96269162289E-01  0.96362994502E-01  0.59947425593E-01  0.89249497038E+00  0.88000000000E+00 0.  1.
        -11    1    4    4    0    0  0.48986247190E-01 -0.65043089793E-01 -0.42018247133E-01  0.91629963204E-01  0.51100000000E-03 0.  1.
         11    1    4    4    0    0  0.28484715290E-01 -0.18053108069E-01 -0.13737776335E-01  0.36418145693E-01  0.51100000000E-03 0. -1.
</event>
<event>
 8    1  0.5489035E+004  0.1043930E+01  0.7957747E-01            NaN
         13   -1    0    0    0    0  0.00000000000E+00  0.00000000000E+00  0.74505805969E-08  0.10566000000E+00  0.10566000000E+00 0.  1.
     999900   -1    0    0    0    0 -0.00000000000E+00 -0.00000000000E+00 -0.74505805969E-08  0.93827000000E+00  0.93827000000E+00 0. -1.
     999902    2    1    2    0    0 -0.76099477416E-02 -0.78399615624E-02  0.23629716971E-01  0.10178965633E+01  0.10175635969E+01 0.  0.
     999903    2    3    3    0    0  0.71600795486E-01 -0.90189825854E-01 -0.50608569173E-01  0.12740952515E+00  0.20275138071E-01 0.  0.
         14    1    1    2    0    0  0.76099477416E-02  0.78399615624E-02 -0.23629716971E-01  0.26033436693E-01  0.00000000000E+00 0. -1.
     999901    1    3    3    0    0 -0.79210743228E-01  0.82349864292E-01  0.74238286144E-01  0.89048703815E+00  0.88000000000E+00 0.  1.
        -11    1    4    4    0    0  0.37689567693E-01 -0.35698264145E-01 -0.15138708487E-01  0.54076900721E-01  0.51100000000E-03 0. -1.
         11    1    4    4    0    0  0.33911227793E-01 -0.54491561709E-01 -0.35469860685E-01  0.73332624432E-01  0.51100000000E-03 0.  1.
</event>
<event>
 8    1  0.5489035E+004  0.1043930E+01  0.7957747E-01            NaN
         13   -1    0    0    0    0  0.00000000000E+00  0.00000000000E+00  0.74505805969E-08  0.10566000000E+00  0.10566000000E+00 0.  1.
     999900   -1    0    0    0    0 -0.00000000000E+00 -0.00000000000E+00 -0.74505805969E-08  0.93827000000E+00  0.93827000000E+00 0. -1.
     999902    2    1    2    0    0  0.43085410141E-02  0.23755610953E-01 -0.77377254107E-02  0.10185771901E+01  0.10182616202E+01 0.  0.
     999903    2    3    3    0    0  0.21719413874E-01  0.95578924521E-01 -0.86137692356E-01  0.13200610905E+00  0.19971154949E-01 0.  0.
         14    1    1    2    0    0 -0.43085410141E-02 -0.23755610953E-01  0.77377254107E-02  0.25352809942E-01  0.00000000000E+00 0.  1.
     999901    1    3    3    0    0 -0.17410872860E-01 -0.71823313568E-01  0.78399966945E-01  0.88657108101E+00  0.88000000000E+00 0.  1.
        -11    1    4    4    0    0  0.35469790519E-03  0.82895295499E-02 -0.15918639448E-01  0.17958460782E-01  0.51100000000E-03 0. -1.
         11    1    4    4    0    0  0.21364715969E-01  0.87289394971E-01 -0.70219052908E-01  0.11404764827E+00  0.51100000000E-03 0.  1.
</event>
<event>
 8    1  0.5489035E+004  0.1043930E+01  0.7957747E-01            NaN
         13   -1    0    0    0    0  0.00000000000E+00  0.00000000000E+00  0.74505805969E-08  0.10566000000E+00  0.10566000000E+00 0. -1.
     999900   -1    0    0    0    0 -0.00000000000E+00 -0.00000000000E+00 -0.74505805969E-08  0.93827000000E+00  0.93827000000E+00 0. -1.
     999902    2    1    2    0    0 -0.16736703502E-02  0.22660524953E-01 -0.44139076832E-02  0.10207830100E+01  0.10205205390E+01 0.  0.
     999903    2    3    3    0    0  0.11014340616E+00  0.46222146435E-01  0.51985110479E-01  0.13160414284E+00  0.18685340754E-01 0.  0.
         14    1    1    2    0    0  0.16736703502E-02 -0.22660524953E-01  0.44139076832E-02  0.23146989969E-01  0.00000000000E+00 0. -1.
     999901    1    3    3    0    0 -0.11181707651E+00 -0.23561621482E-01 -0.56399018162E-01  0.88917886719E+00  0.88000000000E+00 0. -1.
        -11    1    4    4    0    0  0.72916188399E-01  0.26765966022E-01  0.24679949846E-01  0.81501831348E-01  0.51100000000E-03 0.  1.
         11    1    4    4    0    0  0.37227217765E-01  0.19456180414E-01  0.27305160632E-01  0.50102311493E-01  0.51100000000E-03 0. -1.
</event>
<event>
 8    1  0.5489035E+004  0.1043930E+01  0.7957747E-01            NaN
         13   -1    0    0    0    0  0.00000000000E+00  0.00000000000E+00  0.74505805969E-08  0.10566000000E+00  0.10566000000E+00 0. -1.
     999900   -1    0    0    0    0 -0.00000000000E+00 -0.00000000000E+00 -0.74505805969E-08  0.93827000000E+00  0.93827000000E+00 0. -1.
     999902    2    1    2    0    0 -0.22516514176E-01 -0.63053408722E-02  0.40549102215E-02  0.10201983117E+01  0.10199222530E+01 0.  0.
     999903    2    3    3    0    0  0.44273700617E-01  0.11909734880E+00  0.65326224133E-02  0.12879890263E+00  0.20053506112E-01 0.  0.
         14    1    1    2    0    0  0.22516514176E-01  0.63053408722E-02 -0.40549102215E-02  0.23731688331E-01  0.00000000000E+00 0. -1.
     999901    1    3    3    0    0 -0.66790214793E-01 -0.12540268967E+00 -0.24777121919E-02  0.89139940903E+00  0.88000000000E+00 0.  1.
        -11    1    4    4    0    0  0.31510634678E-01  0.85252175416E-01  0.13708789006E-01  0.91918689764E-01  0.51100000000E-03 0.  1.
         11    1    4    4    0    0  0.12763065939E-01  0.33845173382E-01 -0.71761665930E-02  0.36880212871E-01  0.51100000000E-03 0. -1.
</event>
<event>
 8    1  0.5489035E+004  0.1043930E+01  0.7957747E-01            NaN
         13   -1    0    0    0    0  0.00000000000E+00  0.00000000000E+00  0.74505805969E-08  0.10566000000E+00  0.10566000000E+00 0. -1.
     999900   -1    0    0    0    0 -0.00000000000E+00 -0.00000000000E+00 -0.74505805969E-08  0.93827000000E+00  0.93827000000E+00 0.  1.
     999902    2    1    2    0    0 -0.14315402632E-01  0.16539255717E-01 -0.63997976454E-02  0.10211388802E+01  0.10208845074E+01 0.  0.
     999903    2    3    3    0    0 -0.69477180267E-01 -0.32543028122E-01 -0.10604277213E+00  0.13244286092E+00  0.20246348608E-01 0.  0.
         14    1    1    2    0    0  0.14315402632E-01 -0.16539255717E-01  0.63997976454E-02  0.22791119808E-01  0.00000000000E+00 0. -1.
     999901    1    3    3    0    0  0.55161777635E-01  0.49082283839E-01  0.99642974483E-01  0.88869601927E+00  0.88000000000E+00 0. -1.
        -11    1    4    4    0    0 -0.87052247593E-02  0.24528108632E-02 -0.14970494273E-01  0.17497829551E-01  0.51100000000E-03 0. -1.
         11    1    4    4    0    0 -0.60771955508E-01 -0.34995838985E-01 -0.91072277855E-01  0.11494503137E+00  0.51100000000E-03 0.  1.
</event>
<event>
 8    1  0.5489035E+004  0.1043930E+01  0.7957747E-01            NaN
         13   -1    0    0    0    0  0.00000000000E+00  0.00000000000E+00  0.74505805969E-08  0.10566000000E+00  0.10566000000E+00 0.  1.
     999900   -1    0    0    0    0 -0.00000000000E+00 -0.00000000000E+00 -0.74505805969E-08  0.93827000000E+00  0.93827000000E+00 0. -1.
     999902    2    1    2    0    0  0.15747991464E-01  0.18005548551E-01 -0.41648571363E-02  0.10196494512E+01  0.10193603182E+01 0.  0.
     999903    2    3    3    0    0 -0.24421828657E-02  0.12745929767E+00  0.27950473631E-01  0.13210091728E+00  0.20434934558E-01 0.  0.
         14    1    1    2    0    0 -0.15747991464E-01 -0.18005548551E-01  0.41648571363E-02  0.24280548773E-01  0.00000000000E+00 0. -1.
     999901    1    3    3    0    0  0.18190174330E-01 -0.10945374912E+00 -0.32115330767E-01  0.88754853395E+00  0.88000000000E+00 0.  1.
        -11    1    4    4    0    0  0.11585783391E-02  0.37034652121E-01 -0.10465749176E-02  0.37071069604E-01  0.51100000000E-03 0. -1.
         11    1    4    4    0    0 -0.36007612048E-02  0.90424645550E-01  0.28997048549E-01  0.95029847677E-01  0.51100000000E-03 0.  1.
</event>
<event>
 8    1  0.5489035E+004  0.1043930E+01  0.7957747E-01            NaN
         13   -1    0    0    0    0  0.00000000000E+00  0.00000000000E+00  0.74505805969E-08  0.10566000000E+00  0.10566000000E+00 0.  1.
     999900   -1    0    0    0    0 -0.00000000000E+00 -0.00000000000E+00 -0.74505805969E-08  0.93827000000E+00  0.93827000000E+00 0.  1.
     999902    2    1    2    0    0  0.77995972886E-02 -0.44958332731E-02  0.22588402008E-01  0.10196137063E+01  0.10193237110E+01 0.  0.
     999903    2    3    3    0    0  0.89359557265E-02 -0.34336142652E-02  0.13109612740E+00  0.13294784696E+00  0.19932244786E-01 0.  0.
         14    1    1    2    0    0 -0.77995972886E-02  0.44958332731E-02 -0.22588402008E-01  0.24316293713E-01  0.00000000000E+00 0. -1.
     999901    1    3    3    0    0 -0.11363584379E-02 -0.10622190079E-02 -0.10850772539E+00  0.88666585932E+00  0.88000000000E+00 0.  1.
        -11    1    4    4    0    0  0.64152487537E-02 -0.74987655399E-02  0.27182562018E-01  0.28922996042E-01  0.51100000000E-03 0.  1.
         11    1    4    4    0    0  0.25207069728E-02  0.40651512747E-02  0.10391356538E+00  0.10402485092E+00  0.51100000000E-03 0. -1.
</event>
<event>
 8    1  0.5489035E+004  0.1043930E+01  0.7957747E-01            NaN
         13   -1    0    0    0    0  0.00000000000E+00  0.00000000000E+00  0.74505805969E-08  0.10566000000E+00  0.10566000000E+00 0.  1.
     999900   -1    0    0    0    0 -0.00000000000E+00 -0.00000000000E+00 -0.74505805969E-08  0.93827000000E+00  0.93827000000E+00 0. -1.
     999902    2    1    2    0    0 -0.41879457086E-02 -0.23641231981E-02  0.21652611349E-01  0.10217497487E+01  0.10215089748E+01 0.  0.
     999903    2    3    3    0    0  0.56647634035E-01 -0.11728842713E+00  0.94508191979E-02  0.13211080674E+00  0.19960403095E-01 0.  0.
         14    1    1    2    0    0  0.41879457086E-02  0.23641231981E-02 -0.21652611349E-01  0.22180251261E-01  0.00000000000E+00 0. -1.
     999901    1    3    3    0    0 -0.60835579744E-01  0.11492430393E+00  0.12201792151E-01  0.88963894200E+00  0.88000000000E+00 0.  1.
        -11    1    4    4    0    0  0.55817099977E-01 -0.10559945307E+00  0.49498336656E-02  0.11954729237E+00  0.51100000000E-03 0.  1.
         11    1    4    4    0    0  0.83053405767E-03 -0.11688974060E-01  0.45009855323E-02  0.12563514363E-01  0.51100000000E-03 0. -1.
</event>
<event>
 8    1  0.5489035E+004  0.1043930E+01  0.7957747E-01            NaN
         13   -1    0    0    0    0  0.00000000000E+00  0.00000000000E+00  0.74505805969E-08  0.10566000000E+00  0.10566000000E+00 0. -1.
     999900   -1    0    0    0    0 -0.00000000000E+00 -0.00000000000E+00 -0.74505805969E-08  0.93827000000E+00  0.93827000000E+00 0. -1.
     999902    2    1    2    0    0  0.14411930298E-01  0.74717566101E-02  0.21334683702E-02  0.10275567728E+01  0.10274263179E+01 0.  0.
     999903    2    3    3    0    0 -0.33054116726E-02 -0.52399589359E-01 -0.12422267867E+00  0.13634167072E+00  0.20028344124E-01 0.  0.
         14    1    1    2    0    0 -0.14411930298E-01 -0.74717566101E-02 -0.21334683702E-02  0.16373227203E-01  0.00000000000E+00 0.  1.
     999901    1    3    3    0    0  0.17717341971E-01  0.59871345969E-01  0.12635614704E+00  0.89121510208E+00  0.88000000000E+00 0.  1.
        -11    1    4    4    0    0  0.67304332939E-02 -0.25079867418E-01 -0.45235530636E-01  0.52161411359E-01  0.51100000000E-03 0.  1.
         11    1    4    4    0    0 -0.10035844966E-01 -0.27319721940E-01 -0.78987148031E-01  0.84180259361E-01  0.51100000000E-03 0. -1.
</event>
<event>
 8    1  0.5489035E+004  0.1043930E+01  0.7957747E-01            NaN
         13   -1    0    0    0    0  0.00000000000E+00  0.00000000000E+00  0.74505805969E-08  0.10566000000E+00  0.10566000000E+00 0. -1.
     999900   -1    0    0    0    0 -0.00000000000E+00 -0.00000000000E+00 -0.74505805969E-08  0.93827000000E+00  0.93827000000E+00 0.  1.
     999902    2    1    2    0    0 -0.40403777930E-02 -0.92713793250E-03 -0.20906784838E-01  0.10226162042E+01  0.10223940646E+01 0.  0.
     999903    2    3    3    0    0  0.10936596963E+00  0.66818197267E-01 -0.28181882356E-01  0.13272668462E+00  0.19914003101E-01 0.  0.
         14    1    1    2    0    0  0.40403777930E-02  0.92713793250E-03  0.20906784838E-01  0.21313795760E-01  0.00000000000E+00 0. -1.
     999901    1    3    3    0    0 -0.11340634742E+00 -0.67745335199E-01  0.72750975177E-02  0.88988951962E+00  0.88000000000E+00 0.  1.
        -11    1    4    4    0    0  0.61140378821E-01  0.26216255530E-01 -0.11490396614E-01  0.67510949569E-01  0.51100000000E-03 0.  1.
         11    1    4    4    0    0  0.48225590808E-01  0.40601941736E-01 -0.16691485741E-01  0.65215735055E-01  0.51100000000E-03 0. -1.
</event>
<event>
 8    1  0.5489035E+004  0.1043930E+01  0.7957747E-01            NaN
         13   -1    0    0    0    0  0.00000000000E+00  0.00000000000E+00  0.74505805969E-08  0.10566000000E+00  0.10566000000E+00 0.  1.
     999900   -1    0    0    0    0 -0.00000000000E+00 -0.00000000000E+00 -0.74505805969E-08  0.93827000000E+00  0.93827000000E+00 0. -1.
     999902    2    1    2    0    0  0.26517878637E-03  0.10974326878E-01 -0.21276915586E-01  0.10199881265E+01  0.10197070976E+01 0.  0.
     999903    2    3    3    0    0  0.26234742751E-01  0.11910514555E+00  0.42453112343E-01  0.13070290304E+00  0.20166424848E-01 0.  0.
         14    1    1    2    0    0 -0.26517878637E-03 -0.10974326878E-01  0.21276915586E-01  0.23941873508E-01  0.00000000000E+00 0.  1.
     999901    1    3    3    0    0 -0.25969563964E-01 -0.10813081867E+00 -0.63730027929E-01  0.88928522346E+00  0.88000000000E+00 0. -1.
        -11    1    4    4    0    0  0.98438625503E-02  0.86550655657E-01  0.28150750714E-01  0.91545854693E-01  0.51100000000E-03 0. -1.
         11    1    4    4    0    0  0.16390880200E-01  0.32554489890E-01  0.14302361629E-01  0.39157048343E-01  0.51100000000E-03 0.  1.
</event>
<event>
 8    1  0.5489035E+004  0.1043930E+01  0.7957747E-01            NaN
         13   -1    0    0    0    0  0.00000000000E+00  0.00000000000E+00  0.74505805969E-08  0.10566000000E+00  0.10566000000E+00 0.  1.
     999900   -1    0    0    0    0 -0.00000000000E+00 -0.00000000000E+00 -0.74505805969E-08  0.93827000000E+00  0.93827000000E+00 0. -1.
     999902    2    1    2    0    0 -0.20535452360E-01 -0.37321208643E-02 -0.15160944773E-01  0.10181329502E+01  0.10178060801E+01 0.  0.
     999903    2    3    3    0    0  0.32559091353E-01 -0.12241436112E+00 -0.58619391080E-02  0.12853136738E+00  0.20989993606E-01 0.  0.
         14    1    1    2    0    0  0.20535452360E-01  0.37321208643E-02  0.15160944773E-01  0.25797049757E-01  0.00000000000E+00 0.  1.
     999901    1    3    3    0    0 -0.53094543713E-01  0.11868224026E+00 -0.92990056650E-02  0.88960158286E+00  0.88000000000E+00 0. -1.
        -11    1    4    4    0    0  0.18786921787E-01 -0.10224138456E+00 -0.40541521189E-02  0.10403339088E+00  0.51100000000E-03 0.  1.
         11    1    4    4    0    0  0.13772169566E-01 -0.20172976565E-01 -0.18077869892E-02  0.24497976505E-01  0.51100000000E-03 0. -1.
</event>
<event>
 8    1  0.5489035E+004  0.1043930E+01  0.7957747E-01            NaN
         13   -1    0    0    0    0  0.00000000000E+00  0.00000000000E+00  0.74505805969E-08  0.10566000000E+00  0.10566000000E+00 0.  1.
     999900   -1    0    0    0    0 -0.00000000000E+00 -0.00000000000E+00 -0.74505805969E-08  0.93827000000E+00  0.93827000000E+00 0. -1.
     999902    2    1    2    0    0  0.17517940217E-01  0.49439636249E-02  0.14179225088E-01  0.10208568245E+01  0.10205960438E+01 0.  0.
     999903    2    3    3    0    0  0.92833872895E-01 -0.81985826359E-02  0.94244059898E-01  0.13392075347E+00  0.19169785338E-01 0.  0.
         14    1    1    2    0    0 -0.17517940217E-01 -0.49439636249E-02 -0.14179225088E-01  0.23073175548E-01  0.00000000000E+00 0.  1.
     999901    1    3    3    0    0 -0.75315932678E-01  0.13142546261E-01 -0.80064834810E-01  0.88693607098E+00  0.88000000000E+00 0. -1.
        -11    1    4    4    0    0  0.57235736777E-01 -0.13591777224E-01  0.63620258915E-01  0.86651396053E-01  0.51100000000E-03 0.  1.
         11    1    4    4    0    0  0.35598136118E-01  0.53931945879E-02  0.30623800983E-01  0.47269357417E-01  0.51100000000E-03 0. -1.
</event>
<event>
 7    1  0.5489035E+004  0.1043930E+01  0.7957747E-01            NaN
         13   -1    0    0    0    0  0.00000000000E+00  0.00000000000E+00  0.74505805969E-08  0.10566000000E+00  0.10566000000E+00 0. -1.
     999900   -1    0    0    0    0 -0.00000000000E+00 -0.00000000000E+00 -0.74505805969E-08  0.93827000000E+00  0.93827000000E+00 0. -1.
     999903    2    1    2    0    0 -0.67254952009E-01  0.31079919043E-01 -0.82083006992E-01  0.11229262395E+00  0.19565873835E-01 0.  0.
         14    1    1    2    0    0  0.22567122017E-01  0.25677435949E-01 -0.24797900626E-01  0.42231997212E-01  0.00000000000E+00 0.  1.
     999901    1    1    2    0    0  0.44687829992E-01 -0.56757354992E-01  0.10688090762E+00  0.88940537884E+00  0.88000000000E+00 0.  1.
        -11    1    3    3    0    0 -0.90315717613E-02  0.12577196418E-01 -0.18121178458E-01  0.23841002243E-01  0.51100000000E-03 0.  1.
         11    1    3    3    0    0 -0.58223380248E-01  0.18502722625E-01 -0.63961828534E-01  0.88451621706E-01  0.51100000000E-03 0. -1.
</event>
<event>
 8    1  0.5489035E+004  0.1043930E+01  0.7957747E-01            NaN
         13   -1    0    0    0    0  0.00000000000E+00  0.00000000000E+00  0.74505805969E-08  0.10566000000E+00  0.10566000000E+00 0.  1.
     999900   -1    0    0    0    0 -0.00000000000E+00 -0.00000000000E+00 -0.74505805969E-08  0.93827000000E+00  0.93827000000E+00 0.  1.
     999902    2    1    2    0    0  0.42828977744E-03 -0.39420902917E-02 -0.22216271342E-01  0.10213626293E+01  0.10211132818E+01 0.  0.
     999903    2    3    3    0    0 -0.12511035895E+00 -0.30153218122E-01  0.16964139687E-01  0.13120417141E+00  0.19103247899E-01 0.  0.
         14    1    1    2    0    0 -0.42828977744E-03  0.39420902917E-02  0.22216271342E-01  0.22567370701E-01  0.00000000000E+00 0.  1.
     999901    1    3    3    0    0  0.12553864873E+00  0.26211127830E-01 -0.39180411029E-01  0.89015845789E+00  0.88000000000E+00 0.  1.
        -11    1    4    4    0    0 -0.94880350972E-01 -0.30166327531E-01  0.91815398712E-02  0.99984249323E-01  0.51100000000E-03 0.  1.
         11    1    4    4    0    0 -0.30230007976E-01  0.13109409477E-04  0.77825998160E-02  0.31219922085E-01  0.51100000000E-03 0. -1.
</event>
<event>
 8    1  0.5489035E+004  0.1043930E+01  0.7957747E-01            NaN
         13   -1    0    0    0    0  0.00000000000E+00  0.00000000000E+00  0.74505805969E-08  0.10566000000E+00  0.10566000000E+00 0. -1.
     999900   -1    0    0    0    0 -0.00000000000E+00 -0.00000000000E+00 -0.74505805969E-08  0.93827000000E+00  0.93827000000E+00 0. -1.
     999902    2    1    2    0    0  0.23105743308E-01 -0.40263699930E-02 -0.29633898732E-03  0.10204741938E+01  0.10202045899E+01 0.  0.
     999903    2    3    3    0    0 -0.91817261473E-01 -0.82434402193E-01  0.31384453801E-01  0.12898174334E+00  0.20626827321E-01 0.  0.
         14    1    1    2    0    0 -0.23105743308E-01  0.40263699930E-02  0.29633898732E-03  0.23455806231E-01  0.00000000000E+00 0. -1.
     999901    1    3    3    0    0  0.11492300478E+00  0.78408032200E-01 -0.31680792788E-01  0.89149245043E+00  0.88000000000E+00 0. -1.
        -11    1    4    4    0    0 -0.42824985240E-01 -0.31107874034E-01  0.45819632122E-02  0.53131296762E-01  0.51100000000E-03 0. -1.
         11    1    4    4    0    0 -0.48992276233E-01 -0.51326528159E-01  0.26802490588E-01  0.75850446578E-01  0.51100000000E-03 0.  1.
</event>
<event>
 8    1  0.5489035E+004  0.1043930E+01  0.7957747E-01            NaN
         13   -1    0    0    0    0  0.00000000000E+00  0.00000000000E+00  0.74505805969E-08  0.10566000000E+00  0.10566000000E+00 0. -1.
     999900   -1    0    0    0    0 -0.00000000000E+00 -0.00000000000E+00 -0.74505805969E-08  0.93827000000E+00  0.93827000000E+00 0.  1.
     999902    2    1    2    0    0  0.68724898726E-02 -0.51609132807E-02 -0.22341173313E-01  0.10199927034E+01  0.10197117832E+01 0.  0.
     999903    2    3    3    0    0 -0.75619259260E-01  0.20764844660E-01  0.98546247603E-01  0.12752936964E+00  0.20073018163E-01 0.  0.
         14    1    1    2    0    0 -0.68724898726E-02  0.51609132807E-02  0.22341173313E-01  0.23937296588E-01  0.00000000000E+00 0. -1.
     999901    1    3    3    0    0  0.82491749133E-01 -0.25925757941E-01 -0.12088742092E+00  0.89246333378E+00  0.88000000000E+00 0. -1.
        -11    1    4    4    0    0 -0.56579716969E-01  0.24271391586E-01  0.75902455521E-01  0.97733355089E-01  0.51100000000E-03 0. -1.
         11    1    4    4    0    0 -0.19039542291E-01 -0.35065469261E-02  0.22643792083E-01  0.29796014547E-01  0.51100000000E-03 0.  1.
</event>
<event>
 8    1  0.5489035E+004  0.1043930E+01  0.7957747E-01            NaN
         13   -1    0    0    0    0  0.00000000000E+00  0.00000000000E+00  0.74505805969E-08  0.10566000000E+00  0.10566000000E+00 0.  1.
     999900   -1    0    0    0    0 -0.00000000000E+00 -0.00000000000E+00 -0.74505805969E-08  0.93827000000E+00  0.93827000000E+00 0.  1.
     999902    2    1    2    0    0 -0.11398318735E-01 -0.20481935674E-01 -0.43894941582E-02  0.10200825889E+01  0.10198037993E+01 0.  0.
     999903    2    3    3    0    0  0.90100146811E-01  0.48008432111E-01 -0.75627133866E-01  0.12875342952E+00  0.20859919148E-01 0.  0.
         14    1    1    2    0    0  0.11398318735E-01  0.20481935674E-01  0.43894941582E-02  0.23847411136E-01  0.00000000000E+00 0. -1.
     999901    1    3    3    0    0 -0.10149846555E+00 -0.68490367785E-01  0.71237639708E-01  0.89132915935E+00  0.88000000000E+00 0. -1.
        -11    1    4    4    0    0  0.77891890543E-01  0.40642156476E-01 -0.54936752687E-01  0.10362065148E+00  0.51100000000E-03 0.  1.
         11    1    4    4    0    0  0.12208256268E-01  0.73662756354E-02 -0.20690381179E-01  0.25132778043E-01  0.51100000000E-03 0. -1.
</event>
<event>
 8    1  0.5489035E+004  0.1043930E+01  0.7957747E-01            NaN
         13   -1    0    0    0    0  0.00000000000E+00  0.00000000000E+00  0.74505805969E-08  0.10566000000E+00  0.10566000000E+00 0.  1.
     999900   -1    0    0    0    0 -0.00000000000E+00 -0.00000000000E+00 -0.74505805969E-08  0.93827000000E+00  0.93827000000E+00 0. -1.
     999902    2    1    2    0    0 -0.27392049101E-02  0.20351961915E-01 -0.11614335562E-01  0.10203376625E+01  0.10200648740E+01 0.  0.
     999903    2    3    3    0    0 -0.57800616208E-01 -0.80729633902E-02  0.11383641357E+00  0.12928344091E+00  0.18692112383E-01 0.  0.
         14    1    1    2    0    0  0.27392049101E-02 -0.20351961915E-01  0.11614335562E-01  0.23592337482E-01  0.00000000000E+00 0. -1.
     999901    1    3    3    0    0  0.55061411298E-01  0.28424925305E-01 -0.12545074914E+00  0.89105422161E+00  0.88000000000E+00 0. -1.
        -11    1    4    4    0    0 -0.36955591032E-01 -0.14104287274E-01  0.74951141904E-01  0.84750111632E-01  0.51100000000E-03 0.  1.
         11    1    4    4    0    0 -0.20845025176E-01  0.60313238837E-02  0.38885271670E-01  0.44533329274E-01  0.51100000000E-03 0. -1.
</event>
<event>
 8    1  0.5489035E+004  0.1043930E+01  0.7957747E-01            NaN
         13   -1    0    0    0    0  0.00000000000E+00  0.00000000000E+00  0.74505805969E-08  0.10566000000E+00  0.10566000000E+00 0. -1.
     999900   -1    0    0    0    0 -0.00000000000E+00 -0.00000000000E+00 -0.74505805969E-08  0.93827000000E+00  0.93827000000E+00 0. -1.
     999902    2    1    2    0    0 -0.88338012728E-02  0.12833504620E-01  0.17963114006E-01  0.10201516832E+01  0.10198745258E+01 0.  0.
     999903    2    3    3    0    0  0.30974515122E-02 -0.42700829665E-01  0.12330917912E+00  0.13205021910E+00  0.19978779969E-01 0.  0.
         14    1    1    2    0    0  0.88338012728E-02 -0.12833504620E-01 -0.17963114006E-01  0.23778316815E-01  0.00000000000E+00 0.  1.
     999901    1    3    3    0    0 -0.11931252785E-01  0.55534334285E-01 -0.10534606511E+00  0.88810146409E+00  0.88000000000E+00 0. -1.
        -11    1    4    4    0    0  0.57310157528E-02 -0.56667876427E-02  0.40501016277E-01  0.41298310670E-01  0.51100000000E-03 0. -1.
         11    1    4    4    0    0 -0.26335642405E-02 -0.37034042023E-01  0.82808162842E-01  0.90751908429E-01  0.51100000000E-03 0.  1.
</event>
<event>
 8    1  0.5489035E+004  0.1043930E+01  0.7957747E-01            NaN
         13   -1    0    0    0    0  0.00000000000E+00  0.00000000000E+00  0.74505805969E-08  0.10566000000E+00  0.10566000000E+00 0.  1.
     999900   -1    0    0    0    0 -0.00000000000E+00 -0.00000000000E+00 -0.74505805969E-08  0.93827000000E+00  0.93827000000E+00 0.  1.
     999902    2    1    2    0    0 -0.23042273523E-01 -0.36860552738E-02  0.40390416860E-02  0.10202477866E+01  0.10199728912E+01 0.  0.
     999903    2    3    3    0    0 -0.80403992063E-01  0.67853922975E-01 -0.76922308578E-01  0.13178671518E+00  0.19538166176E-01 0.  0.
         14    1    1    2    0    0  0.23042273523E-01  0.36860552738E-02 -0.40390416860E-02  0.23682213375E-01  0.00000000000E+00 0.  1.
     999901    1    3    3    0    0  0.57361718541E-01 -0.71539978249E-01  0.80961350264E-01  0.88846107145E+00  0.88000000000E+00 0. -1.
        -11    1    4    4    0    0 -0.24169848569E-01  0.22997614356E-01 -0.13887034521E-01  0.36141149604E-01  0.51100000000E-03 0. -1.
         11    1    4    4    0    0 -0.56234143495E-01  0.44856308619E-01 -0.63035274057E-01  0.95645565574E-01  0.51100000000E-03 0.  1.
</event>
<event>
 8    1  0.5489035E+004  0.1043930E+01  0.7957747E-01            NaN
         13   -1    0    0    0    0  0.00000000000E+00  0.00000000000E+00  0.74505805969E-08  0.10566000000E+00  0.10566000000E+00 0.  1.
     999900   -1    0    0    0    0 -0.00000000000E+00 -0.00000000000E+00 -0.74505805969E-08  0.93827000000E+00  0.93827000000E+00 0. -1.
     999902    2    1    2    0    0  0.37038354095E-02 -0.21946265679E-01 -0.83493747759E-02  0.10201588193E+01  0.10198818302E+01 0.  0.
     999903    2    3    3    0    0 -0.74699767812E-01 -0.10011785361E+00 -0.40550222898E-01  0.13263709178E+00  0.18564418001E-01 0.  0.
         14    1    1    2    0    0 -0.37038354095E-02  0.21946265679E-01  0.83493747759E-02  0.23771180727E-01  0.00000000000E+00 0.  1.
     999901    1    3    3    0    0  0.78403603221E-01  0.78171587930E-01  0.32200848122E-01  0.88752172750E+00  0.88000000000E+00 0.  1.
        -11    1    4    4    0    0 -0.68498855131E-01 -0.94685107397E-01 -0.32973599552E-01  0.12142850615E+00  0.51100000000E-03 0. -1.
         11    1    4    4    0    0 -0.62009126809E-02 -0.54327462116E-02 -0.75766233454E-02  0.11208585629E-01  0.51100000000E-03 0.  1.
</event>
<event>
 8    1  0.5489035E+004  0.1043930E+01  0.7957747E-01            NaN
         13   -1    0    0    0    0  0.00000000000E+00  0.00000000000E+00  0.74505805969E-08  0.10566000000E+00  0.10566000000E+00 0. -1.
     999900   -1    0    0    0    0 -0.00000000000E+00 -0.00000000000E+00 -0.74505805969E-08  0.93827000000E+00  0.93827000000E+00 0. -1.
     999902    2    1    2    0    0  0.13250197144E-01 -0.85729354234E-04  0.15949050808E-01  0.10231948295E+01  0.10229847075E+01 0.  0.
     999903    2    3    3    0    0  0.88348411232E-02 -0.11590725123E+00 -0.59855859877E-01  0.13236347353E+00  0.20611158575E-01 0.  0.
         14    1    1    2    0    0 -0.13250197144E-01  0.85729354234E-04 -0.15949050808E-01  0.20735170498E-01  0.00000000000E+00 0.  1.
     999901    1    3    3    0    0  0.44153560212E-02  0.11582152188E+00  0.75804910685E-01  0.89083135597E+00  0.88000000000E+00 0.  1.
        -11    1    4    4    0    0  0.11989922743E-02 -0.65700698147E-01 -0.44287669820E-01  0.79244420236E-01  0.51100000000E-03 0.  1.
         11    1    4    4    0    0  0.76358488489E-02 -0.50206553084E-01 -0.15568190057E-01  0.53119053295E-01  0.51100000000E-03 0. -1.
</event>
<event>
 8    1  0.5489035E+004  0.1043930E+01  0.7957747E-01            NaN
         13   -1    0    0    0    0  0.00000000000E+00  0.00000000000E+00  0.74505805969E-08  0.10566000000E+00  0.10566000000E+00 0. -1.
     999900   -1    0    0    0    0 -0.00000000000E+00 -0.00000000000E+00 -0.74505805969E-08  0.93827000000E+00  0.93827000000E+00 0. -1.
     999902    2    1    2    0    0  0.10909081935E-01  0.41192832585E-02  0.21091178395E-01  0.10198299094E+01  0.10195451092E+01 0.  0.
     999903    2    3    3    0    0  0.16132200424E-01  0.97916994710E-01 -0.79927853032E-01  0.12908295519E+00  0.20638844106E-01 0.  0.
         14    1    1    2    0    0 -0.10909081935E-01 -0.41192832585E-02 -0.21091178395E-01  0.24100090650E-01  0.00000000000E+00 0.  1.
     999901    1    3    3    0    0 -0.52231184895E-02 -0.93797711451E-01  0.10101903143E+00  0.89074695416E+00  0.88000000000E+00 0.  1.
        -11    1    4    4    0    0  0.81770959099E-02  0.88645676230E-01 -0.72170907939E-01  0.11460288777E+00  0.51100000000E-03 0.  1.
         11    1    4    4    0    0  0.79551045146E-02  0.92713184799E-02 -0.77569450926E-02  0.14480067416E-01  0.51100000000E-03 0. -1.
</event>
<event>
 8    1  0.5489035E+004  0.1043930E+01  0.7957747E-01            NaN
         13   -1    0    0    0    0  0.00000000000E+00  0.00000000000E+00  0.74505805969E-08  0.10566000000E+00  0.10566000000E+00 0. -1.
     999900   -1    0    0    0    0 -0.00000000000E+00 -0.00000000000E+00 -0.74505805969E-08  0.93827000000E+00  0.93827000000E+00 0. -1.
     999902    2    1    2    0    0  0.47967157044E-02 -0.51149968558E-02 -0.22898110047E-01  0.10199822419E+01  0.10197010732E+01 0.  0.
     999903    2    3    3    0    0 -0.12389638005E+00 -0.31813123298E-01  0.66503856786E-02  0.12973069517E+00  0.20577605222E-01 0.  0.
         14    1    1    2    0    0 -0.47967157044E-02  0.51149968558E-02  0.22898110047E-01  0.23947758102E-01  0.00000000000E+00 0. -1.
     999901    1    3    3    0    0  0.12869309575E+00  0.26698126442E-01 -0.29548495726E-01  0.89025154673E+00  0.88000000000E+00 0. -1.
        -11    1    4    4    0    0 -0.15271457543E-01 -0.17856223313E-02  0.73016538450E-02  0.17028832387E-01  0.51100000000E-03 0.  1.
         11    1    4    4    0    0 -0.10862492251E+00 -0.30027500967E-01 -0.65126816638E-03  0.11270186278E+00  0.51100000000E-03 0. -1.
</event>
<event>
 8    1  0.5489035E+004  0.1043930E+01  0.7957747E-01            NaN
         13   -1    0    0    0    0  0.00000000000E+00  0.00000000000E+00  0.74505805969E-08  0.10566000000E+00  0.10566000000E+00 0. -1.
     999900   -1    0    0    0    0 -0.00000000000E+00 -0.00000000000E+00 -0.74505805969E-08  0.93827000000E+00  0.93827000000E+00 0.  1.
     999902    2    1    2    0    0  0.45936041468E-02 -0.20295625684E-01 -0.32987955765E-02  0.10228611682E+01  0.10226441579E+01 0.  0.
     999903    2    3    3    0    0  0.66524486721E-01  0.45540496263E-01  0.10253921414E+00  0.13192261058E+00  0.19744381776E-01 0.  0.
         14    1    1    2    0    0 -0.45936041468E-02  0.20295625684E-01  0.32987955765E-02  0.21068831796E-01  0.00000000000E+00 0. -1.
     999901    1    3    3    0    0 -0.61930882574E-01 -0.65836121947E-01 -0.10583800971E+00  0.89093855763E+00  0.88000000000E+00 0.  1.
        -11    1    4    4    0    0  0.51349210026E-01  0.44135955771E-01  0.85256826883E-01  0.10887475195E+00  0.51100000000E-03 0. -1.
         11    1    4    4    0    0  0.15175276696E-01  0.14045404918E-02  0.17282387255E-01  0.23047858621E-01  0.51100000000E-03 0.  1.
</event>
<event>
 8    1  0.5489035E+004  0.1043930E+01  0.7957747E-01            NaN
         13   -1    0    0    0    0  0.00000000000E+00  0.00000000000E+00  0.74505805969E-08  0.10566000000E+00  0.10566000000E+00 0.  1.
     999900   -1    0    0    0    0 -0.00000000000E+00 -0.00000000000E+00 -0.74505805969E-08  0.93827000000E+00  0.93827000000E+00 0. -1.
     999902    2    1    2    0    0  0.34413238830E-02  0.18242959776E-03  0.23271863255E-01  0.10204043627E+01  0.10201331324E+01 0.  0.
     999903    2    3    3    0    0  0.67212120128E-01 -0.10799279351E+00 -0.21056605298E-01  0.13038548287E+00  0.19418572937E-01 0.  0.
         14    1    1    2    0    0 -0.34413238830E-02 -0.18242959776E-03 -0.23271863255E-01  0.23525637292E-01  0.00000000000E+00 0. -1.
     999901    1    3    3    0    0 -0.63770796245E-01  0.10817522310E+00  0.44328468553E-01  0.89001887984E+00  0.88000000000E+00 0.  1.
        -11    1    4    4    0    0  0.24943279462E-01 -0.57590117342E-01 -0.13205448423E-01  0.64136056901E-01  0.51100000000E-03 0.  1.
         11    1    4    4    0    0  0.42268840667E-01 -0.50402676164E-01 -0.78511568750E-02  0.66249425967E-01  0.51100000000E-03 0. -1.
</event>
<event>
 8    1  0.5489035E+004  0.1043930E+01  0.7957747E-01            NaN
         13   -1    0    0    0    0  0.00000000000E+00  0.00000000000E+00  0.74505805969E-08  0.10566000000E+00  0.10566000000E+00 0.  1.
     999900   -1    0    0    0    0 -0.00000000000E+00 -0.00000000000E+00 -0.74505805969E-08  0.93827000000E+00  0.93827000000E+00 0.  1.
     999902    2    1    2    0    0  0.15004471071E-01 -0.17034910656E-01 -0.46859622538E-02  0.10207506865E+01  0.10204874734E+01 0.  0.
     999903    2    3    3    0    0  0.11812962923E-01  0.73664122383E-01 -0.10500989986E+00  0.13041288947E+00  0.20359117186E-01 0.  0.
         14    1    1    2    0    0 -0.15004471071E-01  0.17034910656E-01  0.46859622538E-02  0.23179313523E-01  0.00000000000E+00 0.  1.
     999901    1    3    3    0    0  0.31915081477E-02 -0.90699033039E-01  0.10032393760E+00  0.89033779700E+00  0.88000000000E+00 0. -1.
        -11    1    4    4    0    0 -0.12144674726E-02  0.45562146091E-01 -0.53287861446E-01  0.70123044615E-01  0.51100000000E-03 0.  1.
         11    1    4    4    0    0  0.13027430396E-01  0.28101976292E-01 -0.51722038413E-01  0.60289844857E-01  0.51100000000E-03 0. -1.
</event>
<event>
 8    1  0.5489035E+004  0.1043930E+01  0.7957747E-01            NaN
         13   -1    0    0    0    0  0.00000000000E+00  0.00000000000E+00  0.74505805969E-08  0.10566000000E+00  0.10566000000E+00 0.  1.
     999900   -1    0    0    0    0 -0.00000000000E+00 -0.00000000000E+00 -0.74505805969E-08  0.93827000000E+00  0.93827000000E+00 0.  1.
     999902    2    1    2    0    0  0.15883650087E-01  0.55727078966E-02  0.22769417931E-01  0.10156140715E+01  0.10152192622E+01 0.  0.
     999903    2    3    3    0    0  0.12107331381E+00  0.37830430534E-01  0.78190951217E-02  0.12863665456E+00  0.19908838694E-01 0.  0.
         14    1    1    2    0    0 -0.15883650087E-01 -0.55727078966E-02 -0.22769417931E-01  0.28315928491E-01  0.00000000000E+00 0. -1.
     999901    1    3    3    0    0 -0.10518966372E+00 -0.32257722637E-01  0.14950322809E-01  0.88697741695E+00  0.88000000000E+00 0. -1.
        -11    1    4    4    0    0  0.32799084808E-01  0.44095023421E-02 -0.46611335461E-02  0.33424705863E-01  0.51100000000E-03 0.  1.
         11    1    4    4    0    0  0.88274228998E-01  0.33420928191E-01  0.12480228668E-01  0.95211948698E-01  0.51100000000E-03 0. -1.
</event>
<event>
 8    1  0.5489035E+004  0.1043930E+01  0.7957747E-01            NaN
         13   -1    0    0    0    0  0.00000000000E+00  0.00000000000E+00  0.74505805969E-08  0.10566000000E+00  0.10566000000E+00 0. -1.
     999900   -1    0    0    0    0 -0.00000000000E+00 -0.00000000000E+00 -0.74505805969E-08  0.93827000000E+00  0.93827000000E+00 0. -1.
     999902    2    1    2    0    0 -0.51333981838E-02 -0.18380450502E-01  0.11688553490E-01  0.10215511032E+01  0.10213059490E+01 0.  0.
     999903    2    3    3    0    0 -0.84290126476E-01  0.47678380448E-01  0.87715253901E-01  0.13227633358E+00  0.20615753061E-01 0.  0.
         14    1    1    2    0    0  0.51333981838E-02  0.18380450502E-01 -0.11688553490E-01  0.22378896762E-01  0.00000000000E+00 0. -1.
     999901    1    3    3    0    0  0.79156728292E-01 -0.66058830950E-01 -0.76026700410E-01  0.88927476966E+00  0.88000000000E+00 0. -1.
        -11    1    4    4    0    0 -0.37881095608E-01  0.31934021825E-01  0.50411804128E-01  0.70685007398E-01  0.51100000000E-03 0. -1.
         11    1    4    4    0    0 -0.46409030869E-01  0.15744358622E-01  0.37303449773E-01  0.61591326179E-01  0.51100000000E-03 0.  1.
</event>
<event>
 8    1  0.5489035E+004  0.1043930E+01  0.7957747E-01            NaN
         13   -1    0    0    0    0  0.00000000000E+00  0.00000000000E+00  0.74505805969E-08  0.10566000000E+00  0.10566000000E+00 0. -1.
     999900   -1    0    0    0    0 -0.00000000000E+00 -0.00000000000E+00 -0.74505805969E-08  0.93827000000E+00  0.93827000000E+00 0. -1.
     999902    2    1    2    0    0  0.42797599322E-02 -0.11416859552E-01 -0.19631947366E-01  0.10208199506E+01  0.10205583262E+01 0.  0.
     999903    2    3    3    0    0  0.39503373147E-01  0.46025317063E-01  0.11154831748E+00  0.12854837282E+00  0.20070145002E-01 0.  0.
         14    1    1    2    0    0 -0.42797599322E-02  0.11416859552E-01  0.19631947366E-01  0.23110049427E-01  0.00000000000E+00 0. -1.
     999901    1    3    3    0    0 -0.35223613215E-01 -0.57442176616E-01 -0.13118026485E+00  0.89227157775E+00  0.88000000000E+00 0. -1.
        -11    1    4    4    0    0  0.26035918594E-02  0.14955665536E-01  0.20553715601E-01  0.25557131455E-01  0.51100000000E-03 0.  1.
         11    1    4    4    0    0  0.36899781288E-01  0.31069651528E-01  0.90994601882E-01  0.10299124136E+00  0.51100000000E-03 0. -1.
</event>
<event>
 8    1  0.5489035E+004  0.1043930E+01  0.7957747E-01            NaN
         13   -1    0    0    0    0  0.00000000000E+00  0.00000000000E+00  0.74505805969E-08  0.10566000000E+00  0.10566000000E+00 0. -1.
     999900   -1    0    0    0    0 -0.00000000000E+00 -0.00000000000E+00 -0.74505805969E-08  0.93827000000E+00  0.93827000000E+00 0.  1.
     999902    2    1    2    0    0 -0.12857284114E-01  0.15727560085E-01 -0.29973216765E-02  0.10233958860E+01  0.10231898600E+01 0.  0.
     999903    2    3    3    0    0  0.61796814046E-01 -0.10002317705E+00  0.53593270378E-01  0.13088596300E+00  0.20866588325E-01 0.  0.
         14    1    1    2    0    0  0.12857284114E-01 -0.15727560085E-01  0.29973216765E-02  0.20534114012E-01  0.00000000000E+00 0. -1.
     999901    1    3    3    0    0 -0.74654098160E-01  0.11575073713E+00 -0.56590592055E-01  0.89250992299E+00  0.88000000000E+00 0.  1.
        -11    1    4    4    0    0  0.38155198019E-01 -0.78517422647E-01  0.42086237306E-01  0.96913968481E-01  0.51100000000E-03 0. -1.
         11    1    4    4    0    0  0.23641616027E-01 -0.21505754400E-01  0.11507033072E-01  0.33971994522E-01  0.51100000000E-03 0.  1.
</event>
<event>
 8    1  0.5489035E+004  0.1043930E+01  0.7957747E-01            NaN
         13   -1    0    0    0    0  0.00000000000E+00  0.00000000000E+00  0.74505805969E-08  0.10566000000E+00  0.10566000000E+00 0. -1.
     999900   -1    0    0    0    0 -0.00000000000E+00 -0.00000000000E+00 -0.74505805969E-08  0.93827000000E+00  0.93827000000E+00 0.  1.
     999902    2    1    2    0    0 -0.18250709675E-01  0.11971168679E-01  0.70827645501E-02  0.10209830430E+01  0.10207251399E+01 0.  0.
     999903    2    3    3    0    0  0.10085043153E+00  0.19432778267E-01  0.77667735688E-01  0.13012783835E+00  0.18775908355E-01 0.  0.
         14    1    1    2    0    0  0.18250709675E-01 -0.11971168679E-01 -0.70827645501E-02  0.22946957028E-01  0.00000000000E+00 0. -1.
     999901    1    3    3    0    0 -0.11910114121E+00 -0.74616095882E-02 -0.70584971138E-01  0.89085520462E+00  0.88000000000E+00 0.  1.
        -11    1    4    4    0    0  0.43845456471E-01  0.15145746848E-01  0.43094077359E-01  0.63318072658E-01  0.51100000000E-03 0.  1.
         11    1    4    4    0    0  0.57004975063E-01  0.42870314188E-02  0.34573658329E-01  0.66809765690E-01  0.51100000000E-03 0. -1.
</event>
<event>
 8    1  0.5489035E+004  0.1043930E+01  0.7957747E-01            NaN
         13   -1    0    0    0    0  0.00000000000E+00  0.00000000000E+00  0.74505805969E-08  0.10566000000E+00  0.10566000000E+00 0. -1.
     999900   -1    0    0    0    0 -0.00000000000E+00 -0.00000000000E+00 -0.74505805969E-08  0.93827000000E+00  0.93827000000E+00 0. -1.
     999902    2    1    2    0    0 -0.14319829329E-01  0.13270553428E-01 -0.13440704261E-01  0.10202273075E+01  0.10199519309E+01 0.  0.
     999903    2    3    3    0    0  0.40483708611E-01  0.57965333351E-01 -0.10965468366E+00  0.13216301876E+00  0.21071386867E-01 0.  0.
         14    1    1    2    0    0  0.14319829329E-01 -0.13270553428E-01  0.13440704261E-01  0.23702692492E-01  0.00000000000E+00 0. -1.
     999901    1    3    3    0    0 -0.54803537940E-01 -0.44694779922E-01  0.96213979401E-01  0.88806428875E+00  0.88000000000E+00 0.  1.
        -11    1    4    4    0    0  0.14328603837E-01  0.27515776892E-01 -0.65563298262E-01  0.72534364724E-01  0.51100000000E-03 0.  1.
         11    1    4    4    0    0  0.26155104774E-01  0.30449556459E-01 -0.44091385401E-01  0.59628654034E-01  0.51100000000E-03 0. -1.
</event>
<event>
 8    1  0.5489035E+004  0.1043930E+01  0.7957747E-01            NaN
         13   -1    0    0    0    0  0.00000000000E+00  0.00000000000E+00  0.74505805969E-08  0.10566000000E+00  0.10566000000E+00 0.  1.
     999900   -1    0    0    0    0 -0.00000000000E+00 -0.00000000000E+00 -0.74505805969E-08  0.93827000000E+00  0.93827000000E+00 0.  1.
     999902    2    1    2    0    0  0.74091826238E-02 -0.16771381808E-02  0.22491928874E-01  0.10201898306E+01  0.10199135722E+01 0.  0.
     999903    2    3    3    0    0  0.81983376348E-02 -0.71864976829E-01 -0.10416581664E+00  0.12835512619E+00  0.19817503054E-01 0.  0.
         14    1    1    2    0    0 -0.74091826238E-02  0.16771381808E-02 -0.22491928874E-01  0.23740169421E-01  0.00000000000E+00 0. -1.
     999901    1    3    3    0    0 -0.78915501098E-03  0.70187838648E-01  0.12665774552E+00  0.89183470439E+00  0.88000000000E+00 0. -1.
        -11    1    4    4    0    0  0.93242622006E-02 -0.33717051850E-01 -0.35801980557E-01  0.50058209955E-01  0.51100000000E-03 0.  1.
         11    1    4    4    0    0 -0.11259245658E-02 -0.38147924979E-01 -0.68363836084E-01  0.78296916232E-01  0.51100000000E-03 0. -1.
</event>
<event>
 8    1  0.5489035E+004  0.1043930E+01  0.7957747E-01            NaN
         13   -1    0    0    0    0  0.00000000000E+00  0.00000000000E+00  0.74505805969E-08  0.10566000000E+00  0.10566000000E+00 0.  1.
     999900   -1    0    0    0    0 -0.00000000000E+00 -0.00000000000E+00 -0.74505805969E-08  0.93827000000E+00  0.93827000000E+00 0. -1.
     999902    2    1    2    0    0 -0.20724295681E-01 -0.17607812807E-01  0.34287925100E-02  0.10165203644E+01  0.10161507581E+01 0.  0.
     999903    2    3    3    0    0 -0.19377786067E-01 -0.84410664142E-02  0.12489694648E+00  0.12812835933E+00  0.19258219735E-01 0.  0.
         14    1    1    2    0    0  0.20724295681E-01  0.17607812807E-01 -0.34287925100E-02  0.27409635557E-01  0.00000000000E+00 0.  1.
     999901    1    3    3    0    0 -0.13465096139E-02 -0.91667463924E-02 -0.12146815397E+00  0.88839200512E+00  0.88000000000E+00 0. -1.
        -11    1    4    4    0    0 -0.12908930446E-01  0.46906733860E-02  0.52883369995E-01  0.54640231012E-01  0.51100000000E-03 0. -1.
         11    1    4    4    0    0 -0.64688556210E-02 -0.13131739800E-01  0.72013576489E-01  0.73488128313E-01  0.51100000000E-03 0.  1.
</event>
<event>
 8    1  0.5489035E+004  0.1043930E+01  0.7957747E-01            NaN
         13   -1    0    0    0    0  0.00000000000E+00  0.00000000000E+00  0.74505805969E-08  0.10566000000E+00  0.10566000000E+00 0. -1.
     999900   -1    0    0    0    0 -0.00000000000E+00 -0.00000000000E+00 -0.74505805969E-08  0.93827000000E+00  0.93827000000E+00 0.  1.
     999902    2    1    2    0    0  0.36431811866E-02  0.12912232741E-01  0.20168007086E-01  0.10197071382E+01  0.10194193939E+01 0.  0.
     999903    2    3    3    0    0 -0.72918513929E-01 -0.28664004733E-01 -0.98345460379E-01  0.12749880007E+00  0.21104018575E-01 0.  0.
         14    1    1    2    0    0 -0.36431811866E-02 -0.12912232741E-01 -0.20168007086E-01  0.24222861791E-01  0.00000000000E+00 0.  1.
     999901    1    3    3    0    0  0.76561695116E-01  0.41576237474E-01  0.11851346747E+00  0.89220833814E+00  0.88000000000E+00 0. -1.
        -11    1    4    4    0    0 -0.24829359547E-01 -0.13071939335E-01 -0.20815700731E-01  0.34941768865E-01  0.51100000000E-03 0.  1.
         11    1    4    4    0    0 -0.48089154382E-01 -0.15592065398E-01 -0.77529759648E-01  0.92557031201E-01  0.51100000000E-03 0. -1.
</event>
<event>
 8    1  0.5489035E+004  0.1043930E+01  0.7957747E-01            NaN
         13   -1    0    0    0    0  0.00000000000E+00  0.00000000000E+00  0.74505805969E-08  0.10566000000E+00  0.10566000000E+00 0.  1.
     999900   -1    0    0    0    0 -0.00000000000E+00 -0.00000000000E+00 -0.74505805969E-08  0.93827000000E+00  0.93827000000E+00 0. -1.
     999902    2    1    2    0    0 -0.18347219218E-01 -0.89357611259E-02  0.12867843310E-01  0.10198042944E+01  0.10195188812E+01 0.  0.
     999903    2    3    3    0    0  0.33666396725E-01 -0.11352951498E+00 -0.49569507024E-01  0.12989211203E+00  0.19810292825E-01 0.  0.
         14    1    1    2    0    0  0.18347219218E-01  0.89357611259E-02 -0.12867843310E-01  0.24125705614E-01  0.00000000000E+00 0. -1.
     999901    1    3    3    0    0 -0.52013615943E-01  0.10459375385E+00  0.62437350333E-01  0.88991218236E+00  0.88000000000E+00 0.  1.
        -11    1    4    4    0    0  0.21905911948E-01 -0.93774364049E-01 -0.34023762432E-01  0.10213411703E+00  0.51100000000E-03 0.  1.
         11    1    4    4    0    0  0.11760484776E-01 -0.19755150928E-01 -0.15545744592E-01  0.27757994998E-01  0.51100000000E-03 0. -1.
</event>
<event>
 8    1  0.5489035E+004  0.1043930E+01  0.7957747E-01            NaN
         13   -1    0    0    0    0  0.00000000000E+00  0.00000000000E+00  0.74505805969E-08  0.10566000000E+00  0.10566000000E+00 0.  1.
     999900   -1    0    0    0    0 -0.00000000000E+00 -0.00000000000E+00 -0.74505805969E-08  0.93827000000E+00  0.93827000000E+00 0. -1.
     999902    2    1    2    0    0 -0.22389634331E-01  0.27844228145E-02  0.41650175371E-02  0.10209866762E+01  0.10207288557E+01 0.  0.
     999903    2    3    3    0    0 -0.10883884491E+00 -0.72375484982E-01  0.20559444574E-01  0.13341062031E+00  0.17076236800E-01 0.  0.
         14    1    1    2    0    0  0.22389634331E-01 -0.27844228145E-02 -0.41650175371E-02  0.22943323799E-01  0.00000000000E+00 0.  1.
     999901    1    3    3    0    0  0.86449210578E-01  0.75159907797E-01 -0.16394427037E-01  0.88757605589E+00  0.88000000000E+00 0. -1.
        -11    1    4    4    0    0 -0.53247934282E-01 -0.31154702923E-01  0.17527833927E-01  0.64136137261E-01  0.51100000000E-03 0. -1.
         11    1    4    4    0    0 -0.55590910626E-01 -0.41220782060E-01  0.30316106472E-02  0.69274483051E-01  0.51100000000E-03 0.  1.
</event>
<event>
 8    1  0.5489035E+004  0.1043930E+01  0.7957747E-01            NaN
         13   -1    0    0    0    0  0.00000000000E+00  0.00000000000E+00  0.74505805969E-08  0.10566000000E+00  0.10566000000E+00 0.  1.
     999900   -1    0    0    0    0 -0.00000000000E+00 -0.00000000000E+00 -0.74505805969E-08  0.93827000000E+00  0.93827000000E+00 0.  1.
     999902    2    1    2    0    0 -0.17106878546E-01 -0.14406669905E-01  0.69142414455E-02  0.10205205112E+01  0.10202519834E+01 0.  0.
     999903    2    3    3    0    0  0.11385761353E+00  0.42948134153E-02 -0.55822967501E-01  0.12842331859E+00  0.19858083383E-01 0.  0.
         14    1    1    2    0    0  0.17106878546E-01  0.14406669905E-01 -0.69142414455E-02  0.23409488805E-01  0.00000000000E+00 0. -1.
     999901    1    3    3    0    0 -0.13096449208E+00 -0.18701483320E-01  0.62737208947E-01  0.89209719260E+00  0.88000000000E+00 0.  1.
        -11    1    4    4    0    0  0.12204025715E-01 -0.33787289839E-02 -0.12020178993E-01  0.17467108439E-01  0.51100000000E-03 0.  1.
         11    1    4    4    0    0  0.10165358782E+00  0.76735423991E-02 -0.43802788508E-01  0.11095621015E+00  0.51100000000E-03 0. -1.
</event>
<event>
 8    1  0.5489035E+004  0.1043930E+01  0.7957747E-01            NaN
         13   -1    0    0    0    0  0.00000000000E+00  0.00000000000E+00  0.74505805969E-08  0.10566000000E+00  0.10566000000E+00 0.  1.
     999900   -1    0    0    0    0 -0.00000000000E+00 -0.00000000000E+00 -0.74505805969E-08  0.93827000000E+00  0.93827000000E+00 0.  1.
     999902    2    1    2    0    0 -0.76748921962E-02  0.10187467676E-01 -0.22277940691E-01  0.10182591000E+01  0.10179354594E+01 0.  0.
     999903    2    3    3    0    0  0.79013817219E-01 -0.73713554391E-02 -0.10133579231E+00  0.13029885956E+00  0.20281267428E-01 0.  0.
         14    1    1    2    0    0  0.76748921962E-02 -0.10187467676E-01  0.22277940691E-01  0.25670900049E-01  0.00000000000E+00 0.  1.
     999901    1    3    3    0    0 -0.86688709415E-01  0.17558823115E-01  0.79057851615E-01  0.88796024039E+00  0.88000000000E+00 0. -1.
        -11    1    4    4    0    0  0.65777572021E-01 -0.28312867038E-02 -0.93180356141E-01  0.11409445673E+00  0.51100000000E-03 0.  1.
         11    1    4    4    0    0  0.13236245197E-01 -0.45400687352E-02 -0.81554361653E-02  0.16204402830E-01  0.51100000000E-03 0. -1.
</event>
<event>
 8    1  0.5489035E+004  0.1043930E+01  0.7957747E-01            NaN
         13   -1    0    0    0    0  0.00000000000E+00  0.00000000000E+00  0.74505805969E-08  0.10566000000E+00  0.10566000000E+00 0. -1.
     999900   -1    0    0    0    0 -0.00000000000E+00 -0.00000000000E+00 -0.74505805969E-08  0.93827000000E+00  0.93827000000E+00 0. -1.
     999902    2    1    2    0    0 -0.34857046589E-02 -0.74759488384E-02 -0.22598301515E-01  0.10198733340E+01  0.10195895715E+01 0.  0.
     999903    2    3    3    0    0 -0.99632432091E-02 -0.11506268923E+00  0.55143167026E-01  0.12989546846E+00  0.22212050493E-01 0.  0.
         14    1    1    2    0    0  0.34857046589E-02  0.74759488384E-02  0.22598301515E-01  0.24056666006E-01  0.00000000000E+00 0. -1.
     999901    1    3    3    0    0  0.64775385501E-02  0.10758674040E+00 -0.77741468540E-01  0.88997786554E+00  0.88000000000E+00 0. -1.
        -11    1    4    4    0    0 -0.79763519392E-02 -0.77652859510E-01  0.25505473909E-01  0.82124168797E-01  0.51100000000E-03 0. -1.
         11    1    4    4    0    0 -0.19868912698E-02 -0.37409829724E-01  0.29637693117E-01  0.47771299660E-01  0.51100000000E-03 0.  1.
</event>
<event>
 8    1  0.5489035E+004  0.1043930E+01  0.7957747E-01            NaN
         13   -1    0    0    0    0  0.00000000000E+00  0.00000000000E+00  0.74505805969E-08  0.10566000000E+00  0.10566000000E+00 0.  1.
     999900   -1    0    0    0    0 -0.00000000000E+00 -0.00000000000E+00 -0.74505805969E-08  0.93827000000E+00  0.93827000000E+00 0.  1.
     999902    2    1    2    0    0 -0.72956419251E-02 -0.22212321089E-01 -0.27638226869E-05  0.10205502308E+01  0.10202823923E+01 0.  0.
     999903    2    3    3    0    0 -0.11291312815E+00 -0.59128700563E-01 -0.31247685936E-01  0.13291623101E+00  0.21088595256E-01 0.  0.
         14    1    1    2    0    0  0.72956419251E-02  0.22212321089E-01  0.27638226869E-05  0.23379769180E-01  0.00000000000E+00 0. -1.
     999901    1    3    3    0    0  0.10561748622E+00  0.36916379474E-01  0.31244922113E-01  0.88763399981E+00  0.88000000000E+00 0. -1.
        -11    1    4    4    0    0 -0.15888242767E-01 -0.17121422765E-01 -0.36728206787E-02  0.23650160854E-01  0.51100000000E-03 0.  1.
         11    1    4    4    0    0 -0.97024885381E-01 -0.42007277799E-01 -0.27574865257E-01  0.10926607015E+00  0.51100000000E-03 0. -1.
</event>
<event>
 8    1  0.5489035E+004  0.1043930E+01  0.7957747E-01            NaN
         13   -1    0    0    0    0  0.00000000000E+00  0.00000000000E+00  0.74505805969E-08  0.10566000000E+00  0.10566000000E+00 0. -1.
     999900   -1    0    0    0    0 -0.00000000000E+00 -0.00000000000E+00 -0.74505805969E-08  0.93827000000E+00  0.93827000000E+00 0. -1.
     999902    2    1    2    0    0 -0.11077865083E-01 -0.16207642793E-01  0.14708111115E-01  0.10193997062E+01  0.10191045215E+01 0.  0.
     999903    2    3    3    0    0  0.71883505572E-01 -0.58254733561E-01 -0.87130790382E-01  0.12865748274E+00  0.20003021669E-01 0.  0.
         14    1    1    2    0    0  0.11077865083E-01  0.16207642793E-01 -0.14708111115E-01  0.24530293767E-01  0.00000000000E+00 0.  1.
     999901    1    3    3    0    0 -0.82961370655E-01  0.42047090768E-01  0.10183890150E+00  0.89074222350E+00  0.88000000000E+00 0.  1.
        -11    1    4    4    0    0  0.39587430792E-02 -0.11360183488E-01 -0.12907931147E-01  0.17652229976E-01  0.51100000000E-03 0.  1.
         11    1    4    4    0    0  0.67924762492E-01 -0.46894550073E-01 -0.74222859235E-01  0.11100525276E+00  0.51100000000E-03 0. -1.
</event>
<event>
 8    1  0.5489035E+004  0.1043930E+01  0.7957747E-01            NaN
         13   -1    0    0    0    0  0.00000000000E+00  0.00000000000E+00  0.74505805969E-08  0.10566000000E+00  0.10566000000E+00 0. -1.
     999900   -1    0    0    0    0 -0.00000000000E+00 -0.00000000000E+00 -0.74505805969E-08  0.93827000000E+00  0.93827000000E+00 0.  1.
     999902    2    1    2    0    0  0.12211269992E-01  0.25774612780E-01  0.63064537328E-02  0.10147201192E+01  0.10142996121E+01 0.  0.
     999903    2    3    3    0    0 -0.45582197567E-01 -0.93244084010E-01 -0.61824311545E-01  0.12222511289E+00  0.18561702103E-01 0.  0.
         14    1    1    2    0    0 -0.12211269992E-01 -0.25774612780E-01 -0.63064537328E-02  0.29209880819E-01  0.00000000000E+00 0. -1.
     999901    1    3    3    0    0  0.57793467558E-01  0.11901869679E+00  0.68130765278E-01  0.89249500629E+00  0.88000000000E+00 0. -1.
        -11    1    4    4    0    0 -0.73613704131E-02 -0.31444072646E-01 -0.24464283555E-01  0.40517672315E-01  0.51100000000E-03 0.  1.
         11    1    4    4    0    0 -0.38220827154E-01 -0.61800011365E-01 -0.37360027990E-01  0.81707440575E-01  0.51100000000E-03 0. -1.
</event>
<event>
 8    1  0.5489035E+004  0.1043930E+01  0.7957747E-01            NaN
         13   -1    0    0    0    0  0.00000000000E+00  0.00000000000E+00  0.74505805969E-08  0.10566000000E+00  0.10566000000E+00 0.  1.
     999900   -1    0    0    0    0 -0.00000000000E+00 -0.00000000000E+00 -0.74505805969E-08  0.93827000000E+00  0.93827000000E+00 0. -1.
     999902    2    1    2    0    0 -0.15710991198E-01 -0.42192531018E-02 -0.48932510898E-02  0.10269423207E+01  0.10268018060E+01 0.  0.
     999903    2    3    3    0    0  0.32875695907E-01 -0.11930152682E+00 -0.54764762722E-01  0.13672225604E+00  0.19496932478E-01 0.  0.
         14    1    1    2    0    0  0.15710991198E-01  0.42192531018E-02  0.48932510898E-02  0.16987679282E-01  0.00000000000E+00 0. -1.
     999901    1    3    3    0    0 -0.48586687105E-01  0.11508227372E+00  0.49871511633E-01  0.89022006468E+00  0.88000000000E+00 0.  1.
        -11    1    4    4    0    0  0.17604757925E-02 -0.26866588236E-01 -0.56267315475E-02  0.27510617357E-01  0.51100000000E-03 0.  1.
         11    1    4    4    0    0  0.31115220115E-01 -0.92434938588E-01 -0.49138031175E-01  0.10921163868E+00  0.51100000000E-03 0. -1.
</event>
<event>
 8    1  0.5489035E+004  0.1043930E+01  0.7957747E-01            NaN
         13   -1    0    0    0    0  0.00000000000E+00  0.00000000000E+00  0.74505805969E-08  0.10566000000E+00  0.10566000000E+00 0.  1.
     999900   -1    0    0    0    0 -0.00000000000E+00 -0.00000000000E+00 -0.74505805969E-08  0.93827000000E+00  0.93827000000E+00 0.  1.
     999902    2    1    2    0    0  0.18362330970E-01 -0.86922074609E-02 -0.76968877528E-03  0.10235996756E+01  0.10233977593E+01 0.  0.
     999903    2    3    3    0    0 -0.66521161871E-01 -0.65868317351E-01  0.91927070581E-01  0.13283202684E+00  0.20737908289E-01 0.  0.
         14    1    1    2    0    0 -0.18362330970E-01  0.86922074609E-02  0.76968877528E-03  0.20330324395E-01  0.00000000000E+00 0.  1.
     999901    1    3    3    0    0  0.84883492841E-01  0.57176109890E-01 -0.92696759357E-01  0.89076764877E+00  0.88000000000E+00 0.  1.
        -11    1    4    4    0    0 -0.54047707131E-01 -0.40869539334E-01  0.61324071828E-01  0.91391338747E-01  0.51100000000E-03 0.  1.
         11    1    4    4    0    0 -0.12473454740E-01 -0.24998778018E-01  0.30602998754E-01  0.41440688088E-01  0.51100000000E-03 0. -1.
</event>
<event>
 8    1  0.5489035E+004  0.1043930E+01  0.7957747E-01            NaN
         13   -1    0    0    0    0  0.00000000000E+00  0.00000000000E+00  0.74505805969E-08  0.10566000000E+00  0.10566000000E+00 0. -1.
     999900   -1    0    0    0    0 -0.00000000000E+00 -0.00000000000E+00 -0.74505805969E-08  0.93827000000E+00  0.93827000000E+00 0.  1.
     999902    2    1    2    0    0 -0.10723841513E-01 -0.13861456983E-01 -0.16062939059E-01  0.10201569317E+01  0.10198798981E+01 0.  0.
     999903    2    3    3    0    0  0.10198889010E-01  0.40439611775E-01 -0.12348837699E+00  0.13171639262E+00  0.18985502225E-01 0.  0.
         14    1    1    2    0    0  0.10723841513E-01  0.13861456983E-01  0.16062939059E-01  0.23773068328E-01  0.00000000000E+00 0. -1.
     999901    1    3    3    0    0 -0.20922730523E-01 -0.54301068758E-01  0.10742543793E+00  0.88844053905E+00  0.88000000000E+00 0. -1.
        -11    1    4    4    0    0 -0.18831092566E-02  0.19626270715E-01 -0.36849575740E-01  0.41795800697E-01  0.51100000000E-03 0.  1.
         11    1    4    4    0    0  0.12081998267E-01  0.20813341060E-01 -0.86638801251E-01  0.89920591921E-01  0.51100000000E-03 0. -1.
</event>
<event>
 8    1  0.5489035E+004  0.1043930E+01  0.7957747E-01            NaN
         13   -1    0    0    0    0  0.00000000000E+00  0.00000000000E+00  0.74505805969E-08  0.10566000000E+00  0.10566000000E+00 0. -1.
     999900   -1    0    0    0    0 -0.00000000000E+00 -0.00000000000E+00 -0.74505805969E-08  0.93827000000E+00  0.93827000000E+00 0. -1.
     999902    2    1    2    0    0  0.15306754334E-01  0.36874586792E-02 -0.17762063522E-01  0.10201942679E+01  0.10199181140E+01 0.  0.
     999903    2    3    3    0    0  0.39443226129E-01  0.66634633203E-01 -0.10638091826E+00  0.13317779819E+00  0.20578720334E-01 0.  0.
         14    1    1    2    0    0 -0.15306754334E-01 -0.36874586792E-02  0.17762063522E-01  0.23735732142E-01  0.00000000000E+00 0.  1.
     999901    1    3    3    0    0 -0.24136471795E-01 -0.62947174524E-01  0.88618854739E-01  0.88701646967E+00  0.88000000000E+00 0.  1.
        -11    1    4    4    0    0  0.18906267933E-01  0.21832480888E-01 -0.25860771766E-01  0.38770411736E-01  0.51100000000E-03 0.  1.
         11    1    4    4    0    0  0.20536958196E-01  0.44802152315E-01 -0.80520146496E-01  0.94407386452E-01  0.51100000000E-03 0. -1.
</event>
<event>
 8    1  0.5489035E+004  0.1043930E+01  0.7957747E-01            NaN
         13   -1    0    0    0    0  0.00000000000E+00  0.00000000000E+00  0.74505805969E-08  0.10566000000E+00  0.10566000000E+00 0. -1.
     999900   -1    0    0    0    0 -0.00000000000E+00 -0.00000000000E+00 -0.74505805969E-08  0.93827000000E+00  0.93827000000E+00 0. -1.
     999902    2    1    2    0    0 -0.22104225250E-01  0.38403804479E-03  0.81721366994E-02  0.10203603569E+01  0.10200880990E+01 0.  0.
     999903    2    3    3    0    0 -0.36097127107E-01 -0.23694193868E-01 -0.12143013104E+00  0.13043209551E+00  0.20070809807E-01 0.  0.
         14    1    1    2    0    0  0.22104225250E-01 -0.38403804479E-03 -0.81721366994E-02  0.23569643132E-01  0.00000000000E+00 0. -1.
     999901    1    3    3    0    0  0.13992901857E-01  0.24078231912E-01  0.12960226774E+00  0.88992826136E+00  0.88000000000E+00 0.  1.
        -11    1    4    4    0    0 -0.27268666889E-01 -0.26045457778E-01 -0.87314669439E-01  0.95110770605E-01  0.51100000000E-03 0. -1.
         11    1    4    4    0    0 -0.88284602179E-02  0.23512639107E-02 -0.34115461605E-01  0.35321324909E-01  0.51100000000E-03 0.  1.
</event>
<event>
 8    1  0.5489035E+004  0.1043930E+01  0.7957747E-01            NaN
         13   -1    0    0    0    0  0.00000000000E+00  0.00000000000E+00  0.74505805969E-08  0.10566000000E+00  0.10566000000E+00 0. -1.
     999900   -1    0    0    0    0 -0.00000000000E+00 -0.00000000000E+00 -0.74505805969E-08  0.93827000000E+00  0.93827000000E+00 0.  1.
     999902    2    1    2    0    0 -0.17214636320E-01 -0.10921161599E-01 -0.15862539354E-01  0.10180990955E+01  0.10177713557E+01 0.  0.
     999903    2    3    3    0    0 -0.16117081038E-01  0.11166435279E+00  0.54390189964E-01  0.12682817204E+00  0.19960071959E-01 0.  0.
         14    1    1    2    0    0  0.17214636320E-01  0.10921161599E-01  0.15862539354E-01  0.25830904534E-01  0.00000000000E+00 0. -1.
     999901    1    3    3    0    0 -0.10975552820E-02 -0.12258551439E+00 -0.70252729319E-01  0.89127092343E+00  0.88000000000E+00 0.  1.
        -11    1    4    4    0    0 -0.13177921959E-01  0.47851885258E-01  0.32365857390E-01  0.59255973500E-01  0.51100000000E-03 0.  1.
         11    1    4    4    0    0 -0.29391590790E-02  0.63812467537E-01  0.22024332574E-01  0.67572198540E-01  0.51100000000E-03 0. -1.
</event>
<event>
 8    1  0.5489035E+004  0.1043930E+01  0.7957747E-01            NaN
         13   -1    0    0    0    0  0.00000000000E+00  0.00000000000E+00  0.74505805969E-08  0.10566000000E+00  0.10566000000E+00 0.  1.
     999900   -1    0    0    0    0 -0.00000000000E+00 -0.00000000000E+00 -0.74505805969E-08  0.93827000000E+00  0.93827000000E+00 0. -1.
     999902    2    1    2    0    0 -0.16271841296E-01  0.93985463220E-02 -0.14177427328E-01  0.10203905663E+01  0.10201190141E+01 0.  0.
     999903    2    3    3    0    0 -0.72220952078E-01  0.21195909725E-01 -0.10842820556E+00  0.13351250820E+00  0.20094317069E-01 0.  0.
         14    1    1    2    0    0  0.16271841296E-01 -0.93985463220E-02  0.14177427328E-01  0.23539433676E-01  0.00000000000E+00 0.  1.
     999901    1    3    3    0    0  0.55949110783E-01 -0.11797363403E-01  0.94250778227E-01  0.88687805812E+00  0.88000000000E+00 0.  1.
        -11    1    4    4    0    0 -0.29002310165E-01  0.56501366865E-03 -0.30910083455E-01  0.42392777870E-01  0.51100000000E-03 0. -1.
         11    1    4    4    0    0 -0.43218641913E-01  0.20630896056E-01 -0.77518122101E-01  0.91119730333E-01  0.51100000000E-03 0.  1.
</event>
<event>
 8    1  0.5489035E+004  0.1043930E+01  0.7957747E-01            NaN
         13   -1    0    0    0    0  0.00000000000E+00  0.00000000000E+00  0.74505805969E-08  0.10566000000E+00  0.10566000000E+00 0. -1.
     999900   -1    0    0    0    0 -0.00000000000E+00 -0.00000000000E+00 -0.74505805969E-08  0.93827000000E+00  0.93827000000E+00 0.  1.
     999902    2    1    2    0    0  0.83275400559E-02  0.15820789787E-01 -0.14777243500E-01  0.10207349092E+01  0.10204713335E+01 0.  0.
     999903    2    3    3    0    0  0.20707574974E-01 -0.66635000837E-01 -0.10985237458E+00  0.13169525695E+00  0.20175963556E-01 0.  0.
         14    1    1    2    0    0 -0.83275400559E-02 -0.15820789787E-01  0.14777243500E-01  0.23195090824E-01  0.00000000000E+00 0. -1.
     999901    1    3    3    0    0 -0.12380034918E-01  0.82455790624E-01  0.95075131081E-01  0.88903965222E+00  0.88000000000E+00 0. -1.
        -11    1    4    4    0    0  0.10174275100E-01 -0.28092969793E-01 -0.29684611794E-01  0.42120875156E-01  0.51100000000E-03 0. -1.
         11    1    4    4    0    0  0.10533299874E-01 -0.38542031045E-01 -0.80167762787E-01  0.89574381798E-01  0.51100000000E-03 0.  1.
</event>
<event>
 8    1  0.5489035E+004  0.1043930E+01  0.7957747E-01            NaN
         13   -1    0    0    0    0  0.00000000000E+00  0.00000000000E+00  0.74505805969E-08  0.10566000000E+00  0.10566000000E+00 0. -1.
     999900   -1    0    0    0    0 -0.00000000000E+00 -0.00000000000E+00 -0.74505805969E-08  0.93827000000E+00  0.93827000000E+00 0. -1.
     999902    2    1    2    0    0  0.73549831642E-02  0.21171285724E-01  0.71028244401E-02  0.10204189551E+01  0.10201480651E+01 0.  0.
     999903    2    3    3    0    0 -0.43710597124E-03  0.23414933284E-01 -0.12402362915E+00  0.13066623810E+00  0.33813533219E-01 0.  0.
         14    1    1    2    0    0 -0.73549831642E-02 -0.21171285724E-01 -0.71028244401E-02  0.23511044885E-01  0.00000000000E+00 0.  1.
     999901    1    3    3    0    0  0.77920891354E-02 -0.22436475594E-02  0.13112645359E+00  0.88975271702E+00  0.88000000000E+00 0.  1.
        -11    1    4    4    0    0  0.11945000819E-01  0.25849639528E-01 -0.87839500639E-01  0.92341355317E-01  0.51100000000E-03 0.  1.
         11    1    4    4    0    0 -0.12382106790E-01 -0.24347062438E-02 -0.36184128511E-01  0.38324882781E-01  0.51100000000E-03 0. -1.
</event>
<event>
 8    1  0.5489035E+004  0.1043930E+01  0.7957747E-01            NaN
         13   -1    0    0    0    0  0.00000000000E+00  0.00000000000E+00  0.74505805969E-08  0.10566000000E+00  0.10566000000E+00 0. -1.
     999900   -1    0    0    0    0 -0.00000000000E+00 -0.00000000000E+00 -0.74505805969E-08  0.93827000000E+00  0.93827000000E+00 0.  1.
     999902    2    1    2    0    0 -0.18060291386E-01  0.32957064141E-02  0.12763632821E-01  0.10215705249E+01  0.10213258007E+01 0.  0.
     999903    2    3    3    0    0 -0.83532641642E-01 -0.10053226537E+00 -0.10927626057E-01  0.13273524647E+00  0.20366493140E-01 0.  0.
         14    1    1    2    0    0  0.18060291386E-01 -0.32957064141E-02 -0.12763632821E-01  0.22359475139E-01  0.00000000000E+00 0.  1.
     999901    1    3    3    0    0  0.65472350256E-01  0.10382797178E+00  0.23691258878E-01  0.88883527840E+00  0.88000000000E+00 0.  1.
        -11    1    4    4    0    0 -0.43531920805E-01 -0.43861298472E-01 -0.13749210508E-01  0.63309900831E-01  0.51100000000E-03 0. -1.
         11    1    4    4    0    0 -0.40000720837E-01 -0.56670966899E-01  0.28215844507E-02  0.69425345635E-01  0.51100000000E-03 0.  1.
</event>
<event>
 8    1  0.5489035E+004  0.1043930E+01  0.7957747E-01            NaN
         13   -1    0    0    0    0  0.00000000000E+00  0.00000000000E+00  0.74505805969E-08  0.10566000000E+00  0.10566000000E+00 0. -1.
     999900   -1    0    0    0    0 -0.00000000000E+00 -0.00000000000E+00 -0.74505805969E-08  0.93827000000E+00  0.93827000000E+00 0.  1.
     999902    2    1    2    0    0  0.21677839279E-01 -0.21331027725E-02 -0.97503061260E-02  0.10200648096E+01  0.10197855993E+01 0.  0.
     999903    2    3    3    0    0  0.44312088412E-01  0.55368073237E-02  0.11999294492E+00  0.13023086557E+00  0.23823393988E-01 0.  0.
         14    1    1    2    0    0 -0.21677839279E-01  0.21331027725E-02  0.97503061260E-02  0.23865190399E-01  0.00000000000E+00 0.  1.
     999901    1    3    3    0    0 -0.22634249134E-01 -0.76699100962E-02 -0.12974325105E+00  0.88983394403E+00  0.88000000000E+00 0.  1.
        -11    1    4    4    0    0  0.34633607624E-01  0.75204914149E-02  0.62138526715E-01  0.71536719183E-01  0.51100000000E-03 0.  1.
         11    1    4    4    0    0  0.96784807885E-02 -0.19836840912E-02  0.57854418209E-01  0.58694146388E-01  0.51100000000E-03 0. -1.
</event>
<event>
 8    1  0.5489035E+004  0.1043930E+01  0.7957747E-01            NaN
         13   -1    0    0    0    0  0.00000000000E+00  0.00000000000E+00  0.74505805969E-08  0.10566000000E+00  0.10566000000E+00 0. -1.
     999900   -1    0    0    0    0 -0.00000000000E+00 -0.00000000000E+00 -0.74505805969E-08  0.93827000000E+00  0.93827000000E+00 0. -1.
     999902    2    1    2    0    0 -0.17099957378E-01  0.14047401756E-01  0.71537866395E-02  0.10206724270E+01  0.10204074130E+01 0.  0.
     999903    2    3    3    0    0  0.68600248892E-01  0.82190495320E-01 -0.71536286645E-01  0.13040272956E+00  0.20643640675E-01 0.  0.
         14    1    1    2    0    0  0.17099957378E-01 -0.14047401756E-01 -0.71537866395E-02  0.23257572997E-01  0.00000000000E+00 0.  1.
     999901    1    3    3    0    0 -0.85700206270E-01 -0.68143093564E-01  0.78690073284E-01  0.89026969744E+00  0.88000000000E+00 0.  1.
        -11    1    4    4    0    0  0.47195654309E-01  0.56881290065E-01 -0.37468957177E-01  0.82867936007E-01  0.51100000000E-03 0.  1.
         11    1    4    4    0    0  0.21404594583E-01  0.25309205255E-01 -0.34067329468E-01  0.47534793551E-01  0.51100000000E-03 0. -1.
</event>
<event>
 8    1  0.5489035E+004  0.1043930E+01  0.7957747E-01            NaN
         13   -1    0    0    0    0  0.00000000000E+00  0.00000000000E+00  0.74505805969E-08  0.10566000000E+00  0.10566000000E+00 0. -1.
     999900   -1    0    0    0    0 -0.00000000000E+00 -0.00000000000E+00 -0.74505805969E-08  0.93827000000E+00  0.93827000000E+00 0. -1.
     999902    2    1    2    0    0  0.39935413937E-02  0.22413572876E-01  0.54406024224E-02  0.10205223778E+01  0.10202538933E+01 0.  0.
     999903    2    3    3    0    0  0.10922450696E+00  0.68178631436E-01 -0.24246909009E-01  0.13257567612E+00  0.20250397474E-01 0.  0.
         14    1    1    2    0    0 -0.39935413937E-02 -0.22413572876E-01 -0.54406024224E-02  0.23407622191E-01  0.00000000000E+00 0. -1.
     999901    1    3    3    0    0 -0.10523096557E+00 -0.45765058560E-01  0.29687511432E-01  0.88794670169E+00  0.88000000000E+00 0.  1.
        -11    1    4    4    0    0  0.10088223331E+00  0.68518364875E-01 -0.22077560747E-01  0.12393414030E+00  0.51100000000E-03 0. -1.
         11    1    4    4    0    0  0.83422736546E-02 -0.33973343899E-03 -0.21693482621E-02  0.86415358253E-02  0.51100000000E-03 0.  1.
</event>
<event>
 7    1  0.5489035E+004  0.1043930E+01  0.7957747E-01            NaN
         13   -1    0    0    0    0  0.00000000000E+00  0.00000000000E+00  0.74505805969E-08  0.10566000000E+00  0.10566000000E+00 0. -1.
     999900   -1    0    0    0    0 -0.00000000000E+00 -0.00000000000E+00 -0.74505805969E-08  0.93827000000E+00  0.93827000000E+00 0.  1.
     999902    2    1    2    0    0  0.80411059267E-02  0.11496593923E-01  0.18630535341E-01  0.10206077380E+01  0.10203412307E+01 0.  0.
         14    1    1    2    0    0 -0.80411059267E-02 -0.11496593923E-01 -0.18630535341E-01  0.23322261971E-01  0.00000000000E+00 0.  1.
     999901    1    3    3    0    0 -0.67761236980E-01 -0.26394930481E-01  0.10963671372E+00  0.88978002146E+00  0.88000000000E+00 0. -1.
        -11    1    3    3    0    0  0.22616111006E-01  0.18507632825E-01 -0.58882921911E-01  0.65737968964E-01  0.51100000000E-03 0. -1.
         11    1    3    3    0    0  0.53186231900E-01  0.19383891579E-01 -0.32123256464E-01  0.65089747606E-01  0.51100000000E-03 0.  1.
</event>
<event>
 8    1  0.5489035E+004  0.1043930E+01  0.7957747E-01            NaN
         13   -1    0    0    0    0  0.00000000000E+00  0.00000000000E+00  0.74505805969E-08  0.10566000000E+00  0.10566000000E+00 0.  1.
     999900   -1    0    0    0    0 -0.00000000000E+00 -0.00000000000E+00 -0.74505805969E-08  0.93827000000E+00  0.93827000000E+00 0. -1.
     999902    2    1    2    0    0 -0.35899640557E-02 -0.23821188941E-01 -0.22223353620E-02  0.10197375289E+01  0.10194505148E+01 0.  0.
     999903    2    3    3    0    0 -0.70661003519E-01  0.10425290592E+00  0.89346958770E-02  0.12787095957E+00  0.20236296599E-01 0.  0.
         14    1    1    2    0    0  0.35899640557E-02  0.23821188941E-01  0.22223353620E-02  0.24192471121E-01  0.00000000000E+00 0. -1.
     999901    1    3    3    0    0  0.67071039464E-01 -0.12807409486E+00 -0.11157031239E-01  0.89186656931E+00  0.88000000000E+00 0.  1.
        -11    1    4    4    0    0 -0.34592367709E-01  0.59112113971E-01  0.13853218056E-01  0.69878800028E-01  0.51100000000E-03 0.  1.
         11    1    4    4    0    0 -0.36068635810E-01  0.45140791945E-01 -0.49185221794E-02  0.57992159540E-01  0.51100000000E-03 0. -1.
</event>
<event>
 8    1  0.5489035E+004  0.1043930E+01  0.7957747E-01            NaN
         13   -1    0    0    0    0  0.00000000000E+00  0.00000000000E+00  0.74505805969E-08  0.10566000000E+00  0.10566000000E+00 0. -1.
     999900   -1    0    0    0    0 -0.00000000000E+00 -0.00000000000E+00 -0.74505805969E-08  0.93827000000E+00  0.93827000000E+00 0.  1.
     999902    2    1    2    0    0  0.19900135050E-01  0.33226173841E-02 -0.12130395362E-01  0.10203885121E+01  0.10201169119E+01 0.  0.
     999903    2    3    3    0    0 -0.32153798041E-01  0.74408589992E-01  0.98409919307E-01  0.12910741804E+00  0.20339817626E-01 0.  0.
         14    1    1    2    0    0 -0.19900135050E-01 -0.33226173841E-02  0.12130395362E-01  0.23541487909E-01  0.00000000000E+00 0.  1.
     999901    1    3    3    0    0  0.52053933091E-01 -0.71085972608E-01 -0.11054031467E+00  0.89128109405E+00  0.88000000000E+00 0.  1.
        -11    1    4    4    0    0 -0.13022457207E-01  0.52469567557E-01  0.57847826911E-01  0.79178735218E-01  0.51100000000E-03 0.  1.
         11    1    4    4    0    0 -0.19131340834E-01  0.21939022434E-01  0.40562092396E-01  0.49928682819E-01  0.51100000000E-03 0. -1.
</event>
<event>
 8    1  0.5489035E+004  0.1043930E+01  0.7957747E-01            NaN
         13   -1    0    0    0    0  0.00000000000E+00  0.00000000000E+00  0.74505805969E-08  0.10566000000E+00  0.10566000000E+00 0. -1.
     999900   -1    0    0    0    0 -0.00000000000E+00 -0.00000000000E+00 -0.74505805969E-08  0.93827000000E+00  0.93827000000E+00 0.  1.
     999902    2    1    2    0    0  0.17695027586E-01  0.12370869572E-01  0.95916511501E-02  0.10203047553E+01  0.10200311963E+01 0.  0.
     999903    2    3    3    0    0 -0.12089092104E+00  0.39023553079E-02  0.39675817184E-01  0.12891099386E+00  0.20347744367E-01 0.  0.
         14    1    1    2    0    0 -0.17695027586E-01 -0.12370869572E-01 -0.95916511501E-02  0.23625244698E-01  0.00000000000E+00 0. -1.
     999901    1    3    3    0    0  0.13858594863E+00  0.84685142643E-02 -0.30084166034E-01  0.89139376144E+00  0.88000000000E+00 0.  1.
        -11    1    4    4    0    0 -0.97713737663E-01 -0.40149327085E-02  0.35606977437E-01  0.10407791397E+00  0.51100000000E-03 0.  1.
         11    1    4    4    0    0 -0.23177183381E-01  0.79172880164E-02  0.40688397462E-02  0.24833079892E-01  0.51100000000E-03 0. -1.
</event>
<event>
 8    1  0.5489035E+004  0.1043930E+01  0.7957747E-01            NaN
         13   -1    0    0    0    0  0.00000000000E+00  0.00000000000E+00  0.74505805969E-08  0.10566000000E+00  0.10566000000E+00 0. -1.
     999900   -1    0    0    0    0 -0.00000000000E+00 -0.00000000000E+00 -0.74505805969E-08  0.93827000000E+00  0.93827000000E+00 0.  1.
     999902    2    1    2    0    0  0.96914720033E-02  0.16095078347E-01 -0.13943917875E-01  0.10205332262E+01  0.10202649934E+01 0.  0.
     999903    2    3    3    0    0  0.85780898117E-01 -0.50281817825E-01 -0.84444819915E-01  0.13195803511E+00  0.19883956684E-01 0.  0.
         14    1    1    2    0    0 -0.96914720033E-02 -0.16095078347E-01  0.13943917875E-01  0.23396773758E-01  0.00000000000E+00 0. -1.
     999901    1    3    3    0    0 -0.76089426114E-01  0.66376896172E-01  0.70500902040E-01  0.88857519113E+00  0.88000000000E+00 0.  1.
        -11    1    4    4    0    0  0.65062027208E-01 -0.45617696917E-01 -0.59988800722E-01  0.99563843786E-01  0.51100000000E-03 0.  1.
         11    1    4    4    0    0  0.20718870909E-01 -0.46641209080E-02 -0.24456019193E-01  0.32394191321E-01  0.51100000000E-03 0. -1.
</event>
<event>
 8    1  0.5489035E+004  0.1043930E+01  0.7957747E-01            NaN
         13   -1    0    0    0    0  0.00000000000E+00  0.00000000000E+00  0.74505805969E-08  0.10566000000E+00  0.10566000000E+00 0.  1.
     999900   -1    0    0    0    0 -0.00000000000E+00 -0.00000000000E+00 -0.74505805969E-08  0.93827000000E+00  0.93827000000E+00 0.  1.
     999902    2    1    2    0    0 -0.30011788210E-03 -0.23402737570E-01  0.40629458546E-02  0.10201753010E+01  0.10198987004E+01 0.  0.
     999903    2    3    3    0    0  0.32491581432E-02  0.17525604980E-01  0.12809898370E+00  0.13052780603E+00  0.17619723676E-01 0.  0.
         14    1    1    2    0    0  0.30011788210E-03  0.23402737570E-01 -0.40629458546E-02  0.23754699020E-01  0.00000000000E+00 0. -1.
     999901    1    3    3    0    0 -0.35492760253E-02 -0.40928342550E-01 -0.12403603785E+00  0.88964749495E+00  0.88000000000E+00 0.  1.
        -11    1    4    4    0    0 -0.20821156911E-03  0.14057547087E-01  0.42107912213E-01  0.44395893663E-01  0.51100000000E-03 0.  1.
         11    1    4    4    0    0  0.34573697123E-02  0.34680578931E-02  0.85991071491E-01  0.86131912367E-01  0.51100000000E-03 0. -1.
</event>
<event>
 8    1  0.5489035E+004  0.1043930E+01  0.7957747E-01            NaN
         13   -1    0    0    0    0  0.00000000000E+00  0.00000000000E+00  0.74505805969E-08  0.10566000000E+00  0.10566000000E+00 0.  1.
     999900   -1    0    0    0    0 -0.00000000000E+00 -0.00000000000E+00 -0.74505805969E-08  0.93827000000E+00  0.93827000000E+00 0. -1.
     999902    2    1    2    0    0 -0.13435875763E-01  0.79938765801E-02  0.18084999983E-01  0.10200241002E+01  0.10197439252E+01 0.  0.
     999903    2    3    3    0    0  0.86486447960E-01  0.87036495040E-01 -0.34881334982E-01  0.12927293465E+00  0.20964898118E-01 0.  0.
         14    1    1    2    0    0  0.13435875763E-01 -0.79938765801E-02 -0.18084999983E-01  0.23905899788E-01  0.00000000000E+00 0. -1.
     999901    1    3    3    0    0 -0.99922323723E-01 -0.79042618460E-01  0.52966334965E-01  0.89075116556E+00  0.88000000000E+00 0.  1.
        -11    1    4    4    0    0  0.19304594367E-01  0.87367174393E-02 -0.39201759594E-02  0.21555196493E-01  0.51100000000E-03 0. -1.
         11    1    4    4    0    0  0.67181853593E-01  0.78299777601E-01 -0.30961159023E-01  0.10771773816E+00  0.51100000000E-03 0.  1.
</event>
<event>
 8    1  0.5489035E+004  0.1043930E+01  0.7957747E-01            NaN
         13   -1    0    0    0    0  0.00000000000E+00  0.00000000000E+00  0.74505805969E-08  0.10566000000E+00  0.10566000000E+00 0.  1.
     999900   -1    0    0    0    0 -0.00000000000E+00 -0.00000000000E+00 -0.74505805969E-08  0.93827000000E+00  0.93827000000E+00 0. -1.
     999902    2    1    2    0    0 -0.22691411934E-01 -0.36008844542E-02  0.32088207932E-02  0.10207316579E+01  0.10204680075E+01 0.  0.
     999903    2    3    3    0    0 -0.14653147939E-01  0.89399900444E-01 -0.91768150083E-01  0.13071234089E+00  0.21383773022E-01 0.  0.
         14    1    1    2    0    0  0.22691411934E-01  0.36008844542E-02 -0.32088207932E-02  0.23198342081E-01  0.00000000000E+00 0. -1.
     999901    1    3    3    0    0 -0.80382639957E-02 -0.93000784898E-01  0.94976970876E-01  0.89001931702E+00  0.88000000000E+00 0.  1.
        -11    1    4    4    0    0 -0.19146266249E-01  0.52304776178E-01 -0.55919691988E-01  0.78928082425E-01  0.51100000000E-03 0.  1.
         11    1    4    4    0    0  0.44931183103E-02  0.37095124266E-01 -0.35848458095E-01  0.51784258469E-01  0.51100000000E-03 0. -1.
</event>
<event>
 8    1  0.5489035E+004  0.1043930E+01  0.7957747E-01            NaN
         13   -1    0    0    0    0  0.00000000000E+00  0.00000000000E+00  0.74505805969E-08  0.10566000000E+00  0.10566000000E+00 0. -1.
     999900   -1    0    0    0    0 -0.00000000000E+00 -0.00000000000E+00 -0.74505805969E-08  0.93827000000E+00  0.93827000000E+00 0. -1.
     999902    2    1    2    0    0  0.29728826767E-03  0.14387708663E-01  0.16676159497E-01  0.10219029976E+01  0.10216655752E+01 0.  0.
     999903    2    3    3    0    0  0.31496763173E-01 -0.98927079074E-01  0.78831261107E-01  0.13191597237E+00  0.20219865818E-01 0.  0.
         14    1    1    2    0    0 -0.29728826767E-03 -0.14387708663E-01 -0.16676159497E-01  0.22027002439E-01  0.00000000000E+00 0. -1.
     999901    1    3    3    0    0 -0.31199474905E-01  0.11331478774E+00 -0.62155101610E-01  0.88998702519E+00  0.88000000000E+00 0.  1.
        -11    1    4    4    0    0  0.37209142910E-02 -0.28177684107E-01  0.12576050923E-01  0.31084485883E-01  0.51100000000E-03 0. -1.
         11    1    4    4    0    0  0.27775848882E-01 -0.70749394967E-01  0.66255210185E-01  0.10083148649E+00  0.51100000000E-03 0.  1.
</event>
<event>
 8    1  0.5489035E+004  0.1043930E+01  0.7957747E-01            NaN
         13   -1    0    0    0    0  0.00000000000E+00  0.00000000000E+00  0.74505805969E-08  0.10566000000E+00  0.10566000000E+00 0.  1.
     999900   -1    0    0    0    0 -0.00000000000E+00 -0.00000000000E+00 -0.74505805969E-08  0.93827000000E+00  0.93827000000E+00 0. -1.
     999902    2    1    2    0    0  0.21808022387E-01  0.46937524287E-02  0.89538585804E-02  0.10198926804E+01  0.10196093795E+01 0.  0.
     999903    2    3    3    0    0 -0.86970136995E-01 -0.41771134289E-01  0.83054361750E-01  0.12889180593E+00  0.20160313519E-01 0.  0.
         14    1    1    2    0    0 -0.21808022387E-01 -0.46937524287E-02 -0.89538585804E-02  0.24037319646E-01  0.00000000000E+00 0. -1.
     999901    1    3    3    0    0  0.10877815938E+00  0.46464886718E-01 -0.74100503170E-01  0.89100087443E+00  0.88000000000E+00 0. -1.
        -11    1    4    4    0    0 -0.67181569985E-01 -0.35808745814E-01  0.54449748786E-01  0.93598428866E-01  0.51100000000E-03 0.  1.
         11    1    4    4    0    0 -0.19788567010E-01 -0.59623884751E-02  0.28604612965E-01  0.35293377063E-01  0.51100000000E-03 0. -1.
</event>
<event>
 8    1  0.5489035E+004  0.1043930E+01  0.7957747E-01            NaN
         13   -1    0    0    0    0  0.00000000000E+00  0.00000000000E+00  0.74505805969E-08  0.10566000000E+00  0.10566000000E+00 0. -1.
     999900   -1    0    0    0    0 -0.00000000000E+00 -0.00000000000E+00 -0.74505805969E-08  0.93827000000E+00  0.93827000000E+00 0. -1.
     999902    2    1    2    0    0  0.74410760587E-02 -0.22327445774E-01 -0.59778391737E-02  0.10196479282E+01  0.10193587585E+01 0.  0.
     999903    2    3    3    0    0  0.63696594584E-01 -0.11042173378E+00  0.30161074020E-01  0.13272554833E+00  0.21358027565E-01 0.  0.
         14    1    1    2    0    0 -0.74410760587E-02  0.22327445774E-01  0.59778391737E-02  0.24282071759E-01  0.00000000000E+00 0.  1.
     999901    1    3    3    0    0 -0.56255518525E-01  0.88094288002E-01 -0.36138913194E-01  0.88692237991E+00  0.88000000000E+00 0. -1.
        -11    1    4    4    0    0  0.30669425909E-01 -0.33899932678E-01  0.14131051082E-01  0.47851508302E-01  0.51100000000E-03 0. -1.
         11    1    4    4    0    0  0.33027168675E-01 -0.76521801098E-01  0.16030022939E-01  0.84874040026E-01  0.51100000000E-03 0.  1.
</event>
<event>
 8    1  0.5489035E+004  0.1043930E+01  0.7957747E-01            NaN
         13   -1    0    0    0    0  0.00000000000E+00  0.00000000000E+00  0.74505805969E-08  0.10566000000E+00  0.10566000000E+00 0. -1.
     999900   -1    0    0    0    0 -0.00000000000E+00 -0.00000000000E+00 -0.74505805969E-08  0.93827000000E+00  0.93827000000E+00 0. -1.
     999902    2    1    2    0    0  0.14075258422E-01 -0.16083357276E-01 -0.10594782473E-01  0.10200755099E+01  0.10197965529E+01 0.  0.
     999903    2    3    3    0    0 -0.27318536939E-01  0.12020492333E+00  0.27147494476E-01  0.12782418816E+00  0.20162107298E-01 0.  0.
         14    1    1    2    0    0 -0.14075258422E-01  0.16083357276E-01  0.10594782473E-01  0.23854490071E-01  0.00000000000E+00 0.  1.
     999901    1    3    3    0    0  0.41393795361E-01 -0.13628828060E+00 -0.37742276950E-01  0.89225132177E+00  0.88000000000E+00 0. -1.
        -11    1    4    4    0    0 -0.14678873646E-01  0.64906678490E-01  0.24897952100E-01  0.71052905528E-01  0.51100000000E-03 0. -1.
         11    1    4    4    0    0 -0.12639663293E-01  0.55298244836E-01  0.22495423765E-02  0.56771282635E-01  0.51100000000E-03 0.  1.
</event>
<event>
 8    1  0.5489035E+004  0.1043930E+01  0.7957747E-01            NaN
         13   -1    0    0    0    0  0.00000000000E+00  0.00000000000E+00  0.74505805969E-08  0.10566000000E+00  0.10566000000E+00 0.  1.
     999900   -1    0    0    0    0 -0.00000000000E+00 -0.00000000000E+00 -0.74505805969E-08  0.93827000000E+00  0.93827000000E+00 0.  1.
     999902    2    1    2    0    0  0.73203951390E-02 -0.14438774929E-01  0.17013242391E-01  0.10204456047E+01  0.10201753356E+01 0.  0.
     999903    2    3    3    0    0  0.45024044126E-01  0.43355413871E-01 -0.11052170739E+00  0.12857851996E+00  0.20261577679E-01 0.  0.
         14    1    1    2    0    0 -0.73203951390E-02  0.14438774929E-01 -0.17013242391E-01  0.23484395310E-01  0.00000000000E+00 0. -1.
     999901    1    3    3    0    0 -0.37703648987E-01 -0.57794188800E-01  0.12753494978E+00  0.89186708473E+00  0.88000000000E+00 0. -1.
        -11    1    4    4    0    0  0.24759814672E-01  0.32074222092E-01 -0.54258560595E-01  0.67720430184E-01  0.51100000000E-03 0. -1.
         11    1    4    4    0    0  0.20264229454E-01  0.11281191779E-01 -0.56263146793E-01  0.60858089778E-01  0.51100000000E-03 0.  1.
</event>
<event>
 8    1  0.5489035E+004  0.1043930E+01  0.7957747E-01            NaN
         13   -1    0    0    0    0  0.00000000000E+00  0.00000000000E+00  0.74505805969E-08  0.10566000000E+00  0.10566000000E+00 0. -1.
     999900   -1    0    0    0    0 -0.00000000000E+00 -0.00000000000E+00 -0.74505805969E-08  0.93827000000E+00  0.93827000000E+00 0. -1.
     999902    2    1    2    0    0 -0.71230172409E-02  0.22926394727E-01  0.49253337081E-02  0.10194225346E+01  0.10191279057E+01 0.  0.
     999903    2    3    3    0    0  0.11988040932E+00  0.23424329787E-02 -0.42381525644E-01  0.12880953849E+00  0.20467143407E-01 0.  0.
         14    1    1    2    0    0  0.71230172409E-02 -0.22926394727E-01 -0.49253337081E-02  0.24507465433E-01  0.00000000000E+00 0.  1.
     999901    1    3    3    0    0 -0.12700342656E+00  0.20583961749E-01  0.47306859352E-01  0.89061299608E+00  0.88000000000E+00 0.  1.
        -11    1    4    4    0    0  0.30261298094E-01  0.40267339804E-02 -0.22968471748E-02  0.30618578949E-01  0.51100000000E-03 0. -1.
         11    1    4    4    0    0  0.89619111226E-01 -0.16843010017E-02 -0.40084678469E-01  0.98190959542E-01  0.51100000000E-03 0.  1.
</event>
<event>
 8    1  0.5489035E+004  0.1043930E+01  0.7957747E-01            NaN
         13   -1    0    0    0    0  0.00000000000E+00  0.00000000000E+00  0.74505805969E-08  0.10566000000E+00  0.10566000000E+00 0.  1.
     999900   -1    0    0    0    0 -0.00000000000E+00 -0.00000000000E+00 -0.74505805969E-08  0.93827000000E+00  0.93827000000E+00 0. -1.
     999902    2    1    2    0    0 -0.60317527906E-02 -0.81933761435E-02 -0.21603259583E-01  0.10200508401E+01  0.10197712989E+01 0.  0.
     999903    2    3    3    0    0  0.90001651435E-01 -0.31012170460E-02  0.88809649227E-01  0.12795255219E+00  0.19359416495E-01 0.  0.
         14    1    1    2    0    0  0.60317527906E-02  0.81933761435E-02  0.21603259583E-01  0.23879159930E-01  0.00000000000E+00 0.  1.
     999901    1    3    3    0    0 -0.96033404226E-01 -0.50921590975E-02 -0.11041290881E+00  0.89209828788E+00  0.88000000000E+00 0. -1.
        -11    1    4    4    0    0  0.29655515181E-01  0.74109698959E-03  0.42285960375E-01  0.51656193929E-01  0.51100000000E-03 0. -1.
         11    1    4    4    0    0  0.60346136255E-01 -0.38423140356E-02  0.46523688852E-01  0.76296358258E-01  0.51100000000E-03 0.  1.
</event>
<event>
 7    1  0.5489035E+004  0.1043930E+01  0.7957747E-01            NaN
         13   -1    0    0    0    0  0.00000000000E+00  0.00000000000E+00  0.74505805969E-08  0.10566000000E+00  0.10566000000E+00 0.  1.
     999900   -1    0    0    0    0 -0.00000000000E+00 -0.00000000000E+00 -0.74505805969E-08  0.93827000000E+00  0.93827000000E+00 0. -1.
     999903    2    1    2    0    0 -0.22320719374E-01 -0.10228707873E+00  0.53019919827E-01  0.11891358634E+00  0.19195523669E-01 0.  0.
         14    1    1    2    0    0  0.33275165727E-01  0.19868714455E-01  0.55885023395E-02  0.39156529809E-01  0.00000000000E+00 0. -1.
     999901    1    1    2    0    0 -0.10954446353E-01  0.82418364278E-01 -0.58608422166E-01  0.88585988385E+00  0.88000000000E+00 0. -1.
        -11    1    3    3    0    0  0.12691649837E-02 -0.34172643783E-01  0.20073589480E-01  0.39655900929E-01  0.51100000000E-03 0. -1.
         11    1    3    3    0    0 -0.23589884358E-01 -0.68114434950E-01  0.32946330347E-01  0.79257685412E-01  0.51100000000E-03 0.  1.
</event>
<event>
 8    1  0.5489035E+004  0.1043930E+01  0.7957747E-01            NaN
         13   -1    0    0    0    0  0.00000000000E+00  0.00000000000E+00  0.74505805969E-08  0.10566000000E+00  0.10566000000E+00 0. -1.
     999900   -1    0    0    0    0 -0.00000000000E+00 -0.00000000000E+00 -0.74505805969E-08  0.93827000000E+00  0.93827000000E+00 0. -1.
     999902    2    1    2    0    0  0.44640652392E-02 -0.12506995127E-01 -0.18456514136E-01  0.10211924601E+01  0.10209392954E+01 0.  0.
     999903    2    3    3    0    0 -0.15881697810E-01  0.93460382935E-01 -0.89283257224E-01  0.13177722368E+00  0.20165940488E-01 0.  0.
         14    1    1    2    0    0 -0.44640652392E-02  0.12506995127E-01  0.18456514136E-01  0.22737539876E-01  0.00000000000E+00 0. -1.
     999901    1    3    3    0    0  0.20345763049E-01 -0.10596737806E+00  0.70826743088E-01  0.88941523645E+00  0.88000000000E+00 0. -1.
        -11    1    4    4    0    0 -0.28262705969E-02  0.91757885609E-02 -0.21590927608E-02  0.98542226355E-02  0.51100000000E-03 0. -1.
         11    1    4    4    0    0 -0.13055427213E-01  0.84284594374E-01 -0.87124164463E-01  0.12192300104E+00  0.51100000000E-03 0.  1.
</event>
<event>
 8    1  0.5489035E+004  0.1043930E+01  0.7957747E-01            NaN
         13   -1    0    0    0    0  0.00000000000E+00  0.00000000000E+00  0.74505805969E-08  0.10566000000E+00  0.10566000000E+00 0. -1.
     999900   -1    0    0    0    0 -0.00000000000E+00 -0.00000000000E+00 -0.74505805969E-08  0.93827000000E+00  0.93827000000E+00 0.  1.
     999902    2    1    2    0    0  0.17290780779E-02  0.24962989008E-01  0.60291615196E-03  0.10188999373E+01  0.10185924495E+01 0.  0.
     999903    2    3    3    0    0  0.10594123208E+00 -0.23323397569E-01  0.66202277165E-01  0.12901509961E+00  0.22240253954E-01 0.  0.
         14    1    1    2    0    0 -0.17290780779E-02 -0.24962989008E-01 -0.60291615196E-03  0.25030062707E-01  0.00000000000E+00 0.  1.
     999901    1    3    3    0    0 -0.10421215401E+00  0.48286386578E-01 -0.65599361013E-01  0.88988483768E+00  0.88000000000E+00 0.  1.
        -11    1    4    4    0    0  0.76193625916E-01 -0.83275818123E-02  0.38984423852E-01  0.85993393195E-01  0.51100000000E-03 0.  1.
         11    1    4    4    0    0  0.29747606169E-01 -0.14995815757E-01  0.27217853313E-01  0.43021706416E-01  0.51100000000E-03 0. -1.
</event>
<event>
 8    1  0.5489035E+004  0.1043930E+01  0.7957747E-01            NaN
         13   -1    0    0    0    0  0.00000000000E+00  0.00000000000E+00  0.74505805969E-08  0.10566000000E+00  0.10566000000E+00 0.  1.
     999900   -1    0    0    0    0 -0.00000000000E+00 -0.00000000000E+00 -0.74505805969E-08  0.93827000000E+00  0.93827000000E+00 0. -1.
     999902    2    1    2    0    0  0.20058368003E-01  0.10838798220E-01 -0.53300354994E-02  0.10205157532E+01  0.10202471150E+01 0.  0.
     999903    2    3    3    0    0  0.66608226228E-01 -0.10581111066E+00 -0.33966781112E-01  0.13113723215E+00  0.20262884733E-01 0.  0.
         14    1    1    2    0    0 -0.20058368003E-01 -0.10838798220E-01  0.53300354994E-02  0.23414246779E-01  0.00000000000E+00 0.  1.
     999901    1    3    3    0    0 -0.46549858225E-01  0.11664990888E+00  0.28636745613E-01  0.88937852107E+00  0.88000000000E+00 0. -1.
        -11    1    4    4    0    0  0.29466739758E-01 -0.65105224949E-01 -0.16718139910E-01  0.73394389368E-01  0.51100000000E-03 0. -1.
         11    1    4    4    0    0  0.37141486470E-01 -0.40705885706E-01 -0.17248641201E-01  0.57742842783E-01  0.51100000000E-03 0.  1.
</event>
<event>
 8    1  0.5489035E+004  0.1043930E+01  0.7957747E-01            NaN
         13   -1    0    0    0    0  0.00000000000E+00  0.00000000000E+00  0.74505805969E-08  0.10566000000E+00  0.10566000000E+00 0. -1.
     999900   -1    0    0    0    0 -0.00000000000E+00 -0.00000000000E+00 -0.74505805969E-08  0.93827000000E+00  0.93827000000E+00 0. -1.
     999902    2    1    2    0    0 -0.13153018010E-01  0.12418224353E-01  0.14849369762E-01  0.10205266250E+01  0.10202582391E+01 0.  0.
     999903    2    3    3    0    0 -0.56554312812E-01 -0.97598794621E-01  0.64095276274E-01  0.13125019095E+00  0.19861852252E-01 0.  0.
         14    1    1    2    0    0  0.13153018010E-01 -0.12418224353E-01 -0.14849369762E-01  0.23403374996E-01  0.00000000000E+00 0.  1.
     999901    1    3    3    0    0  0.43401294802E-01  0.11001701897E+00 -0.49245906512E-01  0.88927643405E+00  0.88000000000E+00 0.  1.
        -11    1    4    4    0    0 -0.24980298816E-01 -0.56297845839E-01  0.43128549305E-01  0.75191726016E-01  0.51100000000E-03 0.  1.
         11    1    4    4    0    0 -0.31574013996E-01 -0.41300948782E-01  0.20966726969E-01  0.56058464935E-01  0.51100000000E-03 0. -1.
</event>
<event>
 8    1  0.5489035E+004  0.1043930E+01  0.7957747E-01            NaN
         13   -1    0    0    0    0  0.00000000000E+00  0.00000000000E+00  0.74505805969E-08  0.10566000000E+00  0.10566000000E+00 0. -1.
     999900   -1    0    0    0    0 -0.00000000000E+00 -0.00000000000E+00 -0.74505805969E-08  0.93827000000E+00  0.93827000000E+00 0. -1.
     999902    2    1    2    0    0 -0.15260678762E-01  0.73966921252E-02 -0.17518980345E-01  0.10195473413E+01  0.10192557418E+01 0.  0.
     999903    2    3    3    0    0  0.96457603901E-01 -0.81326200734E-01  0.20299997822E-02  0.12784397754E+00  0.20541212681E-01 0.  0.
         14    1    1    2    0    0  0.15260678762E-01 -0.73966921252E-02  0.17518980345E-01  0.24382658653E-01  0.00000000000E+00 0. -1.
     999901    1    3    3    0    0 -0.11171828266E+00  0.88722892859E-01 -0.19548980127E-01  0.89170336381E+00  0.88000000000E+00 0.  1.
        -11    1    4    4    0    0  0.39778039496E-01 -0.24700123722E-01 -0.64820455060E-02  0.47272260079E-01  0.51100000000E-03 0.  1.
         11    1    4    4    0    0  0.56679564405E-01 -0.56626077012E-01  0.85120452882E-02  0.80571717462E-01  0.51100000000E-03 0. -1.
</event>
<event>
 8    1  0.5489035E+004  0.1043930E+01  0.7957747E-01            NaN
         13   -1    0    0    0    0  0.00000000000E+00  0.00000000000E+00  0.74505805969E-08  0.10566000000E+00  0.10566000000E+00 0. -1.
     999900   -1    0    0    0    0 -0.00000000000E+00 -0.00000000000E+00 -0.74505805969E-08  0.93827000000E+00  0.93827000000E+00 0. -1.
     999902    2    1    2    0    0  0.11107085585E-01 -0.15048217630E-01 -0.14901494741E-01  0.10200161808E+01  0.10197358179E+01 0.  0.
     999903    2    3    3    0    0 -0.30894534468E-02  0.12285061077E+00 -0.31821451910E-01  0.12900332255E+00  0.22965956060E-01 0.  0.
         14    1    1    2    0    0 -0.11107085585E-01  0.15048217630E-01  0.14901494741E-01  0.23913819217E-01  0.00000000000E+00 0. -1.
     999901    1    3    3    0    0  0.14196539032E-01 -0.13789882840E+00  0.16919957169E-01  0.89101285824E+00  0.88000000000E+00 0.  1.
        -11    1    4    4    0    0  0.43311196302E-02  0.37629220170E-01 -0.44022529266E-03  0.37883660424E-01  0.51100000000E-03 0. -1.
         11    1    4    4    0    0 -0.74205730770E-02  0.85221390597E-01 -0.31381226617E-01  0.91119662121E-01  0.51100000000E-03 0.  1.
</event>
<event>
 8    1  0.5489035E+004  0.1043930E+01  0.7957747E-01            NaN
         13   -1    0    0    0    0  0.00000000000E+00  0.00000000000E+00  0.74505805969E-08  0.10566000000E+00  0.10566000000E+00 0. -1.
     999900   -1    0    0    0    0 -0.00000000000E+00 -0.00000000000E+00 -0.74505805969E-08  0.93827000000E+00  0.93827000000E+00 0. -1.
     999902    2    1    2    0    0  0.11357433522E-01 -0.56137955453E-02 -0.19493268392E-01  0.10206814837E+01  0.10204166785E+01 0.  0.
     999903    2    3    3    0    0 -0.10449037901E+00 -0.37091177824E-01 -0.67087953327E-01  0.13125650358E+00  0.20820217899E-01 0.  0.
         14    1    1    2    0    0 -0.11357433522E-01  0.56137955453E-02  0.19493268392E-01  0.23248516280E-01  0.00000000000E+00 0. -1.
     999901    1    3    3    0    0  0.11584781253E+00  0.31477382279E-01  0.47594684936E-01  0.88942498014E+00  0.88000000000E+00 0. -1.
        -11    1    4    4    0    0 -0.59902090593E-01 -0.21761655878E-01 -0.50342929562E-01  0.81218851271E-01  0.51100000000E-03 0.  1.
         11    1    4    4    0    0 -0.44588288413E-01 -0.15329521947E-01 -0.16745023765E-01  0.50037652309E-01  0.51100000000E-03 0. -1.
</event>
<event>
 8    1  0.5489035E+004  0.1043930E+01  0.7957747E-01            NaN
         13   -1    0    0    0    0  0.00000000000E+00  0.00000000000E+00  0.74505805969E-08  0.10566000000E+00  0.10566000000E+00 0.  1.
     999900   -1    0    0    0    0 -0.00000000000E+00 -0.00000000000E+00 -0.74505805969E-08  0.93827000000E+00  0.93827000000E+00 0. -1.
     999902    2    1    2    0    0 -0.17628361452E-01  0.13661704764E-01 -0.69256804135E-02  0.10205769198E+01  0.10203096995E+01 0.  0.
     999903    2    3    3    0    0 -0.11385985930E+00 -0.10663703242E-01  0.63420219780E-01  0.13220719256E+00  0.19463693352E-01 0.  0.
         14    1    1    2    0    0  0.17628361452E-01 -0.13661704764E-01  0.69256804135E-02  0.23353080176E-01  0.00000000000E+00 0.  1.
     999901    1    3    3    0    0  0.96231497852E-01  0.24325408005E-01 -0.70345900193E-01  0.88836972727E+00  0.88000000000E+00 0. -1.
        -11    1    4    4    0    0 -0.68732106986E-01 -0.27814232913E-03  0.46106888465E-01  0.82766455638E-01  0.51100000000E-03 0.  1.
         11    1    4    4    0    0 -0.45127752318E-01 -0.10385560913E-01  0.17313331314E-01  0.49440736918E-01  0.51100000000E-03 0. -1.
</event>
<event>
 8    1  0.5489035E+004  0.1043930E+01  0.7957747E-01            NaN
         13   -1    0    0    0    0  0.00000000000E+00  0.00000000000E+00  0.74505805969E-08  0.10566000000E+00  0.10566000000E+00 0. -1.
     999900   -1    0    0    0    0 -0.00000000000E+00 -0.00000000000E+00 -0.74505805969E-08  0.93827000000E+00  0.93827000000E+00 0.  1.
     999902    2    1    2    0    0 -0.14696254286E-01 -0.10496600889E-01 -0.15611433823E-01  0.10200579371E+01  0.10197785640E+01 0.  0.
     999903    2    3    3    0    0  0.56652897749E-01 -0.10980846204E+00  0.35536292735E-01  0.13013117766E+00  0.20095923437E-01 0.  0.
         14    1    1    2    0    0  0.14696254286E-01  0.10496600889E-01  0.15611433823E-01  0.23872062882E-01  0.00000000000E+00 0. -1.
     999901    1    3    3    0    0 -0.71349152035E-01  0.99311861155E-01 -0.51147726557E-01  0.88992675946E+00  0.88000000000E+00 0. -1.
        -11    1    4    4    0    0  0.24086130492E-01 -0.54757302612E-01  0.26876724084E-01  0.65582949689E-01  0.51100000000E-03 0. -1.
         11    1    4    4    0    0  0.32566767256E-01 -0.55051159432E-01  0.86595686510E-02  0.64548227974E-01  0.51100000000E-03 0.  1.
</event>
<event>
 8    1  0.5489035E+004  0.1043930E+01  0.7957747E-01            NaN
         13   -1    0    0    0    0  0.00000000000E+00  0.00000000000E+00  0.74505805969E-08  0.10566000000E+00  0.10566000000E+00 0. -1.
     999900   -1    0    0    0    0 -0.00000000000E+00 -0.00000000000E+00 -0.74505805969E-08  0.93827000000E+00  0.93827000000E+00 0. -1.
     999902    2    1    2    0    0 -0.77227802004E-02 -0.14159162930E-01  0.16700615465E-01  0.10207128989E+01  0.10204488170E+01 0.  0.
     999903    2    3    3    0    0 -0.13004544996E+00 -0.67499126632E-02  0.13048621405E-01  0.13221356312E+00  0.18782422055E-01 0.  0.
         14    1    1    2    0    0  0.77227802004E-02  0.14159162930E-01 -0.16700615465E-01  0.23217101150E-01  0.00000000000E+00 0.  1.
     999901    1    3    3    0    0  0.12232266975E+00 -0.74092502666E-02  0.36519940606E-02  0.88849933573E+00  0.88000000000E+00 0. -1.
        -11    1    4    4    0    0 -0.11793270174E+00 -0.82518508390E-03  0.13536266888E-01  0.11871097133E+00  0.51100000000E-03 0.  1.
         11    1    4    4    0    0 -0.12112748211E-01 -0.59247275793E-02 -0.48764548312E-03  0.13502591797E-01  0.51100000000E-03 0. -1.
</event>
<event>
 8    1  0.5489035E+004  0.1043930E+01  0.7957747E-01            NaN
         13   -1    0    0    0    0  0.00000000000E+00  0.00000000000E+00  0.74505805969E-08  0.10566000000E+00  0.10566000000E+00 0.  1.
     999900   -1    0    0    0    0 -0.00000000000E+00 -0.00000000000E+00 -0.74505805969E-08  0.93827000000E+00  0.93827000000E+00 0. -1.
     999902    2    1    2    0    0  0.17630653276E-01  0.15356772194E-01 -0.88844734443E-02  0.10189179178E+01  0.10186108771E+01 0.  0.
     999903    2    3    3    0    0 -0.51591296398E-01 -0.14888504377E-01  0.11356456291E+00  0.12723399310E+00  0.20205188074E-01 0.  0.
         14    1    1    2    0    0 -0.17630653276E-01 -0.15356772194E-01  0.88844734443E-02  0.25012082191E-01  0.00000000000E+00 0.  1.
     999901    1    3    3    0    0  0.69221949674E-01  0.30245276571E-01 -0.12244903636E+00  0.89168392470E+00  0.88000000000E+00 0. -1.
        -11    1    4    4    0    0 -0.30607184306E-01  0.58869425218E-03  0.51515805205E-01  0.59927335991E-01  0.51100000000E-03 0.  1.
         11    1    4    4    0    0 -0.20984112091E-01 -0.15477198629E-01  0.62048757708E-01  0.67306657113E-01  0.51100000000E-03 0. -1.
</event>
<event>
 8    1  0.5489035E+004  0.1043930E+01  0.7957747E-01            NaN
         13   -1    0    0    0    0  0.00000000000E+00  0.00000000000E+00  0.74505805969E-08  0.10566000000E+00  0.10566000000E+00 0.  1.
     999900   -1    0    0    0    0 -0.00000000000E+00 -0.00000000000E+00 -0.74505805969E-08  0.93827000000E+00  0.93827000000E+00 0. -1.
     999902    2    1    2    0    0 -0.13977817327E-01 -0.18824936158E-01 -0.29977664773E-03  0.10204811735E+01  0.10202117319E+01 0.  0.
     999903    2    3    3    0    0  0.37061714276E-01 -0.12539634056E+00  0.58664973059E-02  0.13256196492E+00  0.20986802050E-01 0.  0.
         14    1    1    2    0    0  0.13977817327E-01  0.18824936158E-01  0.29977664773E-03  0.23448826508E-01  0.00000000000E+00 0. -1.
     999901    1    3    3    0    0 -0.51039531603E-01  0.10657140440E+00 -0.61662739536E-02  0.88791920858E+00  0.88000000000E+00 0.  1.
        -11    1    4    4    0    0  0.14158438893E-02 -0.19234147679E-01 -0.53300777943E-02  0.20015691373E-01  0.51100000000E-03 0. -1.
         11    1    4    4    0    0  0.35645870387E-01 -0.10616219288E+00  0.11196575100E-01  0.11254627354E+00  0.51100000000E-03 0.  1.
</event>
<event>
 8    1  0.5489035E+004  0.1043930E+01  0.7957747E-01            NaN
         13   -1    0    0    0    0  0.00000000000E+00  0.00000000000E+00  0.74505805969E-08  0.10566000000E+00  0.10566000000E+00 0.  1.
     999900   -1    0    0    0    0 -0.00000000000E+00 -0.00000000000E+00 -0.74505805969E-08  0.93827000000E+00  0.93827000000E+00 0. -1.
     999902    2    1    2    0    0 -0.10394095151E-01 -0.21142477584E-01  0.75953256634E-02  0.10191766054E+01  0.10188759603E+01 0.  0.
     999903    2    3    3    0    0  0.11576280284E+00  0.45156161801E-01  0.20777309085E-01  0.12761346283E+00  0.20332089234E-01 0.  0.
         14    1    1    2    0    0  0.10394095151E-01  0.21142477584E-01 -0.75953256634E-02  0.24753394602E-01  0.00000000000E+00 0. -1.
     999901    1    3    3    0    0 -0.12615689799E+00 -0.66298639385E-01 -0.13181983422E-01  0.89156314257E+00  0.88000000000E+00 0. -1.
        -11    1    4    4    0    0  0.36365235982E-02  0.46798381876E-02 -0.19434884217E-02  0.62580713952E-02  0.51100000000E-03 0.  1.
         11    1    4    4    0    0  0.11212627924E+00  0.40476323613E-01  0.22720797507E-01  0.12135539144E+00  0.51100000000E-03 0. -1.
</event>
<event>
 8    1  0.5489035E+004  0.1043930E+01  0.7957747E-01            NaN
         13   -1    0    0    0    0  0.00000000000E+00  0.00000000000E+00  0.74505805969E-08  0.10566000000E+00  0.10566000000E+00 0. -1.
     999900   -1    0    0    0    0 -0.00000000000E+00 -0.00000000000E+00 -0.74505805969E-08  0.93827000000E+00  0.93827000000E+00 0.  1.
     999902    2    1    2    0    0  0.17979522667E-01 -0.84699839437E-02 -0.13137890669E-01  0.10201054741E+01  0.10198272257E+01 0.  0.
     999903    2    3    3    0    0 -0.12282060204E+00  0.23081240968E-01  0.17983682676E-01  0.12781140416E+00  0.19867013428E-01 0.  0.
         14    1    1    2    0    0 -0.17979522667E-01  0.84699839437E-02  0.13137890669E-01  0.23824525904E-01  0.00000000000E+00 0.  1.
     999901    1    3    3    0    0  0.14080012470E+00 -0.31551224912E-01 -0.31121573345E-01  0.89229406993E+00  0.88000000000E+00 0.  1.
        -11    1    4    4    0    0 -0.27345910150E-01  0.71302200066E-02  0.12359119624E-01  0.30848789250E-01  0.51100000000E-03 0. -1.
         11    1    4    4    0    0 -0.95474691885E-01  0.15951020962E-01  0.56245630520E-02  0.96962614914E-01  0.51100000000E-03 0.  1.
</event>
<event>
 8    1  0.5489035E+004  0.1043930E+01  0.7957747E-01            NaN
         13   -1    0    0    0    0  0.00000000000E+00  0.00000000000E+00  0.74505805969E-08  0.10566000000E+00  0.10566000000E+00 0.  1.
     999900   -1    0    0    0    0 -0.00000000000E+00 -0.00000000000E+00 -0.74505805969E-08  0.93827000000E+00  0.93827000000E+00 0. -1.
     999902    2    1    2    0    0 -0.68038819852E-02 -0.20797745271E-01 -0.75923414399E-02  0.10207679045E+01  0.10205050868E+01 0.  0.
     999903    2    3    3    0    0 -0.68100316658E-01  0.34437787997E-01  0.10332002297E+00  0.12997625121E+00  0.19879244462E-01 0.  0.
         14    1    1    2    0    0  0.68038819852E-02  0.20797745271E-01  0.75923414399E-02  0.23162095478E-01  0.00000000000E+00 0.  1.
     999901    1    3    3    0    0  0.61296434673E-01 -0.55235533268E-01 -0.11091236441E+00  0.89079165332E+00  0.88000000000E+00 0.  1.
        -11    1    4    4    0    0 -0.62235327724E-01  0.26323548990E-01  0.80851012807E-01  0.10537225746E+00  0.51100000000E-03 0.  1.
         11    1    4    4    0    0 -0.58649889339E-02  0.81142390071E-02  0.22469010160E-01  0.24603993750E-01  0.51100000000E-03 0. -1.
</event>
<event>
 7    1  0.5489035E+004  0.1043930E+01  0.7957747E-01            NaN
         13   -1    0    0    0    0  0.00000000000E+00  0.00000000000E+00  0.74505805969E-08  0.10566000000E+00  0.10566000000E+00 0. -1.
     999900   -1    0    0    0    0 -0.00000000000E+00 -0.00000000000E+00 -0.74505805969E-08  0.93827000000E+00  0.93827000000E+00 0.  1.
     999903    2    1    2    0    0 -0.21413555538E-01 -0.10102362225E+00 -0.13554182282E-02  0.10535264081E+00  0.20809352549E-01 0.  0.
         14    1    1    2    0    0  0.55244956755E-02 -0.44039174335E-01  0.13776177118E-01  0.46473131856E-01  0.00000000000E+00 0.  1.
     999901    1    1    2    0    0  0.15889059862E-01  0.14506279659E+00 -0.12420758890E-01  0.89210422733E+00  0.88000000000E+00 0.  1.
        -11    1    3    3    0    0 -0.69615421625E-02 -0.69643129571E-01 -0.70043763242E-02  0.70341673099E-01  0.51100000000E-03 0.  1.
         11    1    3    3    0    0 -0.14452013376E-01 -0.31380492680E-01  0.56489580960E-02  0.35010967710E-01  0.51100000000E-03 0. -1.
</event>
<event>
 8    1  0.5489035E+004  0.1043930E+01  0.7957747E-01            NaN
         13   -1    0    0    0    0  0.00000000000E+00  0.00000000000E+00  0.74505805969E-08  0.10566000000E+00  0.10566000000E+00 0.  1.
     999900   -1    0    0    0    0 -0.00000000000E+00 -0.00000000000E+00 -0.74505805969E-08  0.93827000000E+00  0.93827000000E+00 0.  1.
     999902    2    1    2    0    0 -0.10204011624E-01  0.87906785010E-02 -0.19356094517E-01  0.10203491545E+01  0.10200766347E+01 0.  0.
     999903    2    3    3    0    0  0.12720455583E+00  0.11060616047E-01 -0.82823587130E-02  0.12961412390E+00  0.20685439297E-01 0.  0.
         14    1    1    2    0    0  0.10204011624E-01 -0.87906785010E-02  0.19356094517E-01  0.23580845546E-01  0.00000000000E+00 0.  1.
     999901    1    3    3    0    0 -0.13740856745E+00 -0.22699375457E-02 -0.11073735804E-01  0.89073503055E+00  0.88000000000E+00 0. -1.
        -11    1    4    4    0    0  0.87718639000E-01  0.14132192509E-01  0.13090356023E-02  0.88860864211E-01  0.51100000000E-03 0.  1.
         11    1    4    4    0    0  0.39485916827E-01 -0.30715764625E-02 -0.95913943154E-02  0.40753259692E-01  0.51100000000E-03 0. -1.
</event>
<event>
 8    1  0.5489035E+004  0.1043930E+01  0.7957747E-01            NaN
         13   -1    0    0    0    0  0.00000000000E+00  0.00000000000E+00  0.74505805969E-08  0.10566000000E+00  0.10566000000E+00 0.  1.
     999900   -1    0    0    0    0 -0.00000000000E+00 -0.00000000000E+00 -0.74505805969E-08  0.93827000000E+00  0.93827000000E+00 0.  1.
     999902    2    1    2    0    0  0.22665552880E-01 -0.37091511093E-02  0.13097980237E-02  0.10209256382E+01  0.10206664284E+01 0.  0.
     999903    2    3    3    0    0 -0.63064405727E-01  0.36046627901E-01 -0.10531200472E+00  0.12946708250E+00  0.19865257627E-01 0.  0.
         14    1    1    2    0    0 -0.22665552880E-01  0.37091511093E-02 -0.13097980237E-02  0.23004361764E-01  0.00000000000E+00 0. -1.
     999901    1    3    3    0    0  0.85729958607E-01 -0.39755779010E-01  0.10662180275E+00  0.89145855573E+00  0.88000000000E+00 0. -1.
        -11    1    4    4    0    0 -0.47501406695E-01  0.17322730422E-01 -0.77057138900E-01  0.92165744199E-01  0.51100000000E-03 0.  1.
         11    1    4    4    0    0 -0.15562999032E-01  0.18723897479E-01 -0.28254865823E-01  0.37301338305E-01  0.51100000000E-03 0. -1.
</event>
<event>
 8    1  0.5489035E+004  0.1043930E+01  0.7957747E-01            NaN
         13   -1    0    0    0    0  0.00000000000E+00  0.00000000000E+00  0.74505805969E-08  0.10566000000E+00  0.10566000000E+00 0. -1.
     999900   -1    0    0    0    0 -0.00000000000E+00 -0.00000000000E+00 -0.74505805969E-08  0.93827000000E+00  0.93827000000E+00 0.  1.
     999902    2    1    2    0    0 -0.57474845954E-02 -0.10442155655E-01 -0.21399701269E-01  0.10194347064E+01  0.10191403737E+01 0.  0.
     999903    2    3    3    0    0  0.95011234013E-01  0.82533462377E-01 -0.19250596626E-01  0.12881615530E+00  0.19598709011E-01 0.  0.
         14    1    1    2    0    0  0.57474845954E-02  0.10442155655E-01  0.21399701269E-01  0.24495293595E-01  0.00000000000E+00 0. -1.
     999901    1    3    3    0    0 -0.10075871861E+00 -0.92975618031E-01 -0.21491046432E-02  0.89061855111E+00  0.88000000000E+00 0. -1.
        -11    1    4    4    0    0  0.45761548427E-01  0.43559957489E-01 -0.19113625154E-01  0.66008946351E-01  0.51100000000E-03 0. -1.
         11    1    4    4    0    0  0.49249685586E-01  0.38973504888E-01 -0.13697147155E-03  0.62807208947E-01  0.51100000000E-03 0.  1.
</event>
<event>
 8    1  0.5489035E+004  0.1043930E+01  0.7957747E-01            NaN
         13   -1    0    0    0    0  0.00000000000E+00  0.00000000000E+00  0.74505805969E-08  0.10566000000E+00  0.10566000000E+00 0.  1.
     999900   -1    0    0    0    0 -0.00000000000E+00 -0.00000000000E+00 -0.74505805969E-08  0.93827000000E+00  0.93827000000E+00 0. -1.
     999902    2    1    2    0    0 -0.53052772015E-02 -0.17082942272E-01  0.14300420545E-01  0.10210285828E+01  0.10207717139E+01 0.  0.
     999903    2    3    3    0    0  0.79231307089E-01 -0.42436147427E-01 -0.91991290364E-01  0.13024962765E+00  0.20594692737E-01 0.  0.
         14    1    1    2    0    0  0.53052772015E-02  0.17082942272E-01 -0.14300420545E-01  0.22901417219E-01  0.00000000000E+00 0. -1.
     999901    1    3    3    0    0 -0.84536584290E-01  0.25353205155E-01  0.10629171091E+00  0.89077895513E+00  0.88000000000E+00 0.  1.
        -11    1    4    4    0    0  0.72409600182E-02 -0.68908177533E-03 -0.17612191814E-02  0.75012898680E-02  0.51100000000E-03 0.  1.
         11    1    4    4    0    0  0.71990347070E-01 -0.41747065652E-01 -0.90230071183E-01  0.12274833778E+00  0.51100000000E-03 0. -1.
</event>
<event>
 8    1  0.5489035E+004  0.1043930E+01  0.7957747E-01            NaN
         13   -1    0    0    0    0  0.00000000000E+00  0.00000000000E+00  0.74505805969E-08  0.10566000000E+00  0.10566000000E+00 0.  1.
     999900   -1    0    0    0    0 -0.00000000000E+00 -0.00000000000E+00 -0.74505805969E-08  0.93827000000E+00  0.93827000000E+00 0.  1.
     999902    2    1    2    0    0  0.12523035934E-01  0.13814942104E-01 -0.12513807385E-01  0.10214739445E+01  0.10212270780E+01 0.  0.
     999903    2    3    3    0    0  0.44905830836E-01 -0.10746757517E+00 -0.57723630253E-01  0.13141663032E+00  0.19300255917E-01 0.  0.
         14    1    1    2    0    0 -0.12523035934E-01 -0.13814942104E-01  0.12513807385E-01  0.22456055522E-01  0.00000000000E+00 0.  1.
     999901    1    3    3    0    0 -0.32382794902E-01  0.12128251728E+00  0.45209822868E-01  0.89005731416E+00  0.88000000000E+00 0.  1.
        -11    1    4    4    0    0  0.33050985503E-01 -0.60663781435E-01 -0.26928115713E-01  0.74147464943E-01  0.51100000000E-03 0. -1.
         11    1    4    4    0    0  0.11854845333E-01 -0.46803793739E-01 -0.30795514540E-01  0.57269165377E-01  0.51100000000E-03 0.  1.
</event>
<event>
 8    1  0.5489035E+004  0.1043930E+01  0.7957747E-01            NaN
         13   -1    0    0    0    0  0.00000000000E+00  0.00000000000E+00  0.74505805969E-08  0.10566000000E+00  0.10566000000E+00 0. -1.
     999900   -1    0    0    0    0 -0.00000000000E+00 -0.00000000000E+00 -0.74505805969E-08  0.93827000000E+00  0.93827000000E+00 0.  1.
     999902    2    1    2    0    0 -0.20975185342E-01  0.11928837579E-01  0.49477876052E-02  0.10192979849E+01  0.10190003169E+01 0.  0.
     999903    2    3    3    0    0  0.15166417581E-01  0.12596517890E+00 -0.23836654571E-01  0.13073788748E+00  0.20663073401E-01 0.  0.
         14    1    1    2    0    0  0.20975185342E-01 -0.11928837579E-01 -0.49477876052E-02  0.24632015109E-01  0.00000000000E+00 0.  1.
     999901    1    3    3    0    0 -0.36141602923E-01 -0.11403634132E+00  0.28784442176E-01  0.88856009741E+00  0.88000000000E+00 0.  1.
        -11    1    4    4    0    0  0.12093509347E-01  0.96583291250E-01 -0.27022398425E-01  0.10102007847E+00  0.51100000000E-03 0. -1.
         11    1    4    4    0    0  0.30729082339E-02  0.29381887654E-01  0.31857438542E-02  0.29717809005E-01  0.51100000000E-03 0.  1.
</event>
<event>
 8    1  0.5489035E+004  0.1043930E+01  0.7957747E-01            NaN
         13   -1    0    0    0    0  0.00000000000E+00  0.00000000000E+00  0.74505805969E-08  0.10566000000E+00  0.10566000000E+00 0.  1.
     999900   -1    0    0    0    0 -0.00000000000E+00 -0.00000000000E+00 -0.74505805969E-08  0.93827000000E+00  0.93827000000E+00 0. -1.
     999902    2    1    2    0    0  0.10476268589E-01  0.76430394439E-03  0.20953190570E-01  0.10204913021E+01  0.10202220960E+01 0.  0.
     999903    2    3    3    0    0 -0.76708287838E-01  0.85097715737E-01 -0.56268327828E-01  0.12882071600E+00  0.17403146451E-01 0.  0.
         14    1    1    2    0    0 -0.10476268589E-01 -0.76430394439E-03 -0.20953190570E-01  0.23438697898E-01  0.00000000000E+00 0. -1.
     999901    1    3    3    0    0  0.87184556427E-01 -0.84333411792E-01  0.77221518398E-01  0.89167058611E+00  0.88000000000E+00 0.  1.
        -11    1    4    4    0    0 -0.27462811842E-01  0.42574971748E-01 -0.27890568300E-01  0.57835794926E-01  0.51100000000E-03 0.  1.
         11    1    4    4    0    0 -0.49245475996E-01  0.42522743988E-01 -0.28377759527E-01  0.70984921069E-01  0.51100000000E-03 0. -1.
</event>
<event>
 8    1  0.5489035E+004  0.1043930E+01  0.7957747E-01            NaN
         13   -1    0    0    0    0  0.00000000000E+00  0.00000000000E+00  0.74505805969E-08  0.10566000000E+00  0.10566000000E+00 0.  1.
     999900   -1    0    0    0    0 -0.00000000000E+00 -0.00000000000E+00 -0.74505805969E-08  0.93827000000E+00  0.93827000000E+00 0. -1.
     999902    2    1    2    0    0 -0.94450031791E-02  0.15768571147E-01 -0.15166299040E-01  0.10200999235E+01  0.10198215439E+01 0.  0.
     999903    2    3    3    0    0 -0.36817942549E-01  0.86060196850E-01  0.89037950410E-01  0.13074694739E+00  0.20126829425E-01 0.  0.
         14    1    1    2    0    0  0.94450031791E-02 -0.15768571147E-01  0.15166299040E-01  0.23830076535E-01  0.00000000000E+00 0.  1.
     999901    1    3    3    0    0  0.27372939370E-01 -0.70291625703E-01 -0.10420424945E+00  0.88935297608E+00  0.88000000000E+00 0. -1.
        -11    1    4    4    0    0 -0.22224984063E-01  0.43902151951E-01  0.59621969374E-01  0.77307109735E-01  0.51100000000E-03 0. -1.
         11    1    4    4    0    0 -0.14592958486E-01  0.42158044899E-01  0.29415981035E-01  0.53439837653E-01  0.51100000000E-03 0.  1.
</event>
<event>
 8    1  0.5489035E+004  0.1043930E+01  0.7957747E-01            NaN
         13   -1    0    0    0    0  0.00000000000E+00  0.00000000000E+00  0.74505805969E-08  0.10566000000E+00  0.10566000000E+00 0.  1.
     999900   -1    0    0    0    0 -0.00000000000E+00 -0.00000000000E+00 -0.74505805969E-08  0.93827000000E+00  0.93827000000E+00 0. -1.
     999902    2    1    2    0    0 -0.17582933617E-01 -0.11405436846E-01 -0.11252660668E-01  0.10201420636E+01  0.10198646793E+01 0.  0.
     999903    2    3    3    0    0  0.10720081950E+00 -0.67948442532E-01  0.13252092717E-01  0.12920515259E+00  0.20232324373E-01 0.  0.
         14    1    1    2    0    0  0.17582933617E-01  0.11405436846E-01  0.11252660668E-01  0.23787936362E-01  0.00000000000E+00 0.  1.
     999901    1    3    3    0    0 -0.12478375312E+00  0.56543005686E-01 -0.24504753385E-01  0.89093691105E+00  0.88000000000E+00 0.  1.
        -11    1    4    4    0    0  0.39708609674E-01 -0.36300239079E-01  0.88858575322E-02  0.54531647917E-01  0.51100000000E-03 0. -1.
         11    1    4    4    0    0  0.67492209827E-01 -0.31648203454E-01  0.43662351853E-02  0.74673504671E-01  0.51100000000E-03 0.  1.
</event>
<event>
 8    1  0.5489035E+004  0.1043930E+01  0.7957747E-01            NaN
         13   -1    0    0    0    0  0.00000000000E+00  0.00000000000E+00  0.74505805969E-08  0.10566000000E+00  0.10566000000E+00 0. -1.
     999900   -1    0    0    0    0 -0.00000000000E+00 -0.00000000000E+00 -0.74505805969E-08  0.93827000000E+00  0.93827000000E+00 0.  1.
     999902    2    1    2    0    0  0.22033251055E-01 -0.69219278864E-02  0.46293142310E-02  0.10203756418E+01  0.10201037411E+01 0.  0.
     999903    2    3    3    0    0  0.87454298538E-01 -0.19372399784E-01 -0.95412117303E-01  0.13220718050E+00  0.18754259307E-01 0.  0.
         14    1    1    2    0    0 -0.22033251055E-01  0.69219278864E-02 -0.46293142310E-02  0.23554358152E-01  0.00000000000E+00 0. -1.
     999901    1    3    3    0    0 -0.65421047483E-01  0.12450471897E-01  0.10004143153E+00  0.88816846134E+00  0.88000000000E+00 0. -1.
        -11    1    4    4    0    0  0.18643609709E-01 -0.14900873905E-03 -0.30078918472E-01  0.35392214455E-01  0.51100000000E-03 0.  1.
         11    1    4    4    0    0  0.68810688829E-01 -0.19223391045E-01 -0.65333198831E-01  0.96814966048E-01  0.51100000000E-03 0. -1.
</event>
<event>
 8    1  0.5489035E+004  0.1043930E+01  0.7957747E-01            NaN
         13   -1    0    0    0    0  0.00000000000E+00  0.00000000000E+00  0.74505805969E-08  0.10566000000E+00  0.10566000000E+00 0. -1.
     999900   -1    0    0    0    0 -0.00000000000E+00 -0.00000000000E+00 -0.74505805969E-08  0.93827000000E+00  0.93827000000E+00 0.  1.
     999902    2    1    2    0    0  0.90869350473E-03 -0.19133766030E-01  0.14869805008E-01  0.10196805087E+01  0.10193921238E+01 0.  0.
     999903    2    3    3    0    0 -0.12550791261E-01  0.83336987977E-01 -0.92954050140E-01  0.12709583660E+00  0.20256364887E-01 0.  0.
         14    1    1    2    0    0 -0.90869350473E-03  0.19133766030E-01 -0.14869805008E-01  0.24249491280E-01  0.00000000000E+00 0.  1.
     999901    1    3    3    0    0  0.13459484766E-01 -0.10247075401E+00  0.10782385515E+00  0.89258467212E+00  0.88000000000E+00 0. -1.
        -11    1    4    4    0    0 -0.11782785929E-01  0.67764701000E-01 -0.62771768670E-01  0.93120592829E-01  0.51100000000E-03 0.  1.
         11    1    4    4    0    0 -0.76800533180E-03  0.15572286977E-01 -0.30182281469E-01  0.33975243775E-01  0.51100000000E-03 0. -1.
</event>
<event>
 8    1  0.5489035E+004  0.1043930E+01  0.7957747E-01            NaN
         13   -1    0    0    0    0  0.00000000000E+00  0.00000000000E+00  0.74505805969E-08  0.10566000000E+00  0.10566000000E+00 0.  1.
     999900   -1    0    0    0    0 -0.00000000000E+00 -0.00000000000E+00 -0.74505805969E-08  0.93827000000E+00  0.93827000000E+00 0.  1.
     999902    2    1    2    0    0 -0.72376915002E-02  0.15158375071E-02 -0.21720966850E-01  0.10209847970E+01  0.10207269337E+01 0.  0.
     999903    2    3    3    0    0 -0.70258068852E-01  0.78420804415E-01 -0.79588613328E-01  0.13349699062E+00  0.20026990006E-01 0.  0.
         14    1    1    2    0    0  0.72376915002E-02 -0.15158375071E-02  0.21720966850E-01  0.22945203039E-01  0.00000000000E+00 0.  1.
     999901    1    3    3    0    0  0.63020377352E-01 -0.76904966908E-01  0.57867646478E-01  0.88748780634E+00  0.88000000000E+00 0.  1.
        -11    1    4    4    0    0 -0.51872486463E-01  0.61759764982E-01 -0.70320517898E-01  0.10700588667E+00  0.51100000000E-03 0.  1.
         11    1    4    4    0    0 -0.18385582389E-01  0.16661039433E-01 -0.92680954303E-02  0.26491103953E-01  0.51100000000E-03 0. -1.
</event>
<event>
 8    1  0.5489035E+004  0.1043930E+01  0.7957747E-01            NaN
         13   -1    0    0    0    0  0.00000000000E+00  0.00000000000E+00  0.74505805969E-08  0.10566000000E+00  0.10566000000E+00 0. -1.
     999900   -1    0    0    0    0 -0.00000000000E+00 -0.00000000000E+00 -0.74505805969E-08  0.93827000000E+00  0.93827000000E+00 0. -1.
     999902    2    1    2    0    0 -0.37246513100E-02 -0.51188475315E-02  0.21753124671E-01  0.10212744475E+01  0.10210231256E+01 0.  0.
     999903    2    3    3    0    0  0.42317381308E-01 -0.29479962161E-01 -0.11647988259E+00  0.12896189182E+00  0.20094217157E-01 0.  0.
         14    1    1    2    0    0  0.37246513100E-02  0.51188475315E-02 -0.21753124671E-01  0.22655552529E-01  0.00000000000E+00 0.  1.
     999901    1    3    3    0    0 -0.46042032618E-01  0.24361114629E-01  0.13823300727E+00  0.89231255565E+00  0.88000000000E+00 0.  1.
        -11    1    4    4    0    0  0.42168905306E-01 -0.28317416584E-01 -0.97500872043E-01  0.10993986459E+00  0.51100000000E-03 0. -1.
         11    1    4    4    0    0  0.14847600206E-03 -0.11625455767E-02 -0.18979010552E-01  0.19022027228E-01  0.51100000000E-03 0.  1.
</event>
<event>
 8    1  0.5489035E+004  0.1043930E+01  0.7957747E-01            NaN
         13   -1    0    0    0    0  0.00000000000E+00  0.00000000000E+00  0.74505805969E-08  0.10566000000E+00  0.10566000000E+00 0.  1.
     999900   -1    0    0    0    0 -0.00000000000E+00 -0.00000000000E+00 -0.74505805969E-08  0.93827000000E+00  0.93827000000E+00 0.  1.
     999902    2    1    2    0    0  0.19770924942E-01 -0.62007277381E-02 -0.12369511907E-01  0.10197982093E+01  0.10195126504E+01 0.  0.
     999903    2    3    3    0    0  0.67639774813E-01  0.11822536395E-01  0.10771843013E+00  0.13017054636E+00  0.25023977446E-01 0.  0.
         14    1    1    2    0    0 -0.19770924942E-01  0.62007277381E-02  0.12369511907E-01  0.24131790699E-01  0.00000000000E+00 0.  1.
     999901    1    3    3    0    0 -0.47868849872E-01 -0.18023264133E-01 -0.12008794204E+00  0.88962766294E+00  0.88000000000E+00 0.  1.
        -11    1    4    4    0    0  0.64931789258E-01  0.16997570699E-01  0.97104212619E-01  0.11804466907E+00  0.51100000000E-03 0.  1.
         11    1    4    4    0    0  0.27079855554E-02 -0.51750343039E-02  0.10614217513E-01  0.12125877297E-01  0.51100000000E-03 0. -1.
</event>
<event>
 8    1  0.5489035E+004  0.1043930E+01  0.7957747E-01            NaN
         13   -1    0    0    0    0  0.00000000000E+00  0.00000000000E+00  0.74505805969E-08  0.10566000000E+00  0.10566000000E+00 0.  1.
     999900   -1    0    0    0    0 -0.00000000000E+00 -0.00000000000E+00 -0.74505805969E-08  0.93827000000E+00  0.93827000000E+00 0. -1.
     999902    2    1    2    0    0  0.12487482468E-01  0.19404344375E-01  0.33293686806E-02  0.10206158306E+01  0.10203495103E+01 0.  0.
     999903    2    3    3    0    0 -0.14240759784E-01  0.12529386620E+00  0.38513747795E-01  0.13316727981E+00  0.18677887883E-01 0.  0.
         14    1    1    2    0    0 -0.12487482468E-01 -0.19404344375E-01 -0.33293686806E-02  0.23314169400E-01  0.00000000000E+00 0.  1.
     999901    1    3    3    0    0  0.26728242252E-01 -0.10588952183E+00 -0.35184379115E-01  0.88744855079E+00  0.88000000000E+00 0. -1.
        -11    1    4    4    0    0 -0.15439708846E-01  0.72675062551E-01  0.28563111740E-01  0.79600011302E-01  0.51100000000E-03 0.  1.
         11    1    4    4    0    0  0.11989490619E-02  0.52618803650E-01  0.99506360552E-02  0.53567268507E-01  0.51100000000E-03 0. -1.
</event>
<event>
 8    1  0.5489035E+004  0.1043930E+01  0.7957747E-01            NaN
         13   -1    0    0    0    0  0.00000000000E+00  0.00000000000E+00  0.74505805969E-08  0.10566000000E+00  0.10566000000E+00 0.  1.
     999900   -1    0    0    0    0 -0.00000000000E+00 -0.00000000000E+00 -0.74505805969E-08  0.93827000000E+00  0.93827000000E+00 0.  1.
     999902    2    1    2    0    0 -0.51633572007E-02  0.73927835998E-02  0.22403726700E-01  0.10197796278E+01  0.10194936237E+01 0.  0.
     999903    2    3    3    0    0  0.58298568468E-01 -0.36797920984E-01  0.11073598852E+00  0.13198301661E+00  0.20105905752E-01 0.  0.
         14    1    1    2    0    0  0.51633572007E-02 -0.73927835998E-02 -0.22403726700E-01  0.24150372192E-01  0.00000000000E+00 0. -1.
     999901    1    3    3    0    0 -0.63461925668E-01  0.44190704584E-01 -0.88332261816E-01  0.88779661120E+00  0.88000000000E+00 0.  1.
        -11    1    4    4    0    0  0.29283509077E-01 -0.23817652221E-01  0.76230098834E-01  0.85065231149E-01  0.51100000000E-03 0. -1.
         11    1    4    4    0    0  0.29015059391E-01 -0.12980268763E-01  0.34505889682E-01  0.46917785459E-01  0.51100000000E-03 0.  1.
</event>
<event>
 8    1  0.5489035E+004  0.1043930E+01  0.7957747E-01            NaN
         13   -1    0    0    0    0  0.00000000000E+00  0.00000000000E+00  0.74505805969E-08  0.10566000000E+00  0.10566000000E+00 0. -1.
     999900   -1    0    0    0    0 -0.00000000000E+00 -0.00000000000E+00 -0.74505805969E-08  0.93827000000E+00  0.93827000000E+00 0.  1.
     999902    2    1    2    0    0 -0.18030316011E-01 -0.93231455259E-02 -0.11911921686E-01  0.10203947665E+01  0.10201233123E+01 0.  0.
     999903    2    3    3    0    0 -0.74226052869E-01  0.41563567931E-01  0.96980131080E-01  0.13044819641E+00  0.19353268942E-01 0.  0.
         14    1    1    2    0    0  0.18030316011E-01  0.93231455259E-02  0.11911921686E-01  0.23535233507E-01  0.00000000000E+00 0. -1.
     999901    1    3    3    0    0  0.56195736857E-01 -0.50886713457E-01 -0.10889205277E+00  0.88994657008E+00  0.88000000000E+00 0.  1.
        -11    1    4    4    0    0 -0.39083536590E-01  0.12572113473E-01  0.38224074469E-01  0.56097431845E-01  0.51100000000E-03 0. -1.
         11    1    4    4    0    0 -0.35142516278E-01  0.28991454458E-01  0.58756056610E-01  0.74350764565E-01  0.51100000000E-03 0.  1.
</event>
<event>
 8    1  0.5489035E+004  0.1043930E+01  0.7957747E-01            NaN
         13   -1    0    0    0    0  0.00000000000E+00  0.00000000000E+00  0.74505805969E-08  0.10566000000E+00  0.10566000000E+00 0. -1.
     999900   -1    0    0    0    0 -0.00000000000E+00 -0.00000000000E+00 -0.74505805969E-08  0.93827000000E+00  0.93827000000E+00 0. -1.
     999902    2    1    2    0    0 -0.17263251946E-01  0.87505041844E-02 -0.12056518798E-01  0.10211275695E+01  0.10208729413E+01 0.  0.
     999903    2    3    3    0    0 -0.62887390479E-01  0.70847638897E-01  0.89858950357E-01  0.13190072611E+00  0.18680438152E-01 0.  0.
         14    1    1    2    0    0  0.17263251946E-01 -0.87505041844E-02  0.12056518798E-01  0.22802430502E-01  0.00000000000E+00 0.  1.
     999901    1    3    3    0    0  0.45624138533E-01 -0.62097134713E-01 -0.10191546915E+00  0.88922684339E+00  0.88000000000E+00 0. -1.
        -11    1    4    4    0    0 -0.52055022069E-01  0.46358189708E-01  0.67080292982E-01  0.96741066271E-01  0.51100000000E-03 0. -1.
         11    1    4    4    0    0 -0.10832368410E-01  0.24489449189E-01  0.22778657374E-01  0.35159659836E-01  0.51100000000E-03 0.  1.
</event>
<event>
 8    1  0.5489035E+004  0.1043930E+01  0.7957747E-01            NaN
         13   -1    0    0    0    0  0.00000000000E+00  0.00000000000E+00  0.74505805969E-08  0.10566000000E+00  0.10566000000E+00 0.  1.
     999900   -1    0    0    0    0 -0.00000000000E+00 -0.00000000000E+00 -0.74505805969E-08  0.93827000000E+00  0.93827000000E+00 0.  1.
     999902    2    1    2    0    0  0.62729577766E-02 -0.23823117622E-01  0.46014530823E-02  0.10188687889E+01  0.10185605258E+01 0.  0.
     999903    2    3    3    0    0  0.36948303650E-01 -0.60614405675E-01  0.10892553242E+00  0.13141282419E+00  0.19112180163E-01 0.  0.
         14    1    1    2    0    0 -0.62729577766E-02  0.23823117622E-01 -0.46014530823E-02  0.25061211124E-01  0.00000000000E+00 0.  1.
     999901    1    3    3    0    0 -0.30675345873E-01  0.36791288053E-01 -0.10432407934E+00  0.88745596468E+00  0.88000000000E+00 0.  1.
        -11    1    4    4    0    0  0.30332641300E-01 -0.32676975175E-01  0.71066660587E-01  0.83896276454E-01  0.51100000000E-03 0.  1.
         11    1    4    4    0    0  0.66156623491E-02 -0.27937430500E-01  0.37858871838E-01  0.47516547740E-01  0.51100000000E-03 0. -1.
</event>
<event>
 8    1  0.5489035E+004  0.1043930E+01  0.7957747E-01            NaN
         13   -1    0    0    0    0  0.00000000000E+00  0.00000000000E+00  0.74505805969E-08  0.10566000000E+00  0.10566000000E+00 0.  1.
     999900   -1    0    0    0    0 -0.00000000000E+00 -0.00000000000E+00 -0.74505805969E-08  0.93827000000E+00  0.93827000000E+00 0. -1.
     999902    2    1    2    0    0  0.13273948625E-01  0.17098118303E-01  0.61939846911E-02  0.10214153646E+01  0.10211671940E+01 0.  0.
     999903    2    3    3    0    0  0.59989673995E-01 -0.11245177693E+00 -0.20050412498E-01  0.13031811807E+00  0.18347472204E-01 0.  0.
         14    1    1    2    0    0 -0.13273948625E-01 -0.17098118303E-01 -0.61939846911E-02  0.22514635417E-01  0.00000000000E+00 0. -1.
     999901    1    3    3    0    0 -0.46715725370E-01  0.12954989523E+00  0.26244397189E-01  0.89109724651E+00  0.88000000000E+00 0.  1.
        -11    1    4    4    0    0  0.13478052649E-02 -0.10409793471E-01 -0.50931602391E-02  0.11678261059E-01  0.51100000000E-03 0.  1.
         11    1    4    4    0    0  0.58641868730E-01 -0.10204198346E+00 -0.14957252259E-01  0.11863985702E+00  0.51100000000E-03 0. -1.
</event>
<event>
 8    1  0.5489035E+004  0.1043930E+01  0.7957747E-01            NaN
         13   -1    0    0    0    0  0.00000000000E+00  0.00000000000E+00  0.74505805969E-08  0.10566000000E+00  0.10566000000E+00 0. -1.
     999900   -1    0    0    0    0 -0.00000000000E+00 -0.00000000000E+00 -0.74505805969E-08  0.93827000000E+00  0.93827000000E+00 0. -1.
     999902    2    1    2    0    0  0.22217279099E-01  0.39921650189E-02 -0.56577810063E-02  0.10206586580E+01  0.10203933265E+01 0.  0.
     999903    2    3    3    0    0 -0.43783401574E-01  0.84005861293E-01  0.86358862649E-01  0.12980213525E+00  0.20414949708E-01 0.  0.
         14    1    1    2    0    0 -0.22217279099E-01 -0.39921650189E-02  0.56577810063E-02  0.23271341990E-01  0.00000000000E+00 0.  1.
     999901    1    3    3    0    0  0.66000680673E-01 -0.80013696274E-01 -0.92016643655E-01  0.89085652276E+00  0.88000000000E+00 0.  1.
        -11    1    4    4    0    0 -0.35151905278E-01  0.49966277584E-01  0.62122228046E-01  0.87130463552E-01  0.51100000000E-03 0.  1.
         11    1    4    4    0    0 -0.86314962961E-02  0.34039583709E-01  0.24236634602E-01  0.42671671695E-01  0.51100000000E-03 0. -1.
</event>
<event>
 8    1  0.5489035E+004  0.1043930E+01  0.7957747E-01            NaN
         13   -1    0    0    0    0  0.00000000000E+00  0.00000000000E+00  0.74505805969E-08  0.10566000000E+00  0.10566000000E+00 0.  1.
     999900   -1    0    0    0    0 -0.00000000000E+00 -0.00000000000E+00 -0.74505805969E-08  0.93827000000E+00  0.93827000000E+00 0.  1.
     999902    2    1    2    0    0 -0.11022908722E-01 -0.54483921806E-02  0.20091432866E-01  0.10203746361E+01  0.10201027119E+01 0.  0.
     999903    2    3    3    0    0  0.86899756241E-01  0.37434130297E-02  0.96814479773E-01  0.13157782944E+00  0.19341688924E-01 0.  0.
         14    1    1    2    0    0  0.11022908722E-01  0.54483921806E-02 -0.20091432866E-01  0.23555363904E-01  0.00000000000E+00 0. -1.
     999901    1    3    3    0    0 -0.97922664963E-01 -0.91918052103E-02 -0.76723046907E-01  0.88879680666E+00  0.88000000000E+00 0. -1.
        -11    1    4    4    0    0  0.55779293054E-01  0.10295917590E-01  0.69015161692E-01  0.89334702759E-01  0.51100000000E-03 0. -1.
         11    1    4    4    0    0  0.31120463187E-01 -0.65525045604E-02  0.27799318081E-01  0.42243126681E-01  0.51100000000E-03 0.  1.
</event>
<event>
 8    1  0.5489035E+004  0.1043930E+01  0.7957747E-01            NaN
         13   -1    0    0    0    0  0.00000000000E+00  0.00000000000E+00  0.74505805969E-08  0.10566000000E+00  0.10566000000E+00 0. -1.
     999900   -1    0    0    0    0 -0.00000000000E+00 -0.00000000000E+00 -0.74505805969E-08  0.93827000000E+00  0.93827000000E+00 0.  1.
     999902    2    1    2    0    0  0.54248591175E-02  0.80518580369E-03 -0.24729571904E-01  0.10185996003E+01  0.10182845951E+01 0.  0.
     999903    2    3    3    0    0 -0.11404367665E+00  0.26078848091E-01 -0.52671586414E-01  0.12972826813E+00  0.19210961322E-01 0.  0.
         14    1    1    2    0    0 -0.54248591175E-02 -0.80518580369E-03  0.24729571904E-01  0.25330399665E-01  0.00000000000E+00 0. -1.
     999901    1    3    3    0    0  0.11946853577E+00 -0.25273662288E-01  0.27942014511E-01  0.88887133221E+00  0.88000000000E+00 0. -1.
        -11    1    4    4    0    0 -0.11305807401E-01  0.69714888055E-02 -0.10893028136E-01  0.17185520654E-01  0.51100000000E-03 0.  1.
         11    1    4    4    0    0 -0.10273786925E+00  0.19107359286E-01 -0.41778558278E-01  0.11254274748E+00  0.51100000000E-03 0. -1.
</event>
<event>
 8    1  0.5489035E+004  0.1043930E+01  0.7957747E-01            NaN
         13   -1    0    0    0    0  0.00000000000E+00  0.00000000000E+00  0.74505805969E-08  0.10566000000E+00  0.10566000000E+00 0. -1.
     999900   -1    0    0    0    0 -0.00000000000E+00 -0.00000000000E+00 -0.74505805969E-08  0.93827000000E+00  0.93827000000E+00 0.  1.
     999902    2    1    2    0    0  0.60043654623E-02  0.54728185088E-02 -0.23202510406E-01  0.10193462526E+01  0.10190497643E+01 0.  0.
     999903    2    3    3    0    0  0.31299213048E-01  0.17790078212E-01 -0.12638891365E+00  0.13287065902E+00  0.19604257566E-01 0.  0.
         14    1    1    2    0    0 -0.60043654623E-02 -0.54728185088E-02  0.23202510406E-01  0.24583747399E-01  0.00000000000E+00 0. -1.
     999901    1    3    3    0    0 -0.25294847586E-01 -0.12317259703E-01  0.10318640324E+00  0.88647559358E+00  0.88000000000E+00 0. -1.
        -11    1    4    4    0    0  0.18034275180E-01  0.16052809248E-01 -0.52622558958E-01  0.57899245231E-01  0.51100000000E-03 0. -1.
         11    1    4    4    0    0  0.13264937868E-01  0.17372689638E-02 -0.73766354691E-01  0.74971413789E-01  0.51100000000E-03 0.  1.
</event>
<event>
 8    1  0.5489035E+004  0.1043930E+01  0.7957747E-01            NaN
         13   -1    0    0    0    0  0.00000000000E+00  0.00000000000E+00  0.74505805969E-08  0.10566000000E+00  0.10566000000E+00 0. -1.
     999900   -1    0    0    0    0 -0.00000000000E+00 -0.00000000000E+00 -0.74505805969E-08  0.93827000000E+00  0.93827000000E+00 0.  1.
     999902    2    1    2    0    0 -0.33372637545E-01 -0.31025011454E-02 -0.55321198716E-02  0.10099599720E+01  0.10093885190E+01 0.  0.
     999903    2    3    3    0    0 -0.11621597745E+00  0.41241429793E-01 -0.19711924242E-02  0.12495032045E+00  0.20042156434E-01 0.  0.
         14    1    1    2    0    0  0.33372637545E-01  0.31025011454E-02  0.55321198716E-02  0.33970027971E-01  0.00000000000E+00 0.  1.
     999901    1    3    3    0    0  0.82843339909E-01 -0.44343930938E-01 -0.35609274474E-02  0.88500965158E+00  0.88000000000E+00 0.  1.
        -11    1    4    4    0    0 -0.78261038219E-01  0.19343500066E-01  0.40354154258E-02  0.80718689265E-01  0.51100000000E-03 0. -1.
         11    1    4    4    0    0 -0.37954939236E-01  0.21897929727E-01 -0.60066078500E-02  0.44231631188E-01  0.51100000000E-03 0.  1.
</event>
<event>
 8    1  0.5489035E+004  0.1043930E+01  0.7957747E-01            NaN
         13   -1    0    0    0    0  0.00000000000E+00  0.00000000000E+00  0.74505805969E-08  0.10566000000E+00  0.10566000000E+00 0. -1.
     999900   -1    0    0    0    0 -0.00000000000E+00 -0.00000000000E+00 -0.74505805969E-08  0.93827000000E+00  0.93827000000E+00 0. -1.
     999902    2    1    2    0    0  0.80446599816E-02  0.13539320566E-01  0.18159389390E-01  0.10198926711E+01  0.10196093700E+01 0.  0.
     999903    2    3    3    0    0  0.10820729266E+00 -0.76085337883E-02 -0.65687799827E-01  0.12999934278E+00  0.28604791657E-01 0.  0.
         14    1    1    2    0    0 -0.80446599816E-02 -0.13539320566E-01 -0.18159389390E-01  0.24037328858E-01  0.00000000000E+00 0.  1.
     999901    1    3    3    0    0 -0.10016263268E+00  0.21147854354E-01  0.83847189217E-01  0.88989332836E+00  0.88000000000E+00 0.  1.
        -11    1    4    4    0    0  0.40423412739E-01 -0.10796554495E-01 -0.12178136249E-01  0.43579651329E-01  0.51100000000E-03 0. -1.
         11    1    4    4    0    0  0.67783879919E-01  0.31880207064E-02 -0.53509663578E-01  0.86419691449E-01  0.51100000000E-03 0.  1.
</event>
<event>
 8    1  0.5489035E+004  0.1043930E+01  0.7957747E-01            NaN
         13   -1    0    0    0    0  0.00000000000E+00  0.00000000000E+00  0.74505805969E-08  0.10566000000E+00  0.10566000000E+00 0. -1.
     999900   -1    0    0    0    0 -0.00000000000E+00 -0.00000000000E+00 -0.74505805969E-08  0.93827000000E+00  0.93827000000E+00 0. -1.
     999902    2    1    2    0    0 -0.10445502818E-02  0.25070136722E-01  0.11962567165E-01  0.10161324128E+01  0.10157521226E+01 0.  0.
     999903    2    3    3    0    0  0.10282342464E+00 -0.14284998013E-01 -0.67861570909E-01  0.12556558440E+00  0.19616456256E-01 0.  0.
         14    1    1    2    0    0  0.10445502818E-02 -0.25070136722E-01 -0.11962567165E-01  0.27797587193E-01  0.00000000000E+00 0.  1.
     999901    1    3    3    0    0 -0.10386797492E+00  0.39355134736E-01  0.79824138074E-01  0.89056682841E+00  0.88000000000E+00 0.  1.
        -11    1    4    4    0    0  0.54968529661E-01 -0.94419064688E-02 -0.24939600924E-01  0.61097738633E-01  0.51100000000E-03 0.  1.
         11    1    4    4    0    0  0.47854894979E-01 -0.48430915446E-02 -0.42921969985E-01  0.64467845765E-01  0.51100000000E-03 0. -1.
</event>
<event>
 8    1  0.5489035E+004  0.1043930E+01  0.7957747E-01            NaN
         13   -1    0    0    0    0  0.00000000000E+00  0.00000000000E+00  0.74505805969E-08  0.10566000000E+00  0.10566000000E+00 0. -1.
     999900   -1    0    0    0    0 -0.00000000000E+00 -0.00000000000E+00 -0.74505805969E-08  0.93827000000E+00  0.93827000000E+00 0.  1.
     999902    2    1    2    0    0  0.10863778665E-01  0.13753706700E-01  0.14577060400E-01  0.10211335787E+01  0.10208790862E+01 0.  0.
     999903    2    3    3    0    0 -0.10837991549E+00  0.48832539072E-02  0.70122200565E-01  0.13131168295E+00  0.23570804359E-01 0.  0.
         14    1    1    2    0    0 -0.10863778665E-01 -0.13753706700E-01 -0.14577060400E-01  0.22796421315E-01  0.00000000000E+00 0.  1.
     999901    1    3    3    0    0  0.11924369415E+00  0.88704527925E-02 -0.55545140165E-01  0.88982189573E+00  0.88000000000E+00 0. -1.
        -11    1    4    4    0    0 -0.38521631584E-01  0.40193527973E-02  0.38534124262E-01  0.54637085852E-01  0.51100000000E-03 0. -1.
         11    1    4    4    0    0 -0.69858283904E-01  0.86390110990E-03  0.31588076303E-01  0.76674597101E-01  0.51100000000E-03 0.  1.
</event>
<event>
 8    1  0.5489035E+004  0.1043930E+01  0.7957747E-01            NaN
         13   -1    0    0    0    0  0.00000000000E+00  0.00000000000E+00  0.74505805969E-08  0.10566000000E+00  0.10566000000E+00 0.  1.
     999900   -1    0    0    0    0 -0.00000000000E+00 -0.00000000000E+00 -0.74505805969E-08  0.93827000000E+00  0.93827000000E+00 0.  1.
     999902    2    1    2    0    0 -0.22665383366E-01 -0.48778817374E-02 -0.38144311137E-02  0.10204339744E+01  0.10201634344E+01 0.  0.
     999903    2    3    3    0    0 -0.56320208983E-01 -0.11409689627E-01  0.11670782643E+00  0.13155775899E+00  0.19610717544E-01 0.  0.
         14    1    1    2    0    0  0.22665383366E-01  0.48778817374E-02  0.38144311137E-02  0.23496025580E-01  0.00000000000E+00 0.  1.
     999901    1    3    3    0    0  0.33654825617E-01  0.65318078896E-02 -0.12052225754E+00  0.88887621543E+00  0.88000000000E+00 0.  1.
        -11    1    4    4    0    0 -0.35349985250E-01 -0.62281373582E-02  0.50839403611E-01  0.62235980210E-01  0.51100000000E-03 0.  1.
         11    1    4    4    0    0 -0.20970223733E-01 -0.51815522688E-02  0.65868422816E-01  0.69321778776E-01  0.51100000000E-03 0. -1.
</event>
<event>
 8    1  0.5489035E+004  0.1043930E+01  0.7957747E-01            NaN
         13   -1    0    0    0    0  0.00000000000E+00  0.00000000000E+00  0.74505805969E-08  0.10566000000E+00  0.10566000000E+00 0. -1.
     999900   -1    0    0    0    0 -0.00000000000E+00 -0.00000000000E+00 -0.74505805969E-08  0.93827000000E+00  0.93827000000E+00 0. -1.
     999902    2    1    2    0    0 -0.22614107581E-01  0.54152816954E-02  0.52907755408E-02  0.10200822445E+01  0.10198034468E+01 0.  0.
     999903    2    3    3    0    0 -0.47351809024E-01  0.51284535927E-01 -0.10926610212E+00  0.13112824085E+00  0.19576440717E-01 0.  0.
         14    1    1    2    0    0  0.22614107581E-01 -0.54152816954E-02 -0.52907755408E-02  0.23847755520E-01  0.00000000000E+00 0.  1.
     999901    1    3    3    0    0  0.24737701442E-01 -0.45869254232E-01  0.11455687766E+00  0.88895400363E+00  0.88000000000E+00 0.  1.
        -11    1    4    4    0    0 -0.64197006092E-02  0.17247259022E-01 -0.19928458117E-01  0.27130887630E-01  0.51100000000E-03 0. -1.
         11    1    4    4    0    0 -0.40932108414E-01  0.34037276905E-01 -0.89337644006E-01  0.10399735322E+00  0.51100000000E-03 0.  1.
</event>
<event>
 8    1  0.5489035E+004  0.1043930E+01  0.7957747E-01            NaN
         13   -1    0    0    0    0  0.00000000000E+00  0.00000000000E+00  0.74505805969E-08  0.10566000000E+00  0.10566000000E+00 0.  1.
     999900   -1    0    0    0    0 -0.00000000000E+00 -0.00000000000E+00 -0.74505805969E-08  0.93827000000E+00  0.93827000000E+00 0.  1.
     999902    2    1    2    0    0  0.17841632964E-02  0.16938884270E-01 -0.16366267727E-01  0.10203087435E+01  0.10200352780E+01 0.  0.
     999903    2    3    3    0    0 -0.12866136413E+00 -0.38548466908E-02  0.13962172138E-02  0.13027283370E+00  0.20011379653E-01 0.  0.
         14    1    1    2    0    0 -0.17841632964E-02 -0.16938884270E-01  0.16366267727E-01  0.23621256493E-01  0.00000000000E+00 0.  1.
     999901    1    3    3    0    0  0.13044552742E+00  0.20793730961E-01 -0.17762484941E-01  0.89003590981E+00  0.88000000000E+00 0.  1.
        -11    1    4    4    0    0 -0.54008683545E-01 -0.11075149198E-01 -0.22576181874E-02  0.55181108986E-01  0.51100000000E-03 0.  1.
         11    1    4    4    0    0 -0.74652680583E-01  0.72203025073E-02  0.36538354012E-02  0.75091724715E-01  0.51100000000E-03 0. -1.
</event>
<event>
 8    1  0.5489035E+004  0.1043930E+01  0.7957747E-01            NaN
         13   -1    0    0    0    0  0.00000000000E+00  0.00000000000E+00  0.74505805969E-08  0.10566000000E+00  0.10566000000E+00 0.  1.
     999900   -1    0    0    0    0 -0.00000000000E+00 -0.00000000000E+00 -0.74505805969E-08  0.93827000000E+00  0.93827000000E+00 0. -1.
     999902    2    1    2    0    0 -0.12999763315E-01 -0.60920027010E-02  0.19466703159E-01  0.10197420097E+01  0.10194551032E+01 0.  0.
     999903    2    3    3    0    0  0.11218978408E+00 -0.48421370085E-01  0.38470820930E-01  0.12967158854E+00  0.20088307004E-01 0.  0.
         14    1    1    2    0    0  0.12999763315E-01  0.60920027010E-02 -0.19466703159E-01  0.24187990306E-01  0.00000000000E+00 0. -1.
     999901    1    3    3    0    0 -0.12518954740E+00  0.42329367384E-01 -0.19004117771E-01  0.89007042115E+00  0.88000000000E+00 0. -1.
        -11    1    4    4    0    0  0.88103644737E-01 -0.39928364891E-01  0.21764192807E-01  0.99148715313E-01  0.51100000000E-03 0.  1.
         11    1    4    4    0    0  0.24086139346E-01 -0.84930051941E-02  0.16706628123E-01  0.30522873227E-01  0.51100000000E-03 0. -1.
</event>
<event>
 8    1  0.5489035E+004  0.1043930E+01  0.7957747E-01            NaN
         13   -1    0    0    0    0  0.00000000000E+00  0.00000000000E+00  0.74505805969E-08  0.10566000000E+00  0.10566000000E+00 0. -1.
     999900   -1    0    0    0    0 -0.00000000000E+00 -0.00000000000E+00 -0.74505805969E-08  0.93827000000E+00  0.93827000000E+00 0.  1.
     999902    2    1    2    0    0  0.13667554107E-01 -0.69271313813E-03 -0.17190685383E-01  0.10219572544E+01  0.10217210129E+01 0.  0.
     999903    2    3    3    0    0 -0.19049786033E-01 -0.10023113492E+00 -0.83195954671E-01  0.13328688953E+00  0.20848340298E-01 0.  0.
         14    1    1    2    0    0 -0.13667554107E-01  0.69271313813E-03  0.17190685383E-01  0.21972745634E-01  0.00000000000E+00 0. -1.
     999901    1    3    3    0    0  0.32717340140E-01  0.99538421780E-01  0.66005269288E-01  0.88867036483E+00  0.88000000000E+00 0.  1.
        -11    1    4    4    0    0 -0.11225603540E-01 -0.17669355783E-01 -0.13110528392E-01  0.24705614429E-01  0.51100000000E-03 0. -1.
         11    1    4    4    0    0 -0.78241824935E-02 -0.82561779135E-01 -0.70085426279E-01  0.10858127510E+00  0.51100000000E-03 0.  1.
</event>
<event>
 7    1  0.5489035E+004  0.1043930E+01  0.7957747E-01            NaN
         13   -1    0    0    0    0  0.00000000000E+00  0.00000000000E+00  0.74505805969E-08  0.10566000000E+00  0.10566000000E+00 0.  1.
     999900   -1    0    0    0    0 -0.00000000000E+00 -0.00000000000E+00 -0.74505805969E-08  0.93827000000E+00  0.93827000000E+00 0.  1.
     999903    2    1    2    0    0  0.92381611294E-01  0.36655196216E-01 -0.54668274593E-01  0.11539962315E+00  0.21224685197E-01 0.  0.
         14    1    1    2    0    0 -0.22972433157E-02  0.39012462055E-01  0.14233874895E-02  0.39105952928E-01  0.00000000000E+00 0. -1.
     999901    1    1    2    0    0 -0.90084367978E-01 -0.75667658272E-01  0.53244887104E-01  0.88942442392E+00  0.88000000000E+00 0. -1.
        -11    1    3    3    0    0  0.78566495823E-01  0.37473101654E-01 -0.51678962731E-01  0.10123193134E+00  0.51100000000E-03 0.  1.
         11    1    3    3    0    0  0.13815115471E-01 -0.81790543811E-03 -0.29893118620E-02  0.14167691809E-01  0.51100000000E-03 0. -1.
</event>
<event>
 8    1  0.5489035E+004  0.1043930E+01  0.7957747E-01            NaN
         13   -1    0    0    0    0  0.00000000000E+00  0.00000000000E+00  0.74505805969E-08  0.10566000000E+00  0.10566000000E+00 0.  1.
     999900   -1    0    0    0    0 -0.00000000000E+00 -0.00000000000E+00 -0.74505805969E-08  0.93827000000E+00  0.93827000000E+00 0. -1.
     999902    2    1    2    0    0 -0.17591927312E-01 -0.20269524965E-02  0.15483642299E-01  0.10204070831E+01  0.10201359162E+01 0.  0.
     999903    2    3    3    0    0 -0.20882035512E-01  0.11486729015E+00  0.57576523577E-01  0.13167377129E+00  0.19808387740E-01 0.  0.
         14    1    1    2    0    0  0.17591927312E-01  0.20269524965E-02 -0.15483642299E-01  0.23522916949E-01  0.00000000000E+00 0.  1.
     999901    1    3    3    0    0  0.32901082006E-02 -0.11689424265E+00 -0.42092881278E-01  0.88873331176E+00  0.88000000000E+00 0. -1.
        -11    1    4    4    0    0 -0.60374802418E-03  0.62794506018E-02  0.89906689164E-02  0.10994965216E-01  0.51100000000E-03 0. -1.
         11    1    4    4    0    0 -0.20278287488E-01  0.10858783955E+00  0.48585854660E-01  0.12067880608E+00  0.51100000000E-03 0.  1.
</event>
<event>
 8    1  0.5489035E+004  0.1043930E+01  0.7957747E-01            NaN
         13   -1    0    0    0    0  0.00000000000E+00  0.00000000000E+00  0.74505805969E-08  0.10566000000E+00  0.10566000000E+00 0. -1.
     999900   -1    0    0    0    0 -0.00000000000E+00 -0.00000000000E+00 -0.74505805969E-08  0.93827000000E+00  0.93827000000E+00 0.  1.
     999902    2    1    2    0    0 -0.77232409321E-02 -0.18147874757E-01 -0.16193910476E-01  0.10184106633E+01  0.10180908813E+01 0.  0.
     999903    2    3    3    0    0  0.50178256196E-01  0.81188784435E-01 -0.83542788075E-01  0.12837907592E+00  0.19806907445E-01 0.  0.
         14    1    1    2    0    0  0.77232409321E-02  0.18147874757E-01  0.16193910476E-01  0.25519336692E-01  0.00000000000E+00 0. -1.
     999901    1    3    3    0    0 -0.57901497129E-01 -0.99336659192E-01  0.67348877599E-01  0.89003158739E+00  0.88000000000E+00 0. -1.
        -11    1    4    4    0    0  0.77530974171E-02  0.26969844856E-01 -0.18135816753E-01  0.33416343628E-01  0.51100000000E-03 0. -1.
         11    1    4    4    0    0  0.42425158779E-01  0.54218939579E-01 -0.65406971322E-01  0.94962732296E-01  0.51100000000E-03 0.  1.
</event>
<event>
 8    1  0.5489035E+004  0.1043930E+01  0.7957747E-01            NaN
         13   -1    0    0    0    0  0.00000000000E+00  0.00000000000E+00  0.74505805969E-08  0.10566000000E+00  0.10566000000E+00 0.  1.
     999900   -1    0    0    0    0 -0.00000000000E+00 -0.00000000000E+00 -0.74505805969E-08  0.93827000000E+00  0.93827000000E+00 0.  1.
     999902    2    1    2    0    0 -0.10594170582E-01 -0.12257054747E-01 -0.15888809004E-01  0.10212380170E+01  0.10209858771E+01 0.  0.
     999903    2    3    3    0    0 -0.12486914610E+00 -0.88635100856E-02  0.37664190781E-01  0.13222833765E+00  0.19871500972E-01 0.  0.
         14    1    1    2    0    0  0.10594170582E-01  0.12257054747E-01  0.15888809004E-01  0.22691983011E-01  0.00000000000E+00 0.  1.
     999901    1    3    3    0    0  0.11427497552E+00 -0.33935446615E-02 -0.53552999785E-01  0.88900967934E+00  0.88000000000E+00 0. -1.
        -11    1    4    4    0    0 -0.11346501942E+00 -0.93917421853E-02  0.27962320560E-01  0.11723765583E+00  0.51100000000E-03 0. -1.
         11    1    4    4    0    0 -0.11404126687E-01  0.52823209964E-03  0.97018702208E-02  0.14990681820E-01  0.51100000000E-03 0.  1.
</event>
<event>
 8    1  0.5489035E+004  0.1043930E+01  0.7957747E-01            NaN
         13   -1    0    0    0    0  0.00000000000E+00  0.00000000000E+00  0.74505805969E-08  0.10566000000E+00  0.10566000000E+00 0. -1.
     999900   -1    0    0    0    0 -0.00000000000E+00 -0.00000000000E+00 -0.74505805969E-08  0.93827000000E+00  0.93827000000E+00 0. -1.
     999902    2    1    2    0    0  0.18554416622E-01 -0.12348832883E-01 -0.21553649559E-04  0.10216418750E+01  0.10213987274E+01 0.  0.
     999903    2    3    3    0    0  0.92967109308E-01 -0.95036395891E-01  0.42713447955E-02  0.13462839663E+00  0.20778855470E-01 0.  0.
         14    1    1    2    0    0 -0.18554416622E-01  0.12348832883E-01  0.21553649559E-04  0.22288124962E-01  0.00000000000E+00 0. -1.
     999901    1    3    3    0    0 -0.74412692686E-01  0.82687563008E-01 -0.42928984451E-02  0.88701347841E+00  0.88000000000E+00 0. -1.
        -11    1    4    4    0    0  0.73489320239E-01 -0.81573000535E-01 -0.30531559187E-02  0.10983814223E+00  0.51100000000E-03 0.  1.
         11    1    4    4    0    0  0.19477789068E-01 -0.13463395357E-01  0.73245007142E-02  0.24790254400E-01  0.51100000000E-03 0. -1.
</event>
<event>
 8    1  0.5489035E+004  0.1043930E+01  0.7957747E-01            NaN
         13   -1    0    0    0    0  0.00000000000E+00  0.00000000000E+00  0.74505805969E-08  0.10566000000E+00  0.10566000000E+00 0. -1.
     999900   -1    0    0    0    0 -0.00000000000E+00 -0.00000000000E+00 -0.74505805969E-08  0.93827000000E+00  0.93827000000E+00 0.  1.
     999902    2    1    2    0    0  0.58665889455E-02  0.23118195340E-01 -0.46399683059E-02  0.10196319110E+01  0.10193423551E+01 0.  0.
     999903    2    3    3    0    0  0.43149036359E-01  0.10212784040E+00  0.70648015170E-01  0.13210682105E+00  0.13005191103E-01 0.  0.
         14    1    1    2    0    0 -0.58665889455E-02 -0.23118195340E-01  0.46399683059E-02  0.24298088969E-01  0.00000000000E+00 0. -1.
     999901    1    3    3    0    0 -0.37282447413E-01 -0.79009645061E-01 -0.75287983476E-01  0.88752508999E+00  0.88000000000E+00 0. -1.
        -11    1    4    4    0    0  0.36875646549E-01  0.73841532190E-01  0.54854385846E-01  0.99104237811E-01  0.51100000000E-03 0.  1.
         11    1    4    4    0    0  0.62733898096E-02  0.28286308212E-01  0.15793629323E-01  0.33002583235E-01  0.51100000000E-03 0. -1.
</event>
<event>
 8    1  0.5489035E+004  0.1043930E+01  0.7957747E-01            NaN
         13   -1    0    0    0    0  0.00000000000E+00  0.00000000000E+00  0.74505805969E-08  0.10566000000E+00  0.10566000000E+00 0. -1.
     999900   -1    0    0    0    0 -0.00000000000E+00 -0.00000000000E+00 -0.74505805969E-08  0.93827000000E+00  0.93827000000E+00 0.  1.
     999902    2    1    2    0    0 -0.98919546821E-02 -0.91687951573E-02 -0.17664475752E-01  0.10217049854E+01  0.10214632278E+01 0.  0.
     999903    2    3    3    0    0 -0.43822453591E-01 -0.40457191869E-01 -0.11908138862E+00  0.13467869898E+00  0.20019566188E-01 0.  0.
         14    1    1    2    0    0  0.98919546821E-02  0.91687951573E-02  0.17664475752E-01  0.22225014638E-01  0.00000000000E+00 0.  1.
     999901    1    3    3    0    0  0.33930498909E-01  0.31288396711E-01  0.10141691286E+00  0.88702628639E+00  0.88000000000E+00 0. -1.
        -11    1    4    4    0    0 -0.33565404147E-01 -0.34851579972E-01 -0.10890819315E+00  0.11917434555E+00  0.51100000000E-03 0. -1.
         11    1    4    4    0    0 -0.10257049445E-01 -0.56056118967E-02 -0.10173195469E-01  0.15504353424E-01  0.51100000000E-03 0.  1.
</event>
<event>
 8    1  0.5489035E+004  0.1043930E+01  0.7957747E-01            NaN
         13   -1    0    0    0    0  0.00000000000E+00  0.00000000000E+00  0.74505805969E-08  0.10566000000E+00  0.10566000000E+00 0.  1.
     999900   -1    0    0    0    0 -0.00000000000E+00 -0.00000000000E+00 -0.74505805969E-08  0.93827000000E+00  0.93827000000E+00 0. -1.
     999902    2    1    2    0    0 -0.86445286891E-02  0.18705524394E-01  0.12268382236E-01  0.10199479709E+01  0.10196659872E+01 0.  0.
     999903    2    3    3    0    0  0.10224377729E+00 -0.71699868226E-01 -0.19944246560E-01  0.12781176776E+00  0.18531430338E-01 0.  0.
         14    1    1    2    0    0  0.86445286891E-02 -0.18705524394E-01 -0.12268382236E-01  0.23982029142E-01  0.00000000000E+00 0. -1.
     999901    1    3    3    0    0 -0.11088830598E+00  0.90405392619E-01  0.32212628795E-01  0.89213620309E+00  0.88000000000E+00 0.  1.
        -11    1    4    4    0    0  0.80802795872E-01 -0.47159219160E-01 -0.16955457316E-01  0.95083292046E-01  0.51100000000E-03 0. -1.
         11    1    4    4    0    0  0.21440981415E-01 -0.24540649066E-01 -0.29887892434E-02  0.32728475717E-01  0.51100000000E-03 0.  1.
</event>
<event>
 8    1  0.5489035E+004  0.1043930E+01  0.7957747E-01            NaN
         13   -1    0    0    0    0  0.00000000000E+00  0.00000000000E+00  0.74505805969E-08  0.10566000000E+00  0.10566000000E+00 0.  1.
     999900   -1    0    0    0    0 -0.00000000000E+00 -0.00000000000E+00 -0.74505805969E-08  0.93827000000E+00  0.93827000000E+00 0. -1.
     999902    2    1    2    0    0  0.14463423168E-01 -0.16694413862E-01 -0.70620546743E-02  0.10207402031E+01  0.10204767491E+01 0.  0.
     999903    2    3    3    0    0  0.28526335126E-01 -0.67551280961E-01 -0.10951938371E+00  0.13322587043E+00  0.19434757249E-01 0.  0.
         14    1    1    2    0    0 -0.14463423168E-01  0.16694413862E-01  0.70620546743E-02  0.23189796898E-01  0.00000000000E+00 0.  1.
     999901    1    3    3    0    0 -0.14062911958E-01  0.50856867099E-01  0.10245732903E+00  0.88751433267E+00  0.88000000000E+00 0.  1.
        -11    1    4    4    0    0  0.27448867112E-01 -0.68694739310E-01 -0.10524767580E+00  0.12864580015E+00  0.51100000000E-03 0.  1.
         11    1    4    4    0    0  0.10774680148E-02  0.11434583486E-02 -0.42717079043E-02  0.45800702765E-02  0.51100000000E-03 0. -1.
</event>
<event>
 8    1  0.5489035E+004  0.1043930E+01  0.7957747E-01            NaN
         13   -1    0    0    0    0  0.00000000000E+00  0.00000000000E+00  0.74505805969E-08  0.10566000000E+00  0.10566000000E+00 0.  1.
     999900   -1    0    0    0    0 -0.00000000000E+00 -0.00000000000E+00 -0.74505805969E-08  0.93827000000E+00  0.93827000000E+00 0. -1.
     999902    2    1    2    0    0  0.17736516706E-01 -0.13980486254E-01  0.71467584586E-02  0.10202421513E+01  0.10199671235E+01 0.  0.
     999903    2    3    3    0    0  0.11760452886E+00 -0.12579205346E-01  0.57911864926E-01  0.13313861759E+00  0.19571555354E-01 0.  0.
         14    1    1    2    0    0 -0.17736516706E-01  0.13980486254E-01 -0.71467584586E-02  0.23687848725E-01  0.00000000000E+00 0.  1.
     999901    1    3    3    0    0 -0.99868012156E-01 -0.14012809081E-02 -0.50765106467E-01  0.88710353368E+00  0.88000000000E+00 0. -1.
        -11    1    4    4    0    0  0.45152945230E-02 -0.23031198717E-02 -0.10284915293E-02  0.51972263371E-02  0.51100000000E-03 0. -1.
         11    1    4    4    0    0  0.11308923434E+00 -0.10276085474E-01  0.58940356455E-01  0.12794139125E+00  0.51100000000E-03 0.  1.
</event>
<event>
 8    1  0.5489035E+004  0.1043930E+01  0.7957747E-01            NaN
         13   -1    0    0    0    0  0.00000000000E+00  0.00000000000E+00  0.74505805969E-08  0.10566000000E+00  0.10566000000E+00 0. -1.
     999900   -1    0    0    0    0 -0.00000000000E+00 -0.00000000000E+00 -0.74505805969E-08  0.93827000000E+00  0.93827000000E+00 0.  1.
     999902    2    1    2    0    0  0.22061669968E-01 -0.10030168758E-01  0.19454916940E-01  0.10128524299E+01  0.10123755378E+01 0.  0.
     999903    2    3    3    0    0  0.11778275946E+00 -0.32656469000E-01 -0.24331832371E-01  0.12629066907E+00  0.20446800092E-01 0.  0.
         14    1    1    2    0    0 -0.22061669968E-01  0.10030168758E-01 -0.19454916940E-01  0.31077570051E-01  0.00000000000E+00 0.  1.
     999901    1    3    3    0    0 -0.95721089493E-01  0.22626300242E-01  0.43786749311E-01  0.88656176088E+00  0.88000000000E+00 0. -1.
        -11    1    4    4    0    0  0.73052851510E-01 -0.10512353692E-01 -0.18058333988E-01  0.75984164412E-01  0.51100000000E-03 0. -1.
         11    1    4    4    0    0  0.44729907951E-01 -0.22144115308E-01 -0.62734983827E-02  0.50306504659E-01  0.51100000000E-03 0.  1.
</event>
<event>
 8    1  0.5489035E+004  0.1043930E+01  0.7957747E-01            NaN
         13   -1    0    0    0    0  0.00000000000E+00  0.00000000000E+00  0.74505805969E-08  0.10566000000E+00  0.10566000000E+00 0. -1.
     999900   -1    0    0    0    0 -0.00000000000E+00 -0.00000000000E+00 -0.74505805969E-08  0.93827000000E+00  0.93827000000E+00 0. -1.
     999902    2    1    2    0    0 -0.11026759725E-01  0.19777784458E-01 -0.77992376044E-02  0.10199805053E+01  0.10196992954E+01 0.  0.
     999903    2    3    3    0    0  0.84131053931E-01  0.20086185866E-01  0.93818866475E-01  0.12903643093E+00  0.19155461445E-01 0.  0.
         14    1    1    2    0    0  0.11026759725E-01 -0.19777784458E-01  0.77992376044E-02  0.23949494678E-01  0.00000000000E+00 0. -1.
     999901    1    3    3    0    0 -0.95157813657E-01 -0.30840140831E-03 -0.10161810408E+00  0.89094407439E+00  0.88000000000E+00 0. -1.
        -11    1    4    4    0    0  0.28910686580E-01  0.16042469492E-01  0.38792839571E-01  0.50973857504E-01  0.51100000000E-03 0.  1.
         11    1    4    4    0    0  0.55220367351E-01  0.40437163746E-02  0.55026026905E-01  0.78062573429E-01  0.51100000000E-03 0. -1.
</event>
<event>
 8    1  0.5489035E+004  0.1043930E+01  0.7957747E-01            NaN
         13   -1    0    0    0    0  0.00000000000E+00  0.00000000000E+00  0.74505805969E-08  0.10566000000E+00  0.10566000000E+00 0. -1.
     999900   -1    0    0    0    0 -0.00000000000E+00 -0.00000000000E+00 -0.74505805969E-08  0.93827000000E+00  0.93827000000E+00 0. -1.
     999902    2    1    2    0    0  0.34299938988E-02  0.93556070151E-02 -0.26991664343E-01  0.10151577532E+01  0.10147499306E+01 0.  0.
     999903    2    3    3    0    0  0.10088758368E+00  0.67836085577E-01 -0.34239100548E-01  0.12781876867E+00  0.19628616120E-01 0.  0.
         14    1    1    2    0    0 -0.34299938988E-02 -0.93556070151E-02  0.26991664343E-01  0.28772246780E-01  0.00000000000E+00 0. -1.
     999901    1    3    3    0    0 -0.97457589776E-01 -0.58480478562E-01  0.72474362051E-02  0.88733898455E+00  0.88000000000E+00 0. -1.
        -11    1    4    4    0    0  0.52676823111E-01  0.26854849189E-01 -0.95502884336E-02  0.59895740651E-01  0.51100000000E-03 0.  1.
         11    1    4    4    0    0  0.48210760565E-01  0.40981236389E-01 -0.24688812114E-01  0.67923028015E-01  0.51100000000E-03 0. -1.
</event>
<event>
 8    1  0.5489035E+004  0.1043930E+01  0.7957747E-01            NaN
         13   -1    0    0    0    0  0.00000000000E+00  0.00000000000E+00  0.74505805969E-08  0.10566000000E+00  0.10566000000E+00 0.  1.
     999900   -1    0    0    0    0 -0.00000000000E+00 -0.00000000000E+00 -0.74505805969E-08  0.93827000000E+00  0.93827000000E+00 0.  1.
     999902    2    1    2    0    0 -0.22158543635E-01 -0.79817978627E-02  0.27647390798E-03  0.10203760918E+01  0.10201042016E+01 0.  0.
     999903    2    3    3    0    0  0.19350765822E-02 -0.12160603131E+00 -0.46049982110E-01  0.13153577461E+00  0.19730377027E-01 0.  0.
         14    1    1    2    0    0  0.22158543635E-01  0.79817978627E-02 -0.27647390798E-03  0.23553908189E-01  0.00000000000E+00 0. -1.
     999901    1    3    3    0    0 -0.24093620217E-01  0.11362423344E+00  0.46326456018E-01  0.88884031720E+00  0.88000000000E+00 0. -1.
        -11    1    4    4    0    0 -0.44197343485E-02 -0.62070932143E-01 -0.32250930554E-01  0.70090786210E-01  0.51100000000E-03 0. -1.
         11    1    4    4    0    0  0.63548109307E-02 -0.59535099163E-01 -0.13799051556E-01  0.61444988397E-01  0.51100000000E-03 0.  1.
</event>
<event>
 7    1  0.5489035E+004  0.1043930E+01  0.7957747E-01            NaN
         13   -1    0    0    0    0  0.00000000000E+00  0.00000000000E+00  0.74505805969E-08  0.10566000000E+00  0.10566000000E+00 0. -1.
     999900   -1    0    0    0    0 -0.00000000000E+00 -0.00000000000E+00 -0.74505805969E-08  0.93827000000E+00  0.93827000000E+00 0. -1.
     999903    2    1    2    0    0 -0.52270648780E-01 -0.40314247156E-01  0.97780148525E-01  0.11966874027E+00  0.20054692805E-01 0.  0.
         14    1    1    2    0    0  0.42840422529E-02  0.12992509917E-02 -0.39946967351E-01  0.40197030633E-01  0.00000000000E+00 0.  1.
     999901    1    1    2    0    0  0.47986606527E-01  0.39014996165E-01 -0.57833181173E-01  0.88406422910E+00  0.88000000000E+00 0.  1.
        -11    1    3    3    0    0 -0.31198849823E-01 -0.15610099573E-01  0.37655274244E-01  0.51334435211E-01  0.51100000000E-03 0. -1.
         11    1    3    3    0    0 -0.21071798957E-01 -0.24704147583E-01  0.60124874280E-01  0.68334305055E-01  0.51100000000E-03 0.  1.
</event>
<event>
 8    1  0.5489035E+004  0.1043930E+01  0.7957747E-01            NaN
         13   -1    0    0    0    0  0.00000000000E+00  0.00000000000E+00  0.74505805969E-08  0.10566000000E+00  0.10566000000E+00 0. -1.
     999900   -1    0    0    0    0 -0.00000000000E+00 -0.00000000000E+00 -0.74505805969E-08  0.93827000000E+00  0.93827000000E+00 0. -1.
     999902    2    1    2    0    0  0.15085680035E-01 -0.10427850201E-01 -0.15393871698E-01  0.10199865439E+01  0.10197054775E+01 0.  0.
     999903    2    3    3    0    0  0.13241865499E-01  0.32061168852E-01  0.12176402689E+00  0.12834703970E+00  0.21052762428E-01 0.  0.
         14    1    1    2    0    0 -0.15085680035E-01  0.10427850201E-01  0.15393871698E-01  0.23943456054E-01  0.00000000000E+00 0. -1.
     999901    1    3    3    0    0  0.18438145359E-02 -0.42489019053E-01 -0.13715789858E+00  0.89163950425E+00  0.88000000000E+00 0. -1.
        -11    1    4    4    0    0  0.17927879073E-01  0.23405546543E-01  0.75696628346E-01  0.81237116646E-01  0.51100000000E-03 0. -1.
         11    1    4    4    0    0 -0.46860135736E-02  0.86556223082E-02  0.46067398540E-01  0.47109923052E-01  0.51100000000E-03 0.  1.
</event>
<event>
 8    1  0.5489035E+004  0.1043930E+01  0.7957747E-01            NaN
         13   -1    0    0    0    0  0.00000000000E+00  0.00000000000E+00  0.74505805969E-08  0.10566000000E+00  0.10566000000E+00 0.  1.
     999900   -1    0    0    0    0 -0.00000000000E+00 -0.00000000000E+00 -0.74505805969E-08  0.93827000000E+00  0.93827000000E+00 0.  1.
     999902    2    1    2    0    0 -0.67447772736E-02 -0.14404726355E-02 -0.23449545925E-01  0.10194872468E+01  0.10191941906E+01 0.  0.
     999903    2    3    3    0    0 -0.72921444882E-01  0.23980970766E-01  0.10016154683E+00  0.12802479473E+00  0.21572865380E-01 0.  0.
         14    1    1    2    0    0  0.67447772736E-02  0.14404726355E-02  0.23449545925E-01  0.24442753240E-01  0.00000000000E+00 0.  1.
     999901    1    3    3    0    0  0.66176667609E-01 -0.25421443401E-01 -0.12361109275E+00  0.89146245203E+00  0.88000000000E+00 0.  1.
        -11    1    4    4    0    0 -0.44821783619E-01  0.20682524235E-01  0.48981039904E-01  0.69542522867E-01  0.51100000000E-03 0. -1.
         11    1    4    4    0    0 -0.28099661263E-01  0.32984465311E-02  0.51180506925E-01  0.58482271867E-01  0.51100000000E-03 0.  1.
</event>
<event>
 8    1  0.5489035E+004  0.1043930E+01  0.7957747E-01            NaN
         13   -1    0    0    0    0  0.00000000000E+00  0.00000000000E+00  0.74505805969E-08  0.10566000000E+00  0.10566000000E+00 0.  1.
     999900   -1    0    0    0    0 -0.00000000000E+00 -0.00000000000E+00 -0.74505805969E-08  0.93827000000E+00  0.93827000000E+00 0. -1.
     999902    2    1    2    0    0 -0.49072472135E-02  0.19340298995E-01  0.15390370928E-01  0.10187309572E+01  0.10184192513E+01 0.  0.
     999903    2    3    3    0    0 -0.59103740255E-01 -0.13781899795E-01 -0.11037506375E+00  0.12752318992E+00  0.19907696881E-01 0.  0.
         14    1    1    2    0    0  0.49072472135E-02 -0.19340298995E-01 -0.15390370928E-01  0.25199042794E-01  0.00000000000E+00 0. -1.
     999901    1    3    3    0    0  0.54196493041E-01  0.33122198790E-01  0.12576543468E+00  0.89120776729E+00  0.88000000000E+00 0.  1.
        -11    1    4    4    0    0 -0.34486978426E-01 -0.39227564572E-02 -0.79949244370E-01  0.87160096922E-01  0.51100000000E-03 0. -1.
         11    1    4    4    0    0 -0.24616761829E-01 -0.98591433377E-02 -0.30425819382E-01  0.40363092998E-01  0.51100000000E-03 0.  1.
</event>
<event>
 8    1  0.5489035E+004  0.1043930E+01  0.7957747E-01            NaN
         13   -1    0    0    0    0  0.00000000000E+00  0.00000000000E+00  0.74505805969E-08  0.10566000000E+00  0.10566000000E+00 0.  1.
     999900   -1    0    0    0    0 -0.00000000000E+00 -0.00000000000E+00 -0.74505805969E-08  0.93827000000E+00  0.93827000000E+00 0. -1.
     999902    2    1    2    0    0  0.98032120506E-02  0.21328896424E-01 -0.58754073709E-02  0.10197319587E+01  0.10194448109E+01 0.  0.
     999903    2    3    3    0    0 -0.74082959371E-01 -0.93338358321E-01  0.39656265798E-01  0.12717462034E+00  0.20010763058E-01 0.  0.
         14    1    1    2    0    0 -0.98032120506E-02 -0.21328896424E-01  0.58754073709E-02  0.24198041263E-01  0.00000000000E+00 0. -1.
     999901    1    3    3    0    0  0.83886171421E-01  0.11466725475E+00 -0.45531673169E-01  0.89255733840E+00  0.88000000000E+00 0. -1.
        -11    1    4    4    0    0 -0.17583057173E-01 -0.36004396520E-01  0.92394991506E-02  0.41123107055E-01  0.51100000000E-03 0.  1.
         11    1    4    4    0    0 -0.56499902198E-01 -0.57333961802E-01  0.30416766647E-01  0.86051513284E-01  0.51100000000E-03 0. -1.
</event>
<event>
 8    1  0.5489035E+004  0.1043930E+01  0.7957747E-01            NaN
         13   -1    0    0    0    0  0.00000000000E+00  0.00000000000E+00  0.74505805969E-08  0.10566000000E+00  0.10566000000E+00 0. -1.
     999900   -1    0    0    0    0 -0.00000000000E+00 -0.00000000000E+00 -0.74505805969E-08  0.93827000000E+00  0.93827000000E+00 0.  1.
     999902    2    1    2    0    0  0.10070212452E-01  0.12899962461E-01  0.16971988074E-01  0.10203531769E+01  0.10200807512E+01 0.  0.
     999903    2    3    3    0    0  0.15097047935E-01 -0.99637108740E-01 -0.76677268288E-01  0.12824329311E+00  0.20284586753E-01 0.  0.
         14    1    1    2    0    0 -0.10070212452E-01 -0.12899962461E-01 -0.16971988074E-01  0.23576823143E-01  0.00000000000E+00 0.  1.
     999901    1    3    3    0    0 -0.50268354830E-02  0.11253707120E+00  0.93649256363E-01  0.89210988375E+00  0.88000000000E+00 0. -1.
        -11    1    4    4    0    0 -0.48638557748E-02 -0.21778833173E-01 -0.14413796765E-01  0.26570534913E-01  0.51100000000E-03 0. -1.
         11    1    4    4    0    0  0.19960903710E-01 -0.77858275567E-01 -0.62263471523E-01  0.10167275819E+00  0.51100000000E-03 0.  1.
</event>
<event>
 8    1  0.5489035E+004  0.1043930E+01  0.7957747E-01            NaN
         13   -1    0    0    0    0  0.00000000000E+00  0.00000000000E+00  0.74505805969E-08  0.10566000000E+00  0.10566000000E+00 0. -1.
     999900   -1    0    0    0    0 -0.00000000000E+00 -0.00000000000E+00 -0.74505805969E-08  0.93827000000E+00  0.93827000000E+00 0.  1.
     999902    2    1    2    0    0 -0.56492601473E-02 -0.15273383752E-01  0.14100901534E-01  0.10223887416E+01  0.10221617842E+01 0.  0.
     999903    2    3    3    0    0 -0.75233209948E-02 -0.92891905537E-01 -0.91985206721E-01  0.13262337395E+00  0.21027947785E-01 0.  0.
         14    1    1    2    0    0  0.56492601473E-02  0.15273383752E-01 -0.14100901534E-01  0.21541258448E-01  0.00000000000E+00 0. -1.
     999901    1    3    3    0    0  0.18740608475E-02  0.77618521784E-01  0.10608610826E+00  0.88976536761E+00  0.88000000000E+00 0. -1.
        -11    1    4    4    0    0 -0.32543363627E-03 -0.28407321449E-01 -0.42033787989E-01  0.50736399879E-01  0.51100000000E-03 0. -1.
         11    1    4    4    0    0 -0.71978873585E-02 -0.64484584087E-01 -0.49951418732E-01  0.81886974066E-01  0.51100000000E-03 0.  1.
</event>
<event>
 7    1  0.5489035E+004  0.1043930E+01  0.7957747E-01            NaN
         13   -1    0    0    0    0  0.00000000000E+00  0.00000000000E+00  0.74505805969E-08  0.10566000000E+00  0.10566000000E+00 0.  1.
     999900   -1    0    0    0    0 -0.00000000000E+00 -0.00000000000E+00 -0.74505805969E-08  0.93827000000E+00  0.93827000000E+00 0.  1.
     999903    2    1    2    0    0 -0.53878750374E-01 -0.41552212667E-01  0.59012285117E-01  0.90793854647E-01  0.11470315056E-01 0.  0.
         14    1    1    2    0    0 -0.39216117203E-01  0.47662774480E-01  0.19497675527E-01  0.64728689702E-01  0.00000000000E+00 0. -1.
     999901    1    1    2    0    0  0.93094867578E-01 -0.61105618129E-02 -0.78509960644E-01  0.88840745565E+00  0.88000000000E+00 0.  1.
        -11    1    3    3    0    0 -0.28392071178E-01 -0.15988753351E-01  0.32306728259E-01  0.45888296452E-01  0.51100000000E-03 0.  1.
         11    1    3    3    0    0 -0.25486679197E-01 -0.25563459317E-01  0.26705556858E-01  0.44905558195E-01  0.51100000000E-03 0. -1.
</event>
<event>
 8    1  0.5489035E+004  0.1043930E+01  0.7957747E-01            NaN
         13   -1    0    0    0    0  0.00000000000E+00  0.00000000000E+00  0.74505805969E-08  0.10566000000E+00  0.10566000000E+00 0. -1.
     999900   -1    0    0    0    0 -0.00000000000E+00 -0.00000000000E+00 -0.74505805969E-08  0.93827000000E+00  0.93827000000E+00 0.  1.
     999902    2    1    2    0    0 -0.72817943553E-02 -0.77444421500E-02  0.21668250329E-01  0.10197946735E+01  0.10195090299E+01 0.  0.
     999903    2    3    3    0    0  0.99556356830E-02  0.53923878008E-01  0.11856325754E+00  0.13216369548E+00  0.20077277302E-01 0.  0.
         14    1    1    2    0    0  0.72817943553E-02  0.77444421500E-02 -0.21668250329E-01  0.24135326507E-01  0.00000000000E+00 0.  1.
     999901    1    3    3    0    0 -0.17237430038E-01 -0.61668320158E-01 -0.96895007209E-01  0.88763097801E+00  0.88000000000E+00 0.  1.
        -11    1    4    4    0    0  0.25154071904E-02  0.37164842203E-01  0.58436556194E-01  0.69301118246E-01  0.51100000000E-03 0.  1.
         11    1    4    4    0    0  0.74402284926E-02  0.16759035805E-01  0.60126701344E-01  0.62862577235E-01  0.51100000000E-03 0. -1.
</event>
<event>
 7    1  0.5489035E+004  0.1043930E+01  0.7957747E-01            NaN
         13   -1    0    0    0    0  0.00000000000E+00  0.00000000000E+00  0.74505805969E-08  0.10566000000E+00  0.10566000000E+00 0.  1.
     999900   -1    0    0    0    0 -0.00000000000E+00 -0.00000000000E+00 -0.74505805969E-08  0.93827000000E+00  0.93827000000E+00 0.  1.
     999903    2    1    2    0    0  0.56365014030E-01 -0.67237777027E-01  0.74337778638E-01  0.11671590223E+00  0.19964043517E-01 0.  0.
         14    1    1    2    0    0 -0.22167444909E-01 -0.27309467044E-01 -0.18471472359E-01  0.39729056057E-01  0.00000000000E+00 0. -1.
     999901    1    1    2    0    0 -0.34197569121E-01  0.94547244071E-01 -0.55866306278E-01  0.88748504172E+00  0.88000000000E+00 0.  1.
        -11    1    3    3    0    0  0.43990593876E-01 -0.45350110246E-01  0.62670921913E-01  0.88992754892E-01  0.51100000000E-03 0.  1.
         11    1    3    3    0    0  0.12374420154E-01 -0.21887666780E-01  0.11666856725E-01  0.27723147333E-01  0.51100000000E-03 0. -1.
</event>
<event>
 8    1  0.5489035E+004  0.1043930E+01  0.7957747E-01            NaN
         13   -1    0    0    0    0  0.00000000000E+00  0.00000000000E+00  0.74505805969E-08  0.10566000000E+00  0.10566000000E+00 0. -1.
     999900   -1    0    0    0    0 -0.00000000000E+00 -0.00000000000E+00 -0.74505805969E-08  0.93827000000E+00  0.93827000000E+00 0. -1.
     999902    2    1    2    0    0 -0.21139216850E-01 -0.10211947995E-01 -0.17532681023E-02  0.10203880307E+01  0.10201164192E+01 0.  0.
     999903    2    3    3    0    0  0.28773128174E-01  0.11384648820E+00  0.49185296539E-01  0.12882957765E+00  0.19721838216E-01 0.  0.
         14    1    1    2    0    0  0.21139216850E-01  0.10211947995E-01  0.17532681023E-02  0.23541969330E-01  0.00000000000E+00 0. -1.
     999901    1    3    3    0    0 -0.49912345024E-01 -0.12405843619E+00 -0.50938564641E-01  0.89155845302E+00  0.88000000000E+00 0. -1.
        -11    1    4    4    0    0  0.30122325392E-01  0.86364695127E-01  0.39816938664E-01  0.99759033561E-01  0.51100000000E-03 0.  1.
         11    1    4    4    0    0 -0.13491972179E-02  0.27481793072E-01  0.93683578749E-02  0.29070544093E-01  0.51100000000E-03 0. -1.
</event>
<event>
 8    1  0.5489035E+004  0.1043930E+01  0.7957747E-01            NaN
         13   -1    0    0    0    0  0.00000000000E+00  0.00000000000E+00  0.74505805969E-08  0.10566000000E+00  0.10566000000E+00 0.  1.
     999900   -1    0    0    0    0 -0.00000000000E+00 -0.00000000000E+00 -0.74505805969E-08  0.93827000000E+00  0.93827000000E+00 0.  1.
     999902    2    1    2    0    0  0.79157737929E-02  0.21691063736E-01  0.19666956737E-02  0.10207561006E+01  0.10204930119E+01 0.  0.
     999903    2    3    3    0    0  0.28514965087E-01 -0.11021207283E+00 -0.56569436157E-01  0.12876437260E+00  0.20502641585E-01 0.  0.
         14    1    1    2    0    0 -0.79157737929E-02 -0.21691063736E-01 -0.19666956737E-02  0.23173899383E-01  0.00000000000E+00 0. -1.
     999901    1    3    3    0    0 -0.20599191295E-01  0.13190313657E+00  0.58536131831E-01  0.89199172802E+00  0.88000000000E+00 0.  1.
        -11    1    4    4    0    0  0.21493198497E-01 -0.81783333823E-01 -0.51589156391E-01  0.99056415496E-01  0.51100000000E-03 0. -1.
         11    1    4    4    0    0  0.70217665900E-02 -0.28428739011E-01 -0.49802797664E-02  0.29707957105E-01  0.51100000000E-03 0.  1.
</event>
<event>
 8    1  0.5489035E+004  0.1043930E+01  0.7957747E-01            NaN
         13   -1    0    0    0    0  0.00000000000E+00  0.00000000000E+00  0.74505805969E-08  0.10566000000E+00  0.10566000000E+00 0. -1.
     999900   -1    0    0    0    0 -0.00000000000E+00 -0.00000000000E+00 -0.74505805969E-08  0.93827000000E+00  0.93827000000E+00 0.  1.
     999902    2    1    2    0    0  0.18412193521E-01  0.11878704759E-01 -0.69139643216E-02  0.10209535904E+01  0.10206950173E+01 0.  0.
     999903    2    3    3    0    0  0.66689078844E-01  0.22896579065E-01  0.10963143456E+00  0.13188954250E+00  0.20102572176E-01 0.  0.
         14    1    1    2    0    0 -0.18412193521E-01 -0.11878704759E-01  0.69139643216E-02  0.22976409633E-01  0.00000000000E+00 0. -1.
     999901    1    3    3    0    0 -0.48276885323E-01 -0.11017874306E-01 -0.11654539888E+00  0.88906404787E+00  0.88000000000E+00 0.  1.
        -11    1    4    4    0    0  0.52665860155E-01  0.15042796813E-01  0.68370713999E-01  0.87605902858E-01  0.51100000000E-03 0. -1.
         11    1    4    4    0    0  0.14023218689E-01  0.78537822520E-02  0.41260720556E-01  0.44283639641E-01  0.51100000000E-03 0.  1.
</event>
<event>
 8    1  0.5489035E+004  0.1043930E+01  0.7957747E-01            NaN
         13   -1    0    0    0    0  0.00000000000E+00  0.00000000000E+00  0.74505805969E-08  0.10566000000E+00  0.10566000000E+00 0. -1.
     999900   -1    0    0    0    0 -0.00000000000E+00 -0.00000000000E+00 -0.74505805969E-08  0.93827000000E+00  0.93827000000E+00 0. -1.
     999902    2    1    2    0    0  0.19179672260E-01 -0.46229681258E-02  0.79663337225E-02  0.10226533899E+01  0.10224320329E+01 0.  0.
     999903    2    3    3    0    0  0.31395759512E-01  0.98998044026E-01 -0.79194170138E-01  0.13221332999E+00  0.20550951479E-01 0.  0.
         14    1    1    2    0    0 -0.19179672260E-01  0.46229681258E-02 -0.79663337225E-02  0.21276610051E-01  0.00000000000E+00 0.  1.
     999901    1    3    3    0    0 -0.12216087251E-01 -0.10362101215E+00  0.87160503861E-01  0.89044005996E+00  0.88000000000E+00 0.  1.
        -11    1    4    4    0    0  0.19183559737E-01  0.55606502965E-01 -0.57215290380E-01  0.82060603888E-01  0.51100000000E-03 0.  1.
         11    1    4    4    0    0  0.12212199775E-01  0.43391541061E-01 -0.21978879758E-01  0.50152726101E-01  0.51100000000E-03 0. -1.
</event>
<event>
 8    1  0.5489035E+004  0.1043930E+01  0.7957747E-01            NaN
         13   -1    0    0    0    0  0.00000000000E+00  0.00000000000E+00  0.74505805969E-08  0.10566000000E+00  0.10566000000E+00 0. -1.
     999900   -1    0    0    0    0 -0.00000000000E+00 -0.00000000000E+00 -0.74505805969E-08  0.93827000000E+00  0.93827000000E+00 0.  1.
     999902    2    1    2    0    0  0.14255026403E-01  0.13325117241E-01 -0.13398288373E-01  0.10202597939E+01  0.10199851804E+01 0.  0.
     999903    2    3    3    0    0 -0.41896296973E-01  0.12309422822E+00 -0.73356009575E-03  0.13157389649E+00  0.20091376462E-01 0.  0.
         14    1    1    2    0    0 -0.14255026403E-01 -0.13325117241E-01  0.13398288373E-01  0.23670206137E-01  0.00000000000E+00 0. -1.
     999901    1    3    3    0    0  0.56151323376E-01 -0.10976911097E+00 -0.12664728277E-01  0.88868589737E+00  0.88000000000E+00 0. -1.
        -11    1    4    4    0    0 -0.38217406146E-01  0.84928135951E-01  0.17313596332E-02  0.93148360886E-01  0.51100000000E-03 0.  1.
         11    1    4    4    0    0 -0.36788908275E-02  0.38166092265E-01 -0.24649197290E-02  0.38425535608E-01  0.51100000000E-03 0. -1.
</event>
<event>
 8    1  0.5489035E+004  0.1043930E+01  0.7957747E-01            NaN
         13   -1    0    0    0    0  0.00000000000E+00  0.00000000000E+00  0.74505805969E-08  0.10566000000E+00  0.10566000000E+00 0.  1.
     999900   -1    0    0    0    0 -0.00000000000E+00 -0.00000000000E+00 -0.74505805969E-08  0.93827000000E+00  0.93827000000E+00 0.  1.
     999902    2    1    2    0    0 -0.75521010425E-03 -0.10706138418E-02 -0.24051035539E-01  0.10198433052E+01  0.10195588253E+01 0.  0.
     999903    2    3    3    0    0  0.12542139095E-01 -0.86070292732E-01  0.90892353781E-01  0.12820787092E+00  0.24707036346E-01 0.  0.
         14    1    1    2    0    0  0.75521010425E-03  0.10706138418E-02  0.24051035539E-01  0.24086694808E-01  0.00000000000E+00 0.  1.
     999901    1    3    3    0    0 -0.13297349199E-01  0.84999678890E-01 -0.11494338932E+00  0.89163543428E+00  0.88000000000E+00 0.  1.
        -11    1    4    4    0    0  0.17954566253E-01 -0.70055463846E-01  0.64750520466E-01  0.97072269395E-01  0.51100000000E-03 0.  1.
         11    1    4    4    0    0 -0.54124271578E-02 -0.16014828886E-01  0.26141833316E-01  0.31135601521E-01  0.51100000000E-03 0. -1.
</event>
<event>
 8    1  0.5489035E+004  0.1043930E+01  0.7957747E-01            NaN
         13   -1    0    0    0    0  0.00000000000E+00  0.00000000000E+00  0.74505805969E-08  0.10566000000E+00  0.10566000000E+00 0.  1.
     999900   -1    0    0    0    0 -0.00000000000E+00 -0.00000000000E+00 -0.74505805969E-08  0.93827000000E+00  0.93827000000E+00 0.  1.
     999902    2    1    2    0    0  0.90679206427E-02  0.20554306689E-01 -0.32259754614E-02  0.10212338852E+01  0.10209816525E+01 0.  0.
     999903    2    3    3    0    0 -0.15586364391E-01 -0.38671540408E-02  0.12826114948E+00  0.13078843179E+00  0.19919884228E-01 0.  0.
         14    1    1    2    0    0 -0.90679206427E-02 -0.20554306689E-01  0.32259754614E-02  0.22696114776E-01  0.00000000000E+00 0.  1.
     999901    1    3    3    0    0  0.24654285033E-01  0.24421460730E-01 -0.13148712495E+00  0.89044545343E+00  0.88000000000E+00 0.  1.
        -11    1    4    4    0    0 -0.18593849785E-01  0.22276677957E-02  0.90826005906E-01  0.92737900685E-01  0.51100000000E-03 0. -1.
         11    1    4    4    0    0  0.30074853943E-02 -0.60948218365E-02  0.37435143578E-01  0.38050531105E-01  0.51100000000E-03 0.  1.
</event>
<event>
 8    1  0.5489035E+004  0.1043930E+01  0.7957747E-01            NaN
         13   -1    0    0    0    0  0.00000000000E+00  0.00000000000E+00  0.74505805969E-08  0.10566000000E+00  0.10566000000E+00 0.  1.
     999900   -1    0    0    0    0 -0.00000000000E+00 -0.00000000000E+00 -0.74505805969E-08  0.93827000000E+00  0.93827000000E+00 0. -1.
     999902    2    1    2    0    0 -0.21017309232E-01 -0.98840437382E-02 -0.21462936615E-02  0.10206055882E+01  0.10203390312E+01 0.  0.
     999903    2    3    3    0    0  0.26784016573E-01  0.10434225011E+00 -0.69330473840E-01  0.12940060226E+00  0.18251371421E-01 0.  0.
         14    1    1    2    0    0  0.21017309232E-01  0.98840437382E-02  0.21462936615E-02  0.23324411771E-01  0.00000000000E+00 0. -1.
     999901    1    3    3    0    0 -0.47801325805E-01 -0.11422629385E+00  0.67184180179E-01  0.89120498597E+00  0.88000000000E+00 0. -1.
        -11    1    4    4    0    0 -0.78955671124E-03  0.28627477999E-01 -0.19660860373E-01  0.34741422653E-01  0.51100000000E-03 0. -1.
         11    1    4    4    0    0  0.27573573284E-01  0.75714772116E-01 -0.49669613467E-01  0.94659179603E-01  0.51100000000E-03 0.  1.
</event>
<event>
 8    1  0.5489035E+004  0.1043930E+01  0.7957747E-01            NaN
         13   -1    0    0    0    0  0.00000000000E+00  0.00000000000E+00  0.74505805969E-08  0.10566000000E+00  0.10566000000E+00 0. -1.
     999900   -1    0    0    0    0 -0.00000000000E+00 -0.00000000000E+00 -0.74505805969E-08  0.93827000000E+00  0.93827000000E+00 0. -1.
     999902    2    1    2    0    0 -0.98272513172E-03 -0.23291506250E-01 -0.47157275521E-02  0.10201455913E+01  0.10198682902E+01 0.  0.
     999903    2    3    3    0    0 -0.10590127184E+00  0.47906348978E-01 -0.54042794046E-01  0.12969054158E+00  0.19720936566E-01 0.  0.
         14    1    1    2    0    0  0.98272513172E-03  0.23291506250E-01  0.47157275521E-02  0.23784408725E-01  0.00000000000E+00 0. -1.
     999901    1    3    3    0    0  0.10491854670E+00 -0.71197855228E-01  0.49327066494E-01  0.89045504969E+00  0.88000000000E+00 0. -1.
        -11    1    4    4    0    0 -0.24975625315E-01  0.12406220456E-01 -0.22577847868E-01  0.35884766980E-01  0.51100000000E-03 0. -1.
         11    1    4    4    0    0 -0.80925646521E-01  0.35500128522E-01 -0.31464946178E-01  0.93805774604E-01  0.51100000000E-03 0.  1.
</event>
<event>
 8    1  0.5489035E+004  0.1043930E+01  0.7957747E-01            NaN
         13   -1    0    0    0    0  0.00000000000E+00  0.00000000000E+00  0.74505805969E-08  0.10566000000E+00  0.10566000000E+00 0.  1.
     999900   -1    0    0    0    0 -0.00000000000E+00 -0.00000000000E+00 -0.74505805969E-08  0.93827000000E+00  0.93827000000E+00 0. -1.
     999902    2    1    2    0    0  0.94267408549E-03  0.27169304602E-02  0.23883698340E-01  0.10198737868E+01  0.10195900351E+01 0.  0.
     999903    2    3    3    0    0  0.39422863356E-01  0.33629218713E-01  0.12096564443E+00  0.13316007949E+00  0.20342888964E-01 0.  0.
         14    1    1    2    0    0 -0.94267408549E-03 -0.27169304602E-02 -0.23883698340E-01  0.24056213167E-01  0.00000000000E+00 0. -1.
     999901    1    3    3    0    0 -0.38480189271E-01 -0.30912288253E-01 -0.97081946089E-01  0.88671370734E+00  0.88000000000E+00 0. -1.
        -11    1    4    4    0    0  0.14889880247E-01  0.13060507143E-02  0.36741145492E-01  0.39668466007E-01  0.51100000000E-03 0.  1.
         11    1    4    4    0    0  0.24532983109E-01  0.32323167999E-01  0.84224498937E-01  0.93491613484E-01  0.51100000000E-03 0. -1.
</event>
<event>
 8    1  0.5489035E+004  0.1043930E+01  0.7957747E-01            NaN
         13   -1    0    0    0    0  0.00000000000E+00  0.00000000000E+00  0.74505805969E-08  0.10566000000E+00  0.10566000000E+00 0.  1.
     999900   -1    0    0    0    0 -0.00000000000E+00 -0.00000000000E+00 -0.74505805969E-08  0.93827000000E+00  0.93827000000E+00 0. -1.
     999902    2    1    2    0    0  0.16773240850E-01  0.86149348523E-02  0.14861273258E-01  0.10199213317E+01  0.10196387138E+01 0.  0.
     999903    2    3    3    0    0  0.31234602686E-01  0.33185343692E-01  0.12306564211E+00  0.13283564168E+00  0.20573963930E-01 0.  0.
         14    1    1    2    0    0 -0.16773240850E-01 -0.86149348523E-02 -0.14861273258E-01  0.24008668309E-01  0.00000000000E+00 0.  1.
     999901    1    3    3    0    0 -0.14461361836E-01 -0.24570408839E-01 -0.10820436886E+00  0.88708569001E+00  0.88000000000E+00 0. -1.
        -11    1    4    4    0    0  0.21125223090E-01  0.93154555431E-02  0.45046138298E-01  0.50620830289E-01  0.51100000000E-03 0.  1.
         11    1    4    4    0    0  0.10109379596E-01  0.23869888148E-01  0.78019503815E-01  0.82214811394E-01  0.51100000000E-03 0. -1.
</event>
<event>
 8    1  0.5489035E+004  0.1043930E+01  0.7957747E-01            NaN
         13   -1    0    0    0    0  0.00000000000E+00  0.00000000000E+00  0.74505805969E-08  0.10566000000E+00  0.10566000000E+00 0.  1.
     999900   -1    0    0    0    0 -0.00000000000E+00 -0.00000000000E+00 -0.74505805969E-08  0.93827000000E+00  0.93827000000E+00 0. -1.
     999902    2    1    2    0    0  0.84215199152E-03 -0.13428298402E-01  0.20836276096E-01  0.10191272014E+01  0.10188253402E+01 0.  0.
     999903    2    3    3    0    0  0.38432477438E-01 -0.11936597646E+00  0.35200703181E-01  0.13186052164E+00  0.20562490268E-01 0.  0.
         14    1    1    2    0    0 -0.84215199152E-03  0.13428298402E-01 -0.20836276096E-01  0.24802798622E-01  0.00000000000E+00 0. -1.
     999901    1    3    3    0    0 -0.37590325446E-01  0.10593767806E+00 -0.14364427085E-01  0.88726667973E+00  0.88000000000E+00 0. -1.
        -11    1    4    4    0    0  0.33485141503E-01 -0.96618709830E-01  0.20408663459E-01  0.10427465874E+00  0.51100000000E-03 0.  1.
         11    1    4    4    0    0  0.49473359353E-02 -0.22747266629E-01  0.14792039721E-01  0.27585862902E-01  0.51100000000E-03 0. -1.
</event>
<event>
 8    1  0.5489035E+004  0.1043930E+01  0.7957747E-01            NaN
         13   -1    0    0    0    0  0.00000000000E+00  0.00000000000E+00  0.74505805969E-08  0.10566000000E+00  0.10566000000E+00 0. -1.
     999900   -1    0    0    0    0 -0.00000000000E+00 -0.00000000000E+00 -0.74505805969E-08  0.93827000000E+00  0.93827000000E+00 0.  1.
     999902    2    1    2    0    0  0.45642149695E-02 -0.20927878095E-01 -0.18336011738E-01  0.10157339459E+01  0.10153425193E+01 0.  0.
     999903    2    3    3    0    0 -0.95333847493E-01 -0.82411208818E-01 -0.88162634707E-02  0.12789924933E+00  0.20008539704E-01 0.  0.
         14    1    1    2    0    0 -0.45642149695E-02  0.20927878095E-01  0.18336011738E-01  0.28196054091E-01  0.00000000000E+00 0. -1.
     999901    1    3    3    0    0  0.99898062463E-01  0.61483330723E-01 -0.95197482671E-02  0.88783469658E+00  0.88000000000E+00 0. -1.
        -11    1    4    4    0    0 -0.50171823410E-01 -0.52965501401E-01 -0.11777468825E-01  0.73902138642E-01  0.51100000000E-03 0. -1.
         11    1    4    4    0    0 -0.45162024083E-01 -0.29445707417E-01  0.29612053547E-02  0.53997110688E-01  0.51100000000E-03 0.  1.
</event>
<event>
 8    1  0.5489035E+004  0.1043930E+01  0.7957747E-01            NaN
         13   -1    0    0    0    0  0.00000000000E+00  0.00000000000E+00  0.74505805969E-08  0.10566000000E+00  0.10566000000E+00 0.  1.
     999900   -1    0    0    0    0 -0.00000000000E+00 -0.00000000000E+00 -0.74505805969E-08  0.93827000000E+00  0.93827000000E+00 0. -1.
     999902    2    1    2    0    0  0.84213033287E-02  0.13557402959E-01  0.19144231891E-01  0.10190056517E+01  0.10187007878E+01 0.  0.
     999903    2    3    3    0    0 -0.67902177978E-02  0.12508424140E+00 -0.30353021373E-01  0.13045649482E+00  0.20134960387E-01 0.  0.
         14    1    1    2    0    0 -0.84213033287E-02 -0.13557402959E-01 -0.19144231891E-01  0.24924348325E-01  0.00000000000E+00 0. -1.
     999901    1    3    3    0    0  0.15211521126E-01 -0.11152683844E+00  0.49497253264E-01  0.88854915686E+00  0.88000000000E+00 0.  1.
        -11    1    4    4    0    0 -0.60924795682E-02  0.64519529145E-01 -0.56930500990E-02  0.65058127000E-01  0.51100000000E-03 0.  1.
         11    1    4    4    0    0 -0.69773822962E-03  0.60564712255E-01 -0.24659971274E-01  0.65398367819E-01  0.51100000000E-03 0. -1.
</event>
<event>
 8    1  0.5489035E+004  0.1043930E+01  0.7957747E-01            NaN
         13   -1    0    0    0    0  0.00000000000E+00  0.00000000000E+00  0.74505805969E-08  0.10566000000E+00  0.10566000000E+00 0. -1.
     999900   -1    0    0    0    0 -0.00000000000E+00 -0.00000000000E+00 -0.74505805969E-08  0.93827000000E+00  0.93827000000E+00 0.  1.
     999902    2    1    2    0    0 -0.25402933866E-02 -0.17010597679E-01  0.16427147622E-01  0.10201462933E+01  0.10198690088E+01 0.  0.
     999903    2    3    3    0    0  0.10246292171E-01  0.47563328278E-01 -0.11494872537E+00  0.12796194652E+00  0.28174342824E-01 0.  0.
         14    1    1    2    0    0  0.25402933866E-02  0.17010597679E-01 -0.16427147622E-01  0.23783706668E-01  0.00000000000E+00 0. -1.
     999901    1    3    3    0    0 -0.12786585558E-01 -0.64573925957E-01  0.13137587299E+00  0.89218434681E+00  0.88000000000E+00 0.  1.
        -11    1    4    4    0    0  0.19644508556E-01  0.33328384126E-01 -0.71795983644E-01  0.81557417157E-01  0.51100000000E-03 0.  1.
         11    1    4    4    0    0 -0.93982163843E-02  0.14234944152E-01 -0.43152741728E-01  0.46404529368E-01  0.51100000000E-03 0. -1.
</event>
<event>
 7    1  0.5489035E+004  0.1043930E+01  0.7957747E-01            NaN
         13   -1    0    0    0    0  0.00000000000E+00  0.00000000000E+00  0.74505805969E-08  0.10566000000E+00  0.10566000000E+00 0.  1.
     999900   -1    0    0    0    0 -0.00000000000E+00 -0.00000000000E+00 -0.74505805969E-08  0.93827000000E+00  0.93827000000E+00 0.  1.
     999903    2    1    2    0    0 -0.40139421859E-01 -0.65223305240E-01  0.35100839894E-01  0.87209845279E-01  0.22544077240E-01 0.  0.
         14    1    1    2    0    0  0.14902436504E-01 -0.49887387924E-01 -0.44988091590E-01  0.68809610321E-01  0.00000000000E+00 0. -1.
     999901    1    1    2    0    0  0.25236985355E-01  0.11511069316E+00  0.98872516963E-02  0.88791054440E+00  0.88000000000E+00 0. -1.
        -11    1    3    3    0    0 -0.61371619940E-02 -0.26393143628E-01  0.19151799829E-01  0.33186071561E-01  0.51100000000E-03 0. -1.
         11    1    3    3    0    0 -0.34002259865E-01 -0.38830161612E-01  0.15949040064E-01  0.54023773718E-01  0.51100000000E-03 0.  1.
</event>
<event>
 8    1  0.5489035E+004  0.1043930E+01  0.7957747E-01            NaN
         13   -1    0    0    0    0  0.00000000000E+00  0.00000000000E+00  0.74505805969E-08  0.10566000000E+00  0.10566000000E+00 0.  1.
     999900   -1    0    0    0    0 -0.00000000000E+00 -0.00000000000E+00 -0.74505805969E-08  0.93827000000E+00  0.93827000000E+00 0.  1.
     999902    2    1    2    0    0 -0.18344976483E-01  0.96576753740E-02  0.87189654712E-02  0.10214393527E+01  0.10211917166E+01 0.  0.
     999903    2    3    3    0    0 -0.87043119178E-01 -0.10076029046E-01 -0.97213584570E-01  0.13220903439E+00  0.18727434180E-01 0.  0.
         14    1    1    2    0    0  0.18344976483E-01 -0.96576753740E-02 -0.87189654712E-02  0.22490647271E-01  0.00000000000E+00 0. -1.
     999901    1    3    3    0    0  0.68698142695E-01  0.19733704420E-01  0.10593255004E+00  0.88923031834E+00  0.88000000000E+00 0. -1.
        -11    1    4    4    0    0 -0.46710544268E-01  0.30510259940E-02 -0.44968497821E-01  0.64912330282E-01  0.51100000000E-03 0.  1.
         11    1    4    4    0    0 -0.40332574910E-01 -0.13127055040E-01 -0.52245086749E-01  0.67296704105E-01  0.51100000000E-03 0. -1.
</event>
<event>
 8    1  0.5489035E+004  0.1043930E+01  0.7957747E-01            NaN
         13   -1    0    0    0    0  0.00000000000E+00  0.00000000000E+00  0.74505805969E-08  0.10566000000E+00  0.10566000000E+00 0. -1.
     999900   -1    0    0    0    0 -0.00000000000E+00 -0.00000000000E+00 -0.74505805969E-08  0.93827000000E+00  0.93827000000E+00 0. -1.
     999902    2    1    2    0    0  0.17074156583E-01 -0.54412475208E-02 -0.18332783847E-01  0.10182936009E+01  0.10179708407E+01 0.  0.
     999903    2    3    3    0    0 -0.61117251541E-01 -0.54617383472E-01  0.94230124049E-01  0.12632802030E+00  0.19001984694E-01 0.  0.
         14    1    1    2    0    0 -0.17074156583E-01  0.54412475208E-02  0.18332783847E-01  0.25636399146E-01  0.00000000000E+00 0. -1.
     999901    1    3    3    0    0  0.78191408124E-01  0.49176135951E-01 -0.11256290790E+00  0.89196558055E+00  0.88000000000E+00 0. -1.
        -11    1    4    4    0    0 -0.21283518094E-01 -0.91480228044E-02  0.20108472429E-01  0.30680388656E-01  0.51100000000E-03 0.  1.
         11    1    4    4    0    0 -0.39833733447E-01 -0.45469360668E-01  0.74121651620E-01  0.95647631648E-01  0.51100000000E-03 0. -1.
</event>
<event>
 8    1  0.5489035E+004  0.1043930E+01  0.7957747E-01            NaN
         13   -1    0    0    0    0  0.00000000000E+00  0.00000000000E+00  0.74505805969E-08  0.10566000000E+00  0.10566000000E+00 0.  1.
     999900   -1    0    0    0    0 -0.00000000000E+00 -0.00000000000E+00 -0.74505805969E-08  0.93827000000E+00  0.93827000000E+00 0.  1.
     999902    2    1    2    0    0 -0.13242114331E-01 -0.16835066602E-01  0.75110907785E-02  0.10212322128E+01  0.10209799425E+01 0.  0.
     999903    2    3    3    0    0  0.51040415405E-02 -0.13364790023E-01  0.13016544951E+00  0.13252938509E+00  0.20404039159E-01 0.  0.
         14    1    1    2    0    0  0.13242114331E-01  0.16835066602E-01 -0.75110907785E-02  0.22697787208E-01  0.00000000000E+00 0. -1.
     999901    1    3    3    0    0 -0.18346155871E-01 -0.34702765787E-02 -0.12265435873E+00  0.88870282770E+00  0.88000000000E+00 0.  1.
        -11    1    4    4    0    0  0.11860487444E-01 -0.52348380582E-02  0.49478886304E-01  0.51151695991E-01  0.51100000000E-03 0. -1.
         11    1    4    4    0    0 -0.67564459033E-02 -0.81299519649E-02  0.80686563203E-01  0.81377689097E-01  0.51100000000E-03 0.  1.
</event>
<event>
 8    1  0.5489035E+004  0.1043930E+01  0.7957747E-01            NaN
         13   -1    0    0    0    0  0.00000000000E+00  0.00000000000E+00  0.74505805969E-08  0.10566000000E+00  0.10566000000E+00 0. -1.
     999900   -1    0    0    0    0 -0.00000000000E+00 -0.00000000000E+00 -0.74505805969E-08  0.93827000000E+00  0.93827000000E+00 0.  1.
     999902    2    1    2    0    0 -0.14665945838E-01 -0.68215528688E-02 -0.16852366498E-01  0.10205713655E+01  0.10203040166E+01 0.  0.
     999903    2    3    3    0    0  0.72806198479E-01  0.78081276359E-01 -0.73059137143E-01  0.13039213210E+00  0.16341430137E-01 0.  0.
         14    1    1    2    0    0  0.14665945838E-01  0.68215528688E-02  0.16852366498E-01  0.23358634538E-01  0.00000000000E+00 0.  1.
     999901    1    3    3    0    0 -0.87472144317E-01 -0.84902829228E-01  0.56206770645E-01  0.89017923336E+00  0.88000000000E+00 0. -1.
        -11    1    4    4    0    0  0.24475992021E-01  0.19979648085E-01 -0.29118671621E-01  0.42969974179E-01  0.51100000000E-03 0. -1.
         11    1    4    4    0    0  0.48330206457E-01  0.58101628274E-01 -0.43940465523E-01  0.87422157921E-01  0.51100000000E-03 0.  1.
</event>
<event>
 7    1  0.5489035E+004  0.1043930E+01  0.7957747E-01            NaN
         13   -1    0    0    0    0  0.00000000000E+00  0.00000000000E+00  0.74505805969E-08  0.10566000000E+00  0.10566000000E+00 0.  1.
     999900   -1    0    0    0    0 -0.00000000000E+00 -0.00000000000E+00 -0.74505805969E-08  0.93827000000E+00  0.93827000000E+00 0. -1.
     999903    2    1    2    0    0  0.52970300020E-01  0.34720328698E-01 -0.94138795743E-01  0.11518611850E+00  0.19858880188E-01 0.  0.
         14    1    1    2    0    0  0.30904202511E-01  0.22293429422E-01  0.53687091012E-02  0.38482330564E-01  0.00000000000E+00 0.  1.
     999901    1    1    2    0    0 -0.83874502531E-01 -0.57013758120E-01  0.88770086642E-01  0.89026155093E+00  0.88000000000E+00 0.  1.
        -11    1    3    3    0    0  0.33310525476E-01  0.30561056126E-01 -0.74102392184E-01  0.86804348436E-01  0.51100000000E-03 0.  1.
         11    1    3    3    0    0  0.19659774544E-01  0.41592725722E-02 -0.20036403559E-01  0.28381770065E-01  0.51100000000E-03 0. -1.
</event>
<event>
 8    1  0.5489035E+004  0.1043930E+01  0.7957747E-01            NaN
         13   -1    0    0    0    0  0.00000000000E+00  0.00000000000E+00  0.74505805969E-08  0.10566000000E+00  0.10566000000E+00 0.  1.
     999900   -1    0    0    0    0 -0.00000000000E+00 -0.00000000000E+00 -0.74505805969E-08  0.93827000000E+00  0.93827000000E+00 0. -1.
     999902    2    1    2    0    0 -0.35712769401E-02 -0.22300672678E-01  0.13219766626E-01  0.10177606238E+01  0.10174241255E+01 0.  0.
     999903    2    3    3    0    0 -0.45655713957E-01 -0.11782665103E+00 -0.26103870330E-01  0.13071910234E+00  0.20940576867E-01 0.  0.
         14    1    1    2    0    0  0.35712769401E-02  0.22300672678E-01 -0.13219766626E-01  0.26169376197E-01  0.00000000000E+00 0. -1.
     999901    1    3    3    0    0  0.42084437017E-01  0.95525978354E-01  0.39323636956E-01  0.88704152147E+00  0.88000000000E+00 0.  1.
        -11    1    4    4    0    0 -0.32599799466E-01 -0.58395482822E-01 -0.18521495580E-01  0.69398027773E-01  0.51100000000E-03 0. -1.
         11    1    4    4    0    0 -0.13055914491E-01 -0.59431168210E-01 -0.75823747504E-02  0.61321074565E-01  0.51100000000E-03 0.  1.
</event>
<event>
 8    1  0.5489035E+004  0.1043930E+01  0.7957747E-01            NaN
         13   -1    0    0    0    0  0.00000000000E+00  0.00000000000E+00  0.74505805969E-08  0.10566000000E+00  0.10566000000E+00 0. -1.
     999900   -1    0    0    0    0 -0.00000000000E+00 -0.00000000000E+00 -0.74505805969E-08  0.93827000000E+00  0.93827000000E+00 0.  1.
     999902    2    1    2    0    0  0.92301508424E-02 -0.16775527522E-01 -0.11482261771E-01  0.10216038641E+01  0.10213598772E+01 0.  0.
     999903    2    3    3    0    0  0.10750969764E+00  0.55298783687E-01  0.48620691352E-01  0.13117366436E+00  0.15042208327E-01 0.  0.
         14    1    1    2    0    0 -0.92301508424E-02  0.16775527522E-01  0.11482261771E-01  0.22326135886E-01  0.00000000000E+00 0. -1.
     999901    1    3    3    0    0 -0.98279546796E-01 -0.72074311210E-01 -0.60102953123E-01  0.89043019975E+00  0.88000000000E+00 0.  1.
        -11    1    4    4    0    0  0.70954517336E-01  0.33259023979E-01  0.38456946174E-01  0.87292061704E-01  0.51100000000E-03 0.  1.
         11    1    4    4    0    0  0.36555180302E-01  0.22039759708E-01  0.10163745177E-01  0.43881602659E-01  0.51100000000E-03 0. -1.
</event>
<event>
 8    1  0.5489035E+004  0.1043930E+01  0.7957747E-01            NaN
         13   -1    0    0    0    0  0.00000000000E+00  0.00000000000E+00  0.74505805969E-08  0.10566000000E+00  0.10566000000E+00 0.  1.
     999900   -1    0    0    0    0 -0.00000000000E+00 -0.00000000000E+00 -0.74505805969E-08  0.93827000000E+00  0.93827000000E+00 0.  1.
     999902    2    1    2    0    0 -0.18269555397E-01  0.98733630582E-02 -0.90601694077E-02  0.10212728461E+01  0.10210214883E+01 0.  0.
     999903    2    3    3    0    0 -0.76287547623E-02  0.12654759244E+00  0.33539060165E-01  0.13248670941E+00  0.18851221753E-01 0.  0.
         14    1    1    2    0    0  0.18269555397E-01 -0.98733630582E-02  0.90601694077E-02  0.22657153885E-01  0.00000000000E+00 0.  1.
     999901    1    3    3    0    0 -0.10640800635E-01 -0.11667422938E+00 -0.42599229572E-01  0.88878613671E+00  0.88000000000E+00 0.  1.
        -11    1    4    4    0    0 -0.13395002680E-01  0.10294975403E+00  0.28690195332E-01  0.10771010343E+00  0.51100000000E-03 0.  1.
         11    1    4    4    0    0  0.57662479173E-02  0.23597838414E-01  0.48488648323E-02  0.24776605983E-01  0.51100000000E-03 0. -1.
</event>
<event>
 8    1  0.5489035E+004  0.1043930E+01  0.7957747E-01            NaN
         13   -1    0    0    0    0  0.00000000000E+00  0.00000000000E+00  0.74505805969E-08  0.10566000000E+00  0.10566000000E+00 0. -1.
     999900   -1    0    0    0    0 -0.00000000000E+00 -0.00000000000E+00 -0.74505805969E-08  0.93827000000E+00  0.93827000000E+00 0.  1.
     999902    2    1    2    0    0 -0.70609294555E-02 -0.21032119147E-01 -0.80698897889E-02  0.10203221648E+01  0.10200490136E+01 0.  0.
     999903    2    3    3    0    0 -0.74184955815E-01  0.55671841230E-01  0.87549904710E-01  0.12929339000E+00  0.21190406058E-01 0.  0.
         14    1    1    2    0    0  0.70609294555E-02  0.21032119147E-01  0.80698897889E-02  0.23607835178E-01  0.00000000000E+00 0. -1.
     999901    1    3    3    0    0  0.67124026359E-01 -0.76703960377E-01 -0.95619794499E-01  0.89102877482E+00  0.88000000000E+00 0.  1.
        -11    1    4    4    0    0 -0.33442458231E-01  0.34720073550E-01  0.34999263550E-01  0.59574248546E-01  0.51100000000E-03 0.  1.
         11    1    4    4    0    0 -0.40742497584E-01  0.20951767681E-01  0.52550641161E-01  0.69719141459E-01  0.51100000000E-03 0. -1.
</event>
<event>
 8    1  0.5489035E+004  0.1043930E+01  0.7957747E-01            NaN
         13   -1    0    0    0    0  0.00000000000E+00  0.00000000000E+00  0.74505805969E-08  0.10566000000E+00  0.10566000000E+00 0. -1.
     999900   -1    0    0    0    0 -0.00000000000E+00 -0.00000000000E+00 -0.74505805969E-08  0.93827000000E+00  0.93827000000E+00 0. -1.
     999902    2    1    2    0    0  0.21962236540E-01 -0.46197661777E-02  0.55390089299E-02  0.10208137137E+01  0.10205519464E+01 0.  0.
     999903    2    3    3    0    0  0.10697622303E+00 -0.77466377930E-01  0.47660114145E-02  0.13372036782E+00  0.20333959314E-01 0.  0.
         14    1    1    2    0    0 -0.21962236540E-01  0.46197661777E-02 -0.55390089299E-02  0.23116286322E-01  0.00000000000E+00 0.  1.
     999901    1    3    3    0    0 -0.85013986490E-01  0.72846611753E-01  0.77299751544E-03  0.88709334586E+00  0.88000000000E+00 0. -1.
        -11    1    4    4    0    0  0.40032359233E-02 -0.54224391818E-02  0.43633908795E-02  0.80454363154E-02  0.51100000000E-03 0.  1.
         11    1    4    4    0    0  0.10297298711E+00 -0.72043938748E-01  0.40262053502E-03  0.12567493150E+00  0.51100000000E-03 0. -1.
</event>
<event>
 8    1  0.5489035E+004  0.1043930E+01  0.7957747E-01            NaN
         13   -1    0    0    0    0  0.00000000000E+00  0.00000000000E+00  0.74505805969E-08  0.10566000000E+00  0.10566000000E+00 0. -1.
     999900   -1    0    0    0    0 -0.00000000000E+00 -0.00000000000E+00 -0.74505805969E-08  0.93827000000E+00  0.93827000000E+00 0.  1.
     999902    2    1    2    0    0 -0.30741801020E-02  0.24028750848E-01 -0.55760461471E-02  0.10190719280E+01  0.10187687033E+01 0.  0.
     999903    2    3    3    0    0  0.87296343017E-01  0.71991928399E-01  0.61990917086E-01  0.13057173538E+00  0.20065269001E-01 0.  0.
         14    1    1    2    0    0  0.30741801020E-02 -0.24028750848E-01  0.55760461471E-02  0.24858071953E-01  0.00000000000E+00 0. -1.
     999901    1    3    3    0    0 -0.90370523119E-01 -0.47963177551E-01 -0.67566963233E-01  0.88850019267E+00  0.88000000000E+00 0.  1.
        -11    1    4    4    0    0  0.20185229257E-01  0.24465750409E-01  0.25044599681E-01  0.40416698497E-01  0.51100000000E-03 0. -1.
         11    1    4    4    0    0  0.67111113760E-01  0.47526177990E-01  0.36946317405E-01  0.90155036882E-01  0.51100000000E-03 0.  1.
</event>
<event>
 8    1  0.5489035E+004  0.1043930E+01  0.7957747E-01            NaN
         13   -1    0    0    0    0  0.00000000000E+00  0.00000000000E+00  0.74505805969E-08  0.10566000000E+00  0.10566000000E+00 0.  1.
     999900   -1    0    0    0    0 -0.00000000000E+00 -0.00000000000E+00 -0.74505805969E-08  0.93827000000E+00  0.93827000000E+00 0. -1.
     999902    2    1    2    0    0  0.11377063958E-01 -0.17968342784E-01 -0.34916980652E-02  0.10223779495E+01  0.10221507622E+01 0.  0.
     999903    2    3    3    0    0 -0.57661711589E-01  0.11342431703E+00 -0.16933103031E-01  0.12984724694E+00  0.19586446416E-01 0.  0.
         14    1    1    2    0    0 -0.11377063958E-01  0.17968342784E-01  0.34916980652E-02  0.21552050531E-01  0.00000000000E+00 0.  1.
     999901    1    3    3    0    0  0.69038775546E-01 -0.13139265982E+00  0.13441404965E-01  0.89253070253E+00  0.88000000000E+00 0.  1.
        -11    1    4    4    0    0 -0.24861862482E-01  0.67129295212E-01 -0.14596711188E-01  0.73060109364E-01  0.51100000000E-03 0. -1.
         11    1    4    4    0    0 -0.32799849106E-01  0.46295021820E-01 -0.23363918424E-02  0.56787137580E-01  0.51100000000E-03 0.  1.
</event>
<event>
 8    1  0.5489035E+004  0.1043930E+01  0.7957747E-01            NaN
         13   -1    0    0    0    0  0.00000000000E+00  0.00000000000E+00  0.74505805969E-08  0.10566000000E+00  0.10566000000E+00 0.  1.
     999900   -1    0    0    0    0 -0.00000000000E+00 -0.00000000000E+00 -0.74505805969E-08  0.93827000000E+00  0.93827000000E+00 0.  1.
     999902    2    1    2    0    0  0.16112587196E-01 -0.37866810897E-02  0.15374563433E-01  0.10213394794E+01  0.10210896144E+01 0.  0.
     999903    2    3    3    0    0 -0.62991243393E-02  0.12614514670E+00  0.29725883867E-01  0.13140098430E+00  0.20743999092E-01 0.  0.
         14    1    1    2    0    0 -0.16112587196E-01  0.37866810897E-02 -0.15374563433E-01  0.22590520591E-01  0.00000000000E+00 0. -1.
     999901    1    3    3    0    0  0.22411711535E-01 -0.12993182779E+00 -0.14351320434E-01  0.88993849511E+00  0.88000000000E+00 0.  1.
        -11    1    4    4    0    0 -0.10861624778E-01  0.56436002845E-01  0.67981177565E-02  0.57874630331E-01  0.51100000000E-03 0.  1.
         11    1    4    4    0    0  0.45625004382E-02  0.69709143856E-01  0.22927766111E-01  0.73526353964E-01  0.51100000000E-03 0. -1.
</event>
<event>
 8    1  0.5489035E+004  0.1043930E+01  0.7957747E-01            NaN
         13   -1    0    0    0    0  0.00000000000E+00  0.00000000000E+00  0.74505805969E-08  0.10566000000E+00  0.10566000000E+00 0. -1.
     999900   -1    0    0    0    0 -0.00000000000E+00 -0.00000000000E+00 -0.74505805969E-08  0.93827000000E+00  0.93827000000E+00 0.  1.
     999902    2    1    2    0    0 -0.21971820400E-02  0.96884309243E-02 -0.22547610705E-01  0.10192908431E+01  0.10189930004E+01 0.  0.
     999903    2    3    3    0    0 -0.76306221139E-01 -0.14002316312E-01  0.99406126762E-01  0.12748026052E+00  0.18733246835E-01 0.  0.
         14    1    1    2    0    0  0.21971820400E-02 -0.96884309243E-02  0.22547610705E-01  0.24639156869E-01  0.00000000000E+00 0. -1.
     999901    1    3    3    0    0  0.74109039099E-01  0.23690747236E-01 -0.12195373747E+00  0.89181058261E+00  0.88000000000E+00 0.  1.
        -11    1    4    4    0    0 -0.68621802449E-01 -0.18054842824E-01  0.85971366267E-01  0.11147316296E+00  0.51100000000E-03 0.  1.
         11    1    4    4    0    0 -0.76844186896E-02  0.40525265125E-02  0.13434760495E-01  0.16007097560E-01  0.51100000000E-03 0. -1.
</event>
<event>
 8    1  0.5489035E+004  0.1043930E+01  0.7957747E-01            NaN
         13   -1    0    0    0    0  0.00000000000E+00  0.00000000000E+00  0.74505805969E-08  0.10566000000E+00  0.10566000000E+00 0.  1.
     999900   -1    0    0    0    0 -0.00000000000E+00 -0.00000000000E+00 -0.74505805969E-08  0.93827000000E+00  0.93827000000E+00 0.  1.
     999902    2    1    2    0    0  0.20669501836E-01 -0.84200729220E-02  0.83035811932E-02  0.10201166551E+01  0.10198386709E+01 0.  0.
     999903    2    3    3    0    0 -0.10656741253E+00  0.63705211049E-01 -0.21257683983E-01  0.12755564467E+00  0.20089450721E-01 0.  0.
         14    1    1    2    0    0 -0.20669501836E-01  0.84200729220E-02 -0.83035811932E-02  0.23813344889E-01  0.00000000000E+00 0.  1.
     999901    1    3    3    0    0  0.12723691437E+00 -0.72125283971E-01  0.29561265177E-01  0.89256101044E+00  0.88000000000E+00 0.  1.
        -11    1    4    4    0    0 -0.67359579037E-01  0.42472678608E-01 -0.39747536299E-02  0.79732685290E-01  0.51100000000E-03 0.  1.
         11    1    4    4    0    0 -0.39207833493E-01  0.21232532441E-01 -0.17282930354E-01  0.47822959378E-01  0.51100000000E-03 0. -1.
</event>
<event>
 8    1  0.5489035E+004  0.1043930E+01  0.7957747E-01            NaN
         13   -1    0    0    0    0  0.00000000000E+00  0.00000000000E+00  0.74505805969E-08  0.10566000000E+00  0.10566000000E+00 0. -1.
     999900   -1    0    0    0    0 -0.00000000000E+00 -0.00000000000E+00 -0.74505805969E-08  0.93827000000E+00  0.93827000000E+00 0. -1.
     999902    2    1    2    0    0 -0.15214905735E-02  0.19770602121E-01 -0.13400995285E-01  0.10199972125E+01  0.10197163994E+01 0.  0.
     999903    2    3    3    0    0  0.88160321029E-01 -0.24396252318E-01 -0.91476220424E-01  0.13090257237E+00  0.20004130066E-01 0.  0.
         14    1    1    2    0    0  0.15214905735E-02 -0.19770602121E-01  0.13400995285E-01  0.23932787477E-01  0.00000000000E+00 0.  1.
     999901    1    3    3    0    0 -0.89681811602E-01  0.44166854439E-01  0.78075225140E-01  0.88909464015E+00  0.88000000000E+00 0.  1.
        -11    1    4    4    0    0  0.56627435408E-01 -0.12951655394E-01 -0.44505286914E-01  0.73180554129E-01  0.51100000000E-03 0.  1.
         11    1    4    4    0    0  0.31532885621E-01 -0.11444596924E-01 -0.46970933511E-01  0.57722018244E-01  0.51100000000E-03 0. -1.
</event>
<event>
 8    1  0.5489035E+004  0.1043930E+01  0.7957747E-01            NaN
         13   -1    0    0    0    0  0.00000000000E+00  0.00000000000E+00  0.74505805969E-08  0.10566000000E+00  0.10566000000E+00 0.  1.
     999900   -1    0    0    0    0 -0.00000000000E+00 -0.00000000000E+00 -0.74505805969E-08  0.93827000000E+00  0.93827000000E+00 0.  1.
     999902    2    1    2    0    0 -0.16183018248E-01  0.17479419752E-01 -0.10284947629E-02  0.10200872234E+01  0.10198085435E+01 0.  0.
     999903    2    3    3    0    0  0.53429168487E-02 -0.30637941311E-01 -0.12439858965E+00  0.12991935910E+00  0.20899774056E-01 0.  0.
         14    1    1    2    0    0  0.16183018248E-01 -0.17479419752E-01  0.10284947629E-02  0.23842776599E-01  0.00000000000E+00 0. -1.
     999901    1    3    3    0    0 -0.21525935097E-01  0.48117361063E-01  0.12337009488E+00  0.89016786430E+00  0.88000000000E+00 0. -1.
        -11    1    4    4    0    0  0.12825242074E-02 -0.19548912037E-01 -0.38395211290E-01  0.43107519080E-01  0.51100000000E-03 0. -1.
         11    1    4    4    0    0  0.40603926413E-02 -0.11089029274E-01 -0.86003378355E-01  0.86811840023E-01  0.51100000000E-03 0.  1.
</event>
<event>
 8    1  0.5489035E+004  0.1043930E+01  0.7957747E-01            NaN
         13   -1    0    0    0    0  0.00000000000E+00  0.00000000000E+00  0.74505805969E-08  0.10566000000E+00  0.10566000000E+00 0.  1.
     999900   -1    0    0    0    0 -0.00000000000E+00 -0.00000000000E+00 -0.74505805969E-08  0.93827000000E+00  0.93827000000E+00 0.  1.
     999902    2    1    2    0    0 -0.11083352931E-01 -0.20811750802E-01  0.11125385225E-02  0.10203247585E+01  0.10200516680E+01 0.  0.
     999903    2    3    3    0    0 -0.22379056327E-01 -0.41868951802E-01  0.12024424785E+00  0.13197608665E+00  0.26555169368E-01 0.  0.
         14    1    1    2    0    0  0.11083352931E-01  0.20811750802E-01 -0.11125385225E-02  0.23605241486E-01  0.00000000000E+00 0. -1.
     999901    1    3    3    0    0  0.11295703396E-01  0.21057201000E-01 -0.11913170933E+00  0.88834867186E+00  0.88000000000E+00 0.  1.
        -11    1    4    4    0    0 -0.25535932574E-01 -0.43729172599E-01  0.11345627862E+00  0.12424537282E+00  0.51100000000E-03 0.  1.
         11    1    4    4    0    0  0.31568762476E-02  0.18602207971E-02  0.67879692331E-02  0.77307138329E-02  0.51100000000E-03 0. -1.
</event>
<event>
 8    1  0.5489035E+004  0.1043930E+01  0.7957747E-01            NaN
         13   -1    0    0    0    0  0.00000000000E+00  0.00000000000E+00  0.74505805969E-08  0.10566000000E+00  0.10566000000E+00 0.  1.
     999900   -1    0    0    0    0 -0.00000000000E+00 -0.00000000000E+00 -0.74505805969E-08  0.93827000000E+00  0.93827000000E+00 0.  1.
     999902    2    1    2    0    0  0.97003242697E-03 -0.22022492798E-01  0.73383572946E-02  0.10206967772E+01  0.10204323243E+01 0.  0.
     999903    2    3    3    0    0 -0.25834677964E-01 -0.12956406983E+00  0.62326648545E-02  0.13374418220E+00  0.19859037855E-01 0.  0.
         14    1    1    2    0    0 -0.97003242697E-03  0.22022492798E-01 -0.73383572946E-02  0.23233222758E-01  0.00000000000E+00 0. -1.
     999901    1    3    3    0    0  0.26804710391E-01  0.10754157704E+00  0.11056924401E-02  0.88695259504E+00  0.88000000000E+00 0.  1.
        -11    1    4    4    0    0 -0.12914173402E-01 -0.28941566618E-01 -0.31964653101E-02  0.31857003381E-01  0.51100000000E-03 0.  1.
         11    1    4    4    0    0 -0.12920504562E-01 -0.10062250322E+00  0.94291301646E-02  0.10188717882E+00  0.51100000000E-03 0. -1.
</event>
<event>
 8    1  0.5489035E+004  0.1043930E+01  0.7957747E-01            NaN
         13   -1    0    0    0    0  0.00000000000E+00  0.00000000000E+00  0.74505805969E-08  0.10566000000E+00  0.10566000000E+00 0.  1.
     999900   -1    0    0    0    0 -0.00000000000E+00 -0.00000000000E+00 -0.74505805969E-08  0.93827000000E+00  0.93827000000E+00 0. -1.
     999902    2    1    2    0    0 -0.15038690859E-01  0.18810028509E-01 -0.10157440544E-02  0.10198258275E+01  0.10195409297E+01 0.  0.
     999903    2    3    3    0    0 -0.12300834467E+00 -0.40928273877E-01 -0.53497626308E-04  0.13121621872E+00  0.20285875221E-01 0.  0.
         14    1    1    2    0    0  0.15038690859E-01 -0.18810028509E-01  0.10157440544E-02  0.24104172487E-01  0.00000000000E+00 0. -1.
     999901    1    3    3    0    0  0.10796965381E+00  0.59738302386E-01 -0.96224642814E-03  0.88860960879E+00  0.88000000000E+00 0.  1.
        -11    1    4    4    0    0 -0.88139416346E-01 -0.21007634174E-01 -0.50209185161E-02  0.90748819007E-01  0.51100000000E-03 0.  1.
         11    1    4    4    0    0 -0.34868928323E-01 -0.19920639703E-01  0.49674208898E-02  0.40467399717E-01  0.51100000000E-03 0. -1.
</event>
<event>
 8    1  0.5489035E+004  0.1043930E+01  0.7957747E-01            NaN
         13   -1    0    0    0    0  0.00000000000E+00  0.00000000000E+00  0.74505805969E-08  0.10566000000E+00  0.10566000000E+00 0.  1.
     999900   -1    0    0    0    0 -0.00000000000E+00 -0.00000000000E+00 -0.74505805969E-08  0.93827000000E+00  0.93827000000E+00 0.  1.
     999902    2    1    2    0    0  0.10083338996E-01  0.20779745089E-01  0.59067726695E-02  0.10200896666E+01  0.10198110445E+01 0.  0.
     999903    2    3    3    0    0 -0.93350632050E-01  0.31656268296E-01 -0.81823299498E-01  0.12963278914E+00  0.19827956361E-01 0.  0.
         14    1    1    2    0    0 -0.10083338996E-01 -0.20779745089E-01 -0.59067726695E-02  0.23840333358E-01  0.00000000000E+00 0. -1.
     999901    1    3    3    0    0  0.10343397105E+00 -0.10876523207E-01  0.87730072168E-01  0.89045687750E+00  0.88000000000E+00 0.  1.
        -11    1    4    4    0    0 -0.58662618613E-01  0.19230909687E-01 -0.63180499117E-01  0.88335538146E-01  0.51100000000E-03 0.  1.
         11    1    4    4    0    0 -0.34688013437E-01  0.12425358609E-01 -0.18642800381E-01  0.41297250996E-01  0.51100000000E-03 0. -1.
</event>
<event>
 8    1  0.5489035E+004  0.1043930E+01  0.7957747E-01            NaN
         13   -1    0    0    0    0  0.00000000000E+00  0.00000000000E+00  0.74505805969E-08  0.10566000000E+00  0.10566000000E+00 0. -1.
     999900   -1    0    0    0    0 -0.00000000000E+00 -0.00000000000E+00 -0.74505805969E-08  0.93827000000E+00  0.93827000000E+00 0.  1.
     999902    2    1    2    0    0  0.19729172871E-01 -0.39293048605E-02 -0.18487502080E-01  0.10166084438E+01  0.10162412413E+01 0.  0.
     999903    2    3    3    0    0  0.80159731141E-01  0.32365389110E-01  0.90952440762E-01  0.12703199501E+00  0.19790916298E-01 0.  0.
         14    1    1    2    0    0 -0.19729172871E-01  0.39293048605E-02  0.18487502080E-01  0.27321556179E-01  0.00000000000E+00 0. -1.
     999901    1    3    3    0    0 -0.60430558269E-01 -0.36294693970E-01 -0.10943994284E+00  0.88957644881E+00  0.88000000000E+00 0.  1.
        -11    1    4    4    0    0  0.56737175995E-01  0.12903845104E-01  0.61463540050E-01  0.84638314225E-01  0.51100000000E-03 0. -1.
         11    1    4    4    0    0  0.23422555146E-01  0.19461544006E-01  0.29488900711E-01  0.42393680789E-01  0.51100000000E-03 0.  1.
</event>
<event>
 8    1  0.5489035E+004  0.1043930E+01  0.7957747E-01            NaN
         13   -1    0    0    0    0  0.00000000000E+00  0.00000000000E+00  0.74505805969E-08  0.10566000000E+00  0.10566000000E+00 0.  1.
     999900   -1    0    0    0    0 -0.00000000000E+00 -0.00000000000E+00 -0.74505805969E-08  0.93827000000E+00  0.93827000000E+00 0. -1.
     999902    2    1    2    0    0 -0.86359113528E-02 -0.21546864368E-01  0.16425341431E-02  0.10206588967E+01  0.10203935707E+01 0.  0.
     999903    2    3    3    0    0 -0.51081496646E-01  0.10222526209E+00 -0.56376443095E-01  0.12909433445E+00  0.20681400845E-01 0.  0.
         14    1    1    2    0    0  0.86359113528E-02  0.21546864368E-01 -0.16425341431E-02  0.23271103270E-01  0.00000000000E+00 0. -1.
     999901    1    3    3    0    0  0.42445585294E-01 -0.12377212646E+00  0.58018977238E-01  0.89156456228E+00  0.88000000000E+00 0. -1.
        -11    1    4    4    0    0 -0.30274041365E-01  0.37978764700E-01 -0.25000452170E-01  0.54627720787E-01  0.51100000000E-03 0.  1.
         11    1    4    4    0    0 -0.20807455281E-01  0.64246497392E-01 -0.31375990925E-01  0.74466613660E-01  0.51100000000E-03 0. -1.
</event>
<event>
 8    1  0.5489035E+004  0.1043930E+01  0.7957747E-01            NaN
         13   -1    0    0    0    0  0.00000000000E+00  0.00000000000E+00  0.74505805969E-08  0.10566000000E+00  0.10566000000E+00 0.  1.
     999900   -1    0    0    0    0 -0.00000000000E+00 -0.00000000000E+00 -0.74505805969E-08  0.93827000000E+00  0.93827000000E+00 0. -1.
     999902    2    1    2    0    0 -0.15397038384E-01 -0.52173238064E-03 -0.18502278519E-01  0.10198535529E+01  0.10195693179E+01 0.  0.
     999903    2    3    3    0    0  0.88560768146E-01  0.62594667356E-01  0.63200943867E-01  0.12774015089E+00  0.23708327815E-01 0.  0.
         14    1    1    2    0    0  0.15397038384E-01  0.52173238064E-03  0.18502278519E-01  0.24076447124E-01  0.00000000000E+00 0.  1.
     999901    1    3    3    0    0 -0.10395780653E+00 -0.63116399736E-01 -0.81703222387E-01  0.89211340199E+00  0.88000000000E+00 0. -1.
        -11    1    4    4    0    0  0.40456180922E-01  0.41622934451E-01  0.39124061882E-01  0.70000889896E-01  0.51100000000E-03 0.  1.
         11    1    4    4    0    0  0.48104587225E-01  0.20971732905E-01  0.24076881985E-01  0.57739260995E-01  0.51100000000E-03 0. -1.
</event>
<event>
 8    1  0.5489035E+004  0.1043930E+01  0.7957747E-01            NaN
         13   -1    0    0    0    0  0.00000000000E+00  0.00000000000E+00  0.74505805969E-08  0.10566000000E+00  0.10566000000E+00 0. -1.
     999900   -1    0    0    0    0 -0.00000000000E+00 -0.00000000000E+00 -0.74505805969E-08  0.93827000000E+00  0.93827000000E+00 0.  1.
     999902    2    1    2    0    0 -0.13183988209E-02 -0.14282259100E-01  0.24502730882E-01  0.10155380131E+01  0.10151410499E+01 0.  0.
     999903    2    3    3    0    0 -0.79334297834E-01 -0.97575264965E-01 -0.79471185805E-02  0.12757562759E+00  0.19937926534E-01 0.  0.
         14    1    1    2    0    0  0.13183988209E-02  0.14282259100E-01 -0.24502730882E-01  0.28391986918E-01  0.00000000000E+00 0.  1.
     999901    1    3    3    0    0  0.78015899013E-01  0.83293005865E-01  0.32449849463E-01  0.88796238550E+00  0.88000000000E+00 0.  1.
        -11    1    4    4    0    0 -0.36527820652E-01 -0.58823403623E-01 -0.89701585379E-02  0.69822627855E-01  0.51100000000E-03 0.  1.
         11    1    4    4    0    0 -0.42806477182E-01 -0.38751861342E-01  0.10230399574E-02  0.57752999731E-01  0.51100000000E-03 0. -1.
</event>
<event>
 8    1  0.5489035E+004  0.1043930E+01  0.7957747E-01            NaN
         13   -1    0    0    0    0  0.00000000000E+00  0.00000000000E+00  0.74505805969E-08  0.10566000000E+00  0.10566000000E+00 0. -1.
     999900   -1    0    0    0    0 -0.00000000000E+00 -0.00000000000E+00 -0.74505805969E-08  0.93827000000E+00  0.93827000000E+00 0. -1.
     999902    2    1    2    0    0 -0.11662057189E-01 -0.20322580908E-01  0.55716469634E-02  0.10198456872E+01  0.10195612643E+01 0.  0.
     999903    2    3    3    0    0  0.99293785303E-01 -0.12182682267E-01 -0.78701186845E-01  0.12884660334E+00  0.19997420723E-01 0.  0.
         14    1    1    2    0    0  0.11662057189E-01  0.20322580908E-01 -0.55716469634E-02  0.24084312789E-01  0.00000000000E+00 0.  1.
     999901    1    3    3    0    0 -0.11095584249E+00 -0.81398986405E-02  0.84272833808E-01  0.89099908387E+00  0.88000000000E+00 0.  1.
        -11    1    4    4    0    0  0.12253417181E-01  0.45325374160E-03 -0.26119579169E-02  0.12547315120E-01  0.51100000000E-03 0. -1.
         11    1    4    4    0    0  0.87040368123E-01 -0.12635936009E-01 -0.76089228928E-01  0.11629928822E+00  0.51100000000E-03 0.  1.
</event>
<event>
 8    1  0.5489035E+004  0.1043930E+01  0.7957747E-01            NaN
         13   -1    0    0    0    0  0.00000000000E+00  0.00000000000E+00  0.74505805969E-08  0.10566000000E+00  0.10566000000E+00 0.  1.
     999900   -1    0    0    0    0 -0.00000000000E+00 -0.00000000000E+00 -0.74505805969E-08  0.93827000000E+00  0.93827000000E+00 0. -1.
     999902    2    1    2    0    0 -0.36977779702E-02  0.16550393348E-01 -0.16064009717E-01  0.10205710298E+01  0.10203036731E+01 0.  0.
     999903    2    3    3    0    0  0.10286050293E+00  0.10125728814E-01 -0.79268840623E-01  0.13186928330E+00  0.20570496751E-01 0.  0.
         14    1    1    2    0    0  0.36977779702E-02 -0.16550393348E-01  0.16064009717E-01  0.23358970227E-01  0.00000000000E+00 0.  1.
     999901    1    3    3    0    0 -0.10655828090E+00  0.64246645337E-02  0.63204830906E-01  0.88870174648E+00  0.88000000000E+00 0.  1.
        -11    1    4    4    0    0  0.60054949357E-01  0.16023022433E-01 -0.45697980881E-01  0.77148562966E-01  0.51100000000E-03 0.  1.
         11    1    4    4    0    0  0.42805553571E-01 -0.58972936190E-02 -0.33570859741E-01  0.54720720329E-01  0.51100000000E-03 0. -1.
</event>
<event>
 8    1  0.5489035E+004  0.1043930E+01  0.7957747E-01            NaN
         13   -1    0    0    0    0  0.00000000000E+00  0.00000000000E+00  0.74505805969E-08  0.10566000000E+00  0.10566000000E+00 0. -1.
     999900   -1    0    0    0    0 -0.00000000000E+00 -0.00000000000E+00 -0.74505805969E-08  0.93827000000E+00  0.93827000000E+00 0.  1.
     999902    2    1    2    0    0 -0.21133040858E-01 -0.31247262521E-02  0.97569286494E-02  0.10204445367E+01  0.10201742427E+01 0.  0.
     999903    2    3    3    0    0 -0.80453903677E-01 -0.83104796336E-01 -0.60316598808E-01  0.13206056812E+00  0.20558788105E-01 0.  0.
         14    1    1    2    0    0  0.21133040858E-01  0.31247262521E-02 -0.97569286494E-02  0.23485463306E-01  0.00000000000E+00 0.  1.
     999901    1    3    3    0    0  0.59320862820E-01  0.79980070084E-01  0.70073527457E-01  0.88838396858E+00  0.88000000000E+00 0. -1.
        -11    1    4    4    0    0 -0.64209290008E-01 -0.71465798903E-01 -0.41666868142E-01  0.10472145128E+00  0.51100000000E-03 0.  1.
         11    1    4    4    0    0 -0.16244613669E-01 -0.11638997432E-01 -0.18649730665E-01  0.27339116836E-01  0.51100000000E-03 0. -1.
</event>
<event>
 8    1  0.5489035E+004  0.1043930E+01  0.7957747E-01            NaN
         13   -1    0    0    0    0  0.00000000000E+00  0.00000000000E+00  0.74505805969E-08  0.10566000000E+00  0.10566000000E+00 0.  1.
     999900   -1    0    0    0    0 -0.00000000000E+00 -0.00000000000E+00 -0.74505805969E-08  0.93827000000E+00  0.93827000000E+00 0.  1.
     999902    2    1    2    0    0 -0.35897179749E-02 -0.21576219574E-01  0.75610680724E-02  0.10207872025E+01  0.10205248276E+01 0.  0.
     999903    2    3    3    0    0 -0.73804834274E-01 -0.10970980587E+00  0.37434989383E-02  0.13359372561E+00  0.18704937071E-01 0.  0.
         14    1    1    2    0    0  0.35897179749E-02  0.21576219574E-01 -0.75610680724E-02  0.23142797511E-01  0.00000000000E+00 0.  1.
     999901    1    3    3    0    0  0.70215116299E-01  0.88133586296E-01  0.38175691341E-02  0.88719347688E+00  0.88000000000E+00 0.  1.
        -11    1    4    4    0    0 -0.54705857083E-01 -0.94105431936E-01  0.39620351218E-02  0.10892438644E+00  0.51100000000E-03 0.  1.
         11    1    4    4    0    0 -0.19098977190E-01 -0.15604373934E-01 -0.21853618356E-03  0.24669339161E-01  0.51100000000E-03 0. -1.
</event>
<event>
 8    1  0.5489035E+004  0.1043930E+01  0.7957747E-01            NaN
         13   -1    0    0    0    0  0.00000000000E+00  0.00000000000E+00  0.74505805969E-08  0.10566000000E+00  0.10566000000E+00 0. -1.
     999900   -1    0    0    0    0 -0.00000000000E+00 -0.00000000000E+00 -0.74505805969E-08  0.93827000000E+00  0.93827000000E+00 0.  1.
     999902    2    1    2    0    0 -0.17570383706E-01 -0.53605542178E-02  0.14433185723E-01  0.10205682626E+01  0.10203008418E+01 0.  0.
     999903    2    3    3    0    0 -0.54072457652E-01  0.86213653669E-01  0.82330065583E-01  0.13246453933E+00  0.20297530056E-01 0.  0.
         14    1    1    2    0    0  0.17570383706E-01  0.53605542178E-02 -0.14433185723E-01  0.23361737418E-01  0.00000000000E+00 0. -1.
     999901    1    3    3    0    0  0.36502073946E-01 -0.91574207887E-01 -0.67896879860E-01  0.88810372325E+00  0.88000000000E+00 0.  1.
        -11    1    4    4    0    0 -0.42298224778E-01  0.78308939494E-01  0.75512007788E-01  0.11672083904E+00  0.51100000000E-03 0. -1.
         11    1    4    4    0    0 -0.11774232874E-01  0.79047141752E-02  0.68180577953E-02  0.15743700298E-01  0.51100000000E-03 0.  1.
</event>
<event>
 8    1  0.5489035E+004  0.1043930E+01  0.7957747E-01            NaN
         13   -1    0    0    0    0  0.00000000000E+00  0.00000000000E+00  0.74505805969E-08  0.10566000000E+00  0.10566000000E+00 0. -1.
     999900   -1    0    0    0    0 -0.00000000000E+00 -0.00000000000E+00 -0.74505805969E-08  0.93827000000E+00  0.93827000000E+00 0. -1.
     999902    2    1    2    0    0 -0.47131696600E-02 -0.16500869640E-01 -0.15685133456E-01  0.10206809983E+01  0.10204161819E+01 0.  0.
     999903    2    3    3    0    0  0.66657215335E-01 -0.10090294117E+00 -0.51743113284E-01  0.13303376015E+00  0.19900846111E-01 0.  0.
         14    1    1    2    0    0  0.47131696600E-02  0.16500869640E-01  0.15685133456E-01  0.23249001670E-01  0.00000000000E+00 0. -1.
     999901    1    3    3    0    0 -0.71370384995E-01  0.84402071527E-01  0.36057979828E-01  0.88764723818E+00  0.88000000000E+00 0. -1.
        -11    1    4    4    0    0  0.30052590502E-01 -0.44768503330E-01 -0.12427994708E-01  0.55336184000E-01  0.51100000000E-03 0. -1.
         11    1    4    4    0    0  0.36604624834E-01 -0.56134437837E-01 -0.39315118575E-01  0.77697576153E-01  0.51100000000E-03 0.  1.
</event>
<event>
 8    1  0.5489035E+004  0.1043930E+01  0.7957747E-01            NaN
         13   -1    0    0    0    0  0.00000000000E+00  0.00000000000E+00  0.74505805969E-08  0.10566000000E+00  0.10566000000E+00 0. -1.
     999900   -1    0    0    0    0 -0.00000000000E+00 -0.00000000000E+00 -0.74505805969E-08  0.93827000000E+00  0.93827000000E+00 0. -1.
     999902    2    1    2    0    0 -0.14942829425E-01 -0.98104860154E-02 -0.18061994661E-01  0.10185180060E+01  0.10182009424E+01 0.  0.
     999903    2    3    3    0    0  0.11035548799E+00  0.44735225318E-01  0.36974398202E-01  0.12627145516E+00  0.19944928017E-01 0.  0.
         14    1    1    2    0    0  0.14942829425E-01  0.98104860154E-02  0.18061994661E-01  0.25411993983E-01  0.00000000000E+00 0. -1.
     999901    1    3    3    0    0 -0.12529831741E+00 -0.54545711334E-01 -0.55036392863E-01  0.89224655085E+00  0.88000000000E+00 0.  1.
        -11    1    4    4    0    0  0.71149191597E-01  0.19470676116E-01  0.27143129860E-01  0.78602323839E-01  0.51100000000E-03 0. -1.
         11    1    4    4    0    0  0.39206296389E-01  0.25264549202E-01  0.98312683427E-02  0.47669131324E-01  0.51100000000E-03 0.  1.
</event>
<event>
 8    1  0.5489035E+004  0.1043930E+01  0.7957747E-01            NaN
         13   -1    0    0    0    0  0.00000000000E+00  0.00000000000E+00  0.74505805969E-08  0.10566000000E+00  0.10566000000E+00 0.  1.
     999900   -1    0    0    0    0 -0.00000000000E+00 -0.00000000000E+00 -0.74505805969E-08  0.93827000000E+00  0.93827000000E+00 0.  1.
     999902    2    1    2    0    0 -0.20335697990E-01 -0.10378350662E-01  0.51934183909E-03  0.10210931769E+01  0.10208377713E+01 0.  0.
     999903    2    3    3    0    0  0.77756713916E-03  0.79810816153E-01 -0.10106649077E+00  0.13041953452E+00  0.20602146519E-01 0.  0.
         14    1    1    2    0    0  0.20335697990E-01  0.10378350662E-01 -0.51934183909E-03  0.22836823140E-01  0.00000000000E+00 0.  1.
     999901    1    3    3    0    0 -0.21113265129E-01 -0.90189166815E-01  0.10158583261E+00  0.89067364234E+00  0.88000000000E+00 0. -1.
        -11    1    4    4    0    0  0.18037289227E-02  0.70422017671E-01 -0.76000885962E-01  0.10362871127E+00  0.51100000000E-03 0.  1.
         11    1    4    4    0    0 -0.10261617836E-02  0.93887984817E-02 -0.25065604811E-01  0.26790823251E-01  0.51100000000E-03 0. -1.
</event>
<event>
 8    1  0.5489035E+004  0.1043930E+01  0.7957747E-01            NaN
         13   -1    0    0    0    0  0.00000000000E+00  0.00000000000E+00  0.74505805969E-08  0.10566000000E+00  0.10566000000E+00 0. -1.
     999900   -1    0    0    0    0 -0.00000000000E+00 -0.00000000000E+00 -0.74505805969E-08  0.93827000000E+00  0.93827000000E+00 0.  1.
     999902    2    1    2    0    0  0.28187476826E-02 -0.18373338740E-01  0.18102094267E-02  0.10252537645E+01  0.10250836453E+01 0.  0.
     999903    2    3    3    0    0 -0.10762502370E-01 -0.65690418148E-01 -0.11675788224E+00  0.13593843867E+00  0.20391016381E-01 0.  0.
         14    1    1    2    0    0 -0.28187476826E-02  0.18373338740E-01 -0.18102094267E-02  0.18676235518E-01  0.00000000000E+00 0.  1.
     999901    1    3    3    0    0  0.13581250052E-01  0.47317079408E-01  0.11856809167E+00  0.88931532581E+00  0.88000000000E+00 0. -1.
        -11    1    4    4    0    0  0.48630539675E-02 -0.25836491528E-01 -0.36626962764E-01  0.45088458730E-01  0.51100000000E-03 0. -1.
         11    1    4    4    0    0 -0.15625556337E-01 -0.39853926621E-01 -0.80130919480E-01  0.90849979943E-01  0.51100000000E-03 0.  1.
</event>
<event>
 8    1  0.5489035E+004  0.1043930E+01  0.7957747E-01            NaN
         13   -1    0    0    0    0  0.00000000000E+00  0.00000000000E+00  0.74505805969E-08  0.10566000000E+00  0.10566000000E+00 0.  1.
     999900   -1    0    0    0    0 -0.00000000000E+00 -0.00000000000E+00 -0.74505805969E-08  0.93827000000E+00  0.93827000000E+00 0. -1.
     999902    2    1    2    0    0 -0.10231101872E-01  0.34239162350E-02 -0.19737025485E-01  0.10214366938E+01  0.10211889985E+01 0.  0.
     999903    2    3    3    0    0  0.81326769050E-01 -0.38363737573E-01  0.90224517333E-01  0.12890064825E+00  0.19725462408E-01 0.  0.
         14    1    1    2    0    0  0.10231101872E-01 -0.34239162350E-02  0.19737025485E-01  0.22493306180E-01  0.00000000000E+00 0.  1.
     999901    1    3    3    0    0 -0.91557870922E-01  0.41787653808E-01 -0.10996154282E+00  0.89253604557E+00  0.88000000000E+00 0. -1.
        -11    1    4    4    0    0  0.73683818319E-01 -0.28764197632E-01  0.82983126761E-01  0.11464355453E+00  0.51100000000E-03 0. -1.
         11    1    4    4    0    0  0.76429507307E-02 -0.95995399412E-02  0.72413905719E-02  0.14257093721E-01  0.51100000000E-03 0.  1.
</event>
<event>
 8    1  0.5489035E+004  0.1043930E+01  0.7957747E-01            NaN
         13   -1    0    0    0    0  0.00000000000E+00  0.00000000000E+00  0.74505805969E-08  0.10566000000E+00  0.10566000000E+00 0.  1.
     999900   -1    0    0    0    0 -0.00000000000E+00 -0.00000000000E+00 -0.74505805969E-08  0.93827000000E+00  0.93827000000E+00 0. -1.
     999902    2    1    2    0    0  0.29444062525E-03  0.65922819279E-02  0.22965903481E-01  0.10200348624E+01  0.10197549426E+01 0.  0.
     999903    2    3    3    0    0  0.81781631384E-01  0.59922134009E-01  0.81493882346E-01  0.13273008972E+00  0.26403152868E-01 0.  0.
         14    1    1    2    0    0 -0.29444062525E-03 -0.65922819279E-02 -0.22965903481E-01  0.23895137560E-01  0.00000000000E+00 0. -1.
     999901    1    3    3    0    0 -0.81487190759E-01 -0.53329852081E-01 -0.58527978865E-01  0.88730477272E+00  0.88000000000E+00 0. -1.
        -11    1    4    4    0    0  0.47368607981E-01  0.24139990046E-01  0.54832679015E-01  0.76376750065E-01  0.51100000000E-03 0.  1.
         11    1    4    4    0    0  0.34413023403E-01  0.35782143963E-01  0.26661203331E-01  0.56353339656E-01  0.51100000000E-03 0. -1.
</event>
<event>
 8    1  0.5489035E+004  0.1043930E+01  0.7957747E-01            NaN
         13   -1    0    0    0    0  0.00000000000E+00  0.00000000000E+00  0.74505805969E-08  0.10566000000E+00  0.10566000000E+00 0.  1.
     999900   -1    0    0    0    0 -0.00000000000E+00 -0.00000000000E+00 -0.74505805969E-08  0.93827000000E+00  0.93827000000E+00 0.  1.
     999902    2    1    2    0    0 -0.34087881695E-02  0.15715649188E-01 -0.21553951387E-01  0.10170381000E+01  0.10166825082E+01 0.  0.
     999903    2    3    3    0    0 -0.71171015044E-01 -0.76909973267E-01  0.66024075370E-01  0.12527516282E+00  0.18821012740E-01 0.  0.
         14    1    1    2    0    0  0.34087881695E-02 -0.15715649188E-01  0.21553951387E-01  0.26891900018E-01  0.00000000000E+00 0. -1.
     999901    1    3    3    0    0  0.67762226875E-01  0.92625622455E-01 -0.87578026757E-01  0.89176293716E+00  0.88000000000E+00 0.  1.
        -11    1    4    4    0    0 -0.16477740147E-01 -0.23392809154E-01  0.27136449097E-01  0.39438400463E-01  0.51100000000E-03 0. -1.
         11    1    4    4    0    0 -0.54693274897E-01 -0.53517164113E-01  0.38887626273E-01  0.85836762356E-01  0.51100000000E-03 0.  1.
</event>
<event>
 8    1  0.5489035E+004  0.1043930E+01  0.7957747E-01            NaN
         13   -1    0    0    0    0  0.00000000000E+00  0.00000000000E+00  0.74505805969E-08  0.10566000000E+00  0.10566000000E+00 0. -1.
     999900   -1    0    0    0    0 -0.00000000000E+00 -0.00000000000E+00 -0.74505805969E-08  0.93827000000E+00  0.93827000000E+00 0.  1.
     999902    2    1    2    0    0  0.22849504669E-01  0.40277734519E-02  0.51268985444E-02  0.10201685204E+01  0.10198917600E+01 0.  0.
     999903    2    3    3    0    0  0.21421646908E-01  0.59850432290E-01  0.11356588494E+00  0.13175576625E+00  0.20528285794E-01 0.  0.
         14    1    1    2    0    0 -0.22849504669E-01 -0.40277734519E-02 -0.51268985444E-02  0.23761479569E-01  0.00000000000E+00 0. -1.
     999901    1    3    3    0    0  0.14278577611E-02 -0.55822658838E-01 -0.10843898639E+00  0.88841275418E+00  0.88000000000E+00 0.  1.
        -11    1    4    4    0    0  0.18597027905E-01  0.45405849358E-01  0.67906081359E-01  0.83779696880E-01  0.51100000000E-03 0.  1.
         11    1    4    4    0    0  0.28246190029E-02  0.14444582932E-01  0.45659803579E-01  0.47976069373E-01  0.51100000000E-03 0. -1.
</event>
<event>
 8    1  0.5489035E+004  0.1043930E+01  0.7957747E-01            NaN
         13   -1    0    0    0    0  0.00000000000E+00  0.00000000000E+00  0.74505805969E-08  0.10566000000E+00  0.10566000000E+00 0. -1.
     999900   -1    0    0    0    0 -0.00000000000E+00 -0.00000000000E+00 -0.74505805969E-08  0.93827000000E+00  0.93827000000E+00 0.  1.
     999902    2    1    2    0    0 -0.13763744542E-01  0.62847204566E-02  0.19185495646E-01  0.10194959742E+01  0.10192031298E+01 0.  0.
     999903    2    3    3    0    0 -0.11290981243E+00 -0.46732269193E-01  0.45488643155E-01  0.13195296139E+00  0.20244422357E-01 0.  0.
         14    1    1    2    0    0  0.13763744542E-01 -0.62847204566E-02 -0.19185495646E-01  0.24434025829E-01  0.00000000000E+00 0.  1.
     999901    1    3    3    0    0  0.99146067887E-01  0.53016989649E-01 -0.26303147509E-01  0.88754301278E+00  0.88000000000E+00 0. -1.
        -11    1    4    4    0    0 -0.73049938084E-01 -0.29014657368E-01  0.39342148199E-01  0.87898859731E-01  0.51100000000E-03 0. -1.
         11    1    4    4    0    0 -0.39859874345E-01 -0.17717611825E-01  0.61464949566E-02  0.44054101658E-01  0.51100000000E-03 0.  1.
</event>
<event>
 8    1  0.5489035E+004  0.1043930E+01  0.7957747E-01            NaN
         13   -1    0    0    0    0  0.00000000000E+00  0.00000000000E+00  0.74505805969E-08  0.10566000000E+00  0.10566000000E+00 0.  1.
     999900   -1    0    0    0    0 -0.00000000000E+00 -0.00000000000E+00 -0.74505805969E-08  0.93827000000E+00  0.93827000000E+00 0. -1.
     999902    2    1    2    0    0 -0.31975272656E-02  0.56717242534E-02  0.23634816722E-01  0.10194147558E+01  0.10191199376E+01 0.  0.
     999903    2    3    3    0    0 -0.69803019893E-01  0.61804592993E-01  0.92080980670E-01  0.13246939787E+00  0.19415588300E-01 0.  0.
         14    1    1    2    0    0  0.31975272656E-02 -0.56717242534E-02 -0.23634816722E-01  0.24515244198E-01  0.00000000000E+00 0. -1.
     999901    1    3    3    0    0  0.66605492628E-01 -0.56132868740E-01 -0.68446163948E-01  0.88694535793E+00  0.88000000000E+00 0. -1.
        -11    1    4    4    0    0 -0.29813952631E-01  0.39323034056E-01  0.48343199402E-01  0.69083274592E-01  0.51100000000E-03 0.  1.
         11    1    4    4    0    0 -0.39989067263E-01  0.22481558937E-01  0.43737781268E-01  0.63386123276E-01  0.51100000000E-03 0. -1.
</event>
<event>
 8    1  0.5489035E+004  0.1043930E+01  0.7957747E-01            NaN
         13   -1    0    0    0    0  0.00000000000E+00  0.00000000000E+00  0.74505805969E-08  0.10566000000E+00  0.10566000000E+00 0.  1.
     999900   -1    0    0    0    0 -0.00000000000E+00 -0.00000000000E+00 -0.74505805969E-08  0.93827000000E+00  0.93827000000E+00 0. -1.
     999902    2    1    2    0    0  0.38532020524E-02  0.88507429300E-02 -0.20842869338E-01  0.10209602804E+01  0.10207018596E+01 0.  0.
     999903    2    3    3    0    0  0.18453295088E-01  0.12541742598E+00  0.30034364355E-01  0.13169685080E+00  0.19285814188E-01 0.  0.
         14    1    1    2    0    0 -0.38532020524E-02 -0.88507429300E-02  0.20842869338E-01  0.22969719605E-01  0.00000000000E+00 0.  1.
     999901    1    3    3    0    0 -0.14600093035E-01 -0.11656668305E+00 -0.50877233693E-01  0.88926342960E+00  0.88000000000E+00 0. -1.
        -11    1    4    4    0    0 -0.32582948024E-02  0.37420066617E-01  0.76542019596E-02  0.38337003004E-01  0.51100000000E-03 0.  1.
         11    1    4    4    0    0  0.21711589890E-01  0.87997359361E-01  0.22380162395E-01  0.93359847793E-01  0.51100000000E-03 0. -1.
</event>
<event>
 8    1  0.5489035E+004  0.1043930E+01  0.7957747E-01            NaN
         13   -1    0    0    0    0  0.00000000000E+00  0.00000000000E+00  0.74505805969E-08  0.10566000000E+00  0.10566000000E+00 0. -1.
     999900   -1    0    0    0    0 -0.00000000000E+00 -0.00000000000E+00 -0.74505805969E-08  0.93827000000E+00  0.93827000000E+00 0. -1.
     999902    2    1    2    0    0  0.23028139419E-02 -0.11869663371E-01  0.21217819792E-01  0.10195089489E+01  0.10192164192E+01 0.  0.
     999903    2    3    3    0    0  0.10818018001E+00  0.19530699066E-01 -0.63829885967E-01  0.12853806740E+00  0.19062551642E-01 0.  0.
         14    1    1    2    0    0 -0.23028139419E-02  0.11869663371E-01 -0.21217819792E-01  0.24421051110E-01  0.00000000000E+00 0.  1.
     999901    1    3    3    0    0 -0.10587736607E+00 -0.31400362437E-01  0.85047705759E-01  0.89097088149E+00  0.88000000000E+00 0.  1.
        -11    1    4    4    0    0  0.54548944246E-01  0.88863697589E-02 -0.42992018823E-01  0.70022351355E-01  0.51100000000E-03 0.  1.
         11    1    4    4    0    0  0.53631235767E-01  0.10644329307E-01 -0.20837867144E-01  0.58515716046E-01  0.51100000000E-03 0. -1.
</event>
<event>
 8    1  0.5489035E+004  0.1043930E+01  0.7957747E-01            NaN
         13   -1    0    0    0    0  0.00000000000E+00  0.00000000000E+00  0.74505805969E-08  0.10566000000E+00  0.10566000000E+00 0. -1.
     999900   -1    0    0    0    0 -0.00000000000E+00 -0.00000000000E+00 -0.74505805969E-08  0.93827000000E+00  0.93827000000E+00 0.  1.
     999902    2    1    2    0    0 -0.19637927089E-01  0.46991993020E-02 -0.11494239971E-01  0.10206953662E+01  0.10204308808E+01 0.  0.
     999903    2    3    3    0    0  0.11955116568E+00 -0.37144826980E-01 -0.20435943807E-01  0.12872872999E+00  0.21937154275E-01 0.  0.
         14    1    1    2    0    0  0.19637927089E-01 -0.46991993020E-02  0.11494239971E-01  0.23234633781E-01  0.00000000000E+00 0. -1.
     999901    1    3    3    0    0 -0.13918909277E+00  0.41844026282E-01  0.89417038360E-02  0.89196663623E+00  0.88000000000E+00 0. -1.
        -11    1    4    4    0    0  0.42778198469E-01 -0.13553647292E-01 -0.18064530760E-01  0.48376275299E-01  0.51100000000E-03 0. -1.
         11    1    4    4    0    0  0.76772967213E-01 -0.23591179687E-01 -0.23714130471E-02  0.80352454689E-01  0.51100000000E-03 0.  1.
</event>
<event>
 7    1  0.5489035E+004  0.1043930E+01  0.7957747E-01            NaN
         13   -1    0    0    0    0  0.00000000000E+00  0.00000000000E+00  0.74505805969E-08  0.10566000000E+00  0.10566000000E+00 0.  1.
     999900   -1    0    0    0    0 -0.00000000000E+00 -0.00000000000E+00 -0.74505805969E-08  0.93827000000E+00  0.93827000000E+00 0. -1.
     999902    2    1    2    0    0 -0.21719240949E-01  0.39011391114E-03 -0.60750034826E-02  0.10213737751E+01  0.10211246766E+01 0.  0.
         14    1    1    2    0    0  0.21719240949E-01 -0.39011391114E-03  0.60750034826E-02  0.22556224941E-01  0.00000000000E+00 0. -1.
     999901    1    3    3    0    0 -0.70792533270E-01  0.20448988695E-01 -0.12427615843E+00  0.89178153572E+00  0.88000000000E+00 0. -1.
        -11    1    3    3    0    0  0.30126273127E-01 -0.10584528897E-01  0.71714666400E-01  0.78504006792E-01  0.51100000000E-03 0.  1.
         11    1    3    3    0    0  0.18947019194E-01 -0.94743458871E-02  0.46486488543E-01  0.51088232543E-01  0.51100000000E-03 0. -1.
</event>
<event>
 8    1  0.5489035E+004  0.1043930E+01  0.7957747E-01            NaN
         13   -1    0    0    0    0  0.00000000000E+00  0.00000000000E+00  0.74505805969E-08  0.10566000000E+00  0.10566000000E+00 0.  1.
     999900   -1    0    0    0    0 -0.00000000000E+00 -0.00000000000E+00 -0.74505805969E-08  0.93827000000E+00  0.93827000000E+00 0. -1.
     999902    2    1    2    0    0  0.18030456014E-01 -0.19951057877E-01 -0.28759906651E-02  0.10168853448E+01  0.10165256470E+01 0.  0.
     999903    2    3    3    0    0  0.72856388508E-01 -0.32003227946E-01  0.10019806460E+00  0.12909291489E+00  0.17119245850E-01 0.  0.
         14    1    1    2    0    0 -0.18030456014E-01  0.19951057877E-01  0.28759906651E-02  0.27044655236E-01  0.00000000000E+00 0.  1.
     999901    1    3    3    0    0 -0.54825932494E-01  0.12052170068E-01 -0.10307405527E+00  0.88779242988E+00  0.88000000000E+00 0. -1.
        -11    1    4    4    0    0  0.35818239764E-01 -0.24659579474E-01  0.57451016995E-01  0.72054990351E-01  0.51100000000E-03 0. -1.
         11    1    4    4    0    0  0.37038148744E-01 -0.73436484719E-02  0.42747047608E-01  0.57037924537E-01  0.51100000000E-03 0.  1.
</event>
<event>
 8    1  0.5489035E+004  0.1043930E+01  0.7957747E-01            NaN
         13   -1    0    0    0    0  0.00000000000E+00  0.00000000000E+00  0.74505805969E-08  0.10566000000E+00  0.10566000000E+00 0.  1.
     999900   -1    0    0    0    0 -0.00000000000E+00 -0.00000000000E+00 -0.74505805969E-08  0.93827000000E+00  0.93827000000E+00 0. -1.
     999902    2    1    2    0    0  0.23535410593E-01 -0.28323387191E-02  0.21430396627E-02  0.10201281027E+01  0.10198503889E+01 0.  0.
     999903    2    3    3    0    0 -0.64005570663E-01  0.10397206512E+00 -0.35294797372E-01  0.12857204969E+00  0.19445972282E-01 0.  0.
         14    1    1    2    0    0 -0.23535410593E-01  0.28323387191E-02 -0.21430396627E-02  0.23801897265E-01  0.00000000000E+00 0. -1.
     999901    1    3    3    0    0  0.87540981257E-01 -0.10680440384E+00  0.37437837035E-01  0.89155605305E+00  0.88000000000E+00 0.  1.
        -11    1    4    4    0    0 -0.55858552363E-01  0.79409714069E-01 -0.22333783882E-01  0.99624994776E-01  0.51100000000E-03 0.  1.
         11    1    4    4    0    0 -0.81470183005E-02  0.24562351054E-01 -0.12961013491E-01  0.28947054914E-01  0.51100000000E-03 0. -1.
</event>
<event>
 8    1  0.5489035E+004  0.1043930E+01  0.7957747E-01            NaN
         13   -1    0    0    0    0  0.00000000000E+00  0.00000000000E+00  0.74505805969E-08  0.10566000000E+00  0.10566000000E+00 0.  1.
     999900   -1    0    0    0    0 -0.00000000000E+00 -0.00000000000E+00 -0.74505805969E-08  0.93827000000E+00  0.93827000000E+00 0.  1.
     999902    2    1    2    0    0 -0.10811515681E-01  0.16924090422E-01 -0.12308704121E-01  0.10203754271E+01  0.10201035214E+01 0.  0.
     999903    2    3    3    0    0 -0.16983721730E-01 -0.87807302991E-01 -0.92740074258E-01  0.13050129768E+00  0.20767716759E-01 0.  0.
         14    1    1    2    0    0  0.10811515681E-01 -0.16924090422E-01  0.12308704121E-01  0.23554572912E-01  0.00000000000E+00 0.  1.
     999901    1    3    3    0    0  0.61722060492E-02  0.10473139341E+00  0.80431370137E-01  0.88987412941E+00  0.88000000000E+00 0.  1.
        -11    1    4    4    0    0 -0.12058465254E-01 -0.24215188856E-01 -0.19332342061E-01  0.33253308500E-01  0.51100000000E-03 0.  1.
         11    1    4    4    0    0 -0.49252564758E-02 -0.63592114136E-01 -0.73407732197E-01  0.97247989177E-01  0.51100000000E-03 0. -1.
</event>
<event>
 8    1  0.5489035E+004  0.1043930E+01  0.7957747E-01            NaN
         13   -1    0    0    0    0  0.00000000000E+00  0.00000000000E+00  0.74505805969E-08  0.10566000000E+00  0.10566000000E+00 0. -1.
     999900   -1    0    0    0    0 -0.00000000000E+00 -0.00000000000E+00 -0.74505805969E-08  0.93827000000E+00  0.93827000000E+00 0.  1.
     999902    2    1    2    0    0  0.49103128338E-02 -0.13750503367E-03 -0.23309867927E-01  0.10201081608E+01  0.10198299759E+01 0.  0.
     999903    2    3    3    0    0  0.88931211244E-01  0.86763757488E-01  0.33259885599E-01  0.13004553503E+00  0.19207062339E-01 0.  0.
         14    1    1    2    0    0 -0.49103128338E-02  0.13750503367E-03  0.23309867927E-01  0.23821839193E-01  0.00000000000E+00 0. -1.
     999901    1    3    3    0    0 -0.84020898410E-01 -0.86901262521E-01 -0.56569753526E-01  0.89006262578E+00  0.88000000000E+00 0. -1.
        -11    1    4    4    0    0  0.52528450284E-01  0.46233841569E-01  0.27776241847E-01  0.75290018779E-01  0.51100000000E-03 0.  1.
         11    1    4    4    0    0  0.36402760959E-01  0.40529915918E-01  0.54836437522E-02  0.54755516248E-01  0.51100000000E-03 0. -1.
</event>
<event>
 8    1  0.5489035E+004  0.1043930E+01  0.7957747E-01            NaN
         13   -1    0    0    0    0  0.00000000000E+00  0.00000000000E+00  0.74505805969E-08  0.10566000000E+00  0.10566000000E+00 0. -1.
     999900   -1    0    0    0    0 -0.00000000000E+00 -0.00000000000E+00 -0.74505805969E-08  0.93827000000E+00  0.93827000000E+00 0. -1.
     999902    2    1    2    0    0 -0.16688414782E-01  0.95143199631E-02  0.13286005065E-01  0.10205731294E+01  0.10203058214E+01 0.  0.
     999903    2    3    3    0    0 -0.10019016960E+00  0.51173598918E-01  0.69714047982E-01  0.13384196238E+00  0.19920218327E-01 0.  0.
         14    1    1    2    0    0  0.16688414782E-01 -0.95143199631E-02 -0.13286005065E-01  0.23356870571E-01  0.00000000000E+00 0.  1.
     999901    1    3    3    0    0  0.83501754817E-01 -0.41659278955E-01 -0.56428042918E-01  0.88673116704E+00  0.88000000000E+00 0. -1.
        -11    1    4    4    0    0 -0.38115332819E-01  0.90960047685E-02  0.21721300439E-01  0.44806159313E-01  0.51100000000E-03 0.  1.
         11    1    4    4    0    0 -0.62074836781E-01  0.42077594150E-01  0.47992747543E-01  0.89035803071E-01  0.51100000000E-03 0. -1.
</event>
<event>
 8    1  0.5489035E+004  0.1043930E+01  0.7957747E-01            NaN
         13   -1    0    0    0    0  0.00000000000E+00  0.00000000000E+00  0.74505805969E-08  0.10566000000E+00  0.10566000000E+00 0.  1.
     999900   -1    0    0    0    0 -0.00000000000E+00 -0.00000000000E+00 -0.74505805969E-08  0.93827000000E+00  0.93827000000E+00 0. -1.
     999902    2    1    2    0    0 -0.17656713058E-01  0.12055512787E-01  0.11850854269E-01  0.10194854167E+01  0.10191923161E+01 0.  0.
     999903    2    3    3    0    0 -0.32921139928E-01 -0.24098358027E-01  0.12345825195E+00  0.13156857585E+00  0.20095219901E-01 0.  0.
         14    1    1    2    0    0  0.17656713058E-01 -0.12055512787E-01 -0.11850854269E-01  0.24444583275E-01  0.00000000000E+00 0. -1.
     999901    1    3    3    0    0  0.15264426870E-01  0.36153870814E-01 -0.11160739768E+00  0.88791684088E+00  0.88000000000E+00 0. -1.
        -11    1    4    4    0    0 -0.12189715943E-02 -0.96527749952E-02  0.39157357282E-01  0.40351229314E-01  0.51100000000E-03 0. -1.
         11    1    4    4    0    0 -0.31702168333E-01 -0.14445583031E-01  0.84300894663E-01  0.91217346531E-01  0.51100000000E-03 0.  1.
</event>
<event>
 8    1  0.5489035E+004  0.1043930E+01  0.7957747E-01            NaN
         13   -1    0    0    0    0  0.00000000000E+00  0.00000000000E+00  0.74505805969E-08  0.10566000000E+00  0.10566000000E+00 0.  1.
     999900   -1    0    0    0    0 -0.00000000000E+00 -0.00000000000E+00 -0.74505805969E-08  0.93827000000E+00  0.93827000000E+00 0.  1.
     999902    2    1    2    0    0 -0.12989668510E-01 -0.75784016429E-02 -0.18071342764E-01  0.10204196387E+01  0.10201487646E+01 0.  0.
     999903    2    3    3    0    0  0.58772381320E-01 -0.92603762554E-01  0.65871373845E-01  0.12945079330E+00  0.19718528043E-01 0.  0.
         14    1    1    2    0    0  0.12989668510E-01  0.75784016429E-02  0.18071342764E-01  0.23510361306E-01  0.00000000000E+00 0.  1.
     999901    1    3    3    0    0 -0.71762049830E-01  0.85025360911E-01 -0.83942716609E-01  0.89096884540E+00  0.88000000000E+00 0.  1.
        -11    1    4    4    0    0  0.52406867429E-01 -0.89255957394E-01  0.57507851808E-01  0.11840827600E+00  0.51100000000E-03 0. -1.
         11    1    4    4    0    0  0.63655138911E-02 -0.33478051598E-02  0.83635220368E-02  0.11042517301E-01  0.51100000000E-03 0.  1.
</event>
<event>
 8    1  0.5489035E+004  0.1043930E+01  0.7957747E-01            NaN
         13   -1    0    0    0    0  0.00000000000E+00  0.00000000000E+00  0.74505805969E-08  0.10566000000E+00  0.10566000000E+00 0. -1.
     999900   -1    0    0    0    0 -0.00000000000E+00 -0.00000000000E+00 -0.74505805969E-08  0.93827000000E+00  0.93827000000E+00 0.  1.
     999902    2    1    2    0    0 -0.89489560961E-02 -0.20832548533E-01 -0.46520162879E-02  0.10207843708E+01  0.10205219310E+01 0.  0.
     999903    2    3    3    0    0  0.76883771840E-02  0.50515747827E-01 -0.11831052534E+00  0.13045542212E+00  0.20255488908E-01 0.  0.
         14    1    1    2    0    0  0.89489560961E-02  0.20832548533E-01  0.46520162879E-02  0.23145629158E-01  0.00000000000E+00 0. -1.
     999901    1    3    3    0    0 -0.16637333280E-01 -0.71348296360E-01  0.11365850906E+00  0.89032894872E+00  0.88000000000E+00 0. -1.
        -11    1    4    4    0    0 -0.44205647434E-02  0.56716052947E-02 -0.27809922024E-01  0.28729103419E-01  0.51100000000E-03 0. -1.
         11    1    4    4    0    0  0.12108941927E-01  0.44844142532E-01 -0.90500603320E-01  0.10172631870E+00  0.51100000000E-03 0.  1.
</event>
<event>
 8    1  0.5489035E+004  0.1043930E+01  0.7957747E-01            NaN
         13   -1    0    0    0    0  0.00000000000E+00  0.00000000000E+00  0.74505805969E-08  0.10566000000E+00  0.10566000000E+00 0. -1.
     999900   -1    0    0    0    0 -0.00000000000E+00 -0.00000000000E+00 -0.74505805969E-08  0.93827000000E+00  0.93827000000E+00 0.  1.
     999902    2    1    2    0    0  0.99670330305E-02 -0.20294401415E-01 -0.61617098257E-02  0.10204955991E+01  0.10202264928E+01 0.  0.
     999903    2    3    3    0    0  0.41260144174E-01  0.93640145954E-01  0.75737227080E-01  0.12882986818E+00  0.19751732503E-01 0.  0.
         14    1    1    2    0    0 -0.99670330305E-02  0.20294401415E-01  0.61617098257E-02  0.23434400872E-01  0.00000000000E+00 0. -1.
     999901    1    3    3    0    0 -0.31293111144E-01 -0.11393454737E+00 -0.81898936906E-01  0.89166573095E+00  0.88000000000E+00 0.  1.
        -11    1    4    4    0    0  0.18031752117E-01  0.63124979787E-01  0.43816452572E-01  0.78930664475E-01  0.51100000000E-03 0. -1.
         11    1    4    4    0    0  0.23228392057E-01  0.30515166167E-01  0.31920774508E-01  0.49899203701E-01  0.51100000000E-03 0.  1.
</event>
<event>
 8    1  0.5489035E+004  0.1043930E+01  0.7957747E-01            NaN
         13   -1    0    0    0    0  0.00000000000E+00  0.00000000000E+00  0.74505805969E-08  0.10566000000E+00  0.10566000000E+00 0.  1.
     999900   -1    0    0    0    0 -0.00000000000E+00 -0.00000000000E+00 -0.74505805969E-08  0.93827000000E+00  0.93827000000E+00 0. -1.
     999902    2    1    2    0    0  0.67412902173E-02  0.21176783091E-01  0.56669280970E-02  0.10209949785E+01  0.10207373467E+01 0.  0.
     999903    2    3    3    0    0 -0.81186568622E-01  0.20098947213E-01  0.99680698760E-01  0.13162944110E+00  0.19870617891E-01 0.  0.
         14    1    1    2    0    0 -0.67412902173E-02 -0.21176783091E-01 -0.56669280970E-02  0.22935021472E-01  0.00000000000E+00 0. -1.
     999901    1    3    3    0    0  0.87927858839E-01  0.10778358780E-02 -0.94013770663E-01  0.88936553743E+00  0.88000000000E+00 0. -1.
        -11    1    4    4    0    0 -0.39057379828E-01  0.15470876315E-01  0.62136413112E-01  0.75006812280E-01  0.51100000000E-03 0.  1.
         11    1    4    4    0    0 -0.42129188794E-01  0.46280708975E-02  0.37544285648E-01  0.56622628820E-01  0.51100000000E-03 0. -1.
</event>
<event>
 8    1  0.5489035E+004  0.1043930E+01  0.7957747E-01            NaN
         13   -1    0    0    0    0  0.00000000000E+00  0.00000000000E+00  0.74505805969E-08  0.10566000000E+00  0.10566000000E+00 0. -1.
     999900   -1    0    0    0    0 -0.00000000000E+00 -0.00000000000E+00 -0.74505805969E-08  0.93827000000E+00  0.93827000000E+00 0. -1.
     999902    2    1    2    0    0  0.24784751932E-01  0.53496088703E-02  0.10479681825E-01  0.10164941480E+01  0.10161238246E+01 0.  0.
     999903    2    3    3    0    0 -0.45302425663E-02 -0.21864778564E-01  0.12470325713E+00  0.12821096290E+00  0.19711850008E-01 0.  0.
         14    1    1    2    0    0 -0.24784751932E-01 -0.53496088703E-02 -0.10479681825E-01  0.27435851993E-01  0.00000000000E+00 0.  1.
     999901    1    3    3    0    0  0.29314994498E-01  0.27214387434E-01 -0.11422357530E+00  0.88828318511E+00  0.88000000000E+00 0. -1.
        -11    1    4    4    0    0  0.55681754631E-02 -0.17698623989E-01  0.69560134347E-01  0.71993883632E-01  0.51100000000E-03 0. -1.
         11    1    4    4    0    0 -0.10098418029E-01 -0.41661545743E-02  0.55143122781E-01  0.56217079270E-01  0.51100000000E-03 0.  1.
</event>
<event>
 8    1  0.5489035E+004  0.1043930E+01  0.7957747E-01            NaN
         13   -1    0    0    0    0  0.00000000000E+00  0.00000000000E+00  0.74505805969E-08  0.10566000000E+00  0.10566000000E+00 0.  1.
     999900   -1    0    0    0    0 -0.00000000000E+00 -0.00000000000E+00 -0.74505805969E-08  0.93827000000E+00  0.93827000000E+00 0. -1.
     999902    2    1    2    0    0  0.19341177816E-01 -0.13808992087E-01  0.12895462327E-03  0.10201647722E+01  0.10198879235E+01 0.  0.
     999903    2    3    3    0    0 -0.23214272820E-01 -0.10685709627E+00  0.70248882044E-01  0.13146588042E+00  0.19774498772E-01 0.  0.
         14    1    1    2    0    0 -0.19341177816E-01  0.13808992087E-01 -0.12895462327E-03  0.23765227773E-01  0.00000000000E+00 0. -1.
     999901    1    3    3    0    0  0.42555450636E-01  0.93048104181E-01 -0.70119927421E-01  0.88869889180E+00  0.88000000000E+00 0. -1.
        -11    1    4    4    0    0 -0.25934330128E-01 -0.80204810086E-01  0.51932724822E-01  0.99008434331E-01  0.51100000000E-03 0.  1.
         11    1    4    4    0    0  0.27200573085E-02 -0.26652286183E-01  0.18316157222E-01  0.32457446094E-01  0.51100000000E-03 0. -1.
</event>
<event>
 8    1  0.5489035E+004  0.1043930E+01  0.7957747E-01            NaN
         13   -1    0    0    0    0  0.00000000000E+00  0.00000000000E+00  0.74505805969E-08  0.10566000000E+00  0.10566000000E+00 0. -1.
     999900   -1    0    0    0    0 -0.00000000000E+00 -0.00000000000E+00 -0.74505805969E-08  0.93827000000E+00  0.93827000000E+00 0. -1.
     999902    2    1    2    0    0  0.14682466106E-01 -0.11914152847E-01 -0.11612921531E-01  0.10217403223E+01  0.10214993414E+01 0.  0.
     999903    2    3    3    0    0  0.39854681756E-01 -0.16750510857E-01 -0.12531667481E+00  0.13405480689E+00  0.19936072675E-01 0.  0.
         14    1    1    2    0    0 -0.14682466106E-01  0.11914152847E-01  0.11612921531E-01  0.22189677679E-01  0.00000000000E+00 0.  1.
     999901    1    3    3    0    0 -0.25172215650E-01  0.48363580093E-02  0.11370375327E+00  0.88768551543E+00  0.88000000000E+00 0.  1.
        -11    1    4    4    0    0  0.13766878913E-01 -0.10892115836E-01 -0.75482824665E-01  0.77498923107E-01  0.51100000000E-03 0.  1.
         11    1    4    4    0    0  0.26087802844E-01 -0.58583950206E-02 -0.49833850141E-01  0.56555883781E-01  0.51100000000E-03 0. -1.
</event>
<event>
 8    1  0.5489035E+004  0.1043930E+01  0.7957747E-01            NaN
         13   -1    0    0    0    0  0.00000000000E+00  0.00000000000E+00  0.74505805969E-08  0.10566000000E+00  0.10566000000E+00 0.  1.
     999900   -1    0    0    0    0 -0.00000000000E+00 -0.00000000000E+00 -0.74505805969E-08  0.93827000000E+00  0.93827000000E+00 0.  1.
     999902    2    1    2    0    0 -0.21816306020E-01 -0.15575167124E-01 -0.32085950857E-02  0.10169331090E+01  0.10165746978E+01 0.  0.
     999903    2    3    3    0    0 -0.44875430634E-02 -0.70113492270E-01 -0.10638380995E+00  0.12905933428E+00  0.20068804287E-01 0.  0.
         14    1    1    2    0    0  0.21816306020E-01  0.15575167124E-01  0.32085950857E-02  0.26996890964E-01  0.00000000000E+00 0. -1.
     999901    1    3    3    0    0 -0.17328762957E-01  0.54538325146E-01  0.10317521486E+00  0.88787377475E+00  0.88000000000E+00 0. -1.
        -11    1    4    4    0    0 -0.86977442827E-02 -0.12264864877E-01 -0.23104555105E-01  0.27570985722E-01  0.51100000000E-03 0.  1.
         11    1    4    4    0    0  0.42102012193E-02 -0.57848627393E-01 -0.83279254840E-01  0.10148834856E+00  0.51100000000E-03 0. -1.
</event>
<event>
 8    1  0.5489035E+004  0.1043930E+01  0.7957747E-01            NaN
         13   -1    0    0    0    0  0.00000000000E+00  0.00000000000E+00  0.74505805969E-08  0.10566000000E+00  0.10566000000E+00 0.  1.
     999900   -1    0    0    0    0 -0.00000000000E+00 -0.00000000000E+00 -0.74505805969E-08  0.93827000000E+00  0.93827000000E+00 0.  1.
     999902    2    1    2    0    0  0.13243111475E-01  0.14470196150E-01 -0.13129751127E-01  0.10203258279E+01  0.10200527624E+01 0.  0.
     999903    2    3    3    0    0 -0.69137105606E-02 -0.26289666146E-01  0.12403509636E+00  0.12854005804E+00  0.19972367196E-01 0.  0.
         14    1    1    2    0    0 -0.13243111475E-01 -0.14470196150E-01  0.13129751127E-01  0.23604172148E-01  0.00000000000E+00 0.  1.
     999901    1    3    3    0    0  0.20156822035E-01  0.40759862295E-01 -0.13716484749E+00  0.89178576981E+00  0.88000000000E+00 0.  1.
        -11    1    4    4    0    0 -0.93953670699E-02 -0.24125163494E-02  0.36929388997E-01  0.38185521474E-01  0.51100000000E-03 0.  1.
         11    1    4    4    0    0  0.24816565093E-02 -0.23877149796E-01  0.87105707367E-01  0.90354536567E-01  0.51100000000E-03 0. -1.
</event>
<event>
 8    1  0.5489035E+004  0.1043930E+01  0.7957747E-01            NaN
         13   -1    0    0    0    0  0.00000000000E+00  0.00000000000E+00  0.74505805969E-08  0.10566000000E+00  0.10566000000E+00 0.  1.
     999900   -1    0    0    0    0 -0.00000000000E+00 -0.00000000000E+00 -0.74505805969E-08  0.93827000000E+00  0.93827000000E+00 0.  1.
     999902    2    1    2    0    0 -0.34596623176E-02  0.98599387739E-02  0.20662130402E-01  0.10207759228E+01  0.10205132892E+01 0.  0.
     999903    2    3    3    0    0 -0.65209635053E-01  0.11329757073E+00  0.89118161864E-02  0.13249079254E+00  0.19640611087E-01 0.  0.
         14    1    1    2    0    0  0.34596623176E-02 -0.98599387739E-02 -0.20662130402E-01  0.23154077151E-01  0.00000000000E+00 0. -1.
     999901    1    3    3    0    0  0.61749972736E-01 -0.10343763196E+00  0.11750314215E-01  0.88828513031E+00  0.88000000000E+00 0.  1.
        -11    1    4    4    0    0 -0.48019012250E-01  0.64360524631E-01  0.64789589269E-02  0.80562650764E-01  0.51100000000E-03 0. -1.
         11    1    4    4    0    0 -0.17190622804E-01  0.48937046099E-01  0.24328572595E-02  0.51928141780E-01  0.51100000000E-03 0.  1.
</event>
<event>
 8    1  0.5489035E+004  0.1043930E+01  0.7957747E-01            NaN
         13   -1    0    0    0    0  0.00000000000E+00  0.00000000000E+00  0.74505805969E-08  0.10566000000E+00  0.10566000000E+00 0.  1.
     999900   -1    0    0    0    0 -0.00000000000E+00 -0.00000000000E+00 -0.74505805969E-08  0.93827000000E+00  0.93827000000E+00 0.  1.
     999902    2    1    2    0    0  0.14203631108E-01 -0.12277644591E-01  0.12976080156E-01  0.10211075911E+01  0.10208525115E+01 0.  0.
     999903    2    3    3    0    0 -0.35847929874E-01 -0.17611499843E-02  0.12675770047E+00  0.13230951921E+00  0.12252286248E-01 0.  0.
         14    1    1    2    0    0 -0.14203631108E-01  0.12277644591E-01 -0.12976080156E-01  0.22822408934E-01  0.00000000000E+00 0. -1.
     999901    1    3    3    0    0  0.50051560983E-01 -0.10516494606E-01 -0.11378162032E+00  0.88879807186E+00  0.88000000000E+00 0.  1.
        -11    1    4    4    0    0 -0.16670563734E-01 -0.10878752873E-02  0.80682432157E-01  0.82395431595E-01  0.51100000000E-03 0. -1.
         11    1    4    4    0    0 -0.19177366141E-01 -0.67327469701E-03  0.46075268316E-01  0.49914087613E-01  0.51100000000E-03 0.  1.
</event>
<event>
 8    1  0.5489035E+004  0.1043930E+01  0.7957747E-01            NaN
         13   -1    0    0    0    0  0.00000000000E+00  0.00000000000E+00  0.74505805969E-08  0.10566000000E+00  0.10566000000E+00 0.  1.
     999900   -1    0    0    0    0 -0.00000000000E+00 -0.00000000000E+00 -0.74505805969E-08  0.93827000000E+00  0.93827000000E+00 0. -1.
     999902    2    1    2    0    0  0.20660490147E-01  0.92725410991E-02  0.94843942507E-02  0.10193782260E+01  0.10190825178E+01 0.  0.
     999903    2    3    3    0    0  0.11768246289E+00  0.58428173080E-01 -0.17152734860E-02  0.13261164348E+00  0.17885534401E-01 0.  0.
         14    1    1    2    0    0 -0.20660490147E-01 -0.92725410991E-02 -0.94843942507E-02  0.24551773986E-01  0.00000000000E+00 0. -1.
     999901    1    3    3    0    0 -0.97021972742E-01 -0.49155631981E-01  0.11199667737E-01  0.88676658254E+00  0.88000000000E+00 0.  1.
        -11    1    4    4    0    0  0.80267335778E-01  0.32504341505E-01  0.42297056930E-02  0.86703684702E-01  0.51100000000E-03 0. -1.
         11    1    4    4    0    0  0.37415127111E-01  0.25923831576E-01 -0.59449791790E-02  0.45907958774E-01  0.51100000000E-03 0.  1.
</event>
<event>
 8    1  0.5489035E+004  0.1043930E+01  0.7957747E-01            NaN
         13   -1    0    0    0    0  0.00000000000E+00  0.00000000000E+00  0.74505805969E-08  0.10566000000E+00  0.10566000000E+00 0.  1.
     999900   -1    0    0    0    0 -0.00000000000E+00 -0.00000000000E+00 -0.74505805969E-08  0.93827000000E+00  0.93827000000E+00 0.  1.
     999902    2    1    2    0    0 -0.23569995874E-01 -0.30862042147E-02 -0.79275266223E-02  0.10188717670E+01  0.10185635781E+01 0.  0.
     999903    2    3    3    0    0  0.94538935649E-01  0.34468396090E-01  0.73750082070E-01  0.12644177006E+00  0.20561272507E-01 0.  0.
         14    1    1    2    0    0  0.23569995874E-01  0.30862042147E-02  0.79275266223E-02  0.25058232984E-01  0.00000000000E+00 0.  1.
     999901    1    3    3    0    0 -0.11810893152E+00 -0.37554600305E-01 -0.81677608693E-01  0.89242999696E+00  0.88000000000E+00 0.  1.
        -11    1    4    4    0    0  0.35230971222E-01  0.21938048121E-01  0.36644345281E-01  0.55367575807E-01  0.51100000000E-03 0. -1.
         11    1    4    4    0    0  0.59307964427E-01  0.12530347968E-01  0.37105736789E-01  0.71074194250E-01  0.51100000000E-03 0.  1.
</event>
<event>
 8    1  0.5489035E+004  0.1043930E+01  0.7957747E-01            NaN
         13   -1    0    0    0    0  0.00000000000E+00  0.00000000000E+00  0.74505805969E-08  0.10566000000E+00  0.10566000000E+00 0.  1.
     999900   -1    0    0    0    0 -0.00000000000E+00 -0.00000000000E+00 -0.74505805969E-08  0.93827000000E+00  0.93827000000E+00 0. -1.
     999902    2    1    2    0    0 -0.12156729283E-02  0.22326629876E-01  0.57449993041E-02  0.10208440458E+01  0.10205829729E+01 0.  0.
     999903    2    3    3    0    0  0.18892234012E-02  0.84764339838E-01  0.10097960728E+00  0.13350096757E+00  0.20906094362E-01 0.  0.
         14    1    1    2    0    0  0.12156729283E-02 -0.22326629876E-01 -0.57449993041E-02  0.23085954156E-01  0.00000000000E+00 0.  1.
     999901    1    3    3    0    0 -0.31048963295E-02 -0.62437709962E-01 -0.95234607979E-01  0.88734307828E+00  0.88000000000E+00 0. -1.
        -11    1    4    4    0    0 -0.14271546718E-02  0.23574033641E-01  0.15239674175E-01  0.28111930252E-01  0.51100000000E-03 0.  1.
         11    1    4    4    0    0  0.33163780730E-02  0.61190306197E-01  0.85739933108E-01  0.10538903732E+00  0.51100000000E-03 0. -1.
</event>
<event>
 8    1  0.5489035E+004  0.1043930E+01  0.7957747E-01            NaN
         13   -1    0    0    0    0  0.00000000000E+00  0.00000000000E+00  0.74505805969E-08  0.10566000000E+00  0.10566000000E+00 0.  1.
     999900   -1    0    0    0    0 -0.00000000000E+00 -0.00000000000E+00 -0.74505805969E-08  0.93827000000E+00  0.93827000000E+00 0. -1.
     999902    2    1    2    0    0  0.66221445163E-02 -0.79458949463E-02 -0.22103267686E-01  0.10195262198E+01  0.10192341087E+01 0.  0.
     999903    2    3    3    0    0  0.11154928607E+00  0.62317077645E-01  0.12124503497E-01  0.12985317276E+00  0.19702322242E-01 0.  0.
         14    1    1    2    0    0 -0.66221445163E-02  0.79458949463E-02  0.22103267686E-01  0.24403780176E-01  0.00000000000E+00 0.  1.
     999901    1    3    3    0    0 -0.10492714155E+00 -0.70262972592E-01 -0.34227771183E-01  0.88967304706E+00  0.88000000000E+00 0. -1.
        -11    1    4    4    0    0  0.51685363093E-01  0.35987791364E-01 -0.17114914781E-02  0.63005461743E-01  0.51100000000E-03 0.  1.
         11    1    4    4    0    0  0.59863922977E-01  0.26329286281E-01  0.13835994975E-01  0.66847711017E-01  0.51100000000E-03 0. -1.
</event>
<event>
 8    1  0.5489035E+004  0.1043930E+01  0.7957747E-01            NaN
         13   -1    0    0    0    0  0.00000000000E+00  0.00000000000E+00  0.74505805969E-08  0.10566000000E+00  0.10566000000E+00 0. -1.
     999900   -1    0    0    0    0 -0.00000000000E+00 -0.00000000000E+00 -0.74505805969E-08  0.93827000000E+00  0.93827000000E+00 0.  1.
     999902    2    1    2    0    0 -0.63131020284E-02 -0.90008089753E-02 -0.23540183971E-01  0.10179490439E+01  0.10176174359E+01 0.  0.
     999903    2    3    3    0    0 -0.44995602158E-01  0.11340974661E+00  0.29071255295E-01  0.12707944429E+00  0.20437035943E-01 0.  0.
         14    1    1    2    0    0  0.63131020284E-02  0.90008089753E-02  0.23540183971E-01  0.25980956119E-01  0.00000000000E+00 0. -1.
     999901    1    3    3    0    0  0.38682500129E-01 -0.12241055558E+00 -0.52611439266E-01  0.89086959959E+00  0.88000000000E+00 0. -1.
        -11    1    4    4    0    0 -0.31771264270E-01  0.81954805172E-01  0.30179552869E-01  0.92935837309E-01  0.51100000000E-03 0. -1.
         11    1    4    4    0    0 -0.13224337888E-01  0.31454941434E-01 -0.11082975740E-02  0.34143606981E-01  0.51100000000E-03 0.  1.
</event>
<event>
 8    1  0.5489035E+004  0.1043930E+01  0.7957747E-01            NaN
         13   -1    0    0    0    0  0.00000000000E+00  0.00000000000E+00  0.74505805969E-08  0.10566000000E+00  0.10566000000E+00 0.  1.
     999900   -1    0    0    0    0 -0.00000000000E+00 -0.00000000000E+00 -0.74505805969E-08  0.93827000000E+00  0.93827000000E+00 0.  1.
     999902    2    1    2    0    0  0.19041617284E-02  0.23034734219E-01  0.90845633807E-02  0.10190954655E+01  0.10187928218E+01 0.  0.
     999903    2    3    3    0    0 -0.12332826066E+00  0.47363664817E-02 -0.33786287940E-01  0.12900788566E+00  0.16408176752E-01 0.  0.
         14    1    1    2    0    0 -0.19041617284E-02 -0.23034734219E-01 -0.90845633807E-02  0.24834534509E-01  0.00000000000E+00 0.  1.
     999901    1    3    3    0    0  0.12523242239E+00  0.18298367738E-01  0.42870851320E-01  0.89008757983E+00  0.88000000000E+00 0. -1.
        -11    1    4    4    0    0 -0.49033540478E-02 -0.26488950800E-02  0.13576454156E-03  0.55981317485E-02  0.51100000000E-03 0. -1.
         11    1    4    4    0    0 -0.11842490661E+00  0.73852615617E-02 -0.33922052481E-01  0.12340975391E+00  0.51100000000E-03 0.  1.
</event>
<event>
 8    1  0.5489035E+004  0.1043930E+01  0.7957747E-01            NaN
         13   -1    0    0    0    0  0.00000000000E+00  0.00000000000E+00  0.74505805969E-08  0.10566000000E+00  0.10566000000E+00 0.  1.
     999900   -1    0    0    0    0 -0.00000000000E+00 -0.00000000000E+00 -0.74505805969E-08  0.93827000000E+00  0.93827000000E+00 0.  1.
     999902    2    1    2    0    0 -0.28572913541E-02  0.19691884654E-01 -0.11725995778E-01  0.10208338226E+01  0.10205725157E+01 0.  0.
     999903    2    3    3    0    0 -0.95242099324E-01 -0.63288906597E-01 -0.59920081290E-01  0.13080942159E+00  0.21074758646E-01 0.  0.
         14    1    1    2    0    0  0.28572913541E-02 -0.19691884654E-01  0.11725995778E-01  0.23096177435E-01  0.00000000000E+00 0. -1.
     999901    1    3    3    0    0  0.92384807970E-01  0.82980791251E-01  0.48194085513E-01  0.89002440098E+00  0.88000000000E+00 0.  1.
        -11    1    4    4    0    0 -0.57763923530E-01 -0.32418729681E-01 -0.24178706691E-01  0.70516068197E-01  0.51100000000E-03 0.  1.
         11    1    4    4    0    0 -0.37478175794E-01 -0.30870176916E-01 -0.35741374599E-01  0.60293353389E-01  0.51100000000E-03 0. -1.
</event>
<event>
 7    1  0.5489035E+004  0.1043930E+01  0.7957747E-01            NaN
         13   -1    0    0    0    0  0.00000000000E+00  0.00000000000E+00  0.74505805969E-08  0.10566000000E+00  0.10566000000E+00 0.  1.
     999900   -1    0    0    0    0 -0.00000000000E+00 -0.00000000000E+00 -0.74505805969E-08  0.93827000000E+00  0.93827000000E+00 0. -1.
     999902    2    1    2    0    0  0.42945084804E-02 -0.21762166579E-01 -0.84253119310E-02  0.10202019453E+01  0.10199259722E+01 0.  0.
         14    1    1    2    0    0 -0.42945084804E-02  0.21762166579E-01  0.84253119310E-02  0.23728054671E-01  0.00000000000E+00 0. -1.
     999901    1    3    3    0    0  0.94656391153E-02  0.52267293771E-01  0.93528034061E-01  0.88654890529E+00  0.88000000000E+00 0.  1.
        -11    1    3    3    0    0  0.13705667850E-01 -0.15794836648E-01 -0.10003185711E-01  0.23187217197E-01  0.51100000000E-03 0.  1.
         11    1    3    3    0    0 -0.18876798485E-01 -0.58234623702E-01 -0.91950160281E-01  0.11046582284E+00  0.51100000000E-03 0. -1.
</event>
<event>
 8    1  0.5489035E+004  0.1043930E+01  0.7957747E-01            NaN
         13   -1    0    0    0    0  0.00000000000E+00  0.00000000000E+00  0.74505805969E-08  0.10566000000E+00  0.10566000000E+00 0. -1.
     999900   -1    0    0    0    0 -0.00000000000E+00 -0.00000000000E+00 -0.74505805969E-08  0.93827000000E+00  0.93827000000E+00 0. -1.
     999902    2    1    2    0    0 -0.36383346221E-02 -0.15734632865E-01 -0.19375382049E-01  0.10187065669E+01  0.10183942497E+01 0.  0.
     999903    2    3    3    0    0 -0.28824965932E-02 -0.12719840067E+00 -0.26836587953E-01  0.13164376613E+00  0.20545967737E-01 0.  0.
         14    1    1    2    0    0  0.36383346221E-02  0.15734632865E-01  0.19375382049E-01  0.25223433148E-01  0.00000000000E+00 0. -1.
     999901    1    3    3    0    0 -0.75583802891E-03  0.11146376780E+00  0.74612059046E-02  0.88706280072E+00  0.88000000000E+00 0.  1.
        -11    1    4    4    0    0 -0.35175835617E-02 -0.12353688917E+00 -0.29479271520E-01  0.12705520434E+00  0.51100000000E-03 0. -1.
         11    1    4    4    0    0  0.63508696848E-03 -0.36615114992E-02  0.26426835664E-02  0.45885617952E-02  0.51100000000E-03 0.  1.
</event>
<event>
 8    1  0.5489035E+004  0.1043930E+01  0.7957747E-01            NaN
         13   -1    0    0    0    0  0.00000000000E+00  0.00000000000E+00  0.74505805969E-08  0.10566000000E+00  0.10566000000E+00 0.  1.
     999900   -1    0    0    0    0 -0.00000000000E+00 -0.00000000000E+00 -0.74505805969E-08  0.93827000000E+00  0.93827000000E+00 0.  1.
     999902    2    1    2    0    0 -0.76798278197E-03  0.23689621369E-01  0.31876050491E-02  0.10200145493E+01  0.10197341477E+01 0.  0.
     999903    2    3    3    0    0  0.11854069478E-01 -0.10883410524E+00  0.63185404381E-01  0.12798226832E+00  0.20042062024E-01 0.  0.
         14    1    1    2    0    0  0.76798278197E-03 -0.23689621369E-01 -0.31876050491E-02  0.23915450741E-01  0.00000000000E+00 0.  1.
     999901    1    3    3    0    0 -0.12622052260E-01  0.13252372661E+00 -0.59997799331E-01  0.89203228094E+00  0.88000000000E+00 0. -1.
        -11    1    4    4    0    0  0.11672361990E-01 -0.42407953630E-01  0.33143264179E-01  0.55076452745E-01  0.51100000000E-03 0. -1.
         11    1    4    4    0    0  0.18170748840E-03 -0.66426151611E-01  0.30042140202E-01  0.72905815573E-01  0.51100000000E-03 0.  1.
</event>
<event>
 8    1  0.5489035E+004  0.1043930E+01  0.7957747E-01            NaN
         13   -1    0    0    0    0  0.00000000000E+00  0.00000000000E+00  0.74505805969E-08  0.10566000000E+00  0.10566000000E+00 0.  1.
     999900   -1    0    0    0    0 -0.00000000000E+00 -0.00000000000E+00 -0.74505805969E-08  0.93827000000E+00  0.93827000000E+00 0. -1.
     999902    2    1    2    0    0 -0.10820601056E-01 -0.22934661443E-01 -0.89289045361E-03  0.10185551826E+01  0.10182390577E+01 0.  0.
     999903    2    3    3    0    0  0.57905430618E-01  0.60575002870E-01  0.93247801138E-01  0.12695011240E+00  0.19970196637E-01 0.  0.
         14    1    1    2    0    0  0.10820601056E-01  0.22934661443E-01  0.89289045361E-03  0.25374817360E-01  0.00000000000E+00 0.  1.
     999901    1    3    3    0    0 -0.68726031674E-01 -0.83509664313E-01 -0.94140691591E-01  0.89160507024E+00  0.88000000000E+00 0.  1.
        -11    1    4    4    0    0  0.24811221822E-01  0.28695048666E-01  0.28035776853E-01  0.47172751149E-01  0.51100000000E-03 0. -1.
         11    1    4    4    0    0  0.33094208796E-01  0.31879954204E-01  0.65212024285E-01  0.79777361251E-01  0.51100000000E-03 0.  1.
</event>
<event>
 8    1  0.5489035E+004  0.1043930E+01  0.7957747E-01            NaN
         13   -1    0    0    0    0  0.00000000000E+00  0.00000000000E+00  0.74505805969E-08  0.10566000000E+00  0.10566000000E+00 0. -1.
     999900   -1    0    0    0    0 -0.00000000000E+00 -0.00000000000E+00 -0.74505805969E-08  0.93827000000E+00  0.93827000000E+00 0. -1.
     999902    2    1    2    0    0 -0.10541234535E-01  0.13547510287E-01 -0.16726398109E-01  0.10199628338E+01  0.10196812038E+01 0.  0.
     999903    2    3    3    0    0 -0.12898234223E+00 -0.10076277984E-01  0.10881490417E-01  0.13128484104E+00  0.19476310404E-01 0.  0.
         14    1    1    2    0    0  0.10541234535E-01 -0.13547510287E-01  0.16726398109E-01  0.23967166170E-01  0.00000000000E+00 0. -1.
     999901    1    3    3    0    0  0.11844110770E+00  0.23623788271E-01 -0.27607888526E-01  0.88867799279E+00  0.88000000000E+00 0. -1.
        -11    1    4    4    0    0 -0.25867818694E-01 -0.42487363714E-03  0.99235221551E-02  0.27713931055E-01  0.51100000000E-03 0.  1.
         11    1    4    4    0    0 -0.10311452354E+00 -0.96514043468E-02  0.95796826145E-03  0.10357090998E+00  0.51100000000E-03 0. -1.
</event>
<event>
 8    1  0.5489035E+004  0.1043930E+01  0.7957747E-01            NaN
         13   -1    0    0    0    0  0.00000000000E+00  0.00000000000E+00  0.74505805969E-08  0.10566000000E+00  0.10566000000E+00 0. -1.
     999900   -1    0    0    0    0 -0.00000000000E+00 -0.00000000000E+00 -0.74505805969E-08  0.93827000000E+00  0.93827000000E+00 0.  1.
     999902    2    1    2    0    0 -0.98183634596E-02  0.21367607954E-01  0.46862351254E-02  0.10199521825E+01  0.10196702991E+01 0.  0.
     999903    2    3    3    0    0  0.91871651944E-01 -0.86268431614E-01 -0.61911901509E-02  0.12751468073E+00  0.18412502338E-01 0.  0.
         14    1    1    2    0    0  0.98183634596E-02 -0.21367607954E-01 -0.46862351254E-02  0.23977817464E-01  0.00000000000E+00 0. -1.
     999901    1    3    3    0    0 -0.10169001540E+00  0.10763603957E+00  0.10877425276E-01  0.89243750180E+00  0.88000000000E+00 0.  1.
        -11    1    4    4    0    0  0.46150886661E-01 -0.32297842815E-01  0.15762937450E-02  0.56354243967E-01  0.51100000000E-03 0.  1.
         11    1    4    4    0    0  0.45720765283E-01 -0.53970588799E-01 -0.77674838959E-02  0.71160436764E-01  0.51100000000E-03 0. -1.
</event>
<event>
 8    1  0.5489035E+004  0.1043930E+01  0.7957747E-01            NaN
         13   -1    0    0    0    0  0.00000000000E+00  0.00000000000E+00  0.74505805969E-08  0.10566000000E+00  0.10566000000E+00 0.  1.
     999900   -1    0    0    0    0 -0.00000000000E+00 -0.00000000000E+00 -0.74505805969E-08  0.93827000000E+00  0.93827000000E+00 0.  1.
     999902    2    1    2    0    0  0.14257132698E-01 -0.18951622808E-01 -0.27307182281E-02  0.10200577010E+01  0.10197783223E+01 0.  0.
     999903    2    3    3    0    0  0.11013059761E+00 -0.65153995300E-01  0.30419153044E-01  0.13302596845E+00  0.19919632945E-01 0.  0.
         14    1    1    2    0    0 -0.14257132698E-01  0.18951622808E-01  0.27307182281E-02  0.23872299048E-01  0.00000000000E+00 0.  1.
     999901    1    3    3    0    0 -0.95873464913E-01  0.46202372492E-01 -0.33149871272E-01  0.88703173250E+00  0.88000000000E+00 0. -1.
        -11    1    4    4    0    0  0.81652929432E-01 -0.55239440503E-01  0.29301790236E-01  0.10284674377E+00  0.51100000000E-03 0. -1.
         11    1    4    4    0    0  0.28477668179E-01 -0.99145547968E-02  0.11173628082E-02  0.30179224681E-01  0.51100000000E-03 0.  1.
</event>
<event>
 8    1  0.5489035E+004  0.1043930E+01  0.7957747E-01            NaN
         13   -1    0    0    0    0  0.00000000000E+00  0.00000000000E+00  0.74505805969E-08  0.10566000000E+00  0.10566000000E+00 0. -1.
     999900   -1    0    0    0    0 -0.00000000000E+00 -0.00000000000E+00 -0.74505805969E-08  0.93827000000E+00  0.93827000000E+00 0.  1.
     999902    2    1    2    0    0 -0.16812021117E-01  0.13813247570E-01  0.82042076622E-02  0.10206757770E+01  0.10204108403E+01 0.  0.
     999903    2    3    3    0    0  0.96140376310E-01 -0.85732542077E-03 -0.81113357038E-01  0.12885118825E+00  0.27920334151E-01 0.  0.
         14    1    1    2    0    0  0.16812021117E-01 -0.13813247570E-01 -0.82042076622E-02  0.23254222967E-01  0.00000000000E+00 0. -1.
     999901    1    3    3    0    0 -0.11295239743E+00  0.14670572990E-01  0.89317564700E-01  0.89182458878E+00  0.88000000000E+00 0. -1.
        -11    1    4    4    0    0  0.36919836396E-01  0.63828462430E-02 -0.16616821916E-01  0.40990180986E-01  0.51100000000E-03 0.  1.
         11    1    4    4    0    0  0.59220539914E-01 -0.72401716637E-02 -0.64496535122E-01  0.87861007262E-01  0.51100000000E-03 0. -1.
</event>
<event>
 8    1  0.5489035E+004  0.1043930E+01  0.7957747E-01            NaN
         13   -1    0    0    0    0  0.00000000000E+00  0.00000000000E+00  0.74505805969E-08  0.10566000000E+00  0.10566000000E+00 0.  1.
     999900   -1    0    0    0    0 -0.00000000000E+00 -0.00000000000E+00 -0.74505805969E-08  0.93827000000E+00  0.93827000000E+00 0.  1.
     999902    2    1    2    0    0  0.64644551298E-02  0.24204113418E-01 -0.24243671953E-02  0.10187604580E+01  0.10184494907E+01 0.  0.
     999903    2    3    3    0    0  0.40576743298E-01 -0.31117679399E-02  0.12084199911E+00  0.12909512621E+00  0.20164515050E-01 0.  0.
         14    1    1    2    0    0 -0.64644551298E-02 -0.24204113418E-01  0.24243671953E-02  0.25169541966E-01  0.00000000000E+00 0. -1.
     999901    1    3    3    0    0 -0.34112288168E-01  0.27315881358E-01 -0.12326636630E+00  0.88966533182E+00  0.88000000000E+00 0.  1.
        -11    1    4    4    0    0  0.37142152450E-01  0.12904045145E-02  0.84362948903E-01  0.92187704717E-01  0.51100000000E-03 0.  1.
         11    1    4    4    0    0  0.34345908479E-02 -0.44021724544E-02  0.36479050207E-01  0.36907421498E-01  0.51100000000E-03 0. -1.
</event>
<event>
 8    1  0.5489035E+004  0.1043930E+01  0.7957747E-01            NaN
         13   -1    0    0    0    0  0.00000000000E+00  0.00000000000E+00  0.74505805969E-08  0.10566000000E+00  0.10566000000E+00 0. -1.
     999900   -1    0    0    0    0 -0.00000000000E+00 -0.00000000000E+00 -0.74505805969E-08  0.93827000000E+00  0.93827000000E+00 0.  1.
     999902    2    1    2    0    0  0.21022542165E-01 -0.19291394477E-01  0.18197638677E-02  0.10153394995E+01  0.10149368860E+01 0.  0.
     999903    2    3    3    0    0 -0.42108166693E-01 -0.43362772944E-01 -0.10945641580E+00  0.12576246187E+00  0.13493038046E-01 0.  0.
         14    1    1    2    0    0 -0.21022542165E-01  0.19291394477E-01 -0.18197638677E-02  0.28590500529E-01  0.00000000000E+00 0.  1.
     999901    1    3    3    0    0  0.63130708858E-01  0.24071378467E-01  0.11127617967E+00  0.88957703760E+00  0.88000000000E+00 0. -1.
        -11    1    4    4    0    0 -0.27610800628E-01 -0.20668867312E-01 -0.53412726874E-01  0.63582536127E-01  0.51100000000E-03 0. -1.
         11    1    4    4    0    0 -0.14497366065E-01 -0.22693905633E-01 -0.56043688930E-01  0.62179925744E-01  0.51100000000E-03 0.  1.
</event>
<event>
 8    1  0.5489035E+004  0.1043930E+01  0.7957747E-01            NaN
         13   -1    0    0    0    0  0.00000000000E+00  0.00000000000E+00  0.74505805969E-08  0.10566000000E+00  0.10566000000E+00 0. -1.
     999900   -1    0    0    0    0 -0.00000000000E+00 -0.00000000000E+00 -0.74505805969E-08  0.93827000000E+00  0.93827000000E+00 0.  1.
     999902    2    1    2    0    0 -0.19664349991E-01 -0.61640045056E-02  0.10651281644E-01  0.10207323404E+01  0.10204687057E+01 0.  0.
     999903    2    3    3    0    0  0.99226087663E-01  0.53799889745E-01 -0.57031069018E-01  0.12814536680E+00  0.20698975564E-01 0.  0.
         14    1    1    2    0    0  0.19664349991E-01  0.61640045056E-02 -0.10651281644E-01  0.23197659640E-01  0.00000000000E+00 0. -1.
     999901    1    3    3    0    0 -0.11889043765E+00 -0.59963894251E-01  0.67682350661E-01  0.89258697356E+00  0.88000000000E+00 0. -1.
        -11    1    4    4    0    0  0.19878886978E-01  0.90354397009E-02 -0.20608374882E-01  0.30029577991E-01  0.51100000000E-03 0.  1.
         11    1    4    4    0    0  0.79347200685E-01  0.44764450044E-01 -0.36422694135E-01  0.98115788808E-01  0.51100000000E-03 0. -1.
</event>
<event>
 8    1  0.5489035E+004  0.1043930E+01  0.7957747E-01            NaN
         13   -1    0    0    0    0  0.00000000000E+00  0.00000000000E+00  0.74505805969E-08  0.10566000000E+00  0.10566000000E+00 0.  1.
     999900   -1    0    0    0    0 -0.00000000000E+00 -0.00000000000E+00 -0.74505805969E-08  0.93827000000E+00  0.93827000000E+00 0.  1.
     999902    2    1    2    0    0 -0.62718004507E-02  0.36586226206E-02 -0.22919267882E-01  0.10198880816E+01  0.10196046710E+01 0.  0.
     999903    2    3    3    0    0  0.35919353277E-02  0.11084025052E+00  0.64133874385E-01  0.12906630131E+00  0.15700100530E-01 0.  0.
         14    1    1    2    0    0  0.62718004507E-02 -0.36586226206E-02  0.22919267882E-01  0.24041918405E-01  0.00000000000E+00 0.  1.
     999901    1    3    3    0    0 -0.98637357785E-02 -0.10718162790E+00 -0.87053142267E-01  0.89082178028E+00  0.88000000000E+00 0.  1.
        -11    1    4    4    0    0 -0.29815303139E-02  0.80384404045E-01  0.51028368497E-01  0.95261206423E-01  0.51100000000E-03 0.  1.
         11    1    4    4    0    0  0.65734656417E-02  0.30455846475E-01  0.13105505888E-01  0.33805094892E-01  0.51100000000E-03 0. -1.
</event>
<event>
 7    1  0.5489035E+004  0.1043930E+01  0.7957747E-01            NaN
         13   -1    0    0    0    0  0.00000000000E+00  0.00000000000E+00  0.74505805969E-08  0.10566000000E+00  0.10566000000E+00 0. -1.
     999900   -1    0    0    0    0 -0.00000000000E+00 -0.00000000000E+00 -0.74505805969E-08  0.93827000000E+00  0.93827000000E+00 0.  1.
     999903    2    1    2    0    0 -0.27333608249E-02  0.10109194971E+00 -0.33931700869E-02  0.10309487645E+00  0.19748073082E-01 0.  0.
         14    1    1    2    0    0 -0.21381469609E-02  0.39808155646E-01  0.28915144770E-01  0.49247807316E-01  0.00000000000E+00 0. -1.
     999901    1    1    2    0    0  0.48715077858E-02 -0.14090010535E+00 -0.25521974683E-01  0.89158731623E+00  0.88000000000E+00 0.  1.
        -11    1    3    3    0    0  0.60288149695E-02  0.71843935227E-01 -0.65519324643E-02  0.72395349152E-01  0.51100000000E-03 0.  1.
         11    1    3    3    0    0 -0.87621757944E-02  0.29248014479E-01  0.31587623773E-02  0.30699527299E-01  0.51100000000E-03 0. -1.
</event>
<event>
 7    1  0.5489035E+004  0.1043930E+01  0.7957747E-01            NaN
         13   -1    0    0    0    0  0.00000000000E+00  0.00000000000E+00  0.74505805969E-08  0.10566000000E+00  0.10566000000E+00 0.  1.
     999900   -1    0    0    0    0 -0.00000000000E+00 -0.00000000000E+00 -0.74505805969E-08  0.93827000000E+00  0.93827000000E+00 0. -1.
     999903    2    1    2    0    0 -0.52977395316E-01  0.80430292501E-01  0.55472804844E-01  0.11288294335E+00  0.19740578906E-01 0.  0.
         14    1    1    2    0    0  0.24416779478E-01  0.25845693590E-01  0.20333562156E-01  0.40958915356E-01  0.00000000000E+00 0.  1.
     999901    1    1    2    0    0  0.28560615837E-01 -0.10627598609E+00 -0.75806367000E-01  0.89008814130E+00  0.88000000000E+00 0.  1.
        -11    1    3    3    0    0 -0.28377174555E-01  0.39947869892E-01  0.39329095777E-01  0.62834188467E-01  0.51100000000E-03 0. -1.
         11    1    3    3    0    0 -0.24600220761E-01  0.40482422609E-01  0.16143709067E-01  0.50048754882E-01  0.51100000000E-03 0.  1.
</event>
<event>
 8    1  0.5489035E+004  0.1043930E+01  0.7957747E-01            NaN
         13   -1    0    0    0    0  0.00000000000E+00  0.00000000000E+00  0.74505805969E-08  0.10566000000E+00  0.10566000000E+00 0.  1.
     999900   -1    0    0    0    0 -0.00000000000E+00 -0.00000000000E+00 -0.74505805969E-08  0.93827000000E+00  0.93827000000E+00 0. -1.
     999902    2    1    2    0    0 -0.10589707078E-01 -0.15336001883E-01 -0.15195267502E-01  0.10198835657E+01  0.10196000473E+01 0.  0.
     999903    2    3    3    0    0  0.67479651822E-02 -0.35255476380E-01  0.12211472343E+00  0.12884405254E+00  0.20007512262E-01 0.  0.
         14    1    1    2    0    0  0.10589707078E-01  0.15336001883E-01  0.15195267502E-01  0.24046434334E-01  0.00000000000E+00 0.  1.
     999901    1    3    3    0    0 -0.17337672261E-01  0.19919474498E-01 -0.13730999093E+00  0.89103951313E+00  0.88000000000E+00 0. -1.
        -11    1    4    4    0    0  0.13687759915E-01 -0.19743857349E-01  0.67944044605E-01  0.72068224571E-01  0.51100000000E-03 0.  1.
         11    1    4    4    0    0 -0.69397947326E-02 -0.15511619031E-01  0.54170678826E-01  0.56775827968E-01  0.51100000000E-03 0. -1.
</event>
<event>
 8    1  0.5489035E+004  0.1043930E+01  0.7957747E-01            NaN
         13   -1    0    0    0    0  0.00000000000E+00  0.00000000000E+00  0.74505805969E-08  0.10566000000E+00  0.10566000000E+00 0. -1.
     999900   -1    0    0    0    0 -0.00000000000E+00 -0.00000000000E+00 -0.74505805969E-08  0.93827000000E+00  0.93827000000E+00 0.  1.
     999902    2    1    2    0    0  0.84144306308E-02 -0.30314410082E-02  0.22481722223E-01  0.10197345436E+01  0.10194474578E+01 0.  0.
     999903    2    3    3    0    0 -0.28464008641E-01  0.19504003716E-01  0.12636747395E+00  0.13257045787E+00  0.20385825413E-01 0.  0.
         14    1    1    2    0    0 -0.84144306308E-02  0.30314410082E-02 -0.22481722223E-01  0.24195456424E-01  0.00000000000E+00 0.  1.
     999901    1    3    3    0    0  0.36878439271E-01 -0.22535444724E-01 -0.10388575173E+00  0.88716408571E+00  0.88000000000E+00 0.  1.
        -11    1    4    4    0    0 -0.16085707722E-01  0.13678205360E-01  0.41084867666E-01  0.46196003798E-01  0.51100000000E-03 0.  1.
         11    1    4    4    0    0 -0.12378300918E-01  0.58257983566E-02  0.85282606288E-01  0.86374454073E-01  0.51100000000E-03 0. -1.
</event>
<event>
 8    1  0.5489035E+004  0.1043930E+01  0.7957747E-01            NaN
         13   -1    0    0    0    0  0.00000000000E+00  0.00000000000E+00  0.74505805969E-08  0.10566000000E+00  0.10566000000E+00 0. -1.
     999900   -1    0    0    0    0 -0.00000000000E+00 -0.00000000000E+00 -0.74505805969E-08  0.93827000000E+00  0.93827000000E+00 0. -1.
     999902    2    1    2    0    0 -0.58729019982E-03  0.66300733284E-02  0.22425003357E-01  0.10205380450E+01  0.10202699240E+01 0.  0.
     999903    2    3    3    0    0  0.14118715963E-01  0.11937809197E+00  0.53079449825E-01  0.13269342043E+00  0.18429564569E-01 0.  0.
         14    1    1    2    0    0  0.58729019982E-03 -0.66300733284E-02 -0.22425003357E-01  0.23391954977E-01  0.00000000000E+00 0.  1.
     999901    1    3    3    0    0 -0.14706006163E-01 -0.11274801864E+00 -0.30654446468E-01  0.88784462459E+00  0.88000000000E+00 0. -1.
        -11    1    4    4    0    0  0.12085192468E-01  0.48884245287E-01  0.15002046832E-01  0.52545635827E-01  0.51100000000E-03 0. -1.
         11    1    4    4    0    0  0.20335234955E-02  0.70493846680E-01  0.38077402993E-01  0.80147784606E-01  0.51100000000E-03 0.  1.
</event>
<event>
 8    1  0.5489035E+004  0.1043930E+01  0.7957747E-01            NaN
         13   -1    0    0    0    0  0.00000000000E+00  0.00000000000E+00  0.74505805969E-08  0.10566000000E+00  0.10566000000E+00 0. -1.
     999900   -1    0    0    0    0 -0.00000000000E+00 -0.00000000000E+00 -0.74505805969E-08  0.93827000000E+00  0.93827000000E+00 0. -1.
     999902    2    1    2    0    0  0.97225969058E-03  0.45990660130E-02 -0.23327815729E-01  0.10201332842E+01  0.10198556926E+01 0.  0.
     999903    2    3    3    0    0 -0.36067773142E-01 -0.12268716395E+00  0.71019835506E-02  0.12968411603E+00  0.20359452949E-01 0.  0.
         14    1    1    2    0    0 -0.97225969058E-03 -0.45990660130E-02  0.23327815729E-01  0.23796715820E-01  0.00000000000E+00 0. -1.
     999901    1    3    3    0    0  0.37040032832E-01  0.12728622996E+00 -0.30429799280E-01  0.89044916815E+00  0.88000000000E+00 0. -1.
        -11    1    4    4    0    0 -0.14560089828E-01 -0.58038305411E-01 -0.65465033567E-02  0.60196004336E-01  0.51100000000E-03 0.  1.
         11    1    4    4    0    0 -0.21507683314E-01 -0.64648858535E-01  0.13648486907E-01  0.69488111698E-01  0.51100000000E-03 0. -1.
</event>
<event>
 8    1  0.5489035E+004  0.1043930E+01  0.7957747E-01            NaN
         13   -1    0    0    0    0  0.00000000000E+00  0.00000000000E+00  0.74505805969E-08  0.10566000000E+00  0.10566000000E+00 0.  1.
     999900   -1    0    0    0    0 -0.00000000000E+00 -0.00000000000E+00 -0.74505805969E-08  0.93827000000E+00  0.93827000000E+00 0. -1.
     999902    2    1    2    0    0  0.23118398772E-01  0.51293354474E-02 -0.25627802476E-02  0.10201111359E+01  0.10198330213E+01 0.  0.
     999903    2    3    3    0    0  0.12507615472E+00 -0.38503697156E-01 -0.12727226350E-01  0.13309222884E+00  0.20615040957E-01 0.  0.
         14    1    1    2    0    0 -0.23118398772E-01 -0.51293354474E-02  0.25627802476E-02  0.23818864089E-01  0.00000000000E+00 0.  1.
     999901    1    3    3    0    0 -0.10195775595E+00  0.43633032603E-01  0.10164446102E-01  0.88701890707E+00  0.88000000000E+00 0.  1.
        -11    1    4    4    0    0  0.20027560162E-01 -0.91042034366E-02 -0.94714799293E-02  0.23957456862E-01  0.51100000000E-03 0. -1.
         11    1    4    4    0    0  0.10504859456E+00 -0.29399493719E-01 -0.32557464206E-02  0.10913477198E+00  0.51100000000E-03 0.  1.
</event>
<event>
 8    1  0.5489035E+004  0.1043930E+01  0.7957747E-01            NaN
         13   -1    0    0    0    0  0.00000000000E+00  0.00000000000E+00  0.74505805969E-08  0.10566000000E+00  0.10566000000E+00 0.  1.
     999900   -1    0    0    0    0 -0.00000000000E+00 -0.00000000000E+00 -0.74505805969E-08  0.93827000000E+00  0.93827000000E+00 0. -1.
     999902    2    1    2    0    0 -0.83237075448E-02  0.57704508933E-02 -0.22212951664E-01  0.10195169414E+01  0.10192246054E+01 0.  0.
     999903    2    3    3    0    0  0.47340173396E-02 -0.89017491203E-01 -0.94804703783E-01  0.13135883571E+00  0.17907741327E-01 0.  0.
         14    1    1    2    0    0  0.83237075448E-02 -0.57704508933E-02  0.22212951664E-01  0.24413058645E-01  0.00000000000E+00 0.  1.
     999901    1    3    3    0    0 -0.13057724884E-01  0.94787942096E-01  0.72591752120E-01  0.88815810564E+00  0.88000000000E+00 0.  1.
        -11    1    4    4    0    0 -0.87494443147E-03 -0.40763178198E-01 -0.55497419694E-01  0.68866733176E-01  0.51100000000E-03 0. -1.
         11    1    4    4    0    0  0.56089617711E-02 -0.48254313005E-01 -0.39307284089E-01  0.62492102534E-01  0.51100000000E-03 0.  1.
</event>
<event>
 7    1  0.5489035E+004  0.1043930E+01  0.7957747E-01            NaN
         13   -1    0    0    0    0  0.00000000000E+00  0.00000000000E+00  0.74505805969E-08  0.10566000000E+00  0.10566000000E+00 0. -1.
     999900   -1    0    0    0    0 -0.00000000000E+00 -0.00000000000E+00 -0.74505805969E-08  0.93827000000E+00  0.93827000000E+00 0.  1.
     999903    2    1    2    0    0  0.61910643344E-01 -0.63682825744E-01  0.66437798700E-01  0.11271701921E+00  0.20067766936E-01 0.  0.
         14    1    1    2    0    0 -0.31212429537E-01 -0.23495927859E-01 -0.22938600480E-01  0.45304015005E-01  0.00000000000E+00 0.  1.
     999901    1    1    2    0    0 -0.30698213807E-01  0.87178753603E-01 -0.43499198220E-01  0.88590896578E+00  0.88000000000E+00 0. -1.
        -11    1    3    3    0    0  0.12649574690E-01 -0.11066021827E-01  0.23237870325E-01  0.28683241051E-01  0.51100000000E-03 0. -1.
         11    1    3    3    0    0  0.49261068654E-01 -0.52616803917E-01  0.43199928374E-01  0.84033778160E-01  0.51100000000E-03 0.  1.
</event>
<event>
 8    1  0.5489035E+004  0.1043930E+01  0.7957747E-01            NaN
         13   -1    0    0    0    0  0.00000000000E+00  0.00000000000E+00  0.74505805969E-08  0.10566000000E+00  0.10566000000E+00 0.  1.
     999900   -1    0    0    0    0 -0.00000000000E+00 -0.00000000000E+00 -0.74505805969E-08  0.93827000000E+00  0.93827000000E+00 0.  1.
     999902    2    1    2    0    0  0.87451468224E-02  0.21409750933E-01 -0.65573921127E-02  0.10198913973E+01  0.10196080658E+01 0.  0.
     999903    2    3    3    0    0 -0.39787981191E-01  0.92855334046E-02  0.12058284700E+00  0.12934824756E+00  0.22835095304E-01 0.  0.
         14    1    1    2    0    0 -0.87451468224E-02 -0.21409750933E-01  0.65573921127E-02  0.24038602690E-01  0.00000000000E+00 0.  1.
     999901    1    3    3    0    0  0.48533128013E-01  0.12124217529E-01 -0.12714023912E+00  0.89054314975E+00  0.88000000000E+00 0.  1.
        -11    1    4    4    0    0 -0.36664911934E-01  0.13488428957E-01  0.87193555550E-01  0.95547007976E-01  0.51100000000E-03 0. -1.
         11    1    4    4    0    0 -0.31230692570E-02 -0.42028955527E-02  0.33389291453E-01  0.33801239583E-01  0.51100000000E-03 0.  1.
</event>
<event>
 8    1  0.5489035E+004  0.1043930E+01  0.7957747E-01            NaN
         13   -1    0    0    0    0  0.00000000000E+00  0.00000000000E+00  0.74505805969E-08  0.10566000000E+00  0.10566000000E+00 0.  1.
     999900   -1    0    0    0    0 -0.00000000000E+00 -0.00000000000E+00 -0.74505805969E-08  0.93827000000E+00  0.93827000000E+00 0. -1.
     999902    2    1    2    0    0  0.10018634797E-01  0.84490756267E-02 -0.19889173331E-01  0.10201111180E+01  0.10198330030E+01 0.  0.
     999903    2    3    3    0    0 -0.45929187783E-01  0.60577600076E-01  0.10153147063E+00  0.12848871214E+00  0.20532259963E-01 0.  0.
         14    1    1    2    0    0 -0.10018634797E-01 -0.84490756267E-02  0.19889173331E-01  0.23818881963E-01  0.00000000000E+00 0.  1.
     999901    1    3    3    0    0  0.55947822580E-01 -0.52128524449E-01 -0.12142064396E+00  0.89162240589E+00  0.88000000000E+00 0. -1.
        -11    1    4    4    0    0 -0.13781500759E-01  0.11531336356E-01  0.37940765710E-01  0.41984095858E-01  0.51100000000E-03 0.  1.
         11    1    4    4    0    0 -0.32147687023E-01  0.49046263720E-01  0.63590704917E-01  0.86504616285E-01  0.51100000000E-03 0. -1.
</event>
<event>
 8    1  0.5489035E+004  0.1043930E+01  0.7957747E-01            NaN
         13   -1    0    0    0    0  0.00000000000E+00  0.00000000000E+00  0.74505805969E-08  0.10566000000E+00  0.10566000000E+00 0.  1.
     999900   -1    0    0    0    0 -0.00000000000E+00 -0.00000000000E+00 -0.74505805969E-08  0.93827000000E+00  0.93827000000E+00 0.  1.
     999902    2    1    2    0    0 -0.17411653695E-01  0.29230205117E-02  0.20802687780E-01  0.10166451773E+01  0.10162789749E+01 0.  0.
     999903    2    3    3    0    0 -0.29714381060E-01  0.83466215335E-01  0.91664260354E-01  0.13004497096E+00  0.25686656111E-01 0.  0.
         14    1    1    2    0    0  0.17411653695E-01 -0.29230205117E-02 -0.20802687780E-01  0.27284822744E-01  0.00000000000E+00 0. -1.
     999901    1    3    3    0    0  0.12302727365E-01 -0.80543194823E-01 -0.70861572575E-01  0.88660020629E+00  0.88000000000E+00 0.  1.
        -11    1    4    4    0    0 -0.10514332408E-01  0.52893172437E-01  0.40594960722E-01  0.67501487639E-01  0.51100000000E-03 0.  1.
         11    1    4    4    0    0 -0.19200048652E-01  0.30573042898E-01  0.51069299632E-01  0.62543483323E-01  0.51100000000E-03 0. -1.
</event>
<event>
 8    1  0.5489035E+004  0.1043930E+01  0.7957747E-01            NaN
         13   -1    0    0    0    0  0.00000000000E+00  0.00000000000E+00  0.74505805969E-08  0.10566000000E+00  0.10566000000E+00 0. -1.
     999900   -1    0    0    0    0 -0.00000000000E+00 -0.00000000000E+00 -0.74505805969E-08  0.93827000000E+00  0.93827000000E+00 0. -1.
     999902    2    1    2    0    0  0.31707765271E-03 -0.22567647591E-01 -0.70922203861E-02  0.10202720448E+01  0.10199977189E+01 0.  0.
     999903    2    3    3    0    0 -0.10803692768E+00 -0.72264480416E-01 -0.15381606995E-01  0.13219598969E+00  0.18575601847E-01 0.  0.
         14    1    1    2    0    0 -0.31707765271E-03  0.22567647591E-01  0.70922203861E-02  0.23657955238E-01  0.00000000000E+00 0.  1.
     999901    1    3    3    0    0  0.10835400533E+00  0.49696832824E-01  0.82893866093E-02  0.88807605507E+00  0.88000000000E+00 0.  1.
        -11    1    4    4    0    0 -0.96498107102E-01 -0.70639107834E-01 -0.13046679219E-01  0.12030064501E+00  0.51100000000E-03 0. -1.
         11    1    4    4    0    0 -0.11538820577E-01 -0.16253725816E-02 -0.23349277768E-02  0.11895344680E-01  0.51100000000E-03 0.  1.
</event>
<event>
 8    1  0.5489035E+004  0.1043930E+01  0.7957747E-01            NaN
         13   -1    0    0    0    0  0.00000000000E+00  0.00000000000E+00  0.74505805969E-08  0.10566000000E+00  0.10566000000E+00 0.  1.
     999900   -1    0    0    0    0 -0.00000000000E+00 -0.00000000000E+00 -0.74505805969E-08  0.93827000000E+00  0.93827000000E+00 0. -1.
     999902    2    1    2    0    0  0.97767983258E-03 -0.18254799260E-01  0.14700146492E-01  0.10204717848E+01  0.10202021249E+01 0.  0.
     999903    2    3    3    0    0 -0.27223840770E-01  0.19511344322E-01 -0.12270595008E+00  0.12856257263E+00  0.18701733377E-01 0.  0.
         14    1    1    2    0    0 -0.97767983258E-03  0.18254799260E-01 -0.14700146492E-01  0.23458215208E-01  0.00000000000E+00 0. -1.
     999901    1    3    3    0    0  0.28201520603E-01 -0.37766143582E-01  0.13740609658E+00  0.89190921216E+00  0.88000000000E+00 0.  1.
        -11    1    4    4    0    0  0.33004856961E-03  0.20926081051E-02 -0.33754474812E-01  0.33824748803E-01  0.51100000000E-03 0. -1.
         11    1    4    4    0    0 -0.27553889340E-01  0.17418736217E-01 -0.88951475272E-01  0.94737823826E-01  0.51100000000E-03 0.  1.
</event>
<event>
 8    1  0.5489035E+004  0.1043930E+01  0.7957747E-01            NaN
         13   -1    0    0    0    0  0.00000000000E+00  0.00000000000E+00  0.74505805969E-08  0.10566000000E+00  0.10566000000E+00 0. -1.
     999900   -1    0    0    0    0 -0.00000000000E+00 -0.00000000000E+00 -0.74505805969E-08  0.93827000000E+00  0.93827000000E+00 0. -1.
     999902    2    1    2    0    0  0.88552028322E-02 -0.31976345545E-02 -0.22018669050E-01  0.10199829486E+01  0.10197017967E+01 0.  0.
     999903    2    3    3    0    0 -0.11551505408E+00 -0.80533079382E-02  0.51187273541E-01  0.12821467803E+00  0.20255448679E-01 0.  0.
         14    1    1    2    0    0 -0.88552028322E-02  0.31976345545E-02  0.22018669050E-01  0.23947051398E-01  0.00000000000E+00 0. -1.
     999901    1    3    3    0    0  0.12437025691E+00  0.48556733837E-02 -0.73205942591E-01  0.89176827057E+00  0.88000000000E+00 0. -1.
        -11    1    4    4    0    0 -0.54736371072E-01  0.53629951507E-02  0.19385262541E-01  0.58317077772E-01  0.51100000000E-03 0.  1.
         11    1    4    4    0    0 -0.60778683011E-01 -0.13416303089E-01  0.31802010999E-01  0.69897600257E-01  0.51100000000E-03 0. -1.
</event>
<event>
 8    1  0.5489035E+004  0.1043930E+01  0.7957747E-01            NaN
         13   -1    0    0    0    0  0.00000000000E+00  0.00000000000E+00  0.74505805969E-08  0.10566000000E+00  0.10566000000E+00 0. -1.
     999900   -1    0    0    0    0 -0.00000000000E+00 -0.00000000000E+00 -0.74505805969E-08  0.93827000000E+00  0.93827000000E+00 0. -1.
     999902    2    1    2    0    0  0.13426432467E-01  0.19943912024E-02 -0.17968910960E-01  0.10214104874E+01  0.10211622082E+01 0.  0.
     999903    2    3    3    0    0 -0.10612466162E+00 -0.63145772547E-05 -0.74952218134E-01  0.13149837705E+00  0.20286555102E-01 0.  0.
         14    1    1    2    0    0 -0.13426432467E-01 -0.19943912024E-02  0.17968910960E-01  0.22519512565E-01  0.00000000000E+00 0. -1.
     999901    1    3    3    0    0  0.11955109409E+00  0.20007057797E-02  0.56983307174E-01  0.88991211039E+00  0.88000000000E+00 0.  1.
        -11    1    4    4    0    0 -0.57298422034E-01  0.84482745993E-02 -0.47090295440E-01  0.74647435032E-01  0.51100000000E-03 0. -1.
         11    1    4    4    0    0 -0.48826239590E-01 -0.84545891766E-02 -0.27861922693E-01  0.56850942013E-01  0.51100000000E-03 0.  1.
</event>
<event>
 8    1  0.5489035E+004  0.1043930E+01  0.7957747E-01            NaN
         13   -1    0    0    0    0  0.00000000000E+00  0.00000000000E+00  0.74505805969E-08  0.10566000000E+00  0.10566000000E+00 0.  1.
     999900   -1    0    0    0    0 -0.00000000000E+00 -0.00000000000E+00 -0.74505805969E-08  0.93827000000E+00  0.93827000000E+00 0. -1.
     999902    2    1    2    0    0 -0.14076835779E-01  0.65626439319E-02 -0.18390701184E-01  0.10198583675E+01  0.10195742476E+01 0.  0.
     999903    2    3    3    0    0  0.93752236293E-01  0.44427131479E-01 -0.76900354948E-01  0.13054165914E+00  0.19084243701E-01 0.  0.
         14    1    1    2    0    0  0.14076835779E-01 -0.65626439319E-02  0.18390701184E-01  0.24071632495E-01  0.00000000000E+00 0.  1.
     999901    1    3    3    0    0 -0.10782907207E+00 -0.37864487547E-01  0.58509653764E-01  0.88931670837E+00  0.88000000000E+00 0. -1.
        -11    1    4    4    0    0  0.62515181880E-01  0.30586707595E-01 -0.40101613752E-01  0.80324935067E-01  0.51100000000E-03 0. -1.
         11    1    4    4    0    0  0.31237054413E-01  0.13840423884E-01 -0.36798741196E-01  0.50216724069E-01  0.51100000000E-03 0.  1.
</event>
<event>
 8    1  0.5489035E+004  0.1043930E+01  0.7957747E-01            NaN
         13   -1    0    0    0    0  0.00000000000E+00  0.00000000000E+00  0.74505805969E-08  0.10566000000E+00  0.10566000000E+00 0.  1.
     999900   -1    0    0    0    0 -0.00000000000E+00 -0.00000000000E+00 -0.74505805969E-08  0.93827000000E+00  0.93827000000E+00 0. -1.
     999902    2    1    2    0    0  0.44247703004E-02  0.22184882347E-01  0.88941930643E-02  0.10196225059E+01  0.10193327231E+01 0.  0.
     999903    2    3    3    0    0 -0.50477383276E-01 -0.10790331544E+00  0.41913053395E-01  0.12775512185E+00  0.19328098986E-01 0.  0.
         14    1    1    2    0    0 -0.44247703004E-02 -0.22184882347E-01 -0.88941930643E-02  0.24307494054E-01  0.00000000000E+00 0. -1.
     999901    1    3    3    0    0  0.54902153576E-01  0.13008819778E+00 -0.33018860330E-01  0.89186738409E+00  0.88000000000E+00 0. -1.
        -11    1    4    4    0    0 -0.27862784246E-01 -0.75580900504E-01  0.34410802860E-01  0.87596642295E-01  0.51100000000E-03 0.  1.
         11    1    4    4    0    0 -0.22614599030E-01 -0.32322414932E-01  0.75022505350E-02  0.40158479558E-01  0.51100000000E-03 0. -1.
</event>
<event>
 8    1  0.5489035E+004  0.1043930E+01  0.7957747E-01            NaN
         13   -1    0    0    0    0  0.00000000000E+00  0.00000000000E+00  0.74505805969E-08  0.10566000000E+00  0.10566000000E+00 0.  1.
     999900   -1    0    0    0    0 -0.00000000000E+00 -0.00000000000E+00 -0.74505805969E-08  0.93827000000E+00  0.93827000000E+00 0. -1.
     999902    2    1    2    0    0 -0.18303753589E-01 -0.15091259254E-01 -0.83411264086E-02  0.10187834716E+01  0.10184730797E+01 0.  0.
     999903    2    3    3    0    0  0.20451647596E-01 -0.12595351702E+00 -0.21431747129E-01  0.13088494942E+00  0.19722876566E-01 0.  0.
         14    1    1    2    0    0  0.18303753589E-01  0.15091259254E-01  0.83411264086E-02  0.25146528410E-01  0.00000000000E+00 0. -1.
     999901    1    3    3    0    0 -0.38755401185E-01  0.11086225777E+00  0.13090620720E-01  0.88789852217E+00  0.88000000000E+00 0.  1.
        -11    1    4    4    0    0 -0.36584321456E-02 -0.26688443903E-01 -0.54811427982E-02  0.27494748791E-01  0.51100000000E-03 0. -1.
         11    1    4    4    0    0  0.24110079742E-01 -0.99265073121E-01 -0.15950604331E-01  0.10339020063E+00  0.51100000000E-03 0.  1.
</event>
<event>
 8    1  0.5489035E+004  0.1043930E+01  0.7957747E-01            NaN
         13   -1    0    0    0    0  0.00000000000E+00  0.00000000000E+00  0.74505805969E-08  0.10566000000E+00  0.10566000000E+00 0.  1.
     999900   -1    0    0    0    0 -0.00000000000E+00 -0.00000000000E+00 -0.74505805969E-08  0.93827000000E+00  0.93827000000E+00 0. -1.
     999902    2    1    2    0    0  0.20828592676E-01  0.99243710610E-02 -0.92360101493E-02  0.10190778915E+01  0.10187748140E+01 0.  0.
     999903    2    3    3    0    0 -0.22245745257E-01 -0.25646001362E-01 -0.12366899846E+00  0.12991223831E+00  0.20750371429E-01 0.  0.
         14    1    1    2    0    0 -0.20828592676E-01 -0.99243710610E-02  0.92360101493E-02  0.24852108508E-01  0.00000000000E+00 0.  1.
     999901    1    3    3    0    0  0.43074337933E-01  0.35570372423E-01  0.11443298831E+00  0.88916565318E+00  0.88000000000E+00 0.  1.
        -11    1    4    4    0    0 -0.93603317015E-02 -0.20079412911E-01 -0.99682729477E-01  0.10211614128E+00  0.51100000000E-03 0. -1.
         11    1    4    4    0    0 -0.12885413555E-01 -0.55665884512E-02 -0.23986268985E-01  0.27796097034E-01  0.51100000000E-03 0.  1.
</event>
<event>
 8    1  0.5489035E+004  0.1043930E+01  0.7957747E-01            NaN
         13   -1    0    0    0    0  0.00000000000E+00  0.00000000000E+00  0.74505805969E-08  0.10566000000E+00  0.10566000000E+00 0.  1.
     999900   -1    0    0    0    0 -0.00000000000E+00 -0.00000000000E+00 -0.74505805969E-08  0.93827000000E+00  0.93827000000E+00 0.  1.
     999902    2    1    2    0    0  0.94111175296E-02  0.10348230297E-01 -0.19459791038E-01  0.10199646402E+01  0.10196830531E+01 0.  0.
     999903    2    3    3    0    0 -0.12634156668E+00  0.19158258364E-01  0.15270408398E-02  0.12926443531E+00  0.19435329869E-01 0.  0.
         14    1    1    2    0    0 -0.94111175296E-02 -0.10348230297E-01  0.19459791038E-01  0.23965359808E-01  0.00000000000E+00 0.  1.
     999901    1    3    3    0    0  0.13575268421E+00 -0.88100280662E-02 -0.20986831878E-01  0.89070020488E+00  0.88000000000E+00 0. -1.
        -11    1    4    4    0    0 -0.10142072917E+00  0.16584211617E-01  0.88728697977E-02  0.10315129335E+00  0.51100000000E-03 0.  1.
         11    1    4    4    0    0 -0.24920837515E-01  0.25740467463E-02 -0.73458289579E-02  0.26113141963E-01  0.51100000000E-03 0. -1.
</event>
<event>
 8    1  0.5489035E+004  0.1043930E+01  0.7957747E-01            NaN
         13   -1    0    0    0    0  0.00000000000E+00  0.00000000000E+00  0.74505805969E-08  0.10566000000E+00  0.10566000000E+00 0. -1.
     999900   -1    0    0    0    0 -0.00000000000E+00 -0.00000000000E+00 -0.74505805969E-08  0.93827000000E+00  0.93827000000E+00 0.  1.
     999902    2    1    2    0    0  0.13310025592E-01 -0.49815055599E-02 -0.19412612759E-01  0.10198712861E+01  0.10195874747E+01 0.  0.
     999903    2    3    3    0    0 -0.90891035200E-01  0.97891372930E-03  0.86967609569E-01  0.12734109652E+00  0.19754776542E-01 0.  0.
         14    1    1    2    0    0 -0.13310025592E-01  0.49815055599E-02  0.19412612759E-01  0.24058713869E-01  0.00000000000E+00 0. -1.
     999901    1    3    3    0    0  0.10420106079E+00 -0.59604192892E-02 -0.10638022233E+00  0.89253018961E+00  0.88000000000E+00 0. -1.
        -11    1    4    4    0    0 -0.21758085725E-01 -0.82389555142E-02  0.21637022076E-01  0.31776037004E-01  0.51100000000E-03 0. -1.
         11    1    4    4    0    0 -0.69132949475E-01  0.92178692435E-02  0.65330587493E-01  0.95565059513E-01  0.51100000000E-03 0.  1.
</event>
<event>
 8    1  0.5489035E+004  0.1043930E+01  0.7957747E-01            NaN
         13   -1    0    0    0    0  0.00000000000E+00  0.00000000000E+00  0.74505805969E-08  0.10566000000E+00  0.10566000000E+00 0.  1.
     999900   -1    0    0    0    0 -0.00000000000E+00 -0.00000000000E+00 -0.74505805969E-08  0.93827000000E+00  0.93827000000E+00 0. -1.
     999902    2    1    2    0    0  0.18676752607E-01  0.10855327171E-01  0.94180608765E-02  0.10203639421E+01  0.10200917680E+01 0.  0.
     999903    2    3    3    0    0 -0.60384829489E-01 -0.65738757533E-01  0.93065891533E-01  0.12956971939E+00  0.12615075982E-01 0.  0.
         14    1    1    2    0    0 -0.18676752607E-01 -0.10855327171E-01 -0.94180608765E-02  0.23566057935E-01  0.00000000000E+00 0. -1.
     999901    1    3    3    0    0  0.79061582095E-01  0.76594084704E-01 -0.83647830656E-01  0.89079422267E+00  0.88000000000E+00 0.  1.
        -11    1    4    4    0    0 -0.24362551292E-01 -0.21690782932E-01  0.26766715432E-01  0.42198840573E-01  0.51100000000E-03 0.  1.
         11    1    4    4    0    0 -0.36022278197E-01 -0.44047974601E-01  0.66299176101E-01  0.87370878819E-01  0.51100000000E-03 0. -1.
</event>
<event>
 8    1  0.5489035E+004  0.1043930E+01  0.7957747E-01            NaN
         13   -1    0    0    0    0  0.00000000000E+00  0.00000000000E+00  0.74505805969E-08  0.10566000000E+00  0.10566000000E+00 0. -1.
     999900   -1    0    0    0    0 -0.00000000000E+00 -0.00000000000E+00 -0.74505805969E-08  0.93827000000E+00  0.93827000000E+00 0.  1.
     999902    2    1    2    0    0  0.20926447795E-01  0.30616877494E-02 -0.10750341014E-01  0.10202053297E+01  0.10199294362E+01 0.  0.
     999903    2    3    3    0    0  0.65763899986E-01  0.54103959972E-01  0.97181825787E-01  0.13101183933E+00  0.21625581051E-01 0.  0.
         14    1    1    2    0    0 -0.20926447795E-01 -0.30616877494E-02  0.10750341014E-01  0.23724670306E-01  0.00000000000E+00 0. -1.
     999901    1    3    3    0    0 -0.44837452191E-01 -0.51042272223E-01 -0.10793216680E+00  0.88919349036E+00  0.88000000000E+00 0.  1.
        -11    1    4    4    0    0  0.27690602603E-01  0.20399436502E-01  0.55341358335E-01  0.65160060969E-01  0.51100000000E-03 0. -1.
         11    1    4    4    0    0  0.38073297382E-01  0.33704523470E-01  0.41840467452E-01  0.65851778363E-01  0.51100000000E-03 0.  1.
</event>
<event>
 8    1  0.5489035E+004  0.1043930E+01  0.7957747E-01            NaN
         13   -1    0    0    0    0  0.00000000000E+00  0.00000000000E+00  0.74505805969E-08  0.10566000000E+00  0.10566000000E+00 0.  1.
     999900   -1    0    0    0    0 -0.00000000000E+00 -0.00000000000E+00 -0.74505805969E-08  0.93827000000E+00  0.93827000000E+00 0. -1.
     999902    2    1    2    0    0 -0.16546552734E-01  0.85326194472E-02 -0.14148818615E-01  0.10205466070E+01  0.10202786844E+01 0.  0.
     999903    2    3    3    0    0  0.43467491734E-02  0.14519668596E-01 -0.13025822594E+00  0.13265372530E+00  0.20002260057E-01 0.  0.
         14    1    1    2    0    0  0.16546552734E-01 -0.85326194472E-02  0.14148818615E-01  0.23383393043E-01  0.00000000000E+00 0. -1.
     999901    1    3    3    0    0 -0.20893301907E-01 -0.59870491483E-02  0.11610940732E+00  0.88789288165E+00  0.88000000000E+00 0.  1.
        -11    1    4    4    0    0 -0.41384279892E-02 -0.31345503740E-02 -0.36412228936E-01  0.36784011872E-01  0.51100000000E-03 0.  1.
         11    1    4    4    0    0  0.84851771626E-02  0.17654218970E-01 -0.93845997003E-01  0.95869713431E-01  0.51100000000E-03 0. -1.
</event>
<event>
 7    1  0.5489035E+004  0.1043930E+01  0.7957747E-01            NaN
         13   -1    0    0    0    0  0.00000000000E+00  0.00000000000E+00  0.74505805969E-08  0.10566000000E+00  0.10566000000E+00 0. -1.
     999900   -1    0    0    0    0 -0.00000000000E+00 -0.00000000000E+00 -0.74505805969E-08  0.93827000000E+00  0.93827000000E+00 0. -1.
     999903    2    1    2    0    0 -0.32448150943E-01 -0.61003123314E-01 -0.72826762970E-01  0.10085287913E+00  0.96593100280E-02 0.  0.
         14    1    1    2    0    0 -0.46010352411E-02  0.12176223088E-01 -0.50694670598E-01  0.52339082539E-01  0.00000000000E+00 0.  1.
     999901    1    1    2    0    0  0.37049186184E-01  0.48826900226E-01  0.12352143357E+00  0.89073803833E+00  0.88000000000E+00 0.  1.
        -11    1    3    3    0    0 -0.17464243028E-01 -0.42510120991E-01 -0.48152287869E-01  0.66565863017E-01  0.51100000000E-03 0. -1.
         11    1    3    3    0    0 -0.14983907915E-01 -0.18493002322E-01 -0.24674475100E-01  0.34287016111E-01  0.51100000000E-03 0.  1.
</event>
<event>
 8    1  0.5489035E+004  0.1043930E+01  0.7957747E-01            NaN
         13   -1    0    0    0    0  0.00000000000E+00  0.00000000000E+00  0.74505805969E-08  0.10566000000E+00  0.10566000000E+00 0.  1.
     999900   -1    0    0    0    0 -0.00000000000E+00 -0.00000000000E+00 -0.74505805969E-08  0.93827000000E+00  0.93827000000E+00 0. -1.
     999902    2    1    2    0    0  0.16955169727E-01 -0.13454095957E-01  0.97746213249E-02  0.10201806063E+01  0.10199041307E+01 0.  0.
     999903    2    3    3    0    0  0.11827781884E+00 -0.57252935840E-01 -0.93262986028E-02  0.13307888568E+00  0.18853882320E-01 0.  0.
         14    1    1    2    0    0 -0.16955169727E-01  0.13454095957E-01 -0.97746213249E-02  0.23749393688E-01  0.00000000000E+00 0. -1.
     999901    1    3    3    0    0 -0.10132264911E+00  0.43798839883E-01  0.19100919928E-01  0.88710172063E+00  0.88000000000E+00 0. -1.
        -11    1    4    4    0    0  0.63736209767E-01 -0.24900258013E-01 -0.12588921345E-01  0.69577793485E-01  0.51100000000E-03 0. -1.
         11    1    4    4    0    0  0.54541609069E-01 -0.32352677827E-01  0.32626227422E-02  0.63501092200E-01  0.51100000000E-03 0.  1.
</event>
<event>
 8    1  0.5489035E+004  0.1043930E+01  0.7957747E-01            NaN
         13   -1    0    0    0    0  0.00000000000E+00  0.00000000000E+00  0.74505805969E-08  0.10566000000E+00  0.10566000000E+00 0. -1.
     999900   -1    0    0    0    0 -0.00000000000E+00 -0.00000000000E+00 -0.74505805969E-08  0.93827000000E+00  0.93827000000E+00 0.  1.
     999902    2    1    2    0    0 -0.12899572383E-01 -0.19343032775E-01 -0.30836490381E-02  0.10204766255E+01  0.10202070782E+01 0.  0.
     999903    2    3    3    0    0 -0.12823116323E+00 -0.28096924720E-01 -0.55928056392E-02  0.13290448626E+00  0.19991362912E-01 0.  0.
         14    1    1    2    0    0  0.12899572383E-01  0.19343032775E-01  0.30836490381E-02  0.23453374512E-01  0.00000000000E+00 0.  1.
     999901    1    3    3    0    0  0.11533159084E+00  0.87538919449E-02  0.25091566012E-02  0.88757213923E+00  0.88000000000E+00 0. -1.
        -11    1    4    4    0    0 -0.47657971276E-01 -0.16457806347E-01 -0.98778329500E-02  0.51380680423E-01  0.51100000000E-03 0.  1.
         11    1    4    4    0    0 -0.80573191952E-01 -0.11639118373E-01  0.42850273107E-02  0.81523805835E-01  0.51100000000E-03 0. -1.
</event>
<event>
 8    1  0.5489035E+004  0.1043930E+01  0.7957747E-01            NaN
         13   -1    0    0    0    0  0.00000000000E+00  0.00000000000E+00  0.74505805969E-08  0.10566000000E+00  0.10566000000E+00 0. -1.
     999900   -1    0    0    0    0 -0.00000000000E+00 -0.00000000000E+00 -0.74505805969E-08  0.93827000000E+00  0.93827000000E+00 0. -1.
     999902    2    1    2    0    0 -0.12993549022E-02  0.20732365161E-01  0.10838057987E-01  0.10204996182E+01  0.10202306053E+01 0.  0.
     999903    2    3    3    0    0 -0.11489795758E+00  0.45458460699E-01 -0.40021480002E-01  0.13139742224E+00  0.19888474160E-01 0.  0.
         14    1    1    2    0    0  0.12993549022E-02 -0.20732365161E-01 -0.10838057987E-01  0.23430381757E-01  0.00000000000E+00 0.  1.
     999901    1    3    3    0    0  0.11359860268E+00 -0.24726095538E-01  0.50859537989E-01  0.88910219600E+00  0.88000000000E+00 0.  1.
        -11    1    4    4    0    0 -0.21850671923E-01  0.91552316394E-02  0.26685135089E-03  0.23698153103E-01  0.51100000000E-03 0. -1.
         11    1    4    4    0    0 -0.93047285659E-01  0.36303229060E-01 -0.40288331353E-01  0.10769926914E+00  0.51100000000E-03 0.  1.
</event>
<event>
 8    1  0.5489035E+004  0.1043930E+01  0.7957747E-01            NaN
         13   -1    0    0    0    0  0.00000000000E+00  0.00000000000E+00  0.74505805969E-08  0.10566000000E+00  0.10566000000E+00 0.  1.
     999900   -1    0    0    0    0 -0.00000000000E+00 -0.00000000000E+00 -0.74505805969E-08  0.93827000000E+00  0.93827000000E+00 0. -1.
     999902    2    1    2    0    0  0.10294232940E-01 -0.10487288538E-01 -0.19153598093E-01  0.10197884430E+01  0.10195026502E+01 0.  0.
     999903    2    3    3    0    0 -0.85699672018E-01 -0.21769488244E-01 -0.95033401663E-01  0.13125039523E+00  0.19415828924E-01 0.  0.
         14    1    1    2    0    0 -0.10294232940E-01  0.10487288538E-01  0.19153598093E-01  0.24141556963E-01  0.00000000000E+00 0.  1.
     999901    1    3    3    0    0  0.95993904958E-01  0.11282199707E-01  0.75879803571E-01  0.88853804781E+00  0.88000000000E+00 0. -1.
        -11    1    4    4    0    0 -0.57233427969E-01 -0.18104182086E-01 -0.51444838369E-01  0.79058580824E-01  0.51100000000E-03 0.  1.
         11    1    4    4    0    0 -0.28466244049E-01 -0.36653061586E-02 -0.43588563294E-01  0.52191814401E-01  0.51100000000E-03 0. -1.
</event>
<event>
 8    1  0.5489035E+004  0.1043930E+01  0.7957747E-01            NaN
         13   -1    0    0    0    0  0.00000000000E+00  0.00000000000E+00  0.74505805969E-08  0.10566000000E+00  0.10566000000E+00 0. -1.
     999900   -1    0    0    0    0 -0.00000000000E+00 -0.00000000000E+00 -0.74505805969E-08  0.93827000000E+00  0.93827000000E+00 0.  1.
     999902    2    1    2    0    0 -0.39825951726E-02  0.18248817347E-01  0.16047244906E-01  0.10193049220E+01  0.10190074237E+01 0.  0.
     999903    2    3    3    0    0 -0.10433289438E+00  0.45878840247E-02 -0.73266925017E-01  0.12900507102E+00  0.19179794544E-01 0.  0.
         14    1    1    2    0    0  0.39825951726E-02 -0.18248817347E-01 -0.16047244906E-01  0.24625078030E-01  0.00000000000E+00 0.  1.
     999901    1    3    3    0    0  0.10035029921E+00  0.13660933322E-01  0.89314169924E-01  0.89029985095E+00  0.88000000000E+00 0. -1.
        -11    1    4    4    0    0 -0.39489166349E-01  0.88548778921E-02 -0.20930438653E-01  0.45564761655E-01  0.51100000000E-03 0. -1.
         11    1    4    4    0    0 -0.64843728029E-01 -0.42669938674E-02 -0.52336486364E-01  0.83440309367E-01  0.51100000000E-03 0.  1.
</event>
<event>
 8    1  0.5489035E+004  0.1043930E+01  0.7957747E-01            NaN
         13   -1    0    0    0    0  0.00000000000E+00  0.00000000000E+00  0.74505805969E-08  0.10566000000E+00  0.10566000000E+00 0.  1.
     999900   -1    0    0    0    0 -0.00000000000E+00 -0.00000000000E+00 -0.74505805969E-08  0.93827000000E+00  0.93827000000E+00 0. -1.
     999902    2    1    2    0    0 -0.94505122369E-02 -0.19515667992E-01 -0.95418376336E-02  0.10202399146E+01  0.10199648343E+01 0.  0.
     999903    2    3    3    0    0 -0.15794621870E-01  0.63669474386E-01 -0.11058513929E+00  0.13053784965E+00  0.22534087795E-01 0.  0.
         14    1    1    2    0    0  0.94505122369E-02  0.19515667992E-01  0.95418376336E-02  0.23690085355E-01  0.00000000000E+00 0.  1.
     999901    1    3    3    0    0  0.63441096336E-02 -0.83185142378E-01  0.10104330165E+00  0.88970206499E+00  0.88000000000E+00 0.  1.
        -11    1    4    4    0    0 -0.12930595639E-01  0.28788110206E-01 -0.70984566437E-01  0.77685425828E-01  0.51100000000E-03 0.  1.
         11    1    4    4    0    0 -0.28640262315E-02  0.34881364180E-01 -0.39600572849E-01  0.52852423826E-01  0.51100000000E-03 0. -1.
</event>
<event>
 8    1  0.5489035E+004  0.1043930E+01  0.7957747E-01            NaN
         13   -1    0    0    0    0  0.00000000000E+00  0.00000000000E+00  0.74505805969E-08  0.10566000000E+00  0.10566000000E+00 0. -1.
     999900   -1    0    0    0    0 -0.00000000000E+00 -0.00000000000E+00 -0.74505805969E-08  0.93827000000E+00  0.93827000000E+00 0.  1.
     999902    2    1    2    0    0  0.17194025121E-01  0.29024572061E-01 -0.35183625517E-02  0.10100118757E+01  0.10094421974E+01 0.  0.
     999903    2    3    3    0    0  0.10536556610E+00 -0.55181720417E-01  0.55230344025E-02  0.12156003837E+00  0.24482937594E-01 0.  0.
         14    1    1    2    0    0 -0.17194025121E-01 -0.29024572061E-01  0.35183625517E-02  0.33918124333E-01  0.00000000000E+00 0. -1.
     999901    1    3    3    0    0 -0.88171540977E-01  0.84206292478E-01 -0.90413969542E-02  0.88845183729E+00  0.88000000000E+00 0.  1.
        -11    1    4    4    0    0  0.63997415963E-01 -0.37497086875E-01  0.14758974452E-01  0.75629288123E-01  0.51100000000E-03 0. -1.
         11    1    4    4    0    0  0.41368150135E-01 -0.17684633541E-01 -0.92359400491E-02  0.45930750251E-01  0.51100000000E-03 0.  1.
</event>
<event>
 8    1  0.5489035E+004  0.1043930E+01  0.7957747E-01            NaN
         13   -1    0    0    0    0  0.00000000000E+00  0.00000000000E+00  0.74505805969E-08  0.10566000000E+00  0.10566000000E+00 0.  1.
     999900   -1    0    0    0    0 -0.00000000000E+00 -0.00000000000E+00 -0.74505805969E-08  0.93827000000E+00  0.93827000000E+00 0. -1.
     999902    2    1    2    0    0 -0.86775181457E-02  0.21428144916E-01  0.13816496154E-02  0.10207702575E+01  0.10205074938E+01 0.  0.
     999903    2    3    3    0    0  0.17053652372E-03 -0.16604206530E-01  0.12820950861E+00  0.13082079062E+00  0.20016803037E-01 0.  0.
         14    1    1    2    0    0  0.86775181457E-02 -0.21428144916E-01 -0.13816496154E-02  0.23159742472E-01  0.00000000000E+00 0. -1.
     999901    1    3    3    0    0 -0.88480546694E-02  0.38032351446E-01 -0.12682785900E+00  0.88994946691E+00  0.88000000000E+00 0. -1.
        -11    1    4    4    0    0  0.38352391738E-02 -0.92175059655E-02  0.20629073556E-01  0.22923596414E-01  0.51100000000E-03 0. -1.
         11    1    4    4    0    0 -0.36647026501E-02 -0.73867005647E-02  0.10758043505E+00  0.10789719421E+00  0.51100000000E-03 0.  1.
</event>
<event>
 8    1  0.5489035E+004  0.1043930E+01  0.7957747E-01            NaN
         13   -1    0    0    0    0  0.00000000000E+00  0.00000000000E+00  0.74505805969E-08  0.10566000000E+00  0.10566000000E+00 0. -1.
     999900   -1    0    0    0    0 -0.00000000000E+00 -0.00000000000E+00 -0.74505805969E-08  0.93827000000E+00  0.93827000000E+00 0.  1.
     999902    2    1    2    0    0  0.16159262870E-01 -0.33826266377E-02  0.17105903049E-01  0.10201565724E+01  0.10198795303E+01 0.  0.
     999903    2    3    3    0    0 -0.94543265277E-01 -0.78614513864E-01  0.36454446281E-01  0.12982559312E+00  0.20176401444E-01 0.  0.
         14    1    1    2    0    0 -0.16159262870E-01  0.33826266377E-02 -0.17105903049E-01  0.23773427573E-01  0.00000000000E+00 0.  1.
     999901    1    3    3    0    0  0.11070252815E+00  0.75231887226E-01 -0.19348543233E-01  0.89033097931E+00  0.88000000000E+00 0.  1.
        -11    1    4    4    0    0 -0.36413488148E-01 -0.42801569788E-01  0.13549835334E-01  0.57808093326E-01  0.51100000000E-03 0. -1.
         11    1    4    4    0    0 -0.58129777129E-01 -0.35812944075E-01  0.22904610948E-01  0.72017499791E-01  0.51100000000E-03 0.  1.
</event>
<event>
 8    1  0.5489035E+004  0.1043930E+01  0.7957747E-01            NaN
         13   -1    0    0    0    0  0.00000000000E+00  0.00000000000E+00  0.74505805969E-08  0.10566000000E+00  0.10566000000E+00 0.  1.
     999900   -1    0    0    0    0 -0.00000000000E+00 -0.00000000000E+00 -0.74505805969E-08  0.93827000000E+00  0.93827000000E+00 0. -1.
     999902    2    1    2    0    0 -0.61619289963E-02 -0.19791659097E-01  0.11403221539E-01  0.10202717541E+01  0.10199974214E+01 0.  0.
     999903    2    3    3    0    0  0.19011358093E-01  0.31870230248E-01  0.12425437046E+00  0.13120593705E+00  0.19967624429E-01 0.  0.
         14    1    1    2    0    0  0.61619289963E-02  0.19791659097E-01 -0.11403221539E-01  0.23658245925E-01  0.00000000000E+00 0.  1.
     999901    1    3    3    0    0 -0.25173287089E-01 -0.51661889345E-01 -0.11285114892E+00  0.88906581703E+00  0.88000000000E+00 0. -1.
        -11    1    4    4    0    0  0.45360253670E-02  0.21052328829E-01  0.44652862735E-01  0.49577367282E-01  0.51100000000E-03 0.  1.
         11    1    4    4    0    0  0.14475332726E-01  0.10817901418E-01  0.79601507726E-01  0.81628569765E-01  0.51100000000E-03 0. -1.
</event>
<event>
 8    1  0.5489035E+004  0.1043930E+01  0.7957747E-01            NaN
         13   -1    0    0    0    0  0.00000000000E+00  0.00000000000E+00  0.74505805969E-08  0.10566000000E+00  0.10566000000E+00 0.  1.
     999900   -1    0    0    0    0 -0.00000000000E+00 -0.00000000000E+00 -0.74505805969E-08  0.93827000000E+00  0.93827000000E+00 0.  1.
     999902    2    1    2    0    0  0.21555391364E-01 -0.13341179881E-02 -0.72049379403E-02  0.10211632282E+01  0.10209094048E+01 0.  0.
     999903    2    3    3    0    0 -0.12330294417E-01  0.98263549361E-01 -0.85621185125E-01  0.13143459380E+00  0.11674922336E-01 0.  0.
         14    1    1    2    0    0 -0.21555391364E-01  0.13341179881E-02  0.72049379403E-02  0.22766771804E-01  0.00000000000E+00 0.  1.
     999901    1    3    3    0    0  0.33885685781E-01 -0.99597667349E-01  0.78416247185E-01  0.88972863440E+00  0.88000000000E+00 0. -1.
        -11    1    4    4    0    0  0.10532234657E-02  0.26132488723E-01 -0.18945576618E-01  0.32298796276E-01  0.51100000000E-03 0.  1.
         11    1    4    4    0    0 -0.13383517883E-01  0.72131060638E-01 -0.66675608508E-01  0.99135797523E-01  0.51100000000E-03 0. -1.
</event>
<event>
 8    1  0.5489035E+004  0.1043930E+01  0.7957747E-01            NaN
         13   -1    0    0    0    0  0.00000000000E+00  0.00000000000E+00  0.74505805969E-08  0.10566000000E+00  0.10566000000E+00 0. -1.
     999900   -1    0    0    0    0 -0.00000000000E+00 -0.00000000000E+00 -0.74505805969E-08  0.93827000000E+00  0.93827000000E+00 0. -1.
     999902    2    1    2    0    0  0.21057377488E-01 -0.12013327665E-01 -0.22057546356E-02  0.10195866530E+01  0.10192960044E+01 0.  0.
     999903    2    3    3    0    0  0.42614066037E-01  0.11981254494E+00 -0.14919368190E-01  0.12941566525E+00  0.18836727830E-01 0.  0.
         14    1    1    2    0    0 -0.21057377488E-01  0.12013327665E-01  0.22057546356E-02  0.24343346971E-01  0.00000000000E+00 0.  1.
     999901    1    3    3    0    0 -0.21556688550E-01 -0.13182587261E+00  0.12713613554E-01  0.89017098778E+00  0.88000000000E+00 0. -1.
        -11    1    4    4    0    0  0.16060636673E-01  0.70163890531E-01 -0.42324600583E-02  0.72104718458E-01  0.51100000000E-03 0.  1.
         11    1    4    4    0    0  0.26553429364E-01  0.49648654413E-01 -0.10686908132E-01  0.57310946794E-01  0.51100000000E-03 0. -1.
</event>
<event>
 8    1  0.5489035E+004  0.1043930E+01  0.7957747E-01            NaN
         13   -1    0    0    0    0  0.00000000000E+00  0.00000000000E+00  0.74505805969E-08  0.10566000000E+00  0.10566000000E+00 0.  1.
     999900   -1    0    0    0    0 -0.00000000000E+00 -0.00000000000E+00 -0.74505805969E-08  0.93827000000E+00  0.93827000000E+00 0.  1.
     999902    2    1    2    0    0 -0.99695065671E-02 -0.18512344814E-01  0.10829281440E-01  0.10202789681E+01  0.10200048047E+01 0.  0.
     999903    2    3    3    0    0 -0.58126857958E-01  0.23875660117E-01 -0.11163683589E+00  0.12948503947E+00  0.18836495381E-01 0.  0.
         14    1    1    2    0    0  0.99695065671E-02  0.18512344814E-01 -0.10829281440E-01  0.23651031863E-01  0.00000000000E+00 0.  1.
     999901    1    3    3    0    0  0.48157351391E-01 -0.42388004931E-01  0.12246611733E+00  0.89079392867E+00  0.88000000000E+00 0.  1.
        -11    1    4    4    0    0 -0.33187233187E-01  0.42163280031E-02 -0.64240071001E-01  0.72430778759E-01  0.51100000000E-03 0.  1.
         11    1    4    4    0    0 -0.24939624771E-01  0.19659332114E-01 -0.47396764884E-01  0.57054260712E-01  0.51100000000E-03 0. -1.
</event>
<event>
 8    1  0.5489035E+004  0.1043930E+01  0.7957747E-01            NaN
         13   -1    0    0    0    0  0.00000000000E+00  0.00000000000E+00  0.74505805969E-08  0.10566000000E+00  0.10566000000E+00 0. -1.
     999900   -1    0    0    0    0 -0.00000000000E+00 -0.00000000000E+00 -0.74505805969E-08  0.93827000000E+00  0.93827000000E+00 0.  1.
     999902    2    1    2    0    0  0.99246803653E-02  0.11113229126E-01 -0.17083080895E-01  0.10212620756E+01  0.10210104761E+01 0.  0.
     999903    2    3    3    0    0 -0.69784309936E-01 -0.33416843605E-01  0.10148333538E+00  0.12862864271E+00  0.16122190142E-01 0.  0.
         14    1    1    2    0    0 -0.99246803653E-02 -0.11113229126E-01  0.17083080895E-01  0.22667924361E-01  0.00000000000E+00 0. -1.
     999901    1    3    3    0    0  0.79708990301E-01  0.44530072732E-01 -0.11856641628E+00  0.89263343293E+00  0.88000000000E+00 0.  1.
        -11    1    4    4    0    0 -0.66062181729E-01 -0.29616520003E-01  0.99218034114E-01  0.12282438490E+00  0.51100000000E-03 0.  1.
         11    1    4    4    0    0 -0.37221282068E-02 -0.38003236025E-02  0.22653012707E-02  0.58042578094E-02  0.51100000000E-03 0. -1.
</event>
<event>
 8    1  0.5489035E+004  0.1043930E+01  0.7957747E-01            NaN
         13   -1    0    0    0    0  0.00000000000E+00  0.00000000000E+00  0.74505805969E-08  0.10566000000E+00  0.10566000000E+00 0. -1.
     999900   -1    0    0    0    0 -0.00000000000E+00 -0.00000000000E+00 -0.74505805969E-08  0.93827000000E+00  0.93827000000E+00 0.  1.
     999902    2    1    2    0    0  0.16760438154E-01 -0.13444270631E-01 -0.70067688047E-02  0.10213300994E+01  0.10210800245E+01 0.  0.
     999903    2    3    3    0    0 -0.94899581950E-01 -0.27387661995E-01 -0.83558570170E-01  0.13086810885E+00  0.19708185627E-01 0.  0.
         14    1    1    2    0    0 -0.16760438154E-01  0.13444270631E-01  0.70067688047E-02  0.22599900642E-01  0.00000000000E+00 0. -1.
     999901    1    3    3    0    0  0.11166002010E+00  0.13943391364E-01  0.76551801365E-01  0.89046199051E+00  0.88000000000E+00 0. -1.
        -11    1    4    4    0    0 -0.45226331209E-02 -0.64920637285E-02 -0.74382453647E-02  0.10871509413E-01  0.51100000000E-03 0. -1.
         11    1    4    4    0    0 -0.90376948829E-01 -0.20895598266E-01 -0.76120324805E-01  0.11999659943E+00  0.51100000000E-03 0.  1.
</event>
<event>
 8    1  0.5489035E+004  0.1043930E+01  0.7957747E-01            NaN
         13   -1    0    0    0    0  0.00000000000E+00  0.00000000000E+00  0.74505805969E-08  0.10566000000E+00  0.10566000000E+00 0.  1.
     999900   -1    0    0    0    0 -0.00000000000E+00 -0.00000000000E+00 -0.74505805969E-08  0.93827000000E+00  0.93827000000E+00 0.  1.
     999902    2    1    2    0    0 -0.96866947442E-02  0.13286921040E-01  0.16467297622E-01  0.10206588544E+01  0.10203935275E+01 0.  0.
     999903    2    3    3    0    0 -0.89017374608E-01 -0.68724223533E-01  0.65957256941E-01  0.13191342367E+00  0.20091782364E-01 0.  0.
         14    1    1    2    0    0  0.96866947442E-02 -0.13286921040E-01 -0.16467297622E-01  0.23271145584E-01  0.00000000000E+00 0. -1.
     999901    1    3    3    0    0  0.79330679864E-01  0.82011144573E-01 -0.49489959318E-01  0.88874543075E+00  0.88000000000E+00 0.  1.
        -11    1    4    4    0    0 -0.28665822870E-01 -0.32796633842E-01  0.19680256870E-01  0.47800860072E-01  0.51100000000E-03 0. -1.
         11    1    4    4    0    0 -0.60351551738E-01 -0.35927589690E-01  0.46277000071E-01  0.84112563596E-01  0.51100000000E-03 0.  1.
</event>
<event>
 8    1  0.5489035E+004  0.1043930E+01  0.7957747E-01            NaN
         13   -1    0    0    0    0  0.00000000000E+00  0.00000000000E+00  0.74505805969E-08  0.10566000000E+00  0.10566000000E+00 0. -1.
     999900   -1    0    0    0    0 -0.00000000000E+00 -0.00000000000E+00 -0.74505805969E-08  0.93827000000E+00  0.93827000000E+00 0. -1.
     999902    2    1    2    0    0 -0.88773685229E-02  0.26409423457E-02 -0.21384868792E-01  0.10206256042E+01  0.10203595098E+01 0.  0.
     999903    2    3    3    0    0  0.21156789028E-01  0.62046589915E-01  0.10803248379E+00  0.12867272840E+00  0.24254163287E-01 0.  0.
         14    1    1    2    0    0  0.88773685229E-02 -0.26409423457E-02  0.21384868792E-01  0.23304395757E-01  0.00000000000E+00 0.  1.
     999901    1    3    3    0    0 -0.30034157551E-01 -0.59405647569E-01 -0.12941735258E+00  0.89195287585E+00  0.88000000000E+00 0. -1.
        -11    1    4    4    0    0  0.18631886821E-02  0.34202719448E-01  0.68652426501E-01  0.76724926036E-01  0.51100000000E-03 0.  1.
         11    1    4    4    0    0  0.19293600346E-01  0.27843870467E-01  0.39380057289E-01  0.51947802359E-01  0.51100000000E-03 0. -1.
</event>
<event>
 8    1  0.5489035E+004  0.1043930E+01  0.7957747E-01            NaN
         13   -1    0    0    0    0  0.00000000000E+00  0.00000000000E+00  0.74505805969E-08  0.10566000000E+00  0.10566000000E+00 0.  1.
     999900   -1    0    0    0    0 -0.00000000000E+00 -0.00000000000E+00 -0.74505805969E-08  0.93827000000E+00  0.93827000000E+00 0. -1.
     999902    2    1    2    0    0 -0.16229058026E-01  0.10345780335E-01  0.96363776357E-02  0.10224061233E+01  0.10221795359E+01 0.  0.
     999903    2    3    3    0    0 -0.38832305291E-01 -0.10556173211E+00  0.67239282649E-01  0.13265135207E+00  0.20592058015E-01 0.  0.
         14    1    1    2    0    0  0.16229058026E-01 -0.10345780335E-01 -0.96363776357E-02  0.21523876721E-01  0.00000000000E+00 0.  1.
     999901    1    3    3    0    0  0.22603247264E-01  0.11590751245E+00 -0.57602905013E-01  0.88975477121E+00  0.88000000000E+00 0. -1.
        -11    1    4    4    0    0 -0.34409998909E-01 -0.88604224372E-01  0.47533480884E-01  0.10627534769E+00  0.51100000000E-03 0.  1.
         11    1    4    4    0    0 -0.44223063819E-02 -0.16957507740E-01  0.19705801765E-01  0.26376004373E-01  0.51100000000E-03 0. -1.
</event>
<event>
 8    1  0.5489035E+004  0.1043930E+01  0.7957747E-01            NaN
         13   -1    0    0    0    0  0.00000000000E+00  0.00000000000E+00  0.74505805969E-08  0.10566000000E+00  0.10566000000E+00 0.  1.
     999900   -1    0    0    0    0 -0.00000000000E+00 -0.00000000000E+00 -0.74505805969E-08  0.93827000000E+00  0.93827000000E+00 0. -1.
     999902    2    1    2    0    0 -0.43624487845E-02 -0.16627112309E-01  0.16122651321E-01  0.10203624013E+01  0.10200901912E+01 0.  0.
     999903    2    3    3    0    0 -0.19517822403E-01  0.72579121220E-01 -0.10149481467E+00  0.12793800351E+00  0.20451432956E-01 0.  0.
         14    1    1    2    0    0  0.43624487845E-02  0.16627112309E-01 -0.16122651321E-01  0.23567598706E-01  0.00000000000E+00 0.  1.
     999901    1    3    3    0    0  0.15155373619E-01 -0.89206233529E-01  0.11761746599E+00  0.89242439778E+00  0.88000000000E+00 0.  1.
        -11    1    4    4    0    0 -0.79761045303E-03  0.41964712034E-01 -0.56394813654E-01  0.70301560200E-01  0.51100000000E-03 0. -1.
         11    1    4    4    0    0 -0.18720211950E-01  0.30614409186E-01 -0.45100001014E-01  0.57636443312E-01  0.51100000000E-03 0.  1.
</event>
<event>
 7    1  0.5489035E+004  0.1043930E+01  0.7957747E-01            NaN
         13   -1    0    0    0    0  0.00000000000E+00  0.00000000000E+00  0.74505805969E-08  0.10566000000E+00  0.10566000000E+00 0.  1.
     999900   -1    0    0    0    0 -0.00000000000E+00 -0.00000000000E+00 -0.74505805969E-08  0.93827000000E+00  0.93827000000E+00 0.  1.
     999903    2    1    2    0    0 -0.77290208814E-01 -0.53900040708E-01 -0.31591492944E-01  0.10151620828E+00  0.20700902153E-01 0.  0.
         14    1    1    2    0    0  0.50981585386E-01 -0.32869302941E-02 -0.27812635027E-01  0.58167590860E-01  0.00000000000E+00 0. -1.
     999901    1    1    2    0    0  0.26308623427E-01  0.57186971002E-01  0.59404127972E-01  0.88424620086E+00  0.88000000000E+00 0. -1.
        -11    1    3    3    0    0 -0.60890398903E-01 -0.48714803628E-01 -0.32030648819E-01  0.84303003243E-01  0.51100000000E-03 0. -1.
         11    1    3    3    0    0 -0.16399809911E-01 -0.51852370801E-02  0.43915587532E-03  0.17213205035E-01  0.51100000000E-03 0.  1.
</event>
<event>
 8    1  0.5489035E+004  0.1043930E+01  0.7957747E-01            NaN
         13   -1    0    0    0    0  0.00000000000E+00  0.00000000000E+00  0.74505805969E-08  0.10566000000E+00  0.10566000000E+00 0. -1.
     999900   -1    0    0    0    0 -0.00000000000E+00 -0.00000000000E+00 -0.74505805969E-08  0.93827000000E+00  0.93827000000E+00 0.  1.
     999902    2    1    2    0    0  0.54197129322E-02  0.22668247481E-01  0.56385599117E-02  0.10199505069E+01  0.10196685836E+01 0.  0.
     999903    2    3    3    0    0  0.27218097953E-01 -0.79201166752E-01 -0.94964634255E-01  0.12811333014E+00  0.19521627238E-01 0.  0.
         14    1    1    2    0    0 -0.54197129322E-02 -0.22668247481E-01 -0.56385599117E-02  0.23979493114E-01  0.00000000000E+00 0.  1.
     999901    1    3    3    0    0 -0.21798385020E-01  0.10186941423E+00  0.10060319417E+00  0.89183717674E+00  0.88000000000E+00 0. -1.
        -11    1    4    4    0    0  0.20273648762E-03 -0.28610266842E-01 -0.30230050966E-01  0.41625780152E-01  0.51100000000E-03 0. -1.
         11    1    4    4    0    0  0.27015361465E-01 -0.50590899910E-01 -0.64734583289E-01  0.86487549991E-01  0.51100000000E-03 0.  1.
</event>
<event>
 8    1  0.5489035E+004  0.1043930E+01  0.7957747E-01            NaN
         13   -1    0    0    0    0  0.00000000000E+00  0.00000000000E+00  0.74505805969E-08  0.10566000000E+00  0.10566000000E+00 0.  1.
     999900   -1    0    0    0    0 -0.00000000000E+00 -0.00000000000E+00 -0.74505805969E-08  0.93827000000E+00  0.93827000000E+00 0. -1.
     999902    2    1    2    0    0  0.12686239664E-01 -0.10188528643E-01  0.17079563082E-01  0.10203406323E+01  0.10200679133E+01 0.  0.
     999903    2    3    3    0    0 -0.68982959047E-02  0.12696159440E+00  0.13383755607E-01  0.12949419814E+00  0.20561845697E-01 0.  0.
         14    1    1    2    0    0 -0.12686239664E-01  0.10188528643E-01 -0.17079563082E-01  0.23589367686E-01  0.00000000000E+00 0. -1.
     999901    1    3    3    0    0  0.19584535569E-01 -0.13715012305E+00  0.36958074747E-02  0.89084643417E+00  0.88000000000E+00 0.  1.
        -11    1    4    4    0    0 -0.11535445679E-01  0.10850935080E+00  0.15977288590E-01  0.11028545049E+00  0.51100000000E-03 0.  1.
         11    1    4    4    0    0  0.46371497745E-02  0.18452243599E-01 -0.25935329829E-02  0.19208747648E-01  0.51100000000E-03 0. -1.
</event>
<event>
 8    1  0.5489035E+004  0.1043930E+01  0.7957747E-01            NaN
         13   -1    0    0    0    0  0.00000000000E+00  0.00000000000E+00  0.74505805969E-08  0.10566000000E+00  0.10566000000E+00 0. -1.
     999900   -1    0    0    0    0 -0.00000000000E+00 -0.00000000000E+00 -0.74505805969E-08  0.93827000000E+00  0.93827000000E+00 0. -1.
     999902    2    1    2    0    0  0.15227095529E-01 -0.11874546725E-01 -0.13708607530E-01  0.10202488848E+01  0.10199740152E+01 0.  0.
     999903    2    3    3    0    0  0.78516381260E-02  0.12498128299E+00  0.22928827844E-01  0.12888688358E+00  0.20102942381E-01 0.  0.
         14    1    1    2    0    0 -0.15227095529E-01  0.11874546725E-01  0.13708607530E-01  0.23681115231E-01  0.00000000000E+00 0. -1.
     999901    1    3    3    0    0  0.73754574031E-02 -0.13685582972E+00 -0.36637435375E-01  0.89136200119E+00  0.88000000000E+00 0. -1.
        -11    1    4    4    0    0  0.11257066439E-01  0.38681878018E-01  0.41695271737E-02  0.40505003514E-01  0.51100000000E-03 0. -1.
         11    1    4    4    0    0 -0.34054283135E-02  0.86299404973E-01  0.18759300671E-01  0.88381880062E-01  0.51100000000E-03 0.  1.
</event>
<event>
 8    1  0.5489035E+004  0.1043930E+01  0.7957747E-01            NaN
         13   -1    0    0    0    0  0.00000000000E+00  0.00000000000E+00  0.74505805969E-08  0.10566000000E+00  0.10566000000E+00 0.  1.
     999900   -1    0    0    0    0 -0.00000000000E+00 -0.00000000000E+00 -0.74505805969E-08  0.93827000000E+00  0.93827000000E+00 0. -1.
     999902    2    1    2    0    0 -0.17875443778E-01  0.14053485237E-01 -0.55162566883E-02  0.10205321149E+01  0.10202638564E+01 0.  0.
     999903    2    3    3    0    0 -0.56797202819E-01 -0.34926698770E-01 -0.11223267765E+00  0.13188012667E+00  0.18718903341E-01 0.  0.
         14    1    1    2    0    0  0.17875443778E-01 -0.14053485237E-01  0.55162566883E-02  0.23397885063E-01  0.00000000000E+00 0. -1.
     999901    1    3    3    0    0  0.38921759041E-01  0.48980184007E-01  0.10671642096E+00  0.88865198827E+00  0.88000000000E+00 0.  1.
        -11    1    4    4    0    0 -0.27517539859E-01 -0.26534356343E-01 -0.70685309294E-01  0.80361440613E-01  0.51100000000E-03 0.  1.
         11    1    4    4    0    0 -0.29279662960E-01 -0.83923424278E-02 -0.41547368356E-01  0.51518686055E-01  0.51100000000E-03 0. -1.
</event>
<event>
 8    1  0.5489035E+004  0.1043930E+01  0.7957747E-01            NaN
         13   -1    0    0    0    0  0.00000000000E+00  0.00000000000E+00  0.74505805969E-08  0.10566000000E+00  0.10566000000E+00 0. -1.
     999900   -1    0    0    0    0 -0.00000000000E+00 -0.00000000000E+00 -0.74505805969E-08  0.93827000000E+00  0.93827000000E+00 0.  1.
     999902    2    1    2    0    0 -0.10700132443E-01 -0.14514125513E-01  0.14988187732E-01  0.10204822188E+01  0.10202128015E+01 0.  0.
     999903    2    3    3    0    0 -0.10428164048E+00 -0.77547634225E-01 -0.19653323490E-01  0.13260229660E+00  0.17573270163E-01 0.  0.
         14    1    1    2    0    0  0.10700132443E-01  0.14514125513E-01 -0.14988187732E-01  0.23447781243E-01  0.00000000000E+00 0.  1.
     999901    1    3    3    0    0  0.93581508039E-01  0.63033508712E-01  0.34641511222E-01  0.88787992216E+00  0.88000000000E+00 0.  1.
        -11    1    4    4    0    0 -0.55421467193E-01 -0.31222288348E-01 -0.59586503877E-02  0.63891603133E-01  0.51100000000E-03 0.  1.
         11    1    4    4    0    0 -0.48860173290E-01 -0.46325345878E-01 -0.13694673102E-01  0.68710693469E-01  0.51100000000E-03 0. -1.
</event>
<event>
 8    1  0.5489035E+004  0.1043930E+01  0.7957747E-01            NaN
         13   -1    0    0    0    0  0.00000000000E+00  0.00000000000E+00  0.74505805969E-08  0.10566000000E+00  0.10566000000E+00 0. -1.
     999900   -1    0    0    0    0 -0.00000000000E+00 -0.00000000000E+00 -0.74505805969E-08  0.93827000000E+00  0.93827000000E+00 0. -1.
     999902    2    1    2    0    0  0.11170319338E-01  0.14006991982E-01 -0.15510152365E-01  0.10202332347E+01  0.10199579974E+01 0.  0.
     999903    2    3    3    0    0 -0.39189838335E-01  0.12398548277E+00 -0.91450929498E-02  0.13193602775E+00  0.20377422018E-01 0.  0.
         14    1    1    2    0    0 -0.11170319338E-01 -0.14006991982E-01  0.15510152365E-01  0.23696765283E-01  0.00000000000E+00 0. -1.
     999901    1    3    3    0    0  0.50360157673E-01 -0.10997849079E+00 -0.63650594155E-02  0.88829720696E+00  0.88000000000E+00 0. -1.
        -11    1    4    4    0    0 -0.17143625272E-01  0.60140745465E-01  0.56351635554E-02  0.62791952843E-01  0.51100000000E-03 0.  1.
         11    1    4    4    0    0 -0.22046213063E-01  0.63844737304E-01 -0.14780256505E-01  0.69144074911E-01  0.51100000000E-03 0. -1.
</event>
<event>
 8    1  0.5489035E+004  0.1043930E+01  0.7957747E-01            NaN
         13   -1    0    0    0    0  0.00000000000E+00  0.00000000000E+00  0.74505805969E-08  0.10566000000E+00  0.10566000000E+00 0. -1.
     999900   -1    0    0    0    0 -0.00000000000E+00 -0.00000000000E+00 -0.74505805969E-08  0.93827000000E+00  0.93827000000E+00 0.  1.
     999902    2    1    2    0    0  0.22947209641E-01 -0.62640547570E-02 -0.34669296219E-02  0.10198918550E+01  0.10196085345E+01 0.  0.
     999903    2    3    3    0    0 -0.14639903947E-01  0.96612167859E-01 -0.82539492618E-01  0.12958360588E+00  0.20758258753E-01 0.  0.
         14    1    1    2    0    0 -0.22947209641E-01  0.62640547570E-02  0.34669296219E-02  0.24038144964E-01  0.00000000000E+00 0.  1.
     999901    1    3    3    0    0  0.37587113588E-01 -0.10287622262E+00  0.79072562997E-01  0.89030824915E+00  0.88000000000E+00 0. -1.
        -11    1    4    4    0    0 -0.14593489228E-01  0.67090805120E-01 -0.46183992214E-01  0.82748826682E-01  0.51100000000E-03 0.  1.
         11    1    4    4    0    0 -0.46414718777E-04  0.29521362739E-01 -0.36355500405E-01  0.46834779203E-01  0.51100000000E-03 0. -1.
</event>
<event>
 8    1  0.5489035E+004  0.1043930E+01  0.7957747E-01            NaN
         13   -1    0    0    0    0  0.00000000000E+00  0.00000000000E+00  0.74505805969E-08  0.10566000000E+00  0.10566000000E+00 0.  1.
     999900   -1    0    0    0    0 -0.00000000000E+00 -0.00000000000E+00 -0.74505805969E-08  0.93827000000E+00  0.93827000000E+00 0. -1.
     999902    2    1    2    0    0  0.13012095856E-01  0.19890069520E-01 -0.26374528935E-03  0.10201602910E+01  0.10198833366E+01 0.  0.
     999903    2    3    3    0    0  0.57152426367E-01 -0.80763235546E-01 -0.81507733383E-01  0.12960987570E+00  0.19133980834E-01 0.  0.
         14    1    1    2    0    0 -0.13012095856E-01 -0.19890069520E-01  0.26374528935E-03  0.23769708994E-01  0.00000000000E+00 0.  1.
     999901    1    3    3    0    0 -0.44140330512E-01  0.10065330507E+00  0.81243988093E-01  0.89055041530E+00  0.88000000000E+00 0. -1.
        -11    1    4    4    0    0  0.58118153457E-01 -0.75754249411E-01 -0.75593328364E-01  0.12178275116E+00  0.51100000000E-03 0. -1.
         11    1    4    4    0    0 -0.96572708983E-03 -0.50089861349E-02 -0.59144050189E-02  0.78271245448E-02  0.51100000000E-03 0.  1.
</event>
<event>
 8    1  0.5489035E+004  0.1043930E+01  0.7957747E-01            NaN
         13   -1    0    0    0    0  0.00000000000E+00  0.00000000000E+00  0.74505805969E-08  0.10566000000E+00  0.10566000000E+00 0.  1.
     999900   -1    0    0    0    0 -0.00000000000E+00 -0.00000000000E+00 -0.74505805969E-08  0.93827000000E+00  0.93827000000E+00 0.  1.
     999902    2    1    2    0    0 -0.75948826698E-02 -0.23173091681E-01 -0.22469197014E-02  0.10194407561E+01  0.10191465704E+01 0.  0.
     999903    2    3    3    0    0  0.90461977404E-01  0.86221154386E-01 -0.96038668411E-02  0.12723205090E+00  0.21870155436E-01 0.  0.
         14    1    1    2    0    0  0.75948826698E-02  0.23173091681E-01  0.22469197014E-02  0.24489243945E-01  0.00000000000E+00 0.  1.
     999901    1    3    3    0    0 -0.98056860074E-01 -0.10939424607E+00  0.73569471397E-02  0.89220870515E+00  0.88000000000E+00 0.  1.
        -11    1    4    4    0    0  0.71597040087E-02  0.60781845745E-02  0.51087732154E-02  0.10703568283E-01  0.51100000000E-03 0. -1.
         11    1    4    4    0    0  0.83302273395E-01  0.80142969812E-01 -0.14712640056E-01  0.11652848262E+00  0.51100000000E-03 0.  1.
</event>
<event>
 8    1  0.5489035E+004  0.1043930E+01  0.7957747E-01            NaN
         13   -1    0    0    0    0  0.00000000000E+00  0.00000000000E+00  0.74505805969E-08  0.10566000000E+00  0.10566000000E+00 0. -1.
     999900   -1    0    0    0    0 -0.00000000000E+00 -0.00000000000E+00 -0.74505805969E-08  0.93827000000E+00  0.93827000000E+00 0. -1.
     999902    2    1    2    0    0 -0.23612495941E-02  0.24638245759E-01 -0.84248569055E-02  0.10177843146E+01  0.10174484331E+01 0.  0.
     999903    2    3    3    0    0 -0.11201750109E+00 -0.50929028950E-01  0.24115365698E-01  0.12717004755E+00  0.21189232908E-01 0.  0.
         14    1    1    2    0    0  0.23612495941E-02 -0.24638245759E-01  0.84248569055E-02  0.26145685449E-01  0.00000000000E+00 0. -1.
     999901    1    3    3    0    0  0.10965625149E+00  0.75567274709E-01 -0.32540222603E-01  0.89061426700E+00  0.88000000000E+00 0. -1.
        -11    1    4    4    0    0 -0.30522660753E-01 -0.19444835141E-01 -0.11868594704E-02  0.36213315085E-01  0.51100000000E-03 0. -1.
         11    1    4    4    0    0 -0.81494840336E-01 -0.31484193810E-01  0.25302225168E-01  0.90956732465E-01  0.51100000000E-03 0.  1.
</event>
<event>
 8    1  0.5489035E+004  0.1043930E+01  0.7957747E-01            NaN
         13   -1    0    0    0    0  0.00000000000E+00  0.00000000000E+00  0.74505805969E-08  0.10566000000E+00  0.10566000000E+00 0.  1.
     999900   -1    0    0    0    0 -0.00000000000E+00 -0.00000000000E+00 -0.74505805969E-08  0.93827000000E+00  0.93827000000E+00 0.  1.
     999902    2    1    2    0    0  0.19986823506E-03 -0.24636362159E-01 -0.14479318235E-01  0.10153530697E+01  0.10149508438E+01 0.  0.
     999903    2    3    3    0    0 -0.26066262042E-01 -0.12160095567E+00 -0.29892616497E-01  0.12950341444E+00  0.20281109277E-01 0.  0.
         14    1    1    2    0    0 -0.19986823506E-03  0.24636362159E-01  0.14479318235E-01  0.28576930281E-01  0.00000000000E+00 0.  1.
     999901    1    3    3    0    0  0.26266130277E-01  0.96964593512E-01  0.15413298262E-01  0.88584965528E+00  0.88000000000E+00 0. -1.
        -11    1    4    4    0    0  0.47786577261E-03 -0.34685723848E-01 -0.13109672187E-01  0.37087092369E-01  0.51100000000E-03 0.  1.
         11    1    4    4    0    0 -0.26544127815E-01 -0.86915231823E-01 -0.16782944310E-01  0.92416322070E-01  0.51100000000E-03 0. -1.
</event>
<event>
 8    1  0.5489035E+004  0.1043930E+01  0.7957747E-01            NaN
         13   -1    0    0    0    0  0.00000000000E+00  0.00000000000E+00  0.74505805969E-08  0.10566000000E+00  0.10566000000E+00 0. -1.
     999900   -1    0    0    0    0 -0.00000000000E+00 -0.00000000000E+00 -0.74505805969E-08  0.93827000000E+00  0.93827000000E+00 0. -1.
     999902    2    1    2    0    0  0.86233691807E-02  0.11252966049E-01  0.23620938377E-01  0.10163811258E+01  0.10160077029E+01 0.  0.
     999903    2    3    3    0    0  0.28051260513E-01 -0.93295648457E-01 -0.75012578643E-01  0.12450869856E+00  0.19610655903E-01 0.  0.
         14    1    1    2    0    0 -0.86233691807E-02 -0.11252966049E-01 -0.23620938377E-01  0.27548874219E-01  0.00000000000E+00 0.  1.
     999901    1    3    3    0    0 -0.19427891333E-01  0.10454861451E+00  0.98633517021E-01  0.89187242722E+00  0.88000000000E+00 0.  1.
        -11    1    4    4    0    0  0.82584166647E-02 -0.42431641105E-01 -0.22363320673E-01  0.48672629323E-01  0.51100000000E-03 0.  1.
         11    1    4    4    0    0  0.19792843849E-01 -0.50864007352E-01 -0.52649257970E-01  0.75836069237E-01  0.51100000000E-03 0. -1.
</event>
<event>
 8    1  0.5489035E+004  0.1043930E+01  0.7957747E-01            NaN
         13   -1    0    0    0    0  0.00000000000E+00  0.00000000000E+00  0.74505805969E-08  0.10566000000E+00  0.10566000000E+00 0. -1.
     999900   -1    0    0    0    0 -0.00000000000E+00 -0.00000000000E+00 -0.74505805969E-08  0.93827000000E+00  0.93827000000E+00 0.  1.
     999902    2    1    2    0    0  0.23023562316E-01 -0.84990719213E-04 -0.70762678508E-02  0.10198433811E+01  0.10195589030E+01 0.  0.
     999903    2    3    3    0    0 -0.68359894818E-01 -0.83243384388E-01  0.66482432645E-01  0.12817240077E+00  0.20142348551E-01 0.  0.
         14    1    1    2    0    0 -0.23023562316E-01  0.84990719213E-04  0.70762678508E-02  0.24086618937E-01  0.00000000000E+00 0. -1.
     999901    1    3    3    0    0  0.91383457134E-01  0.83158393669E-01 -0.73558700496E-01  0.89167098029E+00  0.88000000000E+00 0.  1.
        -11    1    4    4    0    0 -0.10715360228E-01 -0.60074871156E-02  0.26617470796E-02  0.12579938981E-01  0.51100000000E-03 0.  1.
         11    1    4    4    0    0 -0.57644534590E-01 -0.77235897273E-01  0.63820685566E-01  0.11559246179E+00  0.51100000000E-03 0. -1.
</event>
<event>
 8    1  0.5489035E+004  0.1043930E+01  0.7957747E-01            NaN
         13   -1    0    0    0    0  0.00000000000E+00  0.00000000000E+00  0.74505805969E-08  0.10566000000E+00  0.10566000000E+00 0. -1.
     999900   -1    0    0    0    0 -0.00000000000E+00 -0.00000000000E+00 -0.74505805969E-08  0.93827000000E+00  0.93827000000E+00 0.  1.
     999902    2    1    2    0    0 -0.28375033200E-02  0.10418089226E-01 -0.18737563194E-01  0.10223039906E+01  0.10220752247E+01 0.  0.
     999903    2    3    3    0    0 -0.32341738330E-02  0.12472785998E+00 -0.47016428425E-01  0.13446021197E+00  0.17363902889E-01 0.  0.
         14    1    1    2    0    0  0.28375033200E-02 -0.10418089226E-01  0.18737563194E-01  0.21626009402E-01  0.00000000000E+00 0. -1.
     999901    1    3    3    0    0  0.39667051299E-03 -0.11430977076E+00  0.28278865232E-01  0.88784377863E+00  0.88000000000E+00 0. -1.
        -11    1    4    4    0    0 -0.32565764979E-02  0.99078045511E-01 -0.29620376054E-01  0.10346348241E+00  0.51100000000E-03 0. -1.
         11    1    4    4    0    0  0.22402664878E-04  0.25649814472E-01 -0.17396052371E-01  0.30996729560E-01  0.51100000000E-03 0.  1.
</event>
<event>
 8    1  0.5489035E+004  0.1043930E+01  0.7957747E-01            NaN
         13   -1    0    0    0    0  0.00000000000E+00  0.00000000000E+00  0.74505805969E-08  0.10566000000E+00  0.10566000000E+00 0.  1.
     999900   -1    0    0    0    0 -0.00000000000E+00 -0.00000000000E+00 -0.74505805969E-08  0.93827000000E+00  0.93827000000E+00 0.  1.
     999902    2    1    2    0    0 -0.24564146243E-01 -0.27599252234E-03  0.35321136413E-02  0.10191116745E+01  0.10188094306E+01 0.  0.
     999903    2    3    3    0    0 -0.58085803199E-01 -0.52517535114E-01 -0.10255021850E+00  0.13056998082E+00  0.19998013626E-01 0.  0.
         14    1    1    2    0    0  0.24564146243E-01  0.27599252234E-03 -0.35321136413E-02  0.24818325473E-01  0.00000000000E+00 0.  1.
     999901    1    3    3    0    0  0.33521656956E-01  0.52241542591E-01  0.10608233215E+00  0.88854169370E+00  0.88000000000E+00 0. -1.
        -11    1    4    4    0    0 -0.24454584127E-01 -0.35410247659E-01 -0.52389546104E-01  0.67799985148E-01  0.51100000000E-03 0.  1.
         11    1    4    4    0    0 -0.33631219072E-01 -0.17107287455E-01 -0.50160672400E-01  0.62769995674E-01  0.51100000000E-03 0. -1.
</event>
<event>
 8    1  0.5489035E+004  0.1043930E+01  0.7957747E-01            NaN
         13   -1    0    0    0    0  0.00000000000E+00  0.00000000000E+00  0.74505805969E-08  0.10566000000E+00  0.10566000000E+00 0.  1.
     999900   -1    0    0    0    0 -0.00000000000E+00 -0.00000000000E+00 -0.74505805969E-08  0.93827000000E+00  0.93827000000E+00 0.  1.
     999902    2    1    2    0    0  0.14098739452E-02 -0.23914941185E-01 -0.28463858408E-02  0.10198050323E+01  0.10195196368E+01 0.  0.
     999903    2    3    3    0    0 -0.21568381491E-01  0.99179271386E-01  0.74996895874E-01  0.12753838943E+00  0.18433215515E-01 0.  0.
         14    1    1    2    0    0 -0.14098739452E-02  0.23914941185E-01  0.28463858408E-02  0.24124967747E-01  0.00000000000E+00 0.  1.
     999901    1    3    3    0    0  0.22978255437E-01 -0.12309421257E+00 -0.77843281715E-01  0.89226664283E+00  0.88000000000E+00 0.  1.
        -11    1    4    4    0    0 -0.24754820928E-01  0.81902429653E-01  0.61293104547E-01  0.10525167423E+00  0.51100000000E-03 0. -1.
         11    1    4    4    0    0  0.31864394369E-02  0.17276841733E-01  0.13703791327E-01  0.22286715197E-01  0.51100000000E-03 0.  1.
</event>
<event>
 8    1  0.5489035E+004  0.1043930E+01  0.7957747E-01            NaN
         13   -1    0    0    0    0  0.00000000000E+00  0.00000000000E+00  0.74505805969E-08  0.10566000000E+00  0.10566000000E+00 0. -1.
     999900   -1    0    0    0    0 -0.00000000000E+00 -0.00000000000E+00 -0.74505805969E-08  0.93827000000E+00  0.93827000000E+00 0. -1.
     999902    2    1    2    0    0 -0.18788635798E-01 -0.10785212263E-01 -0.91758125710E-02  0.10204027993E+01  0.10201315325E+01 0.  0.
     999903    2    3    3    0    0  0.99798097039E-02 -0.29729342410E-01 -0.12657237017E+00  0.13193870022E+00  0.20095405570E-01 0.  0.
         14    1    1    2    0    0  0.18788635798E-01  0.10785212263E-01  0.91758125710E-02  0.23527200748E-01  0.00000000000E+00 0.  1.
     999901    1    3    3    0    0 -0.28768445502E-01  0.18944130148E-01  0.11739655760E+00  0.88846409903E+00  0.88000000000E+00 0.  1.
        -11    1    4    4    0    0  0.13836229476E-01 -0.20550392345E-01 -0.10855407001E+00  0.11134633855E+00  0.51100000000E-03 0.  1.
         11    1    4    4    0    0 -0.38564197726E-02 -0.91789500655E-02 -0.18018300160E-01  0.20592361677E-01  0.51100000000E-03 0. -1.
</event>
<event>
 8    1  0.5489035E+004  0.1043930E+01  0.7957747E-01            NaN
         13   -1    0    0    0    0  0.00000000000E+00  0.00000000000E+00  0.74505805969E-08  0.10566000000E+00  0.10566000000E+00 0.  1.
     999900   -1    0    0    0    0 -0.00000000000E+00 -0.00000000000E+00 -0.74505805969E-08  0.93827000000E+00  0.93827000000E+00 0. -1.
     999902    2    1    2    0    0 -0.64393248553E-02  0.91346419448E-02  0.23433276574E-01  0.10179680078E+01  0.10176368900E+01 0.  0.
     999903    2    3    3    0    0 -0.32887405187E-01  0.82727352712E-01  0.93998203522E-01  0.13168656438E+00  0.24089264547E-01 0.  0.
         14    1    1    2    0    0  0.64393248553E-02 -0.91346419448E-02 -0.23433276574E-01  0.25961992201E-01  0.00000000000E+00 0. -1.
     999901    1    3    3    0    0  0.26448080332E-01 -0.73592710767E-01 -0.70564926948E-01  0.88628144342E+00  0.88000000000E+00 0.  1.
        -11    1    4    4    0    0 -0.13985477040E-01  0.59791352593E-01  0.53459025108E-01  0.81417000064E-01  0.51100000000E-03 0. -1.
         11    1    4    4    0    0 -0.18901928147E-01  0.22936000119E-01  0.40539178414E-01  0.50269564317E-01  0.51100000000E-03 0.  1.
</event>
<event>
 8    1  0.5489035E+004  0.1043930E+01  0.7957747E-01            NaN
         13   -1    0    0    0    0  0.00000000000E+00  0.00000000000E+00  0.74505805969E-08  0.10566000000E+00  0.10566000000E+00 0. -1.
     999900   -1    0    0    0    0 -0.00000000000E+00 -0.00000000000E+00 -0.74505805969E-08  0.93827000000E+00  0.93827000000E+00 0.  1.
     999902    2    1    2    0    0 -0.22608763739E-01 -0.27911592998E-02 -0.42158963137E-02  0.10207627699E+01  0.10204998343E+01 0.  0.
     999903    2    3    3    0    0 -0.70448668897E-01 -0.95990123230E-01 -0.53560017120E-01  0.13317641036E+00  0.26270937113E-01 0.  0.
         14    1    1    2    0    0  0.22608763739E-01  0.27911592998E-02  0.42158963137E-02  0.23167230084E-01  0.00000000000E+00 0.  1.
     999901    1    3    3    0    0  0.47839905158E-01  0.93198963930E-01  0.49344120806E-01  0.88758635955E+00  0.88000000000E+00 0. -1.
        -11    1    4    4    0    0 -0.94179733141E-02 -0.31260774349E-01 -0.10213723565E-01  0.34212797376E-01  0.51100000000E-03 0. -1.
         11    1    4    4    0    0 -0.61030695583E-01 -0.64729348881E-01 -0.43346293554E-01  0.98963612989E-01  0.51100000000E-03 0.  1.
</event>
<event>
 8    1  0.5489035E+004  0.1043930E+01  0.7957747E-01            NaN
         13   -1    0    0    0    0  0.00000000000E+00  0.00000000000E+00  0.74505805969E-08  0.10566000000E+00  0.10566000000E+00 0. -1.
     999900   -1    0    0    0    0 -0.00000000000E+00 -0.00000000000E+00 -0.74505805969E-08  0.93827000000E+00  0.93827000000E+00 0. -1.
     999902    2    1    2    0    0  0.21156151236E-01 -0.90310171636E-02 -0.17587393594E-02  0.10208597774E+01  0.10205990643E+01 0.  0.
     999903    2    3    3    0    0  0.39737684090E-01 -0.10520045728E+00 -0.67908911694E-01  0.13295793606E+00  0.20493236110E-01 0.  0.
         14    1    1    2    0    0 -0.21156151236E-01  0.90310171636E-02  0.17587393594E-02  0.23070222588E-01  0.00000000000E+00 0. -1.
     999901    1    3    3    0    0 -0.18581532854E-01  0.96169440112E-01  0.66150172334E-01  0.88790184135E+00  0.88000000000E+00 0.  1.
        -11    1    4    4    0    0  0.20394161397E-01 -0.70542255043E-01 -0.52977492484E-01  0.90548370480E-01  0.51100000000E-03 0.  1.
         11    1    4    4    0    0  0.19343522692E-01 -0.34658202232E-01 -0.14931419210E-01  0.42409565581E-01  0.51100000000E-03 0. -1.
</event>
<event>
 8    1  0.5489035E+004  0.1043930E+01  0.7957747E-01            NaN
         13   -1    0    0    0    0  0.00000000000E+00  0.00000000000E+00  0.74505805969E-08  0.10566000000E+00  0.10566000000E+00 0.  1.
     999900   -1    0    0    0    0 -0.00000000000E+00 -0.00000000000E+00 -0.74505805969E-08  0.93827000000E+00  0.93827000000E+00 0. -1.
     999902    2    1    2    0    0  0.13510445060E-01 -0.69272224394E-05 -0.21286375220E-01  0.10187180595E+01  0.10184060304E+01 0.  0.
     999903    2    3    3    0    0  0.13069110266E-01 -0.54761644007E-01  0.11217740482E+00  0.12697210107E+00  0.19196484076E-01 0.  0.
         14    1    1    2    0    0 -0.13510445060E-01  0.69272224394E-05  0.21286375220E-01  0.25211940499E-01  0.00000000000E+00 0.  1.
     999901    1    3    3    0    0  0.44133479400E-03  0.54754716784E-01 -0.13346378004E+00  0.89174595843E+00  0.88000000000E+00 0. -1.
        -11    1    4    4    0    0 -0.18411886164E-02 -0.32733594236E-01  0.58473954772E-01  0.67039858852E-01  0.51100000000E-03 0.  1.
         11    1    4    4    0    0  0.14910298882E-01 -0.22028049771E-01  0.53703450052E-01  0.59932242223E-01  0.51100000000E-03 0. -1.
</event>
<event>
 8    1  0.5489035E+004  0.1043930E+01  0.7957747E-01            NaN
         13   -1    0    0    0    0  0.00000000000E+00  0.00000000000E+00  0.74505805969E-08  0.10566000000E+00  0.10566000000E+00 0. -1.
     999900   -1    0    0    0    0 -0.00000000000E+00 -0.00000000000E+00 -0.74505805969E-08  0.93827000000E+00  0.93827000000E+00 0.  1.
     999902    2    1    2    0    0 -0.84743409804E-02 -0.11560377108E-01  0.18021754867E-01  0.10209030501E+01  0.10206433252E+01 0.  0.
     999903    2    3    3    0    0  0.31744473821E-01  0.11726099255E+00  0.42765208457E-01  0.13027139960E+00  0.19593940604E-01 0.  0.
         14    1    1    2    0    0  0.84743409804E-02  0.11560377108E-01 -0.18021754867E-01  0.23026949916E-01  0.00000000000E+00 0.  1.
     999901    1    3    3    0    0 -0.40218814801E-01 -0.12882136966E+00 -0.24743453590E-01  0.89063165048E+00  0.88000000000E+00 0.  1.
        -11    1    4    4    0    0  0.81171097492E-02  0.22993653113E-01  0.16999010221E-01  0.29729161166E-01  0.51100000000E-03 0. -1.
         11    1    4    4    0    0  0.23627364072E-01  0.94267339436E-01  0.25766198236E-01  0.10054223844E+00  0.51100000000E-03 0.  1.
</event>
<event>
 8    1  0.5489035E+004  0.1043930E+01  0.7957747E-01            NaN
         13   -1    0    0    0    0  0.00000000000E+00  0.00000000000E+00  0.74505805969E-08  0.10566000000E+00  0.10566000000E+00 0.  1.
     999900   -1    0    0    0    0 -0.00000000000E+00 -0.00000000000E+00 -0.74505805969E-08  0.93827000000E+00  0.93827000000E+00 0.  1.
     999902    2    1    2    0    0  0.16968810131E-01  0.44501132537E-02  0.18002652758E-01  0.10187935816E+01  0.10184834423E+01 0.  0.
     999903    2    3    3    0    0  0.25654680130E-01  0.38196162256E-01 -0.11750790255E+00  0.12773951432E+00  0.19803205162E-01 0.  0.
         14    1    1    2    0    0 -0.16968810131E-01 -0.44501132537E-02 -0.18002652758E-01  0.25136418431E-01  0.00000000000E+00 0. -1.
     999901    1    3    3    0    0 -0.86858699996E-02 -0.33746049002E-01  0.13551055530E+00  0.89105406725E+00  0.88000000000E+00 0. -1.
        -11    1    4    4    0    0  0.42010005042E-02  0.45722532083E-02 -0.40872890507E-01  0.41344990072E-01  0.51100000000E-03 0. -1.
         11    1    4    4    0    0  0.21453679626E-01  0.33623909047E-01 -0.76635012038E-01  0.86394524249E-01  0.51100000000E-03 0.  1.
</event>
<event>
 8    1  0.5489035E+004  0.1043930E+01  0.7957747E-01            NaN
         13   -1    0    0    0    0  0.00000000000E+00  0.00000000000E+00  0.74505805969E-08  0.10566000000E+00  0.10566000000E+00 0.  1.
     999900   -1    0    0    0    0 -0.00000000000E+00 -0.00000000000E+00 -0.74505805969E-08  0.93827000000E+00  0.93827000000E+00 0. -1.
     999902    2    1    2    0    0 -0.13497176487E-01 -0.12708800305E-01  0.15203199196E-01  0.10199544991E+01  0.10196726708E+01 0.  0.
     999903    2    3    3    0    0 -0.12845655599E+00 -0.80803937252E-02 -0.12879082008E-01  0.13202111442E+00  0.26406899872E-01 0.  0.
         14    1    1    2    0    0  0.13497176487E-01  0.12708800305E-01 -0.15203199196E-01  0.23975500915E-01  0.00000000000E+00 0. -1.
     999901    1    3    3    0    0  0.11495937950E+00 -0.46284065793E-02  0.28082281204E-01  0.88793338466E+00  0.88000000000E+00 0.  1.
        -11    1    4    4    0    0 -0.80260125721E-01 -0.57448243849E-02 -0.20818737717E-01  0.83116615361E-01  0.51100000000E-03 0. -1.
         11    1    4    4    0    0 -0.48196430266E-01 -0.23355693403E-02  0.79396557091E-02  0.48904499060E-01  0.51100000000E-03 0.  1.
</event>
<event>
 8    1  0.5489035E+004  0.1043930E+01  0.7957747E-01            NaN
         13   -1    0    0    0    0  0.00000000000E+00  0.00000000000E+00  0.74505805969E-08  0.10566000000E+00  0.10566000000E+00 0. -1.
     999900   -1    0    0    0    0 -0.00000000000E+00 -0.00000000000E+00 -0.74505805969E-08  0.93827000000E+00  0.93827000000E+00 0. -1.
     999902    2    1    2    0    0 -0.20733117076E-01  0.63659918440E-02  0.10596325349E-01  0.10197914394E+01  0.10195057184E+01 0.  0.
     999903    2    3    3    0    0  0.44562965519E-01 -0.10680381918E+00 -0.51584408133E-01  0.12797451418E+00  0.17989203184E-01 0.  0.
         14    1    1    2    0    0  0.20733117076E-01 -0.63659918440E-02 -0.10596325349E-01  0.24138560577E-01  0.00000000000E+00 0.  1.
     999901    1    3    3    0    0 -0.65296082595E-01  0.11316981102E+00  0.62180733482E-01  0.89181692524E+00  0.88000000000E+00 0. -1.
        -11    1    4    4    0    0  0.56723785874E-02 -0.33971081710E-01 -0.17675506255E-01  0.38715564231E-01  0.51100000000E-03 0. -1.
         11    1    4    4    0    0  0.38890586931E-01 -0.72832737467E-01 -0.33908901878E-01  0.89258949951E-01  0.51100000000E-03 0.  1.
</event>
<event>
 8    1  0.5489035E+004  0.1043930E+01  0.7957747E-01            NaN
         13   -1    0    0    0    0  0.00000000000E+00  0.00000000000E+00  0.74505805969E-08  0.10566000000E+00  0.10566000000E+00 0.  1.
     999900   -1    0    0    0    0 -0.00000000000E+00 -0.00000000000E+00 -0.74505805969E-08  0.93827000000E+00  0.93827000000E+00 0. -1.
     999902    2    1    2    0    0 -0.13186981760E-01  0.19371476831E-01 -0.57325471345E-03  0.10204890268E+01  0.10202197678E+01 0.  0.
     999903    2    3    3    0    0 -0.71039305436E-02 -0.70745775271E-01 -0.10642226854E+00  0.12955573170E+00  0.20088748746E-01 0.  0.
         14    1    1    2    0    0  0.13186981760E-01 -0.19371476831E-01  0.57325471345E-03  0.23440973177E-01  0.00000000000E+00 0.  1.
     999901    1    3    3    0    0 -0.60830512161E-02  0.90117252102E-01  0.10584901383E+00  0.89093329513E+00  0.88000000000E+00 0.  1.
        -11    1    4    4    0    0 -0.11159764717E-01 -0.25444669460E-01 -0.48641627160E-01  0.56020001484E-01  0.51100000000E-03 0.  1.
         11    1    4    4    0    0  0.40558341730E-02 -0.45301105811E-01 -0.57780641379E-01  0.73535730211E-01  0.51100000000E-03 0. -1.
</event>
<event>
 8    1  0.5489035E+004  0.1043930E+01  0.7957747E-01            NaN
         13   -1    0    0    0    0  0.00000000000E+00  0.00000000000E+00  0.74505805969E-08  0.10566000000E+00  0.10566000000E+00 0. -1.
     999900   -1    0    0    0    0 -0.00000000000E+00 -0.00000000000E+00 -0.74505805969E-08  0.93827000000E+00  0.93827000000E+00 0. -1.
     999902    2    1    2    0    0 -0.26505308456E-02  0.22814454343E-02  0.24323585851E-01  0.10193562918E+01  0.10190600485E+01 0.  0.
     999903    2    3    3    0    0 -0.46220169885E-01  0.98210619614E-01 -0.65815582176E-01  0.12849951905E+00  0.19970118425E-01 0.  0.
         14    1    1    2    0    0  0.26505308456E-02 -0.22814454343E-02 -0.24323585851E-01  0.24573708220E-01  0.00000000000E+00 0.  1.
     999901    1    3    3    0    0  0.43569639039E-01 -0.95929174180E-01  0.90139168027E-01  0.89085677273E+00  0.88000000000E+00 0.  1.
        -11    1    4    4    0    0 -0.41811297124E-01  0.68462331706E-01 -0.45876670142E-01  0.92413231813E-01  0.51100000000E-03 0. -1.
         11    1    4    4    0    0 -0.44088727606E-02  0.29748287908E-01 -0.19938912034E-01  0.36086287237E-01  0.51100000000E-03 0.  1.
</event>
<event>
 8    1  0.5489035E+004  0.1043930E+01  0.7957747E-01            NaN
         13   -1    0    0    0    0  0.00000000000E+00  0.00000000000E+00  0.74505805969E-08  0.10566000000E+00  0.10566000000E+00 0. -1.
     999900   -1    0    0    0    0 -0.00000000000E+00 -0.00000000000E+00 -0.74505805969E-08  0.93827000000E+00  0.93827000000E+00 0.  1.
     999902    2    1    2    0    0 -0.13963827787E-01 -0.15261990331E-01  0.97408857832E-02  0.10210651429E+01  0.10208091028E+01 0.  0.
     999903    2    3    3    0    0  0.34985267997E-01 -0.10296946190E+00  0.72412304740E-01  0.13313703695E+00  0.25597845018E-01 0.  0.
         14    1    1    2    0    0  0.13963827787E-01  0.15261990331E-01 -0.97408857832E-02  0.22864857121E-01  0.00000000000E+00 0.  1.
     999901    1    3    3    0    0 -0.48949095785E-01  0.87707471566E-01 -0.62671418957E-01  0.88792810593E+00  0.88000000000E+00 0.  1.
        -11    1    4    4    0    0  0.34950150543E-01 -0.66058656974E-01  0.50701476686E-01  0.90311461307E-01  0.51100000000E-03 0.  1.
         11    1    4    4    0    0  0.35117453965E-04 -0.36910804922E-01  0.21710828054E-01  0.42825575642E-01  0.51100000000E-03 0. -1.
</event>
<event>
 8    1  0.5489035E+004  0.1043930E+01  0.7957747E-01            NaN
         13   -1    0    0    0    0  0.00000000000E+00  0.00000000000E+00  0.74505805969E-08  0.10566000000E+00  0.10566000000E+00 0.  1.
     999900   -1    0    0    0    0 -0.00000000000E+00 -0.00000000000E+00 -0.74505805969E-08  0.93827000000E+00  0.93827000000E+00 0.  1.
     999902    2    1    2    0    0 -0.18544720506E-01 -0.23530146096E-03  0.13975787416E-01  0.10207074967E+01  0.10204432905E+01 0.  0.
     999903    2    3    3    0    0  0.76362229971E-01  0.10170470472E+00 -0.12595399001E-01  0.12935732867E+00  0.19990929827E-01 0.  0.
         14    1    1    2    0    0  0.18544720506E-01  0.23530146096E-03 -0.13975787416E-01  0.23222503296E-01  0.00000000000E+00 0. -1.
     999901    1    3    3    0    0 -0.94906950477E-01 -0.10194000618E+00  0.26571186418E-01  0.89135016804E+00  0.88000000000E+00 0.  1.
        -11    1    4    4    0    0  0.48098412876E-01  0.65096188896E-01 -0.17611926073E-01  0.82833641662E-01  0.51100000000E-03 0. -1.
         11    1    4    4    0    0  0.28263817095E-01  0.36608515827E-01  0.50165270719E-02  0.46523687007E-01  0.51100000000E-03 0.  1.
</event>
<event>
 8    1  0.5489035E+004  0.1043930E+01  0.7957747E-01            NaN
         13   -1    0    0    0    0  0.00000000000E+00  0.00000000000E+00  0.74505805969E-08  0.10566000000E+00  0.10566000000E+00 0. -1.
     999900   -1    0    0    0    0 -0.00000000000E+00 -0.00000000000E+00 -0.74505805969E-08  0.93827000000E+00  0.93827000000E+00 0.  1.
     999902    2    1    2    0    0  0.14100594406E-02  0.22637480560E-01 -0.69898598247E-02  0.10201960173E+01  0.10199199046E+01 0.  0.
     999903    2    3    3    0    0 -0.75213405658E-01  0.10597935706E+00 -0.18299481259E-01  0.13287142545E+00  0.20766900923E-01 0.  0.
         14    1    1    2    0    0 -0.14100594406E-02 -0.22637480560E-01  0.69898598247E-02  0.23733982685E-01  0.00000000000E+00 0. -1.
     999901    1    3    3    0    0  0.76623465099E-01 -0.83341876503E-01  0.11309621434E-01  0.88732459186E+00  0.88000000000E+00 0. -1.
        -11    1    4    4    0    0 -0.21224651906E-01  0.38848774600E-01 -0.14698062488E-01  0.46647693387E-01  0.51100000000E-03 0. -1.
         11    1    4    4    0    0 -0.53988753752E-01  0.67130582463E-01 -0.36014187710E-02  0.86223732068E-01  0.51100000000E-03 0.  1.
</event>
<event>
 8    1  0.5489035E+004  0.1043930E+01  0.7957747E-01            NaN
         13   -1    0    0    0    0  0.00000000000E+00  0.00000000000E+00  0.74505805969E-08  0.10566000000E+00  0.10566000000E+00 0.  1.
     999900   -1    0    0    0    0 -0.00000000000E+00 -0.00000000000E+00 -0.74505805969E-08  0.93827000000E+00  0.93827000000E+00 0. -1.
     999902    2    1    2    0    0  0.10373910046E-01  0.17701460007E-01 -0.27762530510E-01  0.10094087341E+01  0.10088182566E+01 0.  0.
     999903    2    3    3    0    0 -0.49973133384E-01 -0.93944374958E-02  0.10350482971E+00  0.11721644928E+00  0.20997063891E-01 0.  0.
         14    1    1    2    0    0 -0.10373910046E-01 -0.17701460007E-01  0.27762530510E-01  0.34521265857E-01  0.00000000000E+00 0.  1.
     999901    1    3    3    0    0  0.60347043429E-01  0.27095897503E-01 -0.13126736022E+00  0.89219228486E+00  0.88000000000E+00 0. -1.
        -11    1    4    4    0    0 -0.44303948429E-01 -0.70304500862E-02  0.69944950189E-01  0.83095272144E-01  0.51100000000E-03 0.  1.
         11    1    4    4    0    0 -0.56691849550E-02 -0.23639874096E-02  0.33559879522E-01  0.34121177135E-01  0.51100000000E-03 0. -1.
</event>
<event>
 8    1  0.5489035E+004  0.1043930E+01  0.7957747E-01            NaN
         13   -1    0    0    0    0  0.00000000000E+00  0.00000000000E+00  0.74505805969E-08  0.10566000000E+00  0.10566000000E+00 0. -1.
     999900   -1    0    0    0    0 -0.00000000000E+00 -0.00000000000E+00 -0.74505805969E-08  0.93827000000E+00  0.93827000000E+00 0.  1.
     999902    2    1    2    0    0  0.10183438189E-01 -0.14764914451E-01 -0.16739823780E-01  0.10193958032E+01  0.10191005234E+01 0.  0.
     999903    2    3    3    0    0 -0.66922824316E-01  0.57254993379E-01 -0.93253299621E-01  0.12979670540E+00  0.19854676031E-01 0.  0.
         14    1    1    2    0    0 -0.10183438189E-01  0.14764914451E-01  0.16739823780E-01  0.24534196793E-01  0.00000000000E+00 0. -1.
     999901    1    3    3    0    0  0.77106262505E-01 -0.72019907829E-01  0.76513475841E-01  0.88959909781E+00  0.88000000000E+00 0. -1.
        -11    1    4    4    0    0 -0.50121134702E-01  0.52831864976E-01 -0.77330859659E-01  0.10622455967E+00  0.51100000000E-03 0. -1.
         11    1    4    4    0    0 -0.16801689614E-01  0.44231284024E-02 -0.15922439961E-01  0.23572145725E-01  0.51100000000E-03 0.  1.
</event>
<event>
 8    1  0.5489035E+004  0.1043930E+01  0.7957747E-01            NaN
         13   -1    0    0    0    0  0.00000000000E+00  0.00000000000E+00  0.74505805969E-08  0.10566000000E+00  0.10566000000E+00 0. -1.
     999900   -1    0    0    0    0 -0.00000000000E+00 -0.00000000000E+00 -0.74505805969E-08  0.93827000000E+00  0.93827000000E+00 0.  1.
     999902    2    1    2    0    0  0.19067871108E-01 -0.81482635284E-02 -0.74450955975E-02  0.10218980379E+01  0.10216605074E+01 0.  0.
     999903    2    3    3    0    0  0.58596804268E-03 -0.90648081071E-01 -0.95899115543E-01  0.13343199221E+00  0.19749385379E-01 0.  0.
         14    1    1    2    0    0 -0.19067871108E-01  0.81482635284E-02  0.74450955975E-02  0.22031962136E-01  0.00000000000E+00 0.  1.
     999901    1    3    3    0    0  0.18481903065E-01  0.82499817543E-01  0.88454019945E-01  0.88846604565E+00  0.88000000000E+00 0. -1.
        -11    1    4    4    0    0 -0.56110079759E-02 -0.76424314510E-02 -0.86171404704E-02  0.12822105906E-01  0.51100000000E-03 0.  1.
         11    1    4    4    0    0  0.61969760186E-02 -0.83005649620E-01 -0.87281975072E-01  0.12060988630E+00  0.51100000000E-03 0. -1.
</event>
<event>
 8    1  0.5489035E+004  0.1043930E+01  0.7957747E-01            NaN
         13   -1    0    0    0    0  0.00000000000E+00  0.00000000000E+00  0.74505805969E-08  0.10566000000E+00  0.10566000000E+00 0. -1.
     999900   -1    0    0    0    0 -0.00000000000E+00 -0.00000000000E+00 -0.74505805969E-08  0.93827000000E+00  0.93827000000E+00 0. -1.
     999902    2    1    2    0    0 -0.15136219301E-01 -0.14824259734E-01 -0.10449739419E-01  0.10203066881E+01  0.10200331744E+01 0.  0.
     999903    2    3    3    0    0 -0.75154381259E-01 -0.74685016351E-01  0.75409892115E-01  0.13207396731E+00  0.23040145887E-01 0.  0.
         14    1    1    2    0    0  0.15136219301E-01  0.14824259734E-01  0.10449739419E-01  0.23623311904E-01  0.00000000000E+00 0.  1.
     999901    1    3    3    0    0  0.60018161959E-01  0.59860756617E-01 -0.85859631535E-01  0.88823272079E+00  0.88000000000E+00 0. -1.
        -11    1    4    4    0    0 -0.54432645986E-01 -0.63798413010E-01  0.50537943877E-01  0.97915756362E-01  0.51100000000E-03 0. -1.
         11    1    4    4    0    0 -0.20721735273E-01 -0.10886603341E-01  0.24871948238E-01  0.34158210948E-01  0.51100000000E-03 0.  1.
</event>
<event>
 7    1  0.5489035E+004  0.1043930E+01  0.7957747E-01            NaN
         13   -1    0    0    0    0  0.00000000000E+00  0.00000000000E+00  0.74505805969E-08  0.10566000000E+00  0.10566000000E+00 0. -1.
     999900   -1    0    0    0    0 -0.00000000000E+00 -0.00000000000E+00 -0.74505805969E-08  0.93827000000E+00  0.93827000000E+00 0.  1.
     999903    2    1    2    0    0  0.26070965948E-01 -0.17276436860E-01  0.73272781403E-01  0.82031325429E-01  0.19546542431E-01 0.  0.
         14    1    1    2    0    0  0.70786591348E-01 -0.13916546859E-01  0.65923822390E-02  0.72442192779E-01  0.00000000000E+00 0. -1.
     999901    1    1    2    0    0 -0.96857557296E-01  0.31192983718E-01 -0.79865163642E-01  0.88945648179E+00  0.88000000000E+00 0.  1.
        -11    1    3    3    0    0  0.10847259304E-01 -0.18862829194E-02  0.45493552455E-01  0.46809673505E-01  0.51100000000E-03 0. -1.
         11    1    3    3    0    0  0.15223706644E-01 -0.15390153940E-01  0.27779228947E-01  0.35221651923E-01  0.51100000000E-03 0.  1.
</event>
<event>
 8    1  0.5489035E+004  0.1043930E+01  0.7957747E-01            NaN
         13   -1    0    0    0    0  0.00000000000E+00  0.00000000000E+00  0.74505805969E-08  0.10566000000E+00  0.10566000000E+00 0.  1.
     999900   -1    0    0    0    0 -0.00000000000E+00 -0.00000000000E+00 -0.74505805969E-08  0.93827000000E+00  0.93827000000E+00 0. -1.
     999902    2    1    2    0    0  0.65082263597E-02 -0.21038665341E-01 -0.11800638971E-01  0.10189452541E+01  0.10186388925E+01 0.  0.
     999903    2    3    3    0    0 -0.12222654627E+00  0.31029416324E-01 -0.96842651154E-02  0.12805345039E+00  0.20043649260E-01 0.  0.
         14    1    1    2    0    0 -0.65082263597E-02  0.21038665341E-01  0.11800638971E-01  0.24984745942E-01  0.00000000000E+00 0.  1.
     999901    1    3    3    0    0  0.12873477263E+00 -0.52068081664E-01 -0.21163738556E-02  0.89089180367E+00  0.88000000000E+00 0. -1.
        -11    1    4    4    0    0 -0.11008683421E+00  0.33378315510E-01 -0.11221598411E-01  0.11558290706E+00  0.51100000000E-03 0. -1.
         11    1    4    4    0    0 -0.12139712058E-01 -0.23488991864E-02  0.15373332955E-02  0.12470543328E-01  0.51100000000E-03 0.  1.
</event>
<event>
 8    1  0.5489035E+004  0.1043930E+01  0.7957747E-01            NaN
         13   -1    0    0    0    0  0.00000000000E+00  0.00000000000E+00  0.74505805969E-08  0.10566000000E+00  0.10566000000E+00 0.  1.
     999900   -1    0    0    0    0 -0.00000000000E+00 -0.00000000000E+00 -0.74505805969E-08  0.93827000000E+00  0.93827000000E+00 0. -1.
     999902    2    1    2    0    0  0.16993623959E-01 -0.51448658079E-03 -0.19462474583E-01  0.10180874794E+01  0.10177594411E+01 0.  0.
     999903    2    3    3    0    0  0.11198068023E+00  0.42640881691E-01  0.44934473590E-01  0.12958768001E+00  0.20394664906E-01 0.  0.
         14    1    1    2    0    0 -0.16993623959E-01  0.51448658079E-03  0.19462474583E-01  0.25842520555E-01  0.00000000000E+00 0.  1.
     999901    1    3    3    0    0 -0.94987056270E-01 -0.43155368271E-01 -0.64396948174E-01  0.88849979944E+00  0.88000000000E+00 0. -1.
        -11    1    4    4    0    0  0.91362915517E-01  0.42845923208E-01  0.36660063961E-01  0.10736469102E+00  0.51100000000E-03 0.  1.
         11    1    4    4    0    0  0.20617764712E-01 -0.20504151729E-03  0.82744096291E-02  0.22222988985E-01  0.51100000000E-03 0. -1.
</event>
<event>
 8    1  0.5489035E+004  0.1043930E+01  0.7957747E-01            NaN
         13   -1    0    0    0    0  0.00000000000E+00  0.00000000000E+00  0.74505805969E-08  0.10566000000E+00  0.10566000000E+00 0.  1.
     999900   -1    0    0    0    0 -0.00000000000E+00 -0.00000000000E+00 -0.74505805969E-08  0.93827000000E+00  0.93827000000E+00 0. -1.
     999902    2    1    2    0    0  0.64440103351E-02  0.12589722082E-01 -0.20596954963E-01  0.10189447859E+01  0.10186384127E+01 0.  0.
     999903    2    3    3    0    0 -0.12114848537E+00  0.14742653044E-01 -0.38532132414E-01  0.12955952027E+00  0.20165384656E-01 0.  0.
         14    1    1    2    0    0 -0.64440103351E-02 -0.12589722082E-01  0.20596954963E-01  0.24985214128E-01  0.00000000000E+00 0.  1.
     999901    1    3    3    0    0  0.12759249571E+00 -0.21529309622E-02  0.17935177451E-01  0.88938526560E+00  0.88000000000E+00 0. -1.
        -11    1    4    4    0    0 -0.21214793072E-01  0.90559499498E-02 -0.26428418181E-02  0.23223337583E-01  0.51100000000E-03 0.  1.
         11    1    4    4    0    0 -0.99933692300E-01  0.56867030940E-02 -0.35889290596E-01  0.10633618269E+00  0.51100000000E-03 0. -1.
</event>
<event>
 8    1  0.5489035E+004  0.1043930E+01  0.7957747E-01            NaN
         13   -1    0    0    0    0  0.00000000000E+00  0.00000000000E+00  0.74505805969E-08  0.10566000000E+00  0.10566000000E+00 0.  1.
     999900   -1    0    0    0    0 -0.00000000000E+00 -0.00000000000E+00 -0.74505805969E-08  0.93827000000E+00  0.93827000000E+00 0. -1.
     999902    2    1    2    0    0  0.63653349511E-02  0.13414631615E-01  0.18443029204E-01  0.10202526869E+01  0.10199779066E+01 0.  0.
     999903    2    3    3    0    0  0.52195454425E-01  0.51995135118E-01 -0.10504046711E+00  0.12961413563E+00  0.18397415218E-01 0.  0.
         14    1    1    2    0    0 -0.63653349511E-02 -0.13414631615E-01 -0.18443029204E-01  0.23677313122E-01  0.00000000000E+00 0. -1.
     999901    1    3    3    0    0 -0.45830119474E-01 -0.38580503503E-01  0.12348349631E+00  0.89063855124E+00  0.88000000000E+00 0.  1.
        -11    1    4    4    0    0  0.45527610871E-02  0.60252954952E-02 -0.22871010801E-01  0.24090995732E-01  0.51100000000E-03 0. -1.
         11    1    4    4    0    0  0.47642693338E-01  0.45969839623E-01 -0.82169456310E-01  0.10552313990E+00  0.51100000000E-03 0.  1.
</event>
<event>
 8    1  0.5489035E+004  0.1043930E+01  0.7957747E-01            NaN
         13   -1    0    0    0    0  0.00000000000E+00  0.00000000000E+00  0.74505805969E-08  0.10566000000E+00  0.10566000000E+00 0. -1.
     999900   -1    0    0    0    0 -0.00000000000E+00 -0.00000000000E+00 -0.74505805969E-08  0.93827000000E+00  0.93827000000E+00 0.  1.
     999902    2    1    2    0    0  0.72468479597E-02  0.21873875959E-01 -0.66232970082E-02  0.10199539428E+01  0.10196721013E+01 0.  0.
     999903    2    3    3    0    0  0.94824105425E-01 -0.85277526126E-01  0.27557511355E-02  0.12908966273E+00  0.19816140565E-01 0.  0.
         14    1    1    2    0    0 -0.72468479597E-02 -0.21873875959E-01  0.66232970082E-02  0.23976057184E-01  0.00000000000E+00 0. -1.
     999901    1    3    3    0    0 -0.87577257466E-01  0.10715140209E+00 -0.93790481436E-02  0.89086428009E+00  0.88000000000E+00 0.  1.
        -11    1    4    4    0    0  0.32992344286E-01 -0.42025421047E-01 -0.21136157097E-02  0.53472977175E-01  0.51100000000E-03 0.  1.
         11    1    4    4    0    0  0.61831761140E-01 -0.43252105079E-01  0.48693668452E-02  0.75616685552E-01  0.51100000000E-03 0. -1.
</event>
<event>
 8    1  0.5489035E+004  0.1043930E+01  0.7957747E-01            NaN
         13   -1    0    0    0    0  0.00000000000E+00  0.00000000000E+00  0.74505805969E-08  0.10566000000E+00  0.10566000000E+00 0. -1.
     999900   -1    0    0    0    0 -0.00000000000E+00 -0.00000000000E+00 -0.74505805969E-08  0.93827000000E+00  0.93827000000E+00 0.  1.
     999902    2    1    2    0    0  0.13388666311E-02 -0.23076693312E-02 -0.24520534962E-01  0.10192647504E+01  0.10189662688E+01 0.  0.
     999903    2    3    3    0    0  0.89020183569E-01  0.83381872799E-01 -0.41993694263E-01  0.13059382018E+00  0.20350570450E-01 0.  0.
         14    1    1    2    0    0 -0.13388666311E-02  0.23076693312E-02  0.24520534962E-01  0.24665249572E-01  0.00000000000E+00 0. -1.
     999901    1    3    3    0    0 -0.87681316937E-01 -0.85689542130E-01  0.17473159301E-01  0.88867093025E+00  0.88000000000E+00 0.  1.
        -11    1    4    4    0    0  0.19997588714E-01  0.15279859478E-01 -0.17267856745E-01  0.30525688487E-01  0.51100000000E-03 0.  1.
         11    1    4    4    0    0  0.69022594855E-01  0.68102013320E-01 -0.24725837518E-01  0.10006813169E+00  0.51100000000E-03 0. -1.
</event>
<event>
 8    1  0.5489035E+004  0.1043930E+01  0.7957747E-01            NaN
         13   -1    0    0    0    0  0.00000000000E+00  0.00000000000E+00  0.74505805969E-08  0.10566000000E+00  0.10566000000E+00 0.  1.
     999900   -1    0    0    0    0 -0.00000000000E+00 -0.00000000000E+00 -0.74505805969E-08  0.93827000000E+00  0.93827000000E+00 0.  1.
     999902    2    1    2    0    0  0.71664302172E-02 -0.97469638474E-02 -0.21140922288E-01  0.10195722575E+01  0.10192812608E+01 0.  0.
     999903    2    3    3    0    0  0.31690575907E-01  0.78801468786E-01  0.92041128650E-01  0.12757873994E+00  0.24306407345E-01 0.  0.
         14    1    1    2    0    0 -0.71664302172E-02  0.97469638474E-02  0.21140922288E-01  0.24357742537E-01  0.00000000000E+00 0.  1.
     999901    1    3    3    0    0 -0.24524145690E-01 -0.88548432634E-01 -0.11318205094E+00  0.89199351752E+00  0.88000000000E+00 0.  1.
        -11    1    4    4    0    0  0.18177256481E-01  0.62813147343E-01  0.80346796923E-01  0.10359427122E+00  0.51100000000E-03 0. -1.
         11    1    4    4    0    0  0.13513319426E-01  0.15988321443E-01  0.11694331726E-01  0.23984468725E-01  0.51100000000E-03 0.  1.
</event>
<event>
 8    1  0.5489035E+004  0.1043930E+01  0.7957747E-01            NaN
         13   -1    0    0    0    0  0.00000000000E+00  0.00000000000E+00  0.74505805969E-08  0.10566000000E+00  0.10566000000E+00 0. -1.
     999900   -1    0    0    0    0 -0.00000000000E+00 -0.00000000000E+00 -0.74505805969E-08  0.93827000000E+00  0.93827000000E+00 0.  1.
     999902    2    1    2    0    0  0.14983262404E-01 -0.11167681794E-01 -0.14042099533E-01  0.10205548887E+01  0.10202871581E+01 0.  0.
     999903    2    3    3    0    0  0.42354610993E-01 -0.25794400486E-01  0.11828158764E+00  0.13012089912E+00  0.21946531462E-01 0.  0.
         14    1    1    2    0    0 -0.14983262404E-01  0.11167681794E-01  0.14042099533E-01  0.23375111298E-01  0.00000000000E+00 0. -1.
     999901    1    3    3    0    0 -0.27371348588E-01  0.14626718692E-01 -0.13232368717E+00  0.89043398959E+00  0.88000000000E+00 0.  1.
        -11    1    4    4    0    0  0.21744044893E-01 -0.16130281374E-02  0.58219632484E-01  0.62170668933E-01  0.51100000000E-03 0. -1.
         11    1    4    4    0    0  0.20610566100E-01 -0.24181372348E-01  0.60061955156E-01  0.67950230182E-01  0.51100000000E-03 0.  1.
</event>
<event>
 8    1  0.5489035E+004  0.1043930E+01  0.7957747E-01            NaN
         13   -1    0    0    0    0  0.00000000000E+00  0.00000000000E+00  0.74505805969E-08  0.10566000000E+00  0.10566000000E+00 0.  1.
     999900   -1    0    0    0    0 -0.00000000000E+00 -0.00000000000E+00 -0.74505805969E-08  0.93827000000E+00  0.93827000000E+00 0. -1.
     999902    2    1    2    0    0  0.21220743029E-01 -0.84815598052E-02  0.84917290252E-03  0.10210612902E+01  0.10208051629E+01 0.  0.
     999903    2    3    3    0    0 -0.82248950186E-01 -0.90195858332E-01  0.41195769629E-01  0.13032504877E+00  0.19681062860E-01 0.  0.
         14    1    1    2    0    0 -0.21220743029E-01  0.84815598052E-02 -0.84917290252E-03  0.22868709759E-01  0.00000000000E+00 0. -1.
     999901    1    3    3    0    0  0.10346969321E+00  0.81714298527E-01 -0.40346596727E-01  0.89073624147E+00  0.88000000000E+00 0. -1.
        -11    1    4    4    0    0 -0.64571537823E-01 -0.58221223194E-01  0.25975417836E-01  0.90742370367E-01  0.51100000000E-03 0.  1.
         11    1    4    4    0    0 -0.17677412362E-01 -0.31974635139E-01  0.15220351793E-01  0.39582678406E-01  0.51100000000E-03 0. -1.
</event>
<event>
 8    1  0.5489035E+004  0.1043930E+01  0.7957747E-01            NaN
         13   -1    0    0    0    0  0.00000000000E+00  0.00000000000E+00  0.74505805969E-08  0.10566000000E+00  0.10566000000E+00 0.  1.
     999900   -1    0    0    0    0 -0.00000000000E+00 -0.00000000000E+00 -0.74505805969E-08  0.93827000000E+00  0.93827000000E+00 0. -1.
     999902    2    1    2    0    0 -0.15741415946E-01 -0.10371744864E-01 -0.14186841797E-01  0.10203369555E+01  0.10200641505E+01 0.  0.
     999903    2    3    3    0    0 -0.10814533687E+00  0.63524022414E-01 -0.36252507731E-01  0.13214442986E+00  0.20425247031E-01 0.  0.
         14    1    1    2    0    0  0.15741415946E-01  0.10371744864E-01  0.14186841797E-01  0.23593044477E-01  0.00000000000E+00 0.  1.
     999901    1    3    3    0    0  0.92403920927E-01 -0.73895767278E-01  0.22065665934E-01  0.88819252566E+00  0.88000000000E+00 0. -1.
        -11    1    4    4    0    0 -0.32866084040E-02  0.71270928969E-02 -0.38122155479E-02  0.87402148913E-02  0.51100000000E-03 0.  1.
         11    1    4    4    0    0 -0.10485872847E+00  0.56396929517E-01 -0.32440292183E-01  0.12340421497E+00  0.51100000000E-03 0. -1.
</event>
<event>
 8    1  0.5489035E+004  0.1043930E+01  0.7957747E-01            NaN
         13   -1    0    0    0    0  0.00000000000E+00  0.00000000000E+00  0.74505805969E-08  0.10566000000E+00  0.10566000000E+00 0. -1.
     999900   -1    0    0    0    0 -0.00000000000E+00 -0.00000000000E+00 -0.74505805969E-08  0.93827000000E+00  0.93827000000E+00 0.  1.
     999902    2    1    2    0    0 -0.17119612028E-02  0.11532886274E-01 -0.20705383568E-01  0.10201676098E+01  0.10198908280E+01 0.  0.
     999903    2    3    3    0    0  0.43600198993E-01 -0.46443730565E-01 -0.11409092002E+00  0.13217248690E+00  0.19870349829E-01 0.  0.
         14    1    1    2    0    0  0.17119612028E-02 -0.11532886274E-01  0.20705383568E-01  0.23762390150E-01  0.00000000000E+00 0. -1.
     999901    1    3    3    0    0 -0.45312160196E-01  0.57976616839E-01  0.93385536450E-01  0.88799512295E+00  0.88000000000E+00 0. -1.
        -11    1    4    4    0    0  0.28011804695E-01 -0.15395126433E-01 -0.53226162488E-01  0.62088296919E-01  0.51100000000E-03 0. -1.
         11    1    4    4    0    0  0.15588394298E-01 -0.31048604132E-01 -0.60864757530E-01  0.70084189982E-01  0.51100000000E-03 0.  1.
</event>
<event>
 8    1  0.5489035E+004  0.1043930E+01  0.7957747E-01            NaN
         13   -1    0    0    0    0  0.00000000000E+00  0.00000000000E+00  0.74505805969E-08  0.10566000000E+00  0.10566000000E+00 0.  1.
     999900   -1    0    0    0    0 -0.00000000000E+00 -0.00000000000E+00 -0.74505805969E-08  0.93827000000E+00  0.93827000000E+00 0. -1.
     999902    2    1    2    0    0  0.43611381347E-03  0.90298982936E-02  0.21639755166E-01  0.10204777451E+01  0.10202082238E+01 0.  0.
     999903    2    3    3    0    0 -0.98545159279E-01  0.83759264440E-01  0.16276068733E-01  0.13176488945E+00  0.19243515289E-01 0.  0.
         14    1    1    2    0    0 -0.43611381347E-03 -0.90298982936E-02 -0.21639755166E-01  0.23452254947E-01  0.00000000000E+00 0. -1.
     999901    1    3    3    0    0  0.98981273093E-01 -0.74729366147E-01  0.53636864325E-02  0.88871285561E+00  0.88000000000E+00 0.  1.
        -11    1    4    4    0    0 -0.49835454343E-01  0.54833174267E-01  0.86916862334E-02  0.74606005391E-01  0.51100000000E-03 0. -1.
         11    1    4    4    0    0 -0.48709704936E-01  0.28926090173E-01  0.75843824997E-02  0.57158884057E-01  0.51100000000E-03 0.  1.
</event>
<event>
 8    1  0.5489035E+004  0.1043930E+01  0.7957747E-01            NaN
         13   -1    0    0    0    0  0.00000000000E+00  0.00000000000E+00  0.74505805969E-08  0.10566000000E+00  0.10566000000E+00 0.  1.
     999900   -1    0    0    0    0 -0.00000000000E+00 -0.00000000000E+00 -0.74505805969E-08  0.93827000000E+00  0.93827000000E+00 0.  1.
     999902    2    1    2    0    0  0.10644499508E-01 -0.21968003425E-01 -0.29234245205E-02  0.10193445377E+01  0.10190480075E+01 0.  0.
     999903    2    3    3    0    0 -0.75557118895E-01  0.93195480389E-01  0.36019570537E-01  0.12681448004E+00  0.19754166757E-01 0.  0.
         14    1    1    2    0    0 -0.10644499508E-01  0.21968003425E-01  0.29234245205E-02  0.24585462273E-01  0.00000000000E+00 0. -1.
     999901    1    3    3    0    0  0.86201618403E-01 -0.11516348381E+00 -0.38942995057E-01  0.89253005769E+00  0.88000000000E+00 0. -1.
        -11    1    4    4    0    0 -0.59935039844E-01  0.60315644117E-01  0.28122740581E-01  0.89561909232E-01  0.51100000000E-03 0.  1.
         11    1    4    4    0    0 -0.15622079051E-01  0.32879836271E-01  0.78968299552E-02  0.37252570803E-01  0.51100000000E-03 0. -1.
</event>
<event>
 8    1  0.5489035E+004  0.1043930E+01  0.7957747E-01            NaN
         13   -1    0    0    0    0  0.00000000000E+00  0.00000000000E+00  0.74505805969E-08  0.10566000000E+00  0.10566000000E+00 0.  1.
     999900   -1    0    0    0    0 -0.00000000000E+00 -0.00000000000E+00 -0.74505805969E-08  0.93827000000E+00  0.93827000000E+00 0.  1.
     999902    2    1    2    0    0 -0.27308144750E-02  0.23639439313E-01 -0.25016937946E-02  0.10200022147E+01  0.10197215203E+01 0.  0.
     999903    2    3    3    0    0 -0.12001947365E+00  0.79339519778E-03  0.47126786995E-01  0.13054082855E+00  0.20363455868E-01 0.  0.
         14    1    1    2    0    0  0.27308144750E-02 -0.23639439313E-01  0.25016937946E-02  0.23927785325E-01  0.00000000000E+00 0. -1.
     999901    1    3    3    0    0  0.11728865917E+00  0.22846044115E-01 -0.49628480790E-01  0.88946138613E+00  0.88000000000E+00 0.  1.
        -11    1    4    4    0    0 -0.35559677796E-01 -0.57345659144E-02  0.65593119204E-02  0.36615046430E-01  0.51100000000E-03 0.  1.
         11    1    4    4    0    0 -0.84459795854E-01  0.65279611122E-02  0.40567475075E-01  0.93925782120E-01  0.51100000000E-03 0. -1.
</event>
<event>
 8    1  0.5489035E+004  0.1043930E+01  0.7957747E-01            NaN
         13   -1    0    0    0    0  0.00000000000E+00  0.00000000000E+00  0.74505805969E-08  0.10566000000E+00  0.10566000000E+00 0.  1.
     999900   -1    0    0    0    0 -0.00000000000E+00 -0.00000000000E+00 -0.74505805969E-08  0.93827000000E+00  0.93827000000E+00 0. -1.
     999902    2    1    2    0    0 -0.88966468403E-02 -0.11559589144E-01  0.22107004890E-01  0.10174442663E+01  0.10170994744E+01 0.  0.
     999903    2    3    3    0    0 -0.90619313886E-01  0.46165766047E-01  0.78387033314E-01  0.12998820959E+00  0.20230413630E-01 0.  0.
         14    1    1    2    0    0  0.88966468403E-02  0.11559589144E-01 -0.22107004890E-01  0.26485733733E-01  0.00000000000E+00 0. -1.
     999901    1    3    3    0    0  0.81722667046E-01 -0.57725355191E-01 -0.56280028425E-01  0.88745605668E+00  0.88000000000E+00 0. -1.
        -11    1    4    4    0    0 -0.35181541761E-01  0.73796999549E-02  0.29682744670E-01  0.46621103636E-01  0.51100000000E-03 0.  1.
         11    1    4    4    0    0 -0.55437772125E-01  0.38786066092E-01  0.48704288644E-01  0.83367105949E-01  0.51100000000E-03 0. -1.
</event>
<event>
 8    1  0.5489035E+004  0.1043930E+01  0.7957747E-01            NaN
         13   -1    0    0    0    0  0.00000000000E+00  0.00000000000E+00  0.74505805969E-08  0.10566000000E+00  0.10566000000E+00 0. -1.
     999900   -1    0    0    0    0 -0.00000000000E+00 -0.00000000000E+00 -0.74505805969E-08  0.93827000000E+00  0.93827000000E+00 0.  1.
     999902    2    1    2    0    0  0.10816585081E-01 -0.75341075362E-02  0.14401409951E-01  0.10244066320E+01  0.10242205748E+01 0.  0.
     999903    2    3    3    0    0 -0.98845118141E-01  0.53506607710E-01  0.69742318893E-01  0.13378085522E+00  0.20000293265E-01 0.  0.
         14    1    1    2    0    0 -0.10816585081E-01  0.75341075362E-02 -0.14401409951E-01  0.19523367992E-01  0.00000000000E+00 0.  1.
     999901    1    3    3    0    0  0.10966170322E+00 -0.61040715246E-01 -0.55340908942E-01  0.89062577678E+00  0.88000000000E+00 0.  1.
        -11    1    4    4    0    0 -0.61169464027E-01  0.37398076284E-01  0.33765718363E-01  0.79250894611E-01  0.51100000000E-03 0.  1.
         11    1    4    4    0    0 -0.37675654114E-01  0.16108531425E-01  0.35976600530E-01  0.54529960611E-01  0.51100000000E-03 0. -1.
</event>
<event>
 8    1  0.5489035E+004  0.1043930E+01  0.7957747E-01            NaN
         13   -1    0    0    0    0  0.00000000000E+00  0.00000000000E+00  0.74505805969E-08  0.10566000000E+00  0.10566000000E+00 0. -1.
     999900   -1    0    0    0    0 -0.00000000000E+00 -0.00000000000E+00 -0.74505805969E-08  0.93827000000E+00  0.93827000000E+00 0.  1.
     999902    2    1    2    0    0  0.19504556288E-01  0.43523657140E-02 -0.43884736684E-02  0.10234695625E+01  0.10232650271E+01 0.  0.
     999903    2    3    3    0    0  0.13290774481E+00 -0.17336059686E-01 -0.88029986826E-02  0.13591665756E+00  0.20756623540E-01 0.  0.
         14    1    1    2    0    0 -0.19504556288E-01 -0.43523657140E-02  0.43884736684E-02  0.20460437543E-01  0.00000000000E+00 0. -1.
     999901    1    3    3    0    0 -0.11340318852E+00  0.21688425400E-01  0.44145250141E-02  0.88755290490E+00  0.88000000000E+00 0. -1.
        -11    1    4    4    0    0  0.57258269022E-01 -0.16557515452E-01  0.10968231663E-02  0.59616481206E-01  0.51100000000E-03 0.  1.
         11    1    4    4    0    0  0.75649475786E-01 -0.77854423390E-03 -0.98998218489E-02  0.76300176352E-01  0.51100000000E-03 0. -1.
</event>
<event>
 8    1  0.5489035E+004  0.1043930E+01  0.7957747E-01            NaN
         13   -1    0    0    0    0  0.00000000000E+00  0.00000000000E+00  0.74505805969E-08  0.10566000000E+00  0.10566000000E+00 0. -1.
     999900   -1    0    0    0    0 -0.00000000000E+00 -0.00000000000E+00 -0.74505805969E-08  0.93827000000E+00  0.93827000000E+00 0. -1.
     999902    2    1    2    0    0 -0.20312865541E-01 -0.10439776604E-02  0.13680713622E-01  0.10194174660E+01  0.10191227138E+01 0.  0.
     999903    2    3    3    0    0  0.10603130003E+00 -0.67063279978E-01 -0.12038973720E-01  0.12757504792E+00  0.19756919145E-01 0.  0.
         14    1    1    2    0    0  0.20312865541E-01  0.10439776604E-02 -0.13680713622E-01  0.24512533958E-01  0.00000000000E+00 0.  1.
     999901    1    3    3    0    0 -0.12634416557E+00  0.66019302318E-01  0.25719687342E-01  0.89184241813E+00  0.88000000000E+00 0.  1.
        -11    1    4    4    0    0  0.46687629358E-01 -0.32255073415E-01  0.41344852111E-02  0.56898853987E-01  0.51100000000E-03 0.  1.
         11    1    4    4    0    0  0.59343670675E-01 -0.34808206564E-01 -0.16173458931E-01  0.70676193928E-01  0.51100000000E-03 0. -1.
</event>
<event>
 8    1  0.5489035E+004  0.1043930E+01  0.7957747E-01            NaN
         13   -1    0    0    0    0  0.00000000000E+00  0.00000000000E+00  0.74505805969E-08  0.10566000000E+00  0.10566000000E+00 0.  1.
     999900   -1    0    0    0    0 -0.00000000000E+00 -0.00000000000E+00 -0.74505805969E-08  0.93827000000E+00  0.93827000000E+00 0. -1.
     999902    2    1    2    0    0 -0.16470441612E-01  0.17120013504E-01 -0.17830778072E-02  0.10201066989E+01  0.10198284794E+01 0.  0.
     999903    2    3    3    0    0 -0.88655198967E-01  0.30114919300E-01 -0.91407403213E-01  0.13251894184E+00  0.20959578110E-01 0.  0.
         14    1    1    2    0    0  0.16470441612E-01 -0.17120013504E-01  0.17830778072E-02  0.23823301109E-01  0.00000000000E+00 0. -1.
     999901    1    3    3    0    0  0.72184757355E-01 -0.12994905796E-01  0.89624325406E-01  0.88758775706E+00  0.88000000000E+00 0. -1.
        -11    1    4    4    0    0 -0.79542407475E-01  0.24228757330E-01 -0.70739430846E-01  0.10917122087E+00  0.51100000000E-03 0.  1.
         11    1    4    4    0    0 -0.91127914919E-02  0.58861619707E-02 -0.20667972367E-01  0.23347720966E-01  0.51100000000E-03 0. -1.
</event>
<event>
 8    1  0.5489035E+004  0.1043930E+01  0.7957747E-01            NaN
         13   -1    0    0    0    0  0.00000000000E+00  0.00000000000E+00  0.74505805969E-08  0.10566000000E+00  0.10566000000E+00 0. -1.
     999900   -1    0    0    0    0 -0.00000000000E+00 -0.00000000000E+00 -0.74505805969E-08  0.93827000000E+00  0.93827000000E+00 0.  1.
     999902    2    1    2    0    0 -0.98793148998E-02 -0.14900331566E-01  0.17189980019E-01  0.10191284646E+01  0.10188266345E+01 0.  0.
     999903    2    3    3    0    0  0.41127390785E-02  0.11133320484E+00 -0.57401866480E-01  0.12688711452E+00  0.19833517925E-01 0.  0.
         14    1    1    2    0    0  0.98793148998E-02  0.14900331566E-01 -0.17189980019E-01  0.24801535370E-01  0.00000000000E+00 0.  1.
     999901    1    3    3    0    0 -0.13992053978E-01 -0.12623353640E+00  0.74591846499E-01  0.89224135011E+00  0.88000000000E+00 0. -1.
        -11    1    4    4    0    0 -0.36602389316E-02  0.89113203280E-01 -0.40812451712E-01  0.98084033785E-01  0.51100000000E-03 0.  1.
         11    1    4    4    0    0  0.77729780101E-02  0.22220001556E-01 -0.16589414768E-01  0.28803080732E-01  0.51100000000E-03 0. -1.
</event>
<event>
 8    1  0.5489035E+004  0.1043930E+01  0.7957747E-01            NaN
         13   -1    0    0    0    0  0.00000000000E+00  0.00000000000E+00  0.74505805969E-08  0.10566000000E+00  0.10566000000E+00 0.  1.
     999900   -1    0    0    0    0 -0.00000000000E+00 -0.00000000000E+00 -0.74505805969E-08  0.93827000000E+00  0.93827000000E+00 0.  1.
     999902    2    1    2    0    0 -0.81378779708E-02  0.24172725561E-01 -0.23710428213E-02  0.10183142321E+01  0.10179919979E+01 0.  0.
     999903    2    3    3    0    0  0.10919741001E+00  0.50878790636E-01  0.41704219292E-01  0.12903170536E+00  0.19930212999E-01 0.  0.
         14    1    1    2    0    0  0.81378779708E-02 -0.24172725561E-01  0.23710428213E-02  0.25615767858E-01  0.00000000000E+00 0.  1.
     999901    1    3    3    0    0 -0.11733528798E+00 -0.26706065075E-01 -0.44075262113E-01  0.88928252679E+00  0.88000000000E+00 0. -1.
        -11    1    4    4    0    0  0.80123919432E-01  0.36077439017E-01  0.20864964890E-01  0.90316288409E-01  0.51100000000E-03 0.  1.
         11    1    4    4    0    0  0.29073490580E-01  0.14801351618E-01  0.20839254402E-01  0.38715416946E-01  0.51100000000E-03 0. -1.
</event>
<event>
 8    1  0.5489035E+004  0.1043930E+01  0.7957747E-01            NaN
         13   -1    0    0    0    0  0.00000000000E+00  0.00000000000E+00  0.74505805969E-08  0.10566000000E+00  0.10566000000E+00 0.  1.
     999900   -1    0    0    0    0 -0.00000000000E+00 -0.00000000000E+00 -0.74505805969E-08  0.93827000000E+00  0.93827000000E+00 0.  1.
     999902    2    1    2    0    0  0.12184036453E-01 -0.25883200616E-01 -0.91641160337E-03  0.10153077948E+01  0.10149042751E+01 0.  0.
     999903    2    3    3    0    0 -0.14677025887E-01 -0.75448016341E-01  0.10016312196E+00  0.12772948294E+00  0.19348166673E-01 0.  0.
         14    1    1    2    0    0 -0.12184036453E-01  0.25883200616E-01  0.91641160337E-03  0.28622205167E-01  0.00000000000E+00 0.  1.
     999901    1    3    3    0    0  0.26861062339E-01  0.49564815725E-01 -0.10107953356E+00  0.88757831189E+00  0.88000000000E+00 0.  1.
        -11    1    4    4    0    0 -0.28834617583E-02 -0.49331130073E-01  0.52399707000E-01  0.72026836392E-01  0.51100000000E-03 0. -1.
         11    1    4    4    0    0 -0.11793564128E-01 -0.26116886269E-01  0.47763414962E-01  0.55702646553E-01  0.51100000000E-03 0.  1.
</event>
<event>
 8    1  0.5489035E+004  0.1043930E+01  0.7957747E-01            NaN
         13   -1    0    0    0    0  0.00000000000E+00  0.00000000000E+00  0.74505805969E-08  0.10566000000E+00  0.10566000000E+00 0. -1.
     999900   -1    0    0    0    0 -0.00000000000E+00 -0.00000000000E+00 -0.74505805969E-08  0.93827000000E+00  0.93827000000E+00 0.  1.
     999902    2    1    2    0    0 -0.10956359291E-01 -0.19897482375E-01 -0.66034885273E-02  0.10202750285E+01  0.10200007726E+01 0.  0.
     999903    2    3    3    0    0 -0.73835138294E-01  0.32100696029E-02  0.10577392697E+00  0.13060296350E+00  0.20176180389E-01 0.  0.
         14    1    1    2    0    0  0.10956359291E-01  0.19897482375E-01  0.66034885273E-02  0.23654971454E-01  0.00000000000E+00 0.  1.
     999901    1    3    3    0    0  0.62878779003E-01 -0.23107551978E-01 -0.11237741550E+00  0.88967206504E+00  0.88000000000E+00 0.  1.
        -11    1    4    4    0    0 -0.57566936215E-01 -0.54118572420E-02  0.74479291147E-01  0.94290329699E-01  0.51100000000E-03 0. -1.
         11    1    4    4    0    0 -0.16268202078E-01  0.86219268449E-02  0.31294635823E-01  0.36312633802E-01  0.51100000000E-03 0.  1.
</event>
<event>
 8    1  0.5489035E+004  0.1043930E+01  0.7957747E-01            NaN
         13   -1    0    0    0    0  0.00000000000E+00  0.00000000000E+00  0.74505805969E-08  0.10566000000E+00  0.10566000000E+00 0. -1.
     999900   -1    0    0    0    0 -0.00000000000E+00 -0.00000000000E+00 -0.74505805969E-08  0.93827000000E+00  0.93827000000E+00 0. -1.
     999902    2    1    2    0    0  0.56877450357E-02  0.10653823939E-01 -0.20762750340E-01  0.10199102954E+01  0.10196274145E+01 0.  0.
     999903    2    3    3    0    0  0.51262694016E-01 -0.17169156284E-01 -0.11956343666E+00  0.13277289350E+00  0.20262826488E-01 0.  0.
         14    1    1    2    0    0 -0.56877450357E-02 -0.10653823939E-01  0.20762750340E-01  0.24019704615E-01  0.00000000000E+00 0. -1.
     999901    1    3    3    0    0 -0.45574948981E-01  0.27822980223E-01  0.98800686321E-01  0.88713740188E+00  0.88000000000E+00 0.  1.
        -11    1    4    4    0    0  0.21438103066E-01 -0.14599547378E-01 -0.39134105075E-01  0.46951872675E-01  0.51100000000E-03 0. -1.
         11    1    4    4    0    0  0.29824590951E-01 -0.25696089064E-02 -0.80429331586E-01  0.85821020826E-01  0.51100000000E-03 0.  1.
</event>
<event>
 8    1  0.5489035E+004  0.1043930E+01  0.7957747E-01            NaN
         13   -1    0    0    0    0  0.00000000000E+00  0.00000000000E+00  0.74505805969E-08  0.10566000000E+00  0.10566000000E+00 0.  1.
     999900   -1    0    0    0    0 -0.00000000000E+00 -0.00000000000E+00 -0.74505805969E-08  0.93827000000E+00  0.93827000000E+00 0. -1.
     999902    2    1    2    0    0  0.11193624371E-01  0.16755188482E-01 -0.12727668291E-01  0.10200966807E+01  0.10198182244E+01 0.  0.
     999903    2    3    3    0    0  0.13002999628E+00  0.69244695152E-02  0.36187998718E-02  0.13190417155E+00  0.20733223371E-01 0.  0.
         14    1    1    2    0    0 -0.11193624371E-01 -0.16755188482E-01  0.12727668291E-01  0.23833319277E-01  0.00000000000E+00 0.  1.
     999901    1    3    3    0    0 -0.11883637191E+00  0.98307189669E-02 -0.16346468163E-01  0.88819250917E+00  0.88000000000E+00 0.  1.
        -11    1    4    4    0    0  0.66658735092E-01  0.13889893219E-01  0.11827616159E-02  0.68102688227E-01  0.51100000000E-03 0.  1.
         11    1    4    4    0    0  0.63371261183E-01 -0.69654237034E-02  0.24360382559E-02  0.63801483327E-01  0.51100000000E-03 0. -1.
</event>
<event>
 8    1  0.5489035E+004  0.1043930E+01  0.7957747E-01            NaN
         13   -1    0    0    0    0  0.00000000000E+00  0.00000000000E+00  0.74505805969E-08  0.10566000000E+00  0.10566000000E+00 0. -1.
     999900   -1    0    0    0    0 -0.00000000000E+00 -0.00000000000E+00 -0.74505805969E-08  0.93827000000E+00  0.93827000000E+00 0. -1.
     999902    2    1    2    0    0 -0.15437832054E-01 -0.11932801123E-01 -0.13713225073E-01  0.10200810809E+01  0.10198022557E+01 0.  0.
     999903    2    3    3    0    0 -0.11920140985E+00  0.49521852174E-01  0.14496505649E-01  0.13140828204E+00  0.19914767383E-01 0.  0.
         14    1    1    2    0    0  0.15437832054E-01  0.11932801123E-01  0.13713225073E-01  0.23848919118E-01  0.00000000000E+00 0.  1.
     999901    1    3    3    0    0  0.10376357780E+00 -0.61454653296E-01 -0.28209730723E-01  0.88867279884E+00  0.88000000000E+00 0. -1.
        -11    1    4    4    0    0 -0.73434826523E-01  0.20939200225E-01  0.42408776321E-02  0.76481174262E-01  0.51100000000E-03 0. -1.
         11    1    4    4    0    0 -0.45766583330E-01  0.28582651949E-01  0.10255628017E-01  0.54927107781E-01  0.51100000000E-03 0.  1.
</event>
<event>
 8    1  0.5489035E+004  0.1043930E+01  0.7957747E-01            NaN
         13   -1    0    0    0    0  0.00000000000E+00  0.00000000000E+00  0.74505805969E-08  0.10566000000E+00  0.10566000000E+00 0.  1.
     999900   -1    0    0    0    0 -0.00000000000E+00 -0.00000000000E+00 -0.74505805969E-08  0.93827000000E+00  0.93827000000E+00 0.  1.
     999902    2    1    2    0    0  0.65278180943E-02  0.81084258418E-03  0.21714903471E-01  0.10212406433E+01  0.10209885624E+01 0.  0.
     999903    2    3    3    0    0 -0.67326195233E-01 -0.10060364070E+00  0.48511157319E-01  0.13193903421E+00  0.20016675016E-01 0.  0.
         14    1    1    2    0    0 -0.65278180943E-02 -0.81084258418E-03 -0.21714903471E-01  0.22689356701E-01  0.00000000000E+00 0. -1.
     999901    1    3    3    0    0  0.73854013327E-01  0.10141448328E+00 -0.26796253848E-01  0.88930160909E+00  0.88000000000E+00 0.  1.
        -11    1    4    4    0    0 -0.44761546935E-01 -0.61229573197E-01  0.40050641257E-01  0.85772791164E-01  0.51100000000E-03 0. -1.
         11    1    4    4    0    0 -0.22564648297E-01 -0.39374067499E-01  0.84605160622E-02  0.46166243049E-01  0.51100000000E-03 0.  1.
</event>
<event>
 8    1  0.5489035E+004  0.1043930E+01  0.7957747E-01            NaN
         13   -1    0    0    0    0  0.00000000000E+00  0.00000000000E+00  0.74505805969E-08  0.10566000000E+00  0.10566000000E+00 0. -1.
     999900   -1    0    0    0    0 -0.00000000000E+00 -0.00000000000E+00 -0.74505805969E-08  0.93827000000E+00  0.93827000000E+00 0.  1.
     999902    2    1    2    0    0 -0.55053476456E-02  0.78165269895E-02 -0.21928683386E-01  0.10200077488E+01  0.10197271858E+01 0.  0.
     999903    2    3    3    0    0 -0.85294945623E-01 -0.14005270410E-01  0.93470477457E-01  0.12862705735E+00  0.18352503322E-01 0.  0.
         14    1    1    2    0    0  0.55053476456E-02 -0.78165269895E-02  0.21928683386E-01  0.23922251189E-01  0.00000000000E+00 0. -1.
     999901    1    3    3    0    0  0.79789597978E-01  0.21821797400E-01 -0.11539916084E+00  0.89138069146E+00  0.88000000000E+00 0.  1.
        -11    1    4    4    0    0 -0.25533987170E-01  0.27817102744E-02  0.34426682702E-01  0.42955558612E-01  0.51100000000E-03 0.  1.
         11    1    4    4    0    0 -0.59760958454E-01 -0.16786980684E-01  0.59043794755E-01  0.85671498737E-01  0.51100000000E-03 0. -1.
</event>
<event>
 8    1  0.5489035E+004  0.1043930E+01  0.7957747E-01            NaN
         13   -1    0    0    0    0  0.00000000000E+00  0.00000000000E+00  0.74505805969E-08  0.10566000000E+00  0.10566000000E+00 0.  1.
     999900   -1    0    0    0    0 -0.00000000000E+00 -0.00000000000E+00 -0.74505805969E-08  0.93827000000E+00  0.93827000000E+00 0.  1.
     999902    2    1    2    0    0 -0.99147599405E-02 -0.20060369952E-01  0.88204009839E-02  0.10198775494E+01  0.10195938875E+01 0.  0.
     999903    2    3    3    0    0  0.18408174513E-01  0.85718450950E-01 -0.90614859083E-01  0.12753304275E+00  0.19160130078E-01 0.  0.
         14    1    1    2    0    0  0.99147599405E-02  0.20060369952E-01 -0.88204009839E-02  0.24052450619E-01  0.00000000000E+00 0. -1.
     999901    1    3    3    0    0 -0.28322934453E-01 -0.10577882090E+00  0.99435260067E-01  0.89234450663E+00  0.88000000000E+00 0. -1.
        -11    1    4    4    0    0  0.16868847096E-01  0.59301442991E-01 -0.73845134155E-01  0.96200748971E-01  0.51100000000E-03 0.  1.
         11    1    4    4    0    0  0.15393274171E-02  0.26417007958E-01 -0.16769724928E-01  0.31332293780E-01  0.51100000000E-03 0. -1.
</event>
<event>
 8    1  0.5489035E+004  0.1043930E+01  0.7957747E-01            NaN
         13   -1    0    0    0    0  0.00000000000E+00  0.00000000000E+00  0.74505805969E-08  0.10566000000E+00  0.10566000000E+00 0. -1.
     999900   -1    0    0    0    0 -0.00000000000E+00 -0.00000000000E+00 -0.74505805969E-08  0.93827000000E+00  0.93827000000E+00 0.  1.
     999902    2    1    2    0    0 -0.36953451813E-02  0.14508301493E-01  0.16826573880E-01  0.10214071233E+01  0.10211587690E+01 0.  0.
     999903    2    3    3    0    0 -0.70435638320E-01  0.10576272039E+00  0.36961636282E-01  0.13394610640E+00  0.20699388763E-01 0.  0.
         14    1    1    2    0    0  0.36953451813E-02 -0.14508301493E-01 -0.16826573880E-01  0.22522876742E-01  0.00000000000E+00 0. -1.
     999901    1    3    3    0    0  0.66740293138E-01 -0.91254418894E-01 -0.20135062403E-01  0.88746101685E+00  0.88000000000E+00 0. -1.
        -11    1    4    4    0    0 -0.24541015642E-01  0.49498379737E-01  0.23772507941E-01  0.60147687404E-01  0.51100000000E-03 0.  1.
         11    1    4    4    0    0 -0.45894622678E-01  0.56264340650E-01  0.13189128342E-01  0.73798419001E-01  0.51100000000E-03 0. -1.
</event>
<event>
 8    1  0.5489035E+004  0.1043930E+01  0.7957747E-01            NaN
         13   -1    0    0    0    0  0.00000000000E+00  0.00000000000E+00  0.74505805969E-08  0.10566000000E+00  0.10566000000E+00 0. -1.
     999900   -1    0    0    0    0 -0.00000000000E+00 -0.00000000000E+00 -0.74505805969E-08  0.93827000000E+00  0.93827000000E+00 0.  1.
     999902    2    1    2    0    0  0.26189898019E-02  0.12518581555E-01  0.20929692583E-01  0.10194019340E+01  0.10191068035E+01 0.  0.
     999903    2    3    3    0    0 -0.15627919965E-01 -0.11415983575E+00 -0.48912634864E-01  0.12740511680E+00  0.23725892150E-01 0.  0.
         14    1    1    2    0    0 -0.26189898019E-02 -0.12518581555E-01 -0.20929692583E-01  0.24528066034E-01  0.00000000000E+00 0.  1.
     999901    1    3    3    0    0  0.18246909767E-01  0.12667841730E+00  0.69842327447E-01  0.89199681716E+00  0.88000000000E+00 0. -1.
        -11    1    4    4    0    0 -0.14302467846E-01 -0.95297409155E-01 -0.49790443368E-01  0.10846891790E+00  0.51100000000E-03 0.  1.
         11    1    4    4    0    0 -0.13254521184E-02 -0.18862426590E-01  0.87780850386E-03  0.18936198905E-01  0.51100000000E-03 0. -1.
</event>
<event>
 8    1  0.5489035E+004  0.1043930E+01  0.7957747E-01            NaN
         13   -1    0    0    0    0  0.00000000000E+00  0.00000000000E+00  0.74505805969E-08  0.10566000000E+00  0.10566000000E+00 0.  1.
     999900   -1    0    0    0    0 -0.00000000000E+00 -0.00000000000E+00 -0.74505805969E-08  0.93827000000E+00  0.93827000000E+00 0.  1.
     999902    2    1    2    0    0  0.12247343149E-01  0.18946644310E-01  0.75900915889E-02  0.10201270121E+01  0.10198492724E+01 0.  0.
     999903    2    3    3    0    0 -0.47681684722E-01  0.75256435773E-01  0.95187182765E-01  0.13196287667E+00  0.20408990018E-01 0.  0.
         14    1    1    2    0    0 -0.12247343149E-01 -0.18946644310E-01 -0.75900915889E-02  0.23802987946E-01  0.00000000000E+00 0.  1.
     999901    1    3    3    0    0  0.59929027871E-01 -0.56309791463E-01 -0.87597091176E-01  0.88816413538E+00  0.88000000000E+00 0. -1.
        -11    1    4    4    0    0 -0.25970437091E-01  0.57243719352E-01  0.70686927686E-01  0.94594978062E-01  0.51100000000E-03 0.  1.
         11    1    4    4    0    0 -0.21711247631E-01  0.18012716422E-01  0.24500255080E-01  0.37367898610E-01  0.51100000000E-03 0. -1.
</event>
<event>
 8    1  0.5489035E+004  0.1043930E+01  0.7957747E-01            NaN
         13   -1    0    0    0    0  0.00000000000E+00  0.00000000000E+00  0.74505805969E-08  0.10566000000E+00  0.10566000000E+00 0.  1.
     999900   -1    0    0    0    0 -0.00000000000E+00 -0.00000000000E+00 -0.74505805969E-08  0.93827000000E+00  0.93827000000E+00 0.  1.
     999902    2    1    2    0    0 -0.19724880793E-02 -0.11460575256E-01 -0.22890027485E-01  0.10182553266E+01  0.10179315897E+01 0.  0.
     999903    2    3    3    0    0 -0.95733255953E-01 -0.52871775446E-01 -0.69447601176E-01  0.13108365397E+00  0.19991850746E-01 0.  0.
         14    1    1    2    0    0  0.19724880793E-02  0.11460575256E-01  0.22890027485E-01  0.25674673370E-01  0.00000000000E+00 0.  1.
     999901    1    3    3    0    0  0.93760767873E-01  0.41411200190E-01  0.46557573691E-01  0.88717167265E+00  0.88000000000E+00 0.  1.
        -11    1    4    4    0    0 -0.25108264351E-01 -0.14597217949E-01 -0.29377113347E-01  0.41313189421E-01  0.51100000000E-03 0. -1.
         11    1    4    4    0    0 -0.70624991602E-01 -0.38274557497E-01 -0.40070487829E-01  0.89770464554E-01  0.51100000000E-03 0.  1.
</event>
<event>
 8    1  0.5489035E+004  0.1043930E+01  0.7957747E-01            NaN
         13   -1    0    0    0    0  0.00000000000E+00  0.00000000000E+00  0.74505805969E-08  0.10566000000E+00  0.10566000000E+00 0. -1.
     999900   -1    0    0    0    0 -0.00000000000E+00 -0.00000000000E+00 -0.74505805969E-08  0.93827000000E+00  0.93827000000E+00 0.  1.
     999902    2    1    2    0    0 -0.40184890904E-02  0.75069102453E-02 -0.22435312002E-01  0.10199332256E+01  0.10196508910E+01 0.  0.
     999903    2    3    3    0    0 -0.43671896756E-01  0.11446633443E+00 -0.46129452588E-01  0.13225416005E+00  0.18800536422E-01 0.  0.
         14    1    1    2    0    0  0.40184890904E-02 -0.75069102453E-02  0.22435312002E-01  0.23996774380E-01  0.00000000000E+00 0. -1.
     999901    1    3    3    0    0  0.39653407666E-01 -0.10695942418E+00  0.23694140586E-01  0.88767906557E+00  0.88000000000E+00 0.  1.
        -11    1    4    4    0    0 -0.46497282378E-02  0.30534295147E-01 -0.16765370656E-01  0.35146862265E-01  0.51100000000E-03 0. -1.
         11    1    4    4    0    0 -0.39022168518E-01  0.83932039280E-01 -0.29364081933E-01  0.97107297781E-01  0.51100000000E-03 0.  1.
</event>
<event>
 8    1  0.5489035E+004  0.1043930E+01  0.7957747E-01            NaN
         13   -1    0    0    0    0  0.00000000000E+00  0.00000000000E+00  0.74505805969E-08  0.10566000000E+00  0.10566000000E+00 0. -1.
     999900   -1    0    0    0    0 -0.00000000000E+00 -0.00000000000E+00 -0.74505805969E-08  0.93827000000E+00  0.93827000000E+00 0. -1.
     999902    2    1    2    0    0 -0.19135895128E-01 -0.80486625224E-02  0.92045447430E-02  0.10212212551E+01  0.10209687384E+01 0.  0.
     999903    2    3    3    0    0  0.89814080437E-01 -0.30298088071E-01 -0.85783743302E-01  0.12915180210E+00  0.18351953206E-01 0.  0.
         14    1    1    2    0    0  0.19135895128E-01  0.80486625224E-02 -0.92045447430E-02  0.22708744894E-01  0.00000000000E+00 0.  1.
     999901    1    3    3    0    0 -0.10894997556E+00  0.22249425548E-01  0.94988288045E-01  0.89206945300E+00  0.88000000000E+00 0. -1.
        -11    1    4    4    0    0  0.82742673115E-01 -0.22368094399E-01 -0.78760642498E-01  0.11640524700E+00  0.51100000000E-03 0.  1.
         11    1    4    4    0    0  0.70714073220E-02 -0.79299936720E-02 -0.70231008036E-02  0.12746555105E-01  0.51100000000E-03 0. -1.
</event>
<event>
 8    1  0.5489035E+004  0.1043930E+01  0.7957747E-01            NaN
         13   -1    0    0    0    0  0.00000000000E+00  0.00000000000E+00  0.74505805969E-08  0.10566000000E+00  0.10566000000E+00 0.  1.
     999900   -1    0    0    0    0 -0.00000000000E+00 -0.00000000000E+00 -0.74505805969E-08  0.93827000000E+00  0.93827000000E+00 0. -1.
     999902    2    1    2    0    0  0.20270374772E-01 -0.10645373264E-01  0.10409351684E-01  0.10187791219E+01  0.10184686213E+01 0.  0.
     999903    2    3    3    0    0 -0.78278681892E-01  0.47772053814E-01  0.87012172294E-01  0.12805329179E+00  0.20415833213E-01 0.  0.
         14    1    1    2    0    0 -0.20270374772E-01  0.10645373264E-01 -0.10409351684E-01  0.25150878072E-01  0.00000000000E+00 0. -1.
     999901    1    3    3    0    0  0.98549056664E-01 -0.58417427077E-01 -0.76602820610E-01  0.89072583014E+00  0.88000000000E+00 0. -1.
        -11    1    4    4    0    0 -0.42386768216E-01  0.18400544923E-01  0.54273872592E-01  0.71282063244E-01  0.51100000000E-03 0.  1.
         11    1    4    4    0    0 -0.35891913676E-01  0.29371508891E-01  0.32738299703E-01  0.56771228542E-01  0.51100000000E-03 0. -1.
</event>
<event>
 8    1  0.5489035E+004  0.1043930E+01  0.7957747E-01            NaN
         13   -1    0    0    0    0  0.00000000000E+00  0.00000000000E+00  0.74505805969E-08  0.10566000000E+00  0.10566000000E+00 0.  1.
     999900   -1    0    0    0    0 -0.00000000000E+00 -0.00000000000E+00 -0.74505805969E-08  0.93827000000E+00  0.93827000000E+00 0.  1.
     999902    2    1    2    0    0  0.19871131131E-01 -0.11506702699E-01  0.56013198188E-02  0.10202944157E+01  0.10200206145E+01 0.  0.
     999903    2    3    3    0    0  0.14542033354E-01 -0.58136345061E-03  0.12925201223E+00  0.13156652935E+00  0.19795460660E-01 0.  0.
         14    1    1    2    0    0 -0.19871131131E-01  0.11506702699E-01 -0.56013198188E-02  0.23635584256E-01  0.00000000000E+00 0. -1.
     999901    1    3    3    0    0  0.53290977770E-02 -0.10925339248E-01 -0.12365069241E+00  0.88872788639E+00  0.88000000000E+00 0.  1.
        -11    1    4    4    0    0  0.10135797230E-01  0.80568739980E-02  0.47356413422E-01  0.49097236351E-01  0.51100000000E-03 0.  1.
         11    1    4    4    0    0  0.44062361243E-02 -0.86382374486E-02  0.81895598806E-01  0.82469292999E-01  0.51100000000E-03 0. -1.
</event>
<event>
 8    1  0.5489035E+004  0.1043930E+01  0.7957747E-01            NaN
         13   -1    0    0    0    0  0.00000000000E+00  0.00000000000E+00  0.74505805969E-08  0.10566000000E+00  0.10566000000E+00 0. -1.
     999900   -1    0    0    0    0 -0.00000000000E+00 -0.00000000000E+00 -0.74505805969E-08  0.93827000000E+00  0.93827000000E+00 0. -1.
     999902    2    1    2    0    0  0.89239329060E-02 -0.12658800625E-01  0.18346045695E-01  0.10199204351E+01  0.10196377959E+01 0.  0.
     999903    2    3    3    0    0  0.83099116663E-01  0.62973815021E-01  0.77564644590E-01  0.13159105204E+00  0.20706673281E-01 0.  0.
         14    1    1    2    0    0 -0.89239329060E-02  0.12658800625E-01 -0.18346045695E-01  0.24009564852E-01  0.00000000000E+00 0.  1.
     999901    1    3    3    0    0 -0.74175183757E-01 -0.75632615646E-01 -0.59218598895E-01  0.88832938311E+00  0.88000000000E+00 0. -1.
        -11    1    4    4    0    0  0.26697973578E-01  0.32456220083E-01  0.34053613135E-01  0.54093416455E-01  0.51100000000E-03 0. -1.
         11    1    4    4    0    0  0.56401143085E-01  0.30517594938E-01  0.43511031455E-01  0.77497635586E-01  0.51100000000E-03 0.  1.
</event>
<event>
 8    1  0.5489035E+004  0.1043930E+01  0.7957747E-01            NaN
         13   -1    0    0    0    0  0.00000000000E+00  0.00000000000E+00  0.74505805969E-08  0.10566000000E+00  0.10566000000E+00 0. -1.
     999900   -1    0    0    0    0 -0.00000000000E+00 -0.00000000000E+00 -0.74505805969E-08  0.93827000000E+00  0.93827000000E+00 0. -1.
     999902    2    1    2    0    0 -0.17796386935E-01  0.13951516484E-01 -0.50083680467E-02  0.10207688267E+01  0.10205060301E+01 0.  0.
     999903    2    3    3    0    0  0.10381933505E-01  0.10880762443E+00  0.71526042832E-01  0.13192169975E+00  0.18452002200E-01 0.  0.
         14    1    1    2    0    0  0.17796386935E-01 -0.13951516484E-01  0.50083680467E-02  0.23161173344E-01  0.00000000000E+00 0. -1.
     999901    1    3    3    0    0 -0.28178320440E-01 -0.94856107944E-01 -0.76534410878E-01  0.88884712690E+00  0.88000000000E+00 0. -1.
        -11    1    4    4    0    0  0.68706159755E-03  0.56518138531E-01  0.27396050882E-01  0.62813826197E-01  0.51100000000E-03 0. -1.
         11    1    4    4    0    0  0.96948719073E-02  0.52289485898E-01  0.44129991950E-01  0.69107873555E-01  0.51100000000E-03 0.  1.
</event>
<event>
 8    1  0.5489035E+004  0.1043930E+01  0.7957747E-01            NaN
         13   -1    0    0    0    0  0.00000000000E+00  0.00000000000E+00  0.74505805969E-08  0.10566000000E+00  0.10566000000E+00 0.  1.
     999900   -1    0    0    0    0 -0.00000000000E+00 -0.00000000000E+00 -0.74505805969E-08  0.93827000000E+00  0.93827000000E+00 0. -1.
     999902    2    1    2    0    0  0.16022591291E-01  0.16002371042E-01 -0.36594467701E-02  0.10209911495E+01  0.10207334307E+01 0.  0.
     999903    2    3    3    0    0 -0.28952191738E-01  0.76539655894E-01 -0.10206053235E+00  0.13230095175E+00  0.19764646205E-01 0.  0.
         14    1    1    2    0    0 -0.16022591291E-01 -0.16002371042E-01  0.36594467701E-02  0.22938850479E-01  0.00000000000E+00 0. -1.
     999901    1    3    3    0    0  0.44974783028E-01 -0.60537284852E-01  0.98401085584E-01  0.88869019777E+00  0.88000000000E+00 0.  1.
        -11    1    4    4    0    0 -0.17741155739E-01  0.27976354344E-01 -0.52002793972E-01  0.61660171190E-01  0.51100000000E-03 0. -1.
         11    1    4    4    0    0 -0.11211035999E-01  0.48563301549E-01 -0.50057738382E-01  0.70640780563E-01  0.51100000000E-03 0.  1.
</event>
<event>
 8    1  0.5489035E+004  0.1043930E+01  0.7957747E-01            NaN
         13   -1    0    0    0    0  0.00000000000E+00  0.00000000000E+00  0.74505805969E-08  0.10566000000E+00  0.10566000000E+00 0.  1.
     999900   -1    0    0    0    0 -0.00000000000E+00 -0.00000000000E+00 -0.74505805969E-08  0.93827000000E+00  0.93827000000E+00 0.  1.
     999902    2    1    2    0    0 -0.66404494061E-02 -0.56264822726E-02  0.22023047317E-01  0.10202494704E+01  0.10199746145E+01 0.  0.
     999903    2    3    3    0    0  0.12015101492E+00 -0.40176711442E-01  0.24572386829E-01  0.13048753990E+00  0.19307028424E-01 0.  0.
         14    1    1    2    0    0  0.66404494061E-02  0.56264822726E-02 -0.22023047317E-01  0.23680529644E-01  0.00000000000E+00 0. -1.
     999901    1    3    3    0    0 -0.12679146432E+00  0.34550229170E-01 -0.25493395121E-02  0.88976193046E+00  0.88000000000E+00 0. -1.
        -11    1    4    4    0    0  0.44723660008E-01 -0.14768169863E-01  0.18698790904E-01  0.50677514815E-01  0.51100000000E-03 0.  1.
         11    1    4    4    0    0  0.75427354908E-01 -0.25408541579E-01  0.58735959251E-02  0.79810025083E-01  0.51100000000E-03 0. -1.
</event>
<event>
 8    1  0.5489035E+004  0.1043930E+01  0.7957747E-01            NaN
         13   -1    0    0    0    0  0.00000000000E+00  0.00000000000E+00  0.74505805969E-08  0.10566000000E+00  0.10566000000E+00 0.  1.
     999900   -1    0    0    0    0 -0.00000000000E+00 -0.00000000000E+00 -0.74505805969E-08  0.93827000000E+00  0.93827000000E+00 0.  1.
     999902    2    1    2    0    0  0.70349697209E-02  0.12579119991E-01  0.12963291533E-01  0.10245451609E+01  0.10243617597E+01 0.  0.
     999903    2    3    3    0    0 -0.12937840668E+00 -0.69347393650E-02  0.26253996029E-01  0.13372192212E+00  0.20134980048E-01 0.  0.
         14    1    1    2    0    0 -0.70349697209E-02 -0.12579119991E-01 -0.12963291533E-01  0.19384839078E-01  0.00000000000E+00 0. -1.
     999901    1    3    3    0    0  0.13641337640E+00  0.19513859356E-01 -0.13290704496E-01  0.89082323880E+00  0.88000000000E+00 0.  1.
        -11    1    4    4    0    0 -0.46686873230E-01 -0.37655078536E-02  0.19349905004E-01  0.50680599109E-01  0.51100000000E-03 0. -1.
         11    1    4    4    0    0 -0.82691533452E-01 -0.31692315114E-02  0.69040910248E-02  0.83041323008E-01  0.51100000000E-03 0.  1.
</event>
<event>
 8    1  0.5489035E+004  0.1043930E+01  0.7957747E-01            NaN
         13   -1    0    0    0    0  0.00000000000E+00  0.00000000000E+00  0.74505805969E-08  0.10566000000E+00  0.10566000000E+00 0. -1.
     999900   -1    0    0    0    0 -0.00000000000E+00 -0.00000000000E+00 -0.74505805969E-08  0.93827000000E+00  0.93827000000E+00 0.  1.
     999902    2    1    2    0    0 -0.10292153051E-01  0.21238787667E-02  0.20784582169E-01  0.10206396988E+01  0.10203739298E+01 0.  0.
     999903    2    3    3    0    0 -0.23875020978E-01 -0.11024611861E+00 -0.60580866690E-01  0.12966728232E+00  0.20477778162E-01 0.  0.
         14    1    1    2    0    0  0.10292153051E-01 -0.21238787667E-02 -0.20784582169E-01  0.23290301230E-01  0.00000000000E+00 0.  1.
     999901    1    3    3    0    0  0.13582867927E-01  0.11236999738E+00  0.81365448859E-01  0.89097241645E+00  0.88000000000E+00 0. -1.
        -11    1    4    4    0    0 -0.58169303543E-02 -0.58134970583E-01 -0.39957118729E-01  0.70783783041E-01  0.51100000000E-03 0.  1.
         11    1    4    4    0    0 -0.18058090624E-01 -0.52111148030E-01 -0.20623747961E-01  0.58883499275E-01  0.51100000000E-03 0. -1.
</event>
<event>
 8    1  0.5489035E+004  0.1043930E+01  0.7957747E-01            NaN
         13   -1    0    0    0    0  0.00000000000E+00  0.00000000000E+00  0.74505805969E-08  0.10566000000E+00  0.10566000000E+00 0. -1.
     999900   -1    0    0    0    0 -0.00000000000E+00 -0.00000000000E+00 -0.74505805969E-08  0.93827000000E+00  0.93827000000E+00 0. -1.
     999902    2    1    2    0    0 -0.14657458682E-01  0.83661156446E-02  0.14389486222E-01  0.10217514000E+01  0.10215106622E+01 0.  0.
     999903    2    3    3    0    0  0.12659269297E+00 -0.13450446180E-01  0.18558059977E-01  0.13021062988E+00  0.20094330736E-01 0.  0.
         14    1    1    2    0    0  0.14657458682E-01 -0.83661156446E-02 -0.14389486222E-01  0.22178600039E-01  0.00000000000E+00 0. -1.
     999901    1    3    3    0    0 -0.14125015165E+00  0.21816561825E-01 -0.41685737548E-02  0.89154077008E+00  0.88000000000E+00 0. -1.
        -11    1    4    4    0    0  0.46497916590E-01  0.47441548040E-02  0.63554957001E-02  0.47172202605E-01  0.51100000000E-03 0.  1.
         11    1    4    4    0    0  0.80094776378E-01 -0.18194600984E-01  0.12202564277E-01  0.83038427273E-01  0.51100000000E-03 0. -1.
</event>
<event>
 8    1  0.5489035E+004  0.1043930E+01  0.7957747E-01            NaN
         13   -1    0    0    0    0  0.00000000000E+00  0.00000000000E+00  0.74505805969E-08  0.10566000000E+00  0.10566000000E+00 0.  1.
     999900   -1    0    0    0    0 -0.00000000000E+00 -0.00000000000E+00 -0.74505805969E-08  0.93827000000E+00  0.93827000000E+00 0. -1.
     999902    2    1    2    0    0 -0.71383792458E-02 -0.15381109714E-01  0.16520466959E-01  0.10202559462E+01  0.10199812425E+01 0.  0.
     999903    2    3    3    0    0  0.45372910106E-01 -0.52975762202E-01  0.11157384457E+00  0.13278429145E+00  0.17827308029E-01 0.  0.
         14    1    1    2    0    0  0.71383792458E-02  0.15381109714E-01 -0.16520466959E-01  0.23674053789E-01  0.00000000000E+00 0.  1.
     999901    1    3    3    0    0 -0.52511289351E-01  0.37594652488E-01 -0.95053377613E-01  0.88747165476E+00  0.88000000000E+00 0. -1.
        -11    1    4    4    0    0  0.26028818828E-01 -0.33988960551E-01  0.52184038239E-01  0.67499509753E-01  0.51100000000E-03 0. -1.
         11    1    4    4    0    0  0.19344091277E-01 -0.18986801651E-01  0.59389806333E-01  0.65284781699E-01  0.51100000000E-03 0.  1.
</event>
<event>
 8    1  0.5489035E+004  0.1043930E+01  0.7957747E-01            NaN
         13   -1    0    0    0    0  0.00000000000E+00  0.00000000000E+00  0.74505805969E-08  0.10566000000E+00  0.10566000000E+00 0.  1.
     999900   -1    0    0    0    0 -0.00000000000E+00 -0.00000000000E+00 -0.74505805969E-08  0.93827000000E+00  0.93827000000E+00 0. -1.
     999902    2    1    2    0    0  0.20821490080E-01 -0.74604978461E-02 -0.15648043707E-01  0.10168365552E+01  0.10164755409E+01 0.  0.
     999903    2    3    3    0    0 -0.33577075634E-01 -0.68959258565E-01 -0.10163452710E+00  0.12884163586E+00  0.19692401585E-01 0.  0.
         14    1    1    2    0    0 -0.20821490080E-01  0.74604978461E-02  0.15648043707E-01  0.27093444763E-01  0.00000000000E+00 0. -1.
     999901    1    3    3    0    0  0.54398565714E-01  0.61498760719E-01  0.85986483397E-01  0.88799491938E+00  0.88000000000E+00 0. -1.
        -11    1    4    4    0    0 -0.41128474138E-02 -0.30259019325E-01 -0.39733520567E-01  0.50115242611E-01  0.51100000000E-03 0.  1.
         11    1    4    4    0    0 -0.29464228220E-01 -0.38700239240E-01 -0.61901006537E-01  0.78726393244E-01  0.51100000000E-03 0. -1.
</event>
<event>
 8    1  0.5489035E+004  0.1043930E+01  0.7957747E-01            NaN
         13   -1    0    0    0    0  0.00000000000E+00  0.00000000000E+00  0.74505805969E-08  0.10566000000E+00  0.10566000000E+00 0.  1.
     999900   -1    0    0    0    0 -0.00000000000E+00 -0.00000000000E+00 -0.74505805969E-08  0.93827000000E+00  0.93827000000E+00 0. -1.
     999902    2    1    2    0    0 -0.71922665965E-02 -0.22818829832E-01  0.19349906812E-02  0.10199264194E+01  0.10196439227E+01 0.  0.
     999903    2    3    3    0    0 -0.28407551461E-01 -0.10583350138E+00 -0.70712315891E-01  0.13278541866E+00  0.24980328171E-01 0.  0.
         14    1    1    2    0    0  0.71922665965E-02  0.22818829832E-01 -0.19349906812E-02  0.24003580621E-01  0.00000000000E+00 0.  1.
     999901    1    3    3    0    0  0.21215284864E-01  0.83014671549E-01  0.72647306572E-01  0.88714100072E+00  0.88000000000E+00 0.  1.
        -11    1    4    4    0    0 -0.19117892211E-01 -0.78150953155E-01 -0.64031527565E-01  0.10282685897E+00  0.51100000000E-03 0. -1.
         11    1    4    4    0    0 -0.92896592492E-02 -0.27682548226E-01 -0.66807883259E-02  0.29958559693E-01  0.51100000000E-03 0.  1.
</event>
<event>
 8    1  0.5489035E+004  0.1043930E+01  0.7957747E-01            NaN
         13   -1    0    0    0    0  0.00000000000E+00  0.00000000000E+00  0.74505805969E-08  0.10566000000E+00  0.10566000000E+00 0. -1.
     999900   -1    0    0    0    0 -0.00000000000E+00 -0.00000000000E+00 -0.74505805969E-08  0.93827000000E+00  0.93827000000E+00 0. -1.
     999902    2    1    2    0    0  0.72159050111E-02 -0.22454017587E-01  0.24913482310E-03  0.10203436849E+01  0.10200710373E+01 0.  0.
     999903    2    3    3    0    0  0.69885688341E-01 -0.10992680117E+00  0.20942608180E-01  0.13354764893E+00  0.20699532521E-01 0.  0.
         14    1    1    2    0    0 -0.72159050111E-02  0.22454017587E-01 -0.24913482310E-03  0.23586315081E-01  0.00000000000E+00 0.  1.
     999901    1    3    3    0    0 -0.62669783330E-01  0.87472783583E-01 -0.20693473357E-01  0.88679603599E+00  0.88000000000E+00 0. -1.
        -11    1    4    4    0    0  0.35393156487E-01 -0.40046248271E-01  0.14336173642E-01  0.55336827903E-01  0.51100000000E-03 0. -1.
         11    1    4    4    0    0  0.34492531854E-01 -0.69880552898E-01  0.66064345382E-02  0.78210821025E-01  0.51100000000E-03 0.  1.
</event>
<event>
 8    1  0.5489035E+004  0.1043930E+01  0.7957747E-01            NaN
         13   -1    0    0    0    0  0.00000000000E+00  0.00000000000E+00  0.74505805969E-08  0.10566000000E+00  0.10566000000E+00 0.  1.
     999900   -1    0    0    0    0 -0.00000000000E+00 -0.00000000000E+00 -0.74505805969E-08  0.93827000000E+00  0.93827000000E+00 0.  1.
     999902    2    1    2    0    0  0.14363676316E-01 -0.10502215938E-01  0.15669829153E-01  0.10202201859E+01  0.10199446419E+01 0.  0.
     999903    2    3    3    0    0  0.11348780712E+00  0.87822385553E-02 -0.61323405375E-01  0.13110520932E+00  0.21711881224E-01 0.  0.
         14    1    1    2    0    0 -0.14363676316E-01  0.10502215938E-01 -0.15669829153E-01  0.23709814057E-01  0.00000000000E+00 0. -1.
     999901    1    3    3    0    0 -0.99124130799E-01 -0.19284454493E-01  0.76993234528E-01  0.88911497662E+00  0.88000000000E+00 0. -1.
        -11    1    4    4    0    0  0.95519459572E-02 -0.85262820237E-03 -0.12782144549E-01  0.15987838713E-01  0.51100000000E-03 0. -1.
         11    1    4    4    0    0  0.10393586116E+00  0.96348667577E-02 -0.48541260825E-01  0.11511737061E+00  0.51100000000E-03 0.  1.
</event>
<event>
 8    1  0.5489035E+004  0.1043930E+01  0.7957747E-01            NaN
         13   -1    0    0    0    0  0.00000000000E+00  0.00000000000E+00  0.74505805969E-08  0.10566000000E+00  0.10566000000E+00 0.  1.
     999900   -1    0    0    0    0 -0.00000000000E+00 -0.00000000000E+00 -0.74505805969E-08  0.93827000000E+00  0.93827000000E+00 0.  1.
     999902    2    1    2    0    0  0.18206224845E-01 -0.42475766125E-02 -0.13983305875E-01  0.10205838788E+01  0.10203168196E+01 0.  0.
     999903    2    3    3    0    0 -0.11309192701E+00  0.31244705861E-01  0.47025462285E-01  0.12804761818E+00  0.20464183805E-01 0.  0.
         14    1    1    2    0    0 -0.18206224845E-01  0.42475766125E-02  0.13983305875E-01  0.23346121163E-01  0.00000000000E+00 0.  1.
     999901    1    3    3    0    0  0.13129815186E+00 -0.35492282473E-01 -0.61008768160E-01  0.89253626066E+00  0.88000000000E+00 0. -1.
        -11    1    4    4    0    0 -0.60084700640E-01  0.24368220854E-01  0.18343681708E-01  0.67384962849E-01  0.51100000000E-03 0. -1.
         11    1    4    4    0    0 -0.53007226371E-01  0.68764850065E-02  0.28681780577E-01  0.60662655330E-01  0.51100000000E-03 0.  1.
</event>
<event>
 8    1  0.5489035E+004  0.1043930E+01  0.7957747E-01            NaN
         13   -1    0    0    0    0  0.00000000000E+00  0.00000000000E+00  0.74505805969E-08  0.10566000000E+00  0.10566000000E+00 0.  1.
     999900   -1    0    0    0    0 -0.00000000000E+00 -0.00000000000E+00 -0.74505805969E-08  0.93827000000E+00  0.93827000000E+00 0.  1.
     999902    2    1    2    0    0 -0.23160433511E-01  0.82833264795E-02  0.43901194043E-02  0.10189441575E+01  0.10186377687E+01 0.  0.
     999903    2    3    3    0    0 -0.65833261477E-01 -0.66224189149E-01  0.89261605794E-01  0.13070122374E+00  0.19887535653E-01 0.  0.
         14    1    1    2    0    0  0.23160433511E-01 -0.82833264795E-02 -0.43901194043E-02  0.24985842519E-01  0.00000000000E+00 0.  1.
     999901    1    3    3    0    0  0.42672827965E-01  0.74507515628E-01 -0.84871486389E-01  0.88824293374E+00  0.88000000000E+00 0.  1.
        -11    1    4    4    0    0 -0.20915445457E-01 -0.34864117577E-01  0.39629031385E-01  0.56777493804E-01  0.51100000000E-03 0.  1.
         11    1    4    4    0    0 -0.44917816019E-01 -0.31360071572E-01  0.49632574408E-01  0.73923729941E-01  0.51100000000E-03 0. -1.
</event>
<event>
 8    1  0.5489035E+004  0.1043930E+01  0.7957747E-01            NaN
         13   -1    0    0    0    0  0.00000000000E+00  0.00000000000E+00  0.74505805969E-08  0.10566000000E+00  0.10566000000E+00 0. -1.
     999900   -1    0    0    0    0 -0.00000000000E+00 -0.00000000000E+00 -0.74505805969E-08  0.93827000000E+00  0.93827000000E+00 0. -1.
     999902    2    1    2    0    0 -0.74541302172E-04 -0.18795751656E-01 -0.15086172681E-01  0.10198285801E+01  0.10195437481E+01 0.  0.
     999903    2    3    3    0    0 -0.83205662168E-01  0.86370776955E-01 -0.43767624750E-01  0.12921451792E+00  0.19942250041E-01 0.  0.
         14    1    1    2    0    0  0.74541302172E-04  0.18795751656E-01  0.15086172681E-01  0.24101419935E-01  0.00000000000E+00 0. -1.
     999901    1    3    3    0    0  0.83131120866E-01 -0.10516652861E+00  0.28681452069E-01  0.89061406214E+00  0.88000000000E+00 0.  1.
        -11    1    4    4    0    0 -0.49180068130E-01  0.54127795326E-01 -0.16468575610E-01  0.74966475386E-01  0.51100000000E-03 0. -1.
         11    1    4    4    0    0 -0.34025594038E-01  0.32242981629E-01 -0.27299049140E-01  0.54248042535E-01  0.51100000000E-03 0.  1.
</event>
<event>
 8    1  0.5489035E+004  0.1043930E+01  0.7957747E-01            NaN
         13   -1    0    0    0    0  0.00000000000E+00  0.00000000000E+00  0.74505805969E-08  0.10566000000E+00  0.10566000000E+00 0. -1.
     999900   -1    0    0    0    0 -0.00000000000E+00 -0.00000000000E+00 -0.74505805969E-08  0.93827000000E+00  0.93827000000E+00 0. -1.
     999902    2    1    2    0    0 -0.13382641187E-01 -0.20179251503E-01 -0.51068440176E-02  0.10191837451E+01  0.10188832755E+01 0.  0.
     999903    2    3    3    0    0 -0.83663991936E-01  0.65032098412E-02 -0.98867948637E-01  0.13101564909E+00  0.18662094051E-01 0.  0.
         14    1    1    2    0    0  0.13382641187E-01  0.20179251503E-01  0.51068440176E-02  0.24746254912E-01  0.00000000000E+00 0.  1.
     999901    1    3    3    0    0  0.70281350749E-01 -0.26682461344E-01  0.93761104619E-01  0.88816809600E+00  0.88000000000E+00 0.  1.
        -11    1    4    4    0    0 -0.30355172188E-01  0.15887309503E-02 -0.50067029281E-01  0.58574133256E-01  0.51100000000E-03 0. -1.
         11    1    4    4    0    0 -0.53308819748E-01  0.49144788909E-02 -0.48800919355E-01  0.72441515836E-01  0.51100000000E-03 0.  1.
</event>
<event>
 8    1  0.5489035E+004  0.1043930E+01  0.7957747E-01            NaN
         13   -1    0    0    0    0  0.00000000000E+00  0.00000000000E+00  0.74505805969E-08  0.10566000000E+00  0.10566000000E+00 0. -1.
     999900   -1    0    0    0    0 -0.00000000000E+00 -0.00000000000E+00 -0.74505805969E-08  0.93827000000E+00  0.93827000000E+00 0. -1.
     999902    2    1    2    0    0  0.91339032431E-03 -0.82127281185E-02  0.21717130602E-01  0.10206938870E+01  0.10204293675E+01 0.  0.
     999903    2    3    3    0    0  0.54247790582E-01 -0.14131106194E-01 -0.11416317601E+00  0.12864958140E+00  0.19364222015E-01 0.  0.
         14    1    1    2    0    0 -0.91339032431E-03  0.82127281185E-02 -0.21717130602E-01  0.23236112984E-01  0.00000000000E+00 0.  1.
     999901    1    3    3    0    0 -0.53334400258E-01  0.59183780758E-02  0.13588030661E+00  0.89204430561E+00  0.88000000000E+00 0. -1.
        -11    1    4    4    0    0  0.23152418479E-01 -0.96018473169E-03 -0.64953325875E-01  0.68964861338E-01  0.51100000000E-03 0. -1.
         11    1    4    4    0    0  0.31095372103E-01 -0.13170921463E-01 -0.49209850131E-01  0.59684720066E-01  0.51100000000E-03 0.  1.
</event>
<event>
 8    1  0.5489035E+004  0.1043930E+01  0.7957747E-01            NaN
         13   -1    0    0    0    0  0.00000000000E+00  0.00000000000E+00  0.74505805969E-08  0.10566000000E+00  0.10566000000E+00 0.  1.
     999900   -1    0    0    0    0 -0.00000000000E+00 -0.00000000000E+00 -0.74505805969E-08  0.93827000000E+00  0.93827000000E+00 0. -1.
     999902    2    1    2    0    0  0.14129225987E-01 -0.14889823465E-01 -0.12288042447E-01  0.10200064163E+01  0.10197258217E+01 0.  0.
     999903    2    3    3    0    0 -0.43458408435E-01 -0.33320793674E-01  0.11468073826E+00  0.12884026593E+00  0.21195137225E-01 0.  0.
         14    1    1    2    0    0 -0.14129225987E-01  0.14889823465E-01  0.12288042447E-01  0.23923583699E-01  0.00000000000E+00 0.  1.
     999901    1    3    3    0    0  0.57587634422E-01  0.18430970209E-01 -0.12696878070E+00  0.89116615038E+00  0.88000000000E+00 0. -1.
        -11    1    4    4    0    0 -0.13587860113E-01 -0.22371096952E-01  0.41868922624E-01  0.49379790643E-01  0.51100000000E-03 0.  1.
         11    1    4    4    0    0 -0.29870548322E-01 -0.10949696721E-01  0.72811815633E-01  0.79460475282E-01  0.51100000000E-03 0. -1.
</event>
<event>
 8    1  0.5489035E+004  0.1043930E+01  0.7957747E-01            NaN
         13   -1    0    0    0    0  0.00000000000E+00  0.00000000000E+00  0.74505805969E-08  0.10566000000E+00  0.10566000000E+00 0. -1.
     999900   -1    0    0    0    0 -0.00000000000E+00 -0.00000000000E+00 -0.74505805969E-08  0.93827000000E+00  0.93827000000E+00 0.  1.
     999902    2    1    2    0    0 -0.16953604011E-02 -0.22737735543E-01 -0.72078172236E-02  0.10200170016E+01  0.10197366582E+01 0.  0.
     999903    2    3    3    0    0 -0.61412677787E-01 -0.47890552223E-01 -0.10489947855E+00  0.13224310982E+00  0.20477243701E-01 0.  0.
         14    1    1    2    0    0  0.16953604011E-02  0.22737735543E-01  0.72078172236E-02  0.23912998425E-01  0.00000000000E+00 0. -1.
     999901    1    3    3    0    0  0.59717317386E-01  0.25152816679E-01  0.97691661331E-01  0.88777389175E+00  0.88000000000E+00 0. -1.
        -11    1    4    4    0    0 -0.10979549643E-01 -0.61863810008E-02 -0.31352186960E-01  0.33794120323E-01  0.51100000000E-03 0.  1.
         11    1    4    4    0    0 -0.50433128145E-01 -0.41704171222E-01 -0.73547291594E-01  0.98448989500E-01  0.51100000000E-03 0. -1.
</event>
<event>
 8    1  0.5489035E+004  0.1043930E+01  0.7957747E-01            NaN
         13   -1    0    0    0    0  0.00000000000E+00  0.00000000000E+00  0.74505805969E-08  0.10566000000E+00  0.10566000000E+00 0. -1.
     999900   -1    0    0    0    0 -0.00000000000E+00 -0.00000000000E+00 -0.74505805969E-08  0.93827000000E+00  0.93827000000E+00 0.  1.
     999902    2    1    2    0    0 -0.28652087084E-02  0.61802407333E-02  0.22554616468E-01  0.10203691104E+01  0.10200970571E+01 0.  0.
     999903    2    3    3    0    0  0.62261090451E-01  0.11599845002E-01 -0.10960162299E+00  0.12810453156E+00  0.19678807299E-01 0.  0.
         14    1    1    2    0    0  0.28652087084E-02 -0.61802407333E-02 -0.22554616468E-01  0.23560889637E-01  0.00000000000E+00 0.  1.
     999901    1    3    3    0    0 -0.65126299159E-01 -0.54196042683E-02  0.13215623946E+00  0.89226457880E+00  0.88000000000E+00 0. -1.
        -11    1    4    4    0    0  0.42389688370E-01  0.17024281940E-01 -0.73697291961E-01  0.86707922470E-01  0.51100000000E-03 0.  1.
         11    1    4    4    0    0  0.19871402081E-01 -0.54244369381E-02 -0.35904331030E-01  0.41396609094E-01  0.51100000000E-03 0. -1.
</event>
<event>
 8    1  0.5489035E+004  0.1043930E+01  0.7957747E-01            NaN
         13   -1    0    0    0    0  0.00000000000E+00  0.00000000000E+00  0.74505805969E-08  0.10566000000E+00  0.10566000000E+00 0. -1.
     999900   -1    0    0    0    0 -0.00000000000E+00 -0.00000000000E+00 -0.74505805969E-08  0.93827000000E+00  0.93827000000E+00 0.  1.
     999902    2    1    2    0    0  0.21884698215E-01 -0.25194570471E-02  0.75576521631E-02  0.10206403932E+01  0.10203746402E+01 0.  0.
     999903    2    3    3    0    0 -0.32945224617E-01 -0.39579983437E-02 -0.12310281390E+00  0.12930401042E+00  0.21544622179E-01 0.  0.
         14    1    1    2    0    0 -0.21884698215E-01  0.25194570471E-02 -0.75576521631E-02  0.23289606824E-01  0.00000000000E+00 0.  1.
     999901    1    3    3    0    0  0.54829922833E-01  0.14385412966E-02  0.13066046606E+00  0.89133638276E+00  0.88000000000E+00 0. -1.
        -11    1    4    4    0    0 -0.23100472465E-01  0.73791530532E-02 -0.68300369087E-01  0.72479550677E-01  0.51100000000E-03 0.  1.
         11    1    4    4    0    0 -0.98447521523E-02 -0.11337151397E-01 -0.54802444809E-01  0.56824459740E-01  0.51100000000E-03 0. -1.
</event>
<event>
 8    1  0.5489035E+004  0.1043930E+01  0.7957747E-01            NaN
         13   -1    0    0    0    0  0.00000000000E+00  0.00000000000E+00  0.74505805969E-08  0.10566000000E+00  0.10566000000E+00 0.  1.
     999900   -1    0    0    0    0 -0.00000000000E+00 -0.00000000000E+00 -0.74505805969E-08  0.93827000000E+00  0.93827000000E+00 0. -1.
     999902    2    1    2    0    0  0.91461066158E-02 -0.13581333325E-01  0.16244889691E-01  0.10208648678E+01  0.10206042710E+01 0.  0.
     999903    2    3    3    0    0  0.97654981658E-01 -0.31588780030E-02  0.88592881326E-01  0.13340969689E+00  0.20074228471E-01 0.  0.
         14    1    1    2    0    0 -0.91461066158E-02  0.13581333325E-01 -0.16244889691E-01  0.23065132173E-01  0.00000000000E+00 0. -1.
     999901    1    3    3    0    0 -0.88508875042E-01 -0.10422455322E-01 -0.72347991636E-01  0.88745517094E+00  0.88000000000E+00 0. -1.
        -11    1    4    4    0    0  0.13127863964E-01  0.61372659346E-02  0.99925826248E-02  0.17610215045E-01  0.51100000000E-03 0.  1.
         11    1    4    4    0    0  0.84527117693E-01 -0.92961439376E-02  0.78600298701E-01  0.11579948184E+00  0.51100000000E-03 0. -1.
</event>
<event>
 8    1  0.5489035E+004  0.1043930E+01  0.7957747E-01            NaN
         13   -1    0    0    0    0  0.00000000000E+00  0.00000000000E+00  0.74505805969E-08  0.10566000000E+00  0.10566000000E+00 0. -1.
     999900   -1    0    0    0    0 -0.00000000000E+00 -0.00000000000E+00 -0.74505805969E-08  0.93827000000E+00  0.93827000000E+00 0. -1.
     999902    2    1    2    0    0  0.19457486606E-01  0.12086114948E-01  0.97026887956E-02  0.10190541055E+01  0.10187504404E+01 0.  0.
     999903    2    3    3    0    0  0.86831356894E-01  0.64631325812E-01 -0.71208683615E-01  0.13122141414E+00  0.20772339549E-01 0.  0.
         14    1    1    2    0    0 -0.19457486606E-01 -0.12086114948E-01 -0.97026887956E-02  0.24875894545E-01  0.00000000000E+00 0. -1.
     999901    1    3    3    0    0 -0.67373870288E-01 -0.52545210863E-01  0.80911372411E-01  0.88783269132E+00  0.88000000000E+00 0.  1.
        -11    1    4    4    0    0  0.49552083993E-01  0.49044711522E-01 -0.42528387341E-01  0.81668339074E-01  0.51100000000E-03 0.  1.
         11    1    4    4    0    0  0.37279272901E-01  0.15586614290E-01 -0.28680296275E-01  0.49553075065E-01  0.51100000000E-03 0. -1.
</event>
<event>
 8    1  0.5489035E+004  0.1043930E+01  0.7957747E-01            NaN
         13   -1    0    0    0    0  0.00000000000E+00  0.00000000000E+00  0.74505805969E-08  0.10566000000E+00  0.10566000000E+00 0. -1.
     999900   -1    0    0    0    0 -0.00000000000E+00 -0.00000000000E+00 -0.74505805969E-08  0.93827000000E+00  0.93827000000E+00 0.  1.
     999902    2    1    2    0    0 -0.18152081811E-01 -0.73307990297E-02  0.12044449984E-01  0.10209450601E+01  0.10206862927E+01 0.  0.
     999903    2    3    3    0    0  0.66091900662E-01  0.10190736689E+00  0.41552697748E-01  0.12970953442E+00  0.18565717644E-01 0.  0.
         14    1    1    2    0    0  0.18152081811E-01  0.73307990297E-02 -0.12044449984E-01  0.22984939937E-01  0.00000000000E+00 0.  1.
     999901    1    3    3    0    0 -0.84243982473E-01 -0.10923816592E+00 -0.29508247763E-01  0.89123552564E+00  0.88000000000E+00 0. -1.
        -11    1    4    4    0    0  0.28178601433E-01  0.37081246272E-01  0.72158306756E-02  0.47131536546E-01  0.51100000000E-03 0.  1.
         11    1    4    4    0    0  0.37913299229E-01  0.64826120613E-01  0.34336867072E-01  0.82577997878E-01  0.51100000000E-03 0. -1.
</event>
<event>
 8    1  0.5489035E+004  0.1043930E+01  0.7957747E-01            NaN
         13   -1    0    0    0    0  0.00000000000E+00  0.00000000000E+00  0.74505805969E-08  0.10566000000E+00  0.10566000000E+00 0.  1.
     999900   -1    0    0    0    0 -0.00000000000E+00 -0.00000000000E+00 -0.74505805969E-08  0.93827000000E+00  0.93827000000E+00 0.  1.
     999902    2    1    2    0    0  0.26251949344E-02  0.18933180580E-01 -0.14037183412E-01  0.10202150365E+01  0.10199393713E+01 0.  0.
     999903    2    3    3    0    0 -0.11941703268E+00  0.49517833702E-01 -0.74327465596E-02  0.13124183955E+00  0.21371269895E-01 0.  0.
         14    1    1    2    0    0 -0.26251949344E-02 -0.18933180580E-01  0.14037183412E-01  0.23714963492E-01  0.00000000000E+00 0.  1.
     999901    1    3    3    0    0  0.12204222762E+00 -0.30584653122E-01 -0.66044368523E-02  0.88897319696E+00  0.88000000000E+00 0.  1.
        -11    1    4    4    0    0 -0.60931752340E-01  0.15150869848E-01 -0.87240721639E-02  0.63392411663E-01  0.51100000000E-03 0. -1.
         11    1    4    4    0    0 -0.58485280343E-01  0.34366963853E-01  0.12913256043E-02  0.67849427884E-01  0.51100000000E-03 0.  1.
</event>
<event>
 8    1  0.5489035E+004  0.1043930E+01  0.7957747E-01            NaN
         13   -1    0    0    0    0  0.00000000000E+00  0.00000000000E+00  0.74505805969E-08  0.10566000000E+00  0.10566000000E+00 0.  1.
     999900   -1    0    0    0    0 -0.00000000000E+00 -0.00000000000E+00 -0.74505805969E-08  0.93827000000E+00  0.93827000000E+00 0.  1.
     999902    2    1    2    0    0 -0.20939699887E-01  0.80963827236E-02 -0.16706083800E-02  0.10214174840E+01  0.10211693607E+01 0.  0.
     999903    2    3    3    0    0 -0.98143408977E-01 -0.84674076632E-01 -0.21439742453E-01  0.13295949991E+00  0.20414163708E-01 0.  0.
         14    1    1    2    0    0  0.20939699887E-01 -0.80963827236E-02  0.16706083800E-02  0.22512516006E-01  0.00000000000E+00 0. -1.
     999901    1    3    3    0    0  0.77203709089E-01  0.92770459356E-01  0.19769134073E-01  0.88845798409E+00  0.88000000000E+00 0.  1.
        -11    1    4    4    0    0 -0.76564568671E-01 -0.70995792234E-01 -0.97870597960E-02  0.10487413099E+00  0.51100000000E-03 0. -1.
         11    1    4    4    0    0 -0.21578840306E-01 -0.13678284398E-01 -0.11652682657E-01  0.28085368916E-01  0.51100000000E-03 0.  1.
</event>
<event>
 8    1  0.5489035E+004  0.1043930E+01  0.7957747E-01            NaN
         13   -1    0    0    0    0  0.00000000000E+00  0.00000000000E+00  0.74505805969E-08  0.10566000000E+00  0.10566000000E+00 0.  1.
     999900   -1    0    0    0    0 -0.00000000000E+00 -0.00000000000E+00 -0.74505805969E-08  0.93827000000E+00  0.93827000000E+00 0. -1.
     999902    2    1    2    0    0 -0.17055337311E-02 -0.20854069799E-01 -0.26239803101E-02  0.10228424125E+01  0.10226250117E+01 0.  0.
     999903    2    3    3    0    0 -0.73015254962E-01 -0.10338748805E+00 -0.42910226838E-01  0.13519393305E+00  0.20393916335E-01 0.  0.
         14    1    1    2    0    0  0.17055337311E-02  0.20854069799E-01  0.26239803101E-02  0.21087587466E-01  0.00000000000E+00 0.  1.
     999901    1    3    3    0    0  0.71309721231E-01  0.82533418252E-01  0.40286246528E-01  0.88764847948E+00  0.88000000000E+00 0.  1.
        -11    1    4    4    0    0 -0.67821469778E-01 -0.83156768317E-01 -0.36203956003E-01  0.11325099307E+00  0.51100000000E-03 0.  1.
         11    1    4    4    0    0 -0.51937851840E-02 -0.20230719734E-01 -0.67062708343E-02  0.21942939981E-01  0.51100000000E-03 0. -1.
</event>
<event>
 8    1  0.5489035E+004  0.1043930E+01  0.7957747E-01            NaN
         13   -1    0    0    0    0  0.00000000000E+00  0.00000000000E+00  0.74505805969E-08  0.10566000000E+00  0.10566000000E+00 0. -1.
     999900   -1    0    0    0    0 -0.00000000000E+00 -0.00000000000E+00 -0.74505805969E-08  0.93827000000E+00  0.93827000000E+00 0. -1.
     999902    2    1    2    0    0 -0.12394271800E-01 -0.20242242061E-01  0.56112283577E-02  0.10195404075E+01  0.10192486401E+01 0.  0.
     999903    2    3    3    0    0  0.21924645011E-01  0.25106017026E-01  0.12385516314E+00  0.12981242620E+00  0.20004059848E-01 0.  0.
         14    1    1    2    0    0  0.12394271800E-01  0.20242242061E-01 -0.56112283577E-02  0.24389592469E-01  0.00000000000E+00 0.  1.
     999901    1    3    3    0    0 -0.34318916811E-01 -0.45348259087E-01 -0.11824393478E+00  0.88972798133E+00  0.88000000000E+00 0. -1.
        -11    1    4    4    0    0 -0.10978296080E-02  0.37128762898E-02  0.41165433864E-01  0.41350269000E-01  0.51100000000E-03 0.  1.
         11    1    4    4    0    0  0.23022474619E-01  0.21393140736E-01  0.82689729273E-01  0.88462157199E-01  0.51100000000E-03 0. -1.
</event>
<event>
 8    1  0.5489035E+004  0.1043930E+01  0.7957747E-01            NaN
         13   -1    0    0    0    0  0.00000000000E+00  0.00000000000E+00  0.74505805969E-08  0.10566000000E+00  0.10566000000E+00 0. -1.
     999900   -1    0    0    0    0 -0.00000000000E+00 -0.00000000000E+00 -0.74505805969E-08  0.93827000000E+00  0.93827000000E+00 0. -1.
     999902    2    1    2    0    0  0.10692366604E-01  0.22540701190E-01  0.12580627569E-03  0.10189815383E+01  0.10186760769E+01 0.  0.
     999903    2    3    3    0    0 -0.59016879779E-01 -0.10749452617E+00 -0.22978018203E-01  0.12639970671E+00  0.20268973360E-01 0.  0.
         14    1    1    2    0    0 -0.10692366604E-01 -0.22540701190E-01 -0.12580627569E-03  0.24948461695E-01  0.00000000000E+00 0.  1.
     999901    1    3    3    0    0  0.69709246383E-01  0.13003522736E+00  0.23103824478E-01  0.89258183159E+00  0.88000000000E+00 0. -1.
        -11    1    4    4    0    0 -0.37679519719E-01 -0.48158255927E-01 -0.89598232736E-02  0.61802130823E-01  0.51100000000E-03 0.  1.
         11    1    4    4    0    0 -0.21337360060E-01 -0.59336270242E-01 -0.14018194929E-01  0.64597575889E-01  0.51100000000E-03 0. -1.
</event>
<event>
 8    1  0.5489035E+004  0.1043930E+01  0.7957747E-01            NaN
         13   -1    0    0    0    0  0.00000000000E+00  0.00000000000E+00  0.74505805969E-08  0.10566000000E+00  0.10566000000E+00 0. -1.
     999900   -1    0    0    0    0 -0.00000000000E+00 -0.00000000000E+00 -0.74505805969E-08  0.93827000000E+00  0.93827000000E+00 0.  1.
     999902    2    1    2    0    0  0.19089157267E-02 -0.22345881515E-01  0.80139717256E-02  0.10201139104E+01  0.10198358614E+01 0.  0.
     999903    2    3    3    0    0 -0.34507216015E-01 -0.22867722960E-01  0.12366618285E+00  0.13179986634E+00  0.19084005776E-01 0.  0.
         14    1    1    2    0    0 -0.19089157267E-02  0.22345881515E-01 -0.80139717256E-02  0.23816089577E-01  0.00000000000E+00 0. -1.
     999901    1    3    3    0    0  0.36416131742E-01  0.52184144453E-03 -0.11565221113E+00  0.88831404408E+00  0.88000000000E+00 0.  1.
        -11    1    4    4    0    0 -0.24551717634E-01 -0.18604912822E-01  0.62508451590E-01  0.69688573390E-01  0.51100000000E-03 0.  1.
         11    1    4    4    0    0 -0.99554983813E-02 -0.42628101380E-02  0.61157731262E-01  0.62111292954E-01  0.51100000000E-03 0. -1.
</event>
<event>
 8    1  0.5489035E+004  0.1043930E+01  0.7957747E-01            NaN
         13   -1    0    0    0    0  0.00000000000E+00  0.00000000000E+00  0.74505805969E-08  0.10566000000E+00  0.10566000000E+00 0. -1.
     999900   -1    0    0    0    0 -0.00000000000E+00 -0.00000000000E+00 -0.74505805969E-08  0.93827000000E+00  0.93827000000E+00 0. -1.
     999902    2    1    2    0    0 -0.32870827376E-02 -0.19431341641E-01  0.13764075261E-01  0.10198918695E+01  0.10196085493E+01 0.  0.
     999903    2    3    3    0    0  0.83216322467E-01  0.86693814653E-01 -0.38325616070E-01  0.12778272602E+00  0.20464564447E-01 0.  0.
         14    1    1    2    0    0  0.32870827376E-02  0.19431341641E-01 -0.13764075261E-01  0.24038130515E-01  0.00000000000E+00 0.  1.
     999901    1    3    3    0    0 -0.86503405205E-01 -0.10612515629E+00  0.52089691331E-01  0.89210914346E+00  0.88000000000E+00 0. -1.
        -11    1    4    4    0    0  0.20229532579E-02  0.99807153824E-02 -0.31015680906E-02  0.10657760790E-01  0.51100000000E-03 0. -1.
         11    1    4    4    0    0  0.81193369209E-01  0.76713099270E-01 -0.35224047980E-01  0.11712496523E+00  0.51100000000E-03 0.  1.
</event>
<event>
 8    1  0.5489035E+004  0.1043930E+01  0.7957747E-01            NaN
         13   -1    0    0    0    0  0.00000000000E+00  0.00000000000E+00  0.74505805969E-08  0.10566000000E+00  0.10566000000E+00 0.  1.
     999900   -1    0    0    0    0 -0.00000000000E+00 -0.00000000000E+00 -0.74505805969E-08  0.93827000000E+00  0.93827000000E+00 0. -1.
     999902    2    1    2    0    0 -0.64834748231E-02 -0.16017633554E-01 -0.17839536304E-01  0.10190935533E+01  0.10187908624E+01 0.  0.
     999903    2    3    3    0    0 -0.10249526231E+00 -0.76233985893E-01 -0.30647074388E-01  0.13173325133E+00  0.98745601170E-02 0.  0.
         14    1    1    2    0    0  0.64834748231E-02  0.16017633554E-01  0.17839536304E-01  0.24836446727E-01  0.00000000000E+00 0.  1.
     999901    1    3    3    0    0  0.96011787487E-01  0.60216352338E-01  0.12807538084E-01  0.88736030194E+00  0.88000000000E+00 0. -1.
        -11    1    4    4    0    0 -0.81970903471E-01 -0.55889292945E-01 -0.24091699905E-01  0.10209560817E+00  0.51100000000E-03 0.  1.
         11    1    4    4    0    0 -0.20524358839E-01 -0.20344692947E-01 -0.65553744833E-02  0.29637643167E-01  0.51100000000E-03 0. -1.
</event>
<event>
 8    1  0.5489035E+004  0.1043930E+01  0.7957747E-01            NaN
         13   -1    0    0    0    0  0.00000000000E+00  0.00000000000E+00  0.74505805969E-08  0.10566000000E+00  0.10566000000E+00 0. -1.
     999900   -1    0    0    0    0 -0.00000000000E+00 -0.00000000000E+00 -0.74505805969E-08  0.93827000000E+00  0.93827000000E+00 0.  1.
     999902    2    1    2    0    0  0.19544562646E-01 -0.13082190077E-01 -0.12836752257E-02  0.10203762010E+01  0.10201043133E+01 0.  0.
     999903    2    3    3    0    0  0.11802039196E+00  0.33790241230E-01 -0.46440202409E-01  0.13249466286E+00  0.18098341528E-01 0.  0.
         14    1    1    2    0    0 -0.19544562646E-01  0.13082190077E-01  0.12836752257E-02  0.23553799021E-01  0.00000000000E+00 0. -1.
     999901    1    3    3    0    0 -0.98475829318E-01 -0.46872431307E-01  0.45156527183E-01  0.88788153811E+00  0.88000000000E+00 0. -1.
        -11    1    4    4    0    0  0.64556513764E-01  0.11720606203E-01 -0.31337970353E-01  0.72713448453E-01  0.51100000000E-03 0.  1.
         11    1    4    4    0    0  0.53463878201E-01  0.22069635026E-01 -0.15102232056E-01  0.59781214412E-01  0.51100000000E-03 0. -1.
</event>
<event>
 8    1  0.5489035E+004  0.1043930E+01  0.7957747E-01            NaN
         13   -1    0    0    0    0  0.00000000000E+00  0.00000000000E+00  0.74505805969E-08  0.10566000000E+00  0.10566000000E+00 0. -1.
     999900   -1    0    0    0    0 -0.00000000000E+00 -0.00000000000E+00 -0.74505805969E-08  0.93827000000E+00  0.93827000000E+00 0.  1.
     999902    2    1    2    0    0  0.67976091118E-02 -0.22749906846E-01  0.28467602508E-02  0.10200162007E+01  0.10197358383E+01 0.  0.
     999903    2    3    3    0    0  0.56025817158E-01  0.21089123156E-01  0.11420784260E+00  0.13055199815E+00  0.20414446009E-01 0.  0.
         14    1    1    2    0    0 -0.67976091118E-02  0.22749906846E-01 -0.28467602508E-02  0.23913799260E-01  0.00000000000E+00 0. -1.
     999901    1    3    3    0    0 -0.49228208046E-01 -0.43839030002E-01 -0.11136108235E+00  0.88946420259E+00  0.88000000000E+00 0.  1.
        -11    1    4    4    0    0  0.22181169782E-01  0.12011324314E-01  0.68201554611E-01  0.72718562809E-01  0.51100000000E-03 0. -1.
         11    1    4    4    0    0  0.33844647376E-01  0.90777988421E-02  0.46006287993E-01  0.57833435344E-01  0.51100000000E-03 0.  1.
</event>
<event>
 8    1  0.5489035E+004  0.1043930E+01  0.7957747E-01            NaN
         13   -1    0    0    0    0  0.00000000000E+00  0.00000000000E+00  0.74505805969E-08  0.10566000000E+00  0.10566000000E+00 0.  1.
     999900   -1    0    0    0    0 -0.00000000000E+00 -0.00000000000E+00 -0.74505805969E-08  0.93827000000E+00  0.93827000000E+00 0.  1.
     999902    2    1    2    0    0  0.92490337233E-02  0.32671496025E-02  0.25331226209E-01  0.10167658708E+01  0.10164029448E+01 0.  0.
     999903    2    3    3    0    0 -0.11355985200E+00  0.43646293979E-01  0.31541910612E-01  0.12729913717E+00  0.20232133721E-01 0.  0.
         14    1    1    2    0    0 -0.92490337233E-02 -0.32671496025E-02 -0.25331226209E-01  0.27164129152E-01  0.00000000000E+00 0. -1.
     999901    1    3    3    0    0  0.12280888573E+00 -0.40379144377E-01 -0.62106844027E-02  0.88946673368E+00  0.88000000000E+00 0.  1.
        -11    1    4    4    0    0 -0.34068444355E-01  0.15619322576E-01  0.19193613487E-01  0.42110308218E-01  0.51100000000E-03 0.  1.
         11    1    4    4    0    0 -0.79491407648E-01  0.28026971403E-01  0.12348297124E-01  0.85188828955E-01  0.51100000000E-03 0. -1.
</event>
<event>
 8    1  0.5489035E+004  0.1043930E+01  0.7957747E-01            NaN
         13   -1    0    0    0    0  0.00000000000E+00  0.00000000000E+00  0.74505805969E-08  0.10566000000E+00  0.10566000000E+00 0. -1.
     999900   -1    0    0    0    0 -0.00000000000E+00 -0.00000000000E+00 -0.74505805969E-08  0.93827000000E+00  0.93827000000E+00 0. -1.
     999902    2    1    2    0    0 -0.99937219097E-02 -0.15389473982E-01 -0.15261463770E-01  0.10200632310E+01  0.10197839833E+01 0.  0.
     999903    2    3    3    0    0 -0.87316102551E-01 -0.54967892308E-01  0.78148668020E-01  0.13086659667E+00  0.19320477776E-01 0.  0.
         14    1    1    2    0    0  0.99937219097E-02  0.15389473982E-01  0.15261463770E-01  0.23866769020E-01  0.00000000000E+00 0.  1.
     999901    1    3    3    0    0  0.77322380641E-01  0.39578418326E-01 -0.93410131790E-01  0.88919663431E+00  0.88000000000E+00 0. -1.
        -11    1    4    4    0    0 -0.55375528502E-01 -0.23589784648E-01  0.44754362582E-01  0.75007607532E-01  0.51100000000E-03 0.  1.
         11    1    4    4    0    0 -0.31940574049E-01 -0.31378107660E-01  0.33394305438E-01  0.55858989139E-01  0.51100000000E-03 0. -1.
</event>
<event>
 8    1  0.5489035E+004  0.1043930E+01  0.7957747E-01            NaN
         13   -1    0    0    0    0  0.00000000000E+00  0.00000000000E+00  0.74505805969E-08  0.10566000000E+00  0.10566000000E+00 0.  1.
     999900   -1    0    0    0    0 -0.00000000000E+00 -0.00000000000E+00 -0.74505805969E-08  0.93827000000E+00  0.93827000000E+00 0. -1.
     999902    2    1    2    0    0  0.11385221386E-01 -0.14940942621E-01 -0.12216050140E-01  0.10215227040E+01  0.10212769203E+01 0.  0.
     999903    2    3    3    0    0  0.12301670348E+00 -0.37772668329E-01 -0.31910394913E-01  0.13395820342E+00  0.19147928195E-01 0.  0.
         14    1    1    2    0    0 -0.11385221386E-01  0.14940942621E-01  0.12216050140E-01  0.22407295986E-01  0.00000000000E+00 0.  1.
     999901    1    3    3    0    0 -0.11163148209E+00  0.22831725707E-01  0.19694344773E-01  0.88756450059E+00  0.88000000000E+00 0. -1.
        -11    1    4    4    0    0  0.78495283043E-01 -0.32536051047E-01 -0.16556898317E-01  0.86570757653E-01  0.51100000000E-03 0. -1.
         11    1    4    4    0    0  0.44521420433E-01 -0.52366172813E-02 -0.15353496595E-01  0.47387445770E-01  0.51100000000E-03 0.  1.
</event>
<event>
 8    1  0.5489035E+004  0.1043930E+01  0.7957747E-01            NaN
         13   -1    0    0    0    0  0.00000000000E+00  0.00000000000E+00  0.74505805969E-08  0.10566000000E+00  0.10566000000E+00 0. -1.
     999900   -1    0    0    0    0 -0.00000000000E+00 -0.00000000000E+00 -0.74505805969E-08  0.93827000000E+00  0.93827000000E+00 0.  1.
     999902    2    1    2    0    0  0.67582377322E-02 -0.19234598904E-02 -0.22806444201E-01  0.10200656464E+01  0.10197864559E+01 0.  0.
     999903    2    3    3    0    0 -0.36951828979E-01  0.11258464834E+00 -0.52579537408E-01  0.13107233155E+00  0.19354783302E-01 0.  0.
         14    1    1    2    0    0 -0.67582377322E-02  0.19234598904E-02  0.22806444201E-01  0.23864353590E-01  0.00000000000E+00 0. -1.
     999901    1    3    3    0    0  0.43710066711E-01 -0.11450810823E+00  0.29773093207E-01  0.88899331486E+00  0.88000000000E+00 0.  1.
        -11    1    4    4    0    0 -0.11756056259E-01  0.52291336324E-01 -0.32616535560E-01  0.62743033288E-01  0.51100000000E-03 0.  1.
         11    1    4    4    0    0 -0.25195772720E-01  0.60293312021E-01 -0.19963001848E-01  0.68329298263E-01  0.51100000000E-03 0. -1.
</event>
<event>
 8    1  0.5489035E+004  0.1043930E+01  0.7957747E-01            NaN
         13   -1    0    0    0    0  0.00000000000E+00  0.00000000000E+00  0.74505805969E-08  0.10566000000E+00  0.10566000000E+00 0. -1.
     999900   -1    0    0    0    0 -0.00000000000E+00 -0.00000000000E+00 -0.74505805969E-08  0.93827000000E+00  0.93827000000E+00 0.  1.
     999902    2    1    2    0    0 -0.92629207808E-03 -0.32622473847E-02 -0.23202421355E-01  0.10204810633E+01  0.10202116192E+01 0.  0.
     999903    2    3    3    0    0 -0.11140417105E-01 -0.52184221511E-01 -0.12060546605E+00  0.13369752658E+00  0.21955598516E-01 0.  0.
         14    1    1    2    0    0  0.92629207808E-03  0.32622473847E-02  0.23202421355E-01  0.23448936686E-01  0.00000000000E+00 0. -1.
     999901    1    3    3    0    0  0.10214125027E-01  0.48921974127E-01  0.97403044691E-01  0.88678353673E+00  0.88000000000E+00 0. -1.
        -11    1    4    4    0    0 -0.17061967079E-01 -0.43494505541E-01 -0.10431548644E+00  0.11430163850E+00  0.51100000000E-03 0.  1.
         11    1    4    4    0    0  0.59215499741E-02 -0.86897159707E-02 -0.16289979607E-01  0.19395888078E-01  0.51100000000E-03 0. -1.
</event>
<event>
 8    1  0.5489035E+004  0.1043930E+01  0.7957747E-01            NaN
         13   -1    0    0    0    0  0.00000000000E+00  0.00000000000E+00  0.74505805969E-08  0.10566000000E+00  0.10566000000E+00 0.  1.
     999900   -1    0    0    0    0 -0.00000000000E+00 -0.00000000000E+00 -0.74505805969E-08  0.93827000000E+00  0.93827000000E+00 0. -1.
     999902    2    1    2    0    0  0.19253452782E-01 -0.10481089937E-01  0.81573436816E-02  0.10205400247E+01  0.10202719495E+01 0.  0.
     999903    2    3    3    0    0 -0.74462070037E-01  0.44104245874E-01 -0.92626760572E-01  0.12817261503E+00  0.18939854583E-01 0.  0.
         14    1    1    2    0    0 -0.19253452782E-01  0.10481089937E-01 -0.81573436816E-02  0.23389975336E-01  0.00000000000E+00 0. -1.
     999901    1    3    3    0    0  0.93715522819E-01 -0.54585335812E-01  0.10078410425E+00  0.89236740963E+00  0.88000000000E+00 0. -1.
        -11    1    4    4    0    0 -0.22601787011E-01  0.18999600094E-01 -0.42787379866E-01  0.51988908208E-01  0.51100000000E-03 0.  1.
         11    1    4    4    0    0 -0.51860283026E-01  0.25104645780E-01 -0.49839380706E-01  0.76183706824E-01  0.51100000000E-03 0. -1.
</event>
<event>
 8    1  0.5489035E+004  0.1043930E+01  0.7957747E-01            NaN
         13   -1    0    0    0    0  0.00000000000E+00  0.00000000000E+00  0.74505805969E-08  0.10566000000E+00  0.10566000000E+00 0. -1.
     999900   -1    0    0    0    0 -0.00000000000E+00 -0.00000000000E+00 -0.74505805969E-08  0.93827000000E+00  0.93827000000E+00 0.  1.
     999902    2    1    2    0    0  0.20066055640E-01  0.11451301548E-01  0.42550907320E-02  0.10204377738E+01  0.10201673223E+01 0.  0.
     999903    2    3    3    0    0 -0.31866495713E-01 -0.35118863037E-01  0.11959075095E+00  0.13017484371E+00  0.19867917191E-01 0.  0.
         14    1    1    2    0    0 -0.20066055640E-01 -0.11451301548E-01 -0.42550907320E-02  0.23492226230E-01  0.00000000000E+00 0.  1.
     999901    1    3    3    0    0  0.51932551353E-01  0.46570164585E-01 -0.11533566021E+00  0.89026293006E+00  0.88000000000E+00 0.  1.
        -11    1    4    4    0    0 -0.15856389854E-01 -0.22043376590E-01  0.90478115464E-01  0.94466322304E-01  0.51100000000E-03 0. -1.
         11    1    4    4    0    0 -0.16010105858E-01 -0.13075486448E-01  0.29112635482E-01  0.35708521408E-01  0.51100000000E-03 0.  1.
</event>
<event>
 8    1  0.5489035E+004  0.1043930E+01  0.7957747E-01            NaN
         13   -1    0    0    0    0  0.00000000000E+00  0.00000000000E+00  0.74505805969E-08  0.10566000000E+00  0.10566000000E+00 0. -1.
     999900   -1    0    0    0    0 -0.00000000000E+00 -0.00000000000E+00 -0.74505805969E-08  0.93827000000E+00  0.93827000000E+00 0.  1.
     999902    2    1    2    0    0 -0.15961296112E-01 -0.20258379309E-02 -0.17463189693E-01  0.10201848955E+01  0.10199085209E+01 0.  0.
     999903    2    3    3    0    0  0.65493318858E-01 -0.70022681739E-01  0.82511599371E-01  0.12819084648E+00  0.20788898875E-01 0.  0.
         14    1    1    2    0    0  0.15961296112E-01  0.20258379309E-02  0.17463189693E-01  0.23745104488E-01  0.00000000000E+00 0. -1.
     999901    1    3    3    0    0 -0.81454614970E-01  0.67996843808E-01 -0.99974789064E-01  0.89199404904E+00  0.88000000000E+00 0.  1.
        -11    1    4    4    0    0  0.59988585886E-01 -0.66806699813E-01  0.68989271000E-01  0.11323226665E+00  0.51100000000E-03 0.  1.
         11    1    4    4    0    0  0.55047329721E-02 -0.32159819264E-02  0.13522328371E-01  0.14958579827E-01  0.51100000000E-03 0. -1.
</event>
<event>
 8    1  0.5489035E+004  0.1043930E+01  0.7957747E-01            NaN
         13   -1    0    0    0    0  0.00000000000E+00  0.00000000000E+00  0.74505805969E-08  0.10566000000E+00  0.10566000000E+00 0.  1.
     999900   -1    0    0    0    0 -0.00000000000E+00 -0.00000000000E+00 -0.74505805969E-08  0.93827000000E+00  0.93827000000E+00 0. -1.
     999902    2    1    2    0    0  0.55404987225E-02 -0.36959016646E-02  0.21481500526E-01  0.10214397426E+01  0.10211921151E+01 0.  0.
     999903    2    3    3    0    0 -0.64649614349E-01  0.11105371292E+00  0.17628121994E-01  0.13121001122E+00  0.19819600695E-01 0.  0.
         14    1    1    2    0    0 -0.55404987225E-02  0.36959016646E-02 -0.21481500526E-01  0.22490257448E-01  0.00000000000E+00 0. -1.
     999901    1    3    3    0    0  0.70190113071E-01 -0.11474961458E+00  0.38533785324E-02  0.89022973133E+00  0.88000000000E+00 0.  1.
        -11    1    4    4    0    0 -0.87689852939E-02  0.72077792117E-02 -0.23479144256E-02  0.11602629331E-01  0.51100000000E-03 0. -1.
         11    1    4    4    0    0 -0.55880629055E-01  0.10384593370E+00  0.19976036419E-01  0.11960738189E+00  0.51100000000E-03 0.  1.
</event>
<event>
 8    1  0.5489035E+004  0.1043930E+01  0.7957747E-01            NaN
         13   -1    0    0    0    0  0.00000000000E+00  0.00000000000E+00  0.74505805969E-08  0.10566000000E+00  0.10566000000E+00 0. -1.
     999900   -1    0    0    0    0 -0.00000000000E+00 -0.00000000000E+00 -0.74505805969E-08  0.93827000000E+00  0.93827000000E+00 0. -1.
     999902    2    1    2    0    0  0.38795185860E-02 -0.14354325418E-01  0.15698610695E-01  0.10223072411E+01  0.10220785447E+01 0.  0.
     999903    2    3    3    0    0 -0.12472724251E-01 -0.10539353248E-01  0.13203085345E+00  0.13449242906E+00  0.19733737451E-01 0.  0.
         14    1    1    2    0    0 -0.38795185860E-02  0.14354325418E-01 -0.15698610695E-01  0.21622758853E-01  0.00000000000E+00 0.  1.
     999901    1    3    3    0    0  0.16352242837E-01 -0.38149721697E-02 -0.11633224276E+00  0.88781481209E+00  0.88000000000E+00 0. -1.
        -11    1    4    4    0    0  0.51624611246E-02 -0.28262249054E-02  0.42946891185E-01  0.43351299122E-01  0.51100000000E-03 0.  1.
         11    1    4    4    0    0 -0.17635185375E-01 -0.77131283430E-02  0.89083962267E-01  0.91141129937E-01  0.51100000000E-03 0. -1.
</event>
<event>
 8    1  0.5489035E+004  0.1043930E+01  0.7957747E-01            NaN
         13   -1    0    0    0    0  0.00000000000E+00  0.00000000000E+00  0.74505805969E-08  0.10566000000E+00  0.10566000000E+00 0. -1.
     999900   -1    0    0    0    0 -0.00000000000E+00 -0.00000000000E+00 -0.74505805969E-08  0.93827000000E+00  0.93827000000E+00 0.  1.
     999902    2    1    2    0    0 -0.30340749683E-02  0.72556308381E-02 -0.26631223688E-01  0.10161618192E+01  0.10157823443E+01 0.  0.
     999903    2    3    3    0    0 -0.31630261380E-02 -0.11737569616E+00 -0.44542755304E-01  0.12719961120E+00  0.20214481326E-01 0.  0.
         14    1    1    2    0    0  0.30340749683E-02 -0.72556308381E-02  0.26631223688E-01  0.27768180799E-01  0.00000000000E+00 0. -1.
     999901    1    3    3    0    0  0.12895116968E-03  0.12463132700E+00  0.17911531617E-01  0.88896220801E+00  0.88000000000E+00 0. -1.
        -11    1    4    4    0    0  0.20117678202E-02 -0.48114510408E-01 -0.28338482272E-01  0.55878296503E-01  0.51100000000E-03 0.  1.
         11    1    4    4    0    0 -0.51747939582E-02 -0.69261185750E-01 -0.16204273032E-01  0.71321314693E-01  0.51100000000E-03 0. -1.
</event>
<event>
 8    1  0.5489035E+004  0.1043930E+01  0.7957747E-01            NaN
         13   -1    0    0    0    0  0.00000000000E+00  0.00000000000E+00  0.74505805969E-08  0.10566000000E+00  0.10566000000E+00 0.  1.
     999900   -1    0    0    0    0 -0.00000000000E+00 -0.00000000000E+00 -0.74505805969E-08  0.93827000000E+00  0.93827000000E+00 0.  1.
     999902    2    1    2    0    0 -0.10860457388E-01  0.20721232318E-01 -0.28892127172E-02  0.10203574195E+01  0.10200850930E+01 0.  0.
     999903    2    3    3    0    0  0.11475796285E+00  0.48053640453E-01  0.32311186882E-01  0.13032027631E+00  0.21466700325E-01 0.  0.
         14    1    1    2    0    0  0.10860457388E-01 -0.20721232318E-01  0.28892127172E-02  0.23572580546E-01  0.00000000000E+00 0.  1.
     999901    1    3    3    0    0 -0.12561842024E+00 -0.27332408135E-01 -0.35200399599E-01  0.89003714314E+00  0.88000000000E+00 0.  1.
        -11    1    4    4    0    0  0.10788967054E+00  0.49224568635E-01  0.27213391040E-01  0.12167197269E+00  0.51100000000E-03 0. -1.
         11    1    4    4    0    0  0.68682923092E-02 -0.11709281821E-02  0.50977958417E-02  0.86483036195E-02  0.51100000000E-03 0.  1.
</event>
<event>
 8    1  0.5489035E+004  0.1043930E+01  0.7957747E-01            NaN
         13   -1    0    0    0    0  0.00000000000E+00  0.00000000000E+00  0.74505805969E-08  0.10566000000E+00  0.10566000000E+00 0. -1.
     999900   -1    0    0    0    0 -0.00000000000E+00 -0.00000000000E+00 -0.74505805969E-08  0.93827000000E+00  0.93827000000E+00 0. -1.
     999902    2    1    2    0    0 -0.10074722119E-01  0.63787372722E-03  0.21705834415E-01  0.10199915340E+01  0.10197105860E+01 0.  0.
     999903    2    3    3    0    0 -0.11989116907E-01 -0.10471266780E+00  0.76924415332E-01  0.13198731483E+00  0.19869672374E-01 0.  0.
         14    1    1    2    0    0  0.10074722119E-01 -0.63787372722E-03 -0.21705834415E-01  0.23938466040E-01  0.00000000000E+00 0.  1.
     999901    1    3    3    0    0  0.19143947880E-02  0.10535054153E+00 -0.55218580916E-01  0.88800421913E+00  0.88000000000E+00 0. -1.
        -11    1    4    4    0    0 -0.12001222718E-01 -0.95341817735E-01  0.62010449078E-01  0.11436629080E+00  0.51100000000E-03 0.  1.
         11    1    4    4    0    0  0.12105811078E-04 -0.93708500684E-02  0.14913966254E-01  0.17621024033E-01  0.51100000000E-03 0. -1.
</event>
<event>
 8    1  0.5489035E+004  0.1043930E+01  0.7957747E-01            NaN
         13   -1    0    0    0    0  0.00000000000E+00  0.00000000000E+00  0.74505805969E-08  0.10566000000E+00  0.10566000000E+00 0. -1.
     999900   -1    0    0    0    0 -0.00000000000E+00 -0.00000000000E+00 -0.74505805969E-08  0.93827000000E+00  0.93827000000E+00 0.  1.
     999902    2    1    2    0    0 -0.27432760393E-02 -0.29342513733E-02 -0.22783045338E-01  0.10207955549E+01  0.10205333715E+01 0.  0.
     999903    2    3    3    0    0  0.70074280267E-01  0.67355464206E-01 -0.88039941267E-01  0.13259428094E+00  0.19571631679E-01 0.  0.
         14    1    1    2    0    0  0.27432760393E-02  0.29342513733E-02  0.22783045338E-01  0.23134445086E-01  0.00000000000E+00 0. -1.
     999901    1    3    3    0    0 -0.72817556306E-01 -0.70289715579E-01  0.65256895929E-01  0.88820127397E+00  0.88000000000E+00 0. -1.
        -11    1    4    4    0    0  0.46946478991E-01  0.36672760933E-01 -0.43478995584E-01  0.73753287805E-01  0.51100000000E-03 0.  1.
         11    1    4    4    0    0  0.23127801275E-01  0.30682703273E-01 -0.44560945683E-01  0.58840993135E-01  0.51100000000E-03 0. -1.
</event>
<event>
 8    1  0.5489035E+004  0.1043930E+01  0.7957747E-01            NaN
         13   -1    0    0    0    0  0.00000000000E+00  0.00000000000E+00  0.74505805969E-08  0.10566000000E+00  0.10566000000E+00 0. -1.
     999900   -1    0    0    0    0 -0.00000000000E+00 -0.00000000000E+00 -0.74505805969E-08  0.93827000000E+00  0.93827000000E+00 0.  1.
     999902    2    1    2    0    0  0.11770666984E-01 -0.17011357267E-01 -0.15553931331E-01  0.10180483529E+01  0.10177193077E+01 0.  0.
     999903    2    3    3    0    0 -0.68851836578E-01  0.78293436770E-01  0.66728085351E-01  0.12543795517E+00  0.20288065000E-01 0.  0.
         14    1    1    2    0    0 -0.11770666984E-01  0.17011357267E-01  0.15553931331E-01  0.25881647111E-01  0.00000000000E+00 0. -1.
     999901    1    3    3    0    0  0.80622503561E-01 -0.95304794037E-01 -0.82282016681E-01  0.89261039772E+00  0.88000000000E+00 0.  1.
        -11    1    4    4    0    0 -0.25711551173E-01  0.20996286847E-01  0.30505605679E-01  0.45086372929E-01  0.51100000000E-03 0.  1.
         11    1    4    4    0    0 -0.43140285405E-01  0.57297149923E-01  0.36222479671E-01  0.80351582241E-01  0.51100000000E-03 0. -1.
</event>
<event>
 8    1  0.5489035E+004  0.1043930E+01  0.7957747E-01            NaN
         13   -1    0    0    0    0  0.00000000000E+00  0.00000000000E+00  0.74505805969E-08  0.10566000000E+00  0.10566000000E+00 0. -1.
     999900   -1    0    0    0    0 -0.00000000000E+00 -0.00000000000E+00 -0.74505805969E-08  0.93827000000E+00  0.93827000000E+00 0. -1.
     999902    2    1    2    0    0  0.17578710530E-01  0.12109021373E-01  0.71854051366E-02  0.10214073556E+01  0.10211590065E+01 0.  0.
     999903    2    3    3    0    0 -0.96837136266E-01  0.84863969599E-01  0.14267176290E-01  0.13099485573E+00  0.19410708709E-01 0.  0.
         14    1    1    2    0    0 -0.17578710530E-01 -0.12109021373E-01 -0.71854051366E-02  0.22522644371E-01  0.00000000000E+00 0.  1.
     999901    1    3    3    0    0  0.11441584680E+00 -0.72754948226E-01 -0.70817711538E-02  0.89041249990E+00  0.88000000000E+00 0. -1.
        -11    1    4    4    0    0 -0.68225211172E-01  0.47738932306E-01  0.70460209596E-02  0.83567892336E-01  0.51100000000E-03 0. -1.
         11    1    4    4    0    0 -0.28611925095E-01  0.37125037293E-01  0.72211553307E-02  0.47426963396E-01  0.51100000000E-03 0.  1.
</event>
<event>
 7    1  0.5489035E+004  0.1043930E+01  0.7957747E-01            NaN
         13   -1    0    0    0    0  0.00000000000E+00  0.00000000000E+00  0.74505805969E-08  0.10566000000E+00  0.10566000000E+00 0. -1.
     999900   -1    0    0    0    0 -0.00000000000E+00 -0.00000000000E+00 -0.74505805969E-08  0.93827000000E+00  0.93827000000E+00 0.  1.
     999903    2    1    2    0    0 -0.37601514482E-01  0.74693136555E-01  0.57395583090E-02  0.89556932506E-01  0.31536694351E-01 0.  0.
         14    1    1    2    0    0  0.54168789820E-01 -0.28598228153E-01  0.37725605478E-01  0.71939820355E-01  0.00000000000E+00 0. -1.
     999901    1    1    2    0    0 -0.16567275338E-01 -0.46094908402E-01 -0.43465163787E-01  0.88243324714E+00  0.88000000000E+00 0. -1.
        -11    1    3    3    0    0 -0.41334667265E-01  0.52402442515E-01  0.34350285535E-02  0.66832860493E-01  0.51100000000E-03 0. -1.
         11    1    3    3    0    0  0.37331527836E-02  0.22290694039E-01  0.23045297554E-02  0.22724072013E-01  0.51100000000E-03 0.  1.
</event>
<event>
 8    1  0.5489035E+004  0.1043930E+01  0.7957747E-01            NaN
         13   -1    0    0    0    0  0.00000000000E+00  0.00000000000E+00  0.74505805969E-08  0.10566000000E+00  0.10566000000E+00 0. -1.
     999900   -1    0    0    0    0 -0.00000000000E+00 -0.00000000000E+00 -0.74505805969E-08  0.93827000000E+00  0.93827000000E+00 0.  1.
     999902    2    1    2    0    0 -0.13823351901E-01 -0.15923662619E-01  0.99430532350E-02  0.10206166477E+01  0.10203503463E+01 0.  0.
     999903    2    3    3    0    0  0.26784288876E-01  0.71565166752E-01  0.10356413566E+00  0.13040982742E+00  0.21029067250E-01 0.  0.
         14    1    1    2    0    0  0.13823351901E-01  0.15923662619E-01 -0.99430532350E-02  0.23313352325E-01  0.00000000000E+00 0. -1.
     999901    1    3    3    0    0 -0.40607640777E-01 -0.87488829371E-01 -0.93621082427E-01  0.89020682026E+00  0.88000000000E+00 0.  1.
        -11    1    4    4    0    0  0.53144458215E-02  0.10916415575E-01  0.31718435948E-01  0.33966627200E-01  0.51100000000E-03 0. -1.
         11    1    4    4    0    0  0.21469843055E-01  0.60648751177E-01  0.71845699714E-01  0.96443200220E-01  0.51100000000E-03 0.  1.
</event>
<event>
 8    1  0.5489035E+004  0.1043930E+01  0.7957747E-01            NaN
         13   -1    0    0    0    0  0.00000000000E+00  0.00000000000E+00  0.74505805969E-08  0.10566000000E+00  0.10566000000E+00 0.  1.
     999900   -1    0    0    0    0 -0.00000000000E+00 -0.00000000000E+00 -0.74505805969E-08  0.93827000000E+00  0.93827000000E+00 0.  1.
     999902    2    1    2    0    0  0.14955332700E-01 -0.13153258262E-01 -0.13182528892E-01  0.10200459206E+01  0.10197662629E+01 0.  0.
     999903    2    3    3    0    0 -0.42295331684E-01  0.33791359322E-01  0.11406478380E+00  0.12781651388E+00  0.19888068565E-01 0.  0.
         14    1    1    2    0    0 -0.14955332700E-01  0.13153258262E-01  0.13182528892E-01  0.23884079364E-01  0.00000000000E+00 0.  1.
     999901    1    3    3    0    0  0.57250664384E-01 -0.46944617584E-01 -0.12724731269E+00  0.89222940676E+00  0.88000000000E+00 0.  1.
        -11    1    4    4    0    0 -0.82613937471E-02  0.18135714442E-01  0.33861175392E-01  0.39293702866E-01  0.51100000000E-03 0.  1.
         11    1    4    4    0    0 -0.34033937937E-01  0.15655644880E-01  0.80203608403E-01  0.88522811015E-01  0.51100000000E-03 0. -1.
</event>
<event>
 8    1  0.5489035E+004  0.1043930E+01  0.7957747E-01            NaN
         13   -1    0    0    0    0  0.00000000000E+00  0.00000000000E+00  0.74505805969E-08  0.10566000000E+00  0.10566000000E+00 0.  1.
     999900   -1    0    0    0    0 -0.00000000000E+00 -0.00000000000E+00 -0.74505805969E-08  0.93827000000E+00  0.93827000000E+00 0.  1.
     999902    2    1    2    0    0  0.20298012220E-01  0.20004654869E-01 -0.28746017786E-02  0.10152863471E+01  0.10148822137E+01 0.  0.
     999903    2    3    3    0    0  0.59984345418E-01  0.88416158138E-01  0.69104288246E-01  0.12881237712E+00  0.20042133903E-01 0.  0.
         14    1    1    2    0    0 -0.20298012220E-01 -0.20004654869E-01  0.28746017786E-02  0.28643652907E-01  0.00000000000E+00 0.  1.
     999901    1    3    3    0    0 -0.39686333198E-01 -0.68411503269E-01 -0.71978890025E-01  0.88647396997E+00  0.88000000000E+00 0.  1.
        -11    1    4    4    0    0  0.42914457453E-01  0.52044272507E-01  0.51854379704E-01  0.85084633012E-01  0.51100000000E-03 0.  1.
         11    1    4    4    0    0  0.17069887964E-01  0.36371885630E-01  0.17249908542E-01  0.43727744112E-01  0.51100000000E-03 0. -1.
</event>
<event>
 8    1  0.5489035E+004  0.1043930E+01  0.7957747E-01            NaN
         13   -1    0    0    0    0  0.00000000000E+00  0.00000000000E+00  0.74505805969E-08  0.10566000000E+00  0.10566000000E+00 0. -1.
     999900   -1    0    0    0    0 -0.00000000000E+00 -0.00000000000E+00 -0.74505805969E-08  0.93827000000E+00  0.93827000000E+00 0.  1.
     999902    2    1    2    0    0  0.80535193682E-02  0.21354400667E-01  0.30569551595E-02  0.10209036113E+01  0.10206438992E+01 0.  0.
     999903    2    3    3    0    0  0.64700125996E-01 -0.21045370464E-01 -0.10980711676E+00  0.13087839965E+00  0.21036603390E-01 0.  0.
         14    1    1    2    0    0 -0.80535193682E-02 -0.21354400667E-01 -0.30569551595E-02  0.23026388707E-01  0.00000000000E+00 0.  1.
     999901    1    3    3    0    0 -0.56646606628E-01  0.42399771131E-01  0.11286407192E+00  0.89002521165E+00  0.88000000000E+00 0. -1.
        -11    1    4    4    0    0  0.32136164708E-02  0.22471852883E-02 -0.16120687127E-02  0.42704869835E-02  0.51100000000E-03 0. -1.
         11    1    4    4    0    0  0.61486509525E-01 -0.23292555753E-01 -0.10819504804E+00  0.12660791266E+00  0.51100000000E-03 0.  1.
</event>
<event>
 8    1  0.5489035E+004  0.1043930E+01  0.7957747E-01            NaN
         13   -1    0    0    0    0  0.00000000000E+00  0.00000000000E+00  0.74505805969E-08  0.10566000000E+00  0.10566000000E+00 0.  1.
     999900   -1    0    0    0    0 -0.00000000000E+00 -0.00000000000E+00 -0.74505805969E-08  0.93827000000E+00  0.93827000000E+00 0. -1.
     999902    2    1    2    0    0  0.16397797941E-01  0.25167641491E-01 -0.70484374982E-02  0.10130758524E+01  0.10126058978E+01 0.  0.
     999903    2    3    3    0    0 -0.44760128049E-01  0.43619278345E-02 -0.11402015309E+00  0.12424734383E+00  0.20354647175E-01 0.  0.
         14    1    1    2    0    0 -0.16397797941E-01 -0.25167641491E-01  0.70484374982E-02  0.30854147642E-01  0.00000000000E+00 0.  1.
     999901    1    3    3    0    0  0.61157925990E-01  0.20805713656E-01  0.10697171559E+00  0.88882850853E+00  0.88000000000E+00 0.  1.
        -11    1    4    4    0    0 -0.56263124661E-02  0.20911935456E-02 -0.40336519401E-01  0.40783874274E-01  0.51100000000E-03 0. -1.
         11    1    4    4    0    0 -0.39133815583E-01  0.22707342888E-02 -0.73683633688E-01  0.83463469559E-01  0.51100000000E-03 0.  1.
</event>
<event>
 8    1  0.5489035E+004  0.1043930E+01  0.7957747E-01            NaN
         13   -1    0    0    0    0  0.00000000000E+00  0.00000000000E+00  0.74505805969E-08  0.10566000000E+00  0.10566000000E+00 0.  1.
     999900   -1    0    0    0    0 -0.00000000000E+00 -0.00000000000E+00 -0.74505805969E-08  0.93827000000E+00  0.93827000000E+00 0.  1.
     999902    2    1    2    0    0 -0.13813157631E-01  0.18062142012E-01 -0.60404283554E-02  0.10204027589E+01  0.10201314912E+01 0.  0.
     999903    2    3    3    0    0  0.96506884455E-01 -0.31983819299E-01 -0.77237746594E-01  0.12925508988E+00  0.20116294789E-01 0.  0.
         14    1    1    2    0    0  0.13813157631E-01 -0.18062142012E-01  0.60404283554E-02  0.23527241073E-01  0.00000000000E+00 0.  1.
     999901    1    3    3    0    0 -0.11032004209E+00  0.50045961311E-01  0.71197318238E-01  0.89114766905E+00  0.88000000000E+00 0. -1.
        -11    1    4    4    0    0  0.88457558765E-01 -0.22837715497E-01 -0.66395955553E-01  0.11293796964E+00  0.51100000000E-03 0.  1.
         11    1    4    4    0    0  0.80493256895E-02 -0.91461038022E-02 -0.10841791041E-01  0.16317120236E-01  0.51100000000E-03 0. -1.
</event>
<event>
 8    1  0.5489035E+004  0.1043930E+01  0.7957747E-01            NaN
         13   -1    0    0    0    0  0.00000000000E+00  0.00000000000E+00  0.74505805969E-08  0.10566000000E+00  0.10566000000E+00 0. -1.
     999900   -1    0    0    0    0 -0.00000000000E+00 -0.00000000000E+00 -0.74505805969E-08  0.93827000000E+00  0.93827000000E+00 0. -1.
     999902    2    1    2    0    0 -0.19174423812E-01  0.13774031280E-01 -0.63485294960E-02  0.10194823765E+01  0.10191892021E+01 0.  0.
     999903    2    3    3    0    0  0.19247835588E-01  0.10383619766E+00 -0.75554956216E-01  0.13135119629E+00  0.19802783579E-01 0.  0.
         14    1    1    2    0    0  0.19174423812E-01 -0.13774031280E-01  0.63485294960E-02  0.24447623463E-01  0.00000000000E+00 0.  1.
     999901    1    3    3    0    0 -0.38422259400E-01 -0.90062166383E-01  0.69206426720E-01  0.88813118025E+00  0.88000000000E+00 0.  1.
        -11    1    4    4    0    0  0.27757473903E-02  0.60777734875E-01 -0.36679156701E-01  0.71044067221E-01  0.51100000000E-03 0. -1.
         11    1    4    4    0    0  0.16472088197E-01  0.43058462788E-01 -0.38875799515E-01  0.60307129066E-01  0.51100000000E-03 0.  1.
</event>
<event>
 8    1  0.5489035E+004  0.1043930E+01  0.7957747E-01            NaN
         13   -1    0    0    0    0  0.00000000000E+00  0.00000000000E+00  0.74505805969E-08  0.10566000000E+00  0.10566000000E+00 0. -1.
     999900   -1    0    0    0    0 -0.00000000000E+00 -0.00000000000E+00 -0.74505805969E-08  0.93827000000E+00  0.93827000000E+00 0.  1.
     999902    2    1    2    0    0  0.24314444675E-01  0.32531249335E-02 -0.56299540389E-02  0.10187611418E+01  0.10184501915E+01 0.  0.
     999903    2    3    3    0    0 -0.81973624894E-01 -0.82102472808E-01 -0.48102232985E-01  0.12725307884E+00  0.20470223196E-01 0.  0.
         14    1    1    2    0    0 -0.24314444675E-01 -0.32531249335E-02  0.56299540389E-02  0.25168858221E-01  0.00000000000E+00 0.  1.
     999901    1    3    3    0    0  0.10628806957E+00  0.85355597742E-01  0.42472278946E-01  0.89150806293E+00  0.88000000000E+00 0. -1.
        -11    1    4    4    0    0 -0.42364148128E-01 -0.48769280234E-01 -0.36490300799E-01  0.74195464245E-01  0.51100000000E-03 0. -1.
         11    1    4    4    0    0 -0.39609476766E-01 -0.33333192575E-01 -0.11611932186E-01  0.53057614599E-01  0.51100000000E-03 0.  1.
</event>
<event>
 8    1  0.5489035E+004  0.1043930E+01  0.7957747E-01            NaN
         13   -1    0    0    0    0  0.00000000000E+00  0.00000000000E+00  0.74505805969E-08  0.10566000000E+00  0.10566000000E+00 0. -1.
     999900   -1    0    0    0    0 -0.00000000000E+00 -0.00000000000E+00 -0.74505805969E-08  0.93827000000E+00  0.93827000000E+00 0. -1.
     999902    2    1    2    0    0  0.14035203767E-01 -0.18911992695E-01  0.34314261466E-02  0.10201303131E+01  0.10198526514E+01 0.  0.
     999903    2    3    3    0    0 -0.55691473925E-01 -0.50789902407E-01 -0.10420590830E+00  0.13026301596E+00  0.20698491391E-01 0.  0.
         14    1    1    2    0    0 -0.14035203767E-01  0.18911992695E-01 -0.34314261466E-02  0.23799686928E-01  0.00000000000E+00 0.  1.
     999901    1    3    3    0    0  0.69726677692E-01  0.31877909712E-01  0.10763733445E+00  0.88986729712E+00  0.88000000000E+00 0.  1.
        -11    1    4    4    0    0 -0.29852107658E-01 -0.38782880905E-01 -0.57079852028E-01  0.75190629812E-01  0.51100000000E-03 0.  1.
         11    1    4    4    0    0 -0.25839366268E-01 -0.12007021501E-01 -0.47126056276E-01  0.55072386144E-01  0.51100000000E-03 0. -1.
</event>
<event>
 8    1  0.5489035E+004  0.1043930E+01  0.7957747E-01            NaN
         13   -1    0    0    0    0  0.00000000000E+00  0.00000000000E+00  0.74505805969E-08  0.10566000000E+00  0.10566000000E+00 0.  1.
     999900   -1    0    0    0    0 -0.00000000000E+00 -0.00000000000E+00 -0.74505805969E-08  0.93827000000E+00  0.93827000000E+00 0.  1.
     999902    2    1    2    0    0  0.23726738787E-01  0.88598276042E-02 -0.82307405325E-02  0.10172991951E+01  0.10169505655E+01 0.  0.
     999903    2    3    3    0    0 -0.89379332947E-01  0.84893376401E-01  0.19897295039E-01  0.12636414115E+00  0.19402146917E-01 0.  0.
         14    1    1    2    0    0 -0.23726738787E-01 -0.88598276042E-02  0.82307405325E-02  0.26630804877E-01  0.00000000000E+00 0.  1.
     999901    1    3    3    0    0  0.11310607173E+00 -0.76033548797E-01 -0.28128035571E-01  0.89093505397E+00  0.88000000000E+00 0.  1.
        -11    1    4    4    0    0 -0.14872348975E-01  0.68558947738E-02 -0.11893196560E-02  0.16427588363E-01  0.51100000000E-03 0.  1.
         11    1    4    4    0    0 -0.74506983972E-01  0.78037481627E-01  0.21086614695E-01  0.10993655279E+00  0.51100000000E-03 0. -1.
</event>
<event>
 8    1  0.5489035E+004  0.1043930E+01  0.7957747E-01            NaN
         13   -1    0    0    0    0  0.00000000000E+00  0.00000000000E+00  0.74505805969E-08  0.10566000000E+00  0.10566000000E+00 0.  1.
     999900   -1    0    0    0    0 -0.00000000000E+00 -0.00000000000E+00 -0.74505805969E-08  0.93827000000E+00  0.93827000000E+00 0. -1.
     999902    2    1    2    0    0  0.11349306349E-01  0.20467649853E-01 -0.12233051820E-02  0.10204943878E+01  0.10202252533E+01 0.  0.
     999903    2    3    3    0    0 -0.92954322787E-01  0.76260833383E-01 -0.48889316087E-01  0.13130139692E+00  0.19841138383E-01 0.  0.
         14    1    1    2    0    0 -0.11349306349E-01 -0.20467649853E-01  0.12233051820E-02  0.23435612232E-01  0.00000000000E+00 0.  1.
     999901    1    3    3    0    0  0.10430362914E+00 -0.55793183530E-01  0.47666010905E-01  0.88919299085E+00  0.88000000000E+00 0.  1.
        -11    1    4    4    0    0 -0.60716351991E-01  0.38921903439E-01 -0.34252461106E-01  0.79842859288E-01  0.51100000000E-03 0.  1.
         11    1    4    4    0    0 -0.32237970796E-01  0.37338929944E-01 -0.14636854981E-01  0.51458537631E-01  0.51100000000E-03 0. -1.
</event>
<event>
 8    1  0.5489035E+004  0.1043930E+01  0.7957747E-01            NaN
         13   -1    0    0    0    0  0.00000000000E+00  0.00000000000E+00  0.74505805969E-08  0.10566000000E+00  0.10566000000E+00 0.  1.
     999900   -1    0    0    0    0 -0.00000000000E+00 -0.00000000000E+00 -0.74505805969E-08  0.93827000000E+00  0.93827000000E+00 0.  1.
     999902    2    1    2    0    0 -0.27624185563E-01 -0.10559836644E-01 -0.12706235964E-01  0.10117422040E+01  0.10112300595E+01 0.  0.
     999903    2    3    3    0    0 -0.20946695737E-01  0.11547649476E+00  0.26084599794E-01  0.12189138807E+00  0.20087788195E-01 0.  0.
         14    1    1    2    0    0  0.27624185563E-01  0.10559836644E-01  0.12706235964E-01  0.32187795985E-01  0.00000000000E+00 0.  1.
     999901    1    3    3    0    0 -0.66774898264E-02 -0.12603633140E+00 -0.38790835758E-01  0.88985081595E+00  0.88000000000E+00 0. -1.
        -11    1    4    4    0    0 -0.47561189179E-02  0.47821190039E-01  0.14194970011E-02  0.48080796340E-01  0.51100000000E-03 0.  1.
         11    1    4    4    0    0 -0.16190576819E-01  0.67655304720E-01  0.24665102793E-01  0.73810591728E-01  0.51100000000E-03 0. -1.
</event>
<event>
 8    1  0.5489035E+004  0.1043930E+01  0.7957747E-01            NaN
         13   -1    0    0    0    0  0.00000000000E+00  0.00000000000E+00  0.74505805969E-08  0.10566000000E+00  0.10566000000E+00 0. -1.
     999900   -1    0    0    0    0 -0.00000000000E+00 -0.00000000000E+00 -0.74505805969E-08  0.93827000000E+00  0.93827000000E+00 0.  1.
     999902    2    1    2    0    0 -0.10869982394E-01 -0.11859404083E-01  0.18751102289E-01  0.10192236077E+01  0.10189241172E+01 0.  0.
     999903    2    3    3    0    0  0.96856196510E-01 -0.83525950642E-01 -0.33013454089E-03  0.12955787436E+00  0.20674297726E-01 0.  0.
         14    1    1    2    0    0  0.10869982394E-01  0.11859404083E-01 -0.18751102289E-01  0.24706392280E-01  0.00000000000E+00 0.  1.
     999901    1    3    3    0    0 -0.10772617890E+00  0.71666546559E-01  0.19081236830E-01  0.88966573336E+00  0.88000000000E+00 0.  1.
        -11    1    4    4    0    0  0.32951132713E-01 -0.18306200342E-01  0.53214651358E-02  0.38071948075E-01  0.51100000000E-03 0. -1.
         11    1    4    4    0    0  0.63905063798E-01 -0.65219750300E-01 -0.56515996767E-02  0.91485926284E-01  0.51100000000E-03 0.  1.
</event>
<event>
 8    1  0.5489035E+004  0.1043930E+01  0.7957747E-01            NaN
         13   -1    0    0    0    0  0.00000000000E+00  0.00000000000E+00  0.74505805969E-08  0.10566000000E+00  0.10566000000E+00 0. -1.
     999900   -1    0    0    0    0 -0.00000000000E+00 -0.00000000000E+00 -0.74505805969E-08  0.93827000000E+00  0.93827000000E+00 0. -1.
     999902    2    1    2    0    0 -0.13346061367E-01 -0.10942091154E-01 -0.16453614597E-01  0.10200853330E+01  0.10198066083E+01 0.  0.
     999903    2    3    3    0    0  0.32109413949E-01  0.12179655865E+00 -0.18844660797E-01  0.12896723389E+00  0.20298029813E-01 0.  0.
         14    1    1    2    0    0  0.13346061367E-01  0.10942091154E-01  0.16453614597E-01  0.23844667038E-01  0.00000000000E+00 0. -1.
     999901    1    3    3    0    0 -0.45455475317E-01 -0.13273864980E+00  0.23910461997E-02  0.89111809907E+00  0.88000000000E+00 0. -1.
        -11    1    4    4    0    0  0.34201544808E-01  0.10060157353E+00 -0.14816887550E-01  0.10728570986E+00  0.51100000000E-03 0. -1.
         11    1    4    4    0    0 -0.20921308584E-02  0.21194985123E-01 -0.40277732468E-02  0.21681524029E-01  0.51100000000E-03 0.  1.
</event>
<event>
 7    1  0.5489035E+004  0.1043930E+01  0.7957747E-01            NaN
         13   -1    0    0    0    0  0.00000000000E+00  0.00000000000E+00  0.74505805969E-08  0.10566000000E+00  0.10566000000E+00 0. -1.
     999900   -1    0    0    0    0 -0.00000000000E+00 -0.00000000000E+00 -0.74505805969E-08  0.93827000000E+00  0.93827000000E+00 0.  1.
     999903    2    1    2    0    0  0.57867890356E-02  0.10849919660E+00 -0.39507253289E-01  0.11727165940E+00  0.19653407951E-01 0.  0.
         14    1    1    2    0    0 -0.29105235214E-01 -0.10394192698E-01 -0.23257121433E-01  0.38678775266E-01  0.00000000000E+00 0.  1.
     999901    1    1    2    0    0  0.23318446178E-01 -0.98105003905E-01  0.62764374723E-01  0.88797956534E+00  0.88000000000E+00 0.  1.
        -11    1    3    3    0    0  0.12675450637E-01  0.70233281503E-01 -0.28595392264E-01  0.76885229136E-01  0.51100000000E-03 0.  1.
         11    1    3    3    0    0 -0.68886616014E-02  0.38265915100E-01 -0.10911861025E-01  0.40386430260E-01  0.51100000000E-03 0. -1.
</event>
<event>
 8    1  0.5489035E+004  0.1043930E+01  0.7957747E-01            NaN
         13   -1    0    0    0    0  0.00000000000E+00  0.00000000000E+00  0.74505805969E-08  0.10566000000E+00  0.10566000000E+00 0. -1.
     999900   -1    0    0    0    0 -0.00000000000E+00 -0.00000000000E+00 -0.74505805969E-08  0.93827000000E+00  0.93827000000E+00 0. -1.
     999902    2    1    2    0    0 -0.12426036841E-01  0.11445254713E-01 -0.16363632661E-01  0.10204104609E+01  0.10201393728E+01 0.  0.
     999903    2    3    3    0    0 -0.17538155164E-01 -0.99456220554E-01 -0.81250062787E-01  0.13106490385E+00  0.19424459478E-01 0.  0.
         14    1    1    2    0    0  0.12426036841E-01 -0.11445254713E-01  0.16363632661E-01  0.23519539129E-01  0.00000000000E+00 0. -1.
     999901    1    3    3    0    0  0.51121183231E-02  0.11090147527E+00  0.64886430127E-01  0.88934555702E+00  0.88000000000E+00 0. -1.
        -11    1    4    4    0    0 -0.93633991602E-02 -0.18787024149E-01 -0.10608779217E-01  0.23525153298E-01  0.51100000000E-03 0. -1.
         11    1    4    4    0    0 -0.81747560035E-02 -0.80669196405E-01 -0.70641283571E-01  0.10753975056E+00  0.51100000000E-03 0.  1.
</event>
<event>
 8    1  0.5489035E+004  0.1043930E+01  0.7957747E-01            NaN
         13   -1    0    0    0    0  0.00000000000E+00  0.00000000000E+00  0.74505805969E-08  0.10566000000E+00  0.10566000000E+00 0.  1.
     999900   -1    0    0    0    0 -0.00000000000E+00 -0.00000000000E+00 -0.74505805969E-08  0.93827000000E+00  0.93827000000E+00 0.  1.
     999902    2    1    2    0    0  0.65190389403E-02 -0.10597479565E-01  0.19267096357E-01  0.10209947554E+01  0.10207371185E+01 0.  0.
     999903    2    3    3    0    0  0.74599727722E-01 -0.99049363721E-01  0.45134345727E-01  0.13356710734E+00  0.20668022850E-01 0.  0.
         14    1    1    2    0    0 -0.65190389403E-02  0.10597479565E-01 -0.19267096357E-01  0.22935244578E-01  0.00000000000E+00 0. -1.
     999901    1    3    3    0    0 -0.68080688781E-01  0.88451884156E-01 -0.25867249370E-01  0.88742764808E+00  0.88000000000E+00 0.  1.
        -11    1    4    4    0    0  0.68397488424E-01 -0.95977157607E-01  0.46116690206E-01  0.12655766054E+00  0.51100000000E-03 0.  1.
         11    1    4    4    0    0  0.62022392981E-02 -0.30722061137E-02 -0.98234447877E-03  0.70094467964E-02  0.51100000000E-03 0. -1.
</event>
<event>
 8    1  0.5489035E+004  0.1043930E+01  0.7957747E-01            NaN
         13   -1    0    0    0    0  0.00000000000E+00  0.00000000000E+00  0.74505805969E-08  0.10566000000E+00  0.10566000000E+00 0.  1.
     999900   -1    0    0    0    0 -0.00000000000E+00 -0.00000000000E+00 -0.74505805969E-08  0.93827000000E+00  0.93827000000E+00 0.  1.
     999902    2    1    2    0    0  0.20893309307E-01  0.11792577176E-01 -0.74229832089E-03  0.10199269532E+01  0.10196444692E+01 0.  0.
     999903    2    3    3    0    0  0.12602026962E+00 -0.35254181766E-01 -0.11781736625E-02  0.13242187414E+00  0.20253369394E-01 0.  0.
         14    1    1    2    0    0 -0.20893309307E-01 -0.11792577176E-01  0.74229832089E-03  0.24003046828E-01  0.00000000000E+00 0. -1.
     999901    1    3    3    0    0 -0.10512696031E+00  0.47046758941E-01  0.43587534157E-03  0.88750507903E+00  0.88000000000E+00 0. -1.
        -11    1    4    4    0    0  0.34481421251E-01 -0.43351072330E-02 -0.76352584435E-02  0.35585388276E-01  0.51100000000E-03 0.  1.
         11    1    4    4    0    0  0.91538848369E-01 -0.30919074533E-01  0.64570847811E-02  0.96836485869E-01  0.51100000000E-03 0. -1.
</event>
<event>
 8    1  0.5489035E+004  0.1043930E+01  0.7957747E-01            NaN
         13   -1    0    0    0    0  0.00000000000E+00  0.00000000000E+00  0.74505805969E-08  0.10566000000E+00  0.10566000000E+00 0.  1.
     999900   -1    0    0    0    0 -0.00000000000E+00 -0.00000000000E+00 -0.74505805969E-08  0.93827000000E+00  0.93827000000E+00 0. -1.
     999902    2    1    2    0    0  0.13515707137E-02 -0.74260018012E-02  0.18698122167E-01  0.10237658730E+01  0.10235672770E+01 0.  0.
     999903    2    3    3    0    0 -0.64633268289E-02  0.12341005529E+00 -0.41681996632E-01  0.13201203631E+00  0.20444376894E-01 0.  0.
         14    1    1    2    0    0 -0.13515707137E-02  0.74260018012E-02 -0.18698122167E-01  0.20164127026E-01  0.00000000000E+00 0. -1.
     999901    1    3    3    0    0  0.78148975426E-02 -0.13083605709E+00  0.60380118799E-01  0.89175383666E+00  0.88000000000E+00 0. -1.
        -11    1    4    4    0    0  0.52146891664E-02  0.83693891981E-01 -0.28085314685E-01  0.88435889547E-01  0.51100000000E-03 0.  1.
         11    1    4    4    0    0 -0.11678015995E-01  0.39716163311E-01 -0.13596681947E-01  0.43576146763E-01  0.51100000000E-03 0. -1.
</event>
<event>
 8    1  0.5489035E+004  0.1043930E+01  0.7957747E-01            NaN
         13   -1    0    0    0    0  0.00000000000E+00  0.00000000000E+00  0.74505805969E-08  0.10566000000E+00  0.10566000000E+00 0. -1.
     999900   -1    0    0    0    0 -0.00000000000E+00 -0.00000000000E+00 -0.74505805969E-08  0.93827000000E+00  0.93827000000E+00 0.  1.
     999902    2    1    2    0    0  0.59691182245E-02  0.23378097509E-01 -0.10176978687E-02  0.10197804343E+01  0.10194944495E+01 0.  0.
     999903    2    3    3    0    0  0.26736368119E-01 -0.78761828935E-01  0.95152111929E-01  0.12842614133E+00  0.22827402288E-01 0.  0.
         14    1    1    2    0    0 -0.59691182245E-02 -0.23378097509E-01  0.10176978687E-02  0.24149565720E-01  0.00000000000E+00 0. -1.
     999901    1    3    3    0    0 -0.20767249894E-01  0.10213992644E+00 -0.96169809797E-01  0.89135429295E+00  0.88000000000E+00 0.  1.
        -11    1    4    4    0    0  0.19922661091E-01 -0.54803036739E-01  0.49816089450E-01  0.76695431088E-01  0.51100000000E-03 0.  1.
         11    1    4    4    0    0  0.68137070282E-02 -0.23958792196E-01  0.45336022479E-01  0.51730710242E-01  0.51100000000E-03 0. -1.
</event>
<event>
 8    1  0.5489035E+004  0.1043930E+01  0.7957747E-01            NaN
         13   -1    0    0    0    0  0.00000000000E+00  0.00000000000E+00  0.74505805969E-08  0.10566000000E+00  0.10566000000E+00 0. -1.
     999900   -1    0    0    0    0 -0.00000000000E+00 -0.00000000000E+00 -0.74505805969E-08  0.93827000000E+00  0.93827000000E+00 0.  1.
     999902    2    1    2    0    0 -0.20418808633E-01  0.13118293464E-01 -0.49958200636E-02  0.10191514692E+01  0.10188502057E+01 0.  0.
     999903    2    3    3    0    0 -0.41317964880E-02 -0.41847278750E-01 -0.12094908642E+00  0.12969565758E+00  0.20591639245E-01 0.  0.
         14    1    1    2    0    0  0.20418808633E-01 -0.13118293464E-01  0.49958200636E-02  0.24778530778E-01  0.00000000000E+00 0.  1.
     999901    1    3    3    0    0 -0.16287012145E-01  0.54965572215E-01  0.11595326636E+00  0.88945581165E+00  0.88000000000E+00 0. -1.
        -11    1    4    4    0    0 -0.35105309987E-02 -0.75296583297E-02 -0.52131301158E-01  0.52791602210E-01  0.51100000000E-03 0.  1.
         11    1    4    4    0    0 -0.62126548931E-03 -0.34317620421E-01 -0.68817785263E-01  0.76904055365E-01  0.51100000000E-03 0. -1.
</event>
<event>
 8    1  0.5489035E+004  0.1043930E+01  0.7957747E-01            NaN
         13   -1    0    0    0    0  0.00000000000E+00  0.00000000000E+00  0.74505805969E-08  0.10566000000E+00  0.10566000000E+00 0.  1.
     999900   -1    0    0    0    0 -0.00000000000E+00 -0.00000000000E+00 -0.74505805969E-08  0.93827000000E+00  0.93827000000E+00 0. -1.
     999902    2    1    2    0    0 -0.49976511316E-02 -0.15219533422E-01 -0.21338533161E-01  0.10172477266E+01  0.10168977302E+01 0.  0.
     999903    2    3    3    0    0 -0.38996764779E-01  0.11418846133E+00 -0.35042061261E-01  0.12702856513E+00  0.18669706430E-01 0.  0.
         14    1    1    2    0    0  0.49976511316E-02  0.15219533422E-01  0.21338533161E-01  0.26682273364E-01  0.00000000000E+00 0.  1.
     999901    1    3    3    0    0  0.33999113647E-01 -0.12940799475E+00  0.13703528101E-01  0.89021916151E+00  0.88000000000E+00 0. -1.
        -11    1    4    4    0    0 -0.80236203162E-02  0.51718758422E-01 -0.16446922202E-01  0.54863201024E-01  0.51100000000E-03 0.  1.
         11    1    4    4    0    0 -0.30973144462E-01  0.62469702903E-01 -0.18595139059E-01  0.72165364104E-01  0.51100000000E-03 0. -1.
</event>
<event>
 8    1  0.5489035E+004  0.1043930E+01  0.7957747E-01            NaN
         13   -1    0    0    0    0  0.00000000000E+00  0.00000000000E+00  0.74505805969E-08  0.10566000000E+00  0.10566000000E+00 0. -1.
     999900   -1    0    0    0    0 -0.00000000000E+00 -0.00000000000E+00 -0.74505805969E-08  0.93827000000E+00  0.93827000000E+00 0. -1.
     999902    2    1    2    0    0 -0.19492689352E-01 -0.13434470432E-01 -0.53431724174E-02  0.10196606896E+01  0.10193718274E+01 0.  0.
     999903    2    3    3    0    0  0.12318630773E+00 -0.24064363969E-01  0.14549196172E-01  0.12788381330E+00  0.19713715294E-01 0.  0.
         14    1    1    2    0    0  0.19492689352E-01  0.13434470432E-01  0.53431724174E-02  0.24269310362E-01  0.00000000000E+00 0.  1.
     999901    1    3    3    0    0 -0.14267899708E+00  0.10629893537E-01 -0.19892368589E-01  0.89177687634E+00  0.88000000000E+00 0.  1.
        -11    1    4    4    0    0  0.11295469497E+00 -0.25640747790E-01  0.17411696355E-01  0.11713086422E+00  0.51100000000E-03 0.  1.
         11    1    4    4    0    0  0.10231612758E-01  0.15763838204E-02 -0.28625001837E-02  0.10752949079E-01  0.51100000000E-03 0. -1.
</event>
<event>
 8    1  0.5489035E+004  0.1043930E+01  0.7957747E-01            NaN
         13   -1    0    0    0    0  0.00000000000E+00  0.00000000000E+00  0.74505805969E-08  0.10566000000E+00  0.10566000000E+00 0.  1.
     999900   -1    0    0    0    0 -0.00000000000E+00 -0.00000000000E+00 -0.74505805969E-08  0.93827000000E+00  0.93827000000E+00 0. -1.
     999902    2    1    2    0    0  0.16009147868E-01 -0.75938217798E-02  0.15400913384E-01  0.10204534782E+01  0.10201833923E+01 0.  0.
     999903    2    3    3    0    0  0.29992875375E-01  0.11340790756E+00  0.54072038685E-01  0.13122211396E+00  0.23119942787E-01 0.  0.
         14    1    1    2    0    0 -0.16009147868E-01  0.75938217798E-02 -0.15400913384E-01  0.23476521841E-01  0.00000000000E+00 0. -1.
     999901    1    3    3    0    0 -0.13983727507E-01 -0.12100172934E+00 -0.38671125301E-01  0.88923136420E+00  0.88000000000E+00 0.  1.
        -11    1    4    4    0    0  0.24382294765E-01  0.98236067853E-01  0.54647197292E-01  0.11502781671E+00  0.51100000000E-03 0. -1.
         11    1    4    4    0    0  0.56105806098E-02  0.15171839709E-01 -0.57515860751E-03  0.16194297248E-01  0.51100000000E-03 0.  1.
</event>
<event>
 8    1  0.5489035E+004  0.1043930E+01  0.7957747E-01            NaN
         13   -1    0    0    0    0  0.00000000000E+00  0.00000000000E+00  0.74505805969E-08  0.10566000000E+00  0.10566000000E+00 0. -1.
     999900   -1    0    0    0    0 -0.00000000000E+00 -0.00000000000E+00 -0.74505805969E-08  0.93827000000E+00  0.93827000000E+00 0. -1.
     999902    2    1    2    0    0  0.12203188368E-01  0.14646897760E-01  0.13748349243E-01  0.10204253935E+01  0.10201546535E+01 0.  0.
     999903    2    3    3    0    0 -0.10154337983E+00 -0.55063411814E-01 -0.51341357728E-01  0.12799361515E+00  0.20084650764E-01 0.  0.
         14    1    1    2    0    0 -0.12203188368E-01 -0.14646897760E-01 -0.13748349243E-01  0.23504606511E-01  0.00000000000E+00 0.  1.
     999901    1    3    3    0    0  0.11374656820E+00  0.69710309574E-01  0.65089706972E-01  0.89243177834E+00  0.88000000000E+00 0.  1.
        -11    1    4    4    0    0 -0.14191682599E-01 -0.16355110225E-01 -0.82036065281E-02  0.23161471597E-01  0.51100000000E-03 0.  1.
         11    1    4    4    0    0 -0.87351697236E-01 -0.38708301589E-01 -0.43137751200E-01  0.10483214355E+00  0.51100000000E-03 0. -1.
</event>
<event>
 8    1  0.5489035E+004  0.1043930E+01  0.7957747E-01            NaN
         13   -1    0    0    0    0  0.00000000000E+00  0.00000000000E+00  0.74505805969E-08  0.10566000000E+00  0.10566000000E+00 0. -1.
     999900   -1    0    0    0    0 -0.00000000000E+00 -0.00000000000E+00 -0.74505805969E-08  0.93827000000E+00  0.93827000000E+00 0.  1.
     999902    2    1    2    0    0 -0.12357387464E-01 -0.16444436599E-01 -0.10370073419E-01  0.10208938774E+01  0.10206339432E+01 0.  0.
     999903    2    3    3    0    0  0.31281869047E-01 -0.10858792461E+00  0.64981565456E-01  0.13180857412E+00  0.19519315036E-01 0.  0.
         14    1    1    2    0    0  0.12357387464E-01  0.16444436599E-01  0.10370073419E-01  0.23036122562E-01  0.00000000000E+00 0.  1.
     999901    1    3    3    0    0 -0.43639256511E-01  0.92143488015E-01 -0.75351638876E-01  0.88908530332E+00  0.88000000000E+00 0.  1.
        -11    1    4    4    0    0  0.14448408900E-01 -0.76374208064E-01  0.50414358263E-01  0.92647961754E-01  0.51100000000E-03 0. -1.
         11    1    4    4    0    0  0.16833460147E-01 -0.32213716551E-01  0.14567207193E-01  0.39160612367E-01  0.51100000000E-03 0.  1.
</event>
<event>
 8    1  0.5489035E+004  0.1043930E+01  0.7957747E-01            NaN
         13   -1    0    0    0    0  0.00000000000E+00  0.00000000000E+00  0.74505805969E-08  0.10566000000E+00  0.10566000000E+00 0. -1.
     999900   -1    0    0    0    0 -0.00000000000E+00 -0.00000000000E+00 -0.74505805969E-08  0.93827000000E+00  0.93827000000E+00 0.  1.
     999902    2    1    2    0    0 -0.16480143330E-01  0.76339153571E-03 -0.18594712214E-01  0.10190715766E+01  0.10187683432E+01 0.  0.
     999903    2    3    3    0    0 -0.25059907546E-01 -0.11400820185E+00  0.50711666560E-01  0.12887524707E+00  0.20280215133E-01 0.  0.
         14    1    1    2    0    0  0.16480143330E-01 -0.76339153571E-03  0.18594712214E-01  0.24858423384E-01  0.00000000000E+00 0. -1.
     999901    1    3    3    0    0  0.85797642162E-02  0.11477159339E+00 -0.69306378775E-01  0.89019632955E+00  0.88000000000E+00 0.  1.
        -11    1    4    4    0    0 -0.17205704064E-01 -0.64758841584E-01  0.18540695564E-01  0.69525263960E-01  0.51100000000E-03 0.  1.
         11    1    4    4    0    0 -0.78542034821E-02 -0.49249360267E-01  0.32170970996E-01  0.59349983107E-01  0.51100000000E-03 0. -1.
</event>
<event>
 8    1  0.5489035E+004  0.1043930E+01  0.7957747E-01            NaN
         13   -1    0    0    0    0  0.00000000000E+00  0.00000000000E+00  0.74505805969E-08  0.10566000000E+00  0.10566000000E+00 0.  1.
     999900   -1    0    0    0    0 -0.00000000000E+00 -0.00000000000E+00 -0.74505805969E-08  0.93827000000E+00  0.93827000000E+00 0. -1.
     999902    2    1    2    0    0  0.46375260071E-02  0.17104017782E-01 -0.15704690276E-01  0.10202510775E+01  0.10199762595E+01 0.  0.
     999903    2    3    3    0    0  0.83719439850E-01 -0.77084392557E-01 -0.59217004148E-01  0.13063389741E+00  0.24649815167E-01 0.  0.
         14    1    1    2    0    0 -0.46375260071E-02 -0.17104017782E-01  0.15704690276E-01  0.23678922451E-01  0.00000000000E+00 0. -1.
     999901    1    3    3    0    0 -0.79081913842E-01  0.94188410340E-01  0.43512313871E-01  0.88961718014E+00  0.88000000000E+00 0.  1.
        -11    1    4    4    0    0  0.55183843985E-01 -0.42194245997E-01 -0.24229741416E-01  0.73572770250E-01  0.51100000000E-03 0.  1.
         11    1    4    4    0    0  0.28535595864E-01 -0.34890146561E-01 -0.34987262731E-01  0.57061127160E-01  0.51100000000E-03 0. -1.
</event>
<event>
 8    1  0.5489035E+004  0.1043930E+01  0.7957747E-01            NaN
         13   -1    0    0    0    0  0.00000000000E+00  0.00000000000E+00  0.74505805969E-08  0.10566000000E+00  0.10566000000E+00 0.  1.
     999900   -1    0    0    0    0 -0.00000000000E+00 -0.00000000000E+00 -0.74505805969E-08  0.93827000000E+00  0.93827000000E+00 0. -1.
     999902    2    1    2    0    0  0.67522632058E-02  0.19130570176E-01  0.13184956773E-01  0.10197346521E+01  0.10194475690E+01 0.  0.
     999903    2    3    3    0    0 -0.10857935703E-01  0.12695626096E+00 -0.27795907649E-01  0.13203203866E+00  0.20592711960E-01 0.  0.
         14    1    1    2    0    0 -0.67522632058E-02 -0.19130570176E-01 -0.13184956773E-01  0.24195347874E-01  0.00000000000E+00 0. -1.
     999901    1    3    3    0    0  0.17610198909E-01 -0.10782569079E+00  0.40980864422E-01  0.88770261346E+00  0.88000000000E+00 0.  1.
        -11    1    4    4    0    0  0.46360181409E-02  0.50595473286E-01 -0.62741122682E-02  0.51195900099E-01  0.51100000000E-03 0.  1.
         11    1    4    4    0    0 -0.15493953844E-01  0.76360787678E-01 -0.21521795380E-01  0.80836138564E-01  0.51100000000E-03 0. -1.
</event>
<event>
 7    1  0.5489035E+004  0.1043930E+01  0.7957747E-01            NaN
         13   -1    0    0    0    0  0.00000000000E+00  0.00000000000E+00  0.74505805969E-08  0.10566000000E+00  0.10566000000E+00 0. -1.
     999900   -1    0    0    0    0 -0.00000000000E+00 -0.00000000000E+00 -0.74505805969E-08  0.93827000000E+00  0.93827000000E+00 0.  1.
     999903    2    1    2    0    0 -0.53672031048E-01 -0.59894049905E-01  0.64356191463E-01  0.10522022649E+00  0.21484705067E-01 0.  0.
         14    1    1    2    0    0 -0.37169443811E-01  0.27160974478E-01  0.18382383872E-01  0.49570133393E-01  0.00000000000E+00 0. -1.
     999901    1    1    2    0    0  0.90841474859E-01  0.32733075427E-01 -0.82738575335E-01  0.88913964012E+00  0.88000000000E+00 0.  1.
        -11    1    3    3    0    0 -0.27984799661E-01 -0.38270881821E-01  0.25401544746E-01  0.53789487857E-01  0.51100000000E-03 0. -1.
         11    1    3    3    0    0 -0.25687231387E-01 -0.21623168084E-01  0.38954646718E-01  0.51430738632E-01  0.51100000000E-03 0.  1.
</event>
<event>
 8    1  0.5489035E+004  0.1043930E+01  0.7957747E-01            NaN
         13   -1    0    0    0    0  0.00000000000E+00  0.00000000000E+00  0.74505805969E-08  0.10566000000E+00  0.10566000000E+00 0.  1.
     999900   -1    0    0    0    0 -0.00000000000E+00 -0.00000000000E+00 -0.74505805969E-08  0.93827000000E+00  0.93827000000E+00 0. -1.
     999902    2    1    2    0    0 -0.96927550404E-02 -0.99024816146E-02  0.20038572312E-01  0.10195670564E+01  0.10192759339E+01 0.  0.
     999903    2    3    3    0    0  0.82487718191E-01 -0.29233619417E-01  0.95612723483E-01  0.13132025234E+00  0.21080503449E-01 0.  0.
         14    1    1    2    0    0  0.96927550404E-02  0.99024816146E-02 -0.20038572312E-01  0.24362943638E-01  0.00000000000E+00 0. -1.
     999901    1    3    3    0    0 -0.92180473232E-01  0.19331137802E-01 -0.75574151170E-01  0.88824680402E+00  0.88000000000E+00 0. -1.
        -11    1    4    4    0    0  0.59833989556E-01 -0.26415938751E-01  0.81405734582E-01  0.10442730902E+00  0.51100000000E-03 0.  1.
         11    1    4    4    0    0  0.22653728635E-01 -0.28176806662E-02  0.14206988900E-01  0.26892943313E-01  0.51100000000E-03 0. -1.
</event>
<event>
 8    1  0.5489035E+004  0.1043930E+01  0.7957747E-01            NaN
         13   -1    0    0    0    0  0.00000000000E+00  0.00000000000E+00  0.74505805969E-08  0.10566000000E+00  0.10566000000E+00 0.  1.
     999900   -1    0    0    0    0 -0.00000000000E+00 -0.00000000000E+00 -0.74505805969E-08  0.93827000000E+00  0.93827000000E+00 0.  1.
     999902    2    1    2    0    0  0.12234373743E-01  0.13014655491E-01 -0.15623104489E-01  0.10201993752E+01  0.10199233416E+01 0.  0.
     999903    2    3    3    0    0 -0.33841909589E-01  0.23560795634E-01  0.12030716870E+00  0.12850924736E+00  0.18450633614E-01 0.  0.
         14    1    1    2    0    0 -0.12234373743E-01 -0.13014655491E-01  0.15623104489E-01  0.23730624777E-01  0.00000000000E+00 0.  1.
     999901    1    3    3    0    0  0.46076283332E-01 -0.10546140144E-01 -0.13593027319E+00  0.89169012786E+00  0.88000000000E+00 0.  1.
        -11    1    4    4    0    0 -0.96167445408E-02  0.17705002526E-01  0.57899352173E-01  0.61306973446E-01  0.51100000000E-03 0.  1.
         11    1    4    4    0    0 -0.24225165048E-01  0.58557931089E-02  0.62407816528E-01  0.67202273915E-01  0.51100000000E-03 0. -1.
</event>
<event>
 8    1  0.5489035E+004  0.1043930E+01  0.7957747E-01            NaN
         13   -1    0    0    0    0  0.00000000000E+00  0.00000000000E+00  0.74505805969E-08  0.10566000000E+00  0.10566000000E+00 0.  1.
     999900   -1    0    0    0    0 -0.00000000000E+00 -0.00000000000E+00 -0.74505805969E-08  0.93827000000E+00  0.93827000000E+00 0. -1.
     999902    2    1    2    0    0  0.82177781021E-02 -0.20368742425E-01  0.67623289179E-02  0.10209485589E+01  0.10206898712E+01 0.  0.
     999903    2    3    3    0    0  0.70231733609E-01  0.58105486249E-01 -0.90502043443E-01  0.12995793411E+00  0.19740841751E-01 0.  0.
         14    1    1    2    0    0 -0.82177781021E-02  0.20368742425E-01 -0.67623289179E-02  0.22981441149E-01  0.00000000000E+00 0. -1.
     999901    1    3    3    0    0 -0.62013955507E-01 -0.78474228674E-01  0.97264372361E-01  0.89099062474E+00  0.88000000000E+00 0.  1.
        -11    1    4    4    0    0  0.32278678392E-01  0.33019908521E-01 -0.57521333752E-01  0.73764438553E-01  0.51100000000E-03 0. -1.
         11    1    4    4    0    0  0.37953055217E-01  0.25085577729E-01 -0.32980709691E-01  0.56193495558E-01  0.51100000000E-03 0.  1.
</event>
<event>
 8    1  0.5489035E+004  0.1043930E+01  0.7957747E-01            NaN
         13   -1    0    0    0    0  0.00000000000E+00  0.00000000000E+00  0.74505805969E-08  0.10566000000E+00  0.10566000000E+00 0.  1.
     999900   -1    0    0    0    0 -0.00000000000E+00 -0.00000000000E+00 -0.74505805969E-08  0.93827000000E+00  0.93827000000E+00 0.  1.
     999902    2    1    2    0    0  0.47738307015E-02 -0.16617834786E-01  0.11803090313E-01  0.10229954631E+01  0.10227812390E+01 0.  0.
     999903    2    3    3    0    0 -0.33114003353E-01 -0.14837489329E-02 -0.12558608869E+00  0.13140120843E+00  0.19891535293E-01 0.  0.
         14    1    1    2    0    0 -0.47738307015E-02  0.16617834786E-01 -0.11803090313E-01  0.20934536858E-01  0.00000000000E+00 0. -1.
     999901    1    3    3    0    0  0.37887834054E-01 -0.15134085853E-01  0.13738917900E+00  0.89159425471E+00  0.88000000000E+00 0. -1.
        -11    1    4    4    0    0 -0.93265806277E-02  0.13370763364E-02 -0.73082409117E-01  0.73689025795E-01  0.51100000000E-03 0.  1.
         11    1    4    4    0    0 -0.23787422725E-01 -0.28208252693E-02 -0.52503679572E-01  0.57712182637E-01  0.51100000000E-03 0. -1.
</event>
<event>
 8    1  0.5489035E+004  0.1043930E+01  0.7957747E-01            NaN
         13   -1    0    0    0    0  0.00000000000E+00  0.00000000000E+00  0.74505805969E-08  0.10566000000E+00  0.10566000000E+00 0. -1.
     999900   -1    0    0    0    0 -0.00000000000E+00 -0.00000000000E+00 -0.74505805969E-08  0.93827000000E+00  0.93827000000E+00 0.  1.
     999902    2    1    2    0    0  0.57870716215E-02 -0.16750474460E-01  0.15811448798E-01  0.10201798315E+01  0.10199033376E+01 0.  0.
     999903    2    3    3    0    0  0.68589805750E-01  0.10533814324E+00 -0.19263365837E-01  0.12884372392E+00  0.20710916332E-01 0.  0.
         14    1    1    2    0    0 -0.57870716215E-02  0.16750474460E-01 -0.15811448798E-01  0.23750168540E-01  0.00000000000E+00 0.  1.
     999901    1    3    3    0    0 -0.62802734128E-01 -0.12208861770E+00  0.35074814635E-01  0.89133610754E+00  0.88000000000E+00 0.  1.
        -11    1    4    4    0    0  0.41552768000E-01  0.76089156972E-01 -0.61863910887E-02  0.86917920436E-01  0.51100000000E-03 0.  1.
         11    1    4    4    0    0  0.27037037749E-01  0.29248986270E-01 -0.13076974748E-01  0.41925803482E-01  0.51100000000E-03 0. -1.
</event>
<event>
 8    1  0.5489035E+004  0.1043930E+01  0.7957747E-01            NaN
         13   -1    0    0    0    0  0.00000000000E+00  0.00000000000E+00  0.74505805969E-08  0.10566000000E+00  0.10566000000E+00 0. -1.
     999900   -1    0    0    0    0 -0.00000000000E+00 -0.00000000000E+00 -0.74505805969E-08  0.93827000000E+00  0.93827000000E+00 0.  1.
     999902    2    1    2    0    0 -0.23040697960E-01 -0.35202452056E-02 -0.40818365117E-02  0.10202672174E+01  0.10199927783E+01 0.  0.
     999903    2    3    3    0    0 -0.13076900253E+00 -0.18744942527E-01 -0.22537658211E-03  0.13355866821E+00  0.19645919824E-01 0.  0.
         14    1    1    2    0    0  0.23040697960E-01  0.35202452056E-02  0.40818365117E-02  0.23662782551E-01  0.00000000000E+00 0. -1.
     999901    1    3    3    0    0  0.10772830457E+00  0.15224697322E-01 -0.38564599296E-02  0.88670854924E+00  0.88000000000E+00 0. -1.
        -11    1    4    4    0    0 -0.59531626343E-01 -0.23324220591E-03  0.51560054920E-02  0.59757128869E-01  0.51100000000E-03 0.  1.
         11    1    4    4    0    0 -0.71237376187E-01 -0.18511700321E-01 -0.53813820741E-02  0.73801539339E-01  0.51100000000E-03 0. -1.
</event>
<event>
 8    1  0.5489035E+004  0.1043930E+01  0.7957747E-01            NaN
         13   -1    0    0    0    0  0.00000000000E+00  0.00000000000E+00  0.74505805969E-08  0.10566000000E+00  0.10566000000E+00 0.  1.
     999900   -1    0    0    0    0 -0.00000000000E+00 -0.00000000000E+00 -0.74505805969E-08  0.93827000000E+00  0.93827000000E+00 0. -1.
     999902    2    1    2    0    0 -0.15998596444E-01 -0.28371696676E-02 -0.14772887707E-01  0.10219699720E+01  0.10217340069E+01 0.  0.
     999903    2    3    3    0    0 -0.27506757075E-01 -0.35775983511E-01  0.12187910024E+00  0.13073982828E+00  0.14207214431E-01 0.  0.
         14    1    1    2    0    0  0.15998596444E-01  0.28371696676E-02  0.14772887707E-01  0.21960028030E-01  0.00000000000E+00 0. -1.
     999901    1    3    3    0    0  0.11508160631E-01  0.32938813844E-01 -0.13665198794E+00  0.89123014369E+00  0.88000000000E+00 0. -1.
        -11    1    4    4    0    0 -0.21188169218E-01 -0.25355767124E-01  0.69465044345E-01  0.76925333591E-01  0.51100000000E-03 0.  1.
         11    1    4    4    0    0 -0.63185878572E-02 -0.10420216388E-01  0.52414055893E-01  0.53814494685E-01  0.51100000000E-03 0. -1.
</event>
<event>
 8    1  0.5489035E+004  0.1043930E+01  0.7957747E-01            NaN
         13   -1    0    0    0    0  0.00000000000E+00  0.00000000000E+00  0.74505805969E-08  0.10566000000E+00  0.10566000000E+00 0. -1.
     999900   -1    0    0    0    0 -0.00000000000E+00 -0.00000000000E+00 -0.74505805969E-08  0.93827000000E+00  0.93827000000E+00 0. -1.
     999902    2    1    2    0    0 -0.20400482692E-01  0.59185802649E-02  0.12361471017E-01  0.10193532782E+01  0.10190569614E+01 0.  0.
     999903    2    3    3    0    0 -0.11353075724E-01  0.74613652262E-01 -0.10287480548E+00  0.12913967022E+00  0.19943404696E-01 0.  0.
         14    1    1    2    0    0  0.20400482692E-01 -0.59185802649E-02 -0.12361471017E-01  0.24576721753E-01  0.00000000000E+00 0. -1.
     999901    1    3    3    0    0 -0.90474069681E-02 -0.68695071997E-01  0.11523627650E+00  0.89021360802E+00  0.88000000000E+00 0.  1.
        -11    1    4    4    0    0 -0.26121852232E-02  0.21068515713E-01 -0.45287441585E-01  0.50019189841E-01  0.51100000000E-03 0. -1.
         11    1    4    4    0    0 -0.87408905005E-02  0.53545136549E-01 -0.57587363894E-01  0.79120480383E-01  0.51100000000E-03 0.  1.
</event>
<event>
 8    1  0.5489035E+004  0.1043930E+01  0.7957747E-01            NaN
         13   -1    0    0    0    0  0.00000000000E+00  0.00000000000E+00  0.74505805969E-08  0.10566000000E+00  0.10566000000E+00 0.  1.
     999900   -1    0    0    0    0 -0.00000000000E+00 -0.00000000000E+00 -0.74505805969E-08  0.93827000000E+00  0.93827000000E+00 0. -1.
     999902    2    1    2    0    0 -0.20367234287E-01  0.10431827521E-01 -0.44895440581E-02  0.10206104103E+01  0.10203439647E+01 0.  0.
     999903    2    3    3    0    0 -0.13164944518E+00 -0.39348650865E-02 -0.87898882144E-02  0.13347534433E+00  0.19782462629E-01 0.  0.
         14    1    1    2    0    0  0.20367234287E-01 -0.10431827521E-01  0.44895440581E-02  0.23319589701E-01  0.00000000000E+00 0. -1.
     999901    1    3    3    0    0  0.11128221090E+00  0.14366692608E-01  0.43003441563E-02  0.88713506597E+00  0.88000000000E+00 0.  1.
        -11    1    4    4    0    0 -0.10103346567E+00 -0.82629588713E-02 -0.17139074911E-03  0.10137222583E+00  0.51100000000E-03 0.  1.
         11    1    4    4    0    0 -0.30615979515E-01  0.43280937848E-02 -0.86184974653E-02  0.32103118494E-01  0.51100000000E-03 0. -1.
</event>
<event>
 8    1  0.5489035E+004  0.1043930E+01  0.7957747E-01            NaN
         13   -1    0    0    0    0  0.00000000000E+00  0.00000000000E+00  0.74505805969E-08  0.10566000000E+00  0.10566000000E+00 0.  1.
     999900   -1    0    0    0    0 -0.00000000000E+00 -0.00000000000E+00 -0.74505805969E-08  0.93827000000E+00  0.93827000000E+00 0.  1.
     999902    2    1    2    0    0  0.22504294304E-01  0.28673939831E-02  0.42861663173E-02  0.10208424182E+01  0.10205813081E+01 0.  0.
     999903    2    3    3    0    0 -0.14974388768E-01 -0.12738849992E+00  0.12991301384E-01  0.13042283794E+00  0.19730192944E-01 0.  0.
         14    1    1    2    0    0 -0.22504294304E-01 -0.28673939831E-02 -0.42861663173E-02  0.23087581772E-01  0.00000000000E+00 0.  1.
     999901    1    3    3    0    0  0.37478683072E-01  0.13025589390E+00 -0.87051350671E-02  0.89041958029E+00  0.88000000000E+00 0.  1.
        -11    1    4    4    0    0 -0.92476634472E-02 -0.84758934161E-01 -0.74688445667E-03  0.85266729483E-01  0.51100000000E-03 0. -1.
         11    1    4    4    0    0 -0.57267253209E-02 -0.42629565761E-01  0.13738185841E-01  0.45156108458E-01  0.51100000000E-03 0.  1.
</event>
<event>
 8    1  0.5489035E+004  0.1043930E+01  0.7957747E-01            NaN
         13   -1    0    0    0    0  0.00000000000E+00  0.00000000000E+00  0.74505805969E-08  0.10566000000E+00  0.10566000000E+00 0.  1.
     999900   -1    0    0    0    0 -0.00000000000E+00 -0.00000000000E+00 -0.74505805969E-08  0.93827000000E+00  0.93827000000E+00 0. -1.
     999902    2    1    2    0    0  0.15272898248E-01  0.19201290879E-01  0.15412466594E-02  0.10193469482E+01  0.10190504769E+01 0.  0.
     999903    2    3    3    0    0  0.48199079698E-01 -0.18672363525E-01 -0.11738632159E+00  0.12993010918E+00  0.20747923540E-01 0.  0.
         14    1    1    2    0    0 -0.15272898248E-01 -0.19201290879E-01 -0.15412466594E-02  0.24583051755E-01  0.00000000000E+00 0. -1.
     999901    1    3    3    0    0 -0.32926181450E-01  0.37873654405E-01  0.11892756825E+00  0.88941683907E+00  0.88000000000E+00 0.  1.
        -11    1    4    4    0    0  0.27846695545E-01 -0.20855507458E-01 -0.81436065445E-01  0.88557803272E-01  0.51100000000E-03 0. -1.
         11    1    4    4    0    0  0.20352384152E-01  0.21831439326E-02 -0.35950256147E-01  0.41372305908E-01  0.51100000000E-03 0.  1.
</event>
<event>
 8    1  0.5489035E+004  0.1043930E+01  0.7957747E-01            NaN
         13   -1    0    0    0    0  0.00000000000E+00  0.00000000000E+00  0.74505805969E-08  0.10566000000E+00  0.10566000000E+00 0.  1.
     999900   -1    0    0    0    0 -0.00000000000E+00 -0.00000000000E+00 -0.74505805969E-08  0.93827000000E+00  0.93827000000E+00 0.  1.
     999902    2    1    2    0    0 -0.98909985433E-02  0.12412008134E-01  0.19957371262E-01  0.10184312458E+01  0.10181119860E+01 0.  0.
     999903    2    3    3    0    0  0.11647318533E+00 -0.36269751202E-01 -0.28058073511E-01  0.12677923767E+00  0.20105269505E-01 0.  0.
         14    1    1    2    0    0  0.98909985433E-02 -0.12412008134E-01 -0.19957371262E-01  0.25498754201E-01  0.00000000000E+00 0.  1.
     999901    1    3    3    0    0 -0.12636418388E+00  0.48681759337E-01  0.48015444773E-01  0.89165200813E+00  0.88000000000E+00 0. -1.
        -11    1    4    4    0    0  0.91964822328E-01 -0.22432316232E-01 -0.27682639274E-01  0.98627212247E-01  0.51100000000E-03 0. -1.
         11    1    4    4    0    0  0.24508363005E-01 -0.13837434970E-01 -0.37543423732E-03  0.28152025426E-01  0.51100000000E-03 0.  1.
</event>
<event>
 8    1  0.5489035E+004  0.1043930E+01  0.7957747E-01            NaN
         13   -1    0    0    0    0  0.00000000000E+00  0.00000000000E+00  0.74505805969E-08  0.10566000000E+00  0.10566000000E+00 0. -1.
     999900   -1    0    0    0    0 -0.00000000000E+00 -0.00000000000E+00 -0.74505805969E-08  0.93827000000E+00  0.93827000000E+00 0.  1.
     999902    2    1    2    0    0  0.10142919336E-01 -0.21516058025E-01 -0.40233284771E-03  0.10201396356E+01  0.10198621940E+01 0.  0.
     999903    2    3    3    0    0 -0.26504122245E-01 -0.58566927105E-01 -0.11274318694E+00  0.13146858284E+00  0.20985914955E-01 0.  0.
         14    1    1    2    0    0 -0.10142919336E-01  0.21516058025E-01  0.40233284771E-03  0.23790364380E-01  0.00000000000E+00 0. -1.
     999901    1    3    3    0    0  0.36647041581E-01  0.37050869080E-01  0.11234085409E+00  0.88867105278E+00  0.88000000000E+00 0. -1.
        -11    1    4    4    0    0 -0.17722640251E-01 -0.30891268591E-01 -0.42451374782E-01  0.55414283308E-01  0.51100000000E-03 0.  1.
         11    1    4    4    0    0 -0.87814819942E-02 -0.27675658514E-01 -0.70291812154E-01  0.76054299530E-01  0.51100000000E-03 0. -1.
</event>
<event>
 8    1  0.5489035E+004  0.1043930E+01  0.7957747E-01            NaN
         13   -1    0    0    0    0  0.00000000000E+00  0.00000000000E+00  0.74505805969E-08  0.10566000000E+00  0.10566000000E+00 0.  1.
     999900   -1    0    0    0    0 -0.00000000000E+00 -0.00000000000E+00 -0.74505805969E-08  0.93827000000E+00  0.93827000000E+00 0.  1.
     999902    2    1    2    0    0 -0.14817791570E-01  0.69395444304E-06 -0.13046878913E-01  0.10241869507E+01  0.10239966416E+01 0.  0.
     999903    2    3    3    0    0  0.72443969092E-01 -0.46803326473E-02 -0.10931804002E+00  0.13463388123E+00  0.30096742838E-01 0.  0.
         14    1    1    2    0    0  0.14817791570E-01 -0.69395444304E-06  0.13046878913E-01  0.19743049331E-01  0.00000000000E+00 0.  1.
     999901    1    3    3    0    0 -0.87261760662E-01  0.46810266017E-02  0.96271161110E-01  0.88955306944E+00  0.88000000000E+00 0. -1.
        -11    1    4    4    0    0  0.16412936990E-01  0.11187666567E-01 -0.34619338125E-01  0.39916263316E-01  0.51100000000E-03 0.  1.
         11    1    4    4    0    0  0.56031032102E-01 -0.15867999214E-01 -0.74698701898E-01  0.94717617916E-01  0.51100000000E-03 0. -1.
</event>
<event>
 8    1  0.5489035E+004  0.1043930E+01  0.7957747E-01            NaN
         13   -1    0    0    0    0  0.00000000000E+00  0.00000000000E+00  0.74505805969E-08  0.10566000000E+00  0.10566000000E+00 0. -1.
     999900   -1    0    0    0    0 -0.00000000000E+00 -0.00000000000E+00 -0.74505805969E-08  0.93827000000E+00  0.93827000000E+00 0. -1.
     999902    2    1    2    0    0  0.21178904191E-01 -0.99487235547E-02  0.22957494081E-02  0.10204184380E+01  0.10201475359E+01 0.  0.
     999903    2    3    3    0    0  0.10112159682E+00  0.79773164233E-01 -0.20432676131E-01  0.13196054220E+00  0.20168177137E-01 0.  0.
         14    1    1    2    0    0 -0.21178904191E-01  0.99487235547E-02 -0.22957494081E-02  0.23511562016E-01  0.00000000000E+00 0. -1.
     999901    1    3    3    0    0 -0.79942692627E-01 -0.89721887788E-01  0.22728425539E-01  0.88845789578E+00  0.88000000000E+00 0. -1.
        -11    1    4    4    0    0  0.56601384055E-01  0.54471768595E-01 -0.61553411687E-02  0.78797459329E-01  0.51100000000E-03 0. -1.
         11    1    4    4    0    0  0.44520212763E-01  0.25301395638E-01 -0.14277334962E-01  0.53163082871E-01  0.51100000000E-03 0.  1.
</event>
<event>
 8    1  0.5489035E+004  0.1043930E+01  0.7957747E-01            NaN
         13   -1    0    0    0    0  0.00000000000E+00  0.00000000000E+00  0.74505805969E-08  0.10566000000E+00  0.10566000000E+00 0.  1.
     999900   -1    0    0    0    0 -0.00000000000E+00 -0.00000000000E+00 -0.74505805969E-08  0.93827000000E+00  0.93827000000E+00 0. -1.
     999902    2    1    2    0    0  0.12210484799E-01  0.10322274285E-01  0.20097631161E-01  0.10182480985E+01  0.10179241770E+01 0.  0.
     999903    2    3    3    0    0 -0.42104927419E-01 -0.82439191671E-01 -0.82777802330E-01  0.12575820592E+00  0.19847331345E-01 0.  0.
         14    1    1    2    0    0 -0.12210484799E-01 -0.10322274285E-01 -0.20097631161E-01  0.25681901483E-01  0.00000000000E+00 0. -1.
     999901    1    3    3    0    0  0.54315412218E-01  0.92761465957E-01  0.10287543349E+00  0.89248989260E+00  0.88000000000E+00 0.  1.
        -11    1    4    4    0    0 -0.10576036186E-01 -0.34558773593E-01 -0.41959209624E-01  0.55380481822E-01  0.51100000000E-03 0.  1.
         11    1    4    4    0    0 -0.31528891233E-01 -0.47880418079E-01 -0.40818592706E-01  0.70377724099E-01  0.51100000000E-03 0. -1.
</event>
<event>
 8    1  0.5489035E+004  0.1043930E+01  0.7957747E-01            NaN
         13   -1    0    0    0    0  0.00000000000E+00  0.00000000000E+00  0.74505805969E-08  0.10566000000E+00  0.10566000000E+00 0. -1.
     999900   -1    0    0    0    0 -0.00000000000E+00 -0.00000000000E+00 -0.74505805969E-08  0.93827000000E+00  0.93827000000E+00 0. -1.
     999902    2    1    2    0    0  0.23131128094E-01  0.20662382003E-02 -0.24198313961E-02  0.10205810383E+01  0.10203139134E+01 0.  0.
     999903    2    3    3    0    0 -0.55131700882E-01 -0.90666628480E-01 -0.71226199172E-01  0.12959351248E+00  0.21479410314E-01 0.  0.
         14    1    1    2    0    0 -0.23131128094E-01 -0.20662382003E-02  0.24198313961E-02  0.23348961672E-01  0.00000000000E+00 0. -1.
     999901    1    3    3    0    0  0.78262828976E-01  0.92732866681E-01  0.68806367775E-01  0.89098752584E+00  0.88000000000E+00 0. -1.
        -11    1    4    4    0    0  0.97026514479E-04 -0.10241978630E-01 -0.10488394526E-01  0.14668847301E-01  0.51100000000E-03 0. -1.
         11    1    4    4    0    0 -0.55228727397E-01 -0.80424649850E-01 -0.60737804646E-01  0.11492466518E+00  0.51100000000E-03 0.  1.
</event>
<event>
 8    1  0.5489035E+004  0.1043930E+01  0.7957747E-01            NaN
         13   -1    0    0    0    0  0.00000000000E+00  0.00000000000E+00  0.74505805969E-08  0.10566000000E+00  0.10566000000E+00 0.  1.
     999900   -1    0    0    0    0 -0.00000000000E+00 -0.00000000000E+00 -0.74505805969E-08  0.93827000000E+00  0.93827000000E+00 0. -1.
     999902    2    1    2    0    0  0.23507448353E-01 -0.58889415311E-02  0.41563262463E-02  0.10193423037E+01  0.10190457190E+01 0.  0.
     999903    2    3    3    0    0 -0.26154011619E-01 -0.10478598194E+00 -0.68417343241E-01  0.12944690385E+00  0.20283829147E-01 0.  0.
         14    1    1    2    0    0 -0.23507448353E-01  0.58889415311E-02 -0.41563262463E-02  0.24587696278E-01  0.00000000000E+00 0. -1.
     999901    1    3    3    0    0  0.49661459971E-01  0.98897040412E-01  0.72573669487E-01  0.88989539987E+00  0.88000000000E+00 0.  1.
        -11    1    4    4    0    0 -0.82912968475E-02 -0.71677979909E-01 -0.42221406599E-01  0.83602552015E-01  0.51100000000E-03 0. -1.
         11    1    4    4    0    0 -0.17862714771E-01 -0.33108002034E-01 -0.26195936642E-01  0.45844351835E-01  0.51100000000E-03 0.  1.
</event>
<event>
 8    1  0.5489035E+004  0.1043930E+01  0.7957747E-01            NaN
         13   -1    0    0    0    0  0.00000000000E+00  0.00000000000E+00  0.74505805969E-08  0.10566000000E+00  0.10566000000E+00 0.  1.
     999900   -1    0    0    0    0 -0.00000000000E+00 -0.00000000000E+00 -0.74505805969E-08  0.93827000000E+00  0.93827000000E+00 0. -1.
     999902    2    1    2    0    0  0.17518264545E-01 -0.79177777040E-02 -0.14708835034E-01  0.10197239961E+01  0.10194366570E+01 0.  0.
     999903    2    3    3    0    0 -0.55456912045E-01  0.68596908491E-01  0.89539227941E-01  0.12728490450E+00  0.20079059340E-01 0.  0.
         14    1    1    2    0    0 -0.17518264545E-01  0.79177777040E-02  0.14708835034E-01  0.24206003894E-01  0.00000000000E+00 0.  1.
     999901    1    3    3    0    0  0.72975176590E-01 -0.76514686195E-01 -0.10424806297E+00  0.89243909161E+00  0.88000000000E+00 0. -1.
        -11    1    4    4    0    0 -0.27910433565E-01  0.43776124082E-01  0.40742851296E-01  0.65996836243E-01  0.51100000000E-03 0.  1.
         11    1    4    4    0    0 -0.27546478480E-01  0.24820784409E-01  0.48796376645E-01  0.61288068252E-01  0.51100000000E-03 0. -1.
</event>
<event>
 8    1  0.5489035E+004  0.1043930E+01  0.7957747E-01            NaN
         13   -1    0    0    0    0  0.00000000000E+00  0.00000000000E+00  0.74505805969E-08  0.10566000000E+00  0.10566000000E+00 0.  1.
     999900   -1    0    0    0    0 -0.00000000000E+00 -0.00000000000E+00 -0.74505805969E-08  0.93827000000E+00  0.93827000000E+00 0. -1.
     999902    2    1    2    0    0 -0.25314255206E-02  0.19663216536E-01 -0.14124314697E-01  0.10195877227E+01  0.10192970999E+01 0.  0.
     999903    2    3    3    0    0 -0.42327819719E-01  0.12064886608E+00  0.26229937154E-01  0.13200092689E+00  0.19708929154E-01 0.  0.
         14    1    1    2    0    0  0.25314255206E-02 -0.19663216536E-01  0.14124314697E-01  0.24342277325E-01  0.00000000000E+00 0.  1.
     999901    1    3    3    0    0  0.39796394198E-01 -0.10098564955E+00 -0.40354251851E-01  0.88758679578E+00  0.88000000000E+00 0.  1.
        -11    1    4    4    0    0 -0.14764037531E-01  0.41799783111E-01  0.18755286163E-01  0.48137517099E-01  0.51100000000E-03 0.  1.
         11    1    4    4    0    0 -0.27563782188E-01  0.78849082970E-01  0.74746509908E-02  0.83863409793E-01  0.51100000000E-03 0. -1.
</event>
<event>
 8    1  0.5489035E+004  0.1043930E+01  0.7957747E-01            NaN
         13   -1    0    0    0    0  0.00000000000E+00  0.00000000000E+00  0.74505805969E-08  0.10566000000E+00  0.10566000000E+00 0.  1.
     999900   -1    0    0    0    0 -0.00000000000E+00 -0.00000000000E+00 -0.74505805969E-08  0.93827000000E+00  0.93827000000E+00 0.  1.
     999902    2    1    2    0    0  0.15889517616E-01  0.14868393432E-01  0.96962327117E-02  0.10201064230E+01  0.10198281970E+01 0.  0.
     999903    2    3    3    0    0 -0.84434185267E-01  0.68048520549E-01  0.70123782270E-01  0.13075583967E+00  0.20494193768E-01 0.  0.
         14    1    1    2    0    0 -0.15889517616E-01 -0.14868393432E-01 -0.96962327117E-02  0.23823577021E-01  0.00000000000E+00 0.  1.
     999901    1    3    3    0    0  0.10032370288E+00 -0.53180127117E-01 -0.60427549558E-01  0.88935058331E+00  0.88000000000E+00 0.  1.
        -11    1    4    4    0    0 -0.58143120572E-01  0.43540700869E-01  0.35517859775E-01  0.80859103297E-01  0.51100000000E-03 0. -1.
         11    1    4    4    0    0 -0.26291064695E-01  0.24507819680E-01  0.34605922495E-01  0.49896736376E-01  0.51100000000E-03 0.  1.
</event>
<event>
 8    1  0.5489035E+004  0.1043930E+01  0.7957747E-01            NaN
         13   -1    0    0    0    0  0.00000000000E+00  0.00000000000E+00  0.74505805969E-08  0.10566000000E+00  0.10566000000E+00 0. -1.
     999900   -1    0    0    0    0 -0.00000000000E+00 -0.00000000000E+00 -0.74505805969E-08  0.93827000000E+00  0.93827000000E+00 0. -1.
     999902    2    1    2    0    0 -0.16638029480E-01 -0.62486360094E-02  0.15109766601E-01  0.10206024514E+01  0.10203358218E+01 0.  0.
     999903    2    3    3    0    0  0.10267866455E+00 -0.74293220667E-01  0.20787687135E-01  0.12992923537E+00  0.19674538790E-01 0.  0.
         14    1    1    2    0    0  0.16638029480E-01  0.62486360094E-02 -0.15109766601E-01  0.23327548600E-01  0.00000000000E+00 0.  1.
     999901    1    3    3    0    0 -0.11931669403E+00  0.68044584657E-01 -0.56779205345E-02  0.89067321603E+00  0.88000000000E+00 0.  1.
        -11    1    4    4    0    0  0.42948221587E-01 -0.43183611500E-01  0.97026158446E-02  0.61674759139E-01  0.51100000000E-03 0. -1.
         11    1    4    4    0    0  0.59730442960E-01 -0.31109609167E-01  0.11085071291E-01  0.68254476229E-01  0.51100000000E-03 0.  1.
</event>
<event>
 8    1  0.5489035E+004  0.1043930E+01  0.7957747E-01            NaN
         13   -1    0    0    0    0  0.00000000000E+00  0.00000000000E+00  0.74505805969E-08  0.10566000000E+00  0.10566000000E+00 0.  1.
     999900   -1    0    0    0    0 -0.00000000000E+00 -0.00000000000E+00 -0.74505805969E-08  0.93827000000E+00  0.93827000000E+00 0.  1.
     999902    2    1    2    0    0  0.15628800655E-01 -0.95105384623E-02 -0.13899539658E-01  0.10209537741E+01  0.10206952052E+01 0.  0.
     999903    2    3    3    0    0  0.10952546832E+00  0.71031713622E-01  0.23106138238E-02  0.13215322979E+00  0.20440270508E-01 0.  0.
         14    1    1    2    0    0 -0.15628800655E-01  0.95105384623E-02  0.13899539658E-01  0.22976225853E-01  0.00000000000E+00 0.  1.
     999901    1    3    3    0    0 -0.93896667661E-01 -0.80542252085E-01 -0.16210153482E-01  0.88880054435E+00  0.88000000000E+00 0.  1.
        -11    1    4    4    0    0  0.43607148040E-01  0.18253171386E-01 -0.41684024810E-02  0.47459438746E-01  0.51100000000E-03 0. -1.
         11    1    4    4    0    0  0.65918320276E-01  0.52778542237E-01  0.64790163048E-02  0.84693791047E-01  0.51100000000E-03 0.  1.
</event>
<event>
 8    1  0.5489035E+004  0.1043930E+01  0.7957747E-01            NaN
         13   -1    0    0    0    0  0.00000000000E+00  0.00000000000E+00  0.74505805969E-08  0.10566000000E+00  0.10566000000E+00 0.  1.
     999900   -1    0    0    0    0 -0.00000000000E+00 -0.00000000000E+00 -0.74505805969E-08  0.93827000000E+00  0.93827000000E+00 0.  1.
     999902    2    1    2    0    0 -0.32904610568E-02  0.20817695203E-01  0.10604294625E-01  0.10203364705E+01  0.10200636541E+01 0.  0.
     999903    2    3    3    0    0 -0.61727303776E-01 -0.10909228763E+00 -0.19243278901E-01  0.12838224197E+00  0.20007723985E-01 0.  0.
         14    1    1    2    0    0  0.32904610568E-02 -0.20817695203E-01 -0.10604294625E-01  0.23593529452E-01  0.00000000000E+00 0. -1.
     999901    1    3    3    0    0  0.58436842719E-01  0.12990998283E+00  0.29847573526E-01  0.89195422857E+00  0.88000000000E+00 0.  1.
        -11    1    4    4    0    0 -0.93828238237E-02 -0.28879258665E-01  0.13937208523E-02  0.30401522047E-01  0.51100000000E-03 0.  1.
         11    1    4    4    0    0 -0.52344479952E-01 -0.80213028966E-01 -0.20636999753E-01  0.97980719926E-01  0.51100000000E-03 0. -1.
</event>
<event>
 8    1  0.5489035E+004  0.1043930E+01  0.7957747E-01            NaN
         13   -1    0    0    0    0  0.00000000000E+00  0.00000000000E+00  0.74505805969E-08  0.10566000000E+00  0.10566000000E+00 0. -1.
     999900   -1    0    0    0    0 -0.00000000000E+00 -0.00000000000E+00 -0.74505805969E-08  0.93827000000E+00  0.93827000000E+00 0.  1.
     999902    2    1    2    0    0  0.50749527046E-02 -0.16071176898E-01  0.15777440695E-01  0.10208439543E+01  0.10205828793E+01 0.  0.
     999903    2    3    3    0    0  0.37185418127E-02  0.12362242998E+00 -0.30488144427E-01  0.12862388725E+00  0.17839413512E-01 0.  0.
         14    1    1    2    0    0 -0.50749527046E-02  0.16071176898E-01 -0.15777440695E-01  0.23086045714E-01  0.00000000000E+00 0.  1.
     999901    1    3    3    0    0  0.13564108919E-02 -0.13969360687E+00  0.46265585123E-01  0.89222006703E+00  0.88000000000E+00 0. -1.
        -11    1    4    4    0    0 -0.38103998639E-02  0.50566965247E-01 -0.53389375860E-02  0.50993161277E-01  0.51100000000E-03 0. -1.
         11    1    4    4    0    0  0.75289416766E-02  0.73055464729E-01 -0.25149206841E-01  0.77630725975E-01  0.51100000000E-03 0.  1.
</event>
<event>
 8    1  0.5489035E+004  0.1043930E+01  0.7957747E-01            NaN
         13   -1    0    0    0    0  0.00000000000E+00  0.00000000000E+00  0.74505805969E-08  0.10566000000E+00  0.10566000000E+00 0. -1.
     999900   -1    0    0    0    0 -0.00000000000E+00 -0.00000000000E+00 -0.74505805969E-08  0.93827000000E+00  0.93827000000E+00 0. -1.
     999902    2    1    2    0    0  0.20969057717E-01 -0.77529307151E-02  0.84460185305E-02  0.10200313694E+01  0.10197513667E+01 0.  0.
     999903    2    3    3    0    0  0.12797749400E+00  0.16152647345E-01  0.26254549540E-01  0.13304804041E+00  0.19321819274E-01 0.  0.
         14    1    1    2    0    0 -0.20969057717E-01  0.77529307151E-02 -0.84460185305E-02  0.23898630614E-01  0.00000000000E+00 0. -1.
     999901    1    3    3    0    0 -0.10700843628E+00 -0.23905578060E-01 -0.17808531010E-01  0.88698332897E+00  0.88000000000E+00 0.  1.
        -11    1    4    4    0    0  0.39281008816E-01  0.87227035831E-02  0.16551846470E-01  0.43512158691E-01  0.51100000000E-03 0. -1.
         11    1    4    4    0    0  0.88696485182E-01  0.74299437616E-02  0.97027030706E-02  0.89535881722E-01  0.51100000000E-03 0.  1.
</event>
<event>
 8    1  0.5489035E+004  0.1043930E+01  0.7957747E-01            NaN
         13   -1    0    0    0    0  0.00000000000E+00  0.00000000000E+00  0.74505805969E-08  0.10566000000E+00  0.10566000000E+00 0. -1.
     999900   -1    0    0    0    0 -0.00000000000E+00 -0.00000000000E+00 -0.74505805969E-08  0.93827000000E+00  0.93827000000E+00 0. -1.
     999902    2    1    2    0    0 -0.19919005488E-01 -0.67735552715E-02  0.35089599020E-02  0.10226001939E+01  0.10223777168E+01 0.  0.
     999903    2    3    3    0    0  0.12029485773E+00  0.67044206418E-02  0.45088513169E-01  0.13042843767E+00  0.21512816676E-01 0.  0.
         14    1    1    2    0    0  0.19919005488E-01  0.67735552715E-02 -0.35089599020E-02  0.21329806147E-01  0.00000000000E+00 0.  1.
     999901    1    3    3    0    0 -0.14021386322E+00 -0.13477975913E-01 -0.41579553267E-01  0.89217175618E+00  0.88000000000E+00 0. -1.
        -11    1    4    4    0    0  0.70148541476E-01 -0.66954564253E-02  0.26770840312E-01  0.75382929235E-01  0.51100000000E-03 0. -1.
         11    1    4    4    0    0  0.50146316256E-01  0.13399877067E-01  0.18317672856E-01  0.55045508439E-01  0.51100000000E-03 0.  1.
</event>
<event>
 8    1  0.5489035E+004  0.1043930E+01  0.7957747E-01            NaN
         13   -1    0    0    0    0  0.00000000000E+00  0.00000000000E+00  0.74505805969E-08  0.10566000000E+00  0.10566000000E+00 0. -1.
     999900   -1    0    0    0    0 -0.00000000000E+00 -0.00000000000E+00 -0.74505805969E-08  0.93827000000E+00  0.93827000000E+00 0.  1.
     999902    2    1    2    0    0  0.63349211491E-02  0.15269288518E-01  0.17705767313E-01  0.10197065280E+01  0.10194187691E+01 0.  0.
     999903    2    3    3    0    0 -0.12458006916E+00  0.10575750675E-01  0.29268989286E-01  0.12993438187E+00  0.19855219049E-01 0.  0.
         14    1    1    2    0    0 -0.63349211491E-02 -0.15269288518E-01 -0.17705767313E-01  0.24223471963E-01  0.00000000000E+00 0.  1.
     999901    1    3    3    0    0  0.13091499031E+00  0.46935378430E-02 -0.11563221973E-01  0.88977214616E+00  0.88000000000E+00 0.  1.
        -11    1    4    4    0    0 -0.88001677943E-01  0.58225994620E-02  0.29640352779E-01  0.93043052503E-01  0.51100000000E-03 0.  1.
         11    1    4    4    0    0 -0.36578391222E-01  0.47531512134E-02 -0.37136349322E-03  0.36891329370E-01  0.51100000000E-03 0. -1.
</event>
<event>
 8    1  0.5489035E+004  0.1043930E+01  0.7957747E-01            NaN
         13   -1    0    0    0    0  0.00000000000E+00  0.00000000000E+00  0.74505805969E-08  0.10566000000E+00  0.10566000000E+00 0.  1.
     999900   -1    0    0    0    0 -0.00000000000E+00 -0.00000000000E+00 -0.74505805969E-08  0.93827000000E+00  0.93827000000E+00 0. -1.
     999902    2    1    2    0    0  0.60024386785E-02  0.21890637960E-01  0.73084941371E-02  0.10200837553E+01  0.10198049933E+01 0.  0.
     999903    2    3    3    0    0 -0.33724491412E-01  0.89938704219E-01 -0.87532156007E-01  0.13148738054E+00  0.20018518131E-01 0.  0.
         14    1    1    2    0    0 -0.60024386785E-02 -0.21890637960E-01 -0.73084941371E-02  0.23846244713E-01  0.00000000000E+00 0. -1.
     999901    1    3    3    0    0  0.39726930090E-01 -0.68048066259E-01  0.94840650144E-01  0.88859637475E+00  0.88000000000E+00 0.  1.
        -11    1    4    4    0    0 -0.48638298524E-02  0.13083025966E-01 -0.43849062324E-02  0.14639362449E-01  0.51100000000E-03 0.  1.
         11    1    4    4    0    0 -0.28860661559E-01  0.76855678253E-01 -0.83147249774E-01  0.11684801809E+00  0.51100000000E-03 0. -1.
</event>
<event>
 7    1  0.5489035E+004  0.1043930E+01  0.7957747E-01            NaN
         13   -1    0    0    0    0  0.00000000000E+00  0.00000000000E+00  0.74505805969E-08  0.10566000000E+00  0.10566000000E+00 0. -1.
     999900   -1    0    0    0    0 -0.00000000000E+00 -0.00000000000E+00 -0.74505805969E-08  0.93827000000E+00  0.93827000000E+00 0. -1.
     999902    2    1    2    0    0 -0.21567942290E-01  0.80976666379E-02 -0.55455110295E-02  0.10202339870E+01  0.10199587674E+01 0.  0.
         14    1    1    2    0    0  0.21567942290E-01 -0.80976666379E-02  0.55455110295E-02  0.23696013001E-01  0.00000000000E+00 0. -1.
     999901    1    3    3    0    0  0.78851344483E-01 -0.63412042144E-01 -0.71322020463E-02  0.88582700903E+00  0.88000000000E+00 0.  1.
        -11    1    3    3    0    0 -0.70652608195E-01  0.46647779332E-01  0.26011694330E-01  0.88570174010E-01  0.51100000000E-03 0. -1.
         11    1    3    3    0    0 -0.29766678578E-01  0.24861929450E-01 -0.24425003313E-01  0.45836803961E-01  0.51100000000E-03 0.  1.
</event>
<event>
 8    1  0.5489035E+004  0.1043930E+01  0.7957747E-01            NaN
         13   -1    0    0    0    0  0.00000000000E+00  0.00000000000E+00  0.74505805969E-08  0.10566000000E+00  0.10566000000E+00 0.  1.
     999900   -1    0    0    0    0 -0.00000000000E+00 -0.00000000000E+00 -0.74505805969E-08  0.93827000000E+00  0.93827000000E+00 0.  1.
     999902    2    1    2    0    0  0.14563753410E-01  0.35650811155E-03 -0.18016971863E-01  0.10207601643E+01  0.10204971689E+01 0.  0.
     999903    2    3    3    0    0  0.74448835143E-01 -0.69248104639E-01 -0.84193889434E-01  0.13351137757E+00  0.19968672265E-01 0.  0.
         14    1    1    2    0    0 -0.14563753410E-01 -0.35650811155E-03  0.18016971863E-01  0.23169835704E-01  0.00000000000E+00 0.  1.
     999901    1    3    3    0    0 -0.59885081733E-01  0.69604612750E-01  0.66176917571E-01  0.88724878673E+00  0.88000000000E+00 0. -1.
        -11    1    4    4    0    0  0.59281383681E-01 -0.49641243089E-01 -0.72888243499E-01  0.10626143528E+00  0.51100000000E-03 0.  1.
         11    1    4    4    0    0  0.15167451462E-01 -0.19606861550E-01 -0.11305645935E-01  0.27249942288E-01  0.51100000000E-03 0. -1.
</event>
<event>
 8    1  0.5489035E+004  0.1043930E+01  0.7957747E-01            NaN
         13   -1    0    0    0    0  0.00000000000E+00  0.00000000000E+00  0.74505805969E-08  0.10566000000E+00  0.10566000000E+00 0. -1.
     999900   -1    0    0    0    0 -0.00000000000E+00 -0.00000000000E+00 -0.74505805969E-08  0.93827000000E+00  0.93827000000E+00 0.  1.
     999902    2    1    2    0    0 -0.90879569588E-02 -0.38426507888E-02 -0.21129395212E-01  0.10206103030E+01  0.10203438549E+01 0.  0.
     999903    2    3    3    0    0  0.61491661578E-04  0.99856142630E-01  0.78909284340E-01  0.12884526130E+00  0.20079173348E-01 0.  0.
         14    1    1    2    0    0  0.90879569588E-02  0.38426507888E-02  0.21129395212E-01  0.23319697013E-01  0.00000000000E+00 0. -1.
     999901    1    3    3    0    0 -0.91494486204E-02 -0.10369879342E+00 -0.10003867955E+00  0.89176504169E+00  0.88000000000E+00 0.  1.
        -11    1    4    4    0    0 -0.59744840735E-02  0.22053053716E-01  0.25707185259E-01  0.34396978546E-01  0.51100000000E-03 0.  1.
         11    1    4    4    0    0  0.60359757351E-02  0.77803088914E-01  0.53202099081E-01  0.94448282755E-01  0.51100000000E-03 0. -1.
</event>
<event>
 8    1  0.5489035E+004  0.1043930E+01  0.7957747E-01            NaN
         13   -1    0    0    0    0  0.00000000000E+00  0.00000000000E+00  0.74505805969E-08  0.10566000000E+00  0.10566000000E+00 0.  1.
     999900   -1    0    0    0    0 -0.00000000000E+00 -0.00000000000E+00 -0.74505805969E-08  0.93827000000E+00  0.93827000000E+00 0. -1.
     999902    2    1    2    0    0 -0.20631230974E-01 -0.37916873422E-02  0.11549245082E-01  0.10199840265E+01  0.10197029002E+01 0.  0.
     999903    2    3    3    0    0  0.37855325682E-01 -0.11852853611E+00 -0.29917995273E-01  0.12964434201E+00  0.20749202838E-01 0.  0.
         14    1    1    2    0    0  0.20631230974E-01  0.37916873422E-02 -0.11549245082E-01  0.23945973490E-01  0.00000000000E+00 0. -1.
     999901    1    3    3    0    0 -0.58486556656E-01  0.11473684877E+00  0.41467240355E-01  0.89033968450E+00  0.88000000000E+00 0.  1.
        -11    1    4    4    0    0  0.20682845738E-01 -0.91100544347E-01 -0.26463472618E-01  0.97096167752E-01  0.51100000000E-03 0. -1.
         11    1    4    4    0    0  0.17172479944E-01 -0.27427991765E-01 -0.34545226559E-02  0.32548174257E-01  0.51100000000E-03 0.  1.
</event>
<event>
 8    1  0.5489035E+004  0.1043930E+01  0.7957747E-01            NaN
         13   -1    0    0    0    0  0.00000000000E+00  0.00000000000E+00  0.74505805969E-08  0.10566000000E+00  0.10566000000E+00 0.  1.
     999900   -1    0    0    0    0 -0.00000000000E+00 -0.00000000000E+00 -0.74505805969E-08  0.93827000000E+00  0.93827000000E+00 0. -1.
     999902    2    1    2    0    0 -0.84985312030E-02 -0.17997728492E-01 -0.13973037950E-01  0.10196115080E+01  0.10193214597E+01 0.  0.
     999903    2    3    3    0    0 -0.68756429161E-01  0.66167750996E-01 -0.86648151981E-01  0.13056903747E+00  0.20850742966E-01 0.  0.
         14    1    1    2    0    0  0.84985312030E-02  0.17997728492E-01  0.13973037950E-01  0.24318491998E-01  0.00000000000E+00 0.  1.
     999901    1    3    3    0    0  0.60257897958E-01 -0.84165479489E-01  0.72675114031E-01  0.88904247053E+00  0.88000000000E+00 0. -1.
        -11    1    4    4    0    0 -0.34945030118E-01  0.27115369934E-01 -0.27711586851E-01  0.52197620476E-01  0.51100000000E-03 0. -1.
         11    1    4    4    0    0 -0.33811399043E-01  0.39052381062E-01 -0.58936565130E-01  0.78371416997E-01  0.51100000000E-03 0.  1.
</event>
<event>
 7    1  0.5489035E+004  0.1043930E+01  0.7957747E-01            NaN
         13   -1    0    0    0    0  0.00000000000E+00  0.00000000000E+00  0.74505805969E-08  0.10566000000E+00  0.10566000000E+00 0. -1.
     999900   -1    0    0    0    0 -0.00000000000E+00 -0.00000000000E+00 -0.74505805969E-08  0.93827000000E+00  0.93827000000E+00 0. -1.
     999903    2    1    2    0    0  0.87921190688E-01  0.35217783089E-02 -0.20018264429E-01  0.92447881162E-01  0.20083354458E-01 0.  0.
         14    1    1    2    0    0  0.58080686206E-01 -0.81022619425E-02  0.93039390571E-02  0.59376561375E-01  0.00000000000E+00 0.  1.
     999901    1    1    2    0    0 -0.14600187689E+00  0.45804836335E-02  0.10714325372E-01  0.89210555746E+00  0.88000000000E+00 0.  1.
        -11    1    3    3    0    0  0.51466532817E-01 -0.78275675545E-02 -0.10877157719E-01  0.53185040143E-01  0.51100000000E-03 0. -1.
         11    1    3    3    0    0  0.36454657871E-01  0.11349345863E-01 -0.91411067096E-02  0.39262841019E-01  0.51100000000E-03 0.  1.
</event>
<event>
 8    1  0.5489035E+004  0.1043930E+01  0.7957747E-01            NaN
         13   -1    0    0    0    0  0.00000000000E+00  0.00000000000E+00  0.74505805969E-08  0.10566000000E+00  0.10566000000E+00 0. -1.
     999900   -1    0    0    0    0 -0.00000000000E+00 -0.00000000000E+00 -0.74505805969E-08  0.93827000000E+00  0.93827000000E+00 0. -1.
     999902    2    1    2    0    0 -0.13774748192E-01  0.19288828779E-01  0.39679817900E-03  0.10202243034E+01  0.10199488561E+01 0.  0.
     999903    2    3    3    0    0 -0.75193780004E-01  0.52135436212E-01 -0.93757848992E-01  0.13246516112E+00  0.19602969215E-01 0.  0.
         14    1    1    2    0    0  0.13774748192E-01 -0.19288828779E-01 -0.39679817900E-03  0.23705696619E-01  0.00000000000E+00 0. -1.
     999901    1    3    3    0    0  0.61419031812E-01 -0.32846607433E-01  0.94154647171E-01  0.88775914226E+00  0.88000000000E+00 0.  1.
        -11    1    4    4    0    0 -0.22126063712E-01  0.82338164129E-02 -0.15657972386E-01  0.28333578107E-01  0.51100000000E-03 0.  1.
         11    1    4    4    0    0 -0.53067716292E-01  0.43901619799E-01 -0.78099876606E-01  0.10413158301E+00  0.51100000000E-03 0. -1.
</event>
<event>
 8    1  0.5489035E+004  0.1043930E+01  0.7957747E-01            NaN
         13   -1    0    0    0    0  0.00000000000E+00  0.00000000000E+00  0.74505805969E-08  0.10566000000E+00  0.10566000000E+00 0. -1.
     999900   -1    0    0    0    0 -0.00000000000E+00 -0.00000000000E+00 -0.74505805969E-08  0.93827000000E+00  0.93827000000E+00 0. -1.
     999902    2    1    2    0    0  0.24622337070E-01  0.55323309949E-02 -0.12833666473E-01  0.10156180032E+01  0.10152233051E+01 0.  0.
     999903    2    3    3    0    0 -0.52910078621E-01  0.10732961278E+00 -0.31288280968E-01  0.12617180758E+00  0.24924813002E-01 0.  0.
         14    1    1    2    0    0 -0.24622337070E-01 -0.55323309949E-02  0.12833666473E-01  0.28311996824E-01  0.00000000000E+00 0.  1.
     999901    1    3    3    0    0  0.77532415692E-01 -0.10179728178E+00  0.18454614495E-01  0.88944619559E+00  0.88000000000E+00 0.  1.
        -11    1    4    4    0    0 -0.40621498996E-01  0.99138227902E-01 -0.24472537823E-01  0.10989841055E+00  0.51100000000E-03 0.  1.
         11    1    4    4    0    0 -0.12288579625E-01  0.81913848781E-02 -0.68157431450E-02  0.16273397035E-01  0.51100000000E-03 0. -1.
</event>
<event>
 8    1  0.5489035E+004  0.1043930E+01  0.7957747E-01            NaN
         13   -1    0    0    0    0  0.00000000000E+00  0.00000000000E+00  0.74505805969E-08  0.10566000000E+00  0.10566000000E+00 0. -1.
     999900   -1    0    0    0    0 -0.00000000000E+00 -0.00000000000E+00 -0.74505805969E-08  0.93827000000E+00  0.93827000000E+00 0.  1.
     999902    2    1    2    0    0 -0.22445728515E-01 -0.18288947320E-03 -0.10054455869E-01  0.10193345480E+01  0.10190377738E+01 0.  0.
     999903    2    3    3    0    0  0.36974581231E-01 -0.64753742748E-01 -0.10553917713E+00  0.12983047250E+00  0.12540607016E-01 0.  0.
         14    1    1    2    0    0  0.22445728515E-01  0.18288947320E-03  0.10054455869E-01  0.24595452018E-01  0.00000000000E+00 0. -1.
     999901    1    3    3    0    0 -0.59420309747E-01  0.64570853274E-01  0.95484721257E-01  0.88950407548E+00  0.88000000000E+00 0. -1.
        -11    1    4    4    0    0  0.14435180178E-01 -0.27037104067E-01 -0.54077078309E-01  0.62160847344E-01  0.51100000000E-03 0.  1.
         11    1    4    4    0    0  0.22539401053E-01 -0.37716638681E-01 -0.51462098817E-01  0.67669625157E-01  0.51100000000E-03 0. -1.
</event>
<event>
 8    1  0.5489035E+004  0.1043930E+01  0.7957747E-01            NaN
         13   -1    0    0    0    0  0.00000000000E+00  0.00000000000E+00  0.74505805969E-08  0.10566000000E+00  0.10566000000E+00 0. -1.
     999900   -1    0    0    0    0 -0.00000000000E+00 -0.00000000000E+00 -0.74505805969E-08  0.93827000000E+00  0.93827000000E+00 0.  1.
     999902    2    1    2    0    0  0.18952052434E-01  0.14675803620E-01 -0.67178775063E-03  0.10199506171E+01  0.10196686965E+01 0.  0.
     999903    2    3    3    0    0 -0.12195066056E+00 -0.29321234489E-01 -0.12747603037E-01  0.12757449733E+00  0.19520568200E-01 0.  0.
         14    1    1    2    0    0 -0.18952052434E-01 -0.14675803620E-01  0.67178775063E-03  0.23979382856E-01  0.00000000000E+00 0.  1.
     999901    1    3    3    0    0  0.14090271300E+00  0.43997038110E-01  0.12075815287E-01  0.89237611981E+00  0.88000000000E+00 0. -1.
        -11    1    4    4    0    0 -0.43036773932E-01 -0.19927447213E-01 -0.33337103247E-02  0.47546207088E-01  0.51100000000E-03 0.  1.
         11    1    4    4    0    0 -0.78913886632E-01 -0.93937872766E-02 -0.94138927124E-02  0.80028290246E-01  0.51100000000E-03 0. -1.
</event>
<event>
 8    1  0.5489035E+004  0.1043930E+01  0.7957747E-01            NaN
         13   -1    0    0    0    0  0.00000000000E+00  0.00000000000E+00  0.74505805969E-08  0.10566000000E+00  0.10566000000E+00 0.  1.
     999900   -1    0    0    0    0 -0.00000000000E+00 -0.00000000000E+00 -0.74505805969E-08  0.93827000000E+00  0.93827000000E+00 0.  1.
     999902    2    1    2    0    0 -0.35706796636E-03 -0.17047182528E-01 -0.16115046107E-01  0.10204687843E+01  0.10201990547E+01 0.  0.
     999903    2    3    3    0    0  0.69613874426E-01  0.81701269283E-01 -0.71304546942E-01  0.13047267731E+00  0.20435072641E-01 0.  0.
         14    1    1    2    0    0  0.35706796636E-03  0.17047182528E-01  0.16115046107E-01  0.23461215670E-01  0.00000000000E+00 0.  1.
     999901    1    3    3    0    0 -0.69970942393E-01 -0.98748451811E-01  0.55189500835E-01  0.88999610702E+00  0.88000000000E+00 0. -1.
        -11    1    4    4    0    0  0.51477261570E-01  0.70596074787E-01 -0.51574252206E-01  0.10145875441E+00  0.51100000000E-03 0. -1.
         11    1    4    4    0    0  0.18136612856E-01  0.11105194496E-01 -0.19730294736E-01  0.29013922900E-01  0.51100000000E-03 0.  1.
</event>
<event>
 8    1  0.5489035E+004  0.1043930E+01  0.7957747E-01            NaN
         13   -1    0    0    0    0  0.00000000000E+00  0.00000000000E+00  0.74505805969E-08  0.10566000000E+00  0.10566000000E+00 0. -1.
     999900   -1    0    0    0    0 -0.00000000000E+00 -0.00000000000E+00 -0.74505805969E-08  0.93827000000E+00  0.93827000000E+00 0.  1.
     999902    2    1    2    0    0  0.16935946547E-01  0.32867783036E-02 -0.17119851456E-01  0.10196252986E+01  0.10193355831E+01 0.  0.
     999903    2    3    3    0    0  0.67509627393E-01  0.14231822603E-02  0.10830699370E+00  0.12929217909E+00  0.20651572601E-01 0.  0.
         14    1    1    2    0    0 -0.16935946547E-01 -0.32867783036E-02  0.17119851456E-01  0.24304701417E-01  0.00000000000E+00 0. -1.
     999901    1    3    3    0    0 -0.50573680846E-01  0.18635960433E-02 -0.12542684515E+00  0.89033311950E+00  0.88000000000E+00 0.  1.
        -11    1    4    4    0    0  0.58626795294E-01  0.83026459171E-02  0.87758853905E-01  0.10586742944E+00  0.51100000000E-03 0. -1.
         11    1    4    4    0    0  0.88828320995E-02 -0.68794636567E-02  0.20548139794E-01  0.23424749653E-01  0.51100000000E-03 0.  1.
</event>
<event>
 8    1  0.5489035E+004  0.1043930E+01  0.7957747E-01            NaN
         13   -1    0    0    0    0  0.00000000000E+00  0.00000000000E+00  0.74505805969E-08  0.10566000000E+00  0.10566000000E+00 0.  1.
     999900   -1    0    0    0    0 -0.00000000000E+00 -0.00000000000E+00 -0.74505805969E-08  0.93827000000E+00  0.93827000000E+00 0. -1.
     999902    2    1    2    0    0 -0.12780892958E-01  0.11763530368E-01 -0.16716929026E-01  0.10198221675E+01  0.10195371821E+01 0.  0.
     999903    2    3    3    0    0  0.89918583574E-02  0.33355539831E-01  0.12208855888E+00  0.12841472360E+00  0.19780785489E-01 0.  0.
         14    1    1    2    0    0  0.12780892958E-01 -0.11763530368E-01  0.16716929026E-01  0.24107832494E-01  0.00000000000E+00 0.  1.
     999901    1    3    3    0    0 -0.21772751315E-01 -0.21592009463E-01 -0.13880548791E+00  0.89140744390E+00  0.88000000000E+00 0. -1.
        -11    1    4    4    0    0  0.12536390749E-01  0.13337991989E-01  0.73407959983E-01  0.75657470438E-01  0.51100000000E-03 0.  1.
         11    1    4    4    0    0 -0.35445323919E-02  0.20017547843E-01  0.48680598897E-01  0.52757253165E-01  0.51100000000E-03 0. -1.
</event>
<event>
 8    1  0.5489035E+004  0.1043930E+01  0.7957747E-01            NaN
         13   -1    0    0    0    0  0.00000000000E+00  0.00000000000E+00  0.74505805969E-08  0.10566000000E+00  0.10566000000E+00 0.  1.
     999900   -1    0    0    0    0 -0.00000000000E+00 -0.00000000000E+00 -0.74505805969E-08  0.93827000000E+00  0.93827000000E+00 0. -1.
     999902    2    1    2    0    0  0.98254306223E-02  0.84919186339E-02 -0.20350105964E-01  0.10197891926E+01  0.10195034177E+01 0.  0.
     999903    2    3    3    0    0  0.85605027440E-01 -0.85648550830E-01  0.41758786901E-01  0.12936093055E+00  0.18070945963E-01 0.  0.
         14    1    1    2    0    0 -0.98254306223E-02 -0.84919186339E-02  0.20350105964E-01  0.24140807396E-01  0.00000000000E+00 0.  1.
     999901    1    3    3    0    0 -0.75779596818E-01  0.94140469463E-01 -0.62108892865E-01  0.89042826205E+00  0.88000000000E+00 0.  1.
        -11    1    4    4    0    0  0.67279757282E-01 -0.72961246135E-01  0.39971822893E-01  0.10699493878E+00  0.51100000000E-03 0. -1.
         11    1    4    4    0    0  0.18325270158E-01 -0.12687304694E-01  0.17869640081E-02  0.22365991776E-01  0.51100000000E-03 0.  1.
</event>
<event>
 8    1  0.5489035E+004  0.1043930E+01  0.7957747E-01            NaN
         13   -1    0    0    0    0  0.00000000000E+00  0.00000000000E+00  0.74505805969E-08  0.10566000000E+00  0.10566000000E+00 0. -1.
     999900   -1    0    0    0    0 -0.00000000000E+00 -0.00000000000E+00 -0.74505805969E-08  0.93827000000E+00  0.93827000000E+00 0.  1.
     999902    2    1    2    0    0  0.16460257273E-01 -0.89425600007E-02 -0.11721993089E-01  0.10218321591E+01  0.10215931905E+01 0.  0.
     999903    2    3    3    0    0 -0.17903626072E-01  0.27384832742E-01  0.12413022209E+00  0.13000460837E+00  0.20552792268E-01 0.  0.
         14    1    1    2    0    0 -0.16460257273E-01  0.89425600007E-02  0.11721993089E-01  0.22097840864E-01  0.00000000000E+00 0. -1.
     999901    1    3    3    0    0  0.34363883345E-01 -0.36327392743E-01 -0.13585221518E+00  0.89182755077E+00  0.88000000000E+00 0.  1.
        -11    1    4    4    0    0 -0.11952471083E-01  0.37886483302E-02  0.62391881860E-01  0.63641365983E-01  0.51100000000E-03 0. -1.
         11    1    4    4    0    0 -0.59511549895E-02  0.23596184412E-01  0.61738340229E-01  0.66363242384E-01  0.51100000000E-03 0.  1.
</event>
<event>
 8    1  0.5489035E+004  0.1043930E+01  0.7957747E-01            NaN
         13   -1    0    0    0    0  0.00000000000E+00  0.00000000000E+00  0.74505805969E-08  0.10566000000E+00  0.10566000000E+00 0. -1.
     999900   -1    0    0    0    0 -0.00000000000E+00 -0.00000000000E+00 -0.74505805969E-08  0.93827000000E+00  0.93827000000E+00 0.  1.
     999902    2    1    2    0    0 -0.77163309986E-02 -0.18970160428E-01 -0.10716029859E-01  0.10208163234E+01  0.10205546159E+01 0.  0.
     999903    2    3    3    0    0 -0.10169089035E+00 -0.79406490873E-01  0.25003355665E-01  0.13303276736E+00  0.20642708774E-01 0.  0.
         14    1    1    2    0    0  0.77163309986E-02  0.18970160428E-01  0.10716029859E-01  0.23113676615E-01  0.00000000000E+00 0. -1.
     999901    1    3    3    0    0  0.93974559347E-01  0.60436330445E-01 -0.35719385524E-01  0.88778355602E+00  0.88000000000E+00 0.  1.
        -11    1    4    4    0    0 -0.73052781602E-01 -0.49247140708E-01  0.93774946352E-02  0.88601288333E-01  0.51100000000E-03 0. -1.
         11    1    4    4    0    0 -0.28638108744E-01 -0.30159350164E-01  0.15625861030E-01  0.44431479029E-01  0.51100000000E-03 0.  1.
</event>
<event>
 8    1  0.5489035E+004  0.1043930E+01  0.7957747E-01            NaN
         13   -1    0    0    0    0  0.00000000000E+00  0.00000000000E+00  0.74505805969E-08  0.10566000000E+00  0.10566000000E+00 0. -1.
     999900   -1    0    0    0    0 -0.00000000000E+00 -0.00000000000E+00 -0.74505805969E-08  0.93827000000E+00  0.93827000000E+00 0.  1.
     999902    2    1    2    0    0 -0.18314079358E-01  0.10404601359E-01  0.11869287222E-01  0.10197527129E+01  0.10194660633E+01 0.  0.
     999903    2    3    3    0    0  0.87852080566E-01 -0.20047120002E-01 -0.87695344810E-01  0.12727768423E+00  0.19729681257E-01 0.  0.
         14    1    1    2    0    0  0.18314079358E-01 -0.10404601359E-01 -0.11869287222E-01  0.24177287096E-01  0.00000000000E+00 0.  1.
     999901    1    3    3    0    0 -0.10616615992E+00  0.30451721361E-01  0.99564632032E-01  0.89247502867E+00  0.88000000000E+00 0. -1.
        -11    1    4    4    0    0  0.21968336385E-01 -0.13830047720E-01 -0.22055818282E-01  0.34067554425E-01  0.51100000000E-03 0. -1.
         11    1    4    4    0    0  0.65883744181E-01 -0.62170722820E-02 -0.65639526528E-01  0.93210129809E-01  0.51100000000E-03 0.  1.
</event>
<event>
 8    1  0.5489035E+004  0.1043930E+01  0.7957747E-01            NaN
         13   -1    0    0    0    0  0.00000000000E+00  0.00000000000E+00  0.74505805969E-08  0.10566000000E+00  0.10566000000E+00 0.  1.
     999900   -1    0    0    0    0 -0.00000000000E+00 -0.00000000000E+00 -0.74505805969E-08  0.93827000000E+00  0.93827000000E+00 0.  1.
     999902    2    1    2    0    0 -0.17451528748E-01  0.11540491429E-01  0.15252754899E-01  0.10180381996E+01  0.10177088928E+01 0.  0.
     999903    2    3    3    0    0 -0.83027757108E-01 -0.70660738691E-02  0.99637650313E-01  0.13137746592E+00  0.19719009666E-01 0.  0.
         14    1    1    2    0    0  0.17451528748E-01 -0.11540491429E-01 -0.15252754899E-01  0.25891800441E-01  0.00000000000E+00 0. -1.
     999901    1    3    3    0    0  0.65576228360E-01  0.18606565298E-01 -0.84384895414E-01  0.88666073364E+00  0.88000000000E+00 0.  1.
        -11    1    4    4    0    0 -0.37024162454E-01 -0.93170878098E-02  0.33588009459E-01  0.50852848800E-01  0.51100000000E-03 0.  1.
         11    1    4    4    0    0 -0.46003594653E-01  0.22510139407E-02  0.66049640854E-01  0.80524617123E-01  0.51100000000E-03 0. -1.
</event>
<event>
 8    1  0.5489035E+004  0.1043930E+01  0.7957747E-01            NaN
         13   -1    0    0    0    0  0.00000000000E+00  0.00000000000E+00  0.74505805969E-08  0.10566000000E+00  0.10566000000E+00 0. -1.
     999900   -1    0    0    0    0 -0.00000000000E+00 -0.00000000000E+00 -0.74505805969E-08  0.93827000000E+00  0.93827000000E+00 0. -1.
     999902    2    1    2    0    0  0.21061633939E-01 -0.41128553216E-02 -0.10359250074E-01  0.10201009827E+01  0.10198226281E+01 0.  0.
     999903    2    3    3    0    0  0.25744910344E-03  0.11035574364E+00  0.64546484099E-01  0.12928857638E+00  0.19256971154E-01 0.  0.
         14    1    1    2    0    0 -0.21061633939E-01  0.41128553216E-02  0.10359250074E-01  0.23829017293E-01  0.00000000000E+00 0. -1.
     999901    1    3    3    0    0  0.20804184835E-01 -0.11446859896E+00 -0.74905734174E-01  0.89081240633E+00  0.88000000000E+00 0. -1.
        -11    1    4    4    0    0 -0.35155235584E-02  0.43714180194E-01  0.35787850805E-01  0.56606711989E-01  0.51100000000E-03 0. -1.
         11    1    4    4    0    0  0.37729726619E-02  0.66641563446E-01  0.28758633294E-01  0.72681864390E-01  0.51100000000E-03 0.  1.
</event>
<event>
 8    1  0.5489035E+004  0.1043930E+01  0.7957747E-01            NaN
         13   -1    0    0    0    0  0.00000000000E+00  0.00000000000E+00  0.74505805969E-08  0.10566000000E+00  0.10566000000E+00 0.  1.
     999900   -1    0    0    0    0 -0.00000000000E+00 -0.00000000000E+00 -0.74505805969E-08  0.93827000000E+00  0.93827000000E+00 0.  1.
     999902    2    1    2    0    0 -0.88586005609E-03  0.24209004012E-02 -0.22140887859E-01  0.10216395442E+01  0.10213963451E+01 0.  0.
     999903    2    3    3    0    0 -0.18128104686E-01 -0.11754302194E-01 -0.13151047567E+00  0.13458828402E+00  0.18767236982E-01 0.  0.
         14    1    1    2    0    0  0.88586005609E-03 -0.24209004012E-02  0.22140887859E-01  0.22290455850E-01  0.00000000000E+00 0.  1.
     999901    1    3    3    0    0  0.17242244630E-01  0.14175202595E-01  0.10936958781E+00  0.88705126013E+00  0.88000000000E+00 0. -1.
        -11    1    4    4    0    0  0.37640295966E-02 -0.73009323604E-04 -0.17484374907E-01  0.17892393245E-01  0.51100000000E-03 0. -1.
         11    1    4    4    0    0 -0.21892134283E-01 -0.11681292870E-01 -0.11402610076E+00  0.11669589077E+00  0.51100000000E-03 0.  1.
</event>
<event>
 8    1  0.5489035E+004  0.1043930E+01  0.7957747E-01            NaN
         13   -1    0    0    0    0  0.00000000000E+00  0.00000000000E+00  0.74505805969E-08  0.10566000000E+00  0.10566000000E+00 0. -1.
     999900   -1    0    0    0    0 -0.00000000000E+00 -0.00000000000E+00 -0.74505805969E-08  0.93827000000E+00  0.93827000000E+00 0.  1.
     999902    2    1    2    0    0  0.98214939472E-02  0.20473705175E-01  0.84193505384E-02  0.10197118289E+01  0.10194241974E+01 0.  0.
     999903    2    3    3    0    0  0.69057471622E-01  0.23802380595E-01  0.10853673655E+00  0.13205002839E+00  0.17930396218E-01 0.  0.
         14    1    1    2    0    0 -0.98214939472E-02 -0.20473705175E-01 -0.84193505384E-02  0.24218171080E-01  0.00000000000E+00 0.  1.
     999901    1    3    3    0    0 -0.59235977675E-01 -0.33286754195E-02 -0.10011738601E+00  0.88766180053E+00  0.88000000000E+00 0.  1.
        -11    1    4    4    0    0  0.55836569482E-01  0.12649008171E-01  0.75477153606E-01  0.94735324651E-01  0.51100000000E-03 0.  1.
         11    1    4    4    0    0  0.13220902139E-01  0.11153372424E-01  0.33059582947E-01  0.37314703743E-01  0.51100000000E-03 0. -1.
</event>
<event>
 8    1  0.5489035E+004  0.1043930E+01  0.7957747E-01            NaN
         13   -1    0    0    0    0  0.00000000000E+00  0.00000000000E+00  0.74505805969E-08  0.10566000000E+00  0.10566000000E+00 0. -1.
     999900   -1    0    0    0    0 -0.00000000000E+00 -0.00000000000E+00 -0.74505805969E-08  0.93827000000E+00  0.93827000000E+00 0. -1.
     999902    2    1    2    0    0  0.16957247940E-01 -0.14910541765E-01 -0.60871007872E-02  0.10205435657E+01  0.10202755727E+01 0.  0.
     999903    2    3    3    0    0  0.80476423754E-03  0.12169271330E+00 -0.39544426001E-01  0.12922951070E+00  0.18075970039E-01 0.  0.
         14    1    1    2    0    0 -0.16957247940E-01  0.14910541765E-01  0.60871007872E-02  0.23386434303E-01  0.00000000000E+00 0.  1.
     999901    1    3    3    0    0  0.16152483703E-01 -0.13660325506E+00  0.33457325214E-01  0.89131405500E+00  0.88000000000E+00 0.  1.
        -11    1    4    4    0    0  0.41300022881E-02  0.11729332693E+00 -0.38940231637E-01  0.12365833665E+00  0.51100000000E-03 0. -1.
         11    1    4    4    0    0 -0.33252380506E-02  0.43993863653E-02 -0.60419436423E-03  0.55711740516E-02  0.51100000000E-03 0.  1.
</event>
<event>
 8    1  0.5489035E+004  0.1043930E+01  0.7957747E-01            NaN
         13   -1    0    0    0    0  0.00000000000E+00  0.00000000000E+00  0.74505805969E-08  0.10566000000E+00  0.10566000000E+00 0.  1.
     999900   -1    0    0    0    0 -0.00000000000E+00 -0.00000000000E+00 -0.74505805969E-08  0.93827000000E+00  0.93827000000E+00 0.  1.
     999902    2    1    2    0    0  0.12812807401E-02  0.20842899861E-01 -0.21020652505E-02  0.10229422218E+01  0.10227268953E+01 0.  0.
     999903    2    3    3    0    0  0.21470372475E-01  0.13151811926E+00 -0.15448072015E-01  0.13567973556E+00  0.20306529142E-01 0.  0.
         14    1    1    2    0    0 -0.12812807401E-02 -0.20842899861E-01  0.21020652505E-02  0.20987778188E-01  0.00000000000E+00 0. -1.
     999901    1    3    3    0    0 -0.20189091735E-01 -0.11067521939E+00  0.13346006765E-01  0.88726248625E+00  0.88000000000E+00 0. -1.
        -11    1    4    4    0    0  0.22826671635E-01  0.12714448819E+00 -0.17977976877E-01  0.13042333606E+00  0.51100000000E-03 0. -1.
         11    1    4    4    0    0 -0.13562991598E-02  0.43736310664E-02  0.25299048617E-02  0.52563995020E-02  0.51100000000E-03 0.  1.
</event>
<event>
 8    1  0.5489035E+004  0.1043930E+01  0.7957747E-01            NaN
         13   -1    0    0    0    0  0.00000000000E+00  0.00000000000E+00  0.74505805969E-08  0.10566000000E+00  0.10566000000E+00 0. -1.
     999900   -1    0    0    0    0 -0.00000000000E+00 -0.00000000000E+00 -0.74505805969E-08  0.93827000000E+00  0.93827000000E+00 0.  1.
     999902    2    1    2    0    0  0.16344336969E-01  0.15824497059E-01 -0.14504060597E-02  0.10211340412E+01  0.10208795592E+01 0.  0.
     999903    2    3    3    0    0  0.12332092142E+00  0.17416204454E-02 -0.46802078456E-01  0.13338458828E+00  0.19746669097E-01 0.  0.
         14    1    1    2    0    0 -0.16344336969E-01 -0.15824497059E-01  0.14504060597E-02  0.22795958762E-01  0.00000000000E+00 0. -1.
     999901    1    3    3    0    0 -0.10697658446E+00  0.14082876614E-01  0.45351672397E-01  0.88774945296E+00  0.88000000000E+00 0. -1.
        -11    1    4    4    0    0  0.63382258418E-01  0.85363753563E-02 -0.30726614683E-01  0.70954678192E-01  0.51100000000E-03 0. -1.
         11    1    4    4    0    0  0.59938663006E-01 -0.67947549110E-02 -0.16075463773E-01  0.62429910089E-01  0.51100000000E-03 0.  1.
</event>
<event>
 8    1  0.5489035E+004  0.1043930E+01  0.7957747E-01            NaN
         13   -1    0    0    0    0  0.00000000000E+00  0.00000000000E+00  0.74505805969E-08  0.10566000000E+00  0.10566000000E+00 0. -1.
     999900   -1    0    0    0    0 -0.00000000000E+00 -0.00000000000E+00 -0.74505805969E-08  0.93827000000E+00  0.93827000000E+00 0. -1.
     999902    2    1    2    0    0  0.97791152608E-02  0.25849240656E-01 -0.67209817949E-02  0.10154873220E+01  0.10150889198E+01 0.  0.
     999903    2    3    3    0    0  0.58833181433E-01  0.11077992101E+00  0.25362186605E-01  0.12945749652E+00  0.19556808517E-01 0.  0.
         14    1    1    2    0    0 -0.97791152608E-02 -0.25849240656E-01  0.67209817949E-02  0.28442678040E-01  0.00000000000E+00 0. -1.
     999901    1    3    3    0    0 -0.49054066172E-01 -0.84930680355E-01 -0.32083168400E-01  0.88602982544E+00  0.88000000000E+00 0. -1.
        -11    1    4    4    0    0  0.40934395621E-01  0.56368816691E-01  0.13631692969E-01  0.70986987640E-01  0.51100000000E-03 0.  1.
         11    1    4    4    0    0  0.17898785812E-01  0.54411104320E-01  0.11730493636E-01  0.58470508881E-01  0.51100000000E-03 0. -1.
</event>
<event>
 8    1  0.5489035E+004  0.1043930E+01  0.7957747E-01            NaN
         13   -1    0    0    0    0  0.00000000000E+00  0.00000000000E+00  0.74505805969E-08  0.10566000000E+00  0.10566000000E+00 0. -1.
     999900   -1    0    0    0    0 -0.00000000000E+00 -0.00000000000E+00 -0.74505805969E-08  0.93827000000E+00  0.93827000000E+00 0. -1.
     999902    2    1    2    0    0 -0.21560071625E-01  0.54957592194E-02 -0.81143327884E-02  0.10202470430E+01  0.10199721301E+01 0.  0.
     999903    2    3    3    0    0 -0.23863674032E-01  0.10318534596E+00 -0.76607280741E-01  0.13219307733E+00  0.19739393924E-01 0.  0.
         14    1    1    2    0    0  0.21560071625E-01 -0.54957592194E-02  0.81143327884E-02  0.23682957046E-01  0.00000000000E+00 0. -1.
     999901    1    3    3    0    0  0.23036024074E-02 -0.97689586739E-01  0.68492947953E-01  0.88805396562E+00  0.88000000000E+00 0.  1.
        -11    1    4    4    0    0 -0.44585046529E-03  0.30904682244E-02 -0.79991184671E-02  0.86021389046E-02  0.51100000000E-03 0.  1.
         11    1    4    4    0    0 -0.23417823567E-01  0.10009487773E+00 -0.68608162274E-01  0.12359093843E+00  0.51100000000E-03 0. -1.
</event>
<event>
 8    1  0.5489035E+004  0.1043930E+01  0.7957747E-01            NaN
         13   -1    0    0    0    0  0.00000000000E+00  0.00000000000E+00  0.74505805969E-08  0.10566000000E+00  0.10566000000E+00 0. -1.
     999900   -1    0    0    0    0 -0.00000000000E+00 -0.00000000000E+00 -0.74505805969E-08  0.93827000000E+00  0.93827000000E+00 0. -1.
     999902    2    1    2    0    0  0.10069412055E-02 -0.17329475517E-01 -0.12451215301E-01  0.10225674764E+01  0.10223443091E+01 0.  0.
     999903    2    3    3    0    0 -0.10108468229E+00  0.64039254540E-01 -0.52106156995E-01  0.13205297106E+00  0.20094687165E-01 0.  0.
         14    1    1    2    0    0 -0.10069412055E-02  0.17329475517E-01  0.12451215301E-01  0.21362523605E-01  0.00000000000E+00 0. -1.
     999901    1    3    3    0    0  0.10209162350E+00 -0.81368730057E-01  0.39654941694E-01  0.89051450534E+00  0.88000000000E+00 0.  1.
        -11    1    4    4    0    0 -0.61085049608E-01  0.31916406839E-01 -0.20979022864E-01  0.72044575316E-01  0.51100000000E-03 0. -1.
         11    1    4    4    0    0 -0.39999632681E-01  0.32122847701E-01 -0.31127134130E-01  0.60008395739E-01  0.51100000000E-03 0.  1.
</event>
<event>
 7    1  0.5489035E+004  0.1043930E+01  0.7957747E-01            NaN
         13   -1    0    0    0    0  0.00000000000E+00  0.00000000000E+00  0.74505805969E-08  0.10566000000E+00  0.10566000000E+00 0. -1.
     999900   -1    0    0    0    0 -0.00000000000E+00 -0.00000000000E+00 -0.74505805969E-08  0.93827000000E+00  0.93827000000E+00 0. -1.
     999902    2    1    2    0    0  0.11076127242E-01 -0.21074831696E-02 -0.23697951192E-01  0.10176866204E+01  0.10173481914E+01 0.  0.
         14    1    1    2    0    0 -0.11076127242E-01  0.21074831696E-02  0.23697951192E-01  0.26243379560E-01  0.00000000000E+00 0. -1.
     999901    1    3    3    0    0  0.29166253981E-01 -0.90186285994E-01  0.63435210703E-01  0.88736027774E+00  0.88000000000E+00 0.  1.
        -11    1    3    3    0    0  0.18612994604E-02  0.61684093809E-01 -0.43229631229E-01  0.75348881889E-01  0.51100000000E-03 0. -1.
         11    1    3    3    0    0 -0.19951426199E-01  0.26394709016E-01 -0.43903530666E-01  0.54977460812E-01  0.51100000000E-03 0.  1.
</event>
<event>
 8    1  0.5489035E+004  0.1043930E+01  0.7957747E-01            NaN
         13   -1    0    0    0    0  0.00000000000E+00  0.00000000000E+00  0.74505805969E-08  0.10566000000E+00  0.10566000000E+00 0.  1.
     999900   -1    0    0    0    0 -0.00000000000E+00 -0.00000000000E+00 -0.74505805969E-08  0.93827000000E+00  0.93827000000E+00 0. -1.
     999902    2    1    2    0    0 -0.80674805604E-02  0.13215937374E-02 -0.28836593078E-01  0.10139570129E+01  0.10135139092E+01 0.  0.
     999903    2    3    3    0    0  0.10524547041E+00 -0.47749138917E-01 -0.44028707261E-01  0.12520588806E+00  0.19529414518E-01 0.  0.
         14    1    1    2    0    0  0.80674805604E-02 -0.13215937374E-02  0.28836593078E-01  0.29972987054E-01  0.00000000000E+00 0.  1.
     999901    1    3    3    0    0 -0.11331295097E+00  0.49070732654E-01  0.15192114183E-01  0.88875112489E+00  0.88000000000E+00 0. -1.
        -11    1    4    4    0    0  0.80432473276E-01 -0.45056182909E-01 -0.33117617967E-01  0.97961625734E-01  0.51100000000E-03 0. -1.
         11    1    4    4    0    0  0.24812997134E-01 -0.26929560079E-02 -0.10911089295E-01  0.27244262321E-01  0.51100000000E-03 0.  1.
</event>
<event>
 8    1  0.5489035E+004  0.1043930E+01  0.7957747E-01            NaN
         13   -1    0    0    0    0  0.00000000000E+00  0.00000000000E+00  0.74505805969E-08  0.10566000000E+00  0.10566000000E+00 0.  1.
     999900   -1    0    0    0    0 -0.00000000000E+00 -0.00000000000E+00 -0.74505805969E-08  0.93827000000E+00  0.93827000000E+00 0. -1.
     999902    2    1    2    0    0  0.12909948366E-01  0.14009836107E-01  0.15023275373E-01  0.10196680735E+01  0.10193793892E+01 0.  0.
     999903    2    3    3    0    0 -0.12360716562E+00 -0.21118731844E-02  0.30862540990E-01  0.12885512217E+00  0.19182144589E-01 0.  0.
         14    1    1    2    0    0 -0.12909948366E-01 -0.14009836107E-01 -0.15023275373E-01  0.24261926500E-01  0.00000000000E+00 0. -1.
     999901    1    3    3    0    0  0.13651711399E+00  0.16121709292E-01 -0.15839265617E-01  0.89081295133E+00  0.88000000000E+00 0.  1.
        -11    1    4    4    0    0 -0.10371839145E+00  0.37907998941E-02  0.21060222245E-01  0.10590405550E+00  0.51100000000E-03 0. -1.
         11    1    4    4    0    0 -0.19888774174E-01 -0.59026730784E-02  0.98023187444E-02  0.22951066672E-01  0.51100000000E-03 0.  1.
</event>
<event>
 8    1  0.5489035E+004  0.1043930E+01  0.7957747E-01            NaN
         13   -1    0    0    0    0  0.00000000000E+00  0.00000000000E+00  0.74505805969E-08  0.10566000000E+00  0.10566000000E+00 0. -1.
     999900   -1    0    0    0    0 -0.00000000000E+00 -0.00000000000E+00 -0.74505805969E-08  0.93827000000E+00  0.93827000000E+00 0.  1.
     999902    2    1    2    0    0  0.18967430548E-01  0.21951579353E-02 -0.14202064712E-01  0.10201333452E+01  0.10198557550E+01 0.  0.
     999903    2    3    3    0    0 -0.12596773076E+00 -0.11302982135E-01 -0.40465792171E-02  0.12811791106E+00  0.20054868051E-01 0.  0.
         14    1    1    2    0    0 -0.18967430548E-01 -0.21951579353E-02  0.14202064712E-01  0.23796654849E-01  0.00000000000E+00 0.  1.
     999901    1    3    3    0    0  0.14493516131E+00  0.13498140070E-01 -0.10155485494E-01  0.89201543409E+00  0.88000000000E+00 0.  1.
        -11    1    4    4    0    0 -0.97116541007E-01 -0.10403967552E-01  0.51767153726E-02  0.97810656786E-01  0.51100000000E-03 0. -1.
         11    1    4    4    0    0 -0.28851189756E-01 -0.89901458274E-03 -0.92232945897E-02  0.30307254274E-01  0.51100000000E-03 0.  1.
</event>
<event>
 8    1  0.5489035E+004  0.1043930E+01  0.7957747E-01            NaN
         13   -1    0    0    0    0  0.00000000000E+00  0.00000000000E+00  0.74505805969E-08  0.10566000000E+00  0.10566000000E+00 0.  1.
     999900   -1    0    0    0    0 -0.00000000000E+00 -0.00000000000E+00 -0.74505805969E-08  0.93827000000E+00  0.93827000000E+00 0.  1.
     999902    2    1    2    0    0  0.18619570652E-01 -0.17243870633E-01  0.68030873966E-03  0.10185429500E+01  0.10182265164E+01 0.  0.
     999903    2    3    3    0    0  0.71771378204E-02  0.24483075873E-02  0.12765215242E+00  0.12913834007E+00  0.18003703560E-01 0.  0.
         14    1    1    2    0    0 -0.18619570652E-01  0.17243870633E-01 -0.68030873966E-03  0.25387049959E-01  0.00000000000E+00 0. -1.
     999901    1    3    3    0    0  0.11442432831E-01 -0.19692178220E-01 -0.12697184368E+00  0.88940460997E+00  0.88000000000E+00 0.  1.
        -11    1    4    4    0    0 -0.10020604074E-02  0.89251083936E-02  0.52792056720E-01  0.53553002330E-01  0.51100000000E-03 0.  1.
         11    1    4    4    0    0  0.81791982278E-02 -0.64768008063E-02  0.74860095697E-01  0.75585337739E-01  0.51100000000E-03 0. -1.
</event>
<event>
 8    1  0.5489035E+004  0.1043930E+01  0.7957747E-01            NaN
         13   -1    0    0    0    0  0.00000000000E+00  0.00000000000E+00  0.74505805969E-08  0.10566000000E+00  0.10566000000E+00 0. -1.
     999900   -1    0    0    0    0 -0.00000000000E+00 -0.00000000000E+00 -0.74505805969E-08  0.93827000000E+00  0.93827000000E+00 0.  1.
     999902    2    1    2    0    0  0.65343922425E-02 -0.17600410490E-01  0.12188953802E-02  0.10251162168E+01  0.10249435592E+01 0.  0.
     999903    2    3    3    0    0  0.76776434959E-01  0.10511021813E+00 -0.17808279011E-01  0.13362652182E+00  0.24415847554E-01 0.  0.
         14    1    1    2    0    0 -0.65343922425E-02  0.17600410490E-01 -0.12188953802E-02  0.18813783175E-01  0.00000000000E+00 0.  1.
     999901    1    3    3    0    0 -0.70242042717E-01 -0.12271062862E+00  0.19027174391E-01  0.89148969501E+00  0.88000000000E+00 0.  1.
        -11    1    4    4    0    0  0.14751587605E-01  0.39382154089E-01 -0.52493679368E-02  0.42383727801E-01  0.51100000000E-03 0. -1.
         11    1    4    4    0    0  0.62024847354E-01  0.65728064038E-01 -0.12558911074E-01  0.91242794016E-01  0.51100000000E-03 0.  1.
</event>
<event>
 7    1  0.5489035E+004  0.1043930E+01  0.7957747E-01            NaN
         13   -1    0    0    0    0  0.00000000000E+00  0.00000000000E+00  0.74505805969E-08  0.10566000000E+00  0.10566000000E+00 0.  1.
     999900   -1    0    0    0    0 -0.00000000000E+00 -0.00000000000E+00 -0.74505805969E-08  0.93827000000E+00  0.93827000000E+00 0.  1.
     999903    2    1    2    0    0 -0.39012565611E-01 -0.65728972237E-01 -0.91729518298E-01  0.12089444836E+00  0.18944261683E-01 0.  0.
         14    1    1    2    0    0  0.16079130214E-01  0.10872925127E-02  0.35015853576E-01  0.38546473705E-01  0.00000000000E+00 0.  1.
     999901    1    1    2    0    0  0.22933435397E-01  0.64641679725E-01  0.56713664722E-01  0.88448907793E+00  0.88000000000E+00 0. -1.
        -11    1    3    3    0    0 -0.21278448922E-01 -0.19189674211E-01 -0.28657565788E-01  0.40528177640E-01  0.51100000000E-03 0.  1.
         11    1    3    3    0    0 -0.17734116689E-01 -0.46539298026E-01 -0.63071952509E-01  0.80366270722E-01  0.51100000000E-03 0. -1.
</event>
<event>
 8    1  0.5489035E+004  0.1043930E+01  0.7957747E-01            NaN
         13   -1    0    0    0    0  0.00000000000E+00  0.00000000000E+00  0.74505805969E-08  0.10566000000E+00  0.10566000000E+00 0.  1.
     999900   -1    0    0    0    0 -0.00000000000E+00 -0.00000000000E+00 -0.74505805969E-08  0.93827000000E+00  0.93827000000E+00 0. -1.
     999902    2    1    2    0    0  0.37299111101E-02 -0.22791362025E-01 -0.11386931762E-01  0.10181808129E+01  0.10178551700E+01 0.  0.
     999903    2    3    3    0    0  0.13148741639E-01 -0.55412310471E-01 -0.11630930028E+00  0.13129776311E+00  0.21629510084E-01 0.  0.
         14    1    1    2    0    0 -0.37299111101E-02  0.22791362025E-01  0.11386931762E-01  0.25749187071E-01  0.00000000000E+00 0.  1.
     999901    1    3    3    0    0 -0.94188305288E-02  0.32620948446E-01  0.10492236852E+00  0.88688304982E+00  0.88000000000E+00 0.  1.
        -11    1    4    4    0    0  0.62924813748E-02 -0.21000263686E-01 -0.23829655438E-01  0.32383946578E-01  0.51100000000E-03 0. -1.
         11    1    4    4    0    0  0.68562602641E-02 -0.34412046785E-01 -0.92479644844E-01  0.98913816529E-01  0.51100000000E-03 0.  1.
</event>
<event>
 8    1  0.5489035E+004  0.1043930E+01  0.7957747E-01            NaN
         13   -1    0    0    0    0  0.00000000000E+00  0.00000000000E+00  0.74505805969E-08  0.10566000000E+00  0.10566000000E+00 0. -1.
     999900   -1    0    0    0    0 -0.00000000000E+00 -0.00000000000E+00 -0.74505805969E-08  0.93827000000E+00  0.93827000000E+00 0. -1.
     999902    2    1    2    0    0  0.16034026220E-01 -0.18836154414E-01 -0.76704491061E-03  0.10191816856E+01  0.10188811654E+01 0.  0.
     999903    2    3    3    0    0 -0.18166747960E-01  0.75886091455E-01 -0.99381751234E-01  0.12796518149E+00  0.20239209166E-01 0.  0.
         14    1    1    2    0    0 -0.16034026220E-01  0.18836154414E-01  0.76704491061E-03  0.24748314444E-01  0.00000000000E+00 0. -1.
     999901    1    3    3    0    0  0.34200774180E-01 -0.94722245868E-01  0.98614706323E-01  0.89121650407E+00  0.88000000000E+00 0.  1.
        -11    1    4    4    0    0 -0.96687554913E-02  0.46958609351E-01 -0.75773090646E-01  0.89668379108E-01  0.51100000000E-03 0. -1.
         11    1    4    4    0    0 -0.84979924690E-02  0.28927482104E-01 -0.23608660588E-01  0.38296802381E-01  0.51100000000E-03 0.  1.
</event>
<event>
 8    1  0.5489035E+004  0.1043930E+01  0.7957747E-01            NaN
         13   -1    0    0    0    0  0.00000000000E+00  0.00000000000E+00  0.74505805969E-08  0.10566000000E+00  0.10566000000E+00 0.  1.
     999900   -1    0    0    0    0 -0.00000000000E+00 -0.00000000000E+00 -0.74505805969E-08  0.93827000000E+00  0.93827000000E+00 0. -1.
     999902    2    1    2    0    0  0.18734628362E-01 -0.15050552395E-01 -0.57539986505E-02  0.10192193965E+01  0.10189198026E+01 0.  0.
     999903    2    3    3    0    0  0.16337774444E-01 -0.11290448421E+00  0.60442398962E-01  0.13132126044E+00  0.24034234360E-01 0.  0.
         14    1    1    2    0    0 -0.18734628362E-01  0.15050552395E-01  0.57539986505E-02  0.24710603548E-01  0.00000000000E+00 0.  1.
     999901    1    3    3    0    0  0.23968539179E-02  0.97853931818E-01 -0.66196397613E-01  0.88789813601E+00  0.88000000000E+00 0. -1.
        -11    1    4    4    0    0 -0.54535507706E-02 -0.42286682248E-01  0.20474711679E-01  0.47300947674E-01  0.51100000000E-03 0.  1.
         11    1    4    4    0    0  0.21791325214E-01 -0.70617801965E-01  0.39967687283E-01  0.84020312763E-01  0.51100000000E-03 0. -1.
</event>
<event>
 8    1  0.5489035E+004  0.1043930E+01  0.7957747E-01            NaN
         13   -1    0    0    0    0  0.00000000000E+00  0.00000000000E+00  0.74505805969E-08  0.10566000000E+00  0.10566000000E+00 0. -1.
     999900   -1    0    0    0    0 -0.00000000000E+00 -0.00000000000E+00 -0.74505805969E-08  0.93827000000E+00  0.93827000000E+00 0. -1.
     999902    2    1    2    0    0  0.12657072814E-01 -0.13613229565E-01 -0.14694151792E-01  0.10202352831E+01  0.10199600940E+01 0.  0.
     999903    2    3    3    0    0 -0.74631016106E-01 -0.53183782310E-01 -0.92429008107E-01  0.13162527473E+00  0.19590511545E-01 0.  0.
         14    1    1    2    0    0 -0.12657072814E-01  0.13613229565E-01  0.14694151792E-01  0.23694716886E-01  0.00000000000E+00 0. -1.
     999901    1    3    3    0    0  0.87288088921E-01  0.39570552745E-01  0.77734856316E-01  0.88861000838E+00  0.88000000000E+00 0.  1.
        -11    1    4    4    0    0 -0.16672839497E-01 -0.80018331797E-02 -0.94258350010E-02  0.20763438964E-01  0.51100000000E-03 0. -1.
         11    1    4    4    0    0 -0.57958176609E-01 -0.45181949130E-01 -0.83003173106E-01  0.11086183577E+00  0.51100000000E-03 0.  1.
</event>
<event>
 8    1  0.5489035E+004  0.1043930E+01  0.7957747E-01            NaN
         13   -1    0    0    0    0  0.00000000000E+00  0.00000000000E+00  0.74505805969E-08  0.10566000000E+00  0.10566000000E+00 0. -1.
     999900   -1    0    0    0    0 -0.00000000000E+00 -0.00000000000E+00 -0.74505805969E-08  0.93827000000E+00  0.93827000000E+00 0.  1.
     999902    2    1    2    0    0 -0.22894242240E-02  0.80098681230E-02  0.22035428963E-01  0.10203724199E+01  0.10201004439E+01 0.  0.
     999903    2    3    3    0    0  0.94847029859E-01  0.22090522659E-01 -0.81940910070E-01  0.12883171156E+00  0.19983665736E-01 0.  0.
         14    1    1    2    0    0  0.22894242240E-02 -0.80098681230E-02 -0.22035428963E-01  0.23557580101E-01  0.00000000000E+00 0.  1.
     999901    1    3    3    0    0 -0.97136454083E-01 -0.14080654536E-01  0.10397633903E+00  0.89154070834E+00  0.88000000000E+00 0. -1.
        -11    1    4    4    0    0  0.24326932096E-01  0.90758823182E-03 -0.30408823897E-01  0.38956142434E-01  0.51100000000E-03 0. -1.
         11    1    4    4    0    0  0.70520097763E-01  0.21182934427E-01 -0.51532086173E-01  0.89875569127E-01  0.51100000000E-03 0.  1.
</event>
<event>
 8    1  0.5489035E+004  0.1043930E+01  0.7957747E-01            NaN
         13   -1    0    0    0    0  0.00000000000E+00  0.00000000000E+00  0.74505805969E-08  0.10566000000E+00  0.10566000000E+00 0.  1.
     999900   -1    0    0    0    0 -0.00000000000E+00 -0.00000000000E+00 -0.74505805969E-08  0.93827000000E+00  0.93827000000E+00 0.  1.
     999902    2    1    2    0    0 -0.11789060122E-01 -0.22840331887E-01 -0.47389399360E-02  0.10177934308E+01  0.10174577866E+01 0.  0.
     999903    2    3    3    0    0  0.11464350107E+00  0.44196152061E-01 -0.19838416952E-01  0.12610566203E+00  0.20313616501E-01 0.  0.
         14    1    1    2    0    0  0.11789060122E-01  0.22840331887E-01  0.47389399360E-02  0.26136569228E-01  0.00000000000E+00 0.  1.
     999901    1    3    3    0    0 -0.12643256119E+00 -0.67036483949E-01  0.15099477016E-01  0.89168776874E+00  0.88000000000E+00 0. -1.
        -11    1    4    4    0    0  0.88901737447E-01  0.29839991642E-01 -0.22707785985E-01  0.96487557164E-01  0.51100000000E-03 0. -1.
         11    1    4    4    0    0  0.25741763624E-01  0.14356160420E-01  0.28693690333E-02  0.29618104870E-01  0.51100000000E-03 0.  1.
</event>
<event>
 8    1  0.5489035E+004  0.1043930E+01  0.7957747E-01            NaN
         13   -1    0    0    0    0  0.00000000000E+00  0.00000000000E+00  0.74505805969E-08  0.10566000000E+00  0.10566000000E+00 0. -1.
     999900   -1    0    0    0    0 -0.00000000000E+00 -0.00000000000E+00 -0.74505805969E-08  0.93827000000E+00  0.93827000000E+00 0.  1.
     999902    2    1    2    0    0 -0.14695807637E-01  0.27692891726E-02 -0.17494063088E-01  0.10209152663E+01  0.10206558200E+01 0.  0.
     999903    2    3    3    0    0  0.58722645124E-01  0.28639018589E-01 -0.11322991632E+00  0.13230687914E+00  0.20385138739E-01 0.  0.
         14    1    1    2    0    0  0.14695807637E-01 -0.27692891726E-02  0.17494063088E-01  0.23014733714E-01  0.00000000000E+00 0. -1.
     999901    1    3    3    0    0 -0.73418452761E-01 -0.25869729417E-01  0.95735853237E-01  0.88860838714E+00  0.88000000000E+00 0. -1.
        -11    1    4    4    0    0  0.56175995930E-01  0.20356713254E-01 -0.98202294359E-01  0.11495255557E+00  0.51100000000E-03 0. -1.
         11    1    4    4    0    0  0.25466491944E-02  0.82823053356E-02 -0.15027621965E-01  0.17354323574E-01  0.51100000000E-03 0.  1.
</event>
<event>
 8    1  0.5489035E+004  0.1043930E+01  0.7957747E-01            NaN
         13   -1    0    0    0    0  0.00000000000E+00  0.00000000000E+00  0.74505805969E-08  0.10566000000E+00  0.10566000000E+00 0.  1.
     999900   -1    0    0    0    0 -0.00000000000E+00 -0.00000000000E+00 -0.74505805969E-08  0.93827000000E+00  0.93827000000E+00 0.  1.
     999902    2    1    2    0    0 -0.16925331252E-01  0.83786135452E-02  0.13506947399E-01  0.10207113517E+01  0.10204472342E+01 0.  0.
     999903    2    3    3    0    0 -0.30117148523E-01 -0.35786570741E-01 -0.11908475517E+00  0.12958557651E+00  0.20579636627E-01 0.  0.
         14    1    1    2    0    0  0.16925331252E-01 -0.83786135452E-02 -0.13506947399E-01  0.23218648345E-01  0.00000000000E+00 0.  1.
     999901    1    3    3    0    0  0.13191817272E-01  0.44165184287E-01  0.13259170257E+00  0.89112577515E+00  0.88000000000E+00 0. -1.
        -11    1    4    4    0    0 -0.16331508590E-01 -0.13694541917E-01 -0.30225118597E-01  0.36987532580E-01  0.51100000000E-03 0.  1.
         11    1    4    4    0    0 -0.13785639934E-01 -0.22092028824E-01 -0.88859636573E-01  0.92598043925E-01  0.51100000000E-03 0. -1.
</event>
<event>
 8    1  0.5489035E+004  0.1043930E+01  0.7957747E-01            NaN
         13   -1    0    0    0    0  0.00000000000E+00  0.00000000000E+00  0.74505805969E-08  0.10566000000E+00  0.10566000000E+00 0.  1.
     999900   -1    0    0    0    0 -0.00000000000E+00 -0.00000000000E+00 -0.74505805969E-08  0.93827000000E+00  0.93827000000E+00 0.  1.
     999902    2    1    2    0    0 -0.12494198467E-01  0.10245994595E-01  0.17560764867E-01  0.10200665161E+01  0.10197873462E+01 0.  0.
     999903    2    3    3    0    0  0.11782452080E+00 -0.24253062182E-01  0.43124415661E-01  0.12943378948E+00  0.20556310571E-01 0.  0.
         14    1    1    2    0    0  0.12494198467E-01 -0.10245994595E-01 -0.17560764867E-01  0.23863483889E-01  0.00000000000E+00 0. -1.
     999901    1    3    3    0    0 -0.13031871927E+00  0.34499056777E-01 -0.25563650794E-01  0.89063272663E+00  0.88000000000E+00 0.  1.
        -11    1    4    4    0    0  0.41596953784E-01 -0.18307029053E-01  0.18949431854E-01  0.49242217308E-01  0.51100000000E-03 0.  1.
         11    1    4    4    0    0  0.76227567020E-01 -0.59460331288E-02  0.24174983808E-01  0.80191572168E-01  0.51100000000E-03 0. -1.
</event>
<event>
 8    1  0.5489035E+004  0.1043930E+01  0.7957747E-01            NaN
         13   -1    0    0    0    0  0.00000000000E+00  0.00000000000E+00  0.74505805969E-08  0.10566000000E+00  0.10566000000E+00 0. -1.
     999900   -1    0    0    0    0 -0.00000000000E+00 -0.00000000000E+00 -0.74505805969E-08  0.93827000000E+00  0.93827000000E+00 0.  1.
     999902    2    1    2    0    0  0.58522550199E-02  0.10151900332E-01 -0.20500811658E-01  0.10203165875E+01  0.10200433057E+01 0.  0.
     999903    2    3    3    0    0 -0.10838254916E+00 -0.64374585212E-01  0.13373999164E-01  0.12916492237E+00  0.24775978946E-01 0.  0.
         14    1    1    2    0    0 -0.58522550199E-02 -0.10151900332E-01  0.20500811658E-01  0.23613412456E-01  0.00000000000E+00 0.  1.
     999901    1    3    3    0    0  0.11423480418E+00  0.74526485545E-01 -0.33874810821E-01  0.89115166517E+00  0.88000000000E+00 0.  1.
        -11    1    4    4    0    0 -0.46502882555E-01 -0.36769312917E-01  0.15823424797E-01  0.61360755794E-01  0.51100000000E-03 0. -1.
         11    1    4    4    0    0 -0.61879666610E-01 -0.27605272296E-01 -0.24494256334E-02  0.67804166577E-01  0.51100000000E-03 0.  1.
</event>
<event>
 8    1  0.5489035E+004  0.1043930E+01  0.7957747E-01            NaN
         13   -1    0    0    0    0  0.00000000000E+00  0.00000000000E+00  0.74505805969E-08  0.10566000000E+00  0.10566000000E+00 0.  1.
     999900   -1    0    0    0    0 -0.00000000000E+00 -0.00000000000E+00 -0.74505805969E-08  0.93827000000E+00  0.93827000000E+00 0. -1.
     999902    2    1    2    0    0 -0.70832552205E-02  0.10708165135E-01 -0.19463030721E-01  0.10206137638E+01  0.10203473958E+01 0.  0.
     999903    2    3    3    0    0 -0.37053211768E-01  0.43035120768E-01 -0.11984060320E+00  0.13381114349E+00  0.17851885768E-01 0.  0.
         14    1    1    2    0    0  0.70832552205E-02 -0.10708165135E-01  0.19463030721E-01  0.23316236187E-01  0.00000000000E+00 0.  1.
     999901    1    3    3    0    0  0.29969956548E-01 -0.32326955633E-01  0.10037757248E+00  0.88680262032E+00  0.88000000000E+00 0.  1.
        -11    1    4    4    0    0 -0.30114329897E-01  0.22879785963E-01 -0.83699923408E-01  0.91849310124E-01  0.51100000000E-03 0. -1.
         11    1    4    4    0    0 -0.69388818714E-02  0.20155334806E-01 -0.36140679789E-01  0.41961833365E-01  0.51100000000E-03 0.  1.
</event>
<event>
 8    1  0.5489035E+004  0.1043930E+01  0.7957747E-01            NaN
         13   -1    0    0    0    0  0.00000000000E+00  0.00000000000E+00  0.74505805969E-08  0.10566000000E+00  0.10566000000E+00 0.  1.
     999900   -1    0    0    0    0 -0.00000000000E+00 -0.00000000000E+00 -0.74505805969E-08  0.93827000000E+00  0.93827000000E+00 0.  1.
     999902    2    1    2    0    0  0.22341483141E-01  0.36000734626E-02 -0.48748048022E-02  0.10207812177E+01  0.10205187056E+01 0.  0.
     999903    2    3    3    0    0 -0.59409164988E-01  0.11222836778E+00  0.19963420947E-01  0.12999492898E+00  0.19377511845E-01 0.  0.
         14    1    1    2    0    0 -0.22341483141E-01 -0.36000734626E-02  0.48748048022E-02  0.23148782251E-01  0.00000000000E+00 0.  1.
     999901    1    3    3    0    0  0.81750648129E-01 -0.10862829432E+00 -0.24838225749E-01  0.89078628877E+00  0.88000000000E+00 0.  1.
        -11    1    4    4    0    0 -0.46517391068E-01  0.74238185114E-01  0.72566037968E-02  0.87909585486E-01  0.51100000000E-03 0.  1.
         11    1    4    4    0    0 -0.12891773921E-01  0.37990182669E-01  0.12706817150E-01  0.42085343496E-01  0.51100000000E-03 0. -1.
</event>
<event>
 8    1  0.5489035E+004  0.1043930E+01  0.7957747E-01            NaN
         13   -1    0    0    0    0  0.00000000000E+00  0.00000000000E+00  0.74505805969E-08  0.10566000000E+00  0.10566000000E+00 0.  1.
     999900   -1    0    0    0    0 -0.00000000000E+00 -0.00000000000E+00 -0.74505805969E-08  0.93827000000E+00  0.93827000000E+00 0.  1.
     999902    2    1    2    0    0 -0.21461023561E-01  0.83366668192E-02  0.33053156146E-02  0.10206705792E+01  0.10204055226E+01 0.  0.
     999903    2    3    3    0    0 -0.11424483539E+00  0.60524533234E-01 -0.28352659023E-01  0.13368995002E+00  0.18815629807E-01 0.  0.
         14    1    1    2    0    0  0.21461023561E-01 -0.83366668192E-02 -0.33053156146E-02  0.23259420828E-01  0.00000000000E+00 0. -1.
     999901    1    3    3    0    0  0.92783811830E-01 -0.52187866415E-01  0.31657974637E-01  0.88698062916E+00  0.88000000000E+00 0. -1.
        -11    1    4    4    0    0 -0.51848224782E-01  0.27391735153E-01 -0.33153551889E-02  0.58734983346E-01  0.51100000000E-03 0. -1.
         11    1    4    4    0    0 -0.62396610610E-01  0.33132798081E-01 -0.25037303834E-01  0.74954966670E-01  0.51100000000E-03 0.  1.
</event>
<event>
 8    1  0.5489035E+004  0.1043930E+01  0.7957747E-01            NaN
         13   -1    0    0    0    0  0.00000000000E+00  0.00000000000E+00  0.74505805969E-08  0.10566000000E+00  0.10566000000E+00 0. -1.
     999900   -1    0    0    0    0 -0.00000000000E+00 -0.00000000000E+00 -0.74505805969E-08  0.93827000000E+00  0.93827000000E+00 0. -1.
     999902    2    1    2    0    0 -0.15791618075E-01  0.47283300214E-02  0.17885761983E-01  0.10196064972E+01  0.10193163279E+01 0.  0.
     999903    2    3    3    0    0  0.11205505479E+00  0.12462443864E-01 -0.55834114555E-01  0.12728412919E+00  0.19291277418E-01 0.  0.
         14    1    1    2    0    0  0.15791618075E-01 -0.47283300214E-02 -0.17885761983E-01  0.24323502789E-01  0.00000000000E+00 0.  1.
     999901    1    3    3    0    0 -0.12784667286E+00 -0.77341138425E-02  0.73719876538E-01  0.89232236802E+00  0.88000000000E+00 0.  1.
        -11    1    4    4    0    0  0.81600893215E-01  0.67852704495E-03 -0.42491577926E-01  0.92005225330E-01  0.51100000000E-03 0. -1.
         11    1    4    4    0    0  0.30454161572E-01  0.11783916819E-01 -0.13342536629E-01  0.35278903857E-01  0.51100000000E-03 0.  1.
</event>
<event>
 8    1  0.5489035E+004  0.1043930E+01  0.7957747E-01            NaN
         13   -1    0    0    0    0  0.00000000000E+00  0.00000000000E+00  0.74505805969E-08  0.10566000000E+00  0.10566000000E+00 0. -1.
     999900   -1    0    0    0    0 -0.00000000000E+00 -0.00000000000E+00 -0.74505805969E-08  0.93827000000E+00  0.93827000000E+00 0. -1.
     999902    2    1    2    0    0  0.18032900457E-01 -0.82490850692E-02  0.13786439780E-01  0.10197784198E+01  0.10194923868E+01 0.  0.
     999903    2    3    3    0    0 -0.30305045525E-01  0.70095686239E-01 -0.10044322028E+00  0.12763332207E+00  0.19225592009E-01 0.  0.
         14    1    1    2    0    0 -0.18032900457E-01  0.82490850692E-02 -0.13786439780E-01  0.24151580179E-01  0.00000000000E+00 0.  1.
     999901    1    3    3    0    0  0.48337945981E-01 -0.78344771309E-01  0.11422966006E+00  0.89214509776E+00  0.88000000000E+00 0. -1.
        -11    1    4    4    0    0 -0.19040389889E-01  0.22334329316E-01 -0.32120421264E-01  0.43512541827E-01  0.51100000000E-03 0.  1.
         11    1    4    4    0    0 -0.11264655636E-01  0.47761356924E-01 -0.68322799013E-01  0.84120780238E-01  0.51100000000E-03 0. -1.
</event>
<event>
 8    1  0.5489035E+004  0.1043930E+01  0.7957747E-01            NaN
         13   -1    0    0    0    0  0.00000000000E+00  0.00000000000E+00  0.74505805969E-08  0.10566000000E+00  0.10566000000E+00 0. -1.
     999900   -1    0    0    0    0 -0.00000000000E+00 -0.00000000000E+00 -0.74505805969E-08  0.93827000000E+00  0.93827000000E+00 0. -1.
     999902    2    1    2    0    0  0.61894377255E-02 -0.44788912999E-02 -0.23173160903E-01  0.10195298977E+01  0.10192378757E+01 0.  0.
     999903    2    3    3    0    0 -0.12618828255E+00  0.16734650407E-01  0.45642439657E-02  0.12894400132E+00  0.20054724560E-01 0.  0.
         14    1    1    2    0    0 -0.61894377255E-02  0.44788912999E-02  0.23173160903E-01  0.24400102313E-01  0.00000000000E+00 0. -1.
     999901    1    3    3    0    0  0.13237772027E+00 -0.21213541706E-01 -0.27737404869E-01  0.89058589637E+00  0.88000000000E+00 0. -1.
        -11    1    4    4    0    0 -0.66134543515E-01  0.17076349298E-01  0.80945468246E-02  0.68783445396E-01  0.51100000000E-03 0.  1.
         11    1    4    4    0    0 -0.60053739033E-01 -0.34169889099E-03 -0.35303028589E-02  0.60160555925E-01  0.51100000000E-03 0. -1.
</event>
<event>
 8    1  0.5489035E+004  0.1043930E+01  0.7957747E-01            NaN
         13   -1    0    0    0    0  0.00000000000E+00  0.00000000000E+00  0.74505805969E-08  0.10566000000E+00  0.10566000000E+00 0.  1.
     999900   -1    0    0    0    0 -0.00000000000E+00 -0.00000000000E+00 -0.74505805969E-08  0.93827000000E+00  0.93827000000E+00 0.  1.
     999902    2    1    2    0    0 -0.12985470767E-01 -0.64470173681E-02 -0.16703407513E-01  0.10218123531E+01  0.10215729512E+01 0.  0.
     999903    2    3    3    0    0  0.83859788404E-01  0.97536034973E-01  0.21011916634E-02  0.13021541926E+00  0.20146914829E-01 0.  0.
         14    1    1    2    0    0  0.12985470767E-01  0.64470173681E-02  0.16703407513E-01  0.22117646948E-01  0.00000000000E+00 0.  1.
     999901    1    3    3    0    0 -0.96845259170E-01 -0.10398305234E+00 -0.18804599176E-01  0.89159693379E+00  0.88000000000E+00 0.  1.
        -11    1    4    4    0    0  0.43340760155E-01  0.62644670322E-01  0.71028775195E-02  0.76508092386E-01  0.51100000000E-03 0. -1.
         11    1    4    4    0    0  0.40519028249E-01  0.34891364651E-01 -0.50016858561E-02  0.53707326873E-01  0.51100000000E-03 0.  1.
</event>
<event>
 8    1  0.5489035E+004  0.1043930E+01  0.7957747E-01            NaN
         13   -1    0    0    0    0  0.00000000000E+00  0.00000000000E+00  0.74505805969E-08  0.10566000000E+00  0.10566000000E+00 0. -1.
     999900   -1    0    0    0    0 -0.00000000000E+00 -0.00000000000E+00 -0.74505805969E-08  0.93827000000E+00  0.93827000000E+00 0.  1.
     999902    2    1    2    0    0 -0.19066736729E-01 -0.98785062397E-02  0.45056206731E-02  0.10219885791E+01  0.10217530180E+01 0.  0.
     999903    2    3    3    0    0  0.12355458946E-01  0.11347139747E+00  0.61921779320E-01  0.13097838361E+00  0.17105987573E-01 0.  0.
         14    1    1    2    0    0  0.19066736729E-01  0.98785062397E-02 -0.45056206731E-02  0.21941420935E-01  0.00000000000E+00 0.  1.
     999901    1    3    3    0    0 -0.31422195674E-01 -0.12334990371E+00 -0.57416158647E-01  0.89101019545E+00  0.88000000000E+00 0.  1.
        -11    1    4    4    0    0  0.14515861831E-01  0.54529807434E-01  0.29866103648E-01  0.63847125320E-01  0.51100000000E-03 0.  1.
         11    1    4    4    0    0 -0.21604028854E-02  0.58941590033E-01  0.32055675672E-01  0.67131258293E-01  0.51100000000E-03 0. -1.
</event>
<event>
 8    1  0.5489035E+004  0.1043930E+01  0.7957747E-01            NaN
         13   -1    0    0    0    0  0.00000000000E+00  0.00000000000E+00  0.74505805969E-08  0.10566000000E+00  0.10566000000E+00 0. -1.
     999900   -1    0    0    0    0 -0.00000000000E+00 -0.00000000000E+00 -0.74505805969E-08  0.93827000000E+00  0.93827000000E+00 0.  1.
     999902    2    1    2    0    0 -0.10539729178E-01  0.15719475996E-01 -0.13202900589E-01  0.10208539431E+01  0.10205930966E+01 0.  0.
     999903    2    3    3    0    0 -0.30933334413E-01  0.85350694703E-01 -0.96314176705E-01  0.13396506059E+00  0.20702766978E-01 0.  0.
         14    1    1    2    0    0  0.10539729178E-01 -0.15719475996E-01  0.13202900589E-01  0.23076056870E-01  0.00000000000E+00 0.  1.
     999901    1    3    3    0    0  0.20393605235E-01 -0.69631218708E-01  0.83111276116E-01  0.88688888254E+00  0.88000000000E+00 0. -1.
        -11    1    4    4    0    0 -0.36997228310E-02  0.35656721593E-01 -0.44814331953E-01  0.57390549859E-01  0.51100000000E-03 0.  1.
         11    1    4    4    0    0 -0.27233611582E-01  0.49693973110E-01 -0.51499844752E-01  0.76574510732E-01  0.51100000000E-03 0. -1.
</event>
<event>
 8    1  0.5489035E+004  0.1043930E+01  0.7957747E-01            NaN
         13   -1    0    0    0    0  0.00000000000E+00  0.00000000000E+00  0.74505805969E-08  0.10566000000E+00  0.10566000000E+00 0.  1.
     999900   -1    0    0    0    0 -0.00000000000E+00 -0.00000000000E+00 -0.74505805969E-08  0.93827000000E+00  0.93827000000E+00 0. -1.
     999902    2    1    2    0    0 -0.62223234957E-02  0.18534801036E-01 -0.12627224333E-01  0.10206554870E+01  0.10203900824E+01 0.  0.
     999903    2    3    3    0    0 -0.93146224185E-01 -0.20860518891E-01 -0.89174005260E-01  0.13219211390E+00  0.20282293629E-01 0.  0.
         14    1    1    2    0    0  0.62223234957E-02 -0.18534801036E-01  0.12627224333E-01  0.23274512959E-01  0.00000000000E+00 0.  1.
     999901    1    3    3    0    0  0.86923900689E-01  0.39395319927E-01  0.76546780927E-01  0.88846337314E+00  0.88000000000E+00 0. -1.
        -11    1    4    4    0    0 -0.45948006799E-01 -0.24704057851E-02 -0.33489573472E-01  0.56913398123E-01  0.51100000000E-03 0.  1.
         11    1    4    4    0    0 -0.47198217385E-01 -0.18390113106E-01 -0.55684431788E-01  0.75278715776E-01  0.51100000000E-03 0. -1.
</event>
<event>
 8    1  0.5489035E+004  0.1043930E+01  0.7957747E-01            NaN
         13   -1    0    0    0    0  0.00000000000E+00  0.00000000000E+00  0.74505805969E-08  0.10566000000E+00  0.10566000000E+00 0.  1.
     999900   -1    0    0    0    0 -0.00000000000E+00 -0.00000000000E+00 -0.74505805969E-08  0.93827000000E+00  0.93827000000E+00 0.  1.
     999902    2    1    2    0    0 -0.22803199362E-01  0.30147141212E-02  0.63540313151E-02  0.10200668880E+01  0.10197877268E+01 0.  0.
     999903    2    3    3    0    0 -0.49142977498E-01  0.15407614013E-01  0.12019437730E+00  0.13225666485E+00  0.19816918422E-01 0.  0.
         14    1    1    2    0    0  0.22803199362E-01 -0.30147141212E-02 -0.63540313151E-02  0.23863112042E-01  0.00000000000E+00 0.  1.
     999901    1    3    3    0    0  0.26339778136E-01 -0.12392899892E-01 -0.11384034599E+00  0.88781022311E+00  0.88000000000E+00 0.  1.
        -11    1    4    4    0    0 -0.41667721480E-01  0.18743051774E-01  0.11039983028E+00  0.11948173355E+00  0.51100000000E-03 0.  1.
         11    1    4    4    0    0 -0.74752560183E-02 -0.33354377617E-02  0.97945470164E-02  0.12774931305E-01  0.51100000000E-03 0. -1.
</event>
<event>
 8    1  0.5489035E+004  0.1043930E+01  0.7957747E-01            NaN
         13   -1    0    0    0    0  0.00000000000E+00  0.00000000000E+00  0.74505805969E-08  0.10566000000E+00  0.10566000000E+00 0. -1.
     999900   -1    0    0    0    0 -0.00000000000E+00 -0.00000000000E+00 -0.74505805969E-08  0.93827000000E+00  0.93827000000E+00 0.  1.
     999902    2    1    2    0    0  0.26043861689E-01 -0.34382389389E-02  0.44545652155E-02  0.10172851624E+01  0.10169361604E+01 0.  0.
     999903    2    3    3    0    0  0.32793468747E-01  0.12102451138E+00  0.20014619547E-01  0.12836522862E+00  0.18833559814E-01 0.  0.
         14    1    1    2    0    0 -0.26043861689E-01  0.34382389389E-02 -0.44545652155E-02  0.26644837585E-01  0.00000000000E+00 0.  1.
     999901    1    3    3    0    0 -0.67496070582E-02 -0.12446275032E+00 -0.15560054332E-01  0.88891993380E+00  0.88000000000E+00 0.  1.
        -11    1    4    4    0    0  0.34290807426E-01  0.10509496041E+00  0.20076478542E-01  0.11235718174E+00  0.51100000000E-03 0. -1.
         11    1    4    4    0    0 -0.14973386782E-02  0.15929550974E-01 -0.61858994364E-04  0.16008046879E-01  0.51100000000E-03 0.  1.
</event>
<event>
 8    1  0.5489035E+004  0.1043930E+01  0.7957747E-01            NaN
         13   -1    0    0    0    0  0.00000000000E+00  0.00000000000E+00  0.74505805969E-08  0.10566000000E+00  0.10566000000E+00 0. -1.
     999900   -1    0    0    0    0 -0.00000000000E+00 -0.00000000000E+00 -0.74505805969E-08  0.93827000000E+00  0.93827000000E+00 0. -1.
     999902    2    1    2    0    0 -0.39100003187E-02 -0.99356236257E-02  0.15401525723E-01  0.10251893566E+01  0.10250180512E+01 0.  0.
     999903    2    3    3    0    0 -0.73393532482E-01  0.96958404811E-01 -0.51262625529E-01  0.13350645132E+00  0.20213186154E-01 0.  0.
         14    1    1    2    0    0  0.39100003187E-02  0.99356236257E-02 -0.15401525723E-01  0.18740643370E-01  0.00000000000E+00 0.  1.
     999901    1    3    3    0    0  0.69483532163E-01 -0.10689402844E+00  0.66664151252E-01  0.89168290531E+00  0.88000000000E+00 0.  1.
        -11    1    4    4    0    0 -0.11725477493E-01  0.28212174698E-01 -0.83937234070E-02  0.31687999894E-01  0.51100000000E-03 0.  1.
         11    1    4    4    0    0 -0.61668054990E-01  0.68746230113E-01 -0.42868902122E-01  0.10181845143E+00  0.51100000000E-03 0. -1.
</event>
<event>
 8    1  0.5489035E+004  0.1043930E+01  0.7957747E-01            NaN
         13   -1    0    0    0    0  0.00000000000E+00  0.00000000000E+00  0.74505805969E-08  0.10566000000E+00  0.10566000000E+00 0.  1.
     999900   -1    0    0    0    0 -0.00000000000E+00 -0.00000000000E+00 -0.74505805969E-08  0.93827000000E+00  0.93827000000E+00 0. -1.
     999902    2    1    2    0    0  0.88237489612E-02  0.20368758926E-01  0.11203989721E-01  0.10190648784E+01  0.10187614795E+01 0.  0.
     999903    2    3    3    0    0  0.73757499787E-01  0.36895122700E-01 -0.98181984017E-01  0.12976470190E+00  0.19943846652E-01 0.  0.
         14    1    1    2    0    0 -0.88237489612E-02 -0.20368758926E-01 -0.11203989721E-01  0.24865121588E-01  0.00000000000E+00 0. -1.
     999901    1    3    3    0    0 -0.64933750826E-01 -0.16526363774E-01  0.10938597374E+00  0.88930017651E+00  0.88000000000E+00 0.  1.
        -11    1    4    4    0    0  0.57187892585E-01  0.32041245677E-01 -0.64786525476E-01  0.92166433625E-01  0.51100000000E-03 0. -1.
         11    1    4    4    0    0  0.16569607202E-01  0.48538770229E-02 -0.33395458541E-01  0.37598268274E-01  0.51100000000E-03 0.  1.
</event>
<event>
 8    1  0.5489035E+004  0.1043930E+01  0.7957747E-01            NaN
         13   -1    0    0    0    0  0.00000000000E+00  0.00000000000E+00  0.74505805969E-08  0.10566000000E+00  0.10566000000E+00 0.  1.
     999900   -1    0    0    0    0 -0.00000000000E+00 -0.00000000000E+00 -0.74505805969E-08  0.93827000000E+00  0.93827000000E+00 0. -1.
     999902    2    1    2    0    0  0.18364430838E-01 -0.46227347056E-02 -0.14841761081E-01  0.10198696619E+01  0.10195858117E+01 0.  0.
     999903    2    3    3    0    0 -0.96747360777E-02  0.12687508901E+00 -0.97794045406E-02  0.12964300541E+00  0.22820678558E-01 0.  0.
         14    1    1    2    0    0 -0.18364430838E-01  0.46227347056E-02  0.14841761081E-01  0.24060338072E-01  0.00000000000E+00 0.  1.
     999901    1    3    3    0    0  0.28039166916E-01 -0.13149782371E+00 -0.50623565401E-02  0.89022665652E+00  0.88000000000E+00 0.  1.
        -11    1    4    4    0    0  0.23594579981E-02  0.23362255088E-01  0.60073562174E-02  0.24242760869E-01  0.51100000000E-03 0. -1.
         11    1    4    4    0    0 -0.12034194076E-01  0.10351283392E+00 -0.15786760758E-01  0.10540024454E+00  0.51100000000E-03 0.  1.
</event>
<event>
 8    1  0.5489035E+004  0.1043930E+01  0.7957747E-01            NaN
         13   -1    0    0    0    0  0.00000000000E+00  0.00000000000E+00  0.74505805969E-08  0.10566000000E+00  0.10566000000E+00 0. -1.
     999900   -1    0    0    0    0 -0.00000000000E+00 -0.00000000000E+00 -0.74505805969E-08  0.93827000000E+00  0.93827000000E+00 0. -1.
     999902    2    1    2    0    0  0.47252402453E-03  0.77721354908E-02  0.23259552799E-01  0.10194017272E+01  0.10191065917E+01 0.  0.
     999903    2    3    3    0    0  0.58378783942E-01  0.10463279984E+00 -0.45352666104E-01  0.12954625591E+00  0.19216214031E-01 0.  0.
         14    1    1    2    0    0 -0.47252402453E-03 -0.77721354908E-02 -0.23259552799E-01  0.24528272778E-01  0.00000000000E+00 0.  1.
     999901    1    3    3    0    0 -0.57906259918E-01 -0.96860664348E-01  0.68612218903E-01  0.88985547131E+00  0.88000000000E+00 0. -1.
        -11    1    4    4    0    0  0.48705688135E-01  0.92788185092E-01 -0.32962148659E-01  0.10985743359E+00  0.51100000000E-03 0.  1.
         11    1    4    4    0    0  0.96730958067E-02  0.11844614747E-01 -0.12390517445E-01  0.19688822325E-01  0.51100000000E-03 0. -1.
</event>
<event>
 8    1  0.5489035E+004  0.1043930E+01  0.7957747E-01            NaN
         13   -1    0    0    0    0  0.00000000000E+00  0.00000000000E+00  0.74505805969E-08  0.10566000000E+00  0.10566000000E+00 0. -1.
     999900   -1    0    0    0    0 -0.00000000000E+00 -0.00000000000E+00 -0.74505805969E-08  0.93827000000E+00  0.93827000000E+00 0. -1.
     999902    2    1    2    0    0 -0.19347451295E-01 -0.82582706802E-02  0.10348153123E-01  0.10204862977E+01  0.10202169752E+01 0.  0.
     999903    2    3    3    0    0 -0.99655214766E-01  0.60135394472E-01  0.61144996838E-01  0.13273219340E+00  0.18212551371E-01 0.  0.
         14    1    1    2    0    0  0.19347451295E-01  0.82582706802E-02 -0.10348153123E-01  0.23443702338E-01  0.00000000000E+00 0. -1.
     999901    1    3    3    0    0  0.80307763471E-01 -0.68393665153E-01 -0.50796843715E-01  0.88775410426E+00  0.88000000000E+00 0. -1.
        -11    1    4    4    0    0 -0.40685656449E-01  0.34458756082E-01  0.31278973824E-01  0.61817180750E-01  0.51100000000E-03 0. -1.
         11    1    4    4    0    0 -0.58969558318E-01  0.25676638390E-01  0.29866023014E-01  0.70915012648E-01  0.51100000000E-03 0.  1.
</event>
<event>
 8    1  0.5489035E+004  0.1043930E+01  0.7957747E-01            NaN
         13   -1    0    0    0    0  0.00000000000E+00  0.00000000000E+00  0.74505805969E-08  0.10566000000E+00  0.10566000000E+00 0.  1.
     999900   -1    0    0    0    0 -0.00000000000E+00 -0.00000000000E+00 -0.74505805969E-08  0.93827000000E+00  0.93827000000E+00 0. -1.
     999902    2    1    2    0    0 -0.21817097806E-01  0.43203947065E-02  0.66761432201E-02  0.10207088360E+01  0.10204446607E+01 0.  0.
     999903    2    3    3    0    0 -0.80122435046E-02  0.63697486591E-01 -0.11198137807E+00  0.13065500599E+00  0.20232046631E-01 0.  0.
         14    1    1    2    0    0  0.21817097806E-01 -0.43203947065E-02 -0.66761432201E-02  0.23221163954E-01  0.00000000000E+00 0. -1.
     999901    1    3    3    0    0 -0.13804854301E-01 -0.59377091884E-01  0.11865752129E+00  0.89005383006E+00  0.88000000000E+00 0.  1.
        -11    1    4    4    0    0 -0.68674997952E-02  0.25786465607E-01 -0.65040400944E-01  0.70303764038E-01  0.51100000000E-03 0. -1.
         11    1    4    4    0    0 -0.11447437094E-02  0.37911020984E-01 -0.46940977127E-01  0.60351241950E-01  0.51100000000E-03 0.  1.
</event>
<event>
 8    1  0.5489035E+004  0.1043930E+01  0.7957747E-01            NaN
         13   -1    0    0    0    0  0.00000000000E+00  0.00000000000E+00  0.74505805969E-08  0.10566000000E+00  0.10566000000E+00 0.  1.
     999900   -1    0    0    0    0 -0.00000000000E+00 -0.00000000000E+00 -0.74505805969E-08  0.93827000000E+00  0.93827000000E+00 0.  1.
     999902    2    1    2    0    0  0.10300574291E-02 -0.38682451507E-02 -0.22620088716E-01  0.10209584360E+01  0.10206999732E+01 0.  0.
     999903    2    3    3    0    0 -0.18527789550E-01  0.10975898544E+00 -0.68457246704E-01  0.13225449095E+00  0.20360301548E-01 0.  0.
         14    1    1    2    0    0 -0.10300574291E-02  0.38682451507E-02  0.22620088716E-01  0.22971563995E-01  0.00000000000E+00 0.  1.
     999901    1    3    3    0    0  0.19557846979E-01 -0.11362723059E+00  0.45837157987E-01  0.88870394506E+00  0.88000000000E+00 0.  1.
        -11    1    4    4    0    0 -0.63919766823E-02  0.32082470241E-01 -0.97672192496E-02  0.34143842132E-01  0.51100000000E-03 0. -1.
         11    1    4    4    0    0 -0.12135812868E-01  0.77676515197E-01 -0.58690027454E-01  0.98110648814E-01  0.51100000000E-03 0.  1.
</event>
<event>
 8    1  0.5489035E+004  0.1043930E+01  0.7957747E-01            NaN
         13   -1    0    0    0    0  0.00000000000E+00  0.00000000000E+00  0.74505805969E-08  0.10566000000E+00  0.10566000000E+00 0. -1.
     999900   -1    0    0    0    0 -0.00000000000E+00 -0.00000000000E+00 -0.74505805969E-08  0.93827000000E+00  0.93827000000E+00 0.  1.
     999902    2    1    2    0    0  0.43547691350E-02  0.21098826304E-01 -0.95605267202E-02  0.10203603552E+01  0.10200880973E+01 0.  0.
     999903    2    3    3    0    0 -0.11384881535E+00  0.40450870792E-01  0.45129275587E-01  0.13056399450E+00  0.20309589887E-01 0.  0.
         14    1    1    2    0    0 -0.43547691350E-02 -0.21098826304E-01  0.95605267202E-02  0.23569644817E-01  0.00000000000E+00 0.  1.
     999901    1    3    3    0    0  0.11820358448E+00 -0.19352044488E-01 -0.54689802307E-01  0.88979636068E+00  0.88000000000E+00 0.  1.
        -11    1    4    4    0    0 -0.89975389671E-01  0.22797279109E-01  0.34015239887E-01  0.98856382428E-01  0.51100000000E-03 0.  1.
         11    1    4    4    0    0 -0.23873425674E-01  0.17653591683E-01  0.11114035699E-01  0.31707612071E-01  0.51100000000E-03 0. -1.
</event>
<event>
 8    1  0.5489035E+004  0.1043930E+01  0.7957747E-01            NaN
         13   -1    0    0    0    0  0.00000000000E+00  0.00000000000E+00  0.74505805969E-08  0.10566000000E+00  0.10566000000E+00 0.  1.
     999900   -1    0    0    0    0 -0.00000000000E+00 -0.00000000000E+00 -0.74505805969E-08  0.93827000000E+00  0.93827000000E+00 0. -1.
     999902    2    1    2    0    0 -0.14896558909E-01 -0.19066534679E-01 -0.54405602275E-02  0.10191300019E+01  0.10188282097E+01 0.  0.
     999903    2    3    3    0    0 -0.42397219255E-01 -0.11679936963E+00  0.40163139597E-01  0.13211946597E+00  0.20071336787E-01 0.  0.
         14    1    1    2    0    0  0.14896558909E-01  0.19066534679E-01  0.54405602275E-02  0.24799998137E-01  0.00000000000E+00 0.  1.
     999901    1    3    3    0    0  0.27500660346E-01  0.97732834947E-01 -0.45603699824E-01  0.88701053589E+00  0.88000000000E+00 0. -1.
        -11    1    4    4    0    0 -0.66261708683E-02 -0.14138663565E-01  0.12317750139E-01  0.19894623325E-01  0.51100000000E-03 0. -1.
         11    1    4    4    0    0 -0.35771048387E-01 -0.10266070606E+00  0.27845389458E-01  0.11222484265E+00  0.51100000000E-03 0.  1.
</event>
<event>
 8    1  0.5489035E+004  0.1043930E+01  0.7957747E-01            NaN
         13   -1    0    0    0    0  0.00000000000E+00  0.00000000000E+00  0.74505805969E-08  0.10566000000E+00  0.10566000000E+00 0. -1.
     999900   -1    0    0    0    0 -0.00000000000E+00 -0.00000000000E+00 -0.74505805969E-08  0.93827000000E+00  0.93827000000E+00 0. -1.
     999902    2    1    2    0    0 -0.49495840659E-02 -0.53121332990E-04  0.27681490630E-01  0.10158094359E+01  0.10154201317E+01 0.  0.
     999903    2    3    3    0    0 -0.33306795712E-01 -0.94735069573E-01 -0.71254106534E-01  0.12476675721E+00  0.20137526166E-01 0.  0.
         14    1    1    2    0    0  0.49495840659E-02  0.53121332990E-04 -0.27681490630E-01  0.28120564144E-01  0.00000000000E+00 0.  1.
     999901    1    3    3    0    0  0.28357211646E-01  0.94681948240E-01  0.98935597164E-01  0.89104267864E+00  0.88000000000E+00 0.  1.
        -11    1    4    4    0    0 -0.20865353983E-01 -0.44445752770E-01 -0.45362906318E-01  0.66849400348E-01  0.51100000000E-03 0. -1.
         11    1    4    4    0    0 -0.12441441729E-01 -0.50289316803E-01 -0.25891200215E-01  0.57917356866E-01  0.51100000000E-03 0.  1.
</event>
<event>
 8    1  0.5489035E+004  0.1043930E+01  0.7957747E-01            NaN
         13   -1    0    0    0    0  0.00000000000E+00  0.00000000000E+00  0.74505805969E-08  0.10566000000E+00  0.10566000000E+00 0.  1.
     999900   -1    0    0    0    0 -0.00000000000E+00 -0.00000000000E+00 -0.74505805969E-08  0.93827000000E+00  0.93827000000E+00 0. -1.
     999902    2    1    2    0    0  0.11471945897E-01 -0.59327497708E-02 -0.20330089864E-01  0.10198444106E+01  0.10195599572E+01 0.  0.
     999903    2    3    3    0    0  0.17077424604E-01 -0.77441838162E-01 -0.10454308958E+00  0.13291893435E+00  0.21196905464E-01 0.  0.
         14    1    1    2    0    0 -0.11471945897E-01  0.59327497708E-02  0.20330089864E-01  0.24085589392E-01  0.00000000000E+00 0. -1.
     999901    1    3    3    0    0 -0.56054787063E-02  0.71509088391E-01  0.84212999714E-01  0.88692547626E+00  0.88000000000E+00 0.  1.
        -11    1    4    4    0    0  0.96081837347E-02 -0.15505727066E-01 -0.35150820902E-01  0.39605379655E-01  0.51100000000E-03 0.  1.
         11    1    4    4    0    0  0.74692408688E-02 -0.61936111096E-01 -0.69392268675E-01  0.93313554695E-01  0.51100000000E-03 0. -1.
</event>
<event>
 8    1  0.5489035E+004  0.1043930E+01  0.7957747E-01            NaN
         13   -1    0    0    0    0  0.00000000000E+00  0.00000000000E+00  0.74505805969E-08  0.10566000000E+00  0.10566000000E+00 0. -1.
     999900   -1    0    0    0    0 -0.00000000000E+00 -0.00000000000E+00 -0.74505805969E-08  0.93827000000E+00  0.93827000000E+00 0. -1.
     999902    2    1    2    0    0  0.59378906224E-02 -0.20586588296E-01 -0.14396502315E-01  0.10181167197E+01  0.10177894328E+01 0.  0.
     999903    2    3    3    0    0 -0.58945799207E-01 -0.11380588743E+00 -0.16847733461E-01  0.13081421236E+00  0.20053049033E-01 0.  0.
         14    1    1    2    0    0 -0.59378906224E-02  0.20586588296E-01  0.14396502315E-01  0.25813280334E-01  0.00000000000E+00 0. -1.
     999901    1    3    3    0    0  0.64883689830E-01  0.93219299131E-01  0.24512311463E-02  0.88730250731E+00  0.88000000000E+00 0. -1.
        -11    1    4    4    0    0 -0.36888449978E-01 -0.74949580421E-01 -0.20393465470E-01  0.85990417500E-01  0.51100000000E-03 0.  1.
         11    1    4    4    0    0 -0.22057349230E-01 -0.38856307006E-01  0.35457320086E-02  0.44823794860E-01  0.51100000000E-03 0. -1.
</event>
<event>
 8    1  0.5489035E+004  0.1043930E+01  0.7957747E-01            NaN
         13   -1    0    0    0    0  0.00000000000E+00  0.00000000000E+00  0.74505805969E-08  0.10566000000E+00  0.10566000000E+00 0. -1.
     999900   -1    0    0    0    0 -0.00000000000E+00 -0.00000000000E+00 -0.74505805969E-08  0.93827000000E+00  0.93827000000E+00 0.  1.
     999902    2    1    2    0    0  0.21533163076E-01  0.72204546520E-02  0.47146974588E-02  0.10207343011E+01  0.10204707114E+01 0.  0.
     999903    2    3    3    0    0 -0.58015585019E-01 -0.96583152962E-01 -0.59061671310E-01  0.12878664705E+00  0.20089945205E-01 0.  0.
         14    1    1    2    0    0 -0.21533163076E-01 -0.72204546520E-02 -0.47146974588E-02  0.23195698946E-01  0.00000000000E+00 0.  1.
     999901    1    3    3    0    0  0.79548748095E-01  0.10380360761E+00  0.63776368769E-01  0.89194765401E+00  0.88000000000E+00 0. -1.
        -11    1    4    4    0    0 -0.20457532856E-01 -0.17852091937E-01 -0.15762485390E-01  0.31399441138E-01  0.51100000000E-03 0. -1.
         11    1    4    4    0    0 -0.37558052162E-01 -0.78731061025E-01 -0.43299185921E-01  0.97387205909E-01  0.51100000000E-03 0.  1.
</event>
<event>
 8    1  0.5489035E+004  0.1043930E+01  0.7957747E-01            NaN
         13   -1    0    0    0    0  0.00000000000E+00  0.00000000000E+00  0.74505805969E-08  0.10566000000E+00  0.10566000000E+00 0. -1.
     999900   -1    0    0    0    0 -0.00000000000E+00 -0.00000000000E+00 -0.74505805969E-08  0.93827000000E+00  0.93827000000E+00 0. -1.
     999902    2    1    2    0    0  0.13599662353E-01  0.19304662326E-01  0.78474208161E-03  0.10203029684E+01  0.10200293675E+01 0.  0.
     999903    2    3    3    0    0  0.80622431823E-01 -0.58501579491E-01  0.82193285746E-01  0.13059896485E+00  0.19440732555E-01 0.  0.
         14    1    1    2    0    0 -0.13599662353E-01 -0.19304662326E-01 -0.78474208161E-03  0.23627031632E-01  0.00000000000E+00 0. -1.
     999901    1    3    3    0    0 -0.67022769470E-01  0.77806241816E-01 -0.81408543665E-01  0.88970400352E+00  0.88000000000E+00 0. -1.
        -11    1    4    4    0    0  0.42351081318E-01 -0.39104453714E-01  0.38256387405E-01  0.69185147881E-01  0.51100000000E-03 0. -1.
         11    1    4    4    0    0  0.38271350506E-01 -0.19397125777E-01  0.43936898341E-01  0.61413816969E-01  0.51100000000E-03 0.  1.
</event>
<event>
 8    1  0.5489035E+004  0.1043930E+01  0.7957747E-01            NaN
         13   -1    0    0    0    0  0.00000000000E+00  0.00000000000E+00  0.74505805969E-08  0.10566000000E+00  0.10566000000E+00 0.  1.
     999900   -1    0    0    0    0 -0.00000000000E+00 -0.00000000000E+00 -0.74505805969E-08  0.93827000000E+00  0.93827000000E+00 0. -1.
     999902    2    1    2    0    0  0.17872708672E-01  0.14937519363E-01 -0.61613837734E-02  0.10198358959E+01  0.10195512389E+01 0.  0.
     999903    2    3    3    0    0  0.68141431957E-01  0.29687402004E-01 -0.10775503532E+00  0.13244321308E+00  0.20136048952E-01 0.  0.
         14    1    1    2    0    0 -0.17872708672E-01 -0.14937519363E-01  0.61613837734E-02  0.24094104050E-01  0.00000000000E+00 0. -1.
     999901    1    3    3    0    0 -0.50268723285E-01 -0.14749882642E-01  0.10159365154E+00  0.88739268287E+00  0.88000000000E+00 0.  1.
        -11    1    4    4    0    0  0.57026436679E-01  0.22144651207E-01 -0.73401517751E-01  0.95553356751E-01  0.51100000000E-03 0.  1.
         11    1    4    4    0    0  0.11114995278E-01  0.75427507973E-02 -0.34353517567E-01  0.36889856328E-01  0.51100000000E-03 0. -1.
</event>
<event>
 8    1  0.5489035E+004  0.1043930E+01  0.7957747E-01            NaN
         13   -1    0    0    0    0  0.00000000000E+00  0.00000000000E+00  0.74505805969E-08  0.10566000000E+00  0.10566000000E+00 0. -1.
     999900   -1    0    0    0    0 -0.00000000000E+00 -0.00000000000E+00 -0.74505805969E-08  0.93827000000E+00  0.93827000000E+00 0. -1.
     999902    2    1    2    0    0 -0.74572369760E-03  0.17400067204E-01  0.15536209421E-01  0.10205913572E+01  0.10203244711E+01 0.  0.
     999903    2    3    3    0    0 -0.61484472253E-01  0.10475109068E+00  0.51596415320E-01  0.13345002954E+00  0.19839077138E-01 0.  0.
         14    1    1    2    0    0  0.74572369760E-03 -0.17400067204E-01 -0.15536209421E-01  0.23338642756E-01  0.00000000000E+00 0.  1.
     999901    1    3    3    0    0  0.60738748555E-01 -0.87351023479E-01 -0.36060205899E-01  0.88714132771E+00  0.88000000000E+00 0. -1.
        -11    1    4    4    0    0 -0.59173386461E-02  0.24419685389E-01  0.71091992861E-02  0.26117767260E-01  0.51100000000E-03 0. -1.
         11    1    4    4    0    0 -0.55567133607E-01  0.80331405294E-01  0.44487216033E-01  0.10733226228E+00  0.51100000000E-03 0.  1.
</event>
<event>
 8    1  0.5489035E+004  0.1043930E+01  0.7957747E-01            NaN
         13   -1    0    0    0    0  0.00000000000E+00  0.00000000000E+00  0.74505805969E-08  0.10566000000E+00  0.10566000000E+00 0. -1.
     999900   -1    0    0    0    0 -0.00000000000E+00 -0.00000000000E+00 -0.74505805969E-08  0.93827000000E+00  0.93827000000E+00 0.  1.
     999902    2    1    2    0    0 -0.13536355867E-01  0.16735867332E-01 -0.86281675488E-02  0.10207401863E+01  0.10204767319E+01 0.  0.
     999903    2    3    3    0    0 -0.47653364191E-01 -0.11712809651E+00  0.20591185706E-01  0.12948416151E+00  0.18770110349E-01 0.  0.
         14    1    1    2    0    0  0.13536355867E-01 -0.16735867332E-01  0.86281675488E-02  0.23189813729E-01  0.00000000000E+00 0. -1.
     999901    1    3    3    0    0  0.34117008324E-01  0.13386396384E+00 -0.29219353254E-01  0.89125602476E+00  0.88000000000E+00 0.  1.
        -11    1    4    4    0    0 -0.29819200654E-01 -0.79830240989E-01  0.22350033851E-01  0.88101289651E-01  0.51100000000E-03 0.  1.
         11    1    4    4    0    0 -0.17834163537E-01 -0.37297855518E-01 -0.17588481460E-02  0.41382871857E-01  0.51100000000E-03 0. -1.
</event>
<event>
 8    1  0.5489035E+004  0.1043930E+01  0.7957747E-01            NaN
         13   -1    0    0    0    0  0.00000000000E+00  0.00000000000E+00  0.74505805969E-08  0.10566000000E+00  0.10566000000E+00 0.  1.
     999900   -1    0    0    0    0 -0.00000000000E+00 -0.00000000000E+00 -0.74505805969E-08  0.93827000000E+00  0.93827000000E+00 0.  1.
     999902    2    1    2    0    0 -0.13119397166E-01 -0.27967321330E-02 -0.19050468433E-01  0.10206306300E+01  0.10203646517E+01 0.  0.
     999903    2    3    3    0    0  0.62354111806E-01  0.10933027034E+00  0.22137153448E-01  0.12935899051E+00  0.20063688374E-01 0.  0.
         14    1    1    2    0    0  0.13119397166E-01  0.27967321330E-02  0.19050468433E-01  0.23299369952E-01  0.00000000000E+00 0.  1.
     999901    1    3    3    0    0 -0.75473508973E-01 -0.11212700248E+00 -0.41187621881E-01  0.89127163953E+00  0.88000000000E+00 0. -1.
        -11    1    4    4    0    0  0.59483084484E-01  0.96176234479E-01  0.24423394364E-01  0.11569299344E+00  0.51100000000E-03 0.  1.
         11    1    4    4    0    0  0.28710273218E-02  0.13154035866E-01 -0.22862409159E-02  0.13665997072E-01  0.51100000000E-03 0. -1.
</event>
<event>
 8    1  0.5489035E+004  0.1043930E+01  0.7957747E-01            NaN
         13   -1    0    0    0    0  0.00000000000E+00  0.00000000000E+00  0.74505805969E-08  0.10566000000E+00  0.10566000000E+00 0. -1.
     999900   -1    0    0    0    0 -0.00000000000E+00 -0.00000000000E+00 -0.74505805969E-08  0.93827000000E+00  0.93827000000E+00 0. -1.
     999902    2    1    2    0    0 -0.14106592218E-01  0.12733781168E-01  0.11274011590E-01  0.10218336550E+01  0.10215947190E+01 0.  0.
     999903    2    3    3    0    0  0.21461520252E-01  0.49561156027E-01  0.12039239094E+00  0.13361737112E+00  0.21032570718E-01 0.  0.
         14    1    1    2    0    0  0.14106592218E-01 -0.12733781168E-01 -0.11274011590E-01  0.22096345041E-01  0.00000000000E+00 0.  1.
     999901    1    3    3    0    0 -0.35568112470E-01 -0.36827374859E-01 -0.10911837935E+00  0.88821628384E+00  0.88000000000E+00 0. -1.
        -11    1    4    4    0    0  0.18951596292E-01  0.33117336753E-01  0.10152175973E+00  0.10845667252E+00  0.51100000000E-03 0. -1.
         11    1    4    4    0    0  0.25099239598E-02  0.16443819274E-01  0.18870631212E-01  0.25160698598E-01  0.51100000000E-03 0.  1.
</event>
<event>
 8    1  0.5489035E+004  0.1043930E+01  0.7957747E-01            NaN
         13   -1    0    0    0    0  0.00000000000E+00  0.00000000000E+00  0.74505805969E-08  0.10566000000E+00  0.10566000000E+00 0.  1.
     999900   -1    0    0    0    0 -0.00000000000E+00 -0.00000000000E+00 -0.74505805969E-08  0.93827000000E+00  0.93827000000E+00 0. -1.
     999902    2    1    2    0    0  0.22748813104E-01 -0.47767805683E-02 -0.51403949771E-03  0.10206794007E+01  0.10204145475E+01 0.  0.
     999903    2    3    3    0    0 -0.49631033524E-01 -0.97470791166E-01  0.68011457052E-01  0.13021504687E+00  0.19146945503E-01 0.  0.
         14    1    1    2    0    0 -0.22748813104E-01  0.47767805683E-02  0.51403949771E-03  0.23250599279E-01  0.00000000000E+00 0.  1.
     999901    1    3    3    0    0  0.72379846628E-01  0.92694010598E-01 -0.68525496550E-01  0.89046435385E+00  0.88000000000E+00 0.  1.
        -11    1    4    4    0    0 -0.13664889643E-01 -0.43361160368E-01  0.21400804170E-01  0.50251119167E-01  0.51100000000E-03 0. -1.
         11    1    4    4    0    0 -0.35966143881E-01 -0.54109630798E-01  0.46610652882E-01  0.79963927704E-01  0.51100000000E-03 0.  1.
</event>
<event>
 8    1  0.5489035E+004  0.1043930E+01  0.7957747E-01            NaN
         13   -1    0    0    0    0  0.00000000000E+00  0.00000000000E+00  0.74505805969E-08  0.10566000000E+00  0.10566000000E+00 0.  1.
     999900   -1    0    0    0    0 -0.00000000000E+00 -0.00000000000E+00 -0.74505805969E-08  0.93827000000E+00  0.93827000000E+00 0. -1.
     999902    2    1    2    0    0 -0.21512330846E-01 -0.14099849257E-01 -0.58422769833E-02  0.10175535270E+01  0.10172116112E+01 0.  0.
     999903    2    3    3    0    0 -0.11267475117E+00  0.32909195722E-01 -0.52022624024E-01  0.13039341651E+00  0.22748075648E-01 0.  0.
         14    1    1    2    0    0  0.21512330846E-01  0.14099849257E-01  0.58422769833E-02  0.26376472999E-01  0.00000000000E+00 0.  1.
     999901    1    3    3    0    0  0.91162420322E-01 -0.47009044979E-01  0.46180347041E-01  0.88716011049E+00  0.88000000000E+00 0.  1.
        -11    1    4    4    0    0 -0.28156599431E-01  0.18668163835E-01 -0.16706271778E-01  0.37691578239E-01  0.51100000000E-03 0.  1.
         11    1    4    4    0    0 -0.84518151737E-01  0.14241031887E-01 -0.35316352246E-01  0.92701838273E-01  0.51100000000E-03 0. -1.
</event>
<event>
 8    1  0.5489035E+004  0.1043930E+01  0.7957747E-01            NaN
         13   -1    0    0    0    0  0.00000000000E+00  0.00000000000E+00  0.74505805969E-08  0.10566000000E+00  0.10566000000E+00 0.  1.
     999900   -1    0    0    0    0 -0.00000000000E+00 -0.00000000000E+00 -0.74505805969E-08  0.93827000000E+00  0.93827000000E+00 0. -1.
     999902    2    1    2    0    0  0.55515579526E-02 -0.15821059034E-01 -0.16924657469E-01  0.10201062779E+01  0.10198280485E+01 0.  0.
     999903    2    3    3    0    0  0.15251804045E-01  0.10555629093E+00 -0.71311593379E-01  0.13005881025E+00  0.21335479667E-01 0.  0.
         14    1    1    2    0    0 -0.55515579526E-02  0.15821059034E-01  0.16924657469E-01  0.23823722109E-01  0.00000000000E+00 0.  1.
     999901    1    3    3    0    0 -0.97002460921E-02 -0.12137734996E+00  0.54386935910E-01  0.89004746764E+00  0.88000000000E+00 0.  1.
        -11    1    4    4    0    0  0.12240632661E-01  0.75256222127E-01 -0.38943467206E-01  0.85616510182E-01  0.51100000000E-03 0.  1.
         11    1    4    4    0    0  0.30111713841E-02  0.30300068799E-01 -0.32368126173E-01  0.44442300067E-01  0.51100000000E-03 0. -1.
</event>
<event>
 8    1  0.5489035E+004  0.1043930E+01  0.7957747E-01            NaN
         13   -1    0    0    0    0  0.00000000000E+00  0.00000000000E+00  0.74505805969E-08  0.10566000000E+00  0.10566000000E+00 0.  1.
     999900   -1    0    0    0    0 -0.00000000000E+00 -0.00000000000E+00 -0.74505805969E-08  0.93827000000E+00  0.93827000000E+00 0. -1.
     999902    2    1    2    0    0  0.10921735383E-01  0.14776752142E-01  0.33269386344E-02  0.10252563494E+01  0.10250862777E+01 0.  0.
     999903    2    3    3    0    0  0.38970833143E-01 -0.55852310233E-02  0.12842844001E+00  0.13573302314E+00  0.19485089790E-01 0.  0.
         14    1    1    2    0    0 -0.10921735383E-01 -0.14776752142E-01 -0.33269386344E-02  0.18673650643E-01  0.00000000000E+00 0.  1.
     999901    1    3    3    0    0 -0.28049097760E-01  0.20361983166E-01 -0.12510150138E+00  0.88952332622E+00  0.88000000000E+00 0. -1.
        -11    1    4    4    0    0  0.39938306238E-01 -0.51469190509E-02  0.12838553662E+00  0.13455358120E+00  0.51100000000E-03 0. -1.
         11    1    4    4    0    0 -0.96747309528E-03 -0.43831197246E-03  0.42903396286E-04  0.11794419344E-02  0.51100000000E-03 0.  1.
</event>
<event>
 8    1  0.5489035E+004  0.1043930E+01  0.7957747E-01            NaN
         13   -1    0    0    0    0  0.00000000000E+00  0.00000000000E+00  0.74505805969E-08  0.10566000000E+00  0.10566000000E+00 0.  1.
     999900   -1    0    0    0    0 -0.00000000000E+00 -0.00000000000E+00 -0.74505805969E-08  0.93827000000E+00  0.93827000000E+00 0. -1.
     999902    2    1    2    0    0  0.82505809610E-02 -0.22032175390E-01 -0.87390049496E-03  0.10203874313E+01  0.10201158059E+01 0.  0.
     999903    2    3    3    0    0  0.11150782155E+00 -0.67134036640E-01 -0.16697444800E-01  0.13306188779E+00  0.22038334244E-01 0.  0.
         14    1    1    2    0    0 -0.82505809610E-02  0.22032175390E-01  0.87390049496E-03  0.23542568693E-01  0.00000000000E+00 0. -1.
     999901    1    3    3    0    0 -0.10325724059E+00  0.45101861250E-01  0.15823544305E-01  0.88732554352E+00  0.88000000000E+00 0. -1.
        -11    1    4    4    0    0  0.82111386264E-01 -0.38300419150E-01 -0.78766605513E-02  0.90947813408E-01  0.51100000000E-03 0.  1.
         11    1    4    4    0    0  0.29396435289E-01 -0.28833617491E-01 -0.88207842487E-02  0.42114074382E-01  0.51100000000E-03 0. -1.
</event>
<event>
 8    1  0.5489035E+004  0.1043930E+01  0.7957747E-01            NaN
         13   -1    0    0    0    0  0.00000000000E+00  0.00000000000E+00  0.74505805969E-08  0.10566000000E+00  0.10566000000E+00 0.  1.
     999900   -1    0    0    0    0 -0.00000000000E+00 -0.00000000000E+00 -0.74505805969E-08  0.93827000000E+00  0.93827000000E+00 0.  1.
     999902    2    1    2    0    0 -0.43321000981E-02 -0.13230131915E-01 -0.18864913207E-01  0.10204845648E+01  0.10202152021E+01 0.  0.
     999903    2    3    3    0    0 -0.72555633107E-01 -0.10876899009E+00 -0.14830602979E-01  0.13267918097E+00  0.16994268999E-01 0.  0.
         14    1    1    2    0    0  0.43321000981E-02  0.13230131915E-01  0.18864913207E-01  0.23445435207E-01  0.00000000000E+00 0.  1.
     999901    1    3    3    0    0  0.68223533009E-01  0.95538858174E-01 -0.40343102281E-02  0.88780538382E+00  0.88000000000E+00 0. -1.
        -11    1    4    4    0    0 -0.21797939971E-01 -0.47076324583E-01 -0.80422629302E-02  0.52500187021E-01  0.51100000000E-03 0.  1.
         11    1    4    4    0    0 -0.50757693136E-01 -0.61692665506E-01 -0.67883400489E-02  0.80178993953E-01  0.51100000000E-03 0. -1.
</event>
<event>
 8    1  0.5489035E+004  0.1043930E+01  0.7957747E-01            NaN
         13   -1    0    0    0    0  0.00000000000E+00  0.00000000000E+00  0.74505805969E-08  0.10566000000E+00  0.10566000000E+00 0.  1.
     999900   -1    0    0    0    0 -0.00000000000E+00 -0.00000000000E+00 -0.74505805969E-08  0.93827000000E+00  0.93827000000E+00 0.  1.
     999902    2    1    2    0    0 -0.67939321981E-02 -0.22328455483E-01 -0.62502502552E-02  0.10197683968E+01  0.10194821235E+01 0.  0.
     999903    2    3    3    0    0  0.12748980262E+00 -0.32960664679E-02 -0.95803564043E-02  0.12937216882E+00  0.19515660650E-01 0.  0.
         14    1    1    2    0    0  0.67939321981E-02  0.22328455483E-01  0.62502502552E-02  0.24161603159E-01  0.00000000000E+00 0. -1.
     999901    1    3    3    0    0 -0.13428373482E+00 -0.19032389015E-01  0.33301061491E-02  0.89039622802E+00  0.88000000000E+00 0.  1.
        -11    1    4    4    0    0  0.32346099876E-01 -0.78520882949E-02 -0.73540453963E-02  0.34092060256E-01  0.51100000000E-03 0. -1.
         11    1    4    4    0    0  0.95143702741E-01  0.45560218270E-02 -0.22263110080E-02  0.95280108564E-01  0.51100000000E-03 0.  1.
</event>
<event>
 8    1  0.5489035E+004  0.1043930E+01  0.7957747E-01            NaN
         13   -1    0    0    0    0  0.00000000000E+00  0.00000000000E+00  0.74505805969E-08  0.10566000000E+00  0.10566000000E+00 0.  1.
     999900   -1    0    0    0    0 -0.00000000000E+00 -0.00000000000E+00 -0.74505805969E-08  0.93827000000E+00  0.93827000000E+00 0.  1.
     999902    2    1    2    0    0  0.36464647546E-02 -0.22566618545E-01  0.69919163197E-02  0.10200252751E+01  0.10197451280E+01 0.  0.
     999903    2    3    3    0    0 -0.37883338661E-01 -0.24354549847E-01 -0.12011730799E+00  0.12992153051E+00  0.20570487679E-01 0.  0.
         14    1    1    2    0    0 -0.36464647546E-02  0.22566618545E-01 -0.69919163197E-02  0.23904724880E-01  0.00000000000E+00 0.  1.
     999901    1    3    3    0    0  0.41529803416E-01  0.17879313024E-02  0.12710922431E+00  0.89010374461E+00  0.88000000000E+00 0. -1.
        -11    1    4    4    0    0 -0.35035346419E-01 -0.27501656443E-01 -0.10191371206E+00  0.11122267050E+00  0.51100000000E-03 0.  1.
         11    1    4    4    0    0 -0.28479922417E-02  0.31471065961E-02 -0.18203595931E-01  0.18698860007E-01  0.51100000000E-03 0. -1.
</event>
<event>
 8    1  0.5489035E+004  0.1043930E+01  0.7957747E-01            NaN
         13   -1    0    0    0    0  0.00000000000E+00  0.00000000000E+00  0.74505805969E-08  0.10566000000E+00  0.10566000000E+00 0.  1.
     999900   -1    0    0    0    0 -0.00000000000E+00 -0.00000000000E+00 -0.74505805969E-08  0.93827000000E+00  0.93827000000E+00 0.  1.
     999902    2    1    2    0    0 -0.17454841775E-01  0.12007770353E-01 -0.15295116144E-01  0.10177995842E+01  0.10174641001E+01 0.  0.
     999903    2    3    3    0    0  0.78170581324E-01 -0.60620267094E-01  0.74054833246E-01  0.12516165830E+00  0.19896376887E-01 0.  0.
         14    1    1    2    0    0  0.17454841775E-01 -0.12007770353E-01  0.15295116144E-01  0.26130415766E-01  0.00000000000E+00 0. -1.
     999901    1    3    3    0    0 -0.95625423099E-01  0.72628037447E-01 -0.89349949390E-01  0.89263792594E+00  0.88000000000E+00 0.  1.
        -11    1    4    4    0    0  0.59317036346E-01 -0.43762956483E-01  0.43882449614E-01  0.85788330595E-01  0.51100000000E-03 0. -1.
         11    1    4    4    0    0  0.18853544978E-01 -0.16857310611E-01  0.30172383632E-01  0.39373327702E-01  0.51100000000E-03 0.  1.
</event>
<event>
 8    1  0.5489035E+004  0.1043930E+01  0.7957747E-01            NaN
         13   -1    0    0    0    0  0.00000000000E+00  0.00000000000E+00  0.74505805969E-08  0.10566000000E+00  0.10566000000E+00 0.  1.
     999900   -1    0    0    0    0 -0.00000000000E+00 -0.00000000000E+00 -0.74505805969E-08  0.93827000000E+00  0.93827000000E+00 0.  1.
     999902    2    1    2    0    0 -0.15025041728E-02 -0.21381087923E-01 -0.10278365197E-01  0.10201591517E+01  0.10198821704E+01 0.  0.
     999903    2    3    3    0    0 -0.12001728240E+00  0.73708542987E-02  0.45145136200E-01  0.13002197608E+00  0.20227539969E-01 0.  0.
         14    1    1    2    0    0  0.15025041728E-02  0.21381087923E-01  0.10278365197E-01  0.23770848337E-01  0.00000000000E+00 0. -1.
     999901    1    3    3    0    0  0.11851477823E+00 -0.28751942222E-01 -0.55423501396E-01  0.89013717558E+00  0.88000000000E+00 0.  1.
        -11    1    4    4    0    0 -0.70517974198E-01  0.77051530892E-02  0.16517046022E-01  0.72836996090E-01  0.51100000000E-03 0.  1.
         11    1    4    4    0    0 -0.49499308207E-01 -0.33429879049E-03  0.28628090177E-01  0.57184979993E-01  0.51100000000E-03 0. -1.
</event>
<event>
 8    1  0.5489035E+004  0.1043930E+01  0.7957747E-01            NaN
         13   -1    0    0    0    0  0.00000000000E+00  0.00000000000E+00  0.74505805969E-08  0.10566000000E+00  0.10566000000E+00 0. -1.
     999900   -1    0    0    0    0 -0.00000000000E+00 -0.00000000000E+00 -0.74505805969E-08  0.93827000000E+00  0.93827000000E+00 0.  1.
     999902    2    1    2    0    0 -0.10028393406E-01  0.20120045369E-01  0.58931521128E-02  0.10206896441E+01  0.10204250269E+01 0.  0.
     999903    2    3    3    0    0  0.45836010485E-01 -0.19764369859E-01  0.11912802765E+00  0.13078305618E+00  0.20521955046E-01 0.  0.
         14    1    1    2    0    0  0.10028393406E-01 -0.20120045369E-01 -0.58931521128E-02  0.23240355888E-01  0.00000000000E+00 0. -1.
     999901    1    3    3    0    0 -0.55864403891E-01  0.39884415228E-01 -0.11323487554E+00  0.88990658793E+00  0.88000000000E+00 0.  1.
        -11    1    4    4    0    0  0.17042311979E-01 -0.11765522500E-01  0.27670981455E-01  0.34566056370E-01  0.51100000000E-03 0.  1.
         11    1    4    4    0    0  0.28793698506E-01 -0.79988473593E-02  0.91457046199E-01  0.96216999814E-01  0.51100000000E-03 0. -1.
</event>
<event>
 8    1  0.5489035E+004  0.1043930E+01  0.7957747E-01            NaN
         13   -1    0    0    0    0  0.00000000000E+00  0.00000000000E+00  0.74505805969E-08  0.10566000000E+00  0.10566000000E+00 0. -1.
     999900   -1    0    0    0    0 -0.00000000000E+00 -0.00000000000E+00 -0.74505805969E-08  0.93827000000E+00  0.93827000000E+00 0. -1.
     999902    2    1    2    0    0  0.17905357713E-01 -0.90359623029E-02 -0.11957975549E-01  0.10205795476E+01  0.10203123881E+01 0.  0.
     999903    2    3    3    0    0  0.10076064569E+00 -0.40835909718E-01 -0.75290343775E-01  0.13385116510E+00  0.20669283745E-01 0.  0.
         14    1    1    2    0    0 -0.17905357713E-01  0.90359623029E-02  0.11957975549E-01  0.23350452432E-01  0.00000000000E+00 0.  1.
     999901    1    3    3    0    0 -0.82855287982E-01  0.31799947415E-01  0.63332368226E-01  0.88672838246E+00  0.88000000000E+00 0. -1.
        -11    1    4    4    0    0  0.54977031530E-01 -0.31769394046E-01 -0.37094876916E-01  0.73539509165E-01  0.51100000000E-03 0. -1.
         11    1    4    4    0    0  0.45783614165E-01 -0.90665156722E-02 -0.38195466859E-01  0.60311655938E-01  0.51100000000E-03 0.  1.
</event>
<event>
 8    1  0.5489035E+004  0.1043930E+01  0.7957747E-01            NaN
         13   -1    0    0    0    0  0.00000000000E+00  0.00000000000E+00  0.74505805969E-08  0.10566000000E+00  0.10566000000E+00 0. -1.
     999900   -1    0    0    0    0 -0.00000000000E+00 -0.00000000000E+00 -0.74505805969E-08  0.93827000000E+00  0.93827000000E+00 0.  1.
     999902    2    1    2    0    0  0.18029450015E-01  0.12476917146E-01 -0.95038781064E-02  0.10200331753E+01  0.10197532155E+01 0.  0.
     999903    2    3    3    0    0  0.77042787855E-01 -0.70195979692E-01 -0.77879785809E-01  0.13155546225E+00  0.19455381921E-01 0.  0.
         14    1    1    2    0    0 -0.18029450015E-01 -0.12476917146E-01  0.95038781064E-02  0.23896824650E-01  0.00000000000E+00 0.  1.
     999901    1    3    3    0    0 -0.59013337840E-01  0.82672896838E-01  0.68375907703E-01  0.88847771310E+00  0.88000000000E+00 0. -1.
        -11    1    4    4    0    0  0.13554242129E-01 -0.23267818392E-01 -0.22829536585E-01  0.35306624224E-01  0.51100000000E-03 0.  1.
         11    1    4    4    0    0  0.63488545726E-01 -0.46928161300E-01 -0.55050249224E-01  0.96248838030E-01  0.51100000000E-03 0. -1.
</event>
<event>
 8    1  0.5489035E+004  0.1043930E+01  0.7957747E-01            NaN
         13   -1    0    0    0    0  0.00000000000E+00  0.00000000000E+00  0.74505805969E-08  0.10566000000E+00  0.10566000000E+00 0.  1.
     999900   -1    0    0    0    0 -0.00000000000E+00 -0.00000000000E+00 -0.74505805969E-08  0.93827000000E+00  0.93827000000E+00 0. -1.
     999902    2    1    2    0    0 -0.14527417664E-01  0.37470797641E-02  0.19547746540E-01  0.10192885539E+01  0.10189906551E+01 0.  0.
     999903    2    3    3    0    0 -0.10069015507E+00  0.72682432016E-01 -0.35278132316E-01  0.13070429955E+00  0.20440744808E-01 0.  0.
         14    1    1    2    0    0  0.14527417664E-01 -0.37470797641E-02 -0.19547746540E-01  0.24641446093E-01  0.00000000000E+00 0. -1.
     999901    1    3    3    0    0  0.86162737405E-01 -0.68935352252E-01  0.54825878857E-01  0.88858425436E+00  0.88000000000E+00 0.  1.
        -11    1    4    4    0    0 -0.57895392101E-01  0.53536596834E-01 -0.19450036607E-01  0.81219509184E-01  0.51100000000E-03 0. -1.
         11    1    4    4    0    0 -0.42794762968E-01  0.19145835182E-01 -0.15828095709E-01  0.49484790361E-01  0.51100000000E-03 0.  1.
</event>
<event>
 8    1  0.5489035E+004  0.1043930E+01  0.7957747E-01            NaN
         13   -1    0    0    0    0  0.00000000000E+00  0.00000000000E+00  0.74505805969E-08  0.10566000000E+00  0.10566000000E+00 0. -1.
     999900   -1    0    0    0    0 -0.00000000000E+00 -0.00000000000E+00 -0.74505805969E-08  0.93827000000E+00  0.93827000000E+00 0. -1.
     999902    2    1    2    0    0  0.99339966212E-02 -0.22169204727E-01 -0.97656105656E-03  0.10196172133E+01  0.10193273027E+01 0.  0.
     999903    2    3    3    0    0 -0.59193686536E-01  0.10600844383E+00 -0.33305245283E-01  0.12706285078E+00  0.17147769440E-01 0.  0.
         14    1    1    2    0    0 -0.99339966212E-02  0.22169204727E-01  0.97656105656E-03  0.24312786731E-01  0.00000000000E+00 0. -1.
     999901    1    3    3    0    0  0.69127683157E-01 -0.12817764856E+00  0.32328684227E-01  0.89255436249E+00  0.88000000000E+00 0. -1.
        -11    1    4    4    0    0 -0.38300206983E-01  0.54916353748E-01 -0.12747710162E-01  0.68157736166E-01  0.51100000000E-03 0. -1.
         11    1    4    4    0    0 -0.20893479553E-01  0.51092090082E-01 -0.20557535122E-01  0.58905114618E-01  0.51100000000E-03 0.  1.
</event>
<event>
 8    1  0.5489035E+004  0.1043930E+01  0.7957747E-01            NaN
         13   -1    0    0    0    0  0.00000000000E+00  0.00000000000E+00  0.74505805969E-08  0.10566000000E+00  0.10566000000E+00 0. -1.
     999900   -1    0    0    0    0 -0.00000000000E+00 -0.00000000000E+00 -0.74505805969E-08  0.93827000000E+00  0.93827000000E+00 0.  1.
     999902    2    1    2    0    0 -0.23485258535E-01  0.19463310916E-05  0.12021657181E-02  0.10204139932E+01  0.10201429875E+01 0.  0.
     999903    2    3    3    0    0  0.10766568363E+00  0.61694953706E-01 -0.25105311760E-01  0.12817037169E+00  0.19980008947E-01 0.  0.
         14    1    1    2    0    0  0.23485258535E-01 -0.19463310916E-05 -0.12021657181E-02  0.23516006776E-01  0.00000000000E+00 0. -1.
     999901    1    3    3    0    0 -0.13115094216E+00 -0.61693007375E-01  0.26307477478E-01  0.89224362153E+00  0.88000000000E+00 0.  1.
        -11    1    4    4    0    0  0.62804993508E-01  0.38883768001E-01 -0.24535070393E-01  0.77837300978E-01  0.51100000000E-03 0.  1.
         11    1    4    4    0    0  0.44860690122E-01  0.22811185705E-01 -0.57024136767E-03  0.50333070716E-01  0.51100000000E-03 0. -1.
</event>
<event>
 8    1  0.5489035E+004  0.1043930E+01  0.7957747E-01            NaN
         13   -1    0    0    0    0  0.00000000000E+00  0.00000000000E+00  0.74505805969E-08  0.10566000000E+00  0.10566000000E+00 0. -1.
     999900   -1    0    0    0    0 -0.00000000000E+00 -0.00000000000E+00 -0.74505805969E-08  0.93827000000E+00  0.93827000000E+00 0.  1.
     999902    2    1    2    0    0  0.17255108505E-01  0.80183931100E-02  0.12862286888E-01  0.10209632453E+01  0.10207048919E+01 0.  0.
     999903    2    3    3    0    0 -0.11516450560E+00 -0.46365284325E-01 -0.26641049681E-01  0.12852106108E+00  0.19882521805E-01 0.  0.
         14    1    1    2    0    0 -0.17255108505E-01 -0.80183931100E-02 -0.12862286888E-01  0.22966754702E-01  0.00000000000E+00 0.  1.
     999901    1    3    3    0    0  0.13241961410E+00  0.54383677435E-01  0.39503336568E-01  0.89244218422E+00  0.88000000000E+00 0. -1.
        -11    1    4    4    0    0 -0.42524470230E-01 -0.23299650372E-01 -0.24325918169E-02  0.48552887656E-01  0.51100000000E-03 0.  1.
         11    1    4    4    0    0 -0.72640035367E-01 -0.23065633953E-01 -0.24208457864E-01  0.79968173425E-01  0.51100000000E-03 0. -1.
</event>
<event>
 8    1  0.5489035E+004  0.1043930E+01  0.7957747E-01            NaN
         13   -1    0    0    0    0  0.00000000000E+00  0.00000000000E+00  0.74505805969E-08  0.10566000000E+00  0.10566000000E+00 0. -1.
     999900   -1    0    0    0    0 -0.00000000000E+00 -0.00000000000E+00 -0.74505805969E-08  0.93827000000E+00  0.93827000000E+00 0.  1.
     999902    2    1    2    0    0  0.37709006630E-02 -0.37008713747E-02  0.27610353572E-01  0.10158186542E+01  0.10154296088E+01 0.  0.
     999903    2    3    3    0    0 -0.95411439901E-01 -0.61872577109E-01 -0.47800792776E-01  0.12514030311E+00  0.21062312570E-01 0.  0.
         14    1    1    2    0    0 -0.37709006630E-02  0.37008713747E-02 -0.27610353572E-01  0.28111345843E-01  0.00000000000E+00 0.  1.
     999901    1    3    3    0    0  0.99182340564E-01  0.58171705734E-01  0.75411146348E-01  0.89067835105E+00  0.88000000000E+00 0. -1.
        -11    1    4    4    0    0 -0.60350354196E-01 -0.45080466816E-01 -0.40688939318E-01  0.85616964696E-01  0.51100000000E-03 0.  1.
         11    1    4    4    0    0 -0.35061085705E-01 -0.16792110293E-01 -0.71118534574E-02  0.39523338415E-01  0.51100000000E-03 0. -1.
</event>
<event>
 8    1  0.5489035E+004  0.1043930E+01  0.7957747E-01            NaN
         13   -1    0    0    0    0  0.00000000000E+00  0.00000000000E+00  0.74505805969E-08  0.10566000000E+00  0.10566000000E+00 0. -1.
     999900   -1    0    0    0    0 -0.00000000000E+00 -0.00000000000E+00 -0.74505805969E-08  0.93827000000E+00  0.93827000000E+00 0. -1.
     999902    2    1    2    0    0 -0.11890786298E-01 -0.14016689869E-01 -0.14184096560E-01  0.10207126145E+01  0.10204485261E+01 0.  0.
     999903    2    3    3    0    0 -0.11073915350E+00  0.67729107508E-01 -0.50813518797E-02  0.13136665537E+00  0.19518859672E-01 0.  0.
         14    1    1    2    0    0  0.11890786298E-01  0.14016689869E-01  0.14184096560E-01  0.23217385487E-01  0.00000000000E+00 0. -1.
     999901    1    3    3    0    0  0.98848367206E-01 -0.81745797376E-01 -0.91027446803E-02  0.88934595915E+00  0.88000000000E+00 0.  1.
        -11    1    4    4    0    0 -0.32173064381E-01  0.11399172615E-01  0.34815823727E-02  0.34313696169E-01  0.51100000000E-03 0.  1.
         11    1    4    4    0    0 -0.78566089122E-01  0.56329934893E-01 -0.85629342524E-02  0.97052959198E-01  0.51100000000E-03 0. -1.
</event>
<event>
 7    1  0.5489035E+004  0.1043930E+01  0.7957747E-01            NaN
         13   -1    0    0    0    0  0.00000000000E+00  0.00000000000E+00  0.74505805969E-08  0.10566000000E+00  0.10566000000E+00 0.  1.
     999900   -1    0    0    0    0 -0.00000000000E+00 -0.00000000000E+00 -0.74505805969E-08  0.93827000000E+00  0.93827000000E+00 0. -1.
     999903    2    1    2    0    0 -0.10419960667E+00  0.35358414165E-01 -0.30393196365E-01  0.11595435879E+00  0.20344322373E-01 0.  0.
         14    1    1    2    0    0  0.16204063180E-02 -0.18434080270E-01 -0.34848428408E-01  0.39456989172E-01  0.00000000000E+00 0.  1.
     999901    1    1    2    0    0  0.10257920036E+00 -0.16924333895E-01  0.65241624774E-01  0.88851865204E+00  0.88000000000E+00 0.  1.
        -11    1    3    3    0    0 -0.94964538053E-01  0.28262633598E-01 -0.21747960699E-01  0.10144099202E+00  0.51100000000E-03 0. -1.
         11    1    3    3    0    0 -0.92350686212E-02  0.70957805663E-02 -0.86452356662E-02  0.14513366770E-01  0.51100000000E-03 0.  1.
</event>
<event>
 8    1  0.5489035E+004  0.1043930E+01  0.7957747E-01            NaN
         13   -1    0    0    0    0  0.00000000000E+00  0.00000000000E+00  0.74505805969E-08  0.10566000000E+00  0.10566000000E+00 0. -1.
     999900   -1    0    0    0    0 -0.00000000000E+00 -0.00000000000E+00 -0.74505805969E-08  0.93827000000E+00  0.93827000000E+00 0.  1.
     999902    2    1    2    0    0 -0.99195118253E-02 -0.18535184775E-01  0.16200517221E-01  0.10173893416E+01  0.10170430993E+01 0.  0.
     999903    2    3    3    0    0  0.11604395686E+00 -0.41763012120E-01 -0.24386394884E-01  0.12719069814E+00  0.19298402313E-01 0.  0.
         14    1    1    2    0    0  0.99195118253E-02  0.18535184775E-01 -0.16200517221E-01  0.26540658389E-01  0.00000000000E+00 0. -1.
     999901    1    3    3    0    0 -0.12596346869E+00  0.23227827344E-01  0.40586912105E-01  0.89019864347E+00  0.88000000000E+00 0. -1.
        -11    1    4    4    0    0  0.52572092733E-01 -0.28958025877E-01 -0.98240497936E-02  0.60820763497E-01  0.51100000000E-03 0. -1.
         11    1    4    4    0    0  0.63471864129E-01 -0.12804986243E-01 -0.14562345090E-01  0.66369934640E-01  0.51100000000E-03 0.  1.
</event>
<event>
 8    1  0.5489035E+004  0.1043930E+01  0.7957747E-01            NaN
         13   -1    0    0    0    0  0.00000000000E+00  0.00000000000E+00  0.74505805969E-08  0.10566000000E+00  0.10566000000E+00 0. -1.
     999900   -1    0    0    0    0 -0.00000000000E+00 -0.00000000000E+00 -0.74505805969E-08  0.93827000000E+00  0.93827000000E+00 0.  1.
     999902    2    1    2    0    0  0.93097718722E-02 -0.17931130730E-01 -0.15405675265E-01  0.10185226756E+01  0.10182057300E+01 0.  0.
     999903    2    3    3    0    0  0.31810224467E-01 -0.73034712991E-02  0.12172193382E+00  0.12755511242E+00  0.19719190060E-01 0.  0.
         14    1    1    2    0    0 -0.93097718722E-02  0.17931130730E-01  0.15405675265E-01  0.25407324376E-01  0.00000000000E+00 0. -1.
     999901    1    3    3    0    0 -0.22500452595E-01 -0.10627659431E-01 -0.13712760909E+00  0.89096756321E+00  0.88000000000E+00 0.  1.
        -11    1    4    4    0    0  0.15777085167E-01 -0.82549464486E-02  0.34106683687E-01  0.38478403688E-01  0.51100000000E-03 0.  1.
         11    1    4    4    0    0  0.16033139300E-01  0.95147514956E-03  0.87615250136E-01  0.89076708730E-01  0.51100000000E-03 0. -1.
</event>
<event>
 8    1  0.5489035E+004  0.1043930E+01  0.7957747E-01            NaN
         13   -1    0    0    0    0  0.00000000000E+00  0.00000000000E+00  0.74505805969E-08  0.10566000000E+00  0.10566000000E+00 0. -1.
     999900   -1    0    0    0    0 -0.00000000000E+00 -0.00000000000E+00 -0.74505805969E-08  0.93827000000E+00  0.93827000000E+00 0. -1.
     999902    2    1    2    0    0  0.81711593333E-02  0.27810835534E-02 -0.23517205954E-01  0.10188788274E+01  0.10185708143E+01 0.  0.
     999903    2    3    3    0    0 -0.11293865397E+00  0.19343492201E-01 -0.57542117374E-01  0.12977838607E+00  0.20050535335E-01 0.  0.
         14    1    1    2    0    0 -0.81711593333E-02 -0.27810835534E-02  0.23517205954E-01  0.25051172556E-01  0.00000000000E+00 0. -1.
     999901    1    3    3    0    0  0.12110981330E+00 -0.16562408648E-01  0.34024911420E-01  0.88910044138E+00  0.88000000000E+00 0. -1.
        -11    1    4    4    0    0 -0.34779196858E-01 -0.31700062343E-02 -0.15414913321E-01  0.38177508396E-01  0.51100000000E-03 0.  1.
         11    1    4    4    0    0 -0.78159457112E-01  0.22513498436E-01 -0.42127204052E-01  0.91600877671E-01  0.51100000000E-03 0. -1.
</event>
<event>
 8    1  0.5489035E+004  0.1043930E+01  0.7957747E-01            NaN
         13   -1    0    0    0    0  0.00000000000E+00  0.00000000000E+00  0.74505805969E-08  0.10566000000E+00  0.10566000000E+00 0.  1.
     999900   -1    0    0    0    0 -0.00000000000E+00 -0.00000000000E+00 -0.74505805969E-08  0.93827000000E+00  0.93827000000E+00 0. -1.
     999902    2    1    2    0    0  0.18323033311E-01  0.13028644316E-01 -0.37781550464E-02  0.10211318953E+01  0.10208773648E+01 0.  0.
     999903    2    3    3    0    0  0.40933707843E-02  0.95096611164E-03  0.12923897032E+00  0.13093983218E+00  0.20612330790E-01 0.  0.
         14    1    1    2    0    0 -0.18323033311E-01 -0.13028644316E-01  0.37781550464E-02  0.22798104701E-01  0.00000000000E+00 0.  1.
     999901    1    3    3    0    0  0.14229662527E-01  0.12077678204E-01 -0.13301712536E+00  0.89019206312E+00  0.88000000000E+00 0. -1.
        -11    1    4    4    0    0 -0.16987636221E-02 -0.90020096633E-02  0.69060984166E-01  0.69667801966E-01  0.51100000000E-03 0. -1.
         11    1    4    4    0    0  0.57921344064E-02  0.99529757750E-02  0.60177986152E-01  0.61272030210E-01  0.51100000000E-03 0.  1.
</event>
<event>
 8    1  0.5489035E+004  0.1043930E+01  0.7957747E-01            NaN
         13   -1    0    0    0    0  0.00000000000E+00  0.00000000000E+00  0.74505805969E-08  0.10566000000E+00  0.10566000000E+00 0.  1.
     999900   -1    0    0    0    0 -0.00000000000E+00 -0.00000000000E+00 -0.74505805969E-08  0.93827000000E+00  0.93827000000E+00 0.  1.
     999902    2    1    2    0    0 -0.24847773436E-01  0.26685316352E-02 -0.40170118875E-02  0.10186185542E+01  0.10183040261E+01 0.  0.
     999903    2    3    3    0    0 -0.10068469323E+00  0.29144250450E-01 -0.77499523767E-01  0.13191010059E+00  0.20181765708E-01 0.  0.
         14    1    1    2    0    0  0.24847773436E-01 -0.26685316352E-02  0.40170118875E-02  0.25311445836E-01  0.00000000000E+00 0. -1.
     999901    1    3    3    0    0  0.75836919797E-01 -0.26475718815E-01  0.73482511880E-01  0.88670845358E+00  0.88000000000E+00 0. -1.
        -11    1    4    4    0    0 -0.68268673179E-01  0.17870522500E-01 -0.40186186133E-01  0.81210578061E-01  0.51100000000E-03 0.  1.
         11    1    4    4    0    0 -0.32416020055E-01  0.11273727950E-01 -0.37313337634E-01  0.50699522527E-01  0.51100000000E-03 0. -1.
</event>
<event>
 8    1  0.5489035E+004  0.1043930E+01  0.7957747E-01            NaN
         13   -1    0    0    0    0  0.00000000000E+00  0.00000000000E+00  0.74505805969E-08  0.10566000000E+00  0.10566000000E+00 0. -1.
     999900   -1    0    0    0    0 -0.00000000000E+00 -0.00000000000E+00 -0.74505805969E-08  0.93827000000E+00  0.93827000000E+00 0.  1.
     999902    2    1    2    0    0  0.19189060672E-01  0.14252181440E-01 -0.20772237439E-02  0.10199370931E+01  0.10196548505E+01 0.  0.
     999903    2    3    3    0    0 -0.59988739625E-01 -0.65712788720E-01  0.89756184881E-01  0.12803076644E+00  0.20466678960E-01 0.  0.
         14    1    1    2    0    0 -0.19189060672E-01 -0.14252181440E-01  0.20772237439E-02  0.23992906947E-01  0.00000000000E+00 0. -1.
     999901    1    3    3    0    0  0.79177800297E-01  0.79964970160E-01 -0.91833408624E-01  0.89190632661E+00  0.88000000000E+00 0. -1.
        -11    1    4    4    0    0 -0.31220990890E-01 -0.47001529559E-01  0.48869446321E-01  0.74648362056E-01  0.51100000000E-03 0.  1.
         11    1    4    4    0    0 -0.28767748735E-01 -0.18711259162E-01  0.40886738560E-01  0.53382404384E-01  0.51100000000E-03 0. -1.
</event>
<event>
 8    1  0.5489035E+004  0.1043930E+01  0.7957747E-01            NaN
         13   -1    0    0    0    0  0.00000000000E+00  0.00000000000E+00  0.74505805969E-08  0.10566000000E+00  0.10566000000E+00 0. -1.
     999900   -1    0    0    0    0 -0.00000000000E+00 -0.00000000000E+00 -0.74505805969E-08  0.93827000000E+00  0.93827000000E+00 0.  1.
     999902    2    1    2    0    0  0.16307577961E-01 -0.39218377427E-02  0.16658930124E-01  0.10202902482E+01  0.10200163493E+01 0.  0.
     999903    2    3    3    0    0  0.19193334848E-01 -0.11912945020E+00  0.50107527063E-01  0.13214615509E+00  0.19789695045E-01 0.  0.
         14    1    1    2    0    0 -0.16307577961E-01  0.39218377427E-02 -0.16658930124E-01  0.23639751757E-01  0.00000000000E+00 0.  1.
     999901    1    3    3    0    0 -0.28857568869E-02  0.11520761246E+00 -0.33448596939E-01  0.88814409315E+00  0.88000000000E+00 0.  1.
        -11    1    4    4    0    0  0.12116607506E-01 -0.36414129949E-01  0.23332294146E-01  0.44916123035E-01  0.51100000000E-03 0. -1.
         11    1    4    4    0    0  0.70767273426E-02 -0.82715320251E-01  0.26775232917E-01  0.87230032058E-01  0.51100000000E-03 0.  1.
</event>
<event>
 8    1  0.5489035E+004  0.1043930E+01  0.7957747E-01            NaN
         13   -1    0    0    0    0  0.00000000000E+00  0.00000000000E+00  0.74505805969E-08  0.10566000000E+00  0.10566000000E+00 0.  1.
     999900   -1    0    0    0    0 -0.00000000000E+00 -0.00000000000E+00 -0.74505805969E-08  0.93827000000E+00  0.93827000000E+00 0. -1.
     999902    2    1    2    0    0  0.85496027976E-02  0.19214861819E-01  0.88140979299E-02  0.10211266023E+01  0.10208719523E+01 0.  0.
     999903    2    3    3    0    0  0.12371061890E+00 -0.12517800155E-01  0.41092321612E-01  0.13246980402E+00  0.19966410095E-01 0.  0.
         14    1    1    2    0    0 -0.85496027976E-02 -0.19214861819E-01 -0.88140979299E-02  0.22803397664E-01  0.00000000000E+00 0. -1.
     999901    1    3    3    0    0 -0.11516101610E+00  0.31732661974E-01 -0.32278223682E-01  0.88865679831E+00  0.88000000000E+00 0. -1.
        -11    1    4    4    0    0  0.39468332999E-01  0.38430098037E-02  0.18299822344E-01  0.43676797649E-01  0.51100000000E-03 0. -1.
         11    1    4    4    0    0  0.84242285903E-01 -0.16360809959E-01  0.22792499268E-01  0.88793006372E-01  0.51100000000E-03 0.  1.
</event>
<event>
 8    1  0.5489035E+004  0.1043930E+01  0.7957747E-01            NaN
         13   -1    0    0    0    0  0.00000000000E+00  0.00000000000E+00  0.74505805969E-08  0.10566000000E+00  0.10566000000E+00 0. -1.
     999900   -1    0    0    0    0 -0.00000000000E+00 -0.00000000000E+00 -0.74505805969E-08  0.93827000000E+00  0.93827000000E+00 0.  1.
     999902    2    1    2    0    0  0.21750556520E-01  0.91996689654E-02 -0.55233420149E-03  0.10203074326E+01  0.10200339363E+01 0.  0.
     999903    2    3    3    0    0 -0.72893953637E-01  0.53779376660E-01 -0.90556886933E-01  0.12955171234E+00  0.19425410391E-01 0.  0.
         14    1    1    2    0    0 -0.21750556520E-01 -0.91996689654E-02  0.55233420149E-03  0.23622567411E-01  0.00000000000E+00 0.  1.
     999901    1    3    3    0    0  0.94644510158E-01 -0.44579707695E-01  0.90004552731E-01  0.89075572025E+00  0.88000000000E+00 0. -1.
        -11    1    4    4    0    0 -0.24077621323E-01  0.23537398963E-01 -0.22484132436E-01  0.40491213009E-01  0.51100000000E-03 0. -1.
         11    1    4    4    0    0 -0.48816332314E-01  0.30241977697E-01 -0.68072754496E-01  0.89060499332E-01  0.51100000000E-03 0.  1.
</event>
<event>
 8    1  0.5489035E+004  0.1043930E+01  0.7957747E-01            NaN
         13   -1    0    0    0    0  0.00000000000E+00  0.00000000000E+00  0.74505805969E-08  0.10566000000E+00  0.10566000000E+00 0. -1.
     999900   -1    0    0    0    0 -0.00000000000E+00 -0.00000000000E+00 -0.74505805969E-08  0.93827000000E+00  0.93827000000E+00 0.  1.
     999902    2    1    2    0    0 -0.14612353741E-01 -0.11813111130E-01  0.13943229324E-01  0.10205316214E+01  0.10202633514E+01 0.  0.
     999903    2    3    3    0    0 -0.60196877302E-02 -0.17754868187E-01  0.12990145044E+00  0.13286307549E+00  0.20657638190E-01 0.  0.
         14    1    1    2    0    0  0.14612353741E-01  0.11813111130E-01 -0.13943229324E-01  0.23398378585E-01  0.00000000000E+00 0.  1.
     999901    1    3    3    0    0 -0.85926660106E-02  0.59417570566E-02 -0.11595822112E+00  0.88766854593E+00  0.88000000000E+00 0.  1.
        -11    1    4    4    0    0 -0.87321498932E-02 -0.12597660471E-01  0.41084562112E-01  0.43853778127E-01  0.51100000000E-03 0.  1.
         11    1    4    4    0    0  0.27124621630E-02 -0.51572077154E-02  0.88816888332E-01  0.89009297359E-01  0.51100000000E-03 0. -1.
</event>
<event>
 8    1  0.5489035E+004  0.1043930E+01  0.7957747E-01            NaN
         13   -1    0    0    0    0  0.00000000000E+00  0.00000000000E+00  0.74505805969E-08  0.10566000000E+00  0.10566000000E+00 0.  1.
     999900   -1    0    0    0    0 -0.00000000000E+00 -0.00000000000E+00 -0.74505805969E-08  0.93827000000E+00  0.93827000000E+00 0. -1.
     999902    2    1    2    0    0  0.38781480077E-02  0.13788077209E-01 -0.84302351176E-02  0.10273101333E+01  0.10271756860E+01 0.  0.
     999903    2    3    3    0    0  0.13179445020E+00 -0.86567163520E-02 -0.31216609758E-01  0.13748679803E+00  0.21986974908E-01 0.  0.
         14    1    1    2    0    0 -0.38781480077E-02 -0.13788077209E-01  0.84302351176E-02  0.16619866704E-01  0.00000000000E+00 0.  1.
     999901    1    3    3    0    0 -0.12791630219E+00  0.22444793562E-01  0.22786374640E-01  0.88982333527E+00  0.88000000000E+00 0.  1.
        -11    1    4    4    0    0  0.61773930037E-01 -0.14340982095E-01 -0.10839079204E-01  0.64338394126E-01  0.51100000000E-03 0.  1.
         11    1    4    4    0    0  0.70020520160E-01  0.56842657430E-02 -0.20377530554E-01  0.73148403900E-01  0.51100000000E-03 0. -1.
</event>
<event>
 8    1  0.5489035E+004  0.1043930E+01  0.7957747E-01            NaN
         13   -1    0    0    0    0  0.00000000000E+00  0.00000000000E+00  0.74505805969E-08  0.10566000000E+00  0.10566000000E+00 0. -1.
     999900   -1    0    0    0    0 -0.00000000000E+00 -0.00000000000E+00 -0.74505805969E-08  0.93827000000E+00  0.93827000000E+00 0. -1.
     999902    2    1    2    0    0  0.43269142504E-03 -0.15164432574E-01 -0.18506913604E-01  0.10199998289E+01  0.10197190779E+01 0.  0.
     999903    2    3    3    0    0  0.22420926543E-01 -0.46319330013E-02 -0.12918714279E+00  0.13273181463E+00  0.20106317522E-01 0.  0.
         14    1    1    2    0    0 -0.43269142504E-03  0.15164432574E-01  0.18506913604E-01  0.23930171088E-01  0.00000000000E+00 0. -1.
     999901    1    3    3    0    0 -0.21988235118E-01 -0.10532499573E-01  0.11068022918E+00  0.88726801428E+00  0.88000000000E+00 0.  1.
        -11    1    4    4    0    0 -0.14064132606E-02  0.43051597114E-02 -0.29313744277E-01  0.29665958992E-01  0.51100000000E-03 0. -1.
         11    1    4    4    0    0  0.23827339803E-01 -0.89370927127E-02 -0.99873398508E-01  0.10306585564E+00  0.51100000000E-03 0.  1.
</event>
<event>
 8    1  0.5489035E+004  0.1043930E+01  0.7957747E-01            NaN
         13   -1    0    0    0    0  0.00000000000E+00  0.00000000000E+00  0.74505805969E-08  0.10566000000E+00  0.10566000000E+00 0.  1.
     999900   -1    0    0    0    0 -0.00000000000E+00 -0.00000000000E+00 -0.74505805969E-08  0.93827000000E+00  0.93827000000E+00 0.  1.
     999902    2    1    2    0    0  0.79704347400E-02  0.19073187228E-01 -0.11597910370E-01  0.10202271346E+01  0.10199517540E+01 0.  0.
     999903    2    3    3    0    0  0.51938513605E-02 -0.98224628578E-01  0.75963583715E-01  0.12813212723E+00  0.31182081828E-01 0.  0.
         14    1    1    2    0    0 -0.79704347400E-02 -0.19073187228E-01  0.11597910370E-01  0.23702865353E-01  0.00000000000E+00 0.  1.
     999901    1    3    3    0    0  0.27765833795E-02  0.11729781581E+00 -0.87561494085E-01  0.89209500741E+00  0.88000000000E+00 0.  1.
        -11    1    4    4    0    0 -0.28296898124E-02 -0.60794964489E-01  0.63288370726E-01  0.87804976179E-01  0.51100000000E-03 0. -1.
         11    1    4    4    0    0  0.80235411729E-02 -0.37429664089E-01  0.12675212989E-01  0.40327151053E-01  0.51100000000E-03 0.  1.
</event>
<event>
 8    1  0.5489035E+004  0.1043930E+01  0.7957747E-01            NaN
         13   -1    0    0    0    0  0.00000000000E+00  0.00000000000E+00  0.74505805969E-08  0.10566000000E+00  0.10566000000E+00 0. -1.
     999900   -1    0    0    0    0 -0.00000000000E+00 -0.00000000000E+00 -0.74505805969E-08  0.93827000000E+00  0.93827000000E+00 0.  1.
     999902    2    1    2    0    0  0.14112316332E-01 -0.18061160539E-01  0.62541418026E-02  0.10201712694E+01  0.10198945737E+01 0.  0.
     999903    2    3    3    0    0  0.70041675860E-01 -0.11047772569E+00 -0.15848439850E-01  0.13329053392E+00  0.20100476505E-01 0.  0.
         14    1    1    2    0    0 -0.14112316332E-01  0.18061160539E-01 -0.62541418026E-02  0.23758730647E-01  0.00000000000E+00 0. -1.
     999901    1    3    3    0    0 -0.55929359527E-01  0.92416565150E-01  0.22102581652E-01  0.88688073544E+00  0.88000000000E+00 0.  1.
        -11    1    4    4    0    0  0.35367520608E-01 -0.50004599634E-01 -0.17017318202E-01  0.63570211092E-01  0.51100000000E-03 0. -1.
         11    1    4    4    0    0  0.34674155252E-01 -0.60473126054E-01  0.11688783523E-02  0.69720322825E-01  0.51100000000E-03 0.  1.
</event>
<event>
 8    1  0.5489035E+004  0.1043930E+01  0.7957747E-01            NaN
         13   -1    0    0    0    0  0.00000000000E+00  0.00000000000E+00  0.74505805969E-08  0.10566000000E+00  0.10566000000E+00 0. -1.
     999900   -1    0    0    0    0 -0.00000000000E+00 -0.00000000000E+00 -0.74505805969E-08  0.93827000000E+00  0.93827000000E+00 0.  1.
     999902    2    1    2    0    0  0.21779828272E-01  0.26989728243E-02  0.69604974857E-02  0.10209062319E+01  0.10206465796E+01 0.  0.
     999903    2    3    3    0    0 -0.70858552133E-01  0.63511258703E-01 -0.84964075166E-01  0.12920553617E+00  0.20507611197E-01 0.  0.
         14    1    1    2    0    0 -0.21779828272E-01 -0.26989728243E-02 -0.69604974857E-02  0.23023768135E-01  0.00000000000E+00 0.  1.
     999901    1    3    3    0    0  0.92638380405E-01 -0.60812285879E-01  0.91924572651E-01  0.89170069569E+00  0.88000000000E+00 0. -1.
        -11    1    4    4    0    0 -0.29619099491E-01  0.22008135572E-01 -0.45707912418E-01  0.58746263410E-01  0.51100000000E-03 0.  1.
         11    1    4    4    0    0 -0.41239452642E-01  0.41503123131E-01 -0.39256162747E-01  0.70459272765E-01  0.51100000000E-03 0. -1.
</event>
<event>
 8    1  0.5489035E+004  0.1043930E+01  0.7957747E-01            NaN
         13   -1    0    0    0    0  0.00000000000E+00  0.00000000000E+00  0.74505805969E-08  0.10566000000E+00  0.10566000000E+00 0.  1.
     999900   -1    0    0    0    0 -0.00000000000E+00 -0.00000000000E+00 -0.74505805969E-08  0.93827000000E+00  0.93827000000E+00 0.  1.
     999902    2    1    2    0    0  0.10556466918E-01  0.17024352865E-01  0.15773465103E-01  0.10184335339E+01  0.10181143320E+01 0.  0.
     999903    2    3    3    0    0 -0.10428153624E+00 -0.62577801061E-01 -0.27821637213E-01  0.12634340230E+00  0.19949732360E-01 0.  0.
         14    1    1    2    0    0 -0.10556466918E-01 -0.17024352865E-01 -0.15773465103E-01  0.25496466140E-01  0.00000000000E+00 0. -1.
     999901    1    3    3    0    0  0.11483800316E+00  0.79602153926E-01  0.43595102316E-01  0.89209013156E+00  0.88000000000E+00 0.  1.
        -11    1    4    4    0    0 -0.78928963707E-01 -0.50630903906E-01 -0.29381222382E-01  0.98268952838E-01  0.51100000000E-03 0. -1.
         11    1    4    4    0    0 -0.25352572534E-01 -0.11946897155E-01  0.15595851691E-02  0.28074449462E-01  0.51100000000E-03 0.  1.
</event>
<event>
 8    1  0.5489035E+004  0.1043930E+01  0.7957747E-01            NaN
         13   -1    0    0    0    0  0.00000000000E+00  0.00000000000E+00  0.74505805969E-08  0.10566000000E+00  0.10566000000E+00 0.  1.
     999900   -1    0    0    0    0 -0.00000000000E+00 -0.00000000000E+00 -0.74505805969E-08  0.93827000000E+00  0.93827000000E+00 0. -1.
     999902    2    1    2    0    0 -0.12579865517E-02  0.52679105302E-02  0.23144139860E-01  0.10201605948E+01  0.10198836476E+01 0.  0.
     999903    2    3    3    0    0 -0.22607915197E-01  0.99569212055E-01  0.82513957140E-01  0.13287635058E+00  0.20552994948E-01 0.  0.
         14    1    1    2    0    0  0.12579865517E-02 -0.52679105302E-02 -0.23144139860E-01  0.23769405154E-01  0.00000000000E+00 0. -1.
     999901    1    3    3    0    0  0.21349928645E-01 -0.94301301525E-01 -0.59369817280E-01  0.88728424427E+00  0.88000000000E+00 0.  1.
        -11    1    4    4    0    0 -0.13794358506E-01  0.88892223596E-01  0.74966375313E-01  0.11709965965E+00  0.51100000000E-03 0. -1.
         11    1    4    4    0    0 -0.88135566908E-02  0.10676988458E-01  0.75475818269E-02  0.15776690924E-01  0.51100000000E-03 0.  1.
</event>
<event>
 8    1  0.5489035E+004  0.1043930E+01  0.7957747E-01            NaN
         13   -1    0    0    0    0  0.00000000000E+00  0.00000000000E+00  0.74505805969E-08  0.10566000000E+00  0.10566000000E+00 0.  1.
     999900   -1    0    0    0    0 -0.00000000000E+00 -0.00000000000E+00 -0.74505805969E-08  0.93827000000E+00  0.93827000000E+00 0. -1.
     999902    2    1    2    0    0  0.88681804796E-02  0.21363283054E-01 -0.27150831136E-02  0.10206403851E+01  0.10203746319E+01 0.  0.
     999903    2    3    3    0    0  0.41805842143E-01  0.11389626156E+00 -0.52943622136E-01  0.13375248470E+00  0.19147146129E-01 0.  0.
         14    1    1    2    0    0 -0.88681804796E-02 -0.21363283054E-01  0.27150831136E-02  0.23289614942E-01  0.00000000000E+00 0.  1.
     999901    1    3    3    0    0 -0.32937661663E-01 -0.92532978504E-01  0.50228539023E-01  0.88688790036E+00  0.88000000000E+00 0. -1.
        -11    1    4    4    0    0  0.36697248695E-01  0.97305093804E-01 -0.37620740000E-01  0.11059181950E+00  0.51100000000E-03 0.  1.
         11    1    4    4    0    0  0.51085934481E-02  0.16591167753E-01 -0.15322882136E-01  0.23160665197E-01  0.51100000000E-03 0. -1.
</event>
<event>
 8    1  0.5489035E+004  0.1043930E+01  0.7957747E-01            NaN
         13   -1    0    0    0    0  0.00000000000E+00  0.00000000000E+00  0.74505805969E-08  0.10566000000E+00  0.10566000000E+00 0. -1.
     999900   -1    0    0    0    0 -0.00000000000E+00 -0.00000000000E+00 -0.74505805969E-08  0.93827000000E+00  0.93827000000E+00 0.  1.
     999902    2    1    2    0    0  0.72868785247E-03 -0.83513380020E-02 -0.32270510594E-01  0.10105884091E+01  0.10100382522E+01 0.  0.
     999903    2    3    3    0    0  0.80175758555E-01 -0.44543523790E-01 -0.82369862149E-01  0.12485049275E+00  0.19762934473E-01 0.  0.
         14    1    1    2    0    0 -0.72868785247E-03  0.83513380020E-02  0.32270510594E-01  0.33341590940E-01  0.00000000000E+00 0. -1.
     999901    1    3    3    0    0 -0.79447070702E-01  0.36192185788E-01  0.50099351555E-01  0.88573791631E+00  0.88000000000E+00 0. -1.
        -11    1    4    4    0    0  0.68982673779E-01 -0.29554734944E-01 -0.67691943193E-01  0.10106706651E+00  0.51100000000E-03 0. -1.
         11    1    4    4    0    0  0.11193084776E-01 -0.14988788847E-01 -0.14677918956E-01  0.23783426241E-01  0.51100000000E-03 0.  1.
</event>
<event>
 8    1  0.5489035E+004  0.1043930E+01  0.7957747E-01            NaN
         13   -1    0    0    0    0  0.00000000000E+00  0.00000000000E+00  0.74505805969E-08  0.10566000000E+00  0.10566000000E+00 0. -1.
     999900   -1    0    0    0    0 -0.00000000000E+00 -0.00000000000E+00 -0.74505805969E-08  0.93827000000E+00  0.93827000000E+00 0. -1.
     999902    2    1    2    0    0 -0.20389512280E-01  0.13507741448E-01  0.73963047424E-02  0.10183781583E+01  0.10180575508E+01 0.  0.
     999903    2    3    3    0    0  0.12006563260E-01 -0.26834527792E-01 -0.12213035185E+00  0.12739322063E+00  0.21188685124E-01 0.  0.
         14    1    1    2    0    0  0.20389512280E-01 -0.13507741448E-01 -0.73963047424E-02  0.25551841693E-01  0.00000000000E+00 0. -1.
     999901    1    3    3    0    0 -0.32396075540E-01  0.40342269241E-01  0.12952665659E+00  0.89098493768E+00  0.88000000000E+00 0.  1.
        -11    1    4    4    0    0  0.20912073680E-02 -0.17222084674E-01 -0.98509972071E-01  0.10002724163E+00  0.51100000000E-03 0.  1.
         11    1    4    4    0    0  0.99153558920E-02 -0.96124431181E-02 -0.23620379777E-01  0.27365979006E-01  0.51100000000E-03 0. -1.
</event>
<event>
 7    1  0.5489035E+004  0.1043930E+01  0.7957747E-01            NaN
         13   -1    0    0    0    0  0.00000000000E+00  0.00000000000E+00  0.74505805969E-08  0.10566000000E+00  0.10566000000E+00 0.  1.
     999900   -1    0    0    0    0 -0.00000000000E+00 -0.00000000000E+00 -0.74505805969E-08  0.93827000000E+00  0.93827000000E+00 0. -1.
     999903    2    1    2    0    0  0.58519693235E-01  0.24775615123E-02  0.79085819761E-01  0.10040925275E+00  0.19918793703E-01 0.  0.
         14    1    1    2    0    0 -0.14281133527E-01 -0.19245186441E-01  0.47501738447E-01  0.53204728469E-01  0.00000000000E+00 0.  1.
     999901    1    1    2    0    0 -0.44238559707E-01  0.16767624929E-01 -0.12658755821E+00  0.89031601878E+00  0.88000000000E+00 0. -1.
        -11    1    3    3    0    0  0.55378408506E-01  0.20905811318E-02  0.79768936229E-01  0.97131266677E-01  0.51100000000E-03 0.  1.
         11    1    3    3    0    0  0.31412847293E-02  0.38698038051E-03 -0.68311646854E-03  0.32779860699E-02  0.51100000000E-03 0. -1.
</event>
<event>
 8    1  0.5489035E+004  0.1043930E+01  0.7957747E-01            NaN
         13   -1    0    0    0    0  0.00000000000E+00  0.00000000000E+00  0.74505805969E-08  0.10566000000E+00  0.10566000000E+00 0. -1.
     999900   -1    0    0    0    0 -0.00000000000E+00 -0.00000000000E+00 -0.74505805969E-08  0.93827000000E+00  0.93827000000E+00 0.  1.
     999902    2    1    2    0    0  0.74465366217E-02 -0.15889246029E-01  0.16314097902E-01  0.10199702663E+01  0.10196888130E+01 0.  0.
     999903    2    3    3    0    0 -0.31335171415E-01 -0.34052634537E-01  0.12260047992E+00  0.13254098771E+00  0.19868589732E-01 0.  0.
         14    1    1    2    0    0 -0.74465366217E-02  0.15889246029E-01 -0.16314097902E-01  0.23959733667E-01  0.00000000000E+00 0. -1.
     999901    1    3    3    0    0  0.38781708037E-01  0.18163388508E-01 -0.10628638202E+00  0.88742927863E+00  0.88000000000E+00 0.  1.
        -11    1    4    4    0    0 -0.26107643847E-01 -0.28205219867E-01  0.74792210019E-01  0.84090899005E-01  0.51100000000E-03 0. -1.
         11    1    4    4    0    0 -0.52275275687E-02 -0.58474146700E-02  0.47808269906E-01  0.48450088702E-01  0.51100000000E-03 0.  1.
</event>
<event>
 8    1  0.5489035E+004  0.1043930E+01  0.7957747E-01            NaN
         13   -1    0    0    0    0  0.00000000000E+00  0.00000000000E+00  0.74505805969E-08  0.10566000000E+00  0.10566000000E+00 0. -1.
     999900   -1    0    0    0    0 -0.00000000000E+00 -0.00000000000E+00 -0.74505805969E-08  0.93827000000E+00  0.93827000000E+00 0. -1.
     999902    2    1    2    0    0  0.21855422496E-01 -0.35078857799E-02 -0.90252331575E-02  0.10200256157E+01  0.10197454766E+01 0.  0.
     999903    2    3    3    0    0  0.12396878771E+00  0.43432537964E-01  0.44042176237E-02  0.13277655659E+00  0.18856594784E-01 0.  0.
         14    1    1    2    0    0 -0.21855422496E-01  0.35078857799E-02  0.90252331575E-02  0.23904384298E-01  0.00000000000E+00 0. -1.
     999901    1    3    3    0    0 -0.10211336522E+00 -0.46940423744E-01 -0.13429450781E-01  0.88724905911E+00  0.88000000000E+00 0.  1.
        -11    1    4    4    0    0  0.58455157603E-01  0.18223073219E-01 -0.70984805470E-02  0.61641993763E-01  0.51100000000E-03 0. -1.
         11    1    4    4    0    0  0.65513630112E-01  0.25209464744E-01  0.11502698171E-01  0.71134562832E-01  0.51100000000E-03 0.  1.
</event>
<event>
 8    1  0.5489035E+004  0.1043930E+01  0.7957747E-01            NaN
         13   -1    0    0    0    0  0.00000000000E+00  0.00000000000E+00  0.74505805969E-08  0.10566000000E+00  0.10566000000E+00 0.  1.
     999900   -1    0    0    0    0 -0.00000000000E+00 -0.00000000000E+00 -0.74505805969E-08  0.93827000000E+00  0.93827000000E+00 0.  1.
     999902    2    1    2    0    0 -0.54963644318E-02  0.22170494797E-01 -0.58286590176E-02  0.10203564104E+01  0.10200840603E+01 0.  0.
     999903    2    3    3    0    0 -0.10393087117E-01 -0.74193285524E-01  0.10241541691E+00  0.12848941580E+00  0.20197833415E-01 0.  0.
         14    1    1    2    0    0  0.54963644318E-02 -0.22170494797E-01  0.58286590176E-02  0.23573589618E-01  0.00000000000E+00 0. -1.
     999901    1    3    3    0    0  0.48967226851E-02  0.96363780321E-01 -0.10824407593E+00  0.89186699458E+00  0.88000000000E+00 0.  1.
        -11    1    4    4    0    0  0.27705809694E-03 -0.58725981733E-01  0.79811745361E-01  0.99090834643E-01  0.51100000000E-03 0. -1.
         11    1    4    4    0    0 -0.10670145214E-01 -0.15467303791E-01  0.22603671551E-01  0.29398581157E-01  0.51100000000E-03 0.  1.
</event>
<event>
 8    1  0.5489035E+004  0.1043930E+01  0.7957747E-01            NaN
         13   -1    0    0    0    0  0.00000000000E+00  0.00000000000E+00  0.74505805969E-08  0.10566000000E+00  0.10566000000E+00 0. -1.
     999900   -1    0    0    0    0 -0.00000000000E+00 -0.00000000000E+00 -0.74505805969E-08  0.93827000000E+00  0.93827000000E+00 0. -1.
     999902    2    1    2    0    0 -0.16686786888E-02  0.16789078812E-01  0.15405761956E-01  0.10210827867E+01  0.10208271460E+01 0.  0.
     999903    2    3    3    0    0 -0.87010969917E-01  0.25195581458E-01  0.95611623614E-01  0.13328384760E+00  0.20427316258E-01 0.  0.
         14    1    1    2    0    0  0.16686786888E-02 -0.16789078812E-01 -0.15405761956E-01  0.22847213339E-01  0.00000000000E+00 0.  1.
     999901    1    3    3    0    0  0.85342291228E-01 -0.84065026459E-02 -0.80205861658E-01  0.88779893906E+00  0.88000000000E+00 0. -1.
        -11    1    4    4    0    0 -0.71152935510E-01  0.13106135423E-01  0.80660404642E-01  0.10835530912E+00  0.51100000000E-03 0.  1.
         11    1    4    4    0    0 -0.15858034407E-01  0.12089446035E-01  0.14951218972E-01  0.24928538473E-01  0.51100000000E-03 0. -1.
</event>
<event>
 8    1  0.5489035E+004  0.1043930E+01  0.7957747E-01            NaN
         13   -1    0    0    0    0  0.00000000000E+00  0.00000000000E+00  0.74505805969E-08  0.10566000000E+00  0.10566000000E+00 0. -1.
     999900   -1    0    0    0    0 -0.00000000000E+00 -0.00000000000E+00 -0.74505805969E-08  0.93827000000E+00  0.93827000000E+00 0.  1.
     999902    2    1    2    0    0 -0.15381138316E-01  0.13663842787E-01 -0.13476548852E-01  0.10193353383E+01  0.10190385834E+01 0.  0.
     999903    2    3    3    0    0 -0.13537894276E-01 -0.12642399788E+00  0.11351486513E-02  0.12813305915E+00  0.15826890506E-01 0.  0.
         14    1    1    2    0    0  0.15381138316E-01 -0.13663842787E-01  0.13476548852E-01  0.24594661709E-01  0.00000000000E+00 0.  1.
     999901    1    3    3    0    0 -0.18432440403E-02  0.14008784066E+00 -0.14611697503E-01  0.89120227915E+00  0.88000000000E+00 0.  1.
        -11    1    4    4    0    0 -0.14404362055E-02 -0.83035760249E-01  0.21060258329E-02  0.83076523774E-01  0.51100000000E-03 0. -1.
         11    1    4    4    0    0 -0.12097458070E-01 -0.43388237628E-01 -0.97087718164E-03  0.45056535372E-01  0.51100000000E-03 0.  1.
</event>
<event>
 8    1  0.5489035E+004  0.1043930E+01  0.7957747E-01            NaN
         13   -1    0    0    0    0  0.00000000000E+00  0.00000000000E+00  0.74505805969E-08  0.10566000000E+00  0.10566000000E+00 0.  1.
     999900   -1    0    0    0    0 -0.00000000000E+00 -0.00000000000E+00 -0.74505805969E-08  0.93827000000E+00  0.93827000000E+00 0.  1.
     999902    2    1    2    0    0  0.15373594769E-01 -0.14942970604E-03 -0.17537297403E-01  0.10206077671E+01  0.10203412605E+01 0.  0.
     999903    2    3    3    0    0  0.63740082719E-01 -0.84576480439E-01  0.73725815285E-01  0.13055372396E+00  0.19819177851E-01 0.  0.
         14    1    1    2    0    0 -0.15373594769E-01  0.14942970604E-03  0.17537297403E-01  0.23322232860E-01  0.00000000000E+00 0.  1.
     999901    1    3    3    0    0 -0.48366487950E-01  0.84427050733E-01 -0.91263112688E-01  0.89005404318E+00  0.88000000000E+00 0.  1.
        -11    1    4    4    0    0  0.94636453036E-02 -0.15486651228E-01  0.45220060502E-02  0.18711135946E-01  0.51100000000E-03 0. -1.
         11    1    4    4    0    0  0.54276437416E-01 -0.69089829211E-01  0.69203809235E-01  0.11184258801E+00  0.51100000000E-03 0.  1.
</event>
<event>
 8    1  0.5489035E+004  0.1043930E+01  0.7957747E-01            NaN
         13   -1    0    0    0    0  0.00000000000E+00  0.00000000000E+00  0.74505805969E-08  0.10566000000E+00  0.10566000000E+00 0.  1.
     999900   -1    0    0    0    0 -0.00000000000E+00 -0.00000000000E+00 -0.74505805969E-08  0.93827000000E+00  0.93827000000E+00 0. -1.
     999902    2    1    2    0    0 -0.14100529040E-01 -0.19183808995E-01  0.15463994261E-02  0.10200713580E+01  0.10197923027E+01 0.  0.
     999903    2    3    3    0    0 -0.11495528649E+00  0.18621906528E-01  0.58521253997E-01  0.13167556317E+00  0.18767617634E-01 0.  0.
         14    1    1    2    0    0  0.14100529040E-01  0.19183808995E-01 -0.15463994261E-02  0.23858641997E-01  0.00000000000E+00 0. -1.
     999901    1    3    3    0    0  0.10085475745E+00 -0.37805715523E-01 -0.56974854571E-01  0.88839579483E+00  0.88000000000E+00 0.  1.
        -11    1    4    4    0    0 -0.47087826207E-01  0.15796216024E-01  0.19675067845E-01  0.53424275693E-01  0.51100000000E-03 0.  1.
         11    1    4    4    0    0 -0.67867460282E-01  0.28256905039E-02  0.38846186153E-01  0.78251287475E-01  0.51100000000E-03 0. -1.
</event>
<event>
 8    1  0.5489035E+004  0.1043930E+01  0.7957747E-01            NaN
         13   -1    0    0    0    0  0.00000000000E+00  0.00000000000E+00  0.74505805969E-08  0.10566000000E+00  0.10566000000E+00 0. -1.
     999900   -1    0    0    0    0 -0.00000000000E+00 -0.00000000000E+00 -0.74505805969E-08  0.93827000000E+00  0.93827000000E+00 0. -1.
     999902    2    1    2    0    0  0.15685851064E-01 -0.14130235466E-01  0.10606794646E-01  0.10203034562E+01  0.10200298668E+01 0.  0.
     999903    2    3    3    0    0 -0.87911560464E-01 -0.12262411738E-01  0.93340390945E-01  0.13037044729E+00  0.20129971191E-01 0.  0.
         14    1    1    2    0    0 -0.15685851064E-01  0.14130235466E-01 -0.10606794646E-01  0.23626543771E-01  0.00000000000E+00 0.  1.
     999901    1    3    3    0    0  0.10359741153E+00 -0.18678237276E-02 -0.82733596299E-01  0.88993300894E+00  0.88000000000E+00 0. -1.
        -11    1    4    4    0    0 -0.79265141542E-01 -0.93855063925E-02  0.90800522532E-01  0.12089684201E+00  0.51100000000E-03 0.  1.
         11    1    4    4    0    0 -0.86464189216E-02 -0.28769053453E-02  0.25398684135E-02  0.94736052848E-02  0.51100000000E-03 0. -1.
</event>
<event>
 8    1  0.5489035E+004  0.1043930E+01  0.7957747E-01            NaN
         13   -1    0    0    0    0  0.00000000000E+00  0.00000000000E+00  0.74505805969E-08  0.10566000000E+00  0.10566000000E+00 0.  1.
     999900   -1    0    0    0    0 -0.00000000000E+00 -0.00000000000E+00 -0.74505805969E-08  0.93827000000E+00  0.93827000000E+00 0.  1.
     999902    2    1    2    0    0  0.17326583937E-01  0.85533570433E-02  0.13906182814E-01  0.10201234390E+01  0.10198456150E+01 0.  0.
     999903    2    3    3    0    0 -0.12688912317E-01 -0.35286898168E-01 -0.12112488464E+00  0.12823987753E+00  0.19184755189E-01 0.  0.
         14    1    1    2    0    0 -0.17326583937E-01 -0.85533570433E-02 -0.13906182814E-01  0.23806561030E-01  0.00000000000E+00 0. -1.
     999901    1    3    3    0    0  0.30015496254E-01  0.43840255211E-01  0.13503106745E+00  0.89188356144E+00  0.88000000000E+00 0. -1.
        -11    1    4    4    0    0 -0.13816127248E-01 -0.17866913240E-01 -0.47884626096E-01  0.52946298248E-01  0.51100000000E-03 0.  1.
         11    1    4    4    0    0  0.11272149306E-02 -0.17419984927E-01 -0.73240258543E-01  0.75293579280E-01  0.51100000000E-03 0. -1.
</event>
<event>
 8    1  0.5489035E+004  0.1043930E+01  0.7957747E-01            NaN
         13   -1    0    0    0    0  0.00000000000E+00  0.00000000000E+00  0.74505805969E-08  0.10566000000E+00  0.10566000000E+00 0.  1.
     999900   -1    0    0    0    0 -0.00000000000E+00 -0.00000000000E+00 -0.74505805969E-08  0.93827000000E+00  0.93827000000E+00 0. -1.
     999902    2    1    2    0    0  0.85827069535E-02 -0.91487210166E-02  0.19654332563E-01  0.10206135950E+01  0.10203472230E+01 0.  0.
     999903    2    3    3    0    0 -0.27585486025E-01 -0.91501707974E-01  0.90643078459E-01  0.13318497548E+00  0.19711631611E-01 0.  0.
         14    1    1    2    0    0 -0.85827069535E-02  0.91487210166E-02 -0.19654332563E-01  0.23316405027E-01  0.00000000000E+00 0. -1.
     999901    1    3    3    0    0  0.36168192978E-01  0.82352986957E-01 -0.70988745896E-01  0.88742861949E+00  0.88000000000E+00 0.  1.
        -11    1    4    4    0    0 -0.15731220005E-01 -0.78063089465E-01  0.75018779470E-01  0.10940473305E+00  0.51100000000E-03 0. -1.
         11    1    4    4    0    0 -0.11854266020E-01 -0.13438618509E-01  0.15624298988E-01  0.23780242433E-01  0.51100000000E-03 0.  1.
</event>
<event>
 8    1  0.5489035E+004  0.1043930E+01  0.7957747E-01            NaN
         13   -1    0    0    0    0  0.00000000000E+00  0.00000000000E+00  0.74505805969E-08  0.10566000000E+00  0.10566000000E+00 0.  1.
     999900   -1    0    0    0    0 -0.00000000000E+00 -0.00000000000E+00 -0.74505805969E-08  0.93827000000E+00  0.93827000000E+00 0. -1.
     999902    2    1    2    0    0  0.18999707911E-01 -0.67651638239E-02  0.11980480218E-01  0.10204717765E+01  0.10202021165E+01 0.  0.
     999903    2    3    3    0    0 -0.97730035342E-01 -0.51294122976E-02  0.83357788149E-01  0.12989711445E+00  0.18635150100E-01 0.  0.
         14    1    1    2    0    0 -0.18999707911E-01  0.67651638239E-02 -0.11980480218E-01  0.23458223473E-01  0.00000000000E+00 0.  1.
     999901    1    3    3    0    0  0.11672974325E+00 -0.16357515263E-02 -0.71377307931E-01  0.89057466208E+00  0.88000000000E+00 0.  1.
        -11    1    4    4    0    0 -0.77097896614E-01  0.27137447058E-02  0.59798138750E-01  0.97609059987E-01  0.51100000000E-03 0.  1.
         11    1    4    4    0    0 -0.20632138728E-01 -0.78431570034E-02  0.23559649399E-01  0.32288054464E-01  0.51100000000E-03 0. -1.
</event>
<event>
 8    1  0.5489035E+004  0.1043930E+01  0.7957747E-01            NaN
         13   -1    0    0    0    0  0.00000000000E+00  0.00000000000E+00  0.74505805969E-08  0.10566000000E+00  0.10566000000E+00 0. -1.
     999900   -1    0    0    0    0 -0.00000000000E+00 -0.00000000000E+00 -0.74505805969E-08  0.93827000000E+00  0.93827000000E+00 0.  1.
     999902    2    1    2    0    0  0.15799721654E-01  0.18167900132E-01 -0.48120507741E-02  0.10193768000E+01  0.10190810570E+01 0.  0.
     999903    2    3    3    0    0  0.71086445368E-01 -0.76330601985E-01 -0.74776330674E-01  0.12983670014E+00  0.19657709946E-01 0.  0.
         14    1    1    2    0    0 -0.15799721654E-01 -0.18167900132E-01  0.48120507741E-02  0.24553200040E-01  0.00000000000E+00 0. -1.
     999901    1    3    3    0    0 -0.55286723714E-01  0.94498502118E-01  0.69964279900E-01  0.88954009982E+00  0.88000000000E+00 0. -1.
        -11    1    4    4    0    0  0.34831442128E-01 -0.38698126711E-01 -0.49280240654E-01  0.71690847474E-01  0.51100000000E-03 0.  1.
         11    1    4    4    0    0  0.36255003240E-01 -0.37632475275E-01 -0.25496090020E-01  0.58145852668E-01  0.51100000000E-03 0. -1.
</event>
<event>
 8    1  0.5489035E+004  0.1043930E+01  0.7957747E-01            NaN
         13   -1    0    0    0    0  0.00000000000E+00  0.00000000000E+00  0.74505805969E-08  0.10566000000E+00  0.10566000000E+00 0.  1.
     999900   -1    0    0    0    0 -0.00000000000E+00 -0.00000000000E+00 -0.74505805969E-08  0.93827000000E+00  0.93827000000E+00 0.  1.
     999902    2    1    2    0    0 -0.35266310903E-02  0.13746217817E-01  0.20131391884E-01  0.10192993571E+01  0.10190017227E+01 0.  0.
     999903    2    3    3    0    0 -0.28130465397E-01  0.92976779412E-01 -0.83150315753E-01  0.12938366350E+00  0.19752285404E-01 0.  0.
         14    1    1    2    0    0  0.35266310903E-02 -0.13746217817E-01 -0.20131391884E-01  0.24630642913E-01  0.00000000000E+00 0. -1.
     999901    1    3    3    0    0  0.24603834307E-01 -0.79230561595E-01  0.10328170764E+00  0.88991569358E+00  0.88000000000E+00 0. -1.
        -11    1    4    4    0    0 -0.25245399557E-01  0.62806774286E-01 -0.66066719313E-01  0.94589077682E-01  0.51100000000E-03 0. -1.
         11    1    4    4    0    0 -0.28850658397E-02  0.30170005125E-01 -0.17083596440E-01  0.34794585822E-01  0.51100000000E-03 0.  1.
</event>
<event>
 8    1  0.5489035E+004  0.1043930E+01  0.7957747E-01            NaN
         13   -1    0    0    0    0  0.00000000000E+00  0.00000000000E+00  0.74505805969E-08  0.10566000000E+00  0.10566000000E+00 0.  1.
     999900   -1    0    0    0    0 -0.00000000000E+00 -0.00000000000E+00 -0.74505805969E-08  0.93827000000E+00  0.93827000000E+00 0. -1.
     999902    2    1    2    0    0  0.14565631222E-01  0.12340000309E-01 -0.14795642786E-01  0.10197774791E+01  0.10194914235E+01 0.  0.
     999903    2    3    3    0    0 -0.97914186707E-01  0.24471483785E-01 -0.79532615863E-01  0.13017658093E+00  0.20843794279E-01 0.  0.
         14    1    1    2    0    0 -0.14565631222E-01 -0.12340000309E-01  0.14795642786E-01  0.24152520903E-01  0.00000000000E+00 0.  1.
     999901    1    3    3    0    0  0.11247981793E+00 -0.12131483476E-01  0.64736973078E-01  0.88960089816E+00  0.88000000000E+00 0.  1.
        -11    1    4    4    0    0 -0.62980555822E-01  0.23485575929E-01 -0.44023828272E-01  0.80352232483E-01  0.51100000000E-03 0. -1.
         11    1    4    4    0    0 -0.34933630885E-01  0.98590785666E-03 -0.35508787592E-01  0.49824348449E-01  0.51100000000E-03 0.  1.
</event>
<event>
 8    1  0.5489035E+004  0.1043930E+01  0.7957747E-01            NaN
         13   -1    0    0    0    0  0.00000000000E+00  0.00000000000E+00  0.74505805969E-08  0.10566000000E+00  0.10566000000E+00 0. -1.
     999900   -1    0    0    0    0 -0.00000000000E+00 -0.00000000000E+00 -0.74505805969E-08  0.93827000000E+00  0.93827000000E+00 0. -1.
     999902    2    1    2    0    0 -0.12963053541E-01  0.29948321578E-02 -0.19327325756E-01  0.10204660852E+01  0.10201962928E+01 0.  0.
     999903    2    3    3    0    0 -0.24403091513E-01  0.71839586160E-01 -0.10767478341E+00  0.13329318892E+00  0.20415146700E-01 0.  0.
         14    1    1    2    0    0  0.12963053541E-01 -0.29948321578E-02  0.19327325756E-01  0.23463914798E-01  0.00000000000E+00 0. -1.
     999901    1    3    3    0    0  0.11440037972E-01 -0.68844754002E-01  0.88347457656E-01  0.88717289628E+00  0.88000000000E+00 0.  1.
        -11    1    4    4    0    0 -0.32826099102E-02  0.34355127932E-01 -0.37406815848E-01  0.50897753742E-01  0.51100000000E-03 0.  1.
         11    1    4    4    0    0 -0.21120481603E-01  0.37484458228E-01 -0.70267967564E-01  0.82395435179E-01  0.51100000000E-03 0. -1.
</event>
<event>
 8    1  0.5489035E+004  0.1043930E+01  0.7957747E-01            NaN
         13   -1    0    0    0    0  0.00000000000E+00  0.00000000000E+00  0.74505805969E-08  0.10566000000E+00  0.10566000000E+00 0. -1.
     999900   -1    0    0    0    0 -0.00000000000E+00 -0.00000000000E+00 -0.74505805969E-08  0.93827000000E+00  0.93827000000E+00 0. -1.
     999902    2    1    2    0    0 -0.32881169535E-02  0.75077161547E-02  0.25135097843E-01  0.10174923250E+01  0.10171487997E+01 0.  0.
     999903    2    3    3    0    0  0.12302502330E-01  0.97447233635E-01 -0.77569847866E-01  0.12682937525E+00  0.20525453014E-01 0.  0.
         14    1    1    2    0    0  0.32881169535E-02 -0.75077161547E-02 -0.25135097843E-01  0.26437674983E-01  0.00000000000E+00 0.  1.
     999901    1    3    3    0    0 -0.15590619284E-01 -0.89939517481E-01  0.10270494571E+00  0.89066294977E+00  0.88000000000E+00 0.  1.
        -11    1    4    4    0    0  0.40463286052E-02  0.84892041499E-01 -0.69351138874E-01  0.10969445323E+00  0.51100000000E-03 0.  1.
         11    1    4    4    0    0  0.82561737252E-02  0.12555192137E-01 -0.82187089926E-02  0.17134922021E-01  0.51100000000E-03 0. -1.
</event>
<event>
 8    1  0.5489035E+004  0.1043930E+01  0.7957747E-01            NaN
         13   -1    0    0    0    0  0.00000000000E+00  0.00000000000E+00  0.74505805969E-08  0.10566000000E+00  0.10566000000E+00 0.  1.
     999900   -1    0    0    0    0 -0.00000000000E+00 -0.00000000000E+00 -0.74505805969E-08  0.93827000000E+00  0.93827000000E+00 0. -1.
     999902    2    1    2    0    0  0.19823454293E-01 -0.21444508896E-02  0.19338784148E-01  0.10161530926E+01  0.10157733759E+01 0.  0.
     999903    2    3    3    0    0  0.20088009733E-02 -0.65777747921E-01  0.10936331979E+00  0.12909561121E+00  0.19354423642E-01 0.  0.
         14    1    1    2    0    0 -0.19823454293E-01  0.21444508896E-02 -0.19338784148E-01  0.27776907353E-01  0.00000000000E+00 0. -1.
     999901    1    3    3    0    0  0.17814653320E-01  0.63633297032E-01 -0.90024535640E-01  0.88705748144E+00  0.88000000000E+00 0.  1.
        -11    1    4    4    0    0 -0.14233100533E-03  0.91337666480E-04  0.90685155230E-02  0.90844755201E-02  0.51100000000E-03 0. -1.
         11    1    4    4    0    0  0.21511319787E-02 -0.65869085588E-01  0.10029480427E+00  0.12001113569E+00  0.51100000000E-03 0.  1.
</event>
<event>
 8    1  0.5489035E+004  0.1043930E+01  0.7957747E-01            NaN
         13   -1    0    0    0    0  0.00000000000E+00  0.00000000000E+00  0.74505805969E-08  0.10566000000E+00  0.10566000000E+00 0.  1.
     999900   -1    0    0    0    0 -0.00000000000E+00 -0.00000000000E+00 -0.74505805969E-08  0.93827000000E+00  0.93827000000E+00 0. -1.
     999902    2    1    2    0    0  0.95221188604E-02  0.15842253728E-01  0.14820312001E-01  0.10202384530E+01  0.10199633384E+01 0.  0.
     999903    2    3    3    0    0 -0.46801877737E-01 -0.56640862444E-01  0.10623119303E+00  0.13075425198E+00  0.20322523927E-01 0.  0.
         14    1    1    2    0    0 -0.95221188604E-02 -0.15842253728E-01 -0.14820312001E-01  0.23691546986E-01  0.00000000000E+00 0. -1.
     999901    1    3    3    0    0  0.56323996597E-01  0.72483116173E-01 -0.91410881033E-01  0.88948420104E+00  0.88000000000E+00 0. -1.
        -11    1    4    4    0    0 -0.13952380746E-01 -0.48315233260E-02  0.23517422095E-01  0.27773059052E-01  0.51100000000E-03 0.  1.
         11    1    4    4    0    0 -0.32849496991E-01 -0.51809339118E-01  0.82713770938E-01  0.10298119293E+00  0.51100000000E-03 0. -1.
</event>
<event>
 8    1  0.5489035E+004  0.1043930E+01  0.7957747E-01            NaN
         13   -1    0    0    0    0  0.00000000000E+00  0.00000000000E+00  0.74505805969E-08  0.10566000000E+00  0.10566000000E+00 0.  1.
     999900   -1    0    0    0    0 -0.00000000000E+00 -0.00000000000E+00 -0.74505805969E-08  0.93827000000E+00  0.93827000000E+00 0.  1.
     999902    2    1    2    0    0  0.20916714457E-01 -0.87121804320E-02 -0.86993254857E-02  0.10196588382E+01  0.10193699314E+01 0.  0.
     999903    2    3    3    0    0 -0.18543439641E-01 -0.29850459508E-01  0.12230566428E+00  0.12883548985E+00  0.20124583082E-01 0.  0.
         14    1    1    2    0    0 -0.20916714457E-01  0.87121804320E-02  0.86993254857E-02  0.24271161807E-01  0.00000000000E+00 0.  1.
     999901    1    3    3    0    0  0.39460154099E-01  0.21138279076E-01 -0.13100498977E+00  0.89082334834E+00  0.88000000000E+00 0.  1.
        -11    1    4    4    0    0  0.39120923357E-02 -0.48392474238E-02  0.28843049147E-01  0.29511106167E-01  0.51100000000E-03 0.  1.
         11    1    4    4    0    0 -0.22455531977E-01 -0.25011212084E-01  0.93462615132E-01  0.99324383686E-01  0.51100000000E-03 0. -1.
</event>
<event>
 8    1  0.5489035E+004  0.1043930E+01  0.7957747E-01            NaN
         13   -1    0    0    0    0  0.00000000000E+00  0.00000000000E+00  0.74505805969E-08  0.10566000000E+00  0.10566000000E+00 0. -1.
     999900   -1    0    0    0    0 -0.00000000000E+00 -0.00000000000E+00 -0.74505805969E-08  0.93827000000E+00  0.93827000000E+00 0.  1.
     999902    2    1    2    0    0  0.31377318144E-02  0.25527076778E-01 -0.47660958135E-02  0.10177729230E+01  0.10174367450E+01 0.  0.
     999903    2    3    3    0    0  0.42145083804E-01 -0.80572860868E-01 -0.86092027547E-01  0.12682248806E+00  0.20097568856E-01 0.  0.
         14    1    1    2    0    0 -0.31377318144E-02 -0.25527076778E-01  0.47660958135E-02  0.26157077036E-01  0.00000000000E+00 0. -1.
     999901    1    3    3    0    0 -0.39007351990E-01  0.10609993765E+00  0.81325931733E-01  0.89095043490E+00  0.88000000000E+00 0. -1.
        -11    1    4    4    0    0  0.97176838203E-02 -0.39989019589E-01 -0.39286361830E-01  0.56896699494E-01  0.51100000000E-03 0. -1.
         11    1    4    4    0    0  0.32427399984E-01 -0.40583841279E-01 -0.46805665717E-01  0.69925788568E-01  0.51100000000E-03 0.  1.
</event>
<event>
 8    1  0.5489035E+004  0.1043930E+01  0.7957747E-01            NaN
         13   -1    0    0    0    0  0.00000000000E+00  0.00000000000E+00  0.74505805969E-08  0.10566000000E+00  0.10566000000E+00 0. -1.
     999900   -1    0    0    0    0 -0.00000000000E+00 -0.00000000000E+00 -0.74505805969E-08  0.93827000000E+00  0.93827000000E+00 0.  1.
     999902    2    1    2    0    0 -0.15709798429E-01  0.19167062274E-01 -0.68416956774E-02  0.10182204134E+01  0.10178957842E+01 0.  0.
     999903    2    3    3    0    0  0.10145289953E+00  0.45717388585E-01 -0.60899696589E-01  0.12841465647E+00  0.19969489475E-01 0.  0.
         14    1    1    2    0    0  0.15709798429E-01 -0.19167062274E-01  0.68416956774E-02  0.25709586590E-01  0.00000000000E+00 0.  1.
     999901    1    3    3    0    0 -0.11716269796E+00 -0.26550326311E-01  0.54058000911E-01  0.88980575694E+00  0.88000000000E+00 0. -1.
        -11    1    4    4    0    0  0.59925415981E-01  0.36118070277E-01 -0.43397458728E-01  0.82335721446E-01  0.51100000000E-03 0. -1.
         11    1    4    4    0    0  0.41527483548E-01  0.95993183084E-02 -0.17502237861E-01  0.46078935024E-01  0.51100000000E-03 0.  1.
</event>
<event>
 8    1  0.5489035E+004  0.1043930E+01  0.7957747E-01            NaN
         13   -1    0    0    0    0  0.00000000000E+00  0.00000000000E+00  0.74505805969E-08  0.10566000000E+00  0.10566000000E+00 0. -1.
     999900   -1    0    0    0    0 -0.00000000000E+00 -0.00000000000E+00 -0.74505805969E-08  0.93827000000E+00  0.93827000000E+00 0. -1.
     999902    2    1    2    0    0  0.18904241689E-01 -0.10274836217E-01 -0.11651393000E-01  0.10194617027E+01  0.10191680263E+01 0.  0.
     999903    2    3    3    0    0  0.11655800775E+00 -0.58617960236E-01  0.10728057984E-01  0.13245879658E+00  0.20209085360E-01 0.  0.
         14    1    1    2    0    0 -0.18904241689E-01  0.10274836217E-01  0.11651393000E-01  0.24468297284E-01  0.00000000000E+00 0.  1.
     999901    1    3    3    0    0 -0.97653766060E-01  0.48343124018E-01 -0.22379450985E-01  0.88700290613E+00  0.88000000000E+00 0.  1.
        -11    1    4    4    0    0  0.72651138649E-01 -0.30348722615E-01 -0.17876177200E-02  0.78757155926E-01  0.51100000000E-03 0.  1.
         11    1    4    4    0    0  0.43906869099E-01 -0.28269237620E-01  0.12515675704E-01  0.53701640655E-01  0.51100000000E-03 0. -1.
</event>
<event>
 8    1  0.5489035E+004  0.1043930E+01  0.7957747E-01            NaN
         13   -1    0    0    0    0  0.00000000000E+00  0.00000000000E+00  0.74505805969E-08  0.10566000000E+00  0.10566000000E+00 0. -1.
     999900   -1    0    0    0    0 -0.00000000000E+00 -0.00000000000E+00 -0.74505805969E-08  0.93827000000E+00  0.93827000000E+00 0. -1.
     999902    2    1    2    0    0  0.20128249056E-01  0.67528733699E-02  0.11330243744E-01  0.10198650435E+01  0.10195810830E+01 0.  0.
     999903    2    3    3    0    0  0.10967632936E+00  0.48172711646E-01  0.55133392847E-01  0.13326864288E+00  0.19269997401E-01 0.  0.
         14    1    1    2    0    0 -0.20128249056E-01 -0.67528733699E-02 -0.11330243744E-01  0.24064956516E-01  0.00000000000E+00 0.  1.
     999901    1    3    3    0    0 -0.89548080303E-01 -0.41419838276E-01 -0.43803149103E-01  0.88659640060E+00  0.88000000000E+00 0.  1.
        -11    1    4    4    0    0  0.44499461061E-01  0.13152346949E-01  0.13315798586E-01  0.48277923298E-01  0.51100000000E-03 0.  1.
         11    1    4    4    0    0  0.65176868299E-01  0.35020364697E-01  0.41817594261E-01  0.84990719585E-01  0.51100000000E-03 0. -1.
</event>
<event>
 7    1  0.5489035E+004  0.1043930E+01  0.7957747E-01            NaN
         13   -1    0    0    0    0  0.00000000000E+00  0.00000000000E+00  0.74505805969E-08  0.10566000000E+00  0.10566000000E+00 0. -1.
     999900   -1    0    0    0    0 -0.00000000000E+00 -0.00000000000E+00 -0.74505805969E-08  0.93827000000E+00  0.93827000000E+00 0. -1.
     999902    2    1    2    0    0 -0.30077451023E-02  0.44640161858E-02 -0.22910821665E-01  0.10203953506E+01  0.10201239101E+01 0.  0.
         14    1    1    2    0    0  0.30077451023E-02 -0.44640161858E-02  0.22910821665E-01  0.23534649359E-01  0.00000000000E+00 0. -1.
     999901    1    3    3    0    0 -0.95280432565E-01 -0.42075057743E-01  0.76870408341E-02  0.88617592041E+00  0.88000000000E+00 0. -1.
        -11    1    3    3    0    0  0.52071602167E-01  0.50733729207E-01  0.13989750907E-01  0.74036053939E-01  0.51100000000E-03 0. -1.
         11    1    3    3    0    0  0.40201085296E-01 -0.41946552786E-02 -0.44587613406E-01  0.60183376294E-01  0.51100000000E-03 0.  1.
</event>
<event>
 8    1  0.5489035E+004  0.1043930E+01  0.7957747E-01            NaN
         13   -1    0    0    0    0  0.00000000000E+00  0.00000000000E+00  0.74505805969E-08  0.10566000000E+00  0.10566000000E+00 0.  1.
     999900   -1    0    0    0    0 -0.00000000000E+00 -0.00000000000E+00 -0.74505805969E-08  0.93827000000E+00  0.93827000000E+00 0. -1.
     999902    2    1    2    0    0  0.18039364848E-01 -0.12546858720E-01  0.53330982202E-02  0.10213184038E+01  0.10210680671E+01 0.  0.
     999903    2    3    3    0    0 -0.41880731560E-01 -0.12082752857E+00 -0.26090355879E-01  0.13210383186E+00  0.20431064251E-01 0.  0.
         14    1    1    2    0    0 -0.18039364848E-01  0.12546858720E-01 -0.53330982202E-02  0.22611596239E-01  0.00000000000E+00 0. -1.
     999901    1    3    3    0    0  0.59920096408E-01  0.10828066985E+00  0.31423454099E-01  0.88921457190E+00  0.88000000000E+00 0.  1.
        -11    1    4    4    0    0 -0.26280311556E-01 -0.47652948534E-01 -0.15120111867E-01  0.56483069882E-01  0.51100000000E-03 0.  1.
         11    1    4    4    0    0 -0.15600420004E-01 -0.73174580032E-01 -0.10970244013E-01  0.75620761977E-01  0.51100000000E-03 0. -1.
</event>
<event>
 8    1  0.5489035E+004  0.1043930E+01  0.7957747E-01            NaN
         13   -1    0    0    0    0  0.00000000000E+00  0.00000000000E+00  0.74505805969E-08  0.10566000000E+00  0.10566000000E+00 0.  1.
     999900   -1    0    0    0    0 -0.00000000000E+00 -0.00000000000E+00 -0.74505805969E-08  0.93827000000E+00  0.93827000000E+00 0. -1.
     999902    2    1    2    0    0 -0.67122610587E-02 -0.30874702774E-02  0.22872070825E-01  0.10198942236E+01  0.10196109596E+01 0.  0.
     999903    2    3    3    0    0 -0.23897249064E-01  0.46213814877E-01 -0.11459226931E+00  0.12769335762E+00  0.21619671500E-01 0.  0.
         14    1    1    2    0    0  0.67122610587E-02  0.30874702774E-02 -0.22872070825E-01  0.24035776356E-01  0.00000000000E+00 0. -1.
     999901    1    3    3    0    0  0.17184988006E-01 -0.49301285154E-01  0.13746434013E+00  0.89220086603E+00  0.88000000000E+00 0.  1.
        -11    1    4    4    0    0 -0.13616120022E-01  0.77935511858E-02 -0.43277378507E-01  0.46036189851E-01  0.51100000000E-03 0. -1.
         11    1    4    4    0    0 -0.10281129042E-01  0.38420263691E-01 -0.71314890802E-01  0.81657167766E-01  0.51100000000E-03 0.  1.
</event>
<event>
 8    1  0.5489035E+004  0.1043930E+01  0.7957747E-01            NaN
         13   -1    0    0    0    0  0.00000000000E+00  0.00000000000E+00  0.74505805969E-08  0.10566000000E+00  0.10566000000E+00 0.  1.
     999900   -1    0    0    0    0 -0.00000000000E+00 -0.00000000000E+00 -0.74505805969E-08  0.93827000000E+00  0.93827000000E+00 0.  1.
     999902    2    1    2    0    0  0.78500439569E-02 -0.60182352106E-02 -0.21088359591E-01  0.10206370557E+01  0.10203712257E+01 0.  0.
     999903    2    3    3    0    0 -0.78080499312E-03 -0.12532431806E+00  0.32277302294E-01  0.13094254247E+00  0.19933159046E-01 0.  0.
         14    1    1    2    0    0 -0.78500439569E-02  0.60182352106E-02  0.21088359591E-01  0.23292944327E-01  0.00000000000E+00 0.  1.
     999901    1    3    3    0    0  0.86308489500E-02  0.11930608285E+00 -0.53365661885E-01  0.88969451321E+00  0.88000000000E+00 0. -1.
        -11    1    4    4    0    0 -0.89341870474E-02 -0.36057314805E-01  0.69788620206E-02  0.37800995823E-01  0.51100000000E-03 0. -1.
         11    1    4    4    0    0  0.81533820542E-02 -0.89267003260E-01  0.25298440273E-01  0.93141546644E-01  0.51100000000E-03 0.  1.
</event>
<event>
 8    1  0.5489035E+004  0.1043930E+01  0.7957747E-01            NaN
         13   -1    0    0    0    0  0.00000000000E+00  0.00000000000E+00  0.74505805969E-08  0.10566000000E+00  0.10566000000E+00 0.  1.
     999900   -1    0    0    0    0 -0.00000000000E+00 -0.00000000000E+00 -0.74505805969E-08  0.93827000000E+00  0.93827000000E+00 0. -1.
     999902    2    1    2    0    0  0.12557276609E-01  0.15874049123E-01 -0.12093572592E-01  0.10203519354E+01  0.10200794807E+01 0.  0.
     999903    2    3    3    0    0  0.11700922187E+00  0.19681929153E-01  0.53342579612E-01  0.13175382669E+00  0.20859139740E-01 0.  0.
         14    1    1    2    0    0 -0.12557276609E-01 -0.15874049123E-01  0.12093572592E-01  0.23578064582E-01  0.00000000000E+00 0.  1.
     999901    1    3    3    0    0 -0.10445194526E+00 -0.38078800306E-02 -0.65436152204E-01  0.88859810873E+00  0.88000000000E+00 0. -1.
        -11    1    4    4    0    0  0.14283084141E-01  0.55013851628E-02  0.14279752471E-01  0.20939058788E-01  0.51100000000E-03 0. -1.
         11    1    4    4    0    0  0.10272613773E+00  0.14180543991E-01  0.39062827141E-01  0.11081476790E+00  0.51100000000E-03 0.  1.
</event>
<event>
 8    1  0.5489035E+004  0.1043930E+01  0.7957747E-01            NaN
         13   -1    0    0    0    0  0.00000000000E+00  0.00000000000E+00  0.74505805969E-08  0.10566000000E+00  0.10566000000E+00 0. -1.
     999900   -1    0    0    0    0 -0.00000000000E+00 -0.00000000000E+00 -0.74505805969E-08  0.93827000000E+00  0.93827000000E+00 0.  1.
     999902    2    1    2    0    0  0.34357124477E-02 -0.12366463301E-01 -0.20129319317E-01  0.10200569392E+01  0.10197775425E+01 0.  0.
     999903    2    3    3    0    0 -0.68373106795E-01 -0.10778010030E+00  0.22136652259E-01  0.13098625531E+00  0.19389067882E-01 0.  0.
         14    1    1    2    0    0 -0.34357124477E-02  0.12366463301E-01  0.20129319317E-01  0.23873060775E-01  0.00000000000E+00 0. -1.
     999901    1    3    3    0    0  0.71808819242E-01  0.95413636998E-01 -0.42265971576E-01  0.88907068392E+00  0.88000000000E+00 0.  1.
        -11    1    4    4    0    0 -0.38593883320E-01 -0.46545860575E-01  0.16400706251E-01  0.62651809654E-01  0.51100000000E-03 0. -1.
         11    1    4    4    0    0 -0.29779223475E-01 -0.61234239724E-01  0.57359460082E-02  0.68334445655E-01  0.51100000000E-03 0.  1.
</event>
<event>
 8    1  0.5489035E+004  0.1043930E+01  0.7957747E-01            NaN
         13   -1    0    0    0    0  0.00000000000E+00  0.00000000000E+00  0.74505805969E-08  0.10566000000E+00  0.10566000000E+00 0.  1.
     999900   -1    0    0    0    0 -0.00000000000E+00 -0.00000000000E+00 -0.74505805969E-08  0.93827000000E+00  0.93827000000E+00 0. -1.
     999902    2    1    2    0    0 -0.13997155826E-01  0.18037000967E-01 -0.67094706063E-02  0.10201335555E+01  0.10198559704E+01 0.  0.
     999903    2    3    3    0    0  0.76149411699E-01 -0.84418591647E-01 -0.55796399321E-01  0.12826300510E+00  0.20320649168E-01 0.  0.
         14    1    1    2    0    0  0.13997155826E-01 -0.18037000967E-01  0.67094706063E-02  0.23796444502E-01  0.00000000000E+00 0. -1.
     999901    1    3    3    0    0 -0.90146567525E-01  0.10245559261E+00  0.49086928715E-01  0.89187055040E+00  0.88000000000E+00 0.  1.
        -11    1    4    4    0    0  0.34258280118E-01 -0.29755279882E-01 -0.31464173872E-01  0.55220121296E-01  0.51100000000E-03 0.  1.
         11    1    4    4    0    0  0.41891131581E-01 -0.54663311765E-01 -0.24332225449E-01  0.73042883805E-01  0.51100000000E-03 0. -1.
</event>
<event>
 8    1  0.5489035E+004  0.1043930E+01  0.7957747E-01            NaN
         13   -1    0    0    0    0  0.00000000000E+00  0.00000000000E+00  0.74505805969E-08  0.10566000000E+00  0.10566000000E+00 0.  1.
     999900   -1    0    0    0    0 -0.00000000000E+00 -0.00000000000E+00 -0.74505805969E-08  0.93827000000E+00  0.93827000000E+00 0.  1.
     999902    2    1    2    0    0 -0.23277402642E-01 -0.26377789112E-02 -0.14830002436E-02  0.10204567250E+01  0.10201867147E+01 0.  0.
     999903    2    3    3    0    0  0.76082425772E-01 -0.26071633618E-01 -0.99176845188E-01  0.12918482010E+00  0.19606262596E-01 0.  0.
         14    1    1    2    0    0  0.23277402642E-01  0.26377789112E-02  0.14830002436E-02  0.23473275039E-01  0.00000000000E+00 0.  1.
     999901    1    3    3    0    0 -0.99359828414E-01  0.23433854707E-01  0.97693844944E-01  0.89127190486E+00  0.88000000000E+00 0.  1.
        -11    1    4    4    0    0  0.64354737529E-01 -0.20241776273E-01 -0.92460922211E-01  0.11445761227E+00  0.51100000000E-03 0. -1.
         11    1    4    4    0    0  0.11727688243E-01 -0.58298573453E-02 -0.67159229767E-02  0.14727207835E-01  0.51100000000E-03 0.  1.
</event>
<event>
 8    1  0.5489035E+004  0.1043930E+01  0.7957747E-01            NaN
         13   -1    0    0    0    0  0.00000000000E+00  0.00000000000E+00  0.74505805969E-08  0.10566000000E+00  0.10566000000E+00 0.  1.
     999900   -1    0    0    0    0 -0.00000000000E+00 -0.00000000000E+00 -0.74505805969E-08  0.93827000000E+00  0.93827000000E+00 0. -1.
     999902    2    1    2    0    0  0.76486715450E-02 -0.22276004567E-01  0.21364139161E-02  0.10202807543E+01  0.10200066328E+01 0.  0.
     999903    2    3    3    0    0 -0.62016756734E-01  0.73001655921E-01  0.83534926673E-01  0.12867724248E+00  0.20110417068E-01 0.  0.
         14    1    1    2    0    0 -0.76486715450E-02  0.22276004567E-01 -0.21364139161E-02  0.23649245660E-01  0.00000000000E+00 0.  1.
     999901    1    3    3    0    0  0.69665428279E-01 -0.95277660488E-01 -0.81398512757E-01  0.89160351186E+00  0.88000000000E+00 0. -1.
        -11    1    4    4    0    0 -0.54565658406E-01  0.71590738834E-01  0.79368842529E-01  0.12000966315E+00  0.51100000000E-03 0.  1.
         11    1    4    4    0    0 -0.74510983277E-02  0.14109170871E-02  0.41660841440E-02  0.86675793282E-02  0.51100000000E-03 0. -1.
</event>
<event>
 8    1  0.5489035E+004  0.1043930E+01  0.7957747E-01            NaN
         13   -1    0    0    0    0  0.00000000000E+00  0.00000000000E+00  0.74505805969E-08  0.10566000000E+00  0.10566000000E+00 0. -1.
     999900   -1    0    0    0    0 -0.00000000000E+00 -0.00000000000E+00 -0.74505805969E-08  0.93827000000E+00  0.93827000000E+00 0. -1.
     999902    2    1    2    0    0 -0.21688007565E-01  0.45258023155E-02  0.82274199282E-02  0.10202964857E+01  0.10200227330E+01 0.  0.
     999903    2    3    3    0    0  0.74707047279E-01  0.18212892188E-01  0.10274127735E+00  0.12989645636E+00  0.20111363689E-01 0.  0.
         14    1    1    2    0    0  0.21688007565E-01 -0.45258023155E-02 -0.82274199282E-02  0.23633514284E-01  0.00000000000E+00 0. -1.
     999901    1    3    3    0    0 -0.96395054845E-01 -0.13687089872E-01 -0.94513857420E-01  0.89040002935E+00  0.88000000000E+00 0. -1.
        -11    1    4    4    0    0  0.34670838817E-01  0.14873044870E-01  0.36966865785E-01  0.52821253439E-01  0.51100000000E-03 0.  1.
         11    1    4    4    0    0  0.40036208463E-01  0.33398473177E-02  0.65774411563E-01  0.77075202923E-01  0.51100000000E-03 0. -1.
</event>
<event>
 8    1  0.5489035E+004  0.1043930E+01  0.7957747E-01            NaN
         13   -1    0    0    0    0  0.00000000000E+00  0.00000000000E+00  0.74505805969E-08  0.10566000000E+00  0.10566000000E+00 0. -1.
     999900   -1    0    0    0    0 -0.00000000000E+00 -0.00000000000E+00 -0.74505805969E-08  0.93827000000E+00  0.93827000000E+00 0.  1.
     999902    2    1    2    0    0  0.18747074488E-01 -0.14515017443E-01  0.24904979020E-02  0.10200900941E+01  0.10198114821E+01 0.  0.
     999903    2    3    3    0    0  0.35403755791E-01  0.45220217590E-01  0.11574386050E+00  0.13066777177E+00  0.19471295073E-01 0.  0.
         14    1    1    2    0    0 -0.18747074488E-01  0.14515017443E-01 -0.24904979020E-02  0.23839905894E-01  0.00000000000E+00 0.  1.
     999901    1    3    3    0    0 -0.16656681302E-01 -0.59735235033E-01 -0.11325336260E+00  0.88942232234E+00  0.88000000000E+00 0.  1.
        -11    1    4    4    0    0  0.12798052627E-01  0.67358440937E-02  0.17143232932E-01  0.22434645151E-01  0.51100000000E-03 0.  1.
         11    1    4    4    0    0  0.22605703164E-01  0.38484373496E-01  0.98600627569E-01  0.10823312662E+00  0.51100000000E-03 0. -1.
</event>
<event>
 8    1  0.5489035E+004  0.1043930E+01  0.7957747E-01            NaN
         13   -1    0    0    0    0  0.00000000000E+00  0.00000000000E+00  0.74505805969E-08  0.10566000000E+00  0.10566000000E+00 0.  1.
     999900   -1    0    0    0    0 -0.00000000000E+00 -0.00000000000E+00 -0.74505805969E-08  0.93827000000E+00  0.93827000000E+00 0. -1.
     999902    2    1    2    0    0 -0.20785352929E-01  0.50025081221E-02  0.10651354023E-01  0.10200447048E+01  0.10197650183E+01 0.  0.
     999903    2    3    3    0    0 -0.10972000077E+00 -0.63142168009E-01  0.34318557970E-01  0.13262529719E+00  0.19654365513E-01 0.  0.
         14    1    1    2    0    0  0.20785352929E-01 -0.50025081221E-02 -0.10651354023E-01  0.23885295192E-01  0.00000000000E+00 0.  1.
     999901    1    3    3    0    0  0.88934647844E-01  0.68144676131E-01 -0.23667203948E-01  0.88741940762E+00  0.88000000000E+00 0. -1.
        -11    1    4    4    0    0 -0.37886792335E-01 -0.24246591825E-01  0.28158367921E-02  0.45072123385E-01  0.51100000000E-03 0. -1.
         11    1    4    4    0    0 -0.71833208437E-01 -0.38895576184E-01  0.31502721178E-01  0.87553173807E-01  0.51100000000E-03 0.  1.
</event>
<event>
 8    1  0.5489035E+004  0.1043930E+01  0.7957747E-01            NaN
         13   -1    0    0    0    0  0.00000000000E+00  0.00000000000E+00  0.74505805969E-08  0.10566000000E+00  0.10566000000E+00 0.  1.
     999900   -1    0    0    0    0 -0.00000000000E+00 -0.00000000000E+00 -0.74505805969E-08  0.93827000000E+00  0.93827000000E+00 0. -1.
     999902    2    1    2    0    0  0.70417608728E-02 -0.23239409031E-01 -0.19119599671E-02  0.10195720009E+01  0.10192809980E+01 0.  0.
     999903    2    3    3    0    0  0.91226865319E-01  0.37517583629E-01  0.81690337319E-01  0.12953386237E+00  0.19385568110E-01 0.  0.
         14    1    1    2    0    0 -0.70417608728E-02  0.23239409031E-01  0.19119599671E-02  0.24357999081E-01  0.00000000000E+00 0.  1.
     999901    1    3    3    0    0 -0.84185104446E-01 -0.60756992660E-01 -0.83602297286E-01  0.89003813855E+00  0.88000000000E+00 0. -1.
        -11    1    4    4    0    0  0.39050517963E-01  0.17749322736E-01  0.23495541400E-01  0.48910970113E-01  0.51100000000E-03 0. -1.
         11    1    4    4    0    0  0.52176347356E-01  0.19768260893E-01  0.58194795919E-01  0.80622892253E-01  0.51100000000E-03 0.  1.
</event>
<event>
 8    1  0.5489035E+004  0.1043930E+01  0.7957747E-01            NaN
         13   -1    0    0    0    0  0.00000000000E+00  0.00000000000E+00  0.74505805969E-08  0.10566000000E+00  0.10566000000E+00 0. -1.
     999900   -1    0    0    0    0 -0.00000000000E+00 -0.00000000000E+00 -0.74505805969E-08  0.93827000000E+00  0.93827000000E+00 0. -1.
     999902    2    1    2    0    0 -0.16559817376E-01  0.15083449812E-01  0.64104596888E-02  0.10206312446E+01  0.10203652804E+01 0.  0.
     999903    2    3    3    0    0 -0.68081585528E-03 -0.64511228492E-01 -0.11081331167E+00  0.12915557579E+00  0.15472899005E-01 0.  0.
         14    1    1    2    0    0  0.16559817376E-01 -0.15083449812E-01 -0.64104596888E-02  0.23298755400E-01  0.00000000000E+00 0.  1.
     999901    1    3    3    0    0 -0.15879001521E-01  0.79594678304E-01  0.11722377136E+00  0.89147566881E+00  0.88000000000E+00 0.  1.
        -11    1    4    4    0    0 -0.79171407623E-02 -0.32622178783E-01 -0.59044709168E-01  0.67922208946E-01  0.51100000000E-03 0.  1.
         11    1    4    4    0    0  0.72363249070E-02 -0.31889049709E-01 -0.51768602501E-01  0.61233366847E-01  0.51100000000E-03 0. -1.
</event>
<event>
 8    1  0.5489035E+004  0.1043930E+01  0.7957747E-01            NaN
         13   -1    0    0    0    0  0.00000000000E+00  0.00000000000E+00  0.74505805969E-08  0.10566000000E+00  0.10566000000E+00 0.  1.
     999900   -1    0    0    0    0 -0.00000000000E+00 -0.00000000000E+00 -0.74505805969E-08  0.93827000000E+00  0.93827000000E+00 0. -1.
     999902    2    1    2    0    0  0.61530827280E-02  0.82428571282E-02  0.21672383828E-01  0.10199404743E+01  0.10196583123E+01 0.  0.
     999903    2    3    3    0    0  0.99072163200E-01  0.39752910505E-01  0.76196945340E-01  0.13281040113E+00  0.20905519723E-01 0.  0.
         14    1    1    2    0    0 -0.61530827280E-02 -0.82428571282E-02 -0.21672383828E-01  0.23989525661E-01  0.00000000000E+00 0. -1.
     999901    1    3    3    0    0 -0.92919080472E-01 -0.31510053377E-01 -0.54524561512E-01  0.88713007321E+00  0.88000000000E+00 0. -1.
        -11    1    4    4    0    0  0.36164177973E-01  0.14881543520E-01  0.15996770465E-01  0.42254773603E-01  0.51100000000E-03 0.  1.
         11    1    4    4    0    0  0.62907985228E-01  0.24871366985E-01  0.60200174875E-01  0.90555627528E-01  0.51100000000E-03 0. -1.
</event>
<event>
 8    1  0.5489035E+004  0.1043930E+01  0.7957747E-01            NaN
         13   -1    0    0    0    0  0.00000000000E+00  0.00000000000E+00  0.74505805969E-08  0.10566000000E+00  0.10566000000E+00 0. -1.
     999900   -1    0    0    0    0 -0.00000000000E+00 -0.00000000000E+00 -0.74505805969E-08  0.93827000000E+00  0.93827000000E+00 0.  1.
     999902    2    1    2    0    0  0.20660555958E-02 -0.86930354941E-04 -0.23824620773E-01  0.10200158055E+01  0.10197354337E+01 0.  0.
     999903    2    3    3    0    0  0.57256339613E-01  0.78819841637E-01  0.81578184600E-01  0.12851033863E+00  0.19210701979E-01 0.  0.
         14    1    1    2    0    0 -0.20660555958E-02  0.86930354941E-04  0.23824620773E-01  0.23914194479E-01  0.00000000000E+00 0. -1.
     999901    1    3    3    0    0 -0.55190284017E-01 -0.78906771992E-01 -0.10540280537E+00  0.89150546689E+00  0.88000000000E+00 0. -1.
        -11    1    4    4    0    0  0.25869076296E-01  0.25067985881E-01  0.39006982792E-01  0.53098200083E-01  0.51100000000E-03 0. -1.
         11    1    4    4    0    0  0.31387263316E-01  0.53751855757E-01  0.42571201808E-01  0.75412138547E-01  0.51100000000E-03 0.  1.
</event>
<event>
 8    1  0.5489035E+004  0.1043930E+01  0.7957747E-01            NaN
         13   -1    0    0    0    0  0.00000000000E+00  0.00000000000E+00  0.74505805969E-08  0.10566000000E+00  0.10566000000E+00 0. -1.
     999900   -1    0    0    0    0 -0.00000000000E+00 -0.00000000000E+00 -0.74505805969E-08  0.93827000000E+00  0.93827000000E+00 0. -1.
     999902    2    1    2    0    0 -0.14276638666E-01 -0.97510171765E-02 -0.16545285203E-01  0.10199998682E+01  0.10197191181E+01 0.  0.
     999903    2    3    3    0    0 -0.12267558680E+00 -0.40221908704E-01 -0.23347295304E-01  0.13279917241E+00  0.20577231542E-01 0.  0.
         14    1    1    2    0    0  0.14276638666E-01  0.97510171765E-02  0.16545285203E-01  0.23930131843E-01  0.00000000000E+00 0. -1.
     999901    1    3    3    0    0  0.10839894814E+00  0.30470891528E-01  0.68020101007E-02  0.88720069574E+00  0.88000000000E+00 0. -1.
        -11    1    4    4    0    0 -0.25102888625E-01 -0.17123120866E-01 -0.36167382166E-02  0.30605525675E-01  0.51100000000E-03 0. -1.
         11    1    4    4    0    0 -0.97572698179E-01 -0.23098787838E-01 -0.19730557087E-01  0.10219364674E+00  0.51100000000E-03 0.  1.
</event>
<event>
 8    1  0.5489035E+004  0.1043930E+01  0.7957747E-01            NaN
         13   -1    0    0    0    0  0.00000000000E+00  0.00000000000E+00  0.74505805969E-08  0.10566000000E+00  0.10566000000E+00 0.  1.
     999900   -1    0    0    0    0 -0.00000000000E+00 -0.00000000000E+00 -0.74505805969E-08  0.93827000000E+00  0.93827000000E+00 0. -1.
     999902    2    1    2    0    0  0.20505331879E-01  0.12533069992E-01 -0.64436417914E-02  0.10190489430E+01  0.10187451503E+01 0.  0.
     999903    2    3    3    0    0 -0.11714138521E+00  0.21824396095E-01  0.39604032909E-01  0.12711097663E+00  0.19756329745E-01 0.  0.
         14    1    1    2    0    0 -0.20505331879E-01 -0.12533069992E-01  0.64436417914E-02  0.24881057020E-01  0.00000000000E+00 0.  1.
     999901    1    3    3    0    0  0.13764671709E+00 -0.92913261024E-02 -0.46047674700E-01  0.89193796635E+00  0.88000000000E+00 0.  1.
        -11    1    4    4    0    0 -0.21057884513E-01  0.10928224757E-01  0.40051427183E-02  0.24065803243E-01  0.51100000000E-03 0.  1.
         11    1    4    4    0    0 -0.96083500693E-01  0.10896171337E-01  0.35598890190E-01  0.10304517339E+00  0.51100000000E-03 0. -1.
</event>
<event>
 8    1  0.5489035E+004  0.1043930E+01  0.7957747E-01            NaN
         13   -1    0    0    0    0  0.00000000000E+00  0.00000000000E+00  0.74505805969E-08  0.10566000000E+00  0.10566000000E+00 0.  1.
     999900   -1    0    0    0    0 -0.00000000000E+00 -0.00000000000E+00 -0.74505805969E-08  0.93827000000E+00  0.93827000000E+00 0. -1.
     999902    2    1    2    0    0  0.15681715181E-01 -0.15654447821E-01  0.99284396719E-02  0.10196493113E+01  0.10193601749E+01 0.  0.
     999903    2    3    3    0    0  0.23807069575E-01  0.41571341430E-01 -0.11777926569E+00  0.12855443965E+00  0.18956147757E-01 0.  0.
         14    1    1    2    0    0 -0.15681715181E-01  0.15654447821E-01 -0.99284396719E-02  0.24280688662E-01  0.00000000000E+00 0. -1.
     999901    1    3    3    0    0 -0.81253543937E-02 -0.57225789251E-01  0.12770770536E+00  0.89109487169E+00  0.88000000000E+00 0.  1.
        -11    1    4    4    0    0  0.13837397546E-01  0.94010203405E-02 -0.52405729278E-01  0.55013401426E-01  0.51100000000E-03 0.  1.
         11    1    4    4    0    0  0.99696720282E-02  0.32170321090E-01 -0.65373536410E-01  0.73541038224E-01  0.51100000000E-03 0. -1.
</event>
<event>
 8    1  0.5489035E+004  0.1043930E+01  0.7957747E-01            NaN
         13   -1    0    0    0    0  0.00000000000E+00  0.00000000000E+00  0.74505805969E-08  0.10566000000E+00  0.10566000000E+00 0.  1.
     999900   -1    0    0    0    0 -0.00000000000E+00 -0.00000000000E+00 -0.74505805969E-08  0.93827000000E+00  0.93827000000E+00 0. -1.
     999902    2    1    2    0    0  0.10278605951E-01  0.20625329409E-01 -0.77686527216E-02  0.10196111612E+01  0.10193211046E+01 0.  0.
     999903    2    3    3    0    0  0.10237580544E+00  0.66137009556E-01  0.46205216814E-01  0.13199278278E+00  0.20790937310E-01 0.  0.
         14    1    1    2    0    0 -0.10278605951E-01 -0.20625329409E-01  0.77686527216E-02  0.24318838759E-01  0.00000000000E+00 0. -1.
     999901    1    3    3    0    0 -0.92097199486E-01 -0.45511680148E-01 -0.53973869536E-01  0.88761837846E+00  0.88000000000E+00 0. -1.
        -11    1    4    4    0    0  0.88502134722E-01  0.59571593473E-01  0.47078651938E-01  0.11661073359E+00  0.51100000000E-03 0. -1.
         11    1    4    4    0    0  0.13873670714E-01  0.65654160835E-02 -0.87343512439E-03  0.15382049192E-01  0.51100000000E-03 0.  1.
</event>
<event>
 8    1  0.5489035E+004  0.1043930E+01  0.7957747E-01            NaN
         13   -1    0    0    0    0  0.00000000000E+00  0.00000000000E+00  0.74505805969E-08  0.10566000000E+00  0.10566000000E+00 0.  1.
     999900   -1    0    0    0    0 -0.00000000000E+00 -0.00000000000E+00 -0.74505805969E-08  0.93827000000E+00  0.93827000000E+00 0. -1.
     999902    2    1    2    0    0 -0.24593564850E-02 -0.85871185343E-02  0.22758799707E-01  0.10194810736E+01  0.10191878676E+01 0.  0.
     999903    2    3    3    0    0 -0.52060368145E-01 -0.37775672788E-01 -0.10867974791E+00  0.12785989625E+00  0.19989549232E-01 0.  0.
         14    1    1    2    0    0  0.24593564850E-02  0.85871185343E-02 -0.22758799707E-01  0.24448926421E-01  0.00000000000E+00 0. -1.
     999901    1    3    3    0    0  0.49601011660E-01  0.29188554254E-01  0.13143854762E+00  0.89162117733E+00  0.88000000000E+00 0.  1.
        -11    1    4    4    0    0 -0.53705156659E-01 -0.37378979316E-01 -0.10417496467E+00  0.12302079633E+00  0.51100000000E-03 0.  1.
         11    1    4    4    0    0  0.16447885142E-02 -0.39669347205E-03 -0.45047832426E-02  0.48390999194E-02  0.51100000000E-03 0. -1.
</event>
<event>
 8    1  0.5489035E+004  0.1043930E+01  0.7957747E-01            NaN
         13   -1    0    0    0    0  0.00000000000E+00  0.00000000000E+00  0.74505805969E-08  0.10566000000E+00  0.10566000000E+00 0. -1.
     999900   -1    0    0    0    0 -0.00000000000E+00 -0.00000000000E+00 -0.74505805969E-08  0.93827000000E+00  0.93827000000E+00 0.  1.
     999902    2    1    2    0    0 -0.71402396093E-02  0.10887001355E-01  0.20809260392E-01  0.10193834088E+01  0.10190878270E+01 0.  0.
     999903    2    3    3    0    0  0.31278114716E-01  0.12461228619E+00 -0.12387901441E-01  0.13061377506E+00  0.19998895030E-01 0.  0.
         14    1    1    2    0    0  0.71402396093E-02 -0.10887001355E-01 -0.20809260392E-01  0.24546591174E-01  0.00000000000E+00 0.  1.
     999901    1    3    3    0    0 -0.38418354325E-01 -0.11372528484E+00  0.33197161833E-01  0.88876963377E+00  0.88000000000E+00 0. -1.
        -11    1    4    4    0    0  0.28449195286E-01  0.87582778155E-01 -0.15331473348E-01  0.93356386701E-01  0.51100000000E-03 0. -1.
         11    1    4    4    0    0  0.28289194299E-02  0.37029508035E-01  0.29435719068E-02  0.37257388354E-01  0.51100000000E-03 0.  1.
</event>
<event>
 8    1  0.5489035E+004  0.1043930E+01  0.7957747E-01            NaN
         13   -1    0    0    0    0  0.00000000000E+00  0.00000000000E+00  0.74505805969E-08  0.10566000000E+00  0.10566000000E+00 0.  1.
     999900   -1    0    0    0    0 -0.00000000000E+00 -0.00000000000E+00 -0.74505805969E-08  0.93827000000E+00  0.93827000000E+00 0.  1.
     999902    2    1    2    0    0 -0.16892683265E-01  0.13284575891E-01  0.96012243941E-02  0.10203922385E+01  0.10201207253E+01 0.  0.
     999903    2    3    3    0    0 -0.44238816861E-02  0.45757757172E-01 -0.12013105647E+00  0.13020099886E+00  0.20186290040E-01 0.  0.
         14    1    1    2    0    0  0.16892683265E-01 -0.13284575891E-01 -0.96012243941E-02  0.23537761456E-01  0.00000000000E+00 0.  1.
     999901    1    3    3    0    0 -0.12468801578E-01 -0.32473181281E-01  0.12973228086E+00  0.89019123969E+00  0.88000000000E+00 0. -1.
        -11    1    4    4    0    0  0.26683269330E-02  0.32644039002E-01 -0.61244330893E-01  0.69454175098E-01  0.51100000000E-03 0.  1.
         11    1    4    4    0    0 -0.70922086191E-02  0.13113718170E-01 -0.58886725573E-01  0.60746823761E-01  0.51100000000E-03 0. -1.
</event>
<event>
 8    1  0.5489035E+004  0.1043930E+01  0.7957747E-01            NaN
         13   -1    0    0    0    0  0.00000000000E+00  0.00000000000E+00  0.74505805969E-08  0.10566000000E+00  0.10566000000E+00 0.  1.
     999900   -1    0    0    0    0 -0.00000000000E+00 -0.00000000000E+00 -0.74505805969E-08  0.93827000000E+00  0.93827000000E+00 0.  1.
     999902    2    1    2    0    0 -0.20185056602E-01 -0.23053613226E-01  0.19675377352E-02  0.10132253294E+01  0.10127599870E+01 0.  0.
     999903    2    3    3    0    0  0.30185389896E-01 -0.57962636679E-01 -0.10496345548E+00  0.12463652735E+00  0.15687955559E-01 0.  0.
         14    1    1    2    0    0  0.20185056602E-01  0.23053613226E-01 -0.19675377352E-02  0.30704670614E-01  0.00000000000E+00 0.  1.
     999901    1    3    3    0    0 -0.50370446498E-01  0.34909023453E-01  0.10693099321E+00  0.88858880204E+00  0.88000000000E+00 0. -1.
        -11    1    4    4    0    0  0.13484271930E-01 -0.20319101024E-01 -0.52900085139E-01  0.58252653027E-01  0.51100000000E-03 0. -1.
         11    1    4    4    0    0  0.16701117966E-01 -0.37643535654E-01 -0.52063370337E-01  0.66383874320E-01  0.51100000000E-03 0.  1.
</event>
<event>
 8    1  0.5489035E+004  0.1043930E+01  0.7957747E-01            NaN
         13   -1    0    0    0    0  0.00000000000E+00  0.00000000000E+00  0.74505805969E-08  0.10566000000E+00  0.10566000000E+00 0.  1.
     999900   -1    0    0    0    0 -0.00000000000E+00 -0.00000000000E+00 -0.74505805969E-08  0.93827000000E+00  0.93827000000E+00 0.  1.
     999902    2    1    2    0    0  0.21987243440E-01  0.15555717827E-01  0.67726120911E-02  0.10161579366E+01  0.10157783541E+01 0.  0.
     999903    2    3    3    0    0 -0.99830273396E-01  0.70770065901E-01  0.23250787215E-01  0.12589973703E+00  0.18320997895E-01 0.  0.
         14    1    1    2    0    0 -0.21987243440E-01 -0.15555717827E-01 -0.67726120911E-02  0.27772063404E-01  0.00000000000E+00 0.  1.
     999901    1    3    3    0    0  0.12181751684E+00 -0.55214348074E-01 -0.16478175124E-01  0.89025819957E+00  0.88000000000E+00 0. -1.
        -11    1    4    4    0    0 -0.81882928171E-01  0.49741984197E-01  0.14515232729E-01  0.96902177580E-01  0.51100000000E-03 0.  1.
         11    1    4    4    0    0 -0.17947345225E-01  0.21028081704E-01  0.87355544861E-02  0.28997559448E-01  0.51100000000E-03 0. -1.
</event>
<event>
 8    1  0.5489035E+004  0.1043930E+01  0.7957747E-01            NaN
         13   -1    0    0    0    0  0.00000000000E+00  0.00000000000E+00  0.74505805969E-08  0.10566000000E+00  0.10566000000E+00 0.  1.
     999900   -1    0    0    0    0 -0.00000000000E+00 -0.00000000000E+00 -0.74505805969E-08  0.93827000000E+00  0.93827000000E+00 0. -1.
     999902    2    1    2    0    0 -0.13766203483E-01  0.51990508392E-02 -0.14339133118E-01  0.10233837296E+01  0.10231774572E+01 0.  0.
     999903    2    3    3    0    0 -0.11894721680E+00 -0.52796070909E-01 -0.28804754247E-01  0.13510689557E+00  0.22097372586E-01 0.  0.
         14    1    1    2    0    0  0.13766203483E-01 -0.51990508392E-02  0.14339133118E-01  0.20546270380E-01  0.00000000000E+00 0.  1.
     999901    1    3    3    0    0  0.10518101332E+00  0.57995121748E-01  0.14465621129E-01  0.88827683405E+00  0.88000000000E+00 0. -1.
        -11    1    4    4    0    0 -0.10043967386E-01 -0.15897584681E-02 -0.80684417405E-02  0.12991131050E-01  0.51100000000E-03 0. -1.
         11    1    4    4    0    0 -0.10890324942E+00 -0.51206312440E-01 -0.20736312506E-01  0.12211576452E+00  0.51100000000E-03 0.  1.
</event>
<event>
 8    1  0.5489035E+004  0.1043930E+01  0.7957747E-01            NaN
         13   -1    0    0    0    0  0.00000000000E+00  0.00000000000E+00  0.74505805969E-08  0.10566000000E+00  0.10566000000E+00 0. -1.
     999900   -1    0    0    0    0 -0.00000000000E+00 -0.00000000000E+00 -0.74505805969E-08  0.93827000000E+00  0.93827000000E+00 0.  1.
     999902    2    1    2    0    0  0.95533523352E-02  0.11895628104E-01 -0.16623072131E-01  0.10213667769E+01  0.10211175221E+01 0.  0.
     999903    2    3    3    0    0 -0.78969537714E-01 -0.82102568023E-01 -0.61663999370E-01  0.13080479251E+00  0.18177606098E-01 0.  0.
         14    1    1    2    0    0 -0.95533523352E-02 -0.11895628104E-01  0.16623072131E-01  0.22563223083E-01  0.00000000000E+00 0. -1.
     999901    1    3    3    0    0  0.88522890049E-01  0.93998196127E-01  0.45040927239E-01  0.89056198440E+00  0.88000000000E+00 0.  1.
        -11    1    4    4    0    0 -0.13468995837E-01 -0.15335400019E-01 -0.36491163009E-02  0.20740431851E-01  0.51100000000E-03 0.  1.
         11    1    4    4    0    0 -0.65500541877E-01 -0.66767168004E-01 -0.58014883069E-01  0.11006436066E+00  0.51100000000E-03 0. -1.
</event>
<event>
 8    1  0.5489035E+004  0.1043930E+01  0.7957747E-01            NaN
         13   -1    0    0    0    0  0.00000000000E+00  0.00000000000E+00  0.74505805969E-08  0.10566000000E+00  0.10566000000E+00 0. -1.
     999900   -1    0    0    0    0 -0.00000000000E+00 -0.00000000000E+00 -0.74505805969E-08  0.93827000000E+00  0.93827000000E+00 0.  1.
     999902    2    1    2    0    0  0.10495426908E-01 -0.17688533597E-01  0.14926492730E-01  0.10185166493E+01  0.10181995515E+01 0.  0.
     999903    2    3    3    0    0  0.60584559131E-01  0.10994980019E+00  0.12077425776E-01  0.12789406788E+00  0.21250435734E-01 0.  0.
         14    1    1    2    0    0 -0.10495426908E-01  0.17688533597E-01 -0.14926492730E-01  0.25413350665E-01  0.00000000000E+00 0.  1.
     999901    1    3    3    0    0 -0.50089132223E-01 -0.12763833378E+00  0.28490669546E-02  0.89062258146E+00  0.88000000000E+00 0. -1.
        -11    1    4    4    0    0  0.68380165611E-02  0.26393049084E-01 -0.28887267955E-02  0.27421841184E-01  0.51100000000E-03 0.  1.
         11    1    4    4    0    0  0.53746542570E-01  0.83556751103E-01  0.14966152571E-01  0.10047222669E+00  0.51100000000E-03 0. -1.
</event>
<event>
 8    1  0.5489035E+004  0.1043930E+01  0.7957747E-01            NaN
         13   -1    0    0    0    0  0.00000000000E+00  0.00000000000E+00  0.74505805969E-08  0.10566000000E+00  0.10566000000E+00 0. -1.
     999900   -1    0    0    0    0 -0.00000000000E+00 -0.00000000000E+00 -0.74505805969E-08  0.93827000000E+00  0.93827000000E+00 0.  1.
     999902    2    1    2    0    0  0.19212520066E-01  0.87359886840E-02 -0.71246686139E-02  0.10216544679E+01  0.10214115980E+01 0.  0.
     999903    2    3    3    0    0  0.36015520498E-01  0.97062963505E-01 -0.83268907597E-01  0.13380203627E+00  0.15841001716E-01 0.  0.
         14    1    1    2    0    0 -0.19212520066E-01 -0.87359886840E-02  0.71246686139E-02  0.22275532057E-01  0.00000000000E+00 0. -1.
     999901    1    3    3    0    0 -0.16803000433E-01 -0.88326974821E-01  0.76144238983E-01  0.88785243168E+00  0.88000000000E+00 0. -1.
        -11    1    4    4    0    0  0.16142506243E-01  0.64791143932E-01 -0.50980792434E-01  0.84010565753E-01  0.51100000000E-03 0. -1.
         11    1    4    4    0    0  0.19873014255E-01  0.32271819573E-01 -0.32288115162E-01  0.49791470513E-01  0.51100000000E-03 0.  1.
</event>
<event>
 8    1  0.5489035E+004  0.1043930E+01  0.7957747E-01            NaN
         13   -1    0    0    0    0  0.00000000000E+00  0.00000000000E+00  0.74505805969E-08  0.10566000000E+00  0.10566000000E+00 0. -1.
     999900   -1    0    0    0    0 -0.00000000000E+00 -0.00000000000E+00 -0.74505805969E-08  0.93827000000E+00  0.93827000000E+00 0.  1.
     999902    2    1    2    0    0  0.23082882271E-01  0.41726270055E-02 -0.27555635436E-03  0.10204713939E+01  0.10202017249E+01 0.  0.
     999903    2    3    3    0    0  0.12743097917E-01  0.12883017976E+00  0.12234438358E-01  0.13153780998E+00  0.19822013302E-01 0.  0.
         14    1    1    2    0    0 -0.23082882271E-01 -0.41726270055E-02  0.27555635436E-03  0.23458606126E-01  0.00000000000E+00 0.  1.
     999901    1    3    3    0    0  0.10339784354E-01 -0.12465755276E+00 -0.12509994713E-01  0.88893358389E+00  0.88000000000E+00 0. -1.
        -11    1    4    4    0    0  0.45973028921E-02  0.11759991073E-01 -0.35513073297E-02  0.13126518528E-01  0.51100000000E-03 0.  1.
         11    1    4    4    0    0  0.81457950245E-02  0.11707018869E+00  0.15785745688E-01  0.11841129146E+00  0.51100000000E-03 0. -1.
</event>
<event>
 8    1  0.5489035E+004  0.1043930E+01  0.7957747E-01            NaN
         13   -1    0    0    0    0  0.00000000000E+00  0.00000000000E+00  0.74505805969E-08  0.10566000000E+00  0.10566000000E+00 0.  1.
     999900   -1    0    0    0    0 -0.00000000000E+00 -0.00000000000E+00 -0.74505805969E-08  0.93827000000E+00  0.93827000000E+00 0.  1.
     999902    2    1    2    0    0  0.92193341255E-02  0.19670121142E-01 -0.24364398974E-01  0.10112874859E+01  0.10107605283E+01 0.  0.
     999903    2    3    3    0    0  0.65989823360E-01  0.10431354705E+00  0.21985000678E-02  0.12500706439E+00  0.19645861155E-01 0.  0.
         14    1    1    2    0    0 -0.92193341255E-02 -0.19670121142E-01  0.24364398974E-01  0.32642514070E-01  0.00000000000E+00 0.  1.
     999901    1    3    3    0    0 -0.56770489234E-01 -0.84643425905E-01 -0.26562899042E-01  0.88628042154E+00  0.88000000000E+00 0.  1.
        -11    1    4    4    0    0  0.10928064180E-01  0.18891280453E-01 -0.70871692885E-02  0.22951953151E-01  0.51100000000E-03 0.  1.
         11    1    4    4    0    0  0.55061759179E-01  0.85422266594E-01  0.92856693562E-02  0.10205511124E+00  0.51100000000E-03 0. -1.
</event>
<event>
 8    1  0.5489035E+004  0.1043930E+01  0.7957747E-01            NaN
         13   -1    0    0    0    0  0.00000000000E+00  0.00000000000E+00  0.74505805969E-08  0.10566000000E+00  0.10566000000E+00 0. -1.
     999900   -1    0    0    0    0 -0.00000000000E+00 -0.00000000000E+00 -0.74505805969E-08  0.93827000000E+00  0.93827000000E+00 0.  1.
     999902    2    1    2    0    0 -0.11643422045E-01  0.21068653108E-01 -0.48424192652E-02  0.10193758467E+01  0.10190800804E+01 0.  0.
     999903    2    3    3    0    0  0.64108860604E-01  0.11312500911E+00 -0.14445954153E-01  0.13128519315E+00  0.10950007076E-01 0.  0.
         14    1    1    2    0    0  0.11643422045E-01 -0.21068653108E-01  0.48424192652E-02  0.24554153316E-01  0.00000000000E+00 0. -1.
     999901    1    3    3    0    0 -0.75752282650E-01 -0.92056356005E-01  0.96035348880E-02  0.88809065353E+00  0.88000000000E+00 0. -1.
        -11    1    4    4    0    0  0.43699374896E-01  0.66808541831E-01 -0.10398706571E-01  0.80507209909E-01  0.51100000000E-03 0.  1.
         11    1    4    4    0    0  0.20409485708E-01  0.46316467282E-01 -0.40472475823E-02  0.50777983244E-01  0.51100000000E-03 0. -1.
</event>
<event>
 8    1  0.5489035E+004  0.1043930E+01  0.7957747E-01            NaN
         13   -1    0    0    0    0  0.00000000000E+00  0.00000000000E+00  0.74505805969E-08  0.10566000000E+00  0.10566000000E+00 0.  1.
     999900   -1    0    0    0    0 -0.00000000000E+00 -0.00000000000E+00 -0.74505805969E-08  0.93827000000E+00  0.93827000000E+00 0. -1.
     999902    2    1    2    0    0  0.75512992785E-02  0.62557038251E-02  0.21811031041E-01  0.10200160495E+01  0.10197356836E+01 0.  0.
     999903    2    3    3    0    0 -0.68148323628E-01  0.98646556026E-01 -0.45526318390E-01  0.12939782544E+00  0.17199259701E-01 0.  0.
         14    1    1    2    0    0 -0.75512992785E-02 -0.62557038251E-02 -0.21811031041E-01  0.23913950452E-01  0.00000000000E+00 0. -1.
     999901    1    3    3    0    0  0.75699622907E-01 -0.92390852201E-01  0.67337349431E-01  0.89061822410E+00  0.88000000000E+00 0.  1.
        -11    1    4    4    0    0 -0.24334648263E-01  0.42779369682E-01 -0.10933880064E-01  0.50418849955E-01  0.51100000000E-03 0. -1.
         11    1    4    4    0    0 -0.43813675365E-01  0.55867186344E-01 -0.34592438325E-01  0.78978975489E-01  0.51100000000E-03 0.  1.
</event>
<event>
 8    1  0.5489035E+004  0.1043930E+01  0.7957747E-01            NaN
         13   -1    0    0    0    0  0.00000000000E+00  0.00000000000E+00  0.74505805969E-08  0.10566000000E+00  0.10566000000E+00 0. -1.
     999900   -1    0    0    0    0 -0.00000000000E+00 -0.00000000000E+00 -0.74505805969E-08  0.93827000000E+00  0.93827000000E+00 0. -1.
     999902    2    1    2    0    0 -0.18605179253E-01  0.12147851365E-01  0.82946442930E-02  0.10202124092E+01  0.10199366823E+01 0.  0.
     999903    2    3    3    0    0  0.23603721293E-01  0.12785097117E+00  0.58814212108E-02  0.13163229081E+00  0.19734801215E-01 0.  0.
         14    1    1    2    0    0  0.18605179253E-01 -0.12147851365E-01 -0.82946442930E-02  0.23717590766E-01  0.00000000000E+00 0.  1.
     999901    1    3    3    0    0 -0.42208900546E-01 -0.11570311981E+00  0.24132230822E-02  0.88858011843E+00  0.88000000000E+00 0.  1.
        -11    1    4    4    0    0  0.14113730645E-02  0.46363270659E-01  0.83790019487E-02  0.47138239624E-01  0.51100000000E-03 0. -1.
         11    1    4    4    0    0  0.22192348228E-01  0.81487700513E-01 -0.24975807379E-02  0.84494051183E-01  0.51100000000E-03 0.  1.
</event>
<event>
 8    1  0.5489035E+004  0.1043930E+01  0.7957747E-01            NaN
         13   -1    0    0    0    0  0.00000000000E+00  0.00000000000E+00  0.74505805969E-08  0.10566000000E+00  0.10566000000E+00 0. -1.
     999900   -1    0    0    0    0 -0.00000000000E+00 -0.00000000000E+00 -0.74505805969E-08  0.93827000000E+00  0.93827000000E+00 0.  1.
     999902    2    1    2    0    0  0.13228706152E-01  0.10621104926E-01 -0.13597187134E-01  0.10221885641E+01  0.10219573233E+01 0.  0.
     999903    2    3    3    0    0  0.30680648883E-01  0.11952007570E+00  0.45817002138E-01  0.13331646869E+00  0.21159688771E-01 0.  0.
         14    1    1    2    0    0 -0.13228706152E-01 -0.10621104926E-01  0.13597187134E-01  0.21741435883E-01  0.00000000000E+00 0.  1.
     999901    1    3    3    0    0 -0.17451942731E-01 -0.10889897077E+00 -0.59414189273E-01  0.88887209543E+00  0.88000000000E+00 0.  1.
        -11    1    4    4    0    0  0.10118278939E-02  0.21379107131E-01  0.15394675542E-01  0.26369436351E-01  0.51100000000E-03 0.  1.
         11    1    4    4    0    0  0.29668820989E-01  0.98140968565E-01  0.30422326596E-01  0.10694703234E+00  0.51100000000E-03 0. -1.
</event>
<event>
 8    1  0.5489035E+004  0.1043930E+01  0.7957747E-01            NaN
         13   -1    0    0    0    0  0.00000000000E+00  0.00000000000E+00  0.74505805969E-08  0.10566000000E+00  0.10566000000E+00 0.  1.
     999900   -1    0    0    0    0 -0.00000000000E+00 -0.00000000000E+00 -0.74505805969E-08  0.93827000000E+00  0.93827000000E+00 0.  1.
     999902    2    1    2    0    0  0.93556396832E-02  0.39525828265E-03  0.22024343571E-01  0.10199976802E+01  0.10197168782E+01 0.  0.
     999903    2    3    3    0    0  0.24126208858E-01  0.67283884679E-01 -0.10463209101E+00  0.12829475291E+00  0.20061756264E-01 0.  0.
         14    1    1    2    0    0 -0.93556396832E-02 -0.39525828265E-03 -0.22024343571E-01  0.23932319835E-01  0.00000000000E+00 0. -1.
     999901    1    3    3    0    0 -0.14770569174E-01 -0.66888626397E-01  0.12665643458E+00  0.89170292725E+00  0.88000000000E+00 0. -1.
        -11    1    4    4    0    0  0.17072446120E-01  0.19478276807E-01 -0.37443545454E-01  0.45531877856E-01  0.51100000000E-03 0.  1.
         11    1    4    4    0    0  0.70537627379E-02  0.47805607872E-01 -0.67188545552E-01  0.82762875054E-01  0.51100000000E-03 0. -1.
</event>
<event>
 8    1  0.5489035E+004  0.1043930E+01  0.7957747E-01            NaN
         13   -1    0    0    0    0  0.00000000000E+00  0.00000000000E+00  0.74505805969E-08  0.10566000000E+00  0.10566000000E+00 0. -1.
     999900   -1    0    0    0    0 -0.00000000000E+00 -0.00000000000E+00 -0.74505805969E-08  0.93827000000E+00  0.93827000000E+00 0. -1.
     999902    2    1    2    0    0  0.19405645824E-01  0.32626871728E-02 -0.97551412319E-02  0.10219666897E+01  0.10217306533E+01 0.  0.
     999903    2    3    3    0    0  0.70582550847E-01  0.72314940570E-01 -0.86386614380E-01  0.13446476186E+00  0.20168736285E-01 0.  0.
         14    1    1    2    0    0 -0.19405645824E-01 -0.32626871728E-02  0.97551412319E-02  0.21963310267E-01  0.00000000000E+00 0. -1.
     999901    1    3    3    0    0 -0.51176905023E-01 -0.69052253398E-01  0.76631473148E-01  0.88750192788E+00  0.88000000000E+00 0. -1.
        -11    1    4    4    0    0  0.39784085014E-01  0.31985847206E-01 -0.32890341395E-01  0.60728111448E-01  0.51100000000E-03 0.  1.
         11    1    4    4    0    0  0.30798465833E-01  0.40329093364E-01 -0.53496272985E-01  0.73736650409E-01  0.51100000000E-03 0. -1.
</event>
<event>
 8    1  0.5489035E+004  0.1043930E+01  0.7957747E-01            NaN
         13   -1    0    0    0    0  0.00000000000E+00  0.00000000000E+00  0.74505805969E-08  0.10566000000E+00  0.10566000000E+00 0.  1.
     999900   -1    0    0    0    0 -0.00000000000E+00 -0.00000000000E+00 -0.74505805969E-08  0.93827000000E+00  0.93827000000E+00 0. -1.
     999902    2    1    2    0    0 -0.10917090409E-01 -0.19555171186E-01  0.89285480908E-02  0.10198197002E+01  0.10195346558E+01 0.  0.
     999903    2    3    3    0    0 -0.35952689877E-01 -0.12229105468E+00 -0.30279773137E-01  0.13262257703E+00  0.20595759552E-01 0.  0.
         14    1    1    2    0    0  0.10917090409E-01  0.19555171186E-01 -0.89285480908E-02  0.24110299752E-01  0.00000000000E+00 0. -1.
     999901    1    3    3    0    0  0.25035599467E-01  0.10273588349E+00  0.39208321228E-01  0.88719712322E+00  0.88000000000E+00 0.  1.
        -11    1    4    4    0    0 -0.18595441051E-01 -0.74780820506E-01 -0.27992930112E-01  0.81986747714E-01  0.51100000000E-03 0. -1.
         11    1    4    4    0    0 -0.17357248825E-01 -0.47510234176E-01 -0.22868430253E-02  0.50635829313E-01  0.51100000000E-03 0.  1.
</event>
<event>
 8    1  0.5489035E+004  0.1043930E+01  0.7957747E-01            NaN
         13   -1    0    0    0    0  0.00000000000E+00  0.00000000000E+00  0.74505805969E-08  0.10566000000E+00  0.10566000000E+00 0.  1.
     999900   -1    0    0    0    0 -0.00000000000E+00 -0.00000000000E+00 -0.74505805969E-08  0.93827000000E+00  0.93827000000E+00 0. -1.
     999902    2    1    2    0    0 -0.46823451376E-02  0.22490239840E-01  0.37189344284E-02  0.10206584354E+01  0.10203930988E+01 0.  0.
     999903    2    3    3    0    0 -0.41460888956E-01 -0.79258798245E-01  0.91776297463E-01  0.12967042922E+00  0.19762819260E-01 0.  0.
         14    1    1    2    0    0  0.46823451376E-02 -0.22490239840E-01 -0.37189344284E-02  0.23271564566E-01  0.00000000000E+00 0. -1.
     999901    1    3    3    0    0  0.36778543818E-01  0.10174903809E+00 -0.88057363035E-01  0.89098800622E+00  0.88000000000E+00 0. -1.
        -11    1    4    4    0    0 -0.13292561593E-01 -0.23654414913E-01  0.15826404203E-01  0.31415915227E-01  0.51100000000E-03 0.  1.
         11    1    4    4    0    0 -0.28168327363E-01 -0.55604383333E-01  0.75949893261E-01  0.98254513991E-01  0.51100000000E-03 0. -1.
</event>
<event>
 8    1  0.5489035E+004  0.1043930E+01  0.7957747E-01            NaN
         13   -1    0    0    0    0  0.00000000000E+00  0.00000000000E+00  0.74505805969E-08  0.10566000000E+00  0.10566000000E+00 0.  1.
     999900   -1    0    0    0    0 -0.00000000000E+00 -0.00000000000E+00 -0.74505805969E-08  0.93827000000E+00  0.93827000000E+00 0.  1.
     999902    2    1    2    0    0 -0.13020628810E-01 -0.16225999994E-01  0.31676491547E-01  0.10060325071E+01  0.10053184497E+01 0.  0.
     999903    2    3    3    0    0  0.47578291922E-01 -0.10462965953E+00 -0.17798668412E-01  0.11815006688E+00  0.20774652656E-01 0.  0.
         14    1    1    2    0    0  0.13020628810E-01  0.16225999994E-01 -0.31676491547E-01  0.37897492887E-01  0.00000000000E+00 0. -1.
     999901    1    3    3    0    0 -0.60598920733E-01  0.88403659531E-01  0.49475159959E-01  0.88788244023E+00  0.88000000000E+00 0.  1.
        -11    1    4    4    0    0  0.16959161735E-01 -0.58490220122E-01 -0.14896726376E-01  0.62696830816E-01  0.51100000000E-03 0.  1.
         11    1    4    4    0    0  0.30619130188E-01 -0.46139439403E-01 -0.29019420361E-02  0.55453236068E-01  0.51100000000E-03 0. -1.
</event>
<event>
 8    1  0.5489035E+004  0.1043930E+01  0.7957747E-01            NaN
         13   -1    0    0    0    0  0.00000000000E+00  0.00000000000E+00  0.74505805969E-08  0.10566000000E+00  0.10566000000E+00 0. -1.
     999900   -1    0    0    0    0 -0.00000000000E+00 -0.00000000000E+00 -0.74505805969E-08  0.93827000000E+00  0.93827000000E+00 0.  1.
     999902    2    1    2    0    0 -0.13503525123E-01 -0.10370055778E-01 -0.14663749637E-01  0.10214598242E+01  0.10212126437E+01 0.  0.
     999903    2    3    3    0    0  0.73899076360E-01 -0.32848080361E-01  0.99408273780E-01  0.12951985824E+00  0.18796779282E-01 0.  0.
         14    1    1    2    0    0  0.13503525123E-01  0.10370055778E-01  0.14663749637E-01  0.22470175812E-01  0.00000000000E+00 0. -1.
     999901    1    3    3    0    0 -0.87402601484E-01  0.22478024583E-01 -0.11407202342E+00  0.89193996595E+00  0.88000000000E+00 0.  1.
        -11    1    4    4    0    0  0.66333402141E-01 -0.34365280072E-01  0.94051225825E-01  0.12011239284E+00  0.51100000000E-03 0. -1.
         11    1    4    4    0    0  0.75656742193E-02  0.15171997113E-02  0.53570479548E-02  0.94074653944E-02  0.51100000000E-03 0.  1.
</event>
<event>
 8    1  0.5489035E+004  0.1043930E+01  0.7957747E-01            NaN
         13   -1    0    0    0    0  0.00000000000E+00  0.00000000000E+00  0.74505805969E-08  0.10566000000E+00  0.10566000000E+00 0. -1.
     999900   -1    0    0    0    0 -0.00000000000E+00 -0.00000000000E+00 -0.74505805969E-08  0.93827000000E+00  0.93827000000E+00 0.  1.
     999902    2    1    2    0    0 -0.80925213500E-02 -0.28025612497E-01 -0.64175280266E-03  0.10147523424E+01  0.10143327761E+01 0.  0.
     999903    2    3    3    0    0 -0.16537050376E-01 -0.29557494700E-01 -0.12020425242E+00  0.12662574777E+00  0.20926016633E-01 0.  0.
         14    1    1    2    0    0  0.80925213500E-02  0.28025612497E-01  0.64175280266E-03  0.29177657621E-01  0.00000000000E+00 0. -1.
     999901    1    3    3    0    0  0.84445290261E-02  0.15318822031E-02  0.11956249961E+00  0.88812659461E+00  0.88000000000E+00 0. -1.
        -11    1    4    4    0    0  0.11436902544E-02 -0.32115775113E-03 -0.32116048952E-01  0.32142073533E-01  0.51100000000E-03 0. -1.
         11    1    4    4    0    0 -0.17680740630E-01 -0.29236336949E-01 -0.88088203463E-01  0.94483674239E-01  0.51100000000E-03 0.  1.
</event>
<event>
 8    1  0.5489035E+004  0.1043930E+01  0.7957747E-01            NaN
         13   -1    0    0    0    0  0.00000000000E+00  0.00000000000E+00  0.74505805969E-08  0.10566000000E+00  0.10566000000E+00 0. -1.
     999900   -1    0    0    0    0 -0.00000000000E+00 -0.00000000000E+00 -0.74505805969E-08  0.93827000000E+00  0.93827000000E+00 0.  1.
     999902    2    1    2    0    0  0.58591206103E-02 -0.10988852699E-01  0.20650206132E-01  0.10198153739E+01  0.10195302260E+01 0.  0.
     999903    2    3    3    0    0  0.11688411436E+00 -0.40113132025E-01 -0.36858019144E-01  0.13049992434E+00  0.20018919224E-01 0.  0.
         14    1    1    2    0    0 -0.58591206103E-02  0.10988852699E-01 -0.20650206132E-01  0.24114626086E-01  0.00000000000E+00 0.  1.
     999901    1    3    3    0    0 -0.11102499375E+00  0.29124279326E-01  0.57508225276E-01  0.88931544958E+00  0.88000000000E+00 0. -1.
        -11    1    4    4    0    0  0.74750260401E-01 -0.17948809034E-01 -0.16016710258E-01  0.78527430266E-01  0.51100000000E-03 0. -1.
         11    1    4    4    0    0  0.42133853956E-01 -0.22164322991E-01 -0.20841308887E-01  0.51972494071E-01  0.51100000000E-03 0.  1.
</event>
<event>
 8    1  0.5489035E+004  0.1043930E+01  0.7957747E-01            NaN
         13   -1    0    0    0    0  0.00000000000E+00  0.00000000000E+00  0.74505805969E-08  0.10566000000E+00  0.10566000000E+00 0.  1.
     999900   -1    0    0    0    0 -0.00000000000E+00 -0.00000000000E+00 -0.74505805969E-08  0.93827000000E+00  0.93827000000E+00 0. -1.
     999902    2    1    2    0    0  0.15917892590E-01 -0.78184126564E-03 -0.16798738041E-01  0.10207742625E+01  0.10205115907E+01 0.  0.
     999903    2    3    3    0    0 -0.29424109577E-01 -0.11273899355E+00  0.53262542099E-01  0.12976422658E+00  0.20639700037E-01 0.  0.
         14    1    1    2    0    0 -0.15917892590E-01  0.78184126564E-03  0.16798738041E-01  0.23155737519E-01  0.00000000000E+00 0.  1.
     999901    1    3    3    0    0  0.45342002167E-01  0.11195715228E+00 -0.70061280141E-01  0.89101003590E+00  0.88000000000E+00 0. -1.
        -11    1    4    4    0    0 -0.28995342388E-01 -0.94074814014E-01  0.37563680099E-01  0.10536646381E+00  0.51100000000E-03 0. -1.
         11    1    4    4    0    0 -0.42876718869E-03 -0.18664179533E-01  0.15698862001E-01  0.24397762768E-01  0.51100000000E-03 0.  1.
</event>
<event>
 8    1  0.5489035E+004  0.1043930E+01  0.7957747E-01            NaN
         13   -1    0    0    0    0  0.00000000000E+00  0.00000000000E+00  0.74505805969E-08  0.10566000000E+00  0.10566000000E+00 0.  1.
     999900   -1    0    0    0    0 -0.00000000000E+00 -0.00000000000E+00 -0.74505805969E-08  0.93827000000E+00  0.93827000000E+00 0. -1.
     999902    2    1    2    0    0  0.25723859680E-01  0.39817057867E-03  0.59937482102E-02  0.10175140860E+01  0.10171711334E+01 0.  0.
     999903    2    3    3    0    0 -0.22774920134E-01  0.91749121647E-01  0.84514920565E-01  0.12798460224E+00  0.17340366290E-01 0.  0.
         14    1    1    2    0    0 -0.25723859680E-01 -0.39817057867E-03 -0.59937482102E-02  0.26415914034E-01  0.00000000000E+00 0. -1.
     999901    1    3    3    0    0  0.48498779814E-01 -0.91350951069E-01 -0.78521172355E-01  0.88952948372E+00  0.88000000000E+00 0. -1.
        -11    1    4    4    0    0 -0.15005419559E-01  0.32211755653E-01  0.25068516292E-01  0.43490820278E-01  0.51100000000E-03 0. -1.
         11    1    4    4    0    0 -0.77695005751E-02  0.59537365994E-01  0.59446404274E-01  0.84493781965E-01  0.51100000000E-03 0.  1.
</event>
<event>
 8    1  0.5489035E+004  0.1043930E+01  0.7957747E-01            NaN
         13   -1    0    0    0    0  0.00000000000E+00  0.00000000000E+00  0.74505805969E-08  0.10566000000E+00  0.10566000000E+00 0.  1.
     999900   -1    0    0    0    0 -0.00000000000E+00 -0.00000000000E+00 -0.74505805969E-08  0.93827000000E+00  0.93827000000E+00 0.  1.
     999902    2    1    2    0    0 -0.11923404962E-01  0.20128519830E-01  0.67233156876E-02  0.10195881046E+01  0.10192974910E+01 0.  0.
     999903    2    3    3    0    0  0.12281714513E+00 -0.10094969193E-01 -0.28864882202E-01  0.12810899946E+00  0.19818546261E-01 0.  0.
         14    1    1    2    0    0  0.11923404962E-01 -0.20128519830E-01 -0.67233156876E-02  0.24341895371E-01  0.00000000000E+00 0. -1.
     999901    1    3    3    0    0 -0.13474055009E+00  0.30223489023E-01  0.35588197890E-01  0.89147910517E+00  0.88000000000E+00 0.  1.
        -11    1    4    4    0    0  0.20294005415E-01  0.46112576605E-02 -0.94930558665E-03  0.20839209561E-01  0.51100000000E-03 0.  1.
         11    1    4    4    0    0  0.10252313972E+00 -0.14706226853E-01 -0.27915576615E-01  0.10726978990E+00  0.51100000000E-03 0. -1.
</event>
<event>
 8    1  0.5489035E+004  0.1043930E+01  0.7957747E-01            NaN
         13   -1    0    0    0    0  0.00000000000E+00  0.00000000000E+00  0.74505805969E-08  0.10566000000E+00  0.10566000000E+00 0. -1.
     999900   -1    0    0    0    0 -0.00000000000E+00 -0.00000000000E+00 -0.74505805969E-08  0.93827000000E+00  0.93827000000E+00 0. -1.
     999902    2    1    2    0    0  0.10334043740E-01  0.20559876651E-01 -0.67784934538E-02  0.10199414827E+01  0.10196593447E+01 0.  0.
     999903    2    3    3    0    0 -0.68618465095E-01  0.10833049413E+00  0.17934233134E-01  0.13171409134E+00  0.24144884115E-01 0.  0.
         14    1    1    2    0    0 -0.10334043740E-01 -0.20559876651E-01  0.67784934538E-02  0.23988517283E-01  0.00000000000E+00 0.  1.
     999901    1    3    3    0    0  0.78952508835E-01 -0.87770617475E-01 -0.24712726588E-01  0.88822739138E+00  0.88000000000E+00 0. -1.
        -11    1    4    4    0    0 -0.56602421857E-01  0.73086371354E-01  0.61203733570E-02  0.92645409648E-01  0.51100000000E-03 0. -1.
         11    1    4    4    0    0 -0.12016043238E-01  0.35244122772E-01  0.11813859778E-01  0.39068681689E-01  0.51100000000E-03 0.  1.
</event>
<event>
 8    1  0.5489035E+004  0.1043930E+01  0.7957747E-01            NaN
         13   -1    0    0    0    0  0.00000000000E+00  0.00000000000E+00  0.74505805969E-08  0.10566000000E+00  0.10566000000E+00 0.  1.
     999900   -1    0    0    0    0 -0.00000000000E+00 -0.00000000000E+00 -0.74505805969E-08  0.93827000000E+00  0.93827000000E+00 0.  1.
     999902    2    1    2    0    0  0.15198293353E-01  0.14087698618E-01  0.10846781834E-01  0.10205397446E+01  0.10202716629E+01 0.  0.
     999903    2    3    3    0    0  0.79012176815E-02  0.67380936226E-01 -0.10983684764E+00  0.13067573534E+00  0.20233509306E-01 0.  0.
         14    1    1    2    0    0 -0.15198293353E-01 -0.14087698618E-01 -0.10846781834E-01  0.23390255435E-01  0.00000000000E+00 0. -1.
     999901    1    3    3    0    0  0.72970756712E-02 -0.53293237608E-01  0.12068362948E+00  0.88986400922E+00  0.88000000000E+00 0. -1.
        -11    1    4    4    0    0 -0.22211563832E-02  0.30896504721E-02 -0.16148083003E-01  0.16598228261E-01  0.51100000000E-03 0. -1.
         11    1    4    4    0    0  0.10122374065E-01  0.64291285754E-01 -0.93688764641E-01  0.11407750708E+00  0.51100000000E-03 0.  1.
</event>
<event>
 8    1  0.5489035E+004  0.1043930E+01  0.7957747E-01            NaN
         13   -1    0    0    0    0  0.00000000000E+00  0.00000000000E+00  0.74505805969E-08  0.10566000000E+00  0.10566000000E+00 0. -1.
     999900   -1    0    0    0    0 -0.00000000000E+00 -0.00000000000E+00 -0.74505805969E-08  0.93827000000E+00  0.93827000000E+00 0.  1.
     999902    2    1    2    0    0  0.17612265002E-01 -0.18102244579E-01  0.46630272997E-02  0.10182467961E+01  0.10179228413E+01 0.  0.
     999903    2    3    3    0    0  0.12123163479E+00  0.12547041186E-01  0.43365750390E-01  0.13079299267E+00  0.19279032866E-01 0.  0.
         14    1    1    2    0    0 -0.17612265002E-01  0.18102244579E-01 -0.46630272997E-02  0.25683203867E-01  0.00000000000E+00 0.  1.
     999901    1    3    3    0    0 -0.10361936978E+00 -0.30649285765E-01 -0.38702723091E-01  0.88745380347E+00  0.88000000000E+00 0.  1.
        -11    1    4    4    0    0  0.68608603371E-01 -0.24115420807E-02  0.22663890607E-01  0.72297088808E-01  0.51100000000E-03 0.  1.
         11    1    4    4    0    0  0.52623031415E-01  0.14958583267E-01  0.20701859783E-01  0.58495903858E-01  0.51100000000E-03 0. -1.
</event>
<event>
 8    1  0.5489035E+004  0.1043930E+01  0.7957747E-01            NaN
         13   -1    0    0    0    0  0.00000000000E+00  0.00000000000E+00  0.74505805969E-08  0.10566000000E+00  0.10566000000E+00 0.  1.
     999900   -1    0    0    0    0 -0.00000000000E+00 -0.00000000000E+00 -0.74505805969E-08  0.93827000000E+00  0.93827000000E+00 0. -1.
     999902    2    1    2    0    0 -0.17551758584E-01 -0.28901242159E-02 -0.16629709572E-01  0.10195791419E+01  0.10192883117E+01 0.  0.
     999903    2    3    3    0    0  0.23194062778E-01  0.51673931638E-01 -0.11681479791E+00  0.13128048155E+00  0.19511741748E-01 0.  0.
         14    1    1    2    0    0  0.17551758584E-01  0.28901242159E-02  0.16629709572E-01  0.24350858051E-01  0.00000000000E+00 0.  1.
     999901    1    3    3    0    0 -0.40745821362E-01 -0.54564055854E-01  0.10018508833E+00  0.88829866040E+00  0.88000000000E+00 0.  1.
        -11    1    4    4    0    0  0.67207105171E-02  0.21722148891E-01 -0.27748215520E-01  0.35878186797E-01  0.51100000000E-03 0. -1.
         11    1    4    4    0    0  0.16473352261E-01  0.29951782747E-01 -0.89066582386E-01  0.95402294749E-01  0.51100000000E-03 0.  1.
</event>
<event>
 8    1  0.5489035E+004  0.1043930E+01  0.7957747E-01            NaN
         13   -1    0    0    0    0  0.00000000000E+00  0.00000000000E+00  0.74505805969E-08  0.10566000000E+00  0.10566000000E+00 0. -1.
     999900   -1    0    0    0    0 -0.00000000000E+00 -0.00000000000E+00 -0.74505805969E-08  0.93827000000E+00  0.93827000000E+00 0. -1.
     999902    2    1    2    0    0  0.19157048697E-01 -0.93332858621E-02  0.18264564834E-01  0.10158640586E+01  0.10154762865E+01 0.  0.
     999903    2    3    3    0    0  0.86736159550E-01 -0.22884296514E-01 -0.86756985912E-01  0.12694331281E+00  0.23258926532E-01 0.  0.
         14    1    1    2    0    0 -0.19157048697E-01  0.93332858621E-02 -0.18264564834E-01  0.28065941430E-01  0.00000000000E+00 0.  1.
     999901    1    3    3    0    0 -0.67579110853E-01  0.13551010652E-01  0.10502155075E+00  0.88892074576E+00  0.88000000000E+00 0.  1.
        -11    1    4    4    0    0  0.75727892096E-01 -0.13420253952E-01 -0.64554107172E-01  0.10041071024E+00  0.51100000000E-03 0. -1.
         11    1    4    4    0    0  0.11008267454E-01 -0.94640425624E-02 -0.22202878741E-01  0.26532602574E-01  0.51100000000E-03 0.  1.
</event>
<event>
 8    1  0.5489035E+004  0.1043930E+01  0.7957747E-01            NaN
         13   -1    0    0    0    0  0.00000000000E+00  0.00000000000E+00  0.74505805969E-08  0.10566000000E+00  0.10566000000E+00 0.  1.
     999900   -1    0    0    0    0 -0.00000000000E+00 -0.00000000000E+00 -0.74505805969E-08  0.93827000000E+00  0.93827000000E+00 0.  1.
     999902    2    1    2    0    0  0.67863538226E-02  0.20501377860E-01 -0.88827046014E-02  0.10205791214E+01  0.10203119520E+01 0.  0.
     999903    2    3    3    0    0 -0.60273891211E-01  0.49979200098E-01 -0.10466486891E+00  0.13235604044E+00  0.20797217459E-01 0.  0.
         14    1    1    2    0    0 -0.67863538226E-02 -0.20501377860E-01  0.88827046014E-02  0.23350878643E-01  0.00000000000E+00 0.  1.
     999901    1    3    3    0    0  0.67060245033E-01 -0.29477822238E-01  0.95782164308E-01  0.88822308091E+00  0.88000000000E+00 0. -1.
        -11    1    4    4    0    0 -0.13059283729E-01  0.18677734072E-01 -0.42659720461E-01  0.48368538456E-01  0.51100000000E-03 0.  1.
         11    1    4    4    0    0 -0.47214607482E-01  0.31301466026E-01 -0.62005148449E-01  0.83987501988E-01  0.51100000000E-03 0. -1.
</event>
<event>
 8    1  0.5489035E+004  0.1043930E+01  0.7957747E-01            NaN
         13   -1    0    0    0    0  0.00000000000E+00  0.00000000000E+00  0.74505805969E-08  0.10566000000E+00  0.10566000000E+00 0.  1.
     999900   -1    0    0    0    0 -0.00000000000E+00 -0.00000000000E+00 -0.74505805969E-08  0.93827000000E+00  0.93827000000E+00 0.  1.
     999902    2    1    2    0    0  0.14238506657E-01 -0.16215843744E-01 -0.10678316736E-01  0.10198527263E+01  0.10195684716E+01 0.  0.
     999903    2    3    3    0    0  0.10205055223E+00 -0.51077549760E-01  0.62996480726E-01  0.13173433911E+00  0.19030192255E-01 0.  0.
         14    1    1    2    0    0 -0.14238506657E-01  0.16215843744E-01  0.10678316736E-01  0.24077273693E-01  0.00000000000E+00 0.  1.
     999901    1    3    3    0    0 -0.87812045573E-01  0.34861706015E-01 -0.73674797462E-01  0.88811838720E+00  0.88000000000E+00 0. -1.
        -11    1    4    4    0    0  0.75807753924E-01 -0.44042993957E-01  0.41070543973E-01  0.96817620168E-01  0.51100000000E-03 0. -1.
         11    1    4    4    0    0  0.26242798306E-01 -0.70345558028E-02  0.21925936754E-01  0.34916718944E-01  0.51100000000E-03 0.  1.
</event>
<event>
 8    1  0.5489035E+004  0.1043930E+01  0.7957747E-01            NaN
         13   -1    0    0    0    0  0.00000000000E+00  0.00000000000E+00  0.74505805969E-08  0.10566000000E+00  0.10566000000E+00 0.  1.
     999900   -1    0    0    0    0 -0.00000000000E+00 -0.00000000000E+00 -0.74505805969E-08  0.93827000000E+00  0.93827000000E+00 0. -1.
     999902    2    1    2    0    0  0.13905152626E-01 -0.10825441216E-01  0.15761234973E-01  0.10202876656E+01  0.10200137061E+01 0.  0.
     999903    2    3    3    0    0 -0.36316783713E-01  0.53710328542E-01  0.11232444133E+00  0.13123673272E+00  0.20064688482E-01 0.  0.
         14    1    1    2    0    0 -0.13905152626E-01  0.10825441216E-01 -0.15761234973E-01  0.23642334380E-01  0.00000000000E+00 0. -1.
     999901    1    3    3    0    0  0.50221936339E-01 -0.64535769758E-01 -0.96563206357E-01  0.88905093290E+00  0.88000000000E+00 0. -1.
        -11    1    4    4    0    0 -0.93112948455E-02  0.28604964461E-01  0.61258052345E-01  0.68247742099E-01  0.51100000000E-03 0. -1.
         11    1    4    4    0    0 -0.27005488868E-01  0.25105364081E-01  0.51066388984E-01  0.62988990621E-01  0.51100000000E-03 0.  1.
</event>
<event>
 8    1  0.5489035E+004  0.1043930E+01  0.7957747E-01            NaN
         13   -1    0    0    0    0  0.00000000000E+00  0.00000000000E+00  0.74505805969E-08  0.10566000000E+00  0.10566000000E+00 0.  1.
     999900   -1    0    0    0    0 -0.00000000000E+00 -0.00000000000E+00 -0.74505805969E-08  0.93827000000E+00  0.93827000000E+00 0.  1.
     999902    2    1    2    0    0  0.15384646925E-02  0.36573588984E-02  0.24329676596E-01  0.10192789085E+01  0.10189807736E+01 0.  0.
     999903    2    3    3    0    0 -0.42069015763E-01 -0.11923947294E+00  0.15915948645E-01  0.12962952003E+00  0.23720055838E-01 0.  0.
         14    1    1    2    0    0 -0.15384646925E-02 -0.36573588984E-02 -0.24329676596E-01  0.24651091477E-01  0.00000000000E+00 0. -1.
     999901    1    3    3    0    0  0.43607480456E-01  0.12289683183E+00  0.84137279508E-02  0.88964938849E+00  0.88000000000E+00 0. -1.
        -11    1    4    4    0    0 -0.13301879787E-01 -0.14526204475E-01  0.59357652026E-02  0.20577780538E-01  0.51100000000E-03 0.  1.
         11    1    4    4    0    0 -0.28767135976E-01 -0.10471326846E+00  0.99801834426E-02  0.10905173949E+00  0.51100000000E-03 0. -1.
</event>
<event>
 8    1  0.5489035E+004  0.1043930E+01  0.7957747E-01            NaN
         13   -1    0    0    0    0  0.00000000000E+00  0.00000000000E+00  0.74505805969E-08  0.10566000000E+00  0.10566000000E+00 0.  1.
     999900   -1    0    0    0    0 -0.00000000000E+00 -0.00000000000E+00 -0.74505805969E-08  0.93827000000E+00  0.93827000000E+00 0. -1.
     999902    2    1    2    0    0 -0.14146596580E-02  0.22519838175E-01  0.83965934571E-02  0.10198541375E+01  0.10195699165E+01 0.  0.
     999903    2    3    3    0    0  0.36663665366E-01 -0.95507770806E-01 -0.73305325654E-01  0.12741048163E+00  0.19844430391E-01 0.  0.
         14    1    1    2    0    0  0.14146596580E-02 -0.22519838175E-01 -0.83965934571E-02  0.24075862498E-01  0.00000000000E+00 0.  1.
     999901    1    3    3    0    0 -0.38078325024E-01  0.11802760898E+00  0.81701919111E-01  0.89244365587E+00  0.88000000000E+00 0.  1.
        -11    1    4    4    0    0  0.10364179397E-01 -0.48756913894E-01 -0.42789367179E-01  0.65695083010E-01  0.51100000000E-03 0. -1.
         11    1    4    4    0    0  0.26299485969E-01 -0.46750856912E-01 -0.30515958475E-01  0.61715398621E-01  0.51100000000E-03 0.  1.
</event>
<event>
 8    1  0.5489035E+004  0.1043930E+01  0.7957747E-01            NaN
         13   -1    0    0    0    0  0.00000000000E+00  0.00000000000E+00  0.74505805969E-08  0.10566000000E+00  0.10566000000E+00 0.  1.
     999900   -1    0    0    0    0 -0.00000000000E+00 -0.00000000000E+00 -0.74505805969E-08  0.93827000000E+00  0.93827000000E+00 0.  1.
     999902    2    1    2    0    0 -0.20114406285E-01 -0.11021120373E-01  0.13025035455E-01  0.10175537610E+01  0.10172118514E+01 0.  0.
     999903    2    3    3    0    0  0.19053436592E-01 -0.11083472889E-01  0.12601351021E+00  0.12946563519E+00  0.19901485418E-01 0.  0.
         14    1    1    2    0    0  0.20114406285E-01  0.11021120373E-01 -0.13025035455E-01  0.26376238987E-01  0.00000000000E+00 0. -1.
     999901    1    3    3    0    0 -0.39167842877E-01  0.62352516029E-04 -0.11298847476E+00  0.88808812582E+00  0.88000000000E+00 0.  1.
        -11    1    4    4    0    0 -0.19507596322E-02  0.42507455619E-03  0.43400287850E-01  0.43449191684E-01  0.51100000000E-03 0.  1.
         11    1    4    4    0    0  0.21004196224E-01 -0.11508547445E-01  0.82613222361E-01  0.86016443505E-01  0.51100000000E-03 0. -1.
</event>
<event>
 8    1  0.5489035E+004  0.1043930E+01  0.7957747E-01            NaN
         13   -1    0    0    0    0  0.00000000000E+00  0.00000000000E+00  0.74505805969E-08  0.10566000000E+00  0.10566000000E+00 0.  1.
     999900   -1    0    0    0    0 -0.00000000000E+00 -0.00000000000E+00 -0.74505805969E-08  0.93827000000E+00  0.93827000000E+00 0. -1.
     999902    2    1    2    0    0 -0.11015734020E-01  0.16727994288E-01  0.12198543860E-01  0.10204784188E+01  0.10202089132E+01 0.  0.
     999903    2    3    3    0    0 -0.52182179996E-01  0.40204955872E-01 -0.11092583980E+00  0.13064390729E+00  0.20588108035E-01 0.  0.
         14    1    1    2    0    0  0.11015734020E-01 -0.16727994288E-01 -0.12198543860E-01  0.23451581209E-01  0.00000000000E+00 0. -1.
     999901    1    3    3    0    0  0.41166445976E-01 -0.23476961584E-01  0.12312438366E+00  0.88983451150E+00  0.88000000000E+00 0.  1.
        -11    1    4    4    0    0 -0.30702275461E-01  0.10701130629E-01 -0.52002609471E-01  0.61332507107E-01  0.51100000000E-03 0. -1.
         11    1    4    4    0    0 -0.21479904535E-01  0.29503825243E-01 -0.58923230327E-01  0.69311400187E-01  0.51100000000E-03 0.  1.
</event>
<event>
 8    1  0.5489035E+004  0.1043930E+01  0.7957747E-01            NaN
         13   -1    0    0    0    0  0.00000000000E+00  0.00000000000E+00  0.74505805969E-08  0.10566000000E+00  0.10566000000E+00 0. -1.
     999900   -1    0    0    0    0 -0.00000000000E+00 -0.00000000000E+00 -0.74505805969E-08  0.93827000000E+00  0.93827000000E+00 0.  1.
     999902    2    1    2    0    0 -0.17354445582E-01  0.13392384275E-01  0.46673181990E-02  0.10215175794E+01  0.10212716820E+01 0.  0.
     999903    2    3    3    0    0  0.85431211608E-01 -0.63524222209E-04 -0.95542945099E-01  0.12978440761E+00  0.20421609844E-01 0.  0.
         14    1    1    2    0    0  0.17354445582E-01 -0.13392384275E-01 -0.46673181990E-02  0.22412420601E-01  0.00000000000E+00 0. -1.
     999901    1    3    3    0    0 -0.10278565719E+00  0.13455908497E-01  0.10021026330E+00  0.89173317179E+00  0.88000000000E+00 0. -1.
        -11    1    4    4    0    0  0.60360778136E-01  0.91640404539E-02 -0.68710198887E-01  0.91917113350E-01  0.51100000000E-03 0.  1.
         11    1    4    4    0    0  0.25070433472E-01 -0.92275646761E-02 -0.26832746212E-01  0.37867294261E-01  0.51100000000E-03 0. -1.
</event>
<event>
 8    1  0.5489035E+004  0.1043930E+01  0.7957747E-01            NaN
         13   -1    0    0    0    0  0.00000000000E+00  0.00000000000E+00  0.74505805969E-08  0.10566000000E+00  0.10566000000E+00 0.  1.
     999900   -1    0    0    0    0 -0.00000000000E+00 -0.00000000000E+00 -0.74505805969E-08  0.93827000000E+00  0.93827000000E+00 0.  1.
     999902    2    1    2    0    0 -0.11581165013E-01 -0.11772234568E-01 -0.16229845923E-01  0.10207758041E+01  0.10205131677E+01 0.  0.
     999903    2    3    3    0    0 -0.27397508414E-01 -0.24164267691E-01 -0.12691981146E+00  0.13361404450E+00  0.20237071097E-01 0.  0.
         14    1    1    2    0    0  0.11581165013E-01  0.11772234568E-01  0.16229845923E-01  0.23154195915E-01  0.00000000000E+00 0.  1.
     999901    1    3    3    0    0  0.15816343401E-01  0.12392033123E-01  0.11068996553E+00  0.88716175959E+00  0.88000000000E+00 0. -1.
        -11    1    4    4    0    0 -0.11513308232E-01 -0.21349693980E-01 -0.58807536364E-01  0.63615667518E-01  0.51100000000E-03 0. -1.
         11    1    4    4    0    0 -0.15884200182E-01 -0.28145737104E-02 -0.68112275093E-01  0.69998376981E-01  0.51100000000E-03 0.  1.
</event>
<event>
 8    1  0.5489035E+004  0.1043930E+01  0.7957747E-01            NaN
         13   -1    0    0    0    0  0.00000000000E+00  0.00000000000E+00  0.74505805969E-08  0.10566000000E+00  0.10566000000E+00 0. -1.
     999900   -1    0    0    0    0 -0.00000000000E+00 -0.00000000000E+00 -0.74505805969E-08  0.93827000000E+00  0.93827000000E+00 0. -1.
     999902    2    1    2    0    0 -0.10171981009E-01  0.56164329673E-02 -0.20756863871E-01  0.10201421688E+01  0.10198647869E+01 0.  0.
     999903    2    3    3    0    0  0.35165537564E-02  0.11505363674E+00 -0.62212610294E-01  0.13228944649E+00  0.19503417487E-01 0.  0.
         14    1    1    2    0    0  0.10171981009E-01 -0.56164329673E-02  0.20756863871E-01  0.23787831231E-01  0.00000000000E+00 0. -1.
     999901    1    3    3    0    0 -0.13688534765E-01 -0.10943720378E+00  0.41455746423E-01  0.88785272228E+00  0.88000000000E+00 0.  1.
        -11    1    4    4    0    0 -0.72926071281E-02  0.33441672685E-01 -0.14872750989E-01  0.37322746867E-01  0.51100000000E-03 0. -1.
         11    1    4    4    0    0  0.10809160885E-01  0.81611964058E-01 -0.47339859305E-01  0.94966699619E-01  0.51100000000E-03 0.  1.
</event>
<event>
 8    1  0.5489035E+004  0.1043930E+01  0.7957747E-01            NaN
         13   -1    0    0    0    0  0.00000000000E+00  0.00000000000E+00  0.74505805969E-08  0.10566000000E+00  0.10566000000E+00 0.  1.
     999900   -1    0    0    0    0 -0.00000000000E+00 -0.00000000000E+00 -0.74505805969E-08  0.93827000000E+00  0.93827000000E+00 0. -1.
     999902    2    1    2    0    0  0.71354070400E-02  0.13495294497E-01 -0.16712445911E-01  0.10212950082E+01  0.10210441474E+01 0.  0.
     999903    2    3    3    0    0 -0.22770039156E-01 -0.91916611195E-01  0.84816538199E-01  0.12870655866E+00  0.20109574646E-01 0.  0.
         14    1    1    2    0    0 -0.71354070400E-02 -0.13495294497E-01  0.16712445911E-01  0.22634991839E-01  0.00000000000E+00 0.  1.
     999901    1    3    3    0    0  0.29905446196E-01  0.10541190569E+00 -0.10152898411E+00  0.89258844950E+00  0.88000000000E+00 0.  1.
        -11    1    4    4    0    0 -0.67370826450E-02 -0.41286559217E-01  0.25093536171E-01  0.48784371812E-01  0.51100000000E-03 0.  1.
         11    1    4    4    0    0 -0.16032956511E-01 -0.50630051979E-01  0.59723002028E-01  0.79922186845E-01  0.51100000000E-03 0. -1.
</event>
<event>
 7    1  0.5489035E+004  0.1043930E+01  0.7957747E-01            NaN
         13   -1    0    0    0    0  0.00000000000E+00  0.00000000000E+00  0.74505805969E-08  0.10566000000E+00  0.10566000000E+00 0.  1.
     999900   -1    0    0    0    0 -0.00000000000E+00 -0.00000000000E+00 -0.74505805969E-08  0.93827000000E+00  0.93827000000E+00 0.  1.
     999903    2    1    2    0    0  0.22503688026E-01  0.84604902912E-01 -0.71542434517E-01  0.11521571031E+00  0.22179594085E-01 0.  0.
         14    1    1    2    0    0 -0.94744935185E-03 -0.44715780938E-01  0.57554072689E-02  0.45094605420E-01  0.00000000000E+00 0.  1.
     999901    1    1    2    0    0 -0.21556238674E-01 -0.39889121973E-01  0.65787027248E-01  0.88361968427E+00  0.88000000000E+00 0. -1.
        -11    1    3    3    0    0  0.13572034967E-01  0.21906518739E-01 -0.12567542935E-01  0.28675772925E-01  0.51100000000E-03 0.  1.
         11    1    3    3    0    0  0.89316530588E-02  0.62698384173E-01 -0.58974891582E-01  0.86539937383E-01  0.51100000000E-03 0. -1.
</event>
<event>
 8    1  0.5489035E+004  0.1043930E+01  0.7957747E-01            NaN
         13   -1    0    0    0    0  0.00000000000E+00  0.00000000000E+00  0.74505805969E-08  0.10566000000E+00  0.10566000000E+00 0. -1.
     999900   -1    0    0    0    0 -0.00000000000E+00 -0.00000000000E+00 -0.74505805969E-08  0.93827000000E+00  0.93827000000E+00 0. -1.
     999902    2    1    2    0    0 -0.15059948482E-01  0.26730531695E-01 -0.34240463598E-02  0.10130585331E+01  0.10125880426E+01 0.  0.
     999903    2    3    3    0    0  0.29918272564E-01  0.41443698822E-01  0.11124192792E+00  0.12435846938E+00  0.21853584922E-01 0.  0.
         14    1    1    2    0    0  0.15059948482E-01 -0.26730531695E-01  0.34240463598E-02  0.30871466866E-01  0.00000000000E+00 0. -1.
     999901    1    3    3    0    0 -0.44978221046E-01 -0.14713167127E-01 -0.11466597428E+00  0.88870006375E+00  0.88000000000E+00 0. -1.
        -11    1    4    4    0    0  0.20496989418E-02  0.11928755300E-01  0.45562702907E-01  0.47145704852E-01  0.51100000000E-03 0. -1.
         11    1    4    4    0    0  0.27868573622E-01  0.29514943523E-01  0.65679225014E-01  0.77212764530E-01  0.51100000000E-03 0.  1.
</event>
<event>
 8    1  0.5489035E+004  0.1043930E+01  0.7957747E-01            NaN
         13   -1    0    0    0    0  0.00000000000E+00  0.00000000000E+00  0.74505805969E-08  0.10566000000E+00  0.10566000000E+00 0. -1.
     999900   -1    0    0    0    0 -0.00000000000E+00 -0.00000000000E+00 -0.74505805969E-08  0.93827000000E+00  0.93827000000E+00 0.  1.
     999902    2    1    2    0    0 -0.94365620628E-02 -0.11230941498E-01  0.18824537098E-01  0.10200648382E+01  0.10197856285E+01 0.  0.
     999903    2    3    3    0    0  0.22199095107E-01  0.75768485800E-04 -0.12441213404E+00  0.12785107433E+00  0.19357493276E-01 0.  0.
         14    1    1    2    0    0  0.94365620628E-02  0.11230941498E-01 -0.18824537098E-01  0.23865161794E-01  0.00000000000E+00 0.  1.
     999901    1    3    3    0    0 -0.31635657170E-01 -0.11306709984E-01  0.14323667114E+00  0.89221376388E+00  0.88000000000E+00 0. -1.
        -11    1    4    4    0    0  0.20554213108E-01  0.35288437633E-02 -0.63963709059E-01  0.67279607701E-01  0.51100000000E-03 0.  1.
         11    1    4    4    0    0  0.16448819996E-02 -0.34530752775E-02 -0.60448424980E-01  0.60571466626E-01  0.51100000000E-03 0. -1.
</event>
<event>
 8    1  0.5489035E+004  0.1043930E+01  0.7957747E-01            NaN
         13   -1    0    0    0    0  0.00000000000E+00  0.00000000000E+00  0.74505805969E-08  0.10566000000E+00  0.10566000000E+00 0. -1.
     999900   -1    0    0    0    0 -0.00000000000E+00 -0.00000000000E+00 -0.74505805969E-08  0.93827000000E+00  0.93827000000E+00 0.  1.
     999902    2    1    2    0    0 -0.68086037788E-02  0.17643981045E-02  0.22348082080E-01  0.10205012365E+01  0.10202322612E+01 0.  0.
     999903    2    3    3    0    0  0.96811728191E-01  0.49935769938E-01  0.71223088446E-01  0.13176819419E+00  0.20592154761E-01 0.  0.
         14    1    1    2    0    0  0.68086037788E-02 -0.17643981045E-02 -0.22348082080E-01  0.23428763491E-01  0.00000000000E+00 0.  1.
     999901    1    3    3    0    0 -0.10362033197E+00 -0.48171371834E-01 -0.48875006366E-01  0.88873304232E+00  0.88000000000E+00 0. -1.
        -11    1    4    4    0    0  0.62474710292E-02  0.67934394584E-02  0.12437638136E-01  0.15496376265E-01  0.51100000000E-03 0.  1.
         11    1    4    4    0    0  0.90564257162E-01  0.43142330480E-01  0.58785450310E-01  0.11627181792E+00  0.51100000000E-03 0. -1.
</event>
<event>
 8    1  0.5489035E+004  0.1043930E+01  0.7957747E-01            NaN
         13   -1    0    0    0    0  0.00000000000E+00  0.00000000000E+00  0.74505805969E-08  0.10566000000E+00  0.10566000000E+00 0.  1.
     999900   -1    0    0    0    0 -0.00000000000E+00 -0.00000000000E+00 -0.74505805969E-08  0.93827000000E+00  0.93827000000E+00 0. -1.
     999902    2    1    2    0    0 -0.18578975875E-01  0.71167740489E-02  0.13454132816E-01  0.10199124958E+01  0.10196296674E+01 0.  0.
     999903    2    3    3    0    0 -0.61325291265E-01  0.11006896368E+00  0.36051864817E-01  0.13259234034E+00  0.20125199222E-01 0.  0.
         14    1    1    2    0    0  0.18578975875E-01 -0.71167740489E-02 -0.13454132816E-01  0.24017504184E-01  0.00000000000E+00 0. -1.
     999901    1    3    3    0    0  0.42746315390E-01 -0.10295218963E+00 -0.22597732002E-01  0.88732015548E+00  0.88000000000E+00 0. -1.
        -11    1    4    4    0    0 -0.22259910051E-01  0.27404832886E-01  0.17033899385E-01  0.39203868562E-01  0.51100000000E-03 0.  1.
         11    1    4    4    0    0 -0.39065381213E-01  0.82664130798E-01  0.19017965432E-01  0.93388471773E-01  0.51100000000E-03 0. -1.
</event>
<event>
 8    1  0.5489035E+004  0.1043930E+01  0.7957747E-01            NaN
         13   -1    0    0    0    0  0.00000000000E+00  0.00000000000E+00  0.74505805969E-08  0.10566000000E+00  0.10566000000E+00 0.  1.
     999900   -1    0    0    0    0 -0.00000000000E+00 -0.00000000000E+00 -0.74505805969E-08  0.93827000000E+00  0.93827000000E+00 0.  1.
     999902    2    1    2    0    0  0.22724647909E-01 -0.41651285666E-02 -0.21838926362E-02  0.10207238089E+01  0.10204599780E+01 0.  0.
     999903    2    3    3    0    0  0.34542665238E-01 -0.91467959743E-01  0.87188596463E-01  0.13182061300E+00  0.14671035318E-01 0.  0.
         14    1    1    2    0    0 -0.22724647909E-01  0.41651285666E-02  0.21838926362E-02  0.23206191105E-01  0.00000000000E+00 0.  1.
     999901    1    3    3    0    0 -0.11818017328E-01  0.87302831176E-01 -0.89372489099E-01  0.88890319590E+00  0.88000000000E+00 0.  1.
        -11    1    4    4    0    0  0.30887918348E-01 -0.80694027052E-01  0.82623763434E-01  0.11955139860E+00  0.51100000000E-03 0.  1.
         11    1    4    4    0    0  0.36547468897E-02 -0.10773932691E-01  0.45648330281E-02  0.12269214402E-01  0.51100000000E-03 0. -1.
</event>
<event>
 8    1  0.5489035E+004  0.1043930E+01  0.7957747E-01            NaN
         13   -1    0    0    0    0  0.00000000000E+00  0.00000000000E+00  0.74505805969E-08  0.10566000000E+00  0.10566000000E+00 0.  1.
     999900   -1    0    0    0    0 -0.00000000000E+00 -0.00000000000E+00 -0.74505805969E-08  0.93827000000E+00  0.93827000000E+00 0. -1.
     999902    2    1    2    0    0 -0.46190979034E-02 -0.21656415386E-01 -0.83463817399E-02  0.10202657130E+01  0.10199912385E+01 0.  0.
     999903    2    3    3    0    0 -0.50529015080E-01  0.33894636803E-01  0.11227478330E+00  0.12911864017E+00  0.19077958603E-01 0.  0.
         14    1    1    2    0    0  0.46190979034E-02  0.21656415386E-01  0.83463817399E-02  0.23664287037E-01  0.00000000000E+00 0.  1.
     999901    1    3    3    0    0  0.45909917177E-01 -0.55551052188E-01 -0.12062116504E+00  0.89114707279E+00  0.88000000000E+00 0. -1.
        -11    1    4    4    0    0 -0.38809961779E-01  0.24215838869E-01  0.65203058626E-01  0.79651239542E-01  0.51100000000E-03 0.  1.
         11    1    4    4    0    0 -0.11719053301E-01  0.96787979340E-02  0.47071724677E-01  0.49467400627E-01  0.51100000000E-03 0. -1.
</event>
<event>
 8    1  0.5489035E+004  0.1043930E+01  0.7957747E-01            NaN
         13   -1    0    0    0    0  0.00000000000E+00  0.00000000000E+00  0.74505805969E-08  0.10566000000E+00  0.10566000000E+00 0.  1.
     999900   -1    0    0    0    0 -0.00000000000E+00 -0.00000000000E+00 -0.74505805969E-08  0.93827000000E+00  0.93827000000E+00 0. -1.
     999902    2    1    2    0    0 -0.95313018503E-02 -0.18314574002E-01 -0.11132353709E-01  0.10204736867E+01  0.10202040710E+01 0.  0.
     999903    2    3    3    0    0  0.54678275764E-01  0.96336968978E-01 -0.63362984338E-01  0.12918479695E+00  0.20082792300E-01 0.  0.
         14    1    1    2    0    0  0.95313018503E-02  0.18314574002E-01  0.11132353709E-01  0.23456313328E-01  0.00000000000E+00 0.  1.
     999901    1    3    3    0    0 -0.64209577614E-01 -0.11465154298E+00  0.52230630629E-01  0.89128888972E+00  0.88000000000E+00 0. -1.
        -11    1    4    4    0    0  0.51692437146E-01  0.88891364591E-01 -0.51902671641E-01  0.11518650616E+00  0.51100000000E-03 0.  1.
         11    1    4    4    0    0  0.29858386182E-02  0.74456043875E-02 -0.11460312697E-01  0.13998290791E-01  0.51100000000E-03 0. -1.
</event>
<event>
 8    1  0.5489035E+004  0.1043930E+01  0.7957747E-01            NaN
         13   -1    0    0    0    0  0.00000000000E+00  0.00000000000E+00  0.74505805969E-08  0.10566000000E+00  0.10566000000E+00 0. -1.
     999900   -1    0    0    0    0 -0.00000000000E+00 -0.00000000000E+00 -0.74505805969E-08  0.93827000000E+00  0.93827000000E+00 0. -1.
     999902    2    1    2    0    0 -0.58469798513E-02  0.16592260496E-01 -0.15572032958E-01  0.10204357775E+01  0.10201652795E+01 0.  0.
     999903    2    3    3    0    0  0.46304429236E-01  0.85211370809E-01  0.84788472479E-01  0.13054781665E+00  0.21179459004E-01 0.  0.
         14    1    1    2    0    0  0.58469798513E-02 -0.16592260496E-01  0.15572032958E-01  0.23494222528E-01  0.00000000000E+00 0. -1.
     999901    1    3    3    0    0 -0.52151409087E-01 -0.68619110313E-01 -0.10036050544E+00  0.88988796083E+00  0.88000000000E+00 0. -1.
        -11    1    4    4    0    0  0.34176851754E-01  0.62114944653E-01  0.48692279462E-01  0.86008852715E-01  0.51100000000E-03 0. -1.
         11    1    4    4    0    0  0.12127577482E-01  0.23096426156E-01  0.36096193017E-01  0.44538963932E-01  0.51100000000E-03 0.  1.
</event>
<event>
 8    1  0.5489035E+004  0.1043930E+01  0.7957747E-01            NaN
         13   -1    0    0    0    0  0.00000000000E+00  0.00000000000E+00  0.74505805969E-08  0.10566000000E+00  0.10566000000E+00 0. -1.
     999900   -1    0    0    0    0 -0.00000000000E+00 -0.00000000000E+00 -0.74505805969E-08  0.93827000000E+00  0.93827000000E+00 0. -1.
     999902    2    1    2    0    0 -0.23200342105E-01  0.15910576199E-01  0.44947147032E-02  0.10154413221E+01  0.10150416119E+01 0.  0.
     999903    2    3    3    0    0  0.20515897309E-01  0.78197945541E-01  0.96535582878E-01  0.12737468755E+00  0.19219041020E-01 0.  0.
         14    1    1    2    0    0  0.23200342105E-01 -0.15910576199E-01 -0.44947147032E-02  0.28488677910E-01  0.00000000000E+00 0.  1.
     999901    1    3    3    0    0 -0.43716239415E-01 -0.62287369341E-01 -0.92040868175E-01  0.88806663454E+00  0.88000000000E+00 0. -1.
        -11    1    4    4    0    0 -0.21934475048E-02  0.12821863434E-01  0.22739312343E-01  0.26202077031E-01  0.51100000000E-03 0. -1.
         11    1    4    4    0    0  0.22709344814E-01  0.65376082107E-01  0.73796270535E-01  0.10117261052E+00  0.51100000000E-03 0.  1.
</event>
<event>
 8    1  0.5489035E+004  0.1043930E+01  0.7957747E-01            NaN
         13   -1    0    0    0    0  0.00000000000E+00  0.00000000000E+00  0.74505805969E-08  0.10566000000E+00  0.10566000000E+00 0.  1.
     999900   -1    0    0    0    0 -0.00000000000E+00 -0.00000000000E+00 -0.74505805969E-08  0.93827000000E+00  0.93827000000E+00 0.  1.
     999902    2    1    2    0    0 -0.18379038836E-01 -0.14894227735E-01 -0.35672983541E-03  0.10202708719E+01  0.10199965184E+01 0.  0.
     999903    2    3    3    0    0 -0.58447281236E-01  0.96468559522E-01 -0.61962989382E-01  0.13021330875E+00  0.19845051300E-01 0.  0.
         14    1    1    2    0    0  0.18379038836E-01  0.14894227735E-01  0.35672983541E-03  0.23659128144E-01  0.00000000000E+00 0.  1.
     999901    1    3    3    0    0  0.40068242399E-01 -0.11136278726E+00  0.61606259547E-01  0.89005756311E+00  0.88000000000E+00 0. -1.
        -11    1    4    4    0    0 -0.22552249548E-01  0.20424439231E-01 -0.16039440612E-01  0.34398930997E-01  0.51100000000E-03 0. -1.
         11    1    4    4    0    0 -0.35895031688E-01  0.76044120291E-01 -0.45923548770E-01  0.95814377749E-01  0.51100000000E-03 0.  1.
</event>
<event>
 8    1  0.5489035E+004  0.1043930E+01  0.7957747E-01            NaN
         13   -1    0    0    0    0  0.00000000000E+00  0.00000000000E+00  0.74505805969E-08  0.10566000000E+00  0.10566000000E+00 0.  1.
     999900   -1    0    0    0    0 -0.00000000000E+00 -0.00000000000E+00 -0.74505805969E-08  0.93827000000E+00  0.93827000000E+00 0. -1.
     999902    2    1    2    0    0  0.69173488625E-02 -0.21505851433E-01 -0.14119887130E-02  0.10212949592E+01  0.10210440973E+01 0.  0.
     999903    2    3    3    0    0 -0.11941725050E+00 -0.49074776798E-01 -0.31341726146E-02  0.13184375615E+00  0.26535628198E-01 0.  0.
         14    1    1    2    0    0 -0.69173488625E-02  0.21505851433E-01  0.14119887130E-02  0.22635040828E-01  0.00000000000E+00 0. -1.
     999901    1    3    3    0    0  0.12633459936E+00  0.27568925365E-01  0.17221839016E-02  0.88945120302E+00  0.88000000000E+00 0.  1.
        -11    1    4    4    0    0 -0.83666737443E-01 -0.22835424445E-01  0.44861658314E-02  0.86844495328E-01  0.51100000000E-03 0. -1.
         11    1    4    4    0    0 -0.35750513053E-01 -0.26239352353E-01 -0.76203384460E-02  0.44999260822E-01  0.51100000000E-03 0.  1.
</event>
<event>
 8    1  0.5489035E+004  0.1043930E+01  0.7957747E-01            NaN
         13   -1    0    0    0    0  0.00000000000E+00  0.00000000000E+00  0.74505805969E-08  0.10566000000E+00  0.10566000000E+00 0. -1.
     999900   -1    0    0    0    0 -0.00000000000E+00 -0.00000000000E+00 -0.74505805969E-08  0.93827000000E+00  0.93827000000E+00 0.  1.
     999902    2    1    2    0    0 -0.17379137610E-01 -0.10598033763E-01  0.12389760580E-01  0.10201002096E+01  0.10198218367E+01 0.  0.
     999903    2    3    3    0    0 -0.70829008458E-01 -0.33687387718E-01 -0.10241129726E+00  0.13073566688E+00  0.21263872113E-01 0.  0.
         14    1    1    2    0    0  0.17379137610E-01  0.10598033763E-01 -0.12389760580E-01  0.23829790409E-01  0.00000000000E+00 0.  1.
     999901    1    3    3    0    0  0.53449870848E-01  0.23089353955E-01  0.11480105784E+00  0.88936454272E+00  0.88000000000E+00 0. -1.
        -11    1    4    4    0    0 -0.48057494845E-01 -0.25865831740E-01 -0.54596627675E-01  0.77198555277E-01  0.51100000000E-03 0. -1.
         11    1    4    4    0    0 -0.22771513613E-01 -0.78215559782E-02 -0.47814669581E-01  0.53537111598E-01  0.51100000000E-03 0.  1.
</event>
<event>
 8    1  0.5489035E+004  0.1043930E+01  0.7957747E-01            NaN
         13   -1    0    0    0    0  0.00000000000E+00  0.00000000000E+00  0.74505805969E-08  0.10566000000E+00  0.10566000000E+00 0.  1.
     999900   -1    0    0    0    0 -0.00000000000E+00 -0.00000000000E+00 -0.74505805969E-08  0.93827000000E+00  0.93827000000E+00 0. -1.
     999902    2    1    2    0    0 -0.10962589721E-01 -0.13904864084E-01 -0.16370797100E-01  0.10198151370E+01  0.10195299834E+01 0.  0.
     999903    2    3    3    0    0 -0.79545711638E-01 -0.58699667356E-01  0.82884591470E-01  0.13045477633E+00  0.19375809075E-01 0.  0.
         14    1    1    2    0    0  0.10962589721E-01  0.13904864084E-01  0.16370797100E-01  0.24114862974E-01  0.00000000000E+00 0. -1.
     999901    1    3    3    0    0  0.68583121917E-01  0.44794803272E-01 -0.99255388569E-01  0.88936036069E+00  0.88000000000E+00 0. -1.
        -11    1    4    4    0    0 -0.85050005339E-02 -0.96912455336E-02  0.39498116021E-02  0.13495088246E-01  0.51100000000E-03 0. -1.
         11    1    4    4    0    0 -0.71040711104E-01 -0.49008421823E-01  0.78934779867E-01  0.11695968809E+00  0.51100000000E-03 0.  1.
</event>
<event>
 8    1  0.5489035E+004  0.1043930E+01  0.7957747E-01            NaN
         13   -1    0    0    0    0  0.00000000000E+00  0.00000000000E+00  0.74505805969E-08  0.10566000000E+00  0.10566000000E+00 0.  1.
     999900   -1    0    0    0    0 -0.00000000000E+00 -0.00000000000E+00 -0.74505805969E-08  0.93827000000E+00  0.93827000000E+00 0.  1.
     999902    2    1    2    0    0  0.88818407203E-02 -0.13871213035E-01 -0.16776528421E-01  0.10204193736E+01  0.10201484934E+01 0.  0.
     999903    2    3    3    0    0 -0.57161672102E-01  0.10800758246E-01 -0.11665013931E+00  0.13196836774E+00  0.20598105417E-01 0.  0.
         14    1    1    2    0    0 -0.88818407203E-02  0.13871213035E-01  0.16776528421E-01  0.23510626353E-01  0.00000000000E+00 0.  1.
     999901    1    3    3    0    0  0.66043512822E-01 -0.24671971281E-01  0.99873610885E-01  0.88845100591E+00  0.88000000000E+00 0. -1.
        -11    1    4    4    0    0 -0.10145238192E-01  0.38209379674E-02 -0.42706535409E-01  0.44063984302E-01  0.51100000000E-03 0.  1.
         11    1    4    4    0    0 -0.47016433910E-01  0.69798202784E-02 -0.73943603897E-01  0.87904383434E-01  0.51100000000E-03 0. -1.
</event>
<event>
 8    1  0.5489035E+004  0.1043930E+01  0.7957747E-01            NaN
         13   -1    0    0    0    0  0.00000000000E+00  0.00000000000E+00  0.74505805969E-08  0.10566000000E+00  0.10566000000E+00 0.  1.
     999900   -1    0    0    0    0 -0.00000000000E+00 -0.00000000000E+00 -0.74505805969E-08  0.93827000000E+00  0.93827000000E+00 0. -1.
     999902    2    1    2    0    0 -0.13462127620E-01 -0.85123188032E-03 -0.19726283157E-01  0.10200327256E+01  0.10197527551E+01 0.  0.
     999903    2    3    3    0    0 -0.42936811646E-01 -0.11432052840E+00 -0.45625173918E-01  0.13188026641E+00  0.19949816159E-01 0.  0.
         14    1    1    2    0    0  0.13462127620E-01  0.85123188032E-03  0.19726283157E-01  0.23897274383E-01  0.00000000000E+00 0.  1.
     999901    1    3    3    0    0  0.29474684026E-01  0.11346929652E+00  0.25898890761E-01  0.88815245921E+00  0.88000000000E+00 0. -1.
        -11    1    4    4    0    0 -0.31172726963E-01 -0.67856299111E-01 -0.19025697325E-01  0.77061368500E-01  0.51100000000E-03 0.  1.
         11    1    4    4    0    0 -0.11764084683E-01 -0.46464229292E-01 -0.26599476593E-01  0.54818897911E-01  0.51100000000E-03 0. -1.
</event>
<event>
 8    1  0.5489035E+004  0.1043930E+01  0.7957747E-01            NaN
         13   -1    0    0    0    0  0.00000000000E+00  0.00000000000E+00  0.74505805969E-08  0.10566000000E+00  0.10566000000E+00 0.  1.
     999900   -1    0    0    0    0 -0.00000000000E+00 -0.00000000000E+00 -0.74505805969E-08  0.93827000000E+00  0.93827000000E+00 0. -1.
     999902    2    1    2    0    0  0.25374608843E-02  0.16504659936E-01 -0.17918807114E-01  0.10194366100E+01  0.10191423235E+01 0.  0.
     999903    2    3    3    0    0  0.42277136207E-01 -0.68661722170E-01 -0.10129619126E+00  0.13051347345E+00  0.16463901451E-01 0.  0.
         14    1    1    2    0    0 -0.25374608843E-02 -0.16504659936E-01  0.17918807114E-01  0.24493390042E-01  0.00000000000E+00 0.  1.
     999901    1    3    3    0    0 -0.39739675323E-01  0.85166382106E-01  0.83377384144E-01  0.88892313651E+00  0.88000000000E+00 0.  1.
        -11    1    4    4    0    0  0.88792450003E-02 -0.28437977827E-01 -0.32290748691E-01  0.43937605155E-01  0.51100000000E-03 0. -1.
         11    1    4    4    0    0  0.33397891207E-01 -0.40223744342E-01 -0.69005442567E-01  0.86575868294E-01  0.51100000000E-03 0.  1.
</event>
<event>
 8    1  0.5489035E+004  0.1043930E+01  0.7957747E-01            NaN
         13   -1    0    0    0    0  0.00000000000E+00  0.00000000000E+00  0.74505805969E-08  0.10566000000E+00  0.10566000000E+00 0.  1.
     999900   -1    0    0    0    0 -0.00000000000E+00 -0.00000000000E+00 -0.74505805969E-08  0.93827000000E+00  0.93827000000E+00 0.  1.
     999902    2    1    2    0    0  0.19086303915E-01  0.35094777949E-02 -0.13049649874E-01  0.10205441754E+01  0.10202761965E+01 0.  0.
     999903    2    3    3    0    0 -0.32728916439E-01  0.83775271233E-01 -0.94094640028E-01  0.13167089696E+00  0.19848067468E-01 0.  0.
         14    1    1    2    0    0 -0.19086303915E-01 -0.35094777949E-02  0.13049649874E-01  0.23385824624E-01  0.00000000000E+00 0.  1.
     999901    1    3    3    0    0  0.51815220354E-01 -0.80265793438E-01  0.81044990154E-01  0.88887327842E+00  0.88000000000E+00 0. -1.
        -11    1    4    4    0    0 -0.21221430923E-01  0.45371116677E-01 -0.65339587429E-01  0.82331100839E-01  0.51100000000E-03 0. -1.
         11    1    4    4    0    0 -0.11507485516E-01  0.38404154556E-01 -0.28755052599E-01  0.49339796119E-01  0.51100000000E-03 0.  1.
</event>
<event>
 8    1  0.5489035E+004  0.1043930E+01  0.7957747E-01            NaN
         13   -1    0    0    0    0  0.00000000000E+00  0.00000000000E+00  0.74505805969E-08  0.10566000000E+00  0.10566000000E+00 0.  1.
     999900   -1    0    0    0    0 -0.00000000000E+00 -0.00000000000E+00 -0.74505805969E-08  0.93827000000E+00  0.93827000000E+00 0. -1.
     999902    2    1    2    0    0 -0.18074730708E-01 -0.14223167966E-01  0.35500090295E-02  0.10206577642E+01  0.10203924120E+01 0.  0.
     999903    2    3    3    0    0  0.47887348632E-01 -0.39007458143E-01 -0.11288344455E+00  0.13019608274E+00  0.19838547270E-01 0.  0.
         14    1    1    2    0    0  0.18074730708E-01  0.14223167966E-01 -0.35500090295E-02  0.23272235846E-01  0.00000000000E+00 0.  1.
     999901    1    3    3    0    0 -0.65962079339E-01  0.24784290177E-01  0.11643345358E+00  0.89046168141E+00  0.88000000000E+00 0.  1.
        -11    1    4    4    0    0  0.27085557212E-01 -0.33847321285E-01 -0.78525467186E-01  0.89698264673E-01  0.51100000000E-03 0. -1.
         11    1    4    4    0    0  0.20801791419E-01 -0.51601368579E-02 -0.34357977366E-01  0.40497818069E-01  0.51100000000E-03 0.  1.
</event>
<event>
 8    1  0.5489035E+004  0.1043930E+01  0.7957747E-01            NaN
         13   -1    0    0    0    0  0.00000000000E+00  0.00000000000E+00  0.74505805969E-08  0.10566000000E+00  0.10566000000E+00 0.  1.
     999900   -1    0    0    0    0 -0.00000000000E+00 -0.00000000000E+00 -0.74505805969E-08  0.93827000000E+00  0.93827000000E+00 0.  1.
     999902    2    1    2    0    0  0.42521481125E-02 -0.19255476855E-01 -0.13298421607E-01  0.10201455057E+01  0.10198682026E+01 0.  0.
     999903    2    3    3    0    0 -0.22623438035E-01 -0.50776689045E-01 -0.11900230837E+00  0.13285232098E+00  0.19952385684E-01 0.  0.
         14    1    1    2    0    0 -0.42521481125E-02  0.19255476855E-01  0.13298421607E-01  0.23784494313E-01  0.00000000000E+00 0.  1.
     999901    1    3    3    0    0  0.26875586148E-01  0.31521212190E-01  0.10570388676E+00  0.88729318471E+00  0.88000000000E+00 0. -1.
        -11    1    4    4    0    0 -0.10966434193E-01 -0.39936919560E-01 -0.70097108304E-01  0.81419198820E-01  0.51100000000E-03 0. -1.
         11    1    4    4    0    0 -0.11657003842E-01 -0.10839769485E-01 -0.48905200063E-01  0.51433122162E-01  0.51100000000E-03 0.  1.
</event>
<event>
 8    1  0.5489035E+004  0.1043930E+01  0.7957747E-01            NaN
         13   -1    0    0    0    0  0.00000000000E+00  0.00000000000E+00  0.74505805969E-08  0.10566000000E+00  0.10566000000E+00 0.  1.
     999900   -1    0    0    0    0 -0.00000000000E+00 -0.00000000000E+00 -0.74505805969E-08  0.93827000000E+00  0.93827000000E+00 0.  1.
     999902    2    1    2    0    0  0.20915418183E-01  0.76779258622E-02 -0.72870214568E-02  0.10204884569E+01  0.10202191846E+01 0.  0.
     999903    2    3    3    0    0 -0.11717760044E+00 -0.77425799686E-02 -0.48188020596E-01  0.12864745896E+00  0.20917594942E-01 0.  0.
         14    1    1    2    0    0 -0.20915418183E-01 -0.76779258622E-02  0.72870214568E-02  0.23441543145E-01  0.00000000000E+00 0.  1.
     999901    1    3    3    0    0  0.13809301863E+00  0.15420505831E-01  0.40900999140E-01  0.89184099789E+00  0.88000000000E+00 0. -1.
        -11    1    4    4    0    0 -0.33790134207E-01  0.72231770455E-02 -0.14366474807E-01  0.37424646635E-01  0.51100000000E-03 0. -1.
         11    1    4    4    0    0 -0.83387466235E-01 -0.14965757014E-01 -0.33821545790E-01  0.91222812326E-01  0.51100000000E-03 0.  1.
</event>
<event>
 8    1  0.5489035E+004  0.1043930E+01  0.7957747E-01            NaN
         13   -1    0    0    0    0  0.00000000000E+00  0.00000000000E+00  0.74505805969E-08  0.10566000000E+00  0.10566000000E+00 0.  1.
     999900   -1    0    0    0    0 -0.00000000000E+00 -0.00000000000E+00 -0.74505805969E-08  0.93827000000E+00  0.93827000000E+00 0. -1.
     999902    2    1    2    0    0  0.66974911361E-02  0.17376024430E-01  0.15085247897E-01  0.10199644556E+01  0.10196828642E+01 0.  0.
     999903    2    3    3    0    0 -0.22346379015E-01 -0.43534604638E-01 -0.11619755985E+00  0.12767031874E+00  0.20080212071E-01 0.  0.
         14    1    1    2    0    0 -0.66974911361E-02 -0.17376024430E-01 -0.15085247897E-01  0.23965544363E-01  0.00000000000E+00 0. -1.
     999901    1    3    3    0    0  0.29043870151E-01  0.60910629067E-01  0.13128280775E+00  0.89229413689E+00  0.88000000000E+00 0. -1.
        -11    1    4    4    0    0 -0.10922862754E-01 -0.39104110402E-01 -0.90938539675E-01  0.99591764219E-01  0.51100000000E-03 0.  1.
         11    1    4    4    0    0 -0.11423516261E-01 -0.44304942354E-02 -0.25259020175E-01  0.28078554523E-01  0.51100000000E-03 0. -1.
</event>
<event>
 8    1  0.5489035E+004  0.1043930E+01  0.7957747E-01            NaN
         13   -1    0    0    0    0  0.00000000000E+00  0.00000000000E+00  0.74505805969E-08  0.10566000000E+00  0.10566000000E+00 0.  1.
     999900   -1    0    0    0    0 -0.00000000000E+00 -0.00000000000E+00 -0.74505805969E-08  0.93827000000E+00  0.93827000000E+00 0.  1.
     999902    2    1    2    0    0  0.10387996233E-01 -0.69246959172E-02 -0.20963142232E-01  0.10195309178E+01  0.10192389206E+01 0.  0.
     999903    2    3    3    0    0 -0.38105363718E-01 -0.11346351016E+00 -0.50481041777E-01  0.13128915383E+00  0.19039943609E-01 0.  0.
         14    1    1    2    0    0 -0.10387996233E-01  0.69246959172E-02  0.20963142232E-01  0.24399082186E-01  0.00000000000E+00 0.  1.
     999901    1    3    3    0    0  0.48493359951E-01  0.10653881424E+00  0.29517899545E-01  0.88824176399E+00  0.88000000000E+00 0.  1.
        -11    1    4    4    0    0 -0.27801519303E-01 -0.10202276930E+00 -0.42832091560E-01  0.11408952239E+00  0.51100000000E-03 0.  1.
         11    1    4    4    0    0 -0.10303844415E-01 -0.11440740855E-01 -0.76489502170E-02  0.17199631434E-01  0.51100000000E-03 0. -1.
</event>
<event>
 8    1  0.5489035E+004  0.1043930E+01  0.7957747E-01            NaN
         13   -1    0    0    0    0  0.00000000000E+00  0.00000000000E+00  0.74505805969E-08  0.10566000000E+00  0.10566000000E+00 0. -1.
     999900   -1    0    0    0    0 -0.00000000000E+00 -0.00000000000E+00 -0.74505805969E-08  0.93827000000E+00  0.93827000000E+00 0.  1.
     999902    2    1    2    0    0  0.77643587325E-02  0.14934107429E-01 -0.17427097782E-01  0.10197015752E+01  0.10194136971E+01 0.  0.
     999903    2    3    3    0    0 -0.10130220031E+00  0.77970398935E-01  0.14586712107E-01  0.13015451497E+00  0.19644508107E-01 0.  0.
         14    1    1    2    0    0 -0.77643587325E-02 -0.14934107429E-01  0.17427097782E-01  0.24228424801E-01  0.00000000000E+00 0. -1.
     999901    1    3    3    0    0  0.10906655904E+00 -0.63036291506E-01 -0.32013809889E-01  0.88954706023E+00  0.88000000000E+00 0.  1.
        -11    1    4    4    0    0 -0.10182342739E+00  0.76118336142E-01  0.15281426984E-01  0.12804606434E+00  0.51100000000E-03 0.  1.
         11    1    4    4    0    0  0.52122708325E-03  0.18520627933E-02 -0.69471487642E-03  0.21084506212E-02  0.51100000000E-03 0. -1.
</event>
<event>
 8    1  0.5489035E+004  0.1043930E+01  0.7957747E-01            NaN
         13   -1    0    0    0    0  0.00000000000E+00  0.00000000000E+00  0.74505805969E-08  0.10566000000E+00  0.10566000000E+00 0.  1.
     999900   -1    0    0    0    0 -0.00000000000E+00 -0.00000000000E+00 -0.74505805969E-08  0.93827000000E+00  0.93827000000E+00 0. -1.
     999902    2    1    2    0    0  0.17937625064E-01  0.13467614814E-01 -0.87998138211E-02  0.10198349431E+01  0.10195502633E+01 0.  0.
     999903    2    3    3    0    0 -0.75669416843E-01  0.89900100176E-01  0.49902056452E-01  0.12963827235E+00  0.22538362027E-01 0.  0.
         14    1    1    2    0    0 -0.17937625064E-01 -0.13467614814E-01  0.87998138211E-02  0.24095056858E-01  0.00000000000E+00 0.  1.
     999901    1    3    3    0    0  0.93607041908E-01 -0.76432485362E-01 -0.58701870273E-01  0.89019667079E+00  0.88000000000E+00 0. -1.
        -11    1    4    4    0    0 -0.47547582746E-01  0.66301365297E-01  0.43184713390E-01  0.92313727347E-01  0.51100000000E-03 0. -1.
         11    1    4    4    0    0 -0.28121834097E-01  0.23598734880E-01  0.67173430627E-02  0.37324545004E-01  0.51100000000E-03 0.  1.
</event>
<event>
 8    1  0.5489035E+004  0.1043930E+01  0.7957747E-01            NaN
         13   -1    0    0    0    0  0.00000000000E+00  0.00000000000E+00  0.74505805969E-08  0.10566000000E+00  0.10566000000E+00 0.  1.
     999900   -1    0    0    0    0 -0.00000000000E+00 -0.00000000000E+00 -0.74505805969E-08  0.93827000000E+00  0.93827000000E+00 0.  1.
     999902    2    1    2    0    0  0.13155578823E-01 -0.15259432811E-01 -0.93605109202E-02  0.10217142689E+01  0.10214727155E+01 0.  0.
     999903    2    3    3    0    0 -0.97265774151E-02  0.98369732522E-01 -0.83655412161E-01  0.13100954081E+00  0.19850975132E-01 0.  0.
         14    1    1    2    0    0 -0.13155578823E-01  0.15259432811E-01  0.93605109202E-02  0.22215731106E-01  0.00000000000E+00 0.  1.
     999901    1    3    3    0    0  0.22882156238E-01 -0.11362916533E+00  0.74294901240E-01  0.89070472809E+00  0.88000000000E+00 0. -1.
        -11    1    4    4    0    0 -0.13347566022E-01  0.55124569702E-01 -0.39657386108E-01  0.69208706804E-01  0.51100000000E-03 0.  1.
         11    1    4    4    0    0  0.36209886067E-02  0.43245162820E-01 -0.43998026052E-01  0.61800834002E-01  0.51100000000E-03 0. -1.
</event>
<event>
 8    1  0.5489035E+004  0.1043930E+01  0.7957747E-01            NaN
         13   -1    0    0    0    0  0.00000000000E+00  0.00000000000E+00  0.74505805969E-08  0.10566000000E+00  0.10566000000E+00 0.  1.
     999900   -1    0    0    0    0 -0.00000000000E+00 -0.00000000000E+00 -0.74505805969E-08  0.93827000000E+00  0.93827000000E+00 0. -1.
     999902    2    1    2    0    0 -0.22135014690E-01 -0.85586658828E-02 -0.70437482274E-02  0.10191747172E+01  0.10188740257E+01 0.  0.
     999903    2    3    3    0    0 -0.42682775154E-01 -0.12231200492E+00  0.97960720427E-02  0.13145538535E+00  0.20062638590E-01 0.  0.
         14    1    1    2    0    0  0.22135014690E-01  0.85586658828E-02  0.70437482274E-02  0.24755282792E-01  0.00000000000E+00 0.  1.
     999901    1    3    3    0    0  0.20547760464E-01  0.11375333904E+00 -0.16839820270E-01  0.88771933186E+00  0.88000000000E+00 0.  1.
        -11    1    4    4    0    0 -0.11045473047E-01 -0.61520483605E-01  0.28509216222E-02  0.62571249411E-01  0.51100000000E-03 0. -1.
         11    1    4    4    0    0 -0.31637302108E-01 -0.60791521319E-01  0.69451504205E-02  0.68884135941E-01  0.51100000000E-03 0.  1.
</event>
<event>
 8    1  0.5489035E+004  0.1043930E+01  0.7957747E-01            NaN
         13   -1    0    0    0    0  0.00000000000E+00  0.00000000000E+00  0.74505805969E-08  0.10566000000E+00  0.10566000000E+00 0. -1.
     999900   -1    0    0    0    0 -0.00000000000E+00 -0.00000000000E+00 -0.74505805969E-08  0.93827000000E+00  0.93827000000E+00 0.  1.
     999902    2    1    2    0    0  0.76294297325E-02 -0.50790776780E-02 -0.22122402834E-01  0.10199841040E+01  0.10197029795E+01 0.  0.
     999903    2    3    3    0    0 -0.85157850573E-01 -0.74541238672E-01  0.58001183888E-01  0.12877466714E+00  0.20261337272E-01 0.  0.
         14    1    1    2    0    0 -0.76294297325E-02  0.50790776780E-02  0.22122402834E-01  0.23945896000E-01  0.00000000000E+00 0. -1.
     999901    1    3    3    0    0  0.92787280305E-01  0.69462160994E-01 -0.80123586722E-01  0.89120943686E+00  0.88000000000E+00 0.  1.
        -11    1    4    4    0    0 -0.28853970203E-01 -0.38219307759E-01  0.26507936630E-01  0.54737545684E-01  0.51100000000E-03 0.  1.
         11    1    4    4    0    0 -0.56303880370E-01 -0.36321930912E-01  0.31493247258E-01  0.74037121458E-01  0.51100000000E-03 0. -1.
</event>
<event>
 8    1  0.5489035E+004  0.1043930E+01  0.7957747E-01            NaN
         13   -1    0    0    0    0  0.00000000000E+00  0.00000000000E+00  0.74505805969E-08  0.10566000000E+00  0.10566000000E+00 0. -1.
     999900   -1    0    0    0    0 -0.00000000000E+00 -0.00000000000E+00 -0.74505805969E-08  0.93827000000E+00  0.93827000000E+00 0.  1.
     999902    2    1    2    0    0  0.17423095535E-01 -0.13360250685E-01 -0.90265160234E-02  0.10201910331E+01  0.10199148031E+01 0.  0.
     999903    2    3    3    0    0  0.10933362530E+00  0.42252514941E-01  0.55790939765E-01  0.13129192313E+00  0.19642389908E-01 0.  0.
         14    1    1    2    0    0 -0.17423095535E-01  0.13360250685E-01  0.90265160234E-02  0.23738966867E-01  0.00000000000E+00 0. -1.
     999901    1    3    3    0    0 -0.91910529761E-01 -0.55612765626E-01 -0.64817455789E-01  0.88889911000E+00  0.88000000000E+00 0.  1.
        -11    1    4    4    0    0  0.82231061741E-01  0.32980075833E-01  0.51045043962E-01  0.10225209314E+00  0.51100000000E-03 0.  1.
         11    1    4    4    0    0  0.27102563555E-01  0.92724391076E-02  0.47458958030E-02  0.29039829996E-01  0.51100000000E-03 0. -1.
</event>
<event>
 8    1  0.5489035E+004  0.1043930E+01  0.7957747E-01            NaN
         13   -1    0    0    0    0  0.00000000000E+00  0.00000000000E+00  0.74505805969E-08  0.10566000000E+00  0.10566000000E+00 0.  1.
     999900   -1    0    0    0    0 -0.00000000000E+00 -0.00000000000E+00 -0.74505805969E-08  0.93827000000E+00  0.93827000000E+00 0.  1.
     999902    2    1    2    0    0  0.10637751699E-01  0.20564961666E-01 -0.44005122384E-02  0.10203621423E+01  0.10200899262E+01 0.  0.
     999903    2    3    3    0    0 -0.82725353785E-01 -0.92654073200E-01 -0.23962923937E-01  0.12799567761E+00  0.19504110420E-01 0.  0.
         14    1    1    2    0    0 -0.10637751699E-01 -0.20564961666E-01  0.44005122384E-02  0.23567857719E-01  0.00000000000E+00 0.  1.
     999901    1    3    3    0    0  0.93363105483E-01  0.11321903487E+00  0.19562411698E-01  0.89236646467E+00  0.88000000000E+00 0. -1.
        -11    1    4    4    0    0 -0.45004331224E-01 -0.44249408725E-01 -0.21137706178E-01  0.66561728830E-01  0.51100000000E-03 0.  1.
         11    1    4    4    0    0 -0.37721022560E-01 -0.48404664475E-01 -0.28252177587E-02  0.61433948777E-01  0.51100000000E-03 0. -1.
</event>
<event>
 8    1  0.5489035E+004  0.1043930E+01  0.7957747E-01            NaN
         13   -1    0    0    0    0  0.00000000000E+00  0.00000000000E+00  0.74505805969E-08  0.10566000000E+00  0.10566000000E+00 0. -1.
     999900   -1    0    0    0    0 -0.00000000000E+00 -0.00000000000E+00 -0.74505805969E-08  0.93827000000E+00  0.93827000000E+00 0.  1.
     999902    2    1    2    0    0  0.69399046469E-02 -0.69389840758E-02  0.20910448520E-01  0.10208311118E+01  0.10205697430E+01 0.  0.
     999903    2    3    3    0    0 -0.10167052425E+00  0.51329288930E-01  0.61746141773E-01  0.13130372568E+00  0.21365648833E-01 0.  0.
         14    1    1    2    0    0 -0.69399046469E-02  0.69389840758E-02 -0.20910448520E-01  0.23098888151E-01  0.00000000000E+00 0.  1.
     999901    1    3    3    0    0  0.10861042890E+00 -0.58268273006E-01 -0.40835693253E-01  0.88952738617E+00  0.88000000000E+00 0. -1.
        -11    1    4    4    0    0 -0.52139110785E-01  0.38071893156E-01  0.32689346165E-01  0.72365809576E-01  0.51100000000E-03 0. -1.
         11    1    4    4    0    0 -0.49531413464E-01  0.13257395774E-01  0.29056795608E-01  0.58937916102E-01  0.51100000000E-03 0.  1.
</event>
<event>
 8    1  0.5489035E+004  0.1043930E+01  0.7957747E-01            NaN
         13   -1    0    0    0    0  0.00000000000E+00  0.00000000000E+00  0.74505805969E-08  0.10566000000E+00  0.10566000000E+00 0. -1.
     999900   -1    0    0    0    0 -0.00000000000E+00 -0.00000000000E+00 -0.74505805969E-08  0.93827000000E+00  0.93827000000E+00 0.  1.
     999902    2    1    2    0    0  0.19205515487E-01 -0.10333761252E-01 -0.73673945902E-02  0.10209100749E+01  0.10206505103E+01 0.  0.
     999903    2    3    3    0    0  0.10276627422E+00 -0.83559496092E-01 -0.41869661730E-02  0.13391823520E+00  0.19325282102E-01 0.  0.
         14    1    1    2    0    0 -0.19205515487E-01  0.10333761252E-01  0.73673945902E-02  0.23019925061E-01  0.00000000000E+00 0.  1.
     999901    1    3    3    0    0 -0.83560758734E-01  0.73225734841E-01 -0.31804284172E-02  0.88699183974E+00  0.88000000000E+00 0.  1.
        -11    1    4    4    0    0  0.66169142365E-01 -0.44222996919E-01 -0.83587107147E-02  0.80025983428E-01  0.51100000000E-03 0.  1.
         11    1    4    4    0    0  0.36597131856E-01 -0.39336499174E-01  0.41717445417E-02  0.53892251770E-01  0.51100000000E-03 0. -1.
</event>
<event>
 8    1  0.5489035E+004  0.1043930E+01  0.7957747E-01            NaN
         13   -1    0    0    0    0  0.00000000000E+00  0.00000000000E+00  0.74505805969E-08  0.10566000000E+00  0.10566000000E+00 0. -1.
     999900   -1    0    0    0    0 -0.00000000000E+00 -0.00000000000E+00 -0.74505805969E-08  0.93827000000E+00  0.93827000000E+00 0.  1.
     999902    2    1    2    0    0 -0.10575279162E-01 -0.17952009257E-01 -0.12147113474E-01  0.10198122984E+01  0.10195270768E+01 0.  0.
     999903    2    3    3    0    0 -0.12817179340E+00  0.55835232498E-02  0.18681600033E-01  0.13114291609E+00  0.19755452548E-01 0.  0.
         14    1    1    2    0    0  0.10575279162E-01  0.17952009257E-01  0.12147113474E-01  0.24117701620E-01  0.00000000000E+00 0. -1.
     999901    1    3    3    0    0  0.11759651423E+00 -0.23535532507E-01 -0.30828713507E-01  0.88866938229E+00  0.88000000000E+00 0. -1.
        -11    1    4    4    0    0 -0.38091123798E-01  0.79852544400E-02 -0.86988532105E-03  0.38932195188E-01  0.51100000000E-03 0.  1.
         11    1    4    4    0    0 -0.90080669598E-01 -0.24017311902E-02  0.19551485354E-01  0.92210720898E-01  0.51100000000E-03 0. -1.
</event>
<event>
 8    1  0.5489035E+004  0.1043930E+01  0.7957747E-01            NaN
         13   -1    0    0    0    0  0.00000000000E+00  0.00000000000E+00  0.74505805969E-08  0.10566000000E+00  0.10566000000E+00 0.  1.
     999900   -1    0    0    0    0 -0.00000000000E+00 -0.00000000000E+00 -0.74505805969E-08  0.93827000000E+00  0.93827000000E+00 0.  1.
     999902    2    1    2    0    0  0.27652273876E-02 -0.23364707075E-01  0.24866214809E-01  0.10096971991E+01  0.10091167173E+01 0.  0.
     999903    2    3    3    0    0  0.38137631785E-01  0.11025349748E+00 -0.34135457386E-02  0.11845942137E+00  0.20264983419E-01 0.  0.
         14    1    1    2    0    0 -0.27652273876E-02  0.23364707075E-01 -0.24866214809E-01  0.34232800910E-01  0.00000000000E+00 0.  1.
     999901    1    3    3    0    0 -0.35372404397E-01 -0.13361820455E+00  0.28279760547E-01  0.89123777772E+00  0.88000000000E+00 0. -1.
        -11    1    4    4    0    0  0.33070282175E-01  0.86391737624E-01  0.50232901768E-02  0.92642703210E-01  0.51100000000E-03 0. -1.
         11    1    4    4    0    0  0.50673496098E-02  0.23861759851E-01 -0.84368359153E-02  0.25816718160E-01  0.51100000000E-03 0.  1.
</event>
<event>
 7    1  0.5489035E+004  0.1043930E+01  0.7957747E-01            NaN
         13   -1    0    0    0    0  0.00000000000E+00  0.00000000000E+00  0.74505805969E-08  0.10566000000E+00  0.10566000000E+00 0.  1.
     999900   -1    0    0    0    0 -0.00000000000E+00 -0.00000000000E+00 -0.74505805969E-08  0.93827000000E+00  0.93827000000E+00 0. -1.
     999902    2    1    2    0    0  0.16885623313E-01  0.46570846107E-02 -0.16161095842E-01  0.10200973810E+01  0.10198189412E+01 0.  0.
         14    1    1    2    0    0 -0.16885623313E-01 -0.46570846107E-02  0.16161095842E-01  0.23832619046E-01  0.00000000000E+00 0.  1.
     999901    1    3    3    0    0  0.13078706677E+00  0.14587344510E-01 -0.34224491846E-01  0.89044335210E+00  0.88000000000E+00 0.  1.
        -11    1    3    3    0    0 -0.79071299781E-01  0.12872831700E-01 -0.80358552813E-02  0.80515938398E-01  0.51100000000E-03 0. -1.
         11    1    3    3    0    0 -0.34830143679E-01 -0.22803091600E-01  0.26099251285E-01  0.49138090458E-01  0.51100000000E-03 0.  1.
</event>
<event>
 8    1  0.5489035E+004  0.1043930E+01  0.7957747E-01            NaN
         13   -1    0    0    0    0  0.00000000000E+00  0.00000000000E+00  0.74505805969E-08  0.10566000000E+00  0.10566000000E+00 0. -1.
     999900   -1    0    0    0    0 -0.00000000000E+00 -0.00000000000E+00 -0.74505805969E-08  0.93827000000E+00  0.93827000000E+00 0. -1.
     999902    2    1    2    0    0 -0.18693082922E-01  0.57871868196E-02  0.13179247568E-01  0.10203373010E+01  0.10200645040E+01 0.  0.
     999903    2    3    3    0    0 -0.83566080060E-01 -0.89933283129E-01 -0.41191275526E-01  0.13110894566E+00  0.20531665842E-01 0.  0.
         14    1    1    2    0    0  0.18693082922E-01 -0.57871868196E-02 -0.13179247568E-01  0.23592699017E-01  0.00000000000E+00 0. -1.
     999901    1    3    3    0    0  0.64872997138E-01  0.95720469949E-01  0.54370523094E-01  0.88922835532E+00  0.88000000000E+00 0.  1.
        -11    1    4    4    0    0 -0.58430164079E-01 -0.50100246666E-01 -0.30598308948E-01  0.82828958836E-01  0.51100000000E-03 0. -1.
         11    1    4    4    0    0 -0.25135915981E-01 -0.39833036463E-01 -0.10592966577E-01  0.48279986826E-01  0.51100000000E-03 0.  1.
</event>
<event>
 8    1  0.5489035E+004  0.1043930E+01  0.7957747E-01            NaN
         13   -1    0    0    0    0  0.00000000000E+00  0.00000000000E+00  0.74505805969E-08  0.10566000000E+00  0.10566000000E+00 0. -1.
     999900   -1    0    0    0    0 -0.00000000000E+00 -0.00000000000E+00 -0.74505805969E-08  0.93827000000E+00  0.93827000000E+00 0.  1.
     999902    2    1    2    0    0  0.86603324462E-02  0.83645871613E-02 -0.20971142862E-01  0.10197482608E+01  0.10194615044E+01 0.  0.
     999903    2    3    3    0    0  0.29252790303E-01 -0.12140935061E+00 -0.29601989311E-01  0.12995063454E+00  0.20369916295E-01 0.  0.
         14    1    1    2    0    0 -0.86603324462E-02 -0.83645871613E-02  0.20971142862E-01  0.24181739173E-01  0.00000000000E+00 0. -1.
     999901    1    3    3    0    0 -0.20592457856E-01  0.12977393777E+00  0.86308464485E-02  0.88979762629E+00  0.88000000000E+00 0.  1.
        -11    1    4    4    0    0  0.35238824882E-03 -0.36372433600E-01 -0.42448111928E-02  0.36624549780E-01  0.51100000000E-03 0.  1.
         11    1    4    4    0    0  0.28900402054E-01 -0.85036917006E-01 -0.25357178118E-01  0.93326084756E-01  0.51100000000E-03 0. -1.
</event>
<event>
 8    1  0.5489035E+004  0.1043930E+01  0.7957747E-01            NaN
         13   -1    0    0    0    0  0.00000000000E+00  0.00000000000E+00  0.74505805969E-08  0.10566000000E+00  0.10566000000E+00 0.  1.
     999900   -1    0    0    0    0 -0.00000000000E+00 -0.00000000000E+00 -0.74505805969E-08  0.93827000000E+00  0.93827000000E+00 0. -1.
     999902    2    1    2    0    0 -0.23619678569E-01 -0.45774791473E-02  0.85179234354E-03  0.10198557797E+01  0.10195715980E+01 0.  0.
     999903    2    3    3    0    0 -0.11076476763E+00 -0.27802581813E-01  0.65131229128E-01  0.13291411427E+00  0.19551661358E-01 0.  0.
         14    1    1    2    0    0  0.23619678569E-01  0.45774791473E-02 -0.85179234354E-03  0.24074220262E-01  0.00000000000E+00 0.  1.
     999901    1    3    3    0    0  0.87145089062E-01  0.23225102665E-01 -0.64279436784E-01  0.88694166546E+00  0.88000000000E+00 0. -1.
        -11    1    4    4    0    0 -0.73560282473E-01 -0.98845599084E-02  0.46681899887E-01  0.87682840854E-01  0.51100000000E-03 0. -1.
         11    1    4    4    0    0 -0.37204485158E-01 -0.17918021904E-01  0.18449329240E-01  0.45231273421E-01  0.51100000000E-03 0.  1.
</event>
<event>
 8    1  0.5489035E+004  0.1043930E+01  0.7957747E-01            NaN
         13   -1    0    0    0    0  0.00000000000E+00  0.00000000000E+00  0.74505805969E-08  0.10566000000E+00  0.10566000000E+00 0.  1.
     999900   -1    0    0    0    0 -0.00000000000E+00 -0.00000000000E+00 -0.74505805969E-08  0.93827000000E+00  0.93827000000E+00 0.  1.
     999902    2    1    2    0    0  0.84065376220E-02 -0.10813457072E-01  0.19411802738E-01  0.10201724998E+01  0.10198958332E+01 0.  0.
     999903    2    3    3    0    0 -0.21416072063E-01  0.86309460086E-01  0.94183707883E-01  0.13117695042E+00  0.20708704613E-01 0.  0.
         14    1    1    2    0    0 -0.84065376220E-02  0.10813457072E-01 -0.19411802738E-01  0.23757500167E-01  0.00000000000E+00 0. -1.
     999901    1    3    3    0    0  0.29822609685E-01 -0.97122917158E-01 -0.74771905145E-01  0.88899554942E+00  0.88000000000E+00 0.  1.
        -11    1    4    4    0    0 -0.17126744251E-01  0.52172969636E-01  0.44190507329E-01  0.70486922109E-01  0.51100000000E-03 0.  1.
         11    1    4    4    0    0 -0.42893278119E-02  0.34136490450E-01  0.49993200553E-01  0.60690028306E-01  0.51100000000E-03 0. -1.
</event>
<event>
 8    1  0.5489035E+004  0.1043930E+01  0.7957747E-01            NaN
         13   -1    0    0    0    0  0.00000000000E+00  0.00000000000E+00  0.74505805969E-08  0.10566000000E+00  0.10566000000E+00 0.  1.
     999900   -1    0    0    0    0 -0.00000000000E+00 -0.00000000000E+00 -0.74505805969E-08  0.93827000000E+00  0.93827000000E+00 0.  1.
     999902    2    1    2    0    0  0.19647013135E-01  0.12071010446E-01  0.38979372691E-04  0.10208710335E+01  0.10206105776E+01 0.  0.
     999903    2    3    3    0    0  0.95429105674E-01 -0.54010378334E-01 -0.70770354551E-01  0.13231960712E+00  0.21822011062E-01 0.  0.
         14    1    1    2    0    0 -0.19647013135E-01 -0.12071010446E-01 -0.38979372691E-04  0.23058966536E-01  0.00000000000E+00 0.  1.
     999901    1    3    3    0    0 -0.75782092539E-01  0.66081388780E-01  0.70809333924E-01  0.88855142635E+00  0.88000000000E+00 0. -1.
        -11    1    4    4    0    0  0.39446343427E-01 -0.34816221486E-01 -0.33832292849E-01  0.62554523807E-01  0.51100000000E-03 0.  1.
         11    1    4    4    0    0  0.55982762247E-01 -0.19194156848E-01 -0.36938061702E-01  0.69765083310E-01  0.51100000000E-03 0. -1.
</event>
<event>
 8    1  0.5489035E+004  0.1043930E+01  0.7957747E-01            NaN
         13   -1    0    0    0    0  0.00000000000E+00  0.00000000000E+00  0.74505805969E-08  0.10566000000E+00  0.10566000000E+00 0.  1.
     999900   -1    0    0    0    0 -0.00000000000E+00 -0.00000000000E+00 -0.74505805969E-08  0.93827000000E+00  0.93827000000E+00 0. -1.
     999902    2    1    2    0    0 -0.28870169724E-02  0.11861227459E-02  0.24734422022E-01  0.10189994287E+01  0.10186944106E+01 0.  0.
     999903    2    3    3    0    0  0.43900589702E-01  0.10791867106E+00 -0.49980694485E-01  0.12817774862E+00  0.18914652544E-01 0.  0.
         14    1    1    2    0    0  0.28870169724E-02 -0.11861227459E-02 -0.24734422022E-01  0.24930571332E-01  0.00000000000E+00 0. -1.
     999901    1    3    3    0    0 -0.46787606675E-01 -0.10673254831E+00  0.74715116508E-01  0.89082168005E+00  0.88000000000E+00 0.  1.
        -11    1    4    4    0    0  0.15989460716E-01  0.27950180978E-01 -0.21891612125E-01  0.38940714852E-01  0.51100000000E-03 0. -1.
         11    1    4    4    0    0  0.27911128986E-01  0.79968490081E-01 -0.28089082360E-01  0.89237033769E-01  0.51100000000E-03 0.  1.
</event>
<event>
 8    1  0.5489035E+004  0.1043930E+01  0.7957747E-01            NaN
         13   -1    0    0    0    0  0.00000000000E+00  0.00000000000E+00  0.74505805969E-08  0.10566000000E+00  0.10566000000E+00 0.  1.
     999900   -1    0    0    0    0 -0.00000000000E+00 -0.00000000000E+00 -0.74505805969E-08  0.93827000000E+00  0.93827000000E+00 0. -1.
     999902    2    1    2    0    0  0.35333102176E-02 -0.19090052410E-01  0.13130434846E-01  0.10204923657E+01  0.10202231843E+01 0.  0.
     999903    2    3    3    0    0 -0.11906448155E-01 -0.85934836501E-01 -0.96020272783E-01  0.13109903974E+00  0.20988230100E-01 0.  0.
         14    1    1    2    0    0 -0.35333102176E-02  0.19090052410E-01 -0.13130434846E-01  0.23437634295E-01  0.00000000000E+00 0.  1.
     999901    1    3    3    0    0  0.15439758373E-01  0.66844784091E-01  0.10915070763E+00  0.88939332597E+00  0.88000000000E+00 0.  1.
        -11    1    4    4    0    0 -0.97054610738E-02 -0.49408347088E-01 -0.69849056362E-01  0.86107679869E-01  0.51100000000E-03 0. -1.
         11    1    4    4    0    0 -0.22009870814E-02 -0.36526489413E-01 -0.26171216421E-01  0.44991359869E-01  0.51100000000E-03 0.  1.
</event>
<event>
 8    1  0.5489035E+004  0.1043930E+01  0.7957747E-01            NaN
         13   -1    0    0    0    0  0.00000000000E+00  0.00000000000E+00  0.74505805969E-08  0.10566000000E+00  0.10566000000E+00 0.  1.
     999900   -1    0    0    0    0 -0.00000000000E+00 -0.00000000000E+00 -0.74505805969E-08  0.93827000000E+00  0.93827000000E+00 0.  1.
     999902    2    1    2    0    0 -0.15377048563E-01  0.15764525477E-02  0.14713332710E-01  0.10225894052E+01  0.10223667007E+01 0.  0.
     999903    2    3    3    0    0 -0.92476979688E-01  0.83061199603E-01 -0.44990852390E-01  0.13346131936E+00  0.18346452401E-01 0.  0.
         14    1    1    2    0    0  0.15377048563E-01 -0.15764525477E-02 -0.14713332710E-01  0.21340594757E-01  0.00000000000E+00 0. -1.
     999901    1    3    3    0    0  0.77099931125E-01 -0.81484747055E-01  0.59704185099E-01  0.88912808588E+00  0.88000000000E+00 0.  1.
        -11    1    4    4    0    0 -0.68177307201E-01  0.69049483460E-01 -0.40038359599E-01  0.10497289052E+00  0.51100000000E-03 0. -1.
         11    1    4    4    0    0 -0.24299672487E-01  0.14011716144E-01 -0.49524927907E-02  0.28488428846E-01  0.51100000000E-03 0.  1.
</event>
<event>
 8    1  0.5489035E+004  0.1043930E+01  0.7957747E-01            NaN
         13   -1    0    0    0    0  0.00000000000E+00  0.00000000000E+00  0.74505805969E-08  0.10566000000E+00  0.10566000000E+00 0. -1.
     999900   -1    0    0    0    0 -0.00000000000E+00 -0.00000000000E+00 -0.74505805969E-08  0.93827000000E+00  0.93827000000E+00 0. -1.
     999902    2    1    2    0    0 -0.65782584301E-02  0.22670021551E-03  0.20109393204E-01  0.10227707804E+01  0.10225518846E+01 0.  0.
     999903    2    3    3    0    0 -0.39090589443E-01 -0.84245169544E-02 -0.12257565321E+00  0.13064359350E+00  0.21069197775E-01 0.  0.
         14    1    1    2    0    0  0.65782584301E-02 -0.22670021551E-03 -0.20109393204E-01  0.21159219550E-01  0.00000000000E+00 0.  1.
     999901    1    3    3    0    0  0.32512331013E-01  0.86512171699E-02  0.14268504641E+00  0.89212718695E+00  0.88000000000E+00 0.  1.
        -11    1    4    4    0    0 -0.27320111378E-01 -0.85397850032E-02 -0.54557051867E-01  0.61612088449E-01  0.51100000000E-03 0. -1.
         11    1    4    4    0    0 -0.11770478066E-01  0.11526804883E-03 -0.68018601338E-01  0.69031505051E-01  0.51100000000E-03 0.  1.
</event>
<event>
 8    1  0.5489035E+004  0.1043930E+01  0.7957747E-01            NaN
         13   -1    0    0    0    0  0.00000000000E+00  0.00000000000E+00  0.74505805969E-08  0.10566000000E+00  0.10566000000E+00 0.  1.
     999900   -1    0    0    0    0 -0.00000000000E+00 -0.00000000000E+00 -0.74505805969E-08  0.93827000000E+00  0.93827000000E+00 0.  1.
     999902    2    1    2    0    0  0.12515620532E-01 -0.14913067305E-01  0.13002582807E-01  0.10205183043E+01  0.10202497253E+01 0.  0.
     999903    2    3    3    0    0  0.58079463444E-01  0.19157309468E-01  0.11605447795E+00  0.13268017301E+00  0.19878628710E-01 0.  0.
         14    1    1    2    0    0 -0.12515620532E-01  0.14913067305E-01 -0.13002582807E-01  0.23411695654E-01  0.00000000000E+00 0. -1.
     999901    1    3    3    0    0 -0.45563842913E-01 -0.34070376772E-01 -0.10305189514E+00  0.88783813133E+00  0.88000000000E+00 0.  1.
        -11    1    4    4    0    0  0.26342759678E-01  0.11151309410E-01  0.74336713967E-01  0.79652375064E-01  0.51100000000E-03 0.  1.
         11    1    4    4    0    0  0.31736703766E-01  0.80060000578E-02  0.41717763981E-01  0.53027797950E-01  0.51100000000E-03 0. -1.
</event>
<event>
 8    1  0.5489035E+004  0.1043930E+01  0.7957747E-01            NaN
         13   -1    0    0    0    0  0.00000000000E+00  0.00000000000E+00  0.74505805969E-08  0.10566000000E+00  0.10566000000E+00 0.  1.
     999900   -1    0    0    0    0 -0.00000000000E+00 -0.00000000000E+00 -0.74505805969E-08  0.93827000000E+00  0.93827000000E+00 0. -1.
     999902    2    1    2    0    0  0.19134007039E-01  0.37248049855E-02  0.17361883746E-01  0.10178259887E+01  0.10174911911E+01 0.  0.
     999903    2    3    3    0    0 -0.86671074825E-01  0.34607301076E-02  0.92504117118E-01  0.12830862502E+00  0.19550951579E-01 0.  0.
         14    1    1    2    0    0 -0.19134007039E-01 -0.37248049855E-02 -0.17361883746E-01  0.26104011277E-01  0.00000000000E+00 0. -1.
     999901    1    3    3    0    0  0.10580508186E+00  0.26407487795E-03 -0.75142233372E-01  0.88951736370E+00  0.88000000000E+00 0. -1.
        -11    1    4    4    0    0 -0.17634081097E-01  0.73652967095E-02  0.26816483788E-01  0.32933164675E-01  0.51100000000E-03 0.  1.
         11    1    4    4    0    0 -0.69036993728E-01 -0.39045666019E-02  0.65687633330E-01  0.95375460350E-01  0.51100000000E-03 0. -1.
</event>
<event>
 8    1  0.5489035E+004  0.1043930E+01  0.7957747E-01            NaN
         13   -1    0    0    0    0  0.00000000000E+00  0.00000000000E+00  0.74505805969E-08  0.10566000000E+00  0.10566000000E+00 0. -1.
     999900   -1    0    0    0    0 -0.00000000000E+00 -0.00000000000E+00 -0.74505805969E-08  0.93827000000E+00  0.93827000000E+00 0.  1.
     999902    2    1    2    0    0  0.18154509422E-01  0.37527008243E-02  0.18145643924E-01  0.10179890407E+01  0.10176584661E+01 0.  0.
     999903    2    3    3    0    0  0.12590393251E-01  0.12688774988E+00 -0.38570351176E-02  0.12912610550E+00  0.19991381388E-01 0.  0.
         14    1    1    2    0    0 -0.18154509422E-01 -0.37527008243E-02 -0.18145643924E-01  0.25940959298E-01  0.00000000000E+00 0.  1.
     999901    1    3    3    0    0  0.55641161712E-02 -0.12313504905E+00  0.22002679042E-01  0.88886293520E+00  0.88000000000E+00 0. -1.
        -11    1    4    4    0    0 -0.47137622648E-02  0.46140635316E-01  0.10854736293E-02  0.46396305414E-01  0.51100000000E-03 0.  1.
         11    1    4    4    0    0  0.17304155516E-01  0.80747114562E-01 -0.49425087470E-02  0.82729800084E-01  0.51100000000E-03 0. -1.
</event>
<event>
 8    1  0.5489035E+004  0.1043930E+01  0.7957747E-01            NaN
         13   -1    0    0    0    0  0.00000000000E+00  0.00000000000E+00  0.74505805969E-08  0.10566000000E+00  0.10566000000E+00 0.  1.
     999900   -1    0    0    0    0 -0.00000000000E+00 -0.00000000000E+00 -0.74505805969E-08  0.93827000000E+00  0.93827000000E+00 0.  1.
     999902    2    1    2    0    0  0.17548905756E-01 -0.31865428576E-02  0.17244462007E-01  0.10191209368E+01  0.10188189212E+01 0.  0.
     999903    2    3    3    0    0 -0.60446333881E-01  0.82819121452E-01  0.76643023762E-01  0.12950954923E+00  0.19641896351E-01 0.  0.
         14    1    1    2    0    0 -0.17548905756E-01  0.31865428576E-02 -0.17244462007E-01  0.24809063234E-01  0.00000000000E+00 0. -1.
     999901    1    3    3    0    0  0.77995239638E-01 -0.86005664309E-01 -0.59398561755E-01  0.88961138754E+00  0.88000000000E+00 0. -1.
        -11    1    4    4    0    0 -0.39391236861E-01  0.59177664400E-01  0.41971426845E-01  0.82556206900E-01  0.51100000000E-03 0. -1.
         11    1    4    4    0    0 -0.21055097021E-01  0.23641457051E-01  0.34671596916E-01  0.46953342328E-01  0.51100000000E-03 0.  1.
</event>
<event>
 8    1  0.5489035E+004  0.1043930E+01  0.7957747E-01            NaN
         13   -1    0    0    0    0  0.00000000000E+00  0.00000000000E+00  0.74505805969E-08  0.10566000000E+00  0.10566000000E+00 0. -1.
     999900   -1    0    0    0    0 -0.00000000000E+00 -0.00000000000E+00 -0.74505805969E-08  0.93827000000E+00  0.93827000000E+00 0. -1.
     999902    2    1    2    0    0  0.10397041521E-01  0.18679188798E-01 -0.11569643127E-01  0.10196222397E+01  0.10193324505E+01 0.  0.
     999903    2    3    3    0    0 -0.30521596157E-01 -0.88565271219E-01 -0.86315476108E-01  0.12902544621E+00  0.20538482289E-01 0.  0.
         14    1    1    2    0    0 -0.10397041521E-01 -0.18679188798E-01  0.11569643127E-01  0.24307760255E-01  0.00000000000E+00 0. -1.
     999901    1    3    3    0    0  0.40918637679E-01  0.10724446002E+00  0.74745832981E-01  0.89059679354E+00  0.88000000000E+00 0.  1.
        -11    1    4    4    0    0 -0.29961690951E-01 -0.57768924687E-01 -0.59741383429E-01  0.88341641365E-01  0.51100000000E-03 0.  1.
         11    1    4    4    0    0 -0.55990520651E-03 -0.30796346533E-01 -0.26574092679E-01  0.40683804841E-01  0.51100000000E-03 0. -1.
</event>
<event>
 8    1  0.5489035E+004  0.1043930E+01  0.7957747E-01            NaN
         13   -1    0    0    0    0  0.00000000000E+00  0.00000000000E+00  0.74505805969E-08  0.10566000000E+00  0.10566000000E+00 0.  1.
     999900   -1    0    0    0    0 -0.00000000000E+00 -0.00000000000E+00 -0.74505805969E-08  0.93827000000E+00  0.93827000000E+00 0. -1.
     999902    2    1    2    0    0  0.13714522024E-01 -0.16967987943E-01  0.96850857602E-02  0.10200594823E+01  0.10197801458E+01 0.  0.
     999903    2    3    3    0    0  0.12616293456E+00 -0.27090695833E-01 -0.20792527113E-01  0.13232303516E+00  0.20641332098E-01 0.  0.
         14    1    1    2    0    0 -0.13714522024E-01  0.16967987943E-01 -0.96850857602E-02  0.23870517702E-01  0.00000000000E+00 0.  1.
     999901    1    3    3    0    0 -0.11244841254E+00  0.10122707891E-01  0.30477612874E-01  0.88773644714E+00  0.88000000000E+00 0.  1.
        -11    1    4    4    0    0  0.60109458290E-02  0.23506112322E-02 -0.36528750672E-02  0.74338052288E-02  0.51100000000E-03 0.  1.
         11    1    4    4    0    0  0.12015198873E+00 -0.29441307066E-01 -0.17139652046E-01  0.12488922993E+00  0.51100000000E-03 0. -1.
</event>
<event>
 8    1  0.5489035E+004  0.1043930E+01  0.7957747E-01            NaN
         13   -1    0    0    0    0  0.00000000000E+00  0.00000000000E+00  0.74505805969E-08  0.10566000000E+00  0.10566000000E+00 0.  1.
     999900   -1    0    0    0    0 -0.00000000000E+00 -0.00000000000E+00 -0.74505805969E-08  0.93827000000E+00  0.93827000000E+00 0. -1.
     999902    2    1    2    0    0 -0.15325054568E-01 -0.17515591203E-01  0.37593434658E-02  0.10203548882E+01  0.10200825025E+01 0.  0.
     999903    2    3    3    0    0 -0.12035065006E+00  0.48670521095E-01 -0.83576072691E-02  0.13155918746E+00  0.19618145015E-01 0.  0.
         14    1    1    2    0    0  0.15325054568E-01  0.17515591203E-01 -0.37593434658E-02  0.23575111792E-01  0.00000000000E+00 0. -1.
     999901    1    3    3    0    0  0.10502559549E+00 -0.66186112298E-01  0.12116950735E-01  0.88879570075E+00  0.88000000000E+00 0.  1.
        -11    1    4    4    0    0 -0.51004132488E-01  0.17686657659E-01  0.57964536249E-02  0.54296403063E-01  0.51100000000E-03 0.  1.
         11    1    4    4    0    0 -0.69346517568E-01  0.30983863436E-01 -0.14154060894E-01  0.77262784399E-01  0.51100000000E-03 0. -1.
</event>
<event>
 8    1  0.5489035E+004  0.1043930E+01  0.7957747E-01            NaN
         13   -1    0    0    0    0  0.00000000000E+00  0.00000000000E+00  0.74505805969E-08  0.10566000000E+00  0.10566000000E+00 0. -1.
     999900   -1    0    0    0    0 -0.00000000000E+00 -0.00000000000E+00 -0.74505805969E-08  0.93827000000E+00  0.93827000000E+00 0.  1.
     999902    2    1    2    0    0 -0.44403604298E-02  0.14945507985E-01 -0.18087755588E-01  0.10200500521E+01  0.10197704923E+01 0.  0.
     999903    2    3    3    0    0 -0.75829907574E-01 -0.39203612594E-03  0.10198987378E+00  0.12889891745E+00  0.21509718528E-01 0.  0.
         14    1    1    2    0    0  0.44403604298E-02 -0.14945507985E-01  0.18087755588E-01  0.23879947904E-01  0.00000000000E+00 0. -1.
     999901    1    3    3    0    0  0.71389547144E-01  0.15337544111E-01 -0.12007762937E+00  0.89115113464E+00  0.88000000000E+00 0.  1.
        -11    1    4    4    0    0 -0.35235748910E-01  0.62311347151E-02  0.61660135251E-01  0.71292485167E-01  0.51100000000E-03 0.  1.
         11    1    4    4    0    0 -0.40594158664E-01 -0.66231708411E-02  0.40329738532E-01  0.57606432286E-01  0.51100000000E-03 0. -1.
</event>
<event>
 8    1  0.5489035E+004  0.1043930E+01  0.7957747E-01            NaN
         13   -1    0    0    0    0  0.00000000000E+00  0.00000000000E+00  0.74505805969E-08  0.10566000000E+00  0.10566000000E+00 0.  1.
     999900   -1    0    0    0    0 -0.00000000000E+00 -0.00000000000E+00 -0.74505805969E-08  0.93827000000E+00  0.93827000000E+00 0. -1.
     999902    2    1    2    0    0 -0.24997816814E-01  0.44103018783E-02 -0.10561795330E-02  0.10185241518E+01  0.10182072435E+01 0.  0.
     999903    2    3    3    0    0 -0.58705135133E-01 -0.10025663692E+00 -0.54691553049E-01  0.13006025006E+00  0.20659538535E-01 0.  0.
         14    1    1    2    0    0  0.24997816814E-01 -0.44103018783E-02  0.10561795330E-02  0.25405848211E-01  0.00000000000E+00 0. -1.
     999901    1    3    3    0    0  0.33707318320E-01  0.10466693880E+00  0.53635373516E-01  0.88846390173E+00  0.88000000000E+00 0.  1.
        -11    1    4    4    0    0 -0.44440280755E-01 -0.63437086161E-01 -0.27845139934E-01  0.82309266751E-01  0.51100000000E-03 0. -1.
         11    1    4    4    0    0 -0.14264854378E-01 -0.36819550761E-01 -0.26846413115E-01  0.47750983307E-01  0.51100000000E-03 0.  1.
</event>
<event>
 8    1  0.5489035E+004  0.1043930E+01  0.7957747E-01            NaN
         13   -1    0    0    0    0  0.00000000000E+00  0.00000000000E+00  0.74505805969E-08  0.10566000000E+00  0.10566000000E+00 0. -1.
     999900   -1    0    0    0    0 -0.00000000000E+00 -0.00000000000E+00 -0.74505805969E-08  0.93827000000E+00  0.93827000000E+00 0.  1.
     999902    2    1    2    0    0  0.26348057975E-03 -0.24015262326E-01  0.19704825447E-02  0.10198325925E+01  0.10195478565E+01 0.  0.
     999903    2    3    3    0    0 -0.11279189161E+00  0.33271239212E-01 -0.49509881447E-01  0.12926339906E+00  0.20707771592E-01 0.  0.
         14    1    1    2    0    0 -0.26348057975E-03  0.24015262326E-01 -0.19704825447E-02  0.24097407496E-01  0.00000000000E+00 0. -1.
     999901    1    3    3    0    0  0.11305537219E+00 -0.57286501537E-01  0.51480363992E-01  0.89056919345E+00  0.88000000000E+00 0. -1.
        -11    1    4    4    0    0 -0.35383957974E-01  0.73229600715E-02 -0.56225236491E-02  0.36572176846E-01  0.51100000000E-03 0. -1.
         11    1    4    4    0    0 -0.77407933632E-01  0.25948279140E-01 -0.43887357798E-01  0.92691222211E-01  0.51100000000E-03 0.  1.
</event>
<event>
 7    1  0.5489035E+004  0.1043930E+01  0.7957747E-01            NaN
         13   -1    0    0    0    0  0.00000000000E+00  0.00000000000E+00  0.74505805969E-08  0.10566000000E+00  0.10566000000E+00 0. -1.
     999900   -1    0    0    0    0 -0.00000000000E+00 -0.00000000000E+00 -0.74505805969E-08  0.93827000000E+00  0.93827000000E+00 0. -1.
     999902    2    1    2    0    0 -0.15115004383E-02  0.21717458233E-01 -0.95419303977E-02  0.10201606697E+01  0.10198837243E+01 0.  0.
         14    1    1    2    0    0  0.15115004383E-02 -0.21717458233E-01  0.95419303977E-02  0.23769330268E-01  0.00000000000E+00 0. -1.
     999901    1    3    3    0    0 -0.71196276963E-01 -0.71468557574E-01  0.40937244088E-01  0.88670881496E+00  0.88000000000E+00 0.  1.
        -11    1    3    3    0    0  0.52625982871E-01  0.80614362544E-01 -0.56226940017E-01  0.11148945881E+00  0.51100000000E-03 0. -1.
         11    1    3    3    0    0  0.17058793654E-01  0.12571653263E-01  0.57477655308E-02  0.21962395960E-01  0.51100000000E-03 0.  1.
</event>
<event>
 8    1  0.5489035E+004  0.1043930E+01  0.7957747E-01            NaN
         13   -1    0    0    0    0  0.00000000000E+00  0.00000000000E+00  0.74505805969E-08  0.10566000000E+00  0.10566000000E+00 0.  1.
     999900   -1    0    0    0    0 -0.00000000000E+00 -0.00000000000E+00 -0.74505805969E-08  0.93827000000E+00  0.93827000000E+00 0.  1.
     999902    2    1    2    0    0 -0.12062821268E-01 -0.18883416851E-01 -0.91659460034E-02  0.10197202983E+01  0.10194328704E+01 0.  0.
     999903    2    3    3    0    0 -0.95532849288E-01 -0.89437412422E-01  0.10206669446E-01  0.13274768877E+00  0.19803957687E-01 0.  0.
         14    1    1    2    0    0  0.12062821268E-01  0.18883416851E-01  0.91659460034E-02  0.24209701672E-01  0.00000000000E+00 0.  1.
     999901    1    3    3    0    0  0.83470028019E-01  0.70553995572E-01 -0.19372615450E-01  0.88697260955E+00  0.88000000000E+00 0. -1.
        -11    1    4    4    0    0 -0.56537597932E-01 -0.59952682301E-01 -0.17118271273E-02  0.82425818578E-01  0.51100000000E-03 0. -1.
         11    1    4    4    0    0 -0.38995251355E-01 -0.29484730121E-01  0.11918496573E-01  0.50321870197E-01  0.51100000000E-03 0.  1.
</event>
<event>
 8    1  0.5489035E+004  0.1043930E+01  0.7957747E-01            NaN
         13   -1    0    0    0    0  0.00000000000E+00  0.00000000000E+00  0.74505805969E-08  0.10566000000E+00  0.10566000000E+00 0. -1.
     999900   -1    0    0    0    0 -0.00000000000E+00 -0.00000000000E+00 -0.74505805969E-08  0.93827000000E+00  0.93827000000E+00 0. -1.
     999902    2    1    2    0    0 -0.10836442826E-01 -0.16317292723E-01  0.13377486208E-01  0.10202099732E+01  0.10199341889E+01 0.  0.
     999903    2    3    3    0    0  0.98509950921E-01  0.15938234139E-01 -0.77743516621E-01  0.12818974359E+00  0.20744113584E-01 0.  0.
         14    1    1    2    0    0  0.10836442826E-01  0.16317292723E-01 -0.13377486208E-01  0.23720026817E-01  0.00000000000E+00 0.  1.
     999901    1    3    3    0    0 -0.10934639375E+00 -0.32255526863E-01  0.91121002829E-01  0.89202022959E+00  0.88000000000E+00 0.  1.
        -11    1    4    4    0    0  0.60963420963E-01  0.14227615188E-01 -0.59654408024E-01  0.86474697150E-01  0.51100000000E-03 0. -1.
         11    1    4    4    0    0  0.37546529958E-01  0.17106189515E-02 -0.18089108597E-01  0.41715046445E-01  0.51100000000E-03 0.  1.
</event>
<event>
 8    1  0.5489035E+004  0.1043930E+01  0.7957747E-01            NaN
         13   -1    0    0    0    0  0.00000000000E+00  0.00000000000E+00  0.74505805969E-08  0.10566000000E+00  0.10566000000E+00 0.  1.
     999900   -1    0    0    0    0 -0.00000000000E+00 -0.00000000000E+00 -0.74505805969E-08  0.93827000000E+00  0.93827000000E+00 0. -1.
     999902    2    1    2    0    0 -0.13101596328E-02 -0.41061624806E-02  0.23740313818E-01  0.10198016020E+01  0.10195161244E+01 0.  0.
     999903    2    3    3    0    0  0.48130016989E-01 -0.96625923668E-01 -0.67544354076E-01  0.12888234201E+00  0.19883426632E-01 0.  0.
         14    1    1    2    0    0  0.13101596328E-02  0.41061624806E-02 -0.23740313818E-01  0.24128397973E-01  0.00000000000E+00 0. -1.
     999901    1    3    3    0    0 -0.49440176622E-01  0.92519761187E-01  0.91284667894E-01  0.89091926002E+00  0.88000000000E+00 0.  1.
        -11    1    4    4    0    0  0.24578955986E-01 -0.31179732703E-01 -0.18701384913E-01  0.43889676775E-01  0.51100000000E-03 0. -1.
         11    1    4    4    0    0  0.23551061004E-01 -0.65446190965E-01 -0.48842969163E-01  0.84992665236E-01  0.51100000000E-03 0.  1.
</event>
<event>
 8    1  0.5489035E+004  0.1043930E+01  0.7957747E-01            NaN
         13   -1    0    0    0    0  0.00000000000E+00  0.00000000000E+00  0.74505805969E-08  0.10566000000E+00  0.10566000000E+00 0. -1.
     999900   -1    0    0    0    0 -0.00000000000E+00 -0.00000000000E+00 -0.74505805969E-08  0.93827000000E+00  0.93827000000E+00 0. -1.
     999902    2    1    2    0    0 -0.23308515976E-01 -0.13732123571E-01 -0.18604371366E-04  0.10168771170E+01  0.10165171974E+01 0.  0.
     999903    2    3    3    0    0  0.11982309947E+00 -0.29315945699E-01  0.72569759465E-02  0.12514708555E+00  0.19802259500E-01 0.  0.
         14    1    1    2    0    0  0.23308515976E-01  0.13732123571E-01  0.18604371366E-04  0.27052883042E-01  0.00000000000E+00 0.  1.
     999901    1    3    3    0    0 -0.14313161545E+00  0.15583822128E-01 -0.72755803178E-02  0.89173003141E+00  0.88000000000E+00 0. -1.
        -11    1    4    4    0    0  0.73017259738E-01 -0.81026142418E-02  0.64465180456E-02  0.73749517240E-01  0.51100000000E-03 0.  1.
         11    1    4    4    0    0  0.46805839734E-01 -0.21213331457E-01  0.81045790088E-03  0.51397568306E-01  0.51100000000E-03 0. -1.
</event>
<event>
 8    1  0.5489035E+004  0.1043930E+01  0.7957747E-01            NaN
         13   -1    0    0    0    0  0.00000000000E+00  0.00000000000E+00  0.74505805969E-08  0.10566000000E+00  0.10566000000E+00 0. -1.
     999900   -1    0    0    0    0 -0.00000000000E+00 -0.00000000000E+00 -0.74505805969E-08  0.93827000000E+00  0.93827000000E+00 0. -1.
     999902    2    1    2    0    0  0.14456264156E-01 -0.62023864915E-02 -0.21062456591E-01  0.10176415948E+01  0.10173019882E+01 0.  0.
     999903    2    3    3    0    0 -0.87267087078E-01  0.72866668442E-01 -0.54928272116E-01  0.12761550016E+00  0.18533886450E-01 0.  0.
         14    1    1    2    0    0 -0.14456264156E-01  0.62023864915E-02  0.21062456591E-01  0.26288405224E-01  0.00000000000E+00 0. -1.
     999901    1    3    3    0    0  0.10172335123E+00 -0.79069054933E-01  0.33865815524E-01  0.89002609461E+00  0.88000000000E+00 0. -1.
        -11    1    4    4    0    0 -0.29811639414E-01  0.20593232400E-01 -0.88597920476E-02  0.37303781328E-01  0.51100000000E-03 0. -1.
         11    1    4    4    0    0 -0.57455447664E-01  0.52273436041E-01 -0.46068480068E-01  0.90311718833E-01  0.51100000000E-03 0.  1.
</event>
<event>
 8    1  0.5489035E+004  0.1043930E+01  0.7957747E-01            NaN
         13   -1    0    0    0    0  0.00000000000E+00  0.00000000000E+00  0.74505805969E-08  0.10566000000E+00  0.10566000000E+00 0.  1.
     999900   -1    0    0    0    0 -0.00000000000E+00 -0.00000000000E+00 -0.74505805969E-08  0.93827000000E+00  0.93827000000E+00 0. -1.
     999902    2    1    2    0    0  0.21167807855E-01  0.22681915732E-02  0.99322762317E-02  0.10204380675E+01  0.10201676228E+01 0.  0.
     999903    2    3    3    0    0  0.95298979946E-02 -0.20742655781E-01 -0.12609223737E+00  0.12961394997E+00  0.19479398770E-01 0.  0.
         14    1    1    2    0    0 -0.21167807855E-01 -0.22681915732E-02 -0.99322762317E-02  0.23491932521E-01  0.00000000000E+00 0. -1.
     999901    1    3    3    0    0  0.11637909861E-01  0.23010847355E-01  0.13602451360E+00  0.89082411751E+00  0.88000000000E+00 0.  1.
        -11    1    4    4    0    0 -0.43652660754E-02 -0.10583626096E-01 -0.32765631891E-01  0.34711906365E-01  0.51100000000E-03 0. -1.
         11    1    4    4    0    0  0.13895164070E-01 -0.10159029685E-01 -0.93326605479E-01  0.94902043602E-01  0.51100000000E-03 0.  1.
</event>
<event>
 8    1  0.5489035E+004  0.1043930E+01  0.7957747E-01            NaN
         13   -1    0    0    0    0  0.00000000000E+00  0.00000000000E+00  0.74505805969E-08  0.10566000000E+00  0.10566000000E+00 0.  1.
     999900   -1    0    0    0    0 -0.00000000000E+00 -0.00000000000E+00 -0.74505805969E-08  0.93827000000E+00  0.93827000000E+00 0. -1.
     999902    2    1    2    0    0  0.18221003225E-01  0.14031560075E-01 -0.70622891164E-02  0.10198724531E+01  0.10195886695E+01 0.  0.
     999903    2    3    3    0    0 -0.89604026582E-01 -0.85755699049E-01  0.20560052123E-01  0.12726574916E+00  0.19772042545E-01 0.  0.
         14    1    1    2    0    0 -0.18221003225E-01 -0.14031560075E-01  0.70622891164E-02  0.24057546929E-01  0.00000000000E+00 0.  1.
     999901    1    3    3    0    0  0.10782502981E+00  0.99787259124E-01 -0.27622341239E-01  0.89260670391E+00  0.88000000000E+00 0. -1.
        -11    1    4    4    0    0 -0.20405320637E-01 -0.31345513843E-01  0.32130460888E-02  0.37543350070E-01  0.51100000000E-03 0. -1.
         11    1    4    4    0    0 -0.69198705945E-01 -0.54410185206E-01  0.17347006034E-01  0.89722399087E-01  0.51100000000E-03 0.  1.
</event>
<event>
 8    1  0.5489035E+004  0.1043930E+01  0.7957747E-01            NaN
         13   -1    0    0    0    0  0.00000000000E+00  0.00000000000E+00  0.74505805969E-08  0.10566000000E+00  0.10566000000E+00 0. -1.
     999900   -1    0    0    0    0 -0.00000000000E+00 -0.00000000000E+00 -0.74505805969E-08  0.93827000000E+00  0.93827000000E+00 0.  1.
     999902    2    1    2    0    0 -0.15775675538E-01 -0.13339198857E-01  0.11602533911E-01  0.10202355923E+01  0.10199604104E+01 0.  0.
     999903    2    3    3    0    0 -0.12449883668E+00 -0.13503132644E-01  0.41181738811E-01  0.13305146143E+00  0.18012796860E-01 0.  0.
         14    1    1    2    0    0  0.15775675538E-01  0.13339198857E-01 -0.11602533911E-01  0.23694407737E-01  0.00000000000E+00 0.  1.
     999901    1    3    3    0    0  0.10872316114E+00  0.16393378706E-03 -0.29579204900E-01  0.88718413084E+00  0.88000000000E+00 0.  1.
        -11    1    4    4    0    0 -0.53094553295E-01 -0.58579214657E-02  0.82725982362E-02  0.54055932478E-01  0.51100000000E-03 0.  1.
         11    1    4    4    0    0 -0.71404283385E-01 -0.76452111787E-02  0.32909140575E-01  0.78995528950E-01  0.51100000000E-03 0. -1.
</event>
<event>
 8    1  0.5489035E+004  0.1043930E+01  0.7957747E-01            NaN
         13   -1    0    0    0    0  0.00000000000E+00  0.00000000000E+00  0.74505805969E-08  0.10566000000E+00  0.10566000000E+00 0. -1.
     999900   -1    0    0    0    0 -0.00000000000E+00 -0.00000000000E+00 -0.74505805969E-08  0.93827000000E+00  0.93827000000E+00 0.  1.
     999902    2    1    2    0    0 -0.15808331517E-01  0.16432292418E-01 -0.51070860902E-02  0.10205632307E+01  0.10202956934E+01 0.  0.
     999903    2    3    3    0    0  0.30282864051E-01  0.12724181781E+00  0.65286035022E-02  0.13234110842E+00  0.19079157705E-01 0.  0.
         14    1    1    2    0    0  0.15808331517E-01 -0.16432292418E-01  0.51070860902E-02  0.23366769306E-01  0.00000000000E+00 0.  1.
     999901    1    3    3    0    0 -0.46091195568E-01 -0.11080952539E+00 -0.11635689592E-01  0.88822212228E+00  0.88000000000E+00 0. -1.
        -11    1    4    4    0    0  0.21684665867E-01  0.53247722862E-01  0.63633176408E-02  0.57847192293E-01  0.51100000000E-03 0.  1.
         11    1    4    4    0    0  0.85981981848E-02  0.73994094949E-01  0.16528586145E-03  0.74493916126E-01  0.51100000000E-03 0. -1.
</event>
<event>
 8    1  0.5489035E+004  0.1043930E+01  0.7957747E-01            NaN
         13   -1    0    0    0    0  0.00000000000E+00  0.00000000000E+00  0.74505805969E-08  0.10566000000E+00  0.10566000000E+00 0. -1.
     999900   -1    0    0    0    0 -0.00000000000E+00 -0.00000000000E+00 -0.74505805969E-08  0.93827000000E+00  0.93827000000E+00 0.  1.
     999902    2    1    2    0    0  0.13617629312E-01  0.10842170961E-01 -0.16154673566E-01  0.10201820321E+01  0.10199055901E+01 0.  0.
     999903    2    3    3    0    0 -0.26818868705E-01  0.32814375090E-01 -0.12390390701E+00  0.13241641813E+00  0.19644202345E-01 0.  0.
         14    1    1    2    0    0 -0.13617629312E-01 -0.10842170961E-01  0.16154673566E-01  0.23747967855E-01  0.00000000000E+00 0. -1.
     999901    1    3    3    0    0  0.40436498017E-01 -0.21972204130E-01  0.10774923344E+00  0.88776561402E+00  0.88000000000E+00 0. -1.
        -11    1    4    4    0    0 -0.16142842644E-01  0.11373835431E-01 -0.79986720734E-01  0.82389878722E-01  0.51100000000E-03 0. -1.
         11    1    4    4    0    0 -0.10676026062E-01  0.21440539659E-01 -0.43917186276E-01  0.50026539404E-01  0.51100000000E-03 0.  1.
</event>
<event>
 8    1  0.5489035E+004  0.1043930E+01  0.7957747E-01            NaN
         13   -1    0    0    0    0  0.00000000000E+00  0.00000000000E+00  0.74505805969E-08  0.10566000000E+00  0.10566000000E+00 0.  1.
     999900   -1    0    0    0    0 -0.00000000000E+00 -0.00000000000E+00 -0.74505805969E-08  0.93827000000E+00  0.93827000000E+00 0. -1.
     999902    2    1    2    0    0  0.23465931222E-01  0.27734845847E-02  0.22316725817E-02  0.10201955839E+01  0.10199194610E+01 0.  0.
     999903    2    3    3    0    0  0.60539342567E-01  0.16248182965E-01 -0.11393280737E+00  0.13168548732E+00  0.20769389190E-01 0.  0.
         14    1    1    2    0    0 -0.23465931222E-01 -0.27734845847E-02 -0.22316725817E-02  0.23734416095E-01  0.00000000000E+00 0.  1.
     999901    1    3    3    0    0 -0.37073411345E-01 -0.13474698380E-01  0.11616447995E+00  0.88851009658E+00  0.88000000000E+00 0.  1.
        -11    1    4    4    0    0  0.17153747781E-01 -0.71087591241E-03 -0.17137553777E-01  0.24263414392E-01  0.51100000000E-03 0. -1.
         11    1    4    4    0    0  0.43385594786E-01  0.16959058877E-01 -0.96795253596E-01  0.10742207293E+00  0.51100000000E-03 0.  1.
</event>
<event>
 7    1  0.5489035E+004  0.1043930E+01  0.7957747E-01            NaN
         13   -1    0    0    0    0  0.00000000000E+00  0.00000000000E+00  0.74505805969E-08  0.10566000000E+00  0.10566000000E+00 0.  1.
     999900   -1    0    0    0    0 -0.00000000000E+00 -0.00000000000E+00 -0.74505805969E-08  0.93827000000E+00  0.93827000000E+00 0.  1.
     999902    2    1    2    0    0  0.75078424907E-02 -0.10740875461E-01 -0.20033030533E-01  0.10199914032E+01  0.10197104521E+01 0.  0.
         14    1    1    2    0    0 -0.75078424907E-02  0.10740875461E-01  0.20033030533E-01  0.23938596803E-01  0.00000000000E+00 0.  1.
     999901    1    3    3    0    0 -0.58697000849E-01  0.30047270068E-01  0.82763131211E-01  0.88633961450E+00  0.88000000000E+00 0. -1.
        -11    1    3    3    0    0  0.24003421673E-01 -0.20885070976E-01 -0.17223584322E-01  0.36183745239E-01  0.51100000000E-03 0.  1.
         11    1    3    3    0    0  0.42201421667E-01 -0.19903074554E-01 -0.85572577422E-01  0.97468043456E-01  0.51100000000E-03 0. -1.
</event>
<event>
 8    1  0.5489035E+004  0.1043930E+01  0.7957747E-01            NaN
         13   -1    0    0    0    0  0.00000000000E+00  0.00000000000E+00  0.74505805969E-08  0.10566000000E+00  0.10566000000E+00 0.  1.
     999900   -1    0    0    0    0 -0.00000000000E+00 -0.00000000000E+00 -0.74505805969E-08  0.93827000000E+00  0.93827000000E+00 0.  1.
     999902    2    1    2    0    0  0.13997691551E-01 -0.56507808426E-02 -0.17729101783E-01  0.10206450748E+01  0.10203794299E+01 0.  0.
     999903    2    3    3    0    0 -0.47683933233E-01 -0.16263737552E-02 -0.12185852225E+00  0.13235246820E+00  0.19780642381E-01 0.  0.
         14    1    1    2    0    0 -0.13997691551E-01  0.56507808426E-02  0.17729101783E-01  0.23284925229E-01  0.00000000000E+00 0. -1.
     999901    1    3    3    0    0  0.61681624784E-01 -0.40244070874E-02  0.10412942046E+00  0.88829260657E+00  0.88000000000E+00 0. -1.
        -11    1    4    4    0    0 -0.26696017590E-01 -0.10513556876E-01 -0.62767037142E-01  0.69015754041E-01  0.51100000000E-03 0. -1.
         11    1    4    4    0    0 -0.20987915643E-01  0.88871831211E-02 -0.59091485106E-01  0.63336714155E-01  0.51100000000E-03 0.  1.
</event>
<event>
 8    1  0.5489035E+004  0.1043930E+01  0.7957747E-01            NaN
         13   -1    0    0    0    0  0.00000000000E+00  0.00000000000E+00  0.74505805969E-08  0.10566000000E+00  0.10566000000E+00 0. -1.
     999900   -1    0    0    0    0 -0.00000000000E+00 -0.00000000000E+00 -0.74505805969E-08  0.93827000000E+00  0.93827000000E+00 0. -1.
     999902    2    1    2    0    0  0.20660362560E-01  0.99567682316E-02 -0.32518881723E-02  0.10207661793E+01  0.10205033220E+01 0.  0.
     999903    2    3    3    0    0 -0.39494979041E-01 -0.42940103680E-01  0.11375562118E+00  0.12941467652E+00  0.20102519164E-01 0.  0.
         14    1    1    2    0    0 -0.20660362560E-01 -0.99567682316E-02  0.32518881723E-02  0.23163820743E-01  0.00000000000E+00 0. -1.
     999901    1    3    3    0    0  0.60155341600E-01  0.52896871911E-01 -0.11700750935E+00  0.89135150273E+00  0.88000000000E+00 0. -1.
        -11    1    4    4    0    0 -0.28326078478E-01 -0.41065012187E-01  0.85838127874E-01  0.99283167082E-01  0.51100000000E-03 0. -1.
         11    1    4    4    0    0 -0.11168900563E-01 -0.18750914925E-02  0.27917493304E-01  0.30131509442E-01  0.51100000000E-03 0.  1.
</event>
<event>
 8    1  0.5489035E+004  0.1043930E+01  0.7957747E-01            NaN
         13   -1    0    0    0    0  0.00000000000E+00  0.00000000000E+00  0.74505805969E-08  0.10566000000E+00  0.10566000000E+00 0.  1.
     999900   -1    0    0    0    0 -0.00000000000E+00 -0.00000000000E+00 -0.74505805969E-08  0.93827000000E+00  0.93827000000E+00 0.  1.
     999902    2    1    2    0    0 -0.51698903669E-02  0.22789430614E-01 -0.57252298009E-02  0.10198704038E+01  0.10195865713E+01 0.  0.
     999903    2    3    3    0    0  0.84626530611E-02  0.11014459853E+00  0.69660809803E-01  0.13223318815E+00  0.20725311676E-01 0.  0.
         14    1    1    2    0    0  0.51698903669E-02 -0.22789430614E-01  0.57252298009E-02  0.24059596223E-01  0.00000000000E+00 0.  1.
     999901    1    3    3    0    0 -0.13632543428E-01 -0.87355167913E-01 -0.75386039603E-01  0.88763721563E+00  0.88000000000E+00 0.  1.
        -11    1    4    4    0    0 -0.62835245031E-02  0.23929494235E-01  0.18545552879E-01  0.30924133409E-01  0.51100000000E-03 0. -1.
         11    1    4    4    0    0  0.14746177564E-01  0.86215104292E-01  0.51115256924E-01  0.10130905474E+00  0.51100000000E-03 0.  1.
</event>
<event>
 8    1  0.5489035E+004  0.1043930E+01  0.7957747E-01            NaN
         13   -1    0    0    0    0  0.00000000000E+00  0.00000000000E+00  0.74505805969E-08  0.10566000000E+00  0.10566000000E+00 0.  1.
     999900   -1    0    0    0    0 -0.00000000000E+00 -0.00000000000E+00 -0.74505805969E-08  0.93827000000E+00  0.93827000000E+00 0.  1.
     999902    2    1    2    0    0  0.14680486477E-01  0.85988171289E-02 -0.15890358743E-01  0.10206499691E+01  0.10203844371E+01 0.  0.
     999903    2    3    3    0    0  0.39857360481E-01  0.11795381858E+00  0.40351931673E-01  0.13174300737E+00  0.15040914113E-01 0.  0.
         14    1    1    2    0    0 -0.14680486477E-01 -0.85988171289E-02  0.15890358743E-01  0.23280030932E-01  0.00000000000E+00 0.  1.
     999901    1    3    3    0    0 -0.25176874004E-01 -0.10935500146E+00 -0.56242290417E-01  0.88890696170E+00  0.88000000000E+00 0. -1.
        -11    1    4    4    0    0  0.23650073446E-01  0.51801990049E-01  0.13464303800E-01  0.58517695997E-01  0.51100000000E-03 0.  1.
         11    1    4    4    0    0  0.16207287035E-01  0.66151828535E-01  0.26887627873E-01  0.73225311370E-01  0.51100000000E-03 0. -1.
</event>
<event>
 8    1  0.5489035E+004  0.1043930E+01  0.7957747E-01            NaN
         13   -1    0    0    0    0  0.00000000000E+00  0.00000000000E+00  0.74505805969E-08  0.10566000000E+00  0.10566000000E+00 0.  1.
     999900   -1    0    0    0    0 -0.00000000000E+00 -0.00000000000E+00 -0.74505805969E-08  0.93827000000E+00  0.93827000000E+00 0.  1.
     999902    2    1    2    0    0 -0.32596511711E-02  0.62972880238E-02  0.26394159492E-01  0.10165999283E+01  0.10162324938E+01 0.  0.
     999903    2    3    3    0    0 -0.74901900428E-01 -0.57787356196E-01 -0.79472788961E-01  0.12505785738E+00  0.19335725548E-01 0.  0.
         14    1    1    2    0    0  0.32596511711E-02 -0.62972880238E-02 -0.26394159492E-01  0.27330071670E-01  0.00000000000E+00 0. -1.
     999901    1    3    3    0    0  0.71642249257E-01  0.64084644220E-01  0.10586694845E+00  0.89154207095E+00  0.88000000000E+00 0. -1.
        -11    1    4    4    0    0 -0.31930474016E-01 -0.15264772292E-01 -0.22205654212E-01  0.41784215249E-01  0.51100000000E-03 0. -1.
         11    1    4    4    0    0 -0.42971426412E-01 -0.42522583905E-01 -0.57267134749E-01  0.83273642128E-01  0.51100000000E-03 0.  1.
</event>
<event>
 8    1  0.5489035E+004  0.1043930E+01  0.7957747E-01            NaN
         13   -1    0    0    0    0  0.00000000000E+00  0.00000000000E+00  0.74505805969E-08  0.10566000000E+00  0.10566000000E+00 0.  1.
     999900   -1    0    0    0    0 -0.00000000000E+00 -0.00000000000E+00 -0.74505805969E-08  0.93827000000E+00  0.93827000000E+00 0.  1.
     999902    2    1    2    0    0  0.43047663888E-02  0.16469785330E-01 -0.16551388900E-01  0.10201869312E+01  0.10199106045E+01 0.  0.
     999903    2    3    3    0    0 -0.12466868550E+00 -0.59989100907E-02  0.27318756232E-01  0.12942120261E+00  0.20621958553E-01 0.  0.
         14    1    1    2    0    0 -0.43047663888E-02 -0.16469785330E-01  0.16551388900E-01  0.23743068820E-01  0.00000000000E+00 0.  1.
     999901    1    3    3    0    0  0.12897345189E+00  0.22468695420E-01 -0.43870145132E-01  0.89076572857E+00  0.88000000000E+00 0.  1.
        -11    1    4    4    0    0 -0.53515842970E-01  0.34517418707E-02  0.20128465723E-01  0.57282425089E-01  0.51100000000E-03 0. -1.
         11    1    4    4    0    0 -0.71152842534E-01 -0.94506519614E-02  0.71902905095E-02  0.72138777518E-01  0.51100000000E-03 0.  1.
</event>
<event>
 8    1  0.5489035E+004  0.1043930E+01  0.7957747E-01            NaN
         13   -1    0    0    0    0  0.00000000000E+00  0.00000000000E+00  0.74505805969E-08  0.10566000000E+00  0.10566000000E+00 0.  1.
     999900   -1    0    0    0    0 -0.00000000000E+00 -0.00000000000E+00 -0.74505805969E-08  0.93827000000E+00  0.93827000000E+00 0.  1.
     999902    2    1    2    0    0  0.10165268784E-02 -0.18273973412E-01 -0.17179236393E-01  0.10188282552E+01  0.10185189816E+01 0.  0.
     999903    2    3    3    0    0  0.14879128242E-01  0.11803110806E+00 -0.42442324493E-01  0.12786839603E+00  0.19905900310E-01 0.  0.
         14    1    1    2    0    0 -0.10165268784E-02  0.18273973412E-01  0.17179236393E-01  0.25101744844E-01  0.00000000000E+00 0.  1.
     999901    1    3    3    0    0 -0.13862601364E-01 -0.13630508148E+00  0.25263088099E-01  0.89095985913E+00  0.88000000000E+00 0. -1.
        -11    1    4    4    0    0  0.93358746908E-02  0.61014353244E-01 -0.11604648661E-01  0.62807952120E-01  0.51100000000E-03 0.  1.
         11    1    4    4    0    0  0.55432535513E-02  0.57016754820E-01 -0.30837675832E-01  0.65060443910E-01  0.51100000000E-03 0. -1.
</event>
<event>
 8    1  0.5489035E+004  0.1043930E+01  0.7957747E-01            NaN
         13   -1    0    0    0    0  0.00000000000E+00  0.00000000000E+00  0.74505805969E-08  0.10566000000E+00  0.10566000000E+00 0.  1.
     999900   -1    0    0    0    0 -0.00000000000E+00 -0.00000000000E+00 -0.74505805969E-08  0.93827000000E+00  0.93827000000E+00 0.  1.
     999902    2    1    2    0    0 -0.19211892391E-01 -0.13513995470E-01 -0.14277974044E-02  0.10203978202E+01  0.10201264372E+01 0.  0.
     999903    2    3    3    0    0  0.49000083377E-01  0.64857551860E-01  0.97788818716E-01  0.12874827578E+00  0.20148331109E-01 0.  0.
         14    1    1    2    0    0  0.19211892391E-01  0.13513995470E-01  0.14277974044E-02  0.23532179844E-01  0.00000000000E+00 0.  1.
     999901    1    3    3    0    0 -0.68211975767E-01 -0.78371547330E-01 -0.99216616121E-01  0.89164954437E+00  0.88000000000E+00 0.  1.
        -11    1    4    4    0    0  0.28435956731E-01  0.39339410899E-01  0.72940926132E-01  0.87617536550E-01  0.51100000000E-03 0. -1.
         11    1    4    4    0    0  0.20564126646E-01  0.25518140962E-01  0.24847892584E-01  0.41130739232E-01  0.51100000000E-03 0.  1.
</event>
<event>
 8    1  0.5489035E+004  0.1043930E+01  0.7957747E-01            NaN
         13   -1    0    0    0    0  0.00000000000E+00  0.00000000000E+00  0.74505805969E-08  0.10566000000E+00  0.10566000000E+00 0.  1.
     999900   -1    0    0    0    0 -0.00000000000E+00 -0.00000000000E+00 -0.74505805969E-08  0.93827000000E+00  0.93827000000E+00 0. -1.
     999902    2    1    2    0    0 -0.10078364201E-01  0.17888319105E-03  0.21507109677E-01  0.10201779224E+01  0.10199013835E+01 0.  0.
     999903    2    3    3    0    0  0.10127109497E+00  0.70939599825E-01 -0.30256879177E-01  0.12883887824E+00  0.19892619472E-01 0.  0.
         14    1    1    2    0    0  0.10078364201E-01 -0.17888319105E-03 -0.21507109677E-01  0.23752077611E-01  0.00000000000E+00 0. -1.
     999901    1    3    3    0    0 -0.11134945917E+00 -0.70760716634E-01  0.51763988854E-01  0.89133904415E+00  0.88000000000E+00 0.  1.
        -11    1    4    4    0    0  0.26730123681E-01  0.17001188042E-01  0.90141070327E-03  0.31695639591E-01  0.51100000000E-03 0.  1.
         11    1    4    4    0    0  0.74540971291E-01  0.53938411783E-01 -0.31158289881E-01  0.97143238653E-01  0.51100000000E-03 0. -1.
</event>
<event>
 8    1  0.5489035E+004  0.1043930E+01  0.7957747E-01            NaN
         13   -1    0    0    0    0  0.00000000000E+00  0.00000000000E+00  0.74505805969E-08  0.10566000000E+00  0.10566000000E+00 0. -1.
     999900   -1    0    0    0    0 -0.00000000000E+00 -0.00000000000E+00 -0.74505805969E-08  0.93827000000E+00  0.93827000000E+00 0. -1.
     999902    2    1    2    0    0  0.10590776218E-01 -0.81864508946E-02 -0.19624600927E-01  0.10201748431E+01  0.10198982317E+01 0.  0.
     999903    2    3    3    0    0 -0.84297483987E-01 -0.55068251582E-01 -0.82377934194E-01  0.13161439718E+00  0.19941097388E-01 0.  0.
         14    1    1    2    0    0 -0.10590776218E-01  0.81864508946E-02  0.19624600927E-01  0.23755156929E-01  0.00000000000E+00 0. -1.
     999901    1    3    3    0    0  0.94888260205E-01  0.46881800687E-01  0.62753333266E-01  0.88856044589E+00  0.88000000000E+00 0.  1.
        -11    1    4    4    0    0 -0.67625521443E-01 -0.37325672191E-01 -0.70242033043E-01  0.10440604045E+00  0.51100000000E-03 0. -1.
         11    1    4    4    0    0 -0.16671962545E-01 -0.17742579391E-01 -0.12135901151E-01  0.27208356736E-01  0.51100000000E-03 0.  1.
</event>
<event>
 8    1  0.5489035E+004  0.1043930E+01  0.7957747E-01            NaN
         13   -1    0    0    0    0  0.00000000000E+00  0.00000000000E+00  0.74505805969E-08  0.10566000000E+00  0.10566000000E+00 0. -1.
     999900   -1    0    0    0    0 -0.00000000000E+00 -0.00000000000E+00 -0.74505805969E-08  0.93827000000E+00  0.93827000000E+00 0. -1.
     999902    2    1    2    0    0  0.89574061465E-02  0.18886910338E-01  0.95904439864E-02  0.10209315843E+01  0.10206725101E+01 0.  0.
     999903    2    3    3    0    0 -0.11452399433E+00 -0.22169635290E-01  0.53876701992E-01  0.13026073108E+00  0.21399089618E-01 0.  0.
         14    1    1    2    0    0 -0.89574061465E-02 -0.18886910338E-01 -0.95904439864E-02  0.22998415659E-01  0.00000000000E+00 0.  1.
     999901    1    3    3    0    0  0.12348140048E+00  0.41056545627E-01 -0.44286258006E-01  0.89067085326E+00  0.88000000000E+00 0. -1.
        -11    1    4    4    0    0 -0.37776855927E-01  0.12185591301E-02  0.23266377142E-01  0.44386497456E-01  0.51100000000E-03 0. -1.
         11    1    4    4    0    0 -0.76747138406E-01 -0.23388194420E-01  0.30610324851E-01  0.85874233622E-01  0.51100000000E-03 0.  1.
</event>
<event>
 8    1  0.5489035E+004  0.1043930E+01  0.7957747E-01            NaN
         13   -1    0    0    0    0  0.00000000000E+00  0.00000000000E+00  0.74505805969E-08  0.10566000000E+00  0.10566000000E+00 0.  1.
     999900   -1    0    0    0    0 -0.00000000000E+00 -0.00000000000E+00 -0.74505805969E-08  0.93827000000E+00  0.93827000000E+00 0. -1.
     999902    2    1    2    0    0  0.15329281383E-01 -0.26582065253E-02  0.22818624309E-01  0.10163122060E+01  0.10159368866E+01 0.  0.
     999903    2    3    3    0    0  0.44716517995E-01 -0.20086274086E-01  0.11917371646E+00  0.13039367081E+00  0.19927601569E-01 0.  0.
         14    1    1    2    0    0 -0.15329281383E-01  0.26582065253E-02 -0.22818624309E-01  0.27617793993E-01  0.00000000000E+00 0. -1.
     999901    1    3    3    0    0 -0.29387236612E-01  0.17428067560E-01 -0.96355092155E-01  0.88591853519E+00  0.88000000000E+00 0. -1.
        -11    1    4    4    0    0  0.16888737997E-01 -0.37942286552E-02  0.65732922723E-01  0.67975759598E-01  0.51100000000E-03 0. -1.
         11    1    4    4    0    0  0.27827779998E-01 -0.16292045431E-01  0.53440793741E-01  0.62417911216E-01  0.51100000000E-03 0.  1.
</event>
<event>
 8    1  0.5489035E+004  0.1043930E+01  0.7957747E-01            NaN
         13   -1    0    0    0    0  0.00000000000E+00  0.00000000000E+00  0.74505805969E-08  0.10566000000E+00  0.10566000000E+00 0. -1.
     999900   -1    0    0    0    0 -0.00000000000E+00 -0.00000000000E+00 -0.74505805969E-08  0.93827000000E+00  0.93827000000E+00 0. -1.
     999902    2    1    2    0    0  0.89209317888E-02 -0.21847293862E-01  0.11768037828E-03  0.10203312475E+01  0.10200583088E+01 0.  0.
     999903    2    3    3    0    0 -0.49593185704E-01 -0.10591073336E+00 -0.58730323821E-01  0.13243843219E+00  0.20349935521E-01 0.  0.
         14    1    1    2    0    0 -0.89209317888E-02  0.21847293862E-01 -0.11768037828E-03  0.23598752546E-01  0.00000000000E+00 0. -1.
     999901    1    3    3    0    0  0.58514117493E-01  0.84063439494E-01  0.58848004199E-01  0.88789281527E+00  0.88000000000E+00 0.  1.
        -11    1    4    4    0    0 -0.44097142199E-01 -0.98481201085E-01 -0.47530034343E-01  0.11790873675E+00  0.51100000000E-03 0.  1.
         11    1    4    4    0    0 -0.54960435058E-02 -0.74295322702E-02 -0.11200289478E-01  0.14529695433E-01  0.51100000000E-03 0. -1.
</event>
<event>
 8    1  0.5489035E+004  0.1043930E+01  0.7957747E-01            NaN
         13   -1    0    0    0    0  0.00000000000E+00  0.00000000000E+00  0.74505805969E-08  0.10566000000E+00  0.10566000000E+00 0.  1.
     999900   -1    0    0    0    0 -0.00000000000E+00 -0.00000000000E+00 -0.74505805969E-08  0.93827000000E+00  0.93827000000E+00 0. -1.
     999902    2    1    2    0    0  0.34099231995E-02 -0.23575168707E-01  0.18169783973E-02  0.10200403042E+01  0.10197605134E+01 0.  0.
     999903    2    3    3    0    0  0.10658403589E+00  0.67582415557E-01  0.18948240935E-01  0.12917101924E+00  0.19964387750E-01 0.  0.
         14    1    1    2    0    0 -0.34099231995E-02  0.23575168707E-01 -0.18169783973E-02  0.23889695818E-01  0.00000000000E+00 0.  1.
     999901    1    3    3    0    0 -0.10317411269E+00 -0.91157584264E-01 -0.17131262538E-01  0.89086928494E+00  0.88000000000E+00 0. -1.
        -11    1    4    4    0    0  0.42841809747E-01  0.38915122830E-01  0.85051547542E-02  0.58501335247E-01  0.51100000000E-03 0. -1.
         11    1    4    4    0    0  0.63742226140E-01  0.28667292727E-01  0.10443086181E-01  0.70669683992E-01  0.51100000000E-03 0.  1.
</event>
<event>
 8    1  0.5489035E+004  0.1043930E+01  0.7957747E-01            NaN
         13   -1    0    0    0    0  0.00000000000E+00  0.00000000000E+00  0.74505805969E-08  0.10566000000E+00  0.10566000000E+00 0. -1.
     999900   -1    0    0    0    0 -0.00000000000E+00 -0.00000000000E+00 -0.74505805969E-08  0.93827000000E+00  0.93827000000E+00 0.  1.
     999902    2    1    2    0    0 -0.19333297100E-01 -0.34563184503E-02  0.13015518220E-01  0.10203688831E+01  0.10200968245E+01 0.  0.
     999903    2    3    3    0    0 -0.42461976831E-01 -0.36789881699E-01 -0.11565136987E+00  0.13008733757E+00  0.19772738064E-01 0.  0.
         14    1    1    2    0    0  0.19333297100E-01  0.34563184503E-02 -0.13015518220E-01  0.23561116877E-01  0.00000000000E+00 0.  1.
     999901    1    3    3    0    0  0.23128679731E-01  0.33333563249E-01  0.12866688809E+00  0.89028154556E+00  0.88000000000E+00 0. -1.
        -11    1    4    4    0    0 -0.97049930176E-02 -0.19680063188E-01 -0.52699694054E-01  0.57087745191E-01  0.51100000000E-03 0. -1.
         11    1    4    4    0    0 -0.32756983813E-01 -0.17109818510E-01 -0.62951675817E-01  0.72999592377E-01  0.51100000000E-03 0.  1.
</event>
<event>
 8    1  0.5489035E+004  0.1043930E+01  0.7957747E-01            NaN
         13   -1    0    0    0    0  0.00000000000E+00  0.00000000000E+00  0.74505805969E-08  0.10566000000E+00  0.10566000000E+00 0.  1.
     999900   -1    0    0    0    0 -0.00000000000E+00 -0.00000000000E+00 -0.74505805969E-08  0.93827000000E+00  0.93827000000E+00 0. -1.
     999902    2    1    2    0    0  0.21865026861E-01  0.48878687252E-03  0.10500003910E-01  0.10196695714E+01  0.10193809232E+01 0.  0.
     999903    2    3    3    0    0 -0.29389414282E-02  0.12029481927E+00  0.46542031737E-01  0.13047457031E+00  0.19441498394E-01 0.  0.
         14    1    1    2    0    0 -0.21865026861E-01 -0.48878687252E-03 -0.10500003910E-01  0.24260428569E-01  0.00000000000E+00 0. -1.
     999901    1    3    3    0    0  0.24803968289E-01 -0.11980603240E+00 -0.36042027827E-01  0.88919500112E+00  0.88000000000E+00 0. -1.
        -11    1    4    4    0    0  0.12068830811E-02  0.62447786133E-01  0.14149568703E-01  0.64044156448E-01  0.51100000000E-03 0.  1.
         11    1    4    4    0    0 -0.41458245093E-02  0.57847033140E-01  0.32392463034E-01  0.66430413866E-01  0.51100000000E-03 0. -1.
</event>
<event>
 8    1  0.5489035E+004  0.1043930E+01  0.7957747E-01            NaN
         13   -1    0    0    0    0  0.00000000000E+00  0.00000000000E+00  0.74505805969E-08  0.10566000000E+00  0.10566000000E+00 0. -1.
     999900   -1    0    0    0    0 -0.00000000000E+00 -0.00000000000E+00 -0.74505805969E-08  0.93827000000E+00  0.93827000000E+00 0.  1.
     999902    2    1    2    0    0  0.20698329331E-01  0.18619485787E-02 -0.11581288022E-01  0.10201389529E+01  0.10198614952E+01 0.  0.
     999903    2    3    3    0    0 -0.75160715870E-01  0.80144947418E-01 -0.66211546538E-01  0.12980101167E+00  0.19798685039E-01 0.  0.
         14    1    1    2    0    0 -0.20698329331E-01 -0.18619485787E-02  0.11581288022E-01  0.23791047095E-01  0.00000000000E+00 0. -1.
     999901    1    3    3    0    0  0.95859045202E-01 -0.78282998839E-01  0.54630258516E-01  0.89033794123E+00  0.88000000000E+00 0.  1.
        -11    1    4    4    0    0 -0.11174932907E-01  0.16528698013E-01 -0.44234865737E-02  0.20442733133E-01  0.51100000000E-03 0. -1.
         11    1    4    4    0    0 -0.63985782963E-01  0.63616249405E-01 -0.61788059964E-01  0.10935827854E+00  0.51100000000E-03 0.  1.
</event>
<event>
 8    1  0.5489035E+004  0.1043930E+01  0.7957747E-01            NaN
         13   -1    0    0    0    0  0.00000000000E+00  0.00000000000E+00  0.74505805969E-08  0.10566000000E+00  0.10566000000E+00 0. -1.
     999900   -1    0    0    0    0 -0.00000000000E+00 -0.00000000000E+00 -0.74505805969E-08  0.93827000000E+00  0.93827000000E+00 0. -1.
     999902    2    1    2    0    0  0.23010684082E-01 -0.77531939390E-02  0.62108907940E-03  0.10196403036E+01  0.10193509501E+01 0.  0.
     999903    2    3    3    0    0  0.95311673904E-01  0.68148292034E-01 -0.56883220877E-01  0.13155516449E+00  0.18508257512E-01 0.  0.
         14    1    1    2    0    0 -0.23010684082E-01  0.77531939390E-02 -0.62108907940E-03  0.24289696372E-01  0.00000000000E+00 0. -1.
     999901    1    3    3    0    0 -0.72300989822E-01 -0.75901485973E-01  0.57504309957E-01  0.88808513914E+00  0.88000000000E+00 0. -1.
        -11    1    4    4    0    0  0.57710500476E-01  0.50118568107E-01 -0.42393449528E-01  0.87406169223E-01  0.51100000000E-03 0. -1.
         11    1    4    4    0    0  0.37601173428E-01  0.18029723927E-01 -0.14489771349E-01  0.44148995263E-01  0.51100000000E-03 0.  1.
</event>
<event>
 8    1  0.5489035E+004  0.1043930E+01  0.7957747E-01            NaN
         13   -1    0    0    0    0  0.00000000000E+00  0.00000000000E+00  0.74505805969E-08  0.10566000000E+00  0.10566000000E+00 0. -1.
     999900   -1    0    0    0    0 -0.00000000000E+00 -0.00000000000E+00 -0.74505805969E-08  0.93827000000E+00  0.93827000000E+00 0. -1.
     999902    2    1    2    0    0 -0.15996309547E-01  0.16953121691E-01 -0.50134959112E-02  0.10200883265E+01  0.10198096727E+01 0.  0.
     999903    2    3    3    0    0 -0.11471076858E+00 -0.60558797376E-01  0.13801859906E-01  0.13098391214E+00  0.11847596071E-01 0.  0.
         14    1    1    2    0    0  0.15996309547E-01 -0.16953121691E-01  0.50134959112E-02  0.23841673503E-01  0.00000000000E+00 0. -1.
     999901    1    3    3    0    0  0.98714459038E-01  0.77511919067E-01 -0.18815355818E-01  0.88910441436E+00  0.88000000000E+00 0.  1.
        -11    1    4    4    0    0 -0.45748402341E-01 -0.25849577690E-01  0.11227137865E-01  0.53734781372E-01  0.51100000000E-03 0. -1.
         11    1    4    4    0    0 -0.68962366244E-01 -0.34709219687E-01  0.25747220414E-02  0.77249130764E-01  0.51100000000E-03 0.  1.
</event>
<event>
 8    1  0.5489035E+004  0.1043930E+01  0.7957747E-01            NaN
         13   -1    0    0    0    0  0.00000000000E+00  0.00000000000E+00  0.74505805969E-08  0.10566000000E+00  0.10566000000E+00 0.  1.
     999900   -1    0    0    0    0 -0.00000000000E+00 -0.00000000000E+00 -0.74505805969E-08  0.93827000000E+00  0.93827000000E+00 0.  1.
     999902    2    1    2    0    0 -0.20438511463E-01 -0.10539985079E-01 -0.66264612044E-02  0.10199981379E+01  0.10197173467E+01 0.  0.
     999903    2    3    3    0    0  0.12356989943E+00  0.24354930310E-01 -0.16887010413E-02  0.12759662567E+00  0.20380493016E-01 0.  0.
         14    1    1    2    0    0  0.20438511463E-01  0.10539985079E-01  0.66264612044E-02  0.23931862118E-01  0.00000000000E+00 0.  1.
     999901    1    3    3    0    0 -0.14400841089E+00 -0.34894915389E-01 -0.49377601632E-02  0.89240151221E+00  0.88000000000E+00 0.  1.
        -11    1    4    4    0    0  0.48780087886E-01  0.14621822020E-01  0.80112032743E-02  0.51553226400E-01  0.51100000000E-03 0. -1.
         11    1    4    4    0    0  0.74789811542E-01  0.97331082898E-02 -0.96999043156E-02  0.76043399268E-01  0.51100000000E-03 0.  1.
</event>
<event>
 8    1  0.5489035E+004  0.1043930E+01  0.7957747E-01            NaN
         13   -1    0    0    0    0  0.00000000000E+00  0.00000000000E+00  0.74505805969E-08  0.10566000000E+00  0.10566000000E+00 0.  1.
     999900   -1    0    0    0    0 -0.00000000000E+00 -0.00000000000E+00 -0.74505805969E-08  0.93827000000E+00  0.93827000000E+00 0. -1.
     999902    2    1    2    0    0 -0.18424619237E-01 -0.77814873483E-02  0.12136877517E-01  0.10205350874E+01  0.10202668978E+01 0.  0.
     999903    2    3    3    0    0 -0.45725032155E-01  0.88271428021E-01 -0.81218489443E-01  0.12998093429E+00  0.20395506385E-01 0.  0.
         14    1    1    2    0    0  0.18424619237E-01  0.77814873483E-02 -0.12136877517E-01  0.23394912593E-01  0.00000000000E+00 0. -1.
     999901    1    3    3    0    0  0.27300412919E-01 -0.96052915369E-01  0.93355366960E-01  0.89055415312E+00  0.88000000000E+00 0.  1.
        -11    1    4    4    0    0 -0.18198017003E-01  0.25937560712E-01 -0.15366509760E-01  0.35218114965E-01  0.51100000000E-03 0. -1.
         11    1    4    4    0    0 -0.27527015152E-01  0.62333867309E-01 -0.65851979683E-01  0.94762819323E-01  0.51100000000E-03 0.  1.
</event>
<event>
 8    1  0.5489035E+004  0.1043930E+01  0.7957747E-01            NaN
         13   -1    0    0    0    0  0.00000000000E+00  0.00000000000E+00  0.74505805969E-08  0.10566000000E+00  0.10566000000E+00 0.  1.
     999900   -1    0    0    0    0 -0.00000000000E+00 -0.00000000000E+00 -0.74505805969E-08  0.93827000000E+00  0.93827000000E+00 0. -1.
     999902    2    1    2    0    0 -0.18336342062E-01  0.11241146829E-01  0.81345026406E-02  0.10209353277E+01  0.10206763387E+01 0.  0.
     999903    2    3    3    0    0  0.10700877860E+00  0.65247318898E-01 -0.27009840414E-01  0.12972088056E+00  0.19745481861E-01 0.  0.
         14    1    1    2    0    0  0.18336342062E-01 -0.11241146829E-01 -0.81345026406E-02  0.22994672328E-01  0.00000000000E+00 0. -1.
     999901    1    3    3    0    0 -0.12534512066E+00 -0.54006172069E-01  0.35144343055E-01  0.89121444711E+00  0.88000000000E+00 0.  1.
        -11    1    4    4    0    0  0.62445217981E-01  0.29557922073E-01 -0.80356973447E-02  0.69555082911E-01  0.51100000000E-03 0.  1.
         11    1    4    4    0    0  0.44563560615E-01  0.35689396825E-01 -0.18974143069E-01  0.60165797648E-01  0.51100000000E-03 0. -1.
</event>
<event>
 8    1  0.5489035E+004  0.1043930E+01  0.7957747E-01            NaN
         13   -1    0    0    0    0  0.00000000000E+00  0.00000000000E+00  0.74505805969E-08  0.10566000000E+00  0.10566000000E+00 0.  1.
     999900   -1    0    0    0    0 -0.00000000000E+00 -0.00000000000E+00 -0.74505805969E-08  0.93827000000E+00  0.93827000000E+00 0.  1.
     999902    2    1    2    0    0  0.20026169234E-01 -0.15932619091E-02 -0.11615219212E-01  0.10207244133E+01  0.10204605963E+01 0.  0.
     999903    2    3    3    0    0  0.10874806719E+00  0.72497685283E-01  0.12873055160E-01  0.13282761792E+00  0.19884769102E-01 0.  0.
         14    1    1    2    0    0 -0.20026169234E-01  0.15932619091E-02  0.11615219212E-01  0.23205586720E-01  0.00000000000E+00 0.  1.
     999901    1    3    3    0    0 -0.88721897961E-01 -0.74090947192E-01 -0.24488274372E-01  0.88789679536E+00  0.88000000000E+00 0. -1.
        -11    1    4    4    0    0  0.13156691865E-01  0.13046327354E-01  0.78915323722E-02  0.20145535546E-01  0.51100000000E-03 0. -1.
         11    1    4    4    0    0  0.95591375330E-01  0.59451357929E-01  0.49815227875E-02  0.11268208237E+00  0.51100000000E-03 0.  1.
</event>
<event>
 8    1  0.5489035E+004  0.1043930E+01  0.7957747E-01            NaN
         13   -1    0    0    0    0  0.00000000000E+00  0.00000000000E+00  0.74505805969E-08  0.10566000000E+00  0.10566000000E+00 0.  1.
     999900   -1    0    0    0    0 -0.00000000000E+00 -0.00000000000E+00 -0.74505805969E-08  0.93827000000E+00  0.93827000000E+00 0. -1.
     999902    2    1    2    0    0 -0.87468859374E-02  0.79273607299E-02  0.19986914885E-01  0.10207173347E+01  0.10204533549E+01 0.  0.
     999903    2    3    3    0    0 -0.10725926858E+00 -0.31282330013E-02 -0.71347927807E-01  0.13045390790E+00  0.20331225886E-01 0.  0.
         14    1    1    2    0    0  0.87468859374E-02 -0.79273607299E-02 -0.19986914885E-01  0.23212665257E-01  0.00000000000E+00 0. -1.
     999901    1    3    3    0    0  0.98512382641E-01  0.11055593731E-01  0.91334842692E-01  0.89026342684E+00  0.88000000000E+00 0.  1.
        -11    1    4    4    0    0 -0.30255474443E-01  0.70731612947E-02 -0.15105633962E-01  0.34552346416E-01  0.51100000000E-03 0. -1.
         11    1    4    4    0    0 -0.77003794135E-01 -0.10201394296E-01 -0.56242293846E-01  0.95901561482E-01  0.51100000000E-03 0.  1.
</event>
<event>
 8    1  0.5489035E+004  0.1043930E+01  0.7957747E-01            NaN
         13   -1    0    0    0    0  0.00000000000E+00  0.00000000000E+00  0.74505805969E-08  0.10566000000E+00  0.10566000000E+00 0.  1.
     999900   -1    0    0    0    0 -0.00000000000E+00 -0.00000000000E+00 -0.74505805969E-08  0.93827000000E+00  0.93827000000E+00 0. -1.
     999902    2    1    2    0    0  0.14168439911E-01 -0.10247819836E-01  0.16435025034E-01  0.10199326554E+01  0.10196503072E+01 0.  0.
     999903    2    3    3    0    0 -0.86701848324E-01  0.87419496041E-01 -0.27381957962E-01  0.12772547785E+00  0.20115846474E-01 0.  0.
         14    1    1    2    0    0 -0.14168439911E-01  0.10247819836E-01 -0.16435025034E-01  0.23997344619E-01  0.00000000000E+00 0. -1.
     999901    1    3    3    0    0  0.10087028823E+00 -0.97667315876E-01  0.43816982997E-01  0.89220717753E+00  0.88000000000E+00 0.  1.
        -11    1    4    4    0    0 -0.61089706119E-01  0.73047630491E-01 -0.18200850715E-01  0.96950712230E-01  0.51100000000E-03 0. -1.
         11    1    4    4    0    0 -0.25612142205E-01  0.14371865549E-01 -0.91811072477E-02  0.30774765620E-01  0.51100000000E-03 0.  1.
</event>
<event>
 8    1  0.5489035E+004  0.1043930E+01  0.7957747E-01            NaN
         13   -1    0    0    0    0  0.00000000000E+00  0.00000000000E+00  0.74505805969E-08  0.10566000000E+00  0.10566000000E+00 0.  1.
     999900   -1    0    0    0    0 -0.00000000000E+00 -0.00000000000E+00 -0.74505805969E-08  0.93827000000E+00  0.93827000000E+00 0.  1.
     999902    2    1    2    0    0 -0.18967238417E-01  0.12283081078E-01 -0.76140650409E-02  0.10200845770E+01  0.10198058344E+01 0.  0.
     999903    2    3    3    0    0 -0.72702205094E-01 -0.93648899447E-01 -0.52137060353E-01  0.13098878444E+00  0.19597489501E-01 0.  0.
         14    1    1    2    0    0  0.18967238417E-01 -0.12283081078E-01  0.76140650409E-02  0.23845423049E-01  0.00000000000E+00 0.  1.
     999901    1    3    3    0    0  0.53734966677E-01  0.10593198052E+00  0.44522995312E-01  0.88909579251E+00  0.88000000000E+00 0.  1.
        -11    1    4    4    0    0 -0.44650671479E-01 -0.64521691557E-01 -0.25267247271E-01  0.82434374205E-01  0.51100000000E-03 0.  1.
         11    1    4    4    0    0 -0.28051533616E-01 -0.29127207890E-01 -0.26869813082E-01  0.48554410239E-01  0.51100000000E-03 0. -1.
</event>
<event>
 8    1  0.5489035E+004  0.1043930E+01  0.7957747E-01            NaN
         13   -1    0    0    0    0  0.00000000000E+00  0.00000000000E+00  0.74505805969E-08  0.10566000000E+00  0.10566000000E+00 0.  1.
     999900   -1    0    0    0    0 -0.00000000000E+00 -0.00000000000E+00 -0.74505805969E-08  0.93827000000E+00  0.93827000000E+00 0. -1.
     999902    2    1    2    0    0  0.36923727877E-02  0.16581775138E-01  0.10487836890E-01  0.10239654412E+01  0.10237707953E+01 0.  0.
     999903    2    3    3    0    0 -0.66067568634E-01  0.10931388858E+00  0.42605000831E-01  0.13576658597E+00  0.17404881762E-01 0.  0.
         14    1    1    2    0    0 -0.36923727877E-02 -0.16581775138E-01 -0.10487836890E-01  0.19964558752E-01  0.00000000000E+00 0. -1.
     999901    1    3    3    0    0  0.69759941421E-01 -0.92732113444E-01 -0.32117163941E-01  0.88819885527E+00  0.88000000000E+00 0.  1.
        -11    1    4    4    0    0 -0.17259467676E-02  0.11929447891E-01  0.22949637008E-02  0.12280822392E-01  0.51100000000E-03 0.  1.
         11    1    4    4    0    0 -0.64341621866E-01  0.97384440691E-01  0.40310037130E-01  0.12348576358E+00  0.51100000000E-03 0. -1.
</event>
<event>
 7    1  0.5489035E+004  0.1043930E+01  0.7957747E-01            NaN
         13   -1    0    0    0    0  0.00000000000E+00  0.00000000000E+00  0.74505805969E-08  0.10566000000E+00  0.10566000000E+00 0.  1.
     999900   -1    0    0    0    0 -0.00000000000E+00 -0.00000000000E+00 -0.74505805969E-08  0.93827000000E+00  0.93827000000E+00 0.  1.
     999903    2    1    2    0    0  0.78455824826E-01  0.45963688718E-01 -0.45315648825E-01  0.10355913802E+00  0.20075106699E-01 0.  0.
         14    1    1    2    0    0 -0.13013853960E-02 -0.52401464299E-02 -0.50584730704E-01  0.50872072092E-01  0.00000000000E+00 0. -1.
     999901    1    1    2    0    0 -0.77154439430E-01 -0.40723542288E-01  0.95900379529E-01  0.88949878989E+00  0.88000000000E+00 0. -1.
        -11    1    3    3    0    0  0.67017199306E-01  0.29952957102E-01 -0.34719720240E-01  0.81204708833E-01  0.51100000000E-03 0.  1.
         11    1    3    3    0    0  0.11438625520E-01  0.16010731616E-01 -0.10595928584E-01  0.22354429186E-01  0.51100000000E-03 0. -1.
</event>
<event>
 8    1  0.5489035E+004  0.1043930E+01  0.7957747E-01            NaN
         13   -1    0    0    0    0  0.00000000000E+00  0.00000000000E+00  0.74505805969E-08  0.10566000000E+00  0.10566000000E+00 0.  1.
     999900   -1    0    0    0    0 -0.00000000000E+00 -0.00000000000E+00 -0.74505805969E-08  0.93827000000E+00  0.93827000000E+00 0.  1.
     999902    2    1    2    0    0 -0.47691149821E-02  0.62751189860E-02  0.22227586630E-01  0.10203463789E+01  0.10200737943E+01 0.  0.
     999903    2    3    3    0    0 -0.22137337250E-02  0.72226123578E-01  0.10995218143E+00  0.13352527547E+00  0.22759689050E-01 0.  0.
         14    1    1    2    0    0  0.47691149821E-02 -0.62751189860E-02 -0.22227586630E-01  0.23583621083E-01  0.00000000000E+00 0. -1.
     999901    1    3    3    0    0 -0.25553812571E-02 -0.65951004592E-01 -0.87724594797E-01  0.88682110344E+00  0.88000000000E+00 0.  1.
        -11    1    4    4    0    0  0.72798075807E-02  0.50655402081E-01  0.84851334832E-01  0.99090743776E-01  0.51100000000E-03 0.  1.
         11    1    4    4    0    0 -0.94935413057E-02  0.21570721497E-01  0.25100846595E-01  0.34434531697E-01  0.51100000000E-03 0. -1.
</event>
<event>
 8    1  0.5489035E+004  0.1043930E+01  0.7957747E-01            NaN
         13   -1    0    0    0    0  0.00000000000E+00  0.00000000000E+00  0.74505805969E-08  0.10566000000E+00  0.10566000000E+00 0.  1.
     999900   -1    0    0    0    0 -0.00000000000E+00 -0.00000000000E+00 -0.74505805969E-08  0.93827000000E+00  0.93827000000E+00 0. -1.
     999902    2    1    2    0    0 -0.11988386799E-01  0.10048292977E-01 -0.25132295830E-01  0.10143272653E+01  0.10138952013E+01 0.  0.
     999903    2    3    3    0    0  0.23652475756E-01 -0.56888530860E-01 -0.10946368096E+00  0.12704907215E+00  0.19063701972E-01 0.  0.
         14    1    1    2    0    0  0.11988386799E-01 -0.10048292977E-01  0.25132295830E-01  0.29602734730E-01  0.00000000000E+00 0.  1.
     999901    1    3    3    0    0 -0.35640862555E-01  0.66936823837E-01  0.84331385127E-01  0.88727819312E+00  0.88000000000E+00 0.  1.
        -11    1    4    4    0    0 -0.19943062293E-02 -0.69560386921E-02 -0.21580262033E-01  0.22766918150E-01  0.51100000000E-03 0. -1.
         11    1    4    4    0    0  0.25646781985E-01 -0.49932492168E-01 -0.87883418923E-01  0.10428215400E+00  0.51100000000E-03 0.  1.
</event>
<event>
 8    1  0.5489035E+004  0.1043930E+01  0.7957747E-01            NaN
         13   -1    0    0    0    0  0.00000000000E+00  0.00000000000E+00  0.74505805969E-08  0.10566000000E+00  0.10566000000E+00 0.  1.
     999900   -1    0    0    0    0 -0.00000000000E+00 -0.00000000000E+00 -0.74505805969E-08  0.93827000000E+00  0.93827000000E+00 0. -1.
     999902    2    1    2    0    0 -0.75187426747E-02  0.41681201860E-03  0.23590797406E-01  0.10191664997E+01  0.10188656061E+01 0.  0.
     999903    2    3    3    0    0  0.23999784905E-01 -0.12168167321E+00  0.34861730956E-01  0.13010604530E+00  0.18161042565E-01 0.  0.
         14    1    1    2    0    0  0.75187426747E-02 -0.41681201860E-03 -0.23590797406E-01  0.24763500276E-01  0.00000000000E+00 0. -1.
     999901    1    3    3    0    0 -0.31518527580E-01  0.12209848523E+00 -0.11270933549E-01  0.88906045442E+00  0.88000000000E+00 0.  1.
        -11    1    4    4    0    0  0.48990735232E-02 -0.60047210532E-01  0.23038472420E-01  0.64503494064E-01  0.51100000000E-03 0.  1.
         11    1    4    4    0    0  0.19100711382E-01 -0.61634462681E-01  0.11823258536E-01  0.65602551236E-01  0.51100000000E-03 0. -1.
</event>
<event>
 8    1  0.5489035E+004  0.1043930E+01  0.7957747E-01            NaN
         13   -1    0    0    0    0  0.00000000000E+00  0.00000000000E+00  0.74505805969E-08  0.10566000000E+00  0.10566000000E+00 0.  1.
     999900   -1    0    0    0    0 -0.00000000000E+00 -0.00000000000E+00 -0.74505805969E-08  0.93827000000E+00  0.93827000000E+00 0.  1.
     999902    2    1    2    0    0  0.17122999218E-02  0.23270442178E-01  0.30838972071E-02  0.10203937328E+01  0.10201222545E+01 0.  0.
     999903    2    3    3    0    0 -0.66441057918E-01 -0.65803008214E-01  0.84405702484E-01  0.12955581505E+00  0.30264443394E-01 0.  0.
         14    1    1    2    0    0 -0.17122999218E-02 -0.23270442178E-01 -0.30838972071E-02  0.23536267167E-01  0.00000000000E+00 0. -1.
     999901    1    3    3    0    0  0.68153357840E-01  0.89073450391E-01 -0.81321805277E-01  0.89083791778E+00  0.88000000000E+00 0.  1.
        -11    1    4    4    0    0 -0.27202457615E-01 -0.46338526705E-01  0.38500025813E-01  0.66104053326E-01  0.51100000000E-03 0.  1.
         11    1    4    4    0    0 -0.39238600303E-01 -0.19464481508E-01  0.45905676671E-01  0.63451761723E-01  0.51100000000E-03 0. -1.
</event>
<event>
 8    1  0.5489035E+004  0.1043930E+01  0.7957747E-01            NaN
         13   -1    0    0    0    0  0.00000000000E+00  0.00000000000E+00  0.74505805969E-08  0.10566000000E+00  0.10566000000E+00 0. -1.
     999900   -1    0    0    0    0 -0.00000000000E+00 -0.00000000000E+00 -0.74505805969E-08  0.93827000000E+00  0.93827000000E+00 0. -1.
     999902    2    1    2    0    0  0.10953852056E-01  0.16980873118E-01  0.34262995242E-02  0.10234342332E+01  0.10232289838E+01 0.  0.
     999903    2    3    3    0    0  0.95794366011E-01  0.68451847988E-02 -0.91666722951E-01  0.13419673520E+00  0.19559103466E-01 0.  0.
         14    1    1    2    0    0 -0.10953852056E-01 -0.16980873118E-01 -0.34262995242E-02  0.20495766762E-01  0.00000000000E+00 0.  1.
     999901    1    3    3    0    0 -0.84840513955E-01  0.10135688320E-01  0.95093022475E-01  0.88923749803E+00  0.88000000000E+00 0.  1.
        -11    1    4    4    0    0  0.51149339554E-01  0.75639691576E-02 -0.36854908650E-01  0.63498141539E-01  0.51100000000E-03 0.  1.
         11    1    4    4    0    0  0.44645026457E-01 -0.71878435885E-03 -0.54811814301E-01  0.70698593666E-01  0.51100000000E-03 0. -1.
</event>
<event>
 8    1  0.5489035E+004  0.1043930E+01  0.7957747E-01            NaN
         13   -1    0    0    0    0  0.00000000000E+00  0.00000000000E+00  0.74505805969E-08  0.10566000000E+00  0.10566000000E+00 0.  1.
     999900   -1    0    0    0    0 -0.00000000000E+00 -0.00000000000E+00 -0.74505805969E-08  0.93827000000E+00  0.93827000000E+00 0.  1.
     999902    2    1    2    0    0  0.16201953991E-01 -0.99087226867E-02 -0.13233712883E-01  0.10207822732E+01  0.10205197852E+01 0.  0.
     999903    2    3    3    0    0  0.12795971106E+00 -0.18261303008E-01 -0.27020621287E-01  0.13356773281E+00  0.20076414798E-01 0.  0.
         14    1    1    2    0    0 -0.16201953991E-01  0.99087226867E-02  0.13233712883E-01  0.23147726780E-01  0.00000000000E+00 0.  1.
     999901    1    3    3    0    0 -0.11175775707E+00  0.83525803215E-02  0.13786908404E-01  0.88721454041E+00  0.88000000000E+00 0. -1.
        -11    1    4    4    0    0  0.92844630781E-01 -0.43314101594E-02 -0.17107625915E-01  0.94508298917E-01  0.51100000000E-03 0. -1.
         11    1    4    4    0    0  0.35115080284E-01 -0.13929892849E-01 -0.99129953718E-02  0.39059433897E-01  0.51100000000E-03 0.  1.
</event>
<event>
 8    1  0.5489035E+004  0.1043930E+01  0.7957747E-01            NaN
         13   -1    0    0    0    0  0.00000000000E+00  0.00000000000E+00  0.74505805969E-08  0.10566000000E+00  0.10566000000E+00 0.  1.
     999900   -1    0    0    0    0 -0.00000000000E+00 -0.00000000000E+00 -0.74505805969E-08  0.93827000000E+00  0.93827000000E+00 0. -1.
     999902    2    1    2    0    0 -0.16819813023E-01 -0.13207018475E-01 -0.92048257185E-02  0.10206478123E+01  0.10203822306E+01 0.  0.
     999903    2    3    3    0    0 -0.14860069354E-01 -0.10043363792E+00 -0.83870441182E-01  0.13318667070E+00  0.19917355792E-01 0.  0.
         14    1    1    2    0    0  0.16819813023E-01  0.13207018475E-01  0.92048257185E-02  0.23282187690E-01  0.00000000000E+00 0.  1.
     999901    1    3    3    0    0 -0.19597436696E-02  0.87226619443E-01  0.74665615463E-01  0.88746114161E+00  0.88000000000E+00 0.  1.
        -11    1    4    4    0    0 -0.14847845724E-01 -0.49257438555E-01 -0.33603759307E-01  0.61451017373E-01  0.51100000000E-03 0. -1.
         11    1    4    4    0    0 -0.12223630140E-04 -0.51176199362E-01 -0.50266681875E-01  0.71735653327E-01  0.51100000000E-03 0.  1.
</event>
<event>
 8    1  0.5489035E+004  0.1043930E+01  0.7957747E-01            NaN
         13   -1    0    0    0    0  0.00000000000E+00  0.00000000000E+00  0.74505805969E-08  0.10566000000E+00  0.10566000000E+00 0. -1.
     999900   -1    0    0    0    0 -0.00000000000E+00 -0.00000000000E+00 -0.74505805969E-08  0.93827000000E+00  0.93827000000E+00 0.  1.
     999902    2    1    2    0    0  0.23666154117E-01 -0.89288885349E-02  0.13605067286E-02  0.10185989345E+01  0.10182839125E+01 0.  0.
     999903    2    3    3    0    0  0.80990848801E-01 -0.34739811482E-01 -0.94960211579E-01  0.13111372045E+00  0.20174087751E-01 0.  0.
         14    1    1    2    0    0 -0.23666154117E-01  0.89288885349E-02 -0.13605067286E-02  0.25331065507E-01  0.00000000000E+00 0.  1.
     999901    1    3    3    0    0 -0.57324694685E-01  0.25810922947E-01  0.96320718308E-01  0.88748521404E+00  0.88000000000E+00 0. -1.
        -11    1    4    4    0    0  0.17006440675E-01 -0.14342116120E-02 -0.10513575311E-01  0.20051742423E-01  0.51100000000E-03 0.  1.
         11    1    4    4    0    0  0.63984408126E-01 -0.33305599870E-01 -0.84446636268E-01  0.11106197803E+00  0.51100000000E-03 0. -1.
</event>
<event>
 8    1  0.5489035E+004  0.1043930E+01  0.7957747E-01            NaN
         13   -1    0    0    0    0  0.00000000000E+00  0.00000000000E+00  0.74505805969E-08  0.10566000000E+00  0.10566000000E+00 0. -1.
     999900   -1    0    0    0    0 -0.00000000000E+00 -0.00000000000E+00 -0.74505805969E-08  0.93827000000E+00  0.93827000000E+00 0.  1.
     999902    2    1    2    0    0 -0.19930944011E-01  0.10840591585E-01  0.61218642461E-02  0.10204302516E+01  0.10201596248E+01 0.  0.
     999903    2    3    3    0    0 -0.41125023705E-01  0.10359115696E+00 -0.68235538765E-01  0.13218429475E+00  0.19854562532E-01 0.  0.
         14    1    1    2    0    0  0.19930944011E-01 -0.10840591585E-01 -0.61218642461E-02  0.23499748444E-01  0.00000000000E+00 0.  1.
     999901    1    3    3    0    0  0.21194079695E-01 -0.92750565378E-01  0.74357403011E-01  0.88824595680E+00  0.88000000000E+00 0. -1.
        -11    1    4    4    0    0 -0.30536715963E-01  0.54807181932E-01 -0.44403064407E-01  0.76864890963E-01  0.51100000000E-03 0.  1.
         11    1    4    4    0    0 -0.10588307742E-01  0.48783975032E-01 -0.23832474359E-01  0.55319403791E-01  0.51100000000E-03 0. -1.
</event>
<event>
 8    1  0.5489035E+004  0.1043930E+01  0.7957747E-01            NaN
         13   -1    0    0    0    0  0.00000000000E+00  0.00000000000E+00  0.74505805969E-08  0.10566000000E+00  0.10566000000E+00 0.  1.
     999900   -1    0    0    0    0 -0.00000000000E+00 -0.00000000000E+00 -0.74505805969E-08  0.93827000000E+00  0.93827000000E+00 0. -1.
     999902    2    1    2    0    0  0.10863760336E-01  0.67664917887E-02  0.19162114681E-01  0.10208867073E+01  0.10206266094E+01 0.  0.
     999903    2    3    3    0    0  0.35492133459E-01  0.55552513601E-01  0.11499003502E+00  0.13399910280E+00  0.19679382411E-01 0.  0.
         14    1    1    2    0    0 -0.10863760336E-01 -0.67664917887E-02 -0.19162114681E-01  0.23043292708E-01  0.00000000000E+00 0. -1.
     999901    1    3    3    0    0 -0.24628373123E-01 -0.48786021813E-01 -0.95827920339E-01  0.88688760449E+00  0.88000000000E+00 0. -1.
        -11    1    4    4    0    0  0.36381934476E-02  0.20545411089E-01  0.43671205366E-01  0.48402331220E-01  0.51100000000E-03 0.  1.
         11    1    4    4    0    0  0.31853940011E-01  0.35007102512E-01  0.71318829654E-01  0.85596771579E-01  0.51100000000E-03 0. -1.
</event>
<event>
 8    1  0.5489035E+004  0.1043930E+01  0.7957747E-01            NaN
         13   -1    0    0    0    0  0.00000000000E+00  0.00000000000E+00  0.74505805969E-08  0.10566000000E+00  0.10566000000E+00 0.  1.
     999900   -1    0    0    0    0 -0.00000000000E+00 -0.00000000000E+00 -0.74505805969E-08  0.93827000000E+00  0.93827000000E+00 0.  1.
     999902    2    1    2    0    0 -0.20614215133E-01  0.49314608592E-02 -0.10200631261E-01  0.10204072865E+01  0.10201361244E+01 0.  0.
     999903    2    3    3    0    0 -0.22262242622E-01 -0.15051752279E-01  0.12524052781E+00  0.12981964210E+00  0.21113667998E-01 0.  0.
         14    1    1    2    0    0  0.20614215133E-01 -0.49314608592E-02  0.10200631261E-01  0.23522713489E-01  0.00000000000E+00 0. -1.
     999901    1    3    3    0    0  0.16480274889E-02  0.19983213138E-01 -0.13544115907E+00  0.89058764441E+00  0.88000000000E+00 0.  1.
        -11    1    4    4    0    0 -0.56212057668E-03 -0.11923826129E-01  0.36322756337E-01  0.38237381684E-01  0.51100000000E-03 0.  1.
         11    1    4    4    0    0 -0.21700122046E-01 -0.31279261500E-02  0.88917771472E-01  0.91582260419E-01  0.51100000000E-03 0. -1.
</event>
<event>
 8    1  0.5489035E+004  0.1043930E+01  0.7957747E-01            NaN
         13   -1    0    0    0    0  0.00000000000E+00  0.00000000000E+00  0.74505805969E-08  0.10566000000E+00  0.10566000000E+00 0.  1.
     999900   -1    0    0    0    0 -0.00000000000E+00 -0.00000000000E+00 -0.74505805969E-08  0.93827000000E+00  0.93827000000E+00 0.  1.
     999902    2    1    2    0    0 -0.10067019151E-01 -0.22238929161E-02  0.20466131200E-01  0.10210137808E+01  0.10207565761E+01 0.  0.
     999903    2    3    3    0    0 -0.33513332879E-01  0.12528899305E+00  0.80864269744E-02  0.13142819036E+00  0.19685112623E-01 0.  0.
         14    1    1    2    0    0  0.10067019151E-01  0.22238929161E-02 -0.20466131200E-01  0.22916219160E-01  0.00000000000E+00 0. -1.
     999901    1    3    3    0    0  0.23446313728E-01 -0.12751288597E+00  0.12379704225E-01  0.88958559048E+00  0.88000000000E+00 0. -1.
        -11    1    4    4    0    0 -0.17390569331E-01  0.39609720822E-01  0.92311205566E-02  0.44236145774E-01  0.51100000000E-03 0.  1.
         11    1    4    4    0    0 -0.16122763548E-01  0.85679272230E-01 -0.11446935822E-02  0.87192044584E-01  0.51100000000E-03 0. -1.
</event>
<event>
 8    1  0.5489035E+004  0.1043930E+01  0.7957747E-01            NaN
         13   -1    0    0    0    0  0.00000000000E+00  0.00000000000E+00  0.74505805969E-08  0.10566000000E+00  0.10566000000E+00 0.  1.
     999900   -1    0    0    0    0 -0.00000000000E+00 -0.00000000000E+00 -0.74505805969E-08  0.93827000000E+00  0.93827000000E+00 0. -1.
     999902    2    1    2    0    0  0.54785045458E-02 -0.22808125725E-01  0.33059299049E-02  0.10202413153E+01  0.10199662679E+01 0.  0.
     999903    2    3    3    0    0 -0.11077072951E+00 -0.67299994719E-01 -0.16299215136E-01  0.13126562802E+00  0.12866890838E-01 0.  0.
         14    1    1    2    0    0 -0.54785045458E-02  0.22808125725E-01 -0.33059299049E-02  0.23688684719E-01  0.00000000000E+00 0. -1.
     999901    1    3    3    0    0  0.11624923406E+00  0.44491868993E-01  0.19605145041E-01  0.88897568726E+00  0.88000000000E+00 0.  1.
        -11    1    4    4    0    0 -0.27575722366E-01 -0.11281725282E-01 -0.10696945969E-02  0.29817832867E-01  0.51100000000E-03 0. -1.
         11    1    4    4    0    0 -0.83195007148E-01 -0.56018269437E-01 -0.15229520539E-01  0.10144779516E+00  0.51100000000E-03 0.  1.
</event>
<event>
 8    1  0.5489035E+004  0.1043930E+01  0.7957747E-01            NaN
         13   -1    0    0    0    0  0.00000000000E+00  0.00000000000E+00  0.74505805969E-08  0.10566000000E+00  0.10566000000E+00 0.  1.
     999900   -1    0    0    0    0 -0.00000000000E+00 -0.00000000000E+00 -0.74505805969E-08  0.93827000000E+00  0.93827000000E+00 0. -1.
     999902    2    1    2    0    0  0.81618931102E-02  0.21179854682E-01  0.32880023288E-02  0.10209950114E+01  0.10207373803E+01 0.  0.
     999903    2    3    3    0    0  0.11810549449E+00  0.31752893969E-01  0.48615008313E-01  0.13293312046E+00  0.18725420601E-01 0.  0.
         14    1    1    2    0    0 -0.81618931102E-02 -0.21179854682E-01 -0.32880023288E-02  0.22934988616E-01  0.00000000000E+00 0. -1.
     999901    1    3    3    0    0 -0.10994360138E+00 -0.10573039287E-01 -0.45327005984E-01  0.88806189093E+00  0.88000000000E+00 0.  1.
        -11    1    4    4    0    0  0.26542440239E-01 -0.40894276857E-03  0.80112949315E-02  0.27732838577E-01  0.51100000000E-03 0.  1.
         11    1    4    4    0    0  0.91563054253E-01  0.32161836738E-01  0.40603713381E-01  0.10520028188E+00  0.51100000000E-03 0. -1.
</event>
<event>
 8    1  0.5489035E+004  0.1043930E+01  0.7957747E-01            NaN
         13   -1    0    0    0    0  0.00000000000E+00  0.00000000000E+00  0.74505805969E-08  0.10566000000E+00  0.10566000000E+00 0.  1.
     999900   -1    0    0    0    0 -0.00000000000E+00 -0.00000000000E+00 -0.74505805969E-08  0.93827000000E+00  0.93827000000E+00 0. -1.
     999902    2    1    2    0    0  0.75362633310E-02  0.17385819264E-01 -0.13373181630E-01  0.10207372433E+01  0.10204737213E+01 0.  0.
     999903    2    3    3    0    0 -0.88336837459E-01  0.89684669831E-01  0.31543344665E-01  0.13144748760E+00  0.20897907791E-01 0.  0.
         14    1    1    2    0    0 -0.75362633310E-02 -0.17385819264E-01  0.13373181630E-01  0.23192756701E-01  0.00000000000E+00 0.  1.
     999901    1    3    3    0    0  0.95873100790E-01 -0.72298850568E-01 -0.44916526295E-01  0.88928975569E+00  0.88000000000E+00 0. -1.
        -11    1    4    4    0    0 -0.63488135968E-01  0.69553744087E-01  0.31994288653E-01  0.99460355683E-01  0.51100000000E-03 0. -1.
         11    1    4    4    0    0 -0.24848701491E-01  0.20130925744E-01 -0.45094398787E-03  0.31987131922E-01  0.51100000000E-03 0.  1.
</event>
<event>
 8    1  0.5489035E+004  0.1043930E+01  0.7957747E-01            NaN
         13   -1    0    0    0    0  0.00000000000E+00  0.00000000000E+00  0.74505805969E-08  0.10566000000E+00  0.10566000000E+00 0. -1.
     999900   -1    0    0    0    0 -0.00000000000E+00 -0.00000000000E+00 -0.74505805969E-08  0.93827000000E+00  0.93827000000E+00 0.  1.
     999902    2    1    2    0    0  0.21219355433E-01 -0.74380618359E-02  0.78833116425E-02  0.10201028640E+01  0.10198245539E+01 0.  0.
     999903    2    3    3    0    0 -0.35182381965E-01  0.89839013136E-01 -0.82714262183E-01  0.12833388846E+00  0.17863075818E-01 0.  0.
         14    1    1    2    0    0 -0.21219355433E-01  0.74380618359E-02 -0.78833116425E-02  0.23827136028E-01  0.00000000000E+00 0.  1.
     999901    1    3    3    0    0  0.56401737397E-01 -0.97277074972E-01  0.90597573825E-01  0.89176897551E+00  0.88000000000E+00 0. -1.
        -11    1    4    4    0    0 -0.61157687524E-02  0.34189565422E-01 -0.36401088131E-01  0.50315299356E-01  0.51100000000E-03 0.  1.
         11    1    4    4    0    0 -0.29066613212E-01  0.55649447714E-01 -0.46313174052E-01  0.78018589107E-01  0.51100000000E-03 0. -1.
</event>
<event>
 8    1  0.5489035E+004  0.1043930E+01  0.7957747E-01            NaN
         13   -1    0    0    0    0  0.00000000000E+00  0.00000000000E+00  0.74505805969E-08  0.10566000000E+00  0.10566000000E+00 0. -1.
     999900   -1    0    0    0    0 -0.00000000000E+00 -0.00000000000E+00 -0.74505805969E-08  0.93827000000E+00  0.93827000000E+00 0.  1.
     999902    2    1    2    0    0 -0.26763888483E-02  0.19443665878E-01  0.12764855131E-01  0.10205171675E+01  0.10202485621E+01 0.  0.
     999903    2    3    3    0    0 -0.66415587374E-01 -0.15930849308E-01 -0.10799499708E+00  0.12928376166E+00  0.19660860302E-01 0.  0.
         14    1    1    2    0    0  0.26763888483E-02 -0.19443665878E-01 -0.12764855131E-01  0.23412832519E-01  0.00000000000E+00 0. -1.
     999901    1    3    3    0    0  0.63739198526E-01  0.35374515186E-01  0.12075985221E+00  0.89123340583E+00  0.88000000000E+00 0. -1.
        -11    1    4    4    0    0 -0.17987679291E-01 -0.90464400480E-02 -0.46727510978E-01  0.50883357662E-01  0.51100000000E-03 0. -1.
         11    1    4    4    0    0 -0.48427908083E-01 -0.68844092597E-02 -0.61267486102E-01  0.78400403994E-01  0.51100000000E-03 0.  1.
</event>
<event>
 8    1  0.5489035E+004  0.1043930E+01  0.7957747E-01            NaN
         13   -1    0    0    0    0  0.00000000000E+00  0.00000000000E+00  0.74505805969E-08  0.10566000000E+00  0.10566000000E+00 0.  1.
     999900   -1    0    0    0    0 -0.00000000000E+00 -0.00000000000E+00 -0.74505805969E-08  0.93827000000E+00  0.93827000000E+00 0.  1.
     999902    2    1    2    0    0  0.13079998063E-01 -0.12683484633E-01  0.17122038916E-01  0.10189275731E+01  0.10186207724E+01 0.  0.
     999903    2    3    3    0    0  0.27836299637E-01 -0.12118741223E+00  0.39706940215E-01  0.13185320845E+00  0.18638106584E-01 0.  0.
         14    1    1    2    0    0 -0.13079998063E-01  0.12683484633E-01 -0.17122038916E-01  0.25002426850E-01  0.00000000000E+00 0. -1.
     999901    1    3    3    0    0 -0.14756301574E-01  0.10850392760E+00 -0.22584901299E-01  0.88707436470E+00  0.88000000000E+00 0.  1.
        -11    1    4    4    0    0  0.27135706870E-01 -0.11010926284E+00  0.41166966241E-01  0.12064566541E+00  0.51100000000E-03 0. -1.
         11    1    4    4    0    0  0.70059276679E-03 -0.11078149388E-01 -0.14600260257E-02  0.11207543044E-01  0.51100000000E-03 0.  1.
</event>
<event>
 8    1  0.5489035E+004  0.1043930E+01  0.7957747E-01            NaN
         13   -1    0    0    0    0  0.00000000000E+00  0.00000000000E+00  0.74505805969E-08  0.10566000000E+00  0.10566000000E+00 0. -1.
     999900   -1    0    0    0    0 -0.00000000000E+00 -0.00000000000E+00 -0.74505805969E-08  0.93827000000E+00  0.93827000000E+00 0. -1.
     999902    2    1    2    0    0  0.15642915948E-01 -0.15532302117E-01 -0.90824377877E-02  0.10200879383E+01  0.10198092753E+01 0.  0.
     999903    2    3    3    0    0  0.91095692972E-01  0.42751633235E-01  0.80675180604E-01  0.13039890910E+00  0.19216225074E-01 0.  0.
         14    1    1    2    0    0 -0.15642915948E-01  0.15532302117E-01  0.90824377877E-02  0.23842061668E-01  0.00000000000E+00 0. -1.
     999901    1    3    3    0    0 -0.75452777024E-01 -0.58283935353E-01 -0.89757618392E-01  0.88968902923E+00  0.88000000000E+00 0. -1.
        -11    1    4    4    0    0  0.56521177088E-01  0.29917131169E-01  0.39720431525E-01  0.75283809669E-01  0.51100000000E-03 0.  1.
         11    1    4    4    0    0  0.34574515884E-01  0.12834502066E-01  0.40954749079E-01  0.55115099428E-01  0.51100000000E-03 0. -1.
</event>
<event>
 8    1  0.5489035E+004  0.1043930E+01  0.7957747E-01            NaN
         13   -1    0    0    0    0  0.00000000000E+00  0.00000000000E+00  0.74505805969E-08  0.10566000000E+00  0.10566000000E+00 0. -1.
     999900   -1    0    0    0    0 -0.00000000000E+00 -0.00000000000E+00 -0.74505805969E-08  0.93827000000E+00  0.93827000000E+00 0. -1.
     999902    2    1    2    0    0  0.23584248542E-02  0.18382030930E-01 -0.14084724786E-01  0.10206525280E+01  0.10203870551E+01 0.  0.
     999903    2    3    3    0    0  0.11781732106E+00 -0.40540370254E-01 -0.32490599981E-01  0.13096641354E+00  0.23919022259E-01 0.  0.
         14    1    1    2    0    0 -0.23584248542E-02 -0.18382030930E-01  0.14084724786E-01  0.23277471968E-01  0.00000000000E+00 0. -1.
     999901    1    3    3    0    0 -0.11545889621E+00  0.58922401184E-01  0.18405875195E-01  0.88968611449E+00  0.88000000000E+00 0. -1.
        -11    1    4    4    0    0  0.38065806433E-01 -0.13689027948E-01 -0.22313705210E-01  0.46201273432E-01  0.51100000000E-03 0.  1.
         11    1    4    4    0    0  0.79751514631E-01 -0.26851342306E-01 -0.10176894771E-01  0.84765140110E-01  0.51100000000E-03 0. -1.
</event>
<event>
 8    1  0.5489035E+004  0.1043930E+01  0.7957747E-01            NaN
         13   -1    0    0    0    0  0.00000000000E+00  0.00000000000E+00  0.74505805969E-08  0.10566000000E+00  0.10566000000E+00 0.  1.
     999900   -1    0    0    0    0 -0.00000000000E+00 -0.00000000000E+00 -0.74505805969E-08  0.93827000000E+00  0.93827000000E+00 0. -1.
     999902    2    1    2    0    0  0.72677532041E-02 -0.19232007003E-01  0.12280880740E-01  0.10199819236E+01  0.10197007474E+01 0.  0.
     999903    2    3    3    0    0  0.25096216807E-01 -0.86000123458E-01 -0.92787453214E-01  0.13104143615E+00  0.23162581478E-01 0.  0.
         14    1    1    2    0    0 -0.72677532041E-02  0.19232007003E-01 -0.12280880740E-01  0.23948076369E-01  0.00000000000E+00 0.  1.
     999901    1    3    3    0    0 -0.17828463603E-01  0.66768116454E-01  0.10506833395E+00  0.88894048748E+00  0.88000000000E+00 0.  1.
        -11    1    4    4    0    0  0.18716106393E-01 -0.26271712610E-01 -0.36606109180E-01  0.48793071970E-01  0.51100000000E-03 0.  1.
         11    1    4    4    0    0  0.63801104142E-02 -0.59728410848E-01 -0.56181344033E-01  0.82248364177E-01  0.51100000000E-03 0. -1.
</event>
<event>
 8    1  0.5489035E+004  0.1043930E+01  0.7957747E-01            NaN
         13   -1    0    0    0    0  0.00000000000E+00  0.00000000000E+00  0.74505805969E-08  0.10566000000E+00  0.10566000000E+00 0.  1.
     999900   -1    0    0    0    0 -0.00000000000E+00 -0.00000000000E+00 -0.74505805969E-08  0.93827000000E+00  0.93827000000E+00 0.  1.
     999902    2    1    2    0    0  0.89439397460E-02  0.18817830753E-01  0.42173827436E-02  0.10226722689E+01  0.10224513086E+01 0.  0.
     999903    2    3    3    0    0  0.11838567592E+00  0.19897234849E-01  0.56781432370E-01  0.13433582477E+00  0.20271027068E-01 0.  0.
         14    1    1    2    0    0 -0.89439397460E-02 -0.18817830753E-01 -0.42173827436E-02  0.21257731056E-01  0.00000000000E+00 0.  1.
     999901    1    3    3    0    0 -0.10944173617E+00 -0.10794040964E-02 -0.52564049627E-01  0.88833644417E+00  0.88000000000E+00 0.  1.
        -11    1    4    4    0    0  0.92079251956E-01  0.17249550797E-01  0.52963086592E-01  0.10761730951E+00  0.51100000000E-03 0. -1.
         11    1    4    4    0    0  0.26306423961E-01  0.26476840524E-02  0.38183457787E-02  0.26718515265E-01  0.51100000000E-03 0.  1.
</event>
<event>
 8    1  0.5489035E+004  0.1043930E+01  0.7957747E-01            NaN
         13   -1    0    0    0    0  0.00000000000E+00  0.00000000000E+00  0.74505805969E-08  0.10566000000E+00  0.10566000000E+00 0. -1.
     999900   -1    0    0    0    0 -0.00000000000E+00 -0.00000000000E+00 -0.74505805969E-08  0.93827000000E+00  0.93827000000E+00 0. -1.
     999902    2    1    2    0    0 -0.19895179846E-01  0.11843956593E-01 -0.63599647381E-02  0.10199186144E+01  0.10196359317E+01 0.  0.
     999903    2    3    3    0    0 -0.61785134035E-01  0.63738076136E-01  0.94883565195E-01  0.13160672079E+00  0.20916330362E-01 0.  0.
         14    1    1    2    0    0  0.19895179846E-01 -0.11843956593E-01  0.63599647381E-02  0.24011385640E-01  0.00000000000E+00 0. -1.
     999901    1    3    3    0    0  0.41889954189E-01 -0.51894119543E-01 -0.10124352993E+00  0.88831189357E+00  0.88000000000E+00 0. -1.
        -11    1    4    4    0    0 -0.44886362389E-01  0.31632993769E-01  0.57016432489E-01  0.79161648025E-01  0.51100000000E-03 0. -1.
         11    1    4    4    0    0 -0.16898771646E-01  0.32105082367E-01  0.37867132706E-01  0.52445072765E-01  0.51100000000E-03 0.  1.
</event>
<event>
 8    1  0.5489035E+004  0.1043930E+01  0.7957747E-01            NaN
         13   -1    0    0    0    0  0.00000000000E+00  0.00000000000E+00  0.74505805969E-08  0.10566000000E+00  0.10566000000E+00 0.  1.
     999900   -1    0    0    0    0 -0.00000000000E+00 -0.00000000000E+00 -0.74505805969E-08  0.93827000000E+00  0.93827000000E+00 0.  1.
     999902    2    1    2    0    0 -0.46290810474E-02  0.21744800354E-01 -0.61235707792E-02  0.10208700162E+01  0.10206095371E+01 0.  0.
     999903    2    3    3    0    0 -0.10514691853E+00  0.60994228159E-01  0.48994033449E-01  0.13256696908E+00  0.19935286091E-01 0.  0.
         14    1    1    2    0    0  0.46290810474E-02 -0.21744800354E-01  0.61235707792E-02  0.23059983801E-01  0.00000000000E+00 0. -1.
     999901    1    3    3    0    0  0.10051783748E+00 -0.39249427805E-01 -0.55117604229E-01  0.88830304712E+00  0.88000000000E+00 0.  1.
        -11    1    4    4    0    0 -0.77751103329E-01  0.49530362513E-01  0.45039970790E-01  0.10260287993E+00  0.51100000000E-03 0.  1.
         11    1    4    4    0    0 -0.27395815199E-01  0.11463865647E-01  0.39540626589E-02  0.29964089148E-01  0.51100000000E-03 0. -1.
</event>
<event>
 8    1  0.5489035E+004  0.1043930E+01  0.7957747E-01            NaN
         13   -1    0    0    0    0  0.00000000000E+00  0.00000000000E+00  0.74505805969E-08  0.10566000000E+00  0.10566000000E+00 0.  1.
     999900   -1    0    0    0    0 -0.00000000000E+00 -0.00000000000E+00 -0.74505805969E-08  0.93827000000E+00  0.93827000000E+00 0. -1.
     999902    2    1    2    0    0 -0.20463730481E-01 -0.97541742123E-02  0.77721137246E-02  0.10199651522E+01  0.10196835772E+01 0.  0.
     999903    2    3    3    0    0  0.47370848396E-01 -0.81270306755E-01  0.88718208135E-01  0.13076980946E+00  0.19518262536E-01 0.  0.
         14    1    1    2    0    0  0.20463730481E-01  0.97541742123E-02 -0.77721137246E-02  0.23964847830E-01  0.00000000000E+00 0.  1.
     999901    1    3    3    0    0 -0.67834578877E-01  0.71516132543E-01 -0.80946094411E-01  0.88919534271E+00  0.88000000000E+00 0. -1.
        -11    1    4    4    0    0  0.45187581471E-01 -0.68539625991E-01  0.82634462806E-01  0.11648310356E+00  0.51100000000E-03 0.  1.
         11    1    4    4    0    0  0.21832669255E-02 -0.12730680764E-01  0.60837453295E-02  0.14286705898E-01  0.51100000000E-03 0. -1.
</event>
<event>
 8    1  0.5489035E+004  0.1043930E+01  0.7957747E-01            NaN
         13   -1    0    0    0    0  0.00000000000E+00  0.00000000000E+00  0.74505805969E-08  0.10566000000E+00  0.10566000000E+00 0. -1.
     999900   -1    0    0    0    0 -0.00000000000E+00 -0.00000000000E+00 -0.74505805969E-08  0.93827000000E+00  0.93827000000E+00 0. -1.
     999902    2    1    2    0    0 -0.75216908409E-02 -0.10567514901E-01  0.20615153055E-01  0.10195736304E+01  0.10192826669E+01 0.  0.
     999903    2    3    3    0    0 -0.11685176262E-01  0.70239117570E-01 -0.10354082961E+00  0.12718259813E+00  0.19612059765E-01 0.  0.
         14    1    1    2    0    0  0.75216908409E-02  0.10567514901E-01 -0.20615153055E-01  0.24356369594E-01  0.00000000000E+00 0.  1.
     999901    1    3    3    0    0  0.41634854215E-02 -0.80806632471E-01  0.12415598267E+00  0.89239103228E+00  0.88000000000E+00 0.  1.
        -11    1    4    4    0    0 -0.15047318308E-01  0.31216111876E-01 -0.50349007147E-01  0.61124062943E-01  0.51100000000E-03 0.  1.
         11    1    4    4    0    0  0.33621420457E-02  0.39023005693E-01 -0.53191822464E-01  0.66058535183E-01  0.51100000000E-03 0. -1.
</event>
<event>
 8    1  0.5489035E+004  0.1043930E+01  0.7957747E-01            NaN
         13   -1    0    0    0    0  0.00000000000E+00  0.00000000000E+00  0.74505805969E-08  0.10566000000E+00  0.10566000000E+00 0. -1.
     999900   -1    0    0    0    0 -0.00000000000E+00 -0.00000000000E+00 -0.74505805969E-08  0.93827000000E+00  0.93827000000E+00 0. -1.
     999902    2    1    2    0    0 -0.14192243078E-01 -0.39990294794E-02  0.20272771319E-01  0.10188621469E+01  0.10185537184E+01 0.  0.
     999903    2    3    3    0    0 -0.70857066608E-01 -0.98262415599E-01 -0.41909978989E-01  0.12983842249E+00  0.20623855320E-01 0.  0.
         14    1    1    2    0    0  0.14192243078E-01  0.39990294794E-02 -0.20272771319E-01  0.25067853065E-01  0.00000000000E+00 0.  1.
     999901    1    3    3    0    0  0.56664823530E-01  0.94263386120E-01  0.62182750308E-01  0.88902372444E+00  0.88000000000E+00 0.  1.
        -11    1    4    4    0    0 -0.44551282255E-01 -0.44195513441E-01 -0.21892260079E-01  0.66464970708E-01  0.51100000000E-03 0.  1.
         11    1    4    4    0    0 -0.26305784353E-01 -0.54066902158E-01 -0.20017718910E-01  0.63373451782E-01  0.51100000000E-03 0. -1.
</event>
<event>
 8    1  0.5489035E+004  0.1043930E+01  0.7957747E-01            NaN
         13   -1    0    0    0    0  0.00000000000E+00  0.00000000000E+00  0.74505805969E-08  0.10566000000E+00  0.10566000000E+00 0. -1.
     999900   -1    0    0    0    0 -0.00000000000E+00 -0.00000000000E+00 -0.74505805969E-08  0.93827000000E+00  0.93827000000E+00 0.  1.
     999902    2    1    2    0    0  0.96372937553E-02  0.35115318506E-02  0.22563080144E-01  0.10191449062E+01  0.10188434811E+01 0.  0.
     999903    2    3    3    0    0 -0.12043844724E+00 -0.35548591905E-01  0.20750983104E-01  0.12872440145E+00  0.19241784445E-01 0.  0.
         14    1    1    2    0    0 -0.96372937553E-02 -0.35115318506E-02 -0.22563080144E-01  0.24785093755E-01  0.00000000000E+00 0.  1.
     999901    1    3    3    0    0  0.13007574100E+00  0.39060123755E-01  0.18120970399E-02  0.89042050479E+00  0.88000000000E+00 0.  1.
        -11    1    4    4    0    0 -0.44716157768E-01 -0.49978670066E-02  0.12207938258E-01  0.46624117339E-01  0.51100000000E-03 0.  1.
         11    1    4    4    0    0 -0.75722289473E-01 -0.30550724898E-01  0.85430448468E-02  0.82100284111E-01  0.51100000000E-03 0. -1.
</event>
<event>
 8    1  0.5489035E+004  0.1043930E+01  0.7957747E-01            NaN
         13   -1    0    0    0    0  0.00000000000E+00  0.00000000000E+00  0.74505805969E-08  0.10566000000E+00  0.10566000000E+00 0. -1.
     999900   -1    0    0    0    0 -0.00000000000E+00 -0.00000000000E+00 -0.74505805969E-08  0.93827000000E+00  0.93827000000E+00 0.  1.
     999902    2    1    2    0    0  0.15810131231E-01  0.26000949962E-02 -0.18211926962E-01  0.10196731447E+01  0.10193845825E+01 0.  0.
     999903    2    3    3    0    0  0.11009658805E+00  0.35660032556E-01 -0.62371603426E-01  0.13291896661E+00  0.19604544068E-01 0.  0.
         14    1    1    2    0    0 -0.15810131231E-01 -0.26000949962E-02  0.18211926962E-01  0.24256855262E-01  0.00000000000E+00 0. -1.
     999901    1    3    3    0    0 -0.94286456816E-01 -0.33059937560E-01  0.44159676463E-01  0.88675417813E+00  0.88000000000E+00 0.  1.
        -11    1    4    4    0    0  0.39902348832E-01  0.72215846276E-02 -0.30523945637E-01  0.50757473391E-01  0.51100000000E-03 0. -1.
         11    1    4    4    0    0  0.70194239215E-01  0.28438447928E-01 -0.31847657789E-01  0.82161493214E-01  0.51100000000E-03 0.  1.
</event>
<event>
 8    1  0.5489035E+004  0.1043930E+01  0.7957747E-01            NaN
         13   -1    0    0    0    0  0.00000000000E+00  0.00000000000E+00  0.74505805969E-08  0.10566000000E+00  0.10566000000E+00 0.  1.
     999900   -1    0    0    0    0 -0.00000000000E+00 -0.00000000000E+00 -0.74505805969E-08  0.93827000000E+00  0.93827000000E+00 0. -1.
     999902    2    1    2    0    0 -0.15722595523E-01  0.16182832861E-01 -0.13273907448E-01  0.10177521332E+01  0.10174154137E+01 0.  0.
     999903    2    3    3    0    0 -0.10992061380E+00 -0.53125915069E-01 -0.38396598701E-01  0.12965972881E+00  0.20795246905E-01 0.  0.
         14    1    1    2    0    0  0.15722595523E-01 -0.16182832861E-01  0.13273907448E-01  0.26177866764E-01  0.00000000000E+00 0.  1.
     999901    1    3    3    0    0  0.94198018272E-01  0.69308747929E-01  0.25122691253E-01  0.88809240443E+00  0.88000000000E+00 0.  1.
        -11    1    4    4    0    0 -0.54995529136E-01 -0.33762861711E-01 -0.28654536564E-01  0.70610074653E-01  0.51100000000E-03 0.  1.
         11    1    4    4    0    0 -0.54925084659E-01 -0.19363053358E-01 -0.97420621372E-02  0.59049654155E-01  0.51100000000E-03 0. -1.
</event>
<event>
 8    1  0.5489035E+004  0.1043930E+01  0.7957747E-01            NaN
         13   -1    0    0    0    0  0.00000000000E+00  0.00000000000E+00  0.74505805969E-08  0.10566000000E+00  0.10566000000E+00 0.  1.
     999900   -1    0    0    0    0 -0.00000000000E+00 -0.00000000000E+00 -0.74505805969E-08  0.93827000000E+00  0.93827000000E+00 0. -1.
     999902    2    1    2    0    0 -0.10152281791E-01 -0.72440006274E-02  0.19251353767E-01  0.10209918442E+01  0.10207341411E+01 0.  0.
     999903    2    3    3    0    0 -0.54918428203E-01  0.10779527198E+00  0.47013953462E-01  0.13194246195E+00  0.23720181837E-01 0.  0.
         14    1    1    2    0    0  0.10152281791E-01  0.72440006274E-02 -0.19251353767E-01  0.22938155822E-01  0.00000000000E+00 0. -1.
     999901    1    3    3    0    0  0.44766146412E-01 -0.11503927261E+00 -0.27762599695E-01  0.88904938223E+00  0.88000000000E+00 0.  1.
        -11    1    4    4    0    0 -0.23032656623E-01  0.50906943110E-01  0.94196279511E-02  0.56665780147E-01  0.51100000000E-03 0. -1.
         11    1    4    4    0    0 -0.31885771580E-01  0.56888328871E-01  0.37594325511E-01  0.75276681799E-01  0.51100000000E-03 0.  1.
</event>
<event>
 8    1  0.5489035E+004  0.1043930E+01  0.7957747E-01            NaN
         13   -1    0    0    0    0  0.00000000000E+00  0.00000000000E+00  0.74505805969E-08  0.10566000000E+00  0.10566000000E+00 0.  1.
     999900   -1    0    0    0    0 -0.00000000000E+00 -0.00000000000E+00 -0.74505805969E-08  0.93827000000E+00  0.93827000000E+00 0.  1.
     999902    2    1    2    0    0 -0.61325278250E-02  0.22952848999E-01  0.37357126035E-02  0.10198801201E+01  0.10195965195E+01 0.  0.
     999903    2    3    3    0    0  0.11260478663E+00 -0.15185037803E-01  0.58731516546E-01  0.12938723034E+00  0.19525393590E-01 0.  0.
         14    1    1    2    0    0  0.61325278250E-02 -0.22952848999E-01 -0.37357126035E-02  0.24049879903E-01  0.00000000000E+00 0.  1.
     999901    1    3    3    0    0 -0.11873731445E+00  0.38137886803E-01 -0.54995803943E-01  0.89049288976E+00  0.88000000000E+00 0. -1.
        -11    1    4    4    0    0  0.98114078821E-01 -0.89076065848E-02  0.44423713899E-01  0.10807148280E+00  0.51100000000E-03 0.  1.
         11    1    4    4    0    0  0.14490707808E-01 -0.62774312186E-02  0.14307802648E-01  0.21315747538E-01  0.51100000000E-03 0. -1.
</event>
<event>
 8    1  0.5489035E+004  0.1043930E+01  0.7957747E-01            NaN
         13   -1    0    0    0    0  0.00000000000E+00  0.00000000000E+00  0.74505805969E-08  0.10566000000E+00  0.10566000000E+00 0.  1.
     999900   -1    0    0    0    0 -0.00000000000E+00 -0.00000000000E+00 -0.74505805969E-08  0.93827000000E+00  0.93827000000E+00 0.  1.
     999902    2    1    2    0    0 -0.96780169933E-02 -0.19406794268E-01  0.96598896985E-02  0.10201897147E+01  0.10199134536E+01 0.  0.
     999903    2    3    3    0    0 -0.67034135262E-01 -0.76122864699E-01  0.83688748325E-01  0.13340523759E+00  0.22469646198E-01 0.  0.
         14    1    1    2    0    0  0.96780169933E-02  0.19406794268E-01 -0.96598896985E-02  0.23740285290E-01  0.00000000000E+00 0. -1.
     999901    1    3    3    0    0  0.57356118269E-01  0.56716070431E-01 -0.74028858627E-01  0.88678447712E+00  0.88000000000E+00 0. -1.
        -11    1    4    4    0    0 -0.64269923052E-01 -0.63858572396E-01  0.78179282012E-01  0.11966955141E+00  0.51100000000E-03 0. -1.
         11    1    4    4    0    0 -0.27642122100E-02 -0.12264292304E-01  0.55094663134E-02  0.13735686183E-01  0.51100000000E-03 0.  1.
</event>
<event>
 8    1  0.5489035E+004  0.1043930E+01  0.7957747E-01            NaN
         13   -1    0    0    0    0  0.00000000000E+00  0.00000000000E+00  0.74505805969E-08  0.10566000000E+00  0.10566000000E+00 0. -1.
     999900   -1    0    0    0    0 -0.00000000000E+00 -0.00000000000E+00 -0.74505805969E-08  0.93827000000E+00  0.93827000000E+00 0. -1.
     999902    2    1    2    0    0 -0.17386647170E-01 -0.11971236548E-01  0.97960540023E-02  0.10206583718E+01  0.10203930337E+01 0.  0.
     999903    2    3    3    0    0 -0.31804183146E-01 -0.52170104943E-02 -0.12474869074E+00  0.13029003610E+00  0.19352891307E-01 0.  0.
         14    1    1    2    0    0  0.17386647170E-01  0.11971236548E-01 -0.97960540023E-02  0.23271628183E-01  0.00000000000E+00 0.  1.
     999901    1    3    3    0    0  0.14417535976E-01 -0.67542260537E-02  0.13454474474E+00  0.89036833572E+00  0.88000000000E+00 0.  1.
        -11    1    4    4    0    0 -0.17726592775E-04 -0.57670736225E-02 -0.18247086171E-01  0.19143581879E-01  0.51100000000E-03 0. -1.
         11    1    4    4    0    0 -0.31786456553E-01  0.55006312818E-03 -0.10650160457E+00  0.11114645422E+00  0.51100000000E-03 0.  1.
</event>
<event>
 8    1  0.5489035E+004  0.1043930E+01  0.7957747E-01            NaN
         13   -1    0    0    0    0  0.00000000000E+00  0.00000000000E+00  0.74505805969E-08  0.10566000000E+00  0.10566000000E+00 0. -1.
     999900   -1    0    0    0    0 -0.00000000000E+00 -0.00000000000E+00 -0.74505805969E-08  0.93827000000E+00  0.93827000000E+00 0. -1.
     999902    2    1    2    0    0  0.33610167698E-02  0.11556060562E-01 -0.21658081405E-01  0.10191527633E+01  0.10188515316E+01 0.  0.
     999903    2    3    3    0    0 -0.60094090808E-01  0.59754226756E-01 -0.99175359601E-01  0.13215865827E+00  0.21172898670E-01 0.  0.
         14    1    1    2    0    0 -0.33610167698E-02 -0.11556060562E-01  0.21658081405E-01  0.24777236722E-01  0.00000000000E+00 0. -1.
     999901    1    3    3    0    0  0.63455107578E-01 -0.48198166195E-01  0.77517278195E-01  0.88699410501E+00  0.88000000000E+00 0.  1.
        -11    1    4    4    0    0 -0.29304469753E-01  0.17602480720E-01 -0.49035807960E-01  0.59777678596E-01  0.51100000000E-03 0. -1.
         11    1    4    4    0    0 -0.30789621055E-01  0.42151746037E-01 -0.50139551640E-01  0.72380979673E-01  0.51100000000E-03 0.  1.
</event>
<event>
 8    1  0.5489035E+004  0.1043930E+01  0.7957747E-01            NaN
         13   -1    0    0    0    0  0.00000000000E+00  0.00000000000E+00  0.74505805969E-08  0.10566000000E+00  0.10566000000E+00 0. -1.
     999900   -1    0    0    0    0 -0.00000000000E+00 -0.00000000000E+00 -0.74505805969E-08  0.93827000000E+00  0.93827000000E+00 0.  1.
     999902    2    1    2    0    0 -0.52913516586E-02  0.11159602973E-01  0.17689563432E-01  0.10223555754E+01  0.10221279112E+01 0.  0.
     999903    2    3    3    0    0 -0.82726106628E-01 -0.38021454568E-01  0.96706798014E-01  0.13406584733E+00  0.18226544179E-01 0.  0.
         14    1    1    2    0    0  0.52913516586E-02 -0.11159602973E-01 -0.17689563432E-01  0.21574424565E-01  0.00000000000E+00 0.  1.
     999901    1    3    3    0    0  0.77434754969E-01  0.49181057541E-01 -0.79017234583E-01  0.88828972811E+00  0.88000000000E+00 0.  1.
        -11    1    4    4    0    0 -0.26624950402E-01 -0.21821490419E-01  0.37455823757E-01  0.50874996632E-01  0.51100000000E-03 0.  1.
         11    1    4    4    0    0 -0.56101156225E-01 -0.16199964149E-01  0.59250974257E-01  0.83190850697E-01  0.51100000000E-03 0. -1.
</event>
<event>
 8    1  0.5489035E+004  0.1043930E+01  0.7957747E-01            NaN
         13   -1    0    0    0    0  0.00000000000E+00  0.00000000000E+00  0.74505805969E-08  0.10566000000E+00  0.10566000000E+00 0. -1.
     999900   -1    0    0    0    0 -0.00000000000E+00 -0.00000000000E+00 -0.74505805969E-08  0.93827000000E+00  0.93827000000E+00 0.  1.
     999902    2    1    2    0    0  0.13515666494E-02 -0.23651702626E-02 -0.23650872855E-01  0.10201227627E+01  0.10198449227E+01 0.  0.
     999903    2    3    3    0    0 -0.95175742572E-02  0.93658021711E-01 -0.90880772546E-01  0.13228355930E+00  0.19422049102E-01 0.  0.
         14    1    1    2    0    0 -0.13515666494E-02  0.23651702626E-02  0.23650872855E-01  0.23807237337E-01  0.00000000000E+00 0. -1.
     999901    1    3    3    0    0  0.10869140907E-01 -0.96023191974E-01  0.67229899690E-01  0.88783920337E+00  0.88000000000E+00 0. -1.
        -11    1    4    4    0    0 -0.28324597819E-02  0.35735655771E-01 -0.47969606507E-01  0.59886594420E-01  0.51100000000E-03 0.  1.
         11    1    4    4    0    0 -0.66851144753E-02  0.57922365940E-01 -0.42911166039E-01  0.72396964877E-01  0.51100000000E-03 0. -1.
</event>
<event>
 8    1  0.5489035E+004  0.1043930E+01  0.7957747E-01            NaN
         13   -1    0    0    0    0  0.00000000000E+00  0.00000000000E+00  0.74505805969E-08  0.10566000000E+00  0.10566000000E+00 0. -1.
     999900   -1    0    0    0    0 -0.00000000000E+00 -0.00000000000E+00 -0.74505805969E-08  0.93827000000E+00  0.93827000000E+00 0.  1.
     999902    2    1    2    0    0 -0.30141694183E-02  0.61925509621E-02  0.22474208491E-01  0.10204241932E+01  0.10201534253E+01 0.  0.
     999903    2    3    3    0    0  0.79710022401E-01  0.10112300347E+00  0.16477401565E-01  0.13144104130E+00  0.20632330764E-01 0.  0.
         14    1    1    2    0    0  0.30141694183E-02 -0.61925509621E-02 -0.22474208491E-01  0.23505806772E-01  0.00000000000E+00 0.  1.
     999901    1    3    3    0    0 -0.82724191819E-01 -0.94930452507E-01  0.59968069261E-02  0.88898315193E+00  0.88000000000E+00 0. -1.
        -11    1    4    4    0    0  0.37073033915E-01  0.62768664834E-01  0.60785426495E-02  0.73154117659E-01  0.51100000000E-03 0. -1.
         11    1    4    4    0    0  0.42636988486E-01  0.38354338635E-01  0.10398858916E-01  0.58286923637E-01  0.51100000000E-03 0.  1.
</event>
<event>
 8    1  0.5489035E+004  0.1043930E+01  0.7957747E-01            NaN
         13   -1    0    0    0    0  0.00000000000E+00  0.00000000000E+00  0.74505805969E-08  0.10566000000E+00  0.10566000000E+00 0. -1.
     999900   -1    0    0    0    0 -0.00000000000E+00 -0.00000000000E+00 -0.74505805969E-08  0.93827000000E+00  0.93827000000E+00 0. -1.
     999902    2    1    2    0    0  0.61940082178E-02 -0.10984106918E-01 -0.20233216666E-01  0.10200888717E+01  0.10198102307E+01 0.  0.
     999903    2    3    3    0    0  0.95117921017E-01 -0.88694837939E-02 -0.90102936727E-01  0.13284949492E+00  0.20108765576E-01 0.  0.
         14    1    1    2    0    0 -0.61940082178E-02  0.10984106918E-01  0.20233216666E-01  0.23841128313E-01  0.00000000000E+00 0. -1.
     999901    1    3    3    0    0 -0.88923912799E-01 -0.21146231244E-02  0.69869720061E-01  0.88723937676E+00  0.88000000000E+00 0.  1.
        -11    1    4    4    0    0  0.78054005801E-01  0.41840162139E-03 -0.74835458670E-01  0.10813514635E+00  0.51100000000E-03 0.  1.
         11    1    4    4    0    0  0.17063915216E-01 -0.92878854153E-02 -0.15267478058E-01  0.24714348570E-01  0.51100000000E-03 0. -1.
</event>
<event>
 8    1  0.5489035E+004  0.1043930E+01  0.7957747E-01            NaN
         13   -1    0    0    0    0  0.00000000000E+00  0.00000000000E+00  0.74505805969E-08  0.10566000000E+00  0.10566000000E+00 0. -1.
     999900   -1    0    0    0    0 -0.00000000000E+00 -0.00000000000E+00 -0.74505805969E-08  0.93827000000E+00  0.93827000000E+00 0. -1.
     999902    2    1    2    0    0 -0.29077542703E-01  0.12568554103E-01  0.18260870535E-01  0.10073659270E+01  0.10067021304E+01 0.  0.
     999903    2    3    3    0    0  0.98477055538E-01 -0.44242388789E-01 -0.31144817461E-01  0.11498787887E+00  0.24435490582E-01 0.  0.
         14    1    1    2    0    0  0.29077542703E-01 -0.12568554103E-01 -0.18260870535E-01  0.36564073003E-01  0.00000000000E+00 0. -1.
     999901    1    3    3    0    0 -0.12755459824E+00  0.56810942892E-01  0.49405687996E-01  0.89237804812E+00  0.88000000000E+00 0.  1.
        -11    1    4    4    0    0  0.51270534296E-01 -0.17795779126E-01 -0.27263803100E-01  0.60736591295E-01  0.51100000000E-03 0.  1.
         11    1    4    4    0    0  0.47206521242E-01 -0.26446609663E-01 -0.38810143608E-02  0.54251287579E-01  0.51100000000E-03 0. -1.
</event>
<event>
 8    1  0.5489035E+004  0.1043930E+01  0.7957747E-01            NaN
         13   -1    0    0    0    0  0.00000000000E+00  0.00000000000E+00  0.74505805969E-08  0.10566000000E+00  0.10566000000E+00 0.  1.
     999900   -1    0    0    0    0 -0.00000000000E+00 -0.00000000000E+00 -0.74505805969E-08  0.93827000000E+00  0.93827000000E+00 0.  1.
     999902    2    1    2    0    0 -0.10223193244E-01 -0.19706150510E-01 -0.98031082618E-02  0.10196617702E+01  0.10193729340E+01 0.  0.
     999903    2    3    3    0    0  0.12599797443E+00  0.10776023852E-01  0.95142162221E-02  0.12844993872E+00  0.20426800918E-01 0.  0.
         14    1    1    2    0    0  0.10223193244E-01  0.19706150510E-01  0.98031082618E-02  0.24268229841E-01  0.00000000000E+00 0.  1.
     999901    1    3    3    0    0 -0.13622116767E+00 -0.30482174362E-01 -0.19317324484E-01  0.89121183144E+00  0.88000000000E+00 0. -1.
        -11    1    4    4    0    0  0.27944271074E-01 -0.58102885770E-02  0.42670258588E-02  0.28863651361E-01  0.51100000000E-03 0.  1.
         11    1    4    4    0    0  0.98053703355E-01  0.16586312429E-01  0.52471903633E-02  0.99586287356E-01  0.51100000000E-03 0. -1.
</event>
<event>
 8    1  0.5489035E+004  0.1043930E+01  0.7957747E-01            NaN
         13   -1    0    0    0    0  0.00000000000E+00  0.00000000000E+00  0.74505805969E-08  0.10566000000E+00  0.10566000000E+00 0. -1.
     999900   -1    0    0    0    0 -0.00000000000E+00 -0.00000000000E+00 -0.74505805969E-08  0.93827000000E+00  0.93827000000E+00 0.  1.
     999902    2    1    2    0    0  0.20282961664E-01  0.95197699935E-02 -0.86726569884E-02  0.10199041903E+01  0.10196211638E+01 0.  0.
     999903    2    3    3    0    0  0.90506926422E-01 -0.92414067636E-01  0.69072499945E-02  0.13110463694E+00  0.20220091401E-01 0.  0.
         14    1    1    2    0    0 -0.20282961664E-01 -0.95197699935E-02  0.86726569884E-02  0.24025809744E-01  0.00000000000E+00 0. -1.
     999901    1    3    3    0    0 -0.70223964757E-01  0.10193383763E+00 -0.15579906983E-01  0.88879955332E+00  0.88000000000E+00 0.  1.
        -11    1    4    4    0    0  0.65685922789E-01 -0.64311785628E-01  0.13859921249E-01  0.92967761947E-01  0.51100000000E-03 0.  1.
         11    1    4    4    0    0  0.24821003632E-01 -0.28102282008E-01 -0.69526712543E-02  0.38136874989E-01  0.51100000000E-03 0. -1.
</event>
<event>
 8    1  0.5489035E+004  0.1043930E+01  0.7957747E-01            NaN
         13   -1    0    0    0    0  0.00000000000E+00  0.00000000000E+00  0.74505805969E-08  0.10566000000E+00  0.10566000000E+00 0. -1.
     999900   -1    0    0    0    0 -0.00000000000E+00 -0.00000000000E+00 -0.74505805969E-08  0.93827000000E+00  0.93827000000E+00 0.  1.
     999902    2    1    2    0    0 -0.13760339623E-01 -0.67851469976E-02 -0.16402256837E-01  0.10214707214E+01  0.10212237832E+01 0.  0.
     999903    2    3    3    0    0  0.10664676838E+00 -0.30878177760E-01  0.63202671780E-01  0.12938592136E+00  0.20473003137E-01 0.  0.
         14    1    1    2    0    0  0.13760339623E-01  0.67851469976E-02  0.16402256837E-01  0.22459278610E-01  0.00000000000E+00 0. -1.
     999901    1    3    3    0    0 -0.12040710800E+00  0.24093030762E-01 -0.79604928617E-01  0.89208480003E+00  0.88000000000E+00 0.  1.
        -11    1    4    4    0    0  0.55607021016E-01 -0.24595044278E-01  0.41201333119E-01  0.73449764881E-01  0.51100000000E-03 0. -1.
         11    1    4    4    0    0  0.51039747366E-01 -0.62831334816E-02  0.22001338661E-01  0.55936156477E-01  0.51100000000E-03 0.  1.
</event>
<event>
 8    1  0.5489035E+004  0.1043930E+01  0.7957747E-01            NaN
         13   -1    0    0    0    0  0.00000000000E+00  0.00000000000E+00  0.74505805969E-08  0.10566000000E+00  0.10566000000E+00 0.  1.
     999900   -1    0    0    0    0 -0.00000000000E+00 -0.00000000000E+00 -0.74505805969E-08  0.93827000000E+00  0.93827000000E+00 0. -1.
     999902    2    1    2    0    0 -0.14496875505E-01  0.48472234372E-02 -0.18917102328E-01  0.10196089857E+01  0.10193188765E+01 0.  0.
     999903    2    3    3    0    0  0.11342485418E+00  0.44254603936E-01  0.33879733320E-01  0.12792270883E+00  0.19817053022E-01 0.  0.
         14    1    1    2    0    0  0.14496875505E-01 -0.48472234372E-02  0.18917102328E-01  0.24321014266E-01  0.00000000000E+00 0.  1.
     999901    1    3    3    0    0 -0.12792172968E+00 -0.39407380499E-01 -0.52796835648E-01  0.89168627690E+00  0.88000000000E+00 0. -1.
        -11    1    4    4    0    0  0.62765363255E-01  0.16792144798E-01  0.24987779939E-01  0.69614059059E-01  0.51100000000E-03 0. -1.
         11    1    4    4    0    0  0.50659490921E-01  0.27462459138E-01  0.88919533813E-02  0.58308649772E-01  0.51100000000E-03 0.  1.
</event>
<event>
 8    1  0.5489035E+004  0.1043930E+01  0.7957747E-01            NaN
         13   -1    0    0    0    0  0.00000000000E+00  0.00000000000E+00  0.74505805969E-08  0.10566000000E+00  0.10566000000E+00 0.  1.
     999900   -1    0    0    0    0 -0.00000000000E+00 -0.00000000000E+00 -0.74505805969E-08  0.93827000000E+00  0.93827000000E+00 0.  1.
     999902    2    1    2    0    0  0.42399533504E-02  0.24110588883E-01 -0.21495733125E-02  0.10193552494E+01  0.10190589807E+01 0.  0.
     999903    2    3    3    0    0 -0.26459043206E-01  0.62740947877E-01 -0.11051571422E+00  0.13133613165E+00  0.19973704703E-01 0.  0.
         14    1    1    2    0    0 -0.42399533504E-02 -0.24110588883E-01  0.21495733125E-02  0.24574750582E-01  0.00000000000E+00 0. -1.
     999901    1    3    3    0    0  0.30698996557E-01 -0.38630358993E-01  0.10836614091E+00  0.88801911777E+00  0.88000000000E+00 0. -1.
        -11    1    4    4    0    0 -0.57016886292E-02  0.11213523632E-02 -0.72752205785E-02  0.93250544134E-02  0.51100000000E-03 0.  1.
         11    1    4    4    0    0 -0.20757354577E-01  0.61619595514E-01 -0.10324049364E+00  0.12201107724E+00  0.51100000000E-03 0. -1.
</event>
<event>
 8    1  0.5489035E+004  0.1043930E+01  0.7957747E-01            NaN
         13   -1    0    0    0    0  0.00000000000E+00  0.00000000000E+00  0.74505805969E-08  0.10566000000E+00  0.10566000000E+00 0.  1.
     999900   -1    0    0    0    0 -0.00000000000E+00 -0.00000000000E+00 -0.74505805969E-08  0.93827000000E+00  0.93827000000E+00 0. -1.
     999902    2    1    2    0    0  0.11965791478E-01 -0.38287085073E-02  0.21264170347E-01  0.10192317386E+01  0.10189324477E+01 0.  0.
     999903    2    3    3    0    0  0.23762987456E-01  0.11156013497E+00  0.61287458978E-01  0.13071858584E+00  0.17912363593E-01 0.  0.
         14    1    1    2    0    0 -0.11965791478E-01  0.38287085073E-02 -0.21264170347E-01  0.24698261378E-01  0.00000000000E+00 0. -1.
     999901    1    3    3    0    0 -0.11797195978E-01 -0.11538884348E+00 -0.40023288631E-01  0.88851315278E+00  0.88000000000E+00 0. -1.
        -11    1    4    4    0    0  0.83455300157E-02  0.65140173335E-01  0.27133313539E-01  0.71058904284E-01  0.51100000000E-03 0.  1.
         11    1    4    4    0    0  0.15417457440E-01  0.46419961633E-01  0.34154145439E-01  0.59659681558E-01  0.51100000000E-03 0. -1.
</event>
<event>
 8    1  0.5489035E+004  0.1043930E+01  0.7957747E-01            NaN
         13   -1    0    0    0    0  0.00000000000E+00  0.00000000000E+00  0.74505805969E-08  0.10566000000E+00  0.10566000000E+00 0.  1.
     999900   -1    0    0    0    0 -0.00000000000E+00 -0.00000000000E+00 -0.74505805969E-08  0.93827000000E+00  0.93827000000E+00 0. -1.
     999902    2    1    2    0    0  0.88323532882E-03  0.20763266736E-01 -0.11652459230E-01  0.10201041074E+01  0.10198258267E+01 0.  0.
     999903    2    3    3    0    0  0.79627880719E-01 -0.14876395570E-01  0.98739753995E-01  0.12900515365E+00  0.18190220336E-01 0.  0.
         14    1    1    2    0    0 -0.88323532882E-03 -0.20763266736E-01  0.11652459230E-01  0.23825892561E-01  0.00000000000E+00 0.  1.
     999901    1    3    3    0    0 -0.78744645390E-01  0.35639662306E-01 -0.11039221322E+00  0.89109895379E+00  0.88000000000E+00 0. -1.
        -11    1    4    4    0    0  0.99906301759E-02 -0.50797023452E-02  0.63379318203E-02  0.12885905788E-01  0.51100000000E-03 0. -1.
         11    1    4    4    0    0  0.69637250543E-01 -0.97966932247E-02  0.92401822174E-01  0.11611924786E+00  0.51100000000E-03 0.  1.
</event>
<event>
 8    1  0.5489035E+004  0.1043930E+01  0.7957747E-01            NaN
         13   -1    0    0    0    0  0.00000000000E+00  0.00000000000E+00  0.74505805969E-08  0.10566000000E+00  0.10566000000E+00 0.  1.
     999900   -1    0    0    0    0 -0.00000000000E+00 -0.00000000000E+00 -0.74505805969E-08  0.93827000000E+00  0.93827000000E+00 0.  1.
     999902    2    1    2    0    0  0.99447100154E-02  0.20949073894E-01 -0.15507112817E-03  0.10207398081E+01  0.10204763450E+01 0.  0.
     999903    2    3    3    0    0 -0.10809509743E+00 -0.23997255256E-01  0.63927163453E-01  0.12941489457E+00  0.20027839680E-01 0.  0.
         14    1    1    2    0    0 -0.99447100154E-02 -0.20949073894E-01  0.15507112817E-03  0.23190191921E-01  0.00000000000E+00 0. -1.
     999901    1    3    3    0    0  0.11803980744E+00  0.44946329149E-01 -0.64082234582E-01  0.89132491350E+00  0.88000000000E+00 0.  1.
        -11    1    4    4    0    0 -0.14411598790E-01 -0.69050884465E-02  0.16687119426E-01  0.23110506309E-01  0.51100000000E-03 0. -1.
         11    1    4    4    0    0 -0.93683498639E-01 -0.17092166809E-01  0.47240044027E-01  0.10630438826E+00  0.51100000000E-03 0.  1.
</event>
<event>
 8    1  0.5489035E+004  0.1043930E+01  0.7957747E-01            NaN
         13   -1    0    0    0    0  0.00000000000E+00  0.00000000000E+00  0.74505805969E-08  0.10566000000E+00  0.10566000000E+00 0. -1.
     999900   -1    0    0    0    0 -0.00000000000E+00 -0.00000000000E+00 -0.74505805969E-08  0.93827000000E+00  0.93827000000E+00 0. -1.
     999902    2    1    2    0    0  0.46937954369E-02  0.21552442767E-01  0.60502817678E-02  0.10210576277E+01  0.10208014174E+01 0.  0.
     999903    2    3    3    0    0  0.10171562184E+00 -0.19064849725E-01  0.79004056684E-01  0.13179655664E+00  0.20473278868E-01 0.  0.
         14    1    1    2    0    0 -0.46937954369E-02 -0.21552442767E-01 -0.60502817678E-02  0.22872372292E-01  0.00000000000E+00 0. -1.
     999901    1    3    3    0    0 -0.97021826402E-01  0.40617292491E-01 -0.72953774916E-01  0.88926107107E+00  0.88000000000E+00 0. -1.
        -11    1    4    4    0    0  0.32291687495E-01  0.31257801901E-02  0.21031701127E-01  0.38666744838E-01  0.51100000000E-03 0.  1.
         11    1    4    4    0    0  0.69423934344E-01 -0.22190629915E-01  0.57972355557E-01  0.93129811798E-01  0.51100000000E-03 0. -1.
</event>
<event>
 8    1  0.5489035E+004  0.1043930E+01  0.7957747E-01            NaN
         13   -1    0    0    0    0  0.00000000000E+00  0.00000000000E+00  0.74505805969E-08  0.10566000000E+00  0.10566000000E+00 0. -1.
     999900   -1    0    0    0    0 -0.00000000000E+00 -0.00000000000E+00 -0.74505805969E-08  0.93827000000E+00  0.93827000000E+00 0.  1.
     999902    2    1    2    0    0 -0.17577721410E-01  0.74026841631E-02 -0.12905306514E-01  0.10209012580E+01  0.10206414922E+01 0.  0.
     999903    2    3    3    0    0  0.91454341580E-01  0.73952442254E-01  0.50178344402E-01  0.12944379513E+00  0.20123855021E-01 0.  0.
         14    1    1    2    0    0  0.17577721410E-01 -0.74026841631E-02  0.12905306514E-01  0.23028742020E-01  0.00000000000E+00 0.  1.
     999901    1    3    3    0    0 -0.10903206299E+00 -0.66549758091E-01 -0.63083650916E-01  0.89145746285E+00  0.88000000000E+00 0.  1.
        -11    1    4    4    0    0  0.68297405232E-01  0.44970517392E-01  0.29258752563E-01  0.86851705329E-01  0.51100000000E-03 0. -1.
         11    1    4    4    0    0  0.23156936348E-01  0.28981924862E-01  0.20919591838E-01  0.42592089799E-01  0.51100000000E-03 0.  1.
</event>
<event>
 8    1  0.5489035E+004  0.1043930E+01  0.7957747E-01            NaN
         13   -1    0    0    0    0  0.00000000000E+00  0.00000000000E+00  0.74505805969E-08  0.10566000000E+00  0.10566000000E+00 0. -1.
     999900   -1    0    0    0    0 -0.00000000000E+00 -0.00000000000E+00 -0.74505805969E-08  0.93827000000E+00  0.93827000000E+00 0.  1.
     999902    2    1    2    0    0 -0.45981462905E-02 -0.22683605740E-01 -0.15350691266E-02  0.10207341953E+01  0.10204706032E+01 0.  0.
     999903    2    3    3    0    0 -0.12521366457E+00 -0.33177882257E-01  0.17991598688E-01  0.13223010198E+00  0.19541457957E-01 0.  0.
         14    1    1    2    0    0  0.45981462905E-02  0.22683605740E-01  0.15350691266E-02  0.23195804705E-01  0.00000000000E+00 0. -1.
     999901    1    3    3    0    0  0.12061551828E+00  0.10494276517E-01 -0.19526667815E-01  0.88850409332E+00  0.88000000000E+00 0.  1.
        -11    1    4    4    0    0 -0.55174811663E-01 -0.24681660442E-01  0.81483126615E-02  0.60992625164E-01  0.51100000000E-03 0.  1.
         11    1    4    4    0    0 -0.70038852907E-01 -0.84962218155E-02  0.98432860265E-02  0.71237476812E-01  0.51100000000E-03 0. -1.
</event>
<event>
 8    1  0.5489035E+004  0.1043930E+01  0.7957747E-01            NaN
         13   -1    0    0    0    0  0.00000000000E+00  0.00000000000E+00  0.74505805969E-08  0.10566000000E+00  0.10566000000E+00 0. -1.
     999900   -1    0    0    0    0 -0.00000000000E+00 -0.00000000000E+00 -0.74505805969E-08  0.93827000000E+00  0.93827000000E+00 0.  1.
     999902    2    1    2    0    0 -0.14679525971E-01 -0.63674260020E-02  0.84194398449E-02  0.10258490829E+01  0.10256897295E+01 0.  0.
     999903    2    3    3    0    0  0.94525148172E-02 -0.88781335891E-01 -0.98169897027E-01  0.13526742201E+00  0.26238733524E-01 0.  0.
         14    1    1    2    0    0  0.14679525971E-01  0.63674260020E-02 -0.84194398449E-02  0.18080917121E-01  0.00000000000E+00 0. -1.
     999901    1    3    3    0    0 -0.24132040788E-01  0.82413909889E-01  0.10658933687E+00  0.89058166087E+00  0.88000000000E+00 0. -1.
        -11    1    4    4    0    0  0.50281411965E-02 -0.74469104165E-01 -0.93351555579E-01  0.11952281677E+00  0.51100000000E-03 0. -1.
         11    1    4    4    0    0  0.44243736207E-02 -0.14312231726E-01 -0.48183414481E-02  0.15744605242E-01  0.51100000000E-03 0.  1.
</event>
<event>
 8    1  0.5489035E+004  0.1043930E+01  0.7957747E-01            NaN
         13   -1    0    0    0    0  0.00000000000E+00  0.00000000000E+00  0.74505805969E-08  0.10566000000E+00  0.10566000000E+00 0.  1.
     999900   -1    0    0    0    0 -0.00000000000E+00 -0.00000000000E+00 -0.74505805969E-08  0.93827000000E+00  0.93827000000E+00 0. -1.
     999902    2    1    2    0    0 -0.10372009360E-01  0.19171793323E-02 -0.21508650531E-01  0.10199742866E+01  0.10196929289E+01 0.  0.
     999903    2    3    3    0    0 -0.11328370227E+00  0.30488312549E-01 -0.58927464982E-01  0.13272725573E+00  0.19528028096E-01 0.  0.
         14    1    1    2    0    0  0.10372009360E-01 -0.19171793323E-02  0.21508650531E-01  0.23955713357E-01  0.00000000000E+00 0.  1.
     999901    1    3    3    0    0  0.10291169291E+00 -0.28571133217E-01  0.37418814451E-01  0.88724703091E+00  0.88000000000E+00 0.  1.
        -11    1    4    4    0    0 -0.76953536859E-01  0.11135979980E-01 -0.37899028672E-01  0.86501181382E-01  0.51100000000E-03 0. -1.
         11    1    4    4    0    0 -0.36330165414E-01  0.19352332569E-01 -0.21028436310E-01  0.46226074347E-01  0.51100000000E-03 0.  1.
</event>
<event>
 8    1  0.5489035E+004  0.1043930E+01  0.7957747E-01            NaN
         13   -1    0    0    0    0  0.00000000000E+00  0.00000000000E+00  0.74505805969E-08  0.10566000000E+00  0.10566000000E+00 0. -1.
     999900   -1    0    0    0    0 -0.00000000000E+00 -0.00000000000E+00 -0.74505805969E-08  0.93827000000E+00  0.93827000000E+00 0. -1.
     999902    2    1    2    0    0 -0.83408280734E-02  0.19199608356E-01  0.12946452831E-01  0.10193168934E+01  0.10190196878E+01 0.  0.
     999903    2    3    3    0    0  0.21835937801E-01 -0.85763399810E-01 -0.86803237028E-01  0.12697286173E+00  0.27479751304E-01 0.  0.
         14    1    1    2    0    0  0.83408280734E-02 -0.19199608356E-01 -0.12946452831E-01  0.24613106567E-01  0.00000000000E+00 0.  1.
     999901    1    3    3    0    0 -0.30176765874E-01  0.10496300817E+00  0.99749689860E-01  0.89234403170E+00  0.88000000000E+00 0.  1.
        -11    1    4    4    0    0  0.50268555558E-02 -0.84396691107E-03 -0.10042263937E-01  0.11273408664E-01  0.51100000000E-03 0. -1.
         11    1    4    4    0    0  0.16809082245E-01 -0.84919432899E-01 -0.76760973092E-01  0.11569945307E+00  0.51100000000E-03 0.  1.
</event>
<event>
 8    1  0.5489035E+004  0.1043930E+01  0.7957747E-01            NaN
         13   -1    0    0    0    0  0.00000000000E+00  0.00000000000E+00  0.74505805969E-08  0.10566000000E+00  0.10566000000E+00 0. -1.
     999900   -1    0    0    0    0 -0.00000000000E+00 -0.00000000000E+00 -0.74505805969E-08  0.93827000000E+00  0.93827000000E+00 0. -1.
     999902    2    1    2    0    0 -0.11043343478E-01  0.78402923671E-02  0.20424188652E-01  0.10194234070E+01  0.10191287993E+01 0.  0.
     999903    2    3    3    0    0 -0.38599855076E-01 -0.12113805440E+00 -0.88399572754E-02  0.12911381728E+00  0.20684678715E-01 0.  0.
         14    1    1    2    0    0  0.11043343478E-01 -0.78402923671E-02 -0.20424188652E-01  0.24506593025E-01  0.00000000000E+00 0.  1.
     999901    1    3    3    0    0  0.27556511598E-01  0.12897834676E+00  0.29264145928E-01  0.89030958969E+00  0.88000000000E+00 0. -1.
        -11    1    4    4    0    0 -0.28389779602E-01 -0.10858962715E+00 -0.43840087205E-02  0.11232616509E+00  0.51100000000E-03 0.  1.
         11    1    4    4    0    0 -0.10210075474E-01 -0.12548427243E-01 -0.44559485549E-02  0.16787652187E-01  0.51100000000E-03 0. -1.
</event>
<event>
 8    1  0.5489035E+004  0.1043930E+01  0.7957747E-01            NaN
         13   -1    0    0    0    0  0.00000000000E+00  0.00000000000E+00  0.74505805969E-08  0.10566000000E+00  0.10566000000E+00 0.  1.
     999900   -1    0    0    0    0 -0.00000000000E+00 -0.00000000000E+00 -0.74505805969E-08  0.93827000000E+00  0.93827000000E+00 0.  1.
     999902    2    1    2    0    0  0.16431982090E-01  0.16713342845E-01 -0.11270402624E-02  0.10204647899E+01  0.10201949673E+01 0.  0.
     999903    2    3    3    0    0 -0.30962417879E-01  0.12133987525E+00  0.36205346688E-01  0.13221558640E+00  0.22092928977E-01 0.  0.
         14    1    1    2    0    0 -0.16431982090E-01 -0.16713342845E-01  0.11270402624E-02  0.23465210083E-01  0.00000000000E+00 0. -1.
     999901    1    3    3    0    0  0.47394399969E-01 -0.10462653241E+00 -0.37332386950E-01  0.88824920352E+00  0.88000000000E+00 0.  1.
        -11    1    4    4    0    0 -0.18199146696E-01  0.98693821923E-01  0.34637480774E-01  0.10616824206E+00  0.51100000000E-03 0. -1.
         11    1    4    4    0    0 -0.12763271184E-01  0.22646053331E-01  0.15678659136E-02  0.26047344343E-01  0.51100000000E-03 0.  1.
</event>
<event>
 8    1  0.5489035E+004  0.1043930E+01  0.7957747E-01            NaN
         13   -1    0    0    0    0  0.00000000000E+00  0.00000000000E+00  0.74505805969E-08  0.10566000000E+00  0.10566000000E+00 0.  1.
     999900   -1    0    0    0    0 -0.00000000000E+00 -0.00000000000E+00 -0.74505805969E-08  0.93827000000E+00  0.93827000000E+00 0.  1.
     999902    2    1    2    0    0  0.77060600280E-02  0.19225618868E-01  0.15891889522E-01  0.10178232971E+01  0.10174884295E+01 0.  0.
     999903    2    3    3    0    0  0.34154898620E-02  0.12546478883E+00 -0.28287894331E-01  0.13032286134E+00  0.20754864897E-01 0.  0.
         14    1    1    2    0    0 -0.77060600280E-02 -0.19225618868E-01 -0.15891889522E-01  0.26106702867E-01  0.00000000000E+00 0. -1.
     999901    1    3    3    0    0  0.42905701660E-02 -0.10623916996E+00  0.44179783853E-01  0.88750043579E+00  0.88000000000E+00 0. -1.
        -11    1    4    4    0    0  0.14430321870E-02  0.30873883815E-01  0.20103857566E-02  0.30977117613E-01  0.51100000000E-03 0. -1.
         11    1    4    4    0    0  0.19724576750E-02  0.94590905010E-01 -0.30298280088E-01  0.99345743730E-01  0.51100000000E-03 0.  1.
</event>
<event>
 8    1  0.5489035E+004  0.1043930E+01  0.7957747E-01            NaN
         13   -1    0    0    0    0  0.00000000000E+00  0.00000000000E+00  0.74505805969E-08  0.10566000000E+00  0.10566000000E+00 0. -1.
     999900   -1    0    0    0    0 -0.00000000000E+00 -0.00000000000E+00 -0.74505805969E-08  0.93827000000E+00  0.93827000000E+00 0.  1.
     999902    2    1    2    0    0 -0.40359532017E-02  0.11136338537E-01  0.20359459049E-01  0.10203754988E+01  0.10201035947E+01 0.  0.
     999903    2    3    3    0    0 -0.60098982850E-01  0.16173876040E-01  0.11631935105E+00  0.13337113525E+00  0.19600670440E-01 0.  0.
         14    1    1    2    0    0  0.40359532017E-02 -0.11136338537E-01 -0.20359459049E-01  0.23554501205E-01  0.00000000000E+00 0.  1.
     999901    1    3    3    0    0  0.56063029649E-01 -0.50375375030E-02 -0.95959892006E-01  0.88700436355E+00  0.88000000000E+00 0.  1.
        -11    1    4    4    0    0 -0.30447088758E-01 -0.10921356358E-02  0.62677146055E-01  0.69691489672E-01  0.51100000000E-03 0.  1.
         11    1    4    4    0    0 -0.29651894092E-01  0.17266011676E-01  0.53642205000E-01  0.63679645576E-01  0.51100000000E-03 0. -1.
</event>
<event>
 8    1  0.5489035E+004  0.1043930E+01  0.7957747E-01            NaN
         13   -1    0    0    0    0  0.00000000000E+00  0.00000000000E+00  0.74505805969E-08  0.10566000000E+00  0.10566000000E+00 0.  1.
     999900   -1    0    0    0    0 -0.00000000000E+00 -0.00000000000E+00 -0.74505805969E-08  0.93827000000E+00  0.93827000000E+00 0.  1.
     999902    2    1    2    0    0 -0.14647210148E-01 -0.17280921498E-01  0.60784502547E-02  0.10204753934E+01  0.10202058175E+01 0.  0.
     999903    2    3    3    0    0  0.12114650142E+00 -0.28002017682E-01 -0.29253967091E-01  0.12929457353E+00  0.20017601101E-01 0.  0.
         14    1    1    2    0    0  0.14647210148E-01  0.17280921498E-01 -0.60784502547E-02  0.23454606593E-01  0.00000000000E+00 0. -1.
     999901    1    3    3    0    0 -0.13579371156E+00  0.10721096184E-01  0.35332417345E-01  0.89118081988E+00  0.88000000000E+00 0. -1.
        -11    1    4    4    0    0  0.68898425534E-01 -0.23008730452E-01 -0.97157712038E-02  0.73287461746E-01  0.51100000000E-03 0. -1.
         11    1    4    4    0    0  0.52248075881E-01 -0.49932872298E-02 -0.19538195887E-01  0.56007111782E-01  0.51100000000E-03 0.  1.
</event>
<event>
 8    1  0.5489035E+004  0.1043930E+01  0.7957747E-01            NaN
         13   -1    0    0    0    0  0.00000000000E+00  0.00000000000E+00  0.74505805969E-08  0.10566000000E+00  0.10566000000E+00 0. -1.
     999900   -1    0    0    0    0 -0.00000000000E+00 -0.00000000000E+00 -0.74505805969E-08  0.93827000000E+00  0.93827000000E+00 0.  1.
     999902    2    1    2    0    0 -0.12332908203E-01  0.90462096345E-03  0.21775087043E-01  0.10188885667E+01  0.10185807960E+01 0.  0.
     999903    2    3    3    0    0  0.86081061442E-01 -0.12563307033E-01 -0.89369738948E-01  0.12635292776E+00  0.20256512338E-01 0.  0.
         14    1    1    2    0    0  0.12332908203E-01 -0.90462096345E-03 -0.21775087043E-01  0.25041433256E-01  0.00000000000E+00 0.  1.
     999901    1    3    3    0    0 -0.98413969644E-01  0.13467927997E-01  0.11114482599E+00  0.89253563898E+00  0.88000000000E+00 0.  1.
        -11    1    4    4    0    0  0.35275302073E-01 -0.11252493373E-01 -0.26638219866E-01  0.45616021550E-01  0.51100000000E-03 0. -1.
         11    1    4    4    0    0  0.50805759369E-01 -0.13108136601E-02 -0.62731519082E-01  0.80736906213E-01  0.51100000000E-03 0.  1.
</event>
<event>
 8    1  0.5489035E+004  0.1043930E+01  0.7957747E-01            NaN
         13   -1    0    0    0    0  0.00000000000E+00  0.00000000000E+00  0.74505805969E-08  0.10566000000E+00  0.10566000000E+00 0. -1.
     999900   -1    0    0    0    0 -0.00000000000E+00 -0.00000000000E+00 -0.74505805969E-08  0.93827000000E+00  0.93827000000E+00 0. -1.
     999902    2    1    2    0    0 -0.91090429515E-02  0.70157052756E-02 -0.20714281350E-01  0.10202387308E+01  0.10199636227E+01 0.  0.
     999903    2    3    3    0    0  0.12154036236E+00  0.36849898839E-01 -0.19804019311E-01  0.13009257720E+00  0.20047561794E-01 0.  0.
         14    1    1    2    0    0  0.91090429515E-02 -0.70157052756E-02  0.20714281350E-01  0.23691269190E-01  0.00000000000E+00 0. -1.
     999901    1    3    3    0    0 -0.13064940531E+00 -0.29834193563E-01 -0.91026203875E-03  0.89014615361E+00  0.88000000000E+00 0.  1.
        -11    1    4    4    0    0  0.43950264548E-01  0.42081232366E-02 -0.30196307427E-02  0.44257353579E-01  0.51100000000E-03 0.  1.
         11    1    4    4    0    0  0.77590097813E-01  0.32641775602E-01 -0.16784388568E-01  0.85835223618E-01  0.51100000000E-03 0. -1.
</event>
<event>
 8    1  0.5489035E+004  0.1043930E+01  0.7957747E-01            NaN
         13   -1    0    0    0    0  0.00000000000E+00  0.00000000000E+00  0.74505805969E-08  0.10566000000E+00  0.10566000000E+00 0. -1.
     999900   -1    0    0    0    0 -0.00000000000E+00 -0.00000000000E+00 -0.74505805969E-08  0.93827000000E+00  0.93827000000E+00 0.  1.
     999902    2    1    2    0    0 -0.48853200908E-03  0.38762534232E-02  0.21626478760E-01  0.10219534537E+01  0.10217171296E+01 0.  0.
     999903    2    3    3    0    0  0.55260660140E-01  0.10052664539E+00 -0.60168903090E-01  0.13114496968E+00  0.20478261167E-01 0.  0.
         14    1    1    2    0    0  0.48853200908E-03 -0.38762534232E-02 -0.21626478760E-01  0.21976546309E-01  0.00000000000E+00 0.  1.
     999901    1    3    3    0    0 -0.55749192149E-01 -0.96650391970E-01  0.81795381850E-01  0.89080848401E+00  0.88000000000E+00 0. -1.
        -11    1    4    4    0    0  0.14142090677E-01  0.11869157558E-01 -0.13282229406E-01  0.22749821293E-01  0.51100000000E-03 0. -1.
         11    1    4    4    0    0  0.41118569462E-01  0.88657487835E-01 -0.46886673684E-01  0.10839514839E+00  0.51100000000E-03 0.  1.
</event>
<event>
 8    1  0.5489035E+004  0.1043930E+01  0.7957747E-01            NaN
         13   -1    0    0    0    0  0.00000000000E+00  0.00000000000E+00  0.74505805969E-08  0.10566000000E+00  0.10566000000E+00 0.  1.
     999900   -1    0    0    0    0 -0.00000000000E+00 -0.00000000000E+00 -0.74505805969E-08  0.93827000000E+00  0.93827000000E+00 0.  1.
     999902    2    1    2    0    0 -0.76866430705E-02 -0.19404081133E-01  0.12928389615E-01  0.10193791119E+01  0.10190834253E+01 0.  0.
     999903    2    3    3    0    0 -0.43520696942E-01  0.15216518460E-01 -0.11794232128E+00  0.12830683188E+00  0.20655712579E-01 0.  0.
         14    1    1    2    0    0  0.76866430705E-02  0.19404081133E-01 -0.12928389615E-01  0.24550888057E-01  0.00000000000E+00 0.  1.
     999901    1    3    3    0    0  0.35834053871E-01 -0.34620599593E-01  0.13087071089E+00  0.89107228007E+00  0.88000000000E+00 0. -1.
        -11    1    4    4    0    0 -0.11226883570E-01  0.14322422849E-01 -0.41712932965E-01  0.45512686237E-01  0.51100000000E-03 0.  1.
         11    1    4    4    0    0 -0.32293813372E-01  0.89409561034E-03 -0.76229388311E-01  0.82794145640E-01  0.51100000000E-03 0. -1.
</event>
<event>
 8    1  0.5489035E+004  0.1043930E+01  0.7957747E-01            NaN
         13   -1    0    0    0    0  0.00000000000E+00  0.00000000000E+00  0.74505805969E-08  0.10566000000E+00  0.10566000000E+00 0. -1.
     999900   -1    0    0    0    0 -0.00000000000E+00 -0.00000000000E+00 -0.74505805969E-08  0.93827000000E+00  0.93827000000E+00 0.  1.
     999902    2    1    2    0    0  0.52687526966E-02 -0.20933915239E-01  0.11185877303E-01  0.10196171965E+01  0.10193272855E+01 0.  0.
     999903    2    3    3    0    0  0.54500293080E-01  0.52896160899E-01  0.10397229607E+00  0.13030063633E+00  0.19993291233E-01 0.  0.
         14    1    1    2    0    0 -0.52687526966E-02  0.20933915239E-01 -0.11185877303E-01  0.24312803484E-01  0.00000000000E+00 0.  1.
     999901    1    3    3    0    0 -0.49231540383E-01 -0.73830076138E-01 -0.92786418769E-01  0.88931656018E+00  0.88000000000E+00 0.  1.
        -11    1    4    4    0    0 -0.82775234435E-03  0.51908426214E-02  0.95790149601E-02  0.10938403433E-01  0.51100000000E-03 0. -1.
         11    1    4    4    0    0  0.55328045424E-01  0.47705318277E-01  0.94393281112E-01  0.11936223290E+00  0.51100000000E-03 0.  1.
</event>
<event>
 8    1  0.5489035E+004  0.1043930E+01  0.7957747E-01            NaN
         13   -1    0    0    0    0  0.00000000000E+00  0.00000000000E+00  0.74505805969E-08  0.10566000000E+00  0.10566000000E+00 0. -1.
     999900   -1    0    0    0    0 -0.00000000000E+00 -0.00000000000E+00 -0.74505805969E-08  0.93827000000E+00  0.93827000000E+00 0. -1.
     999902    2    1    2    0    0 -0.84591418572E-02 -0.19872147619E-01 -0.89799314508E-02  0.10205398632E+01  0.10202717843E+01 0.  0.
     999903    2    3    3    0    0 -0.68835646830E-01  0.97479315794E-01  0.40318391994E-01  0.12933449233E+00  0.29347485273E-01 0.  0.
         14    1    1    2    0    0  0.84591418572E-02  0.19872147619E-01  0.89799314508E-02  0.23390136828E-01  0.00000000000E+00 0.  1.
     999901    1    3    3    0    0  0.60376504973E-01 -0.11735146341E+00 -0.49298323445E-01  0.89120537084E+00  0.88000000000E+00 0. -1.
        -11    1    4    4    0    0 -0.38327632435E-01  0.74615798754E-01  0.20458405331E-01  0.86344266176E-01  0.51100000000E-03 0. -1.
         11    1    4    4    0    0 -0.30508014395E-01  0.22863517040E-01  0.19859986663E-01  0.42990226157E-01  0.51100000000E-03 0.  1.
</event>
<event>
 8    1  0.5489035E+004  0.1043930E+01  0.7957747E-01            NaN
         13   -1    0    0    0    0  0.00000000000E+00  0.00000000000E+00  0.74505805969E-08  0.10566000000E+00  0.10566000000E+00 0. -1.
     999900   -1    0    0    0    0 -0.00000000000E+00 -0.00000000000E+00 -0.74505805969E-08  0.93827000000E+00  0.93827000000E+00 0. -1.
     999902    2    1    2    0    0 -0.16780958879E-01  0.61741282264E-02  0.16544504067E-01  0.10195693544E+01  0.10192782875E+01 0.  0.
     999903    2    3    3    0    0  0.30201966806E-01 -0.12207061177E+00  0.20052363000E-01  0.12902659083E+00  0.20793528375E-01 0.  0.
         14    1    1    2    0    0  0.16780958879E-01 -0.61741282264E-02 -0.16544504067E-01  0.24360645621E-01  0.00000000000E+00 0.  1.
     999901    1    3    3    0    0 -0.46982925685E-01  0.12824473999E+00 -0.35078589330E-02  0.89054276355E+00  0.88000000000E+00 0.  1.
        -11    1    4    4    0    0 -0.24647105248E-02 -0.74416980757E-02 -0.12181944368E-02  0.79497664687E-02  0.51100000000E-03 0.  1.
         11    1    4    4    0    0  0.32666677331E-01 -0.11462891369E+00  0.21270557437E-01  0.12107682436E+00  0.51100000000E-03 0. -1.
</event>
<event>
 8    1  0.5489035E+004  0.1043930E+01  0.7957747E-01            NaN
         13   -1    0    0    0    0  0.00000000000E+00  0.00000000000E+00  0.74505805969E-08  0.10566000000E+00  0.10566000000E+00 0. -1.
     999900   -1    0    0    0    0 -0.00000000000E+00 -0.00000000000E+00 -0.74505805969E-08  0.93827000000E+00  0.93827000000E+00 0. -1.
     999902    2    1    2    0    0 -0.20706266603E-01  0.76710049167E-02  0.85056531357E-02  0.10202669501E+01  0.10199925047E+01 0.  0.
     999903    2    3    3    0    0 -0.10403720396E+00 -0.63104115842E-01  0.48517173485E-01  0.13259917187E+00  0.20561007105E-01 0.  0.
         14    1    1    2    0    0  0.20706266603E-01 -0.76710049167E-02 -0.85056531357E-02  0.23663049853E-01  0.00000000000E+00 0.  1.
     999901    1    3    3    0    0  0.83330937353E-01  0.70775120758E-01 -0.40011520349E-01  0.88766777828E+00  0.88000000000E+00 0. -1.
        -11    1    4    4    0    0 -0.40523378630E-01 -0.32929701067E-01  0.28484993080E-01  0.59482479603E-01  0.51100000000E-03 0.  1.
         11    1    4    4    0    0 -0.63513825327E-01 -0.30174414774E-01  0.20032180405E-01  0.73116692262E-01  0.51100000000E-03 0. -1.
</event>
<event>
 8    1  0.5489035E+004  0.1043930E+01  0.7957747E-01            NaN
         13   -1    0    0    0    0  0.00000000000E+00  0.00000000000E+00  0.74505805969E-08  0.10566000000E+00  0.10566000000E+00 0.  1.
     999900   -1    0    0    0    0 -0.00000000000E+00 -0.00000000000E+00 -0.74505805969E-08  0.93827000000E+00  0.93827000000E+00 0.  1.
     999902    2    1    2    0    0 -0.98576992134E-02  0.93441216482E-02  0.18695475896E-01  0.10208213942E+01  0.10205598028E+01 0.  0.
     999903    2    3    3    0    0  0.67992490233E-01 -0.65031066120E-02 -0.10673665372E+00  0.12838371806E+00  0.20600890576E-01 0.  0.
         14    1    1    2    0    0  0.98576992134E-02 -0.93441216482E-02 -0.18695475896E-01  0.23108605803E-01  0.00000000000E+00 0. -1.
     999901    1    3    3    0    0 -0.77850189446E-01  0.15847228260E-01  0.12543212962E+00  0.89243767613E+00  0.88000000000E+00 0. -1.
        -11    1    4    4    0    0  0.38390609615E-01  0.65746026398E-02 -0.59917627543E-01  0.71466408318E-01  0.51100000000E-03 0. -1.
         11    1    4    4    0    0  0.29601880618E-01 -0.13077709252E-01 -0.46819026179E-01  0.56917309746E-01  0.51100000000E-03 0.  1.
</event>
<event>
 8    1  0.5489035E+004  0.1043930E+01  0.7957747E-01            NaN
         13   -1    0    0    0    0  0.00000000000E+00  0.00000000000E+00  0.74505805969E-08  0.10566000000E+00  0.10566000000E+00 0.  1.
     999900   -1    0    0    0    0 -0.00000000000E+00 -0.00000000000E+00 -0.74505805969E-08  0.93827000000E+00  0.93827000000E+00 0. -1.
     999902    2    1    2    0    0  0.22148516668E-01 -0.40673572759E-02  0.11712116943E-01  0.10185474495E+01  0.10182311295E+01 0.  0.
     999903    2    3    3    0    0  0.11281268830E+00 -0.47147755916E-01  0.46034991092E-01  0.13217621101E+00  0.20042874595E-01 0.  0.
         14    1    1    2    0    0 -0.22148516668E-01  0.40673572759E-02 -0.11712116943E-01  0.25382550485E-01  0.00000000000E+00 0. -1.
     999901    1    3    3    0    0 -0.90664171631E-01  0.43080398640E-01 -0.34322874149E-01  0.88637123851E+00  0.88000000000E+00 0. -1.
        -11    1    4    4    0    0  0.54110652333E-01 -0.33273024957E-01  0.25575257746E-01  0.68479280191E-01  0.51100000000E-03 0. -1.
         11    1    4    4    0    0  0.58702035967E-01 -0.13874730959E-01  0.20459733346E-01  0.63696930816E-01  0.51100000000E-03 0.  1.
</event>
<event>
 8    1  0.5489035E+004  0.1043930E+01  0.7957747E-01            NaN
         13   -1    0    0    0    0  0.00000000000E+00  0.00000000000E+00  0.74505805969E-08  0.10566000000E+00  0.10566000000E+00 0.  1.
     999900   -1    0    0    0    0 -0.00000000000E+00 -0.00000000000E+00 -0.74505805969E-08  0.93827000000E+00  0.93827000000E+00 0. -1.
     999902    2    1    2    0    0 -0.20808935096E-01 -0.52647756955E-02 -0.10805534032E-01  0.10198989948E+01  0.10196158446E+01 0.  0.
     999903    2    3    3    0    0 -0.96696614193E-01  0.61870327185E-01  0.60228486549E-01  0.13124164021E+00  0.20462769839E-01 0.  0.
         14    1    1    2    0    0  0.20808935096E-01  0.52647756955E-02  0.10805534032E-01  0.24031005153E-01  0.00000000000E+00 0.  1.
     999901    1    3    3    0    0  0.75887679097E-01 -0.67135102881E-01 -0.71034020581E-01  0.88865735464E+00  0.88000000000E+00 0. -1.
        -11    1    4    4    0    0 -0.63940556287E-01  0.47571896231E-01  0.32787552303E-01  0.86178679245E-01  0.51100000000E-03 0.  1.
         11    1    4    4    0    0 -0.32756057906E-01  0.14298430954E-01  0.27440934246E-01  0.45062960961E-01  0.51100000000E-03 0. -1.
</event>
<event>
 8    1  0.5489035E+004  0.1043930E+01  0.7957747E-01            NaN
         13   -1    0    0    0    0  0.00000000000E+00  0.00000000000E+00  0.74505805969E-08  0.10566000000E+00  0.10566000000E+00 0. -1.
     999900   -1    0    0    0    0 -0.00000000000E+00 -0.00000000000E+00 -0.74505805969E-08  0.93827000000E+00  0.93827000000E+00 0. -1.
     999902    2    1    2    0    0 -0.30199441360E-02 -0.18333940346E-01  0.11668774691E-01  0.10219888575E+01  0.10217533025E+01 0.  0.
     999903    2    3    3    0    0 -0.84022942003E-01  0.34438472169E-01  0.94732865246E-01  0.13280605497E+00  0.20427171383E-01 0.  0.
         14    1    1    2    0    0  0.30199441360E-02  0.18333940346E-01 -0.11668774691E-01  0.21941142495E-01  0.00000000000E+00 0.  1.
     999901    1    3    3    0    0  0.81002997867E-01 -0.52772412515E-01 -0.83064090555E-01  0.88918280254E+00  0.88000000000E+00 0. -1.
        -11    1    4    4    0    0 -0.20576402061E-01 -0.59854843861E-03  0.20405966331E-01  0.28989845893E-01  0.51100000000E-03 0.  1.
         11    1    4    4    0    0 -0.63446539941E-01  0.35037020607E-01  0.74326898915E-01  0.10381620908E+00  0.51100000000E-03 0. -1.
</event>
<event>
 8    1  0.5489035E+004  0.1043930E+01  0.7957747E-01            NaN
         13   -1    0    0    0    0  0.00000000000E+00  0.00000000000E+00  0.74505805969E-08  0.10566000000E+00  0.10566000000E+00 0.  1.
     999900   -1    0    0    0    0 -0.00000000000E+00 -0.00000000000E+00 -0.74505805969E-08  0.93827000000E+00  0.93827000000E+00 0. -1.
     999902    2    1    2    0    0  0.14094202409E-01 -0.16407119454E-01  0.10848052103E-01  0.10197324723E+01  0.10194453368E+01 0.  0.
     999903    2    3    3    0    0 -0.35336985305E-01 -0.43414211001E-01 -0.11483874031E+00  0.12901927771E+00  0.18015035292E-01 0.  0.
         14    1    1    2    0    0 -0.14094202409E-01  0.16407119454E-01 -0.10848052103E-01  0.24197527658E-01  0.00000000000E+00 0.  1.
     999901    1    3    3    0    0  0.49431187714E-01  0.27007091547E-01  0.12568679241E+00  0.89071319464E+00  0.88000000000E+00 0.  1.
        -11    1    4    4    0    0 -0.17978918215E-01 -0.13593293631E-01 -0.30786084938E-01  0.38158397224E-01  0.51100000000E-03 0.  1.
         11    1    4    4    0    0 -0.17358067090E-01 -0.29820917371E-01 -0.84052655371E-01  0.90860880482E-01  0.51100000000E-03 0. -1.
</event>
<event>
 8    1  0.5489035E+004  0.1043930E+01  0.7957747E-01            NaN
         13   -1    0    0    0    0  0.00000000000E+00  0.00000000000E+00  0.74505805969E-08  0.10566000000E+00  0.10566000000E+00 0.  1.
     999900   -1    0    0    0    0 -0.00000000000E+00 -0.00000000000E+00 -0.74505805969E-08  0.93827000000E+00  0.93827000000E+00 0. -1.
     999902    2    1    2    0    0  0.13868263581E-01 -0.19254287346E-01  0.35769262902E-02  0.10199331103E+01  0.10196507729E+01 0.  0.
     999903    2    3    3    0    0 -0.32300846020E-01 -0.89859011796E-01 -0.87656663707E-01  0.13120357786E+00  0.20315055920E-01 0.  0.
         14    1    1    2    0    0 -0.13868263581E-01  0.19254287346E-01 -0.35769262902E-02  0.23996889749E-01  0.00000000000E+00 0. -1.
     999901    1    3    3    0    0  0.46169109601E-01  0.70604724449E-01  0.91233589997E-01  0.88872953239E+00  0.88000000000E+00 0. -1.
        -11    1    4    4    0    0 -0.10289173309E-01 -0.35944890401E-01 -0.21766443719E-01  0.43265938410E-01  0.51100000000E-03 0.  1.
         11    1    4    4    0    0 -0.22011672711E-01 -0.53914121394E-01 -0.65890219988E-01  0.87937639452E-01  0.51100000000E-03 0. -1.
</event>
<event>
 8    1  0.5489035E+004  0.1043930E+01  0.7957747E-01            NaN
         13   -1    0    0    0    0  0.00000000000E+00  0.00000000000E+00  0.74505805969E-08  0.10566000000E+00  0.10566000000E+00 0.  1.
     999900   -1    0    0    0    0 -0.00000000000E+00 -0.00000000000E+00 -0.74505805969E-08  0.93827000000E+00  0.93827000000E+00 0.  1.
     999902    2    1    2    0    0 -0.15374825037E-01  0.50901787019E-02 -0.17994359470E-01  0.10197206601E+01  0.10194332409E+01 0.  0.
     999903    2    3    3    0    0  0.29163072039E-01 -0.10125599563E+00 -0.72601810132E-01  0.13052152229E+00  0.25721266001E-01 0.  0.
         14    1    1    2    0    0  0.15374825037E-01 -0.50901787019E-02  0.17994359470E-01  0.24209339868E-01  0.00000000000E+00 0.  1.
     999901    1    3    3    0    0 -0.44537897076E-01  0.10634617433E+00  0.54607450662E-01  0.88919913784E+00  0.88000000000E+00 0. -1.
        -11    1    4    4    0    0  0.15178492521E-01 -0.71778076441E-01 -0.36795720317E-01  0.82077189568E-01  0.51100000000E-03 0.  1.
         11    1    4    4    0    0  0.13984579518E-01 -0.29477919189E-01 -0.35806089815E-01  0.48444332722E-01  0.51100000000E-03 0. -1.
</event>
<event>
 8    1  0.5489035E+004  0.1043930E+01  0.7957747E-01            NaN
         13   -1    0    0    0    0  0.00000000000E+00  0.00000000000E+00  0.74505805969E-08  0.10566000000E+00  0.10566000000E+00 0. -1.
     999900   -1    0    0    0    0 -0.00000000000E+00 -0.00000000000E+00 -0.74505805969E-08  0.93827000000E+00  0.93827000000E+00 0.  1.
     999902    2    1    2    0    0  0.13694217610E-01  0.99596552432E-03 -0.19720550747E-01  0.10199003586E+01  0.10196172409E+01 0.  0.
     999903    2    3    3    0    0 -0.10924670824E-01 -0.43597454243E-01  0.11797152130E+00  0.12773794657E+00  0.19483754976E-01 0.  0.
         14    1    1    2    0    0 -0.13694217610E-01 -0.99596552432E-03  0.19720550747E-01  0.24029641384E-01  0.00000000000E+00 0. -1.
     999901    1    3    3    0    0  0.24618888435E-01  0.44593419767E-01 -0.13769207205E+00  0.89216241204E+00  0.88000000000E+00 0. -1.
        -11    1    4    4    0    0 -0.65417675483E-02 -0.29243326572E-01  0.99590855109E-01  0.10400272311E+00  0.51100000000E-03 0. -1.
         11    1    4    4    0    0 -0.43829032759E-02 -0.14354127671E-01  0.18380666192E-01  0.23735223466E-01  0.51100000000E-03 0.  1.
</event>
<event>
 8    1  0.5489035E+004  0.1043930E+01  0.7957747E-01            NaN
         13   -1    0    0    0    0  0.00000000000E+00  0.00000000000E+00  0.74505805969E-08  0.10566000000E+00  0.10566000000E+00 0. -1.
     999900   -1    0    0    0    0 -0.00000000000E+00 -0.00000000000E+00 -0.74505805969E-08  0.93827000000E+00  0.93827000000E+00 0.  1.
     999902    2    1    2    0    0  0.22685332442E-01  0.27157819204E-02  0.71440718301E-02  0.10199917974E+01  0.10197108557E+01 0.  0.
     999903    2    3    3    0    0 -0.87618923428E-01 -0.65882989626E-01 -0.62526104142E-01  0.12773244404E+00  0.19708361051E-01 0.  0.
         14    1    1    2    0    0 -0.22685332442E-01 -0.27157819204E-02 -0.71440718301E-02  0.23938202559E-01  0.00000000000E+00 0. -1.
     999901    1    3    3    0    0  0.11030425587E+00  0.68598771547E-01  0.69670175972E-01  0.89225935341E+00  0.88000000000E+00 0.  1.
        -11    1    4    4    0    0 -0.17109541747E-01 -0.40267599071E-02 -0.99751180060E-02  0.20216708792E-01  0.51100000000E-03 0. -1.
         11    1    4    4    0    0 -0.70509381681E-01 -0.61856229719E-01 -0.52550986136E-01  0.10751573524E+00  0.51100000000E-03 0.  1.
</event>
<event>
 8    1  0.5489035E+004  0.1043930E+01  0.7957747E-01            NaN
         13   -1    0    0    0    0  0.00000000000E+00  0.00000000000E+00  0.74505805969E-08  0.10566000000E+00  0.10566000000E+00 0. -1.
     999900   -1    0    0    0    0 -0.00000000000E+00 -0.00000000000E+00 -0.74505805969E-08  0.93827000000E+00  0.93827000000E+00 0.  1.
     999902    2    1    2    0    0  0.81227024253E-04 -0.21411655445E-01  0.42835087266E-02  0.10220939282E+01  0.10218606480E+01 0.  0.
     999903    2    3    3    0    0 -0.84293642545E-01  0.11034862398E-01  0.10048827657E+00  0.13224717028E+00  0.12815379771E-01 0.  0.
         14    1    1    2    0    0 -0.81227024253E-04  0.21411655445E-01 -0.42835087266E-02  0.21836071847E-01  0.00000000000E+00 0. -1.
     999901    1    3    3    0    0  0.84374869570E-01 -0.32446517842E-01 -0.96204767841E-01  0.88984675787E+00  0.88000000000E+00 0.  1.
        -11    1    4    4    0    0 -0.11844064890E-01  0.25771239697E-02  0.21814500706E-01  0.24961109813E-01  0.51100000000E-03 0. -1.
         11    1    4    4    0    0 -0.72449577656E-01  0.84577384279E-02  0.78673775862E-01  0.10728606047E+00  0.51100000000E-03 0.  1.
</event>
<event>
 8    1  0.5489035E+004  0.1043930E+01  0.7957747E-01            NaN
         13   -1    0    0    0    0  0.00000000000E+00  0.00000000000E+00  0.74505805969E-08  0.10566000000E+00  0.10566000000E+00 0.  1.
     999900   -1    0    0    0    0 -0.00000000000E+00 -0.00000000000E+00 -0.74505805969E-08  0.93827000000E+00  0.93827000000E+00 0.  1.
     999902    2    1    2    0    0  0.10283908863E-01  0.22500824326E-01  0.23856719353E-03  0.10191892888E+01  0.10188889555E+01 0.  0.
     999903    2    3    3    0    0  0.13490622571E-01 -0.83902635407E-01  0.93422876914E-01  0.12788951047E+00  0.20155491357E-01 0.  0.
         14    1    1    2    0    0 -0.10283908863E-01 -0.22500824326E-01 -0.23856719353E-03  0.24740711209E-01  0.00000000000E+00 0. -1.
     999901    1    3    3    0    0 -0.32067137086E-02  0.10640345973E+00 -0.93184309720E-01  0.89129977832E+00  0.88000000000E+00 0.  1.
        -11    1    4    4    0    0  0.99830593866E-02 -0.25872482818E-01  0.41650301895E-01  0.50040539673E-01  0.51100000000E-03 0. -1.
         11    1    4    4    0    0  0.35075631846E-02 -0.58030152589E-01  0.51772575019E-01  0.77848970797E-01  0.51100000000E-03 0.  1.
</event>
<event>
 8    1  0.5489035E+004  0.1043930E+01  0.7957747E-01            NaN
         13   -1    0    0    0    0  0.00000000000E+00  0.00000000000E+00  0.74505805969E-08  0.10566000000E+00  0.10566000000E+00 0. -1.
     999900   -1    0    0    0    0 -0.00000000000E+00 -0.00000000000E+00 -0.74505805969E-08  0.93827000000E+00  0.93827000000E+00 0.  1.
     999902    2    1    2    0    0  0.13239942754E-01  0.96383955065E-02 -0.17156303172E-01  0.10202122115E+01  0.10199364799E+01 0.  0.
     999903    2    3    3    0    0 -0.28476272252E-01 -0.84489645383E-01  0.89428973311E-01  0.12782174102E+00  0.19785296319E-01 0.  0.
         14    1    1    2    0    0 -0.13239942754E-01 -0.96383955065E-02  0.17156303172E-01  0.23717788484E-01  0.00000000000E+00 0. -1.
     999901    1    3    3    0    0  0.41716215006E-01  0.94128040890E-01 -0.10658527648E+00  0.89239047050E+00  0.88000000000E+00 0. -1.
        -11    1    4    4    0    0 -0.69270228681E-02 -0.21940466787E-01  0.11923125508E-01  0.25918907607E-01  0.51100000000E-03 0.  1.
         11    1    4    4    0    0 -0.21549249384E-01 -0.62549178596E-01  0.77505847803E-01  0.10190283341E+00  0.51100000000E-03 0. -1.
</event>
<event>
 8    1  0.5489035E+004  0.1043930E+01  0.7957747E-01            NaN
         13   -1    0    0    0    0  0.00000000000E+00  0.00000000000E+00  0.74505805969E-08  0.10566000000E+00  0.10566000000E+00 0.  1.
     999900   -1    0    0    0    0 -0.00000000000E+00 -0.00000000000E+00 -0.74505805969E-08  0.93827000000E+00  0.93827000000E+00 0.  1.
     999902    2    1    2    0    0 -0.91111407225E-02 -0.80436115709E-02 -0.18957638434E-01  0.10214110163E+01  0.10211627488E+01 0.  0.
     999903    2    3    3    0    0  0.12305272948E-01  0.11503867899E+00 -0.59505043379E-01  0.13166273443E+00  0.20221474787E-01 0.  0.
         14    1    1    2    0    0  0.91111407225E-02  0.80436115709E-02  0.18957638434E-01  0.22518983711E-01  0.00000000000E+00 0. -1.
     999901    1    3    3    0    0 -0.21416413671E-01 -0.12308229057E+00  0.40547404944E-01  0.88974828186E+00  0.88000000000E+00 0. -1.
        -11    1    4    4    0    0  0.14733657247E-01  0.10099321343E+00 -0.57811972238E-01  0.11729959535E+00  0.51100000000E-03 0.  1.
         11    1    4    4    0    0 -0.24283842985E-02  0.14045465568E-01 -0.16930711411E-02  0.14363139080E-01  0.51100000000E-03 0. -1.
</event>
<event>
 8    1  0.5489035E+004  0.1043930E+01  0.7957747E-01            NaN
         13   -1    0    0    0    0  0.00000000000E+00  0.00000000000E+00  0.74505805969E-08  0.10566000000E+00  0.10566000000E+00 0.  1.
     999900   -1    0    0    0    0 -0.00000000000E+00 -0.00000000000E+00 -0.74505805969E-08  0.93827000000E+00  0.93827000000E+00 0.  1.
     999902    2    1    2    0    0  0.17829171811E-01 -0.12306179014E-01  0.10475709711E-01  0.10198662949E+01  0.10195823643E+01 0.  0.
     999903    2    3    3    0    0 -0.82831534998E-02  0.67512131881E-01 -0.10669828236E+00  0.12813620081E+00  0.20195641016E-01 0.  0.
         14    1    1    2    0    0 -0.17829171811E-01  0.12306179014E-01 -0.10475709711E-01  0.24063705105E-01  0.00000000000E+00 0. -1.
     999901    1    3    3    0    0  0.26112325311E-01 -0.79818310895E-01  0.11717399207E+00  0.89173009409E+00  0.88000000000E+00 0. -1.
        -11    1    4    4    0    0  0.24877705170E-02  0.39034100695E-01 -0.72242155978E-01  0.82152542508E-01  0.51100000000E-03 0.  1.
         11    1    4    4    0    0 -0.10770924017E-01  0.28478031186E-01 -0.34456126380E-01  0.45983658298E-01  0.51100000000E-03 0. -1.
</event>
<event>
 8    1  0.5489035E+004  0.1043930E+01  0.7957747E-01            NaN
         13   -1    0    0    0    0  0.00000000000E+00  0.00000000000E+00  0.74505805969E-08  0.10566000000E+00  0.10566000000E+00 0.  1.
     999900   -1    0    0    0    0 -0.00000000000E+00 -0.00000000000E+00 -0.74505805969E-08  0.93827000000E+00  0.93827000000E+00 0.  1.
     999902    2    1    2    0    0 -0.16213766275E-01  0.13564070152E-01  0.76174987654E-02  0.10214600978E+01  0.10212129234E+01 0.  0.
     999903    2    3    3    0    0  0.67899861310E-01  0.66375317406E-01 -0.87677839119E-01  0.13076074811E+00  0.19871986472E-01 0.  0.
         14    1    1    2    0    0  0.16213766275E-01 -0.13564070152E-01 -0.76174987654E-02  0.22469902166E-01  0.00000000000E+00 0.  1.
     999901    1    3    3    0    0 -0.84113627585E-01 -0.52811247254E-01  0.95295337884E-01  0.89069934973E+00  0.88000000000E+00 0. -1.
        -11    1    4    4    0    0  0.46628110064E-01  0.52314562286E-01 -0.53767564577E-01  0.88330097911E-01  0.51100000000E-03 0.  1.
         11    1    4    4    0    0  0.21271751246E-01  0.14060755120E-01 -0.33910274542E-01  0.42430650197E-01  0.51100000000E-03 0. -1.
</event>
<event>
 8    1  0.5489035E+004  0.1043930E+01  0.7957747E-01            NaN
         13   -1    0    0    0    0  0.00000000000E+00  0.00000000000E+00  0.74505805969E-08  0.10566000000E+00  0.10566000000E+00 0. -1.
     999900   -1    0    0    0    0 -0.00000000000E+00 -0.00000000000E+00 -0.74505805969E-08  0.93827000000E+00  0.93827000000E+00 0.  1.
     999902    2    1    2    0    0 -0.11978199092E-02 -0.23747043373E-01  0.19058421062E-02  0.10200765081E+01  0.10197975747E+01 0.  0.
     999903    2    3    3    0    0  0.11339590132E+00  0.43600780198E-01  0.39532452734E-01  0.12929976160E+00  0.19898619554E-01 0.  0.
         14    1    1    2    0    0  0.11978199092E-02  0.23747043373E-01 -0.19058421062E-02  0.23853491895E-01  0.00000000000E+00 0. -1.
     999901    1    3    3    0    0 -0.11459372123E+00 -0.67347823570E-01 -0.37626610628E-01  0.89077674650E+00  0.88000000000E+00 0. -1.
        -11    1    4    4    0    0  0.81098394929E-01  0.26484793235E-01  0.19122038000E-01  0.87431729887E-01  0.51100000000E-03 0. -1.
         11    1    4    4    0    0  0.32297506394E-01  0.17115986962E-01  0.20410414734E-01  0.41868031713E-01  0.51100000000E-03 0.  1.
</event>
<event>
 8    1  0.5489035E+004  0.1043930E+01  0.7957747E-01            NaN
         13   -1    0    0    0    0  0.00000000000E+00  0.00000000000E+00  0.74505805969E-08  0.10566000000E+00  0.10566000000E+00 0. -1.
     999900   -1    0    0    0    0 -0.00000000000E+00 -0.00000000000E+00 -0.74505805969E-08  0.93827000000E+00  0.93827000000E+00 0. -1.
     999902    2    1    2    0    0  0.13649199079E-01  0.17651980242E-01 -0.81392566251E-02  0.10201783571E+01  0.10199018285E+01 0.  0.
     999903    2    3    3    0    0 -0.57867657944E-01  0.88701778366E-01  0.73805045779E-01  0.13064049768E+00  0.20076940252E-01 0.  0.
         14    1    1    2    0    0 -0.13649199079E-01 -0.17651980242E-01  0.81392566251E-02  0.23751642898E-01  0.00000000000E+00 0. -1.
     999901    1    3    3    0    0  0.71516857023E-01 -0.71049798124E-01 -0.81944302404E-01  0.88953785942E+00  0.88000000000E+00 0. -1.
        -11    1    4    4    0    0 -0.42080416004E-01  0.58800199792E-01  0.39178747825E-01  0.82240259659E-01  0.51100000000E-03 0.  1.
         11    1    4    4    0    0 -0.15787241940E-01  0.29901578574E-01  0.34626297954E-01  0.48400238019E-01  0.51100000000E-03 0. -1.
</event>
<event>
 8    1  0.5489035E+004  0.1043930E+01  0.7957747E-01            NaN
         13   -1    0    0    0    0  0.00000000000E+00  0.00000000000E+00  0.74505805969E-08  0.10566000000E+00  0.10566000000E+00 0. -1.
     999900   -1    0    0    0    0 -0.00000000000E+00 -0.00000000000E+00 -0.74505805969E-08  0.93827000000E+00  0.93827000000E+00 0. -1.
     999902    2    1    2    0    0 -0.28871212480E-03  0.70329753961E-02  0.25025569212E-01  0.10179333615E+01  0.10176013479E+01 0.  0.
     999903    2    3    3    0    0 -0.78097489491E-01  0.82958089150E-01 -0.54173603653E-01  0.12771353602E+00  0.19867197349E-01 0.  0.
         14    1    1    2    0    0  0.28871212480E-03 -0.70329753961E-02 -0.25025569212E-01  0.25996638475E-01  0.00000000000E+00 0.  1.
     999901    1    3    3    0    0  0.77808777366E-01 -0.75925113754E-01  0.79199172865E-01  0.89021982550E+00  0.88000000000E+00 0. -1.
        -11    1    4    4    0    0 -0.52600883399E-01  0.66961559662E-01 -0.44592018524E-01  0.96121863505E-01  0.51100000000E-03 0. -1.
         11    1    4    4    0    0 -0.25496606092E-01  0.15996529488E-01 -0.95815851288E-02  0.31591672518E-01  0.51100000000E-03 0.  1.
</event>
<event>
 8    1  0.5489035E+004  0.1043930E+01  0.7957747E-01            NaN
         13   -1    0    0    0    0  0.00000000000E+00  0.00000000000E+00  0.74505805969E-08  0.10566000000E+00  0.10566000000E+00 0.  1.
     999900   -1    0    0    0    0 -0.00000000000E+00 -0.00000000000E+00 -0.74505805969E-08  0.93827000000E+00  0.93827000000E+00 0. -1.
     999902    2    1    2    0    0  0.92822766739E-02  0.19672406558E-01 -0.10362654033E-01  0.10198354189E+01  0.10195507505E+01 0.  0.
     999903    2    3    3    0    0  0.74938901329E-01  0.16722438825E-02 -0.10676323547E+00  0.13195712187E+00  0.19891159660E-01 0.  0.
         14    1    1    2    0    0 -0.92822766739E-02 -0.19672406558E-01  0.10362654033E-01  0.24094581105E-01  0.00000000000E+00 0.  1.
     999901    1    3    3    0    0 -0.65656624655E-01  0.18000162675E-01  0.96400581441E-01  0.88787829702E+00  0.88000000000E+00 0.  1.
        -11    1    4    4    0    0  0.46982522373E-02 -0.14293281143E-02 -0.18306081387E-01  0.18960229157E-01  0.51100000000E-03 0.  1.
         11    1    4    4    0    0  0.70240649092E-01  0.31015719968E-02 -0.88457154086E-01  0.11299689272E+00  0.51100000000E-03 0. -1.
</event>
<event>
 8    1  0.5489035E+004  0.1043930E+01  0.7957747E-01            NaN
         13   -1    0    0    0    0  0.00000000000E+00  0.00000000000E+00  0.74505805969E-08  0.10566000000E+00  0.10566000000E+00 0. -1.
     999900   -1    0    0    0    0 -0.00000000000E+00 -0.00000000000E+00 -0.74505805969E-08  0.93827000000E+00  0.93827000000E+00 0.  1.
     999902    2    1    2    0    0 -0.95538340929E-02  0.76859988702E-02  0.21259523665E-01  0.10193878389E+01  0.10190923650E+01 0.  0.
     999903    2    3    3    0    0 -0.77442615775E-01  0.23505496332E-02  0.10586392878E+00  0.13271131443E+00  0.20055865468E-01 0.  0.
         14    1    1    2    0    0  0.95538340929E-02 -0.76859988702E-02 -0.21259523665E-01  0.24542161090E-01  0.00000000000E+00 0.  1.
     999901    1    3    3    0    0  0.67888781682E-01  0.53354492369E-02 -0.84604405115E-01  0.88667652448E+00  0.88000000000E+00 0.  1.
        -11    1    4    4    0    0 -0.55269540562E-01 -0.59891053172E-02  0.82099809922E-01  0.99152566314E-01  0.51100000000E-03 0. -1.
         11    1    4    4    0    0 -0.22173075213E-01  0.83396549504E-02  0.23764118858E-01  0.33558748117E-01  0.51100000000E-03 0.  1.
</event>
<event>
 8    1  0.5489035E+004  0.1043930E+01  0.7957747E-01            NaN
         13   -1    0    0    0    0  0.00000000000E+00  0.00000000000E+00  0.74505805969E-08  0.10566000000E+00  0.10566000000E+00 0.  1.
     999900   -1    0    0    0    0 -0.00000000000E+00 -0.00000000000E+00 -0.74505805969E-08  0.93827000000E+00  0.93827000000E+00 0. -1.
     999902    2    1    2    0    0  0.14626248835E-01 -0.29939021554E-02 -0.16927776236E-01  0.10213592177E+01  0.10211097940E+01 0.  0.
     999903    2    3    3    0    0  0.66796584219E-02 -0.11634627759E+00  0.56634047252E-01  0.13100914544E+00  0.19362508458E-01 0.  0.
         14    1    1    2    0    0 -0.14626248835E-01  0.29939021554E-02  0.16927776236E-01  0.22570782295E-01  0.00000000000E+00 0.  1.
     999901    1    3    3    0    0  0.79465904128E-02  0.11335237544E+00 -0.73561823488E-01  0.89035007227E+00  0.88000000000E+00 0. -1.
        -11    1    4    4    0    0 -0.58766839015E-02 -0.65197228173E-01  0.31032973084E-01  0.72446673593E-01  0.51100000000E-03 0. -1.
         11    1    4    4    0    0  0.12556342323E-01 -0.51149049417E-01  0.25601074167E-01  0.58562471843E-01  0.51100000000E-03 0.  1.
</event>
<event>
 8    1  0.5489035E+004  0.1043930E+01  0.7957747E-01            NaN
         13   -1    0    0    0    0  0.00000000000E+00  0.00000000000E+00  0.74505805969E-08  0.10566000000E+00  0.10566000000E+00 0.  1.
     999900   -1    0    0    0    0 -0.00000000000E+00 -0.00000000000E+00 -0.74505805969E-08  0.93827000000E+00  0.93827000000E+00 0. -1.
     999902    2    1    2    0    0  0.57970776907E-02 -0.15431661778E-01  0.17331380851E-01  0.10200109896E+01  0.10197305036E+01 0.  0.
     999903    2    3    3    0    0  0.10988058357E+00 -0.29626618838E-01  0.64355362153E-01  0.13251669228E+00  0.21623642315E-01 0.  0.
         14    1    1    2    0    0 -0.57970776907E-02  0.15431661778E-01 -0.17331380851E-01  0.23919010372E-01  0.00000000000E+00 0. -1.
     999901    1    3    3    0    0 -0.10408350588E+00  0.14194957061E-01 -0.47023981302E-01  0.88749429734E+00  0.88000000000E+00 0.  1.
        -11    1    4    4    0    0  0.59074899267E-01 -0.26202436357E-01  0.31322281813E-01  0.71817531658E-01  0.51100000000E-03 0. -1.
         11    1    4    4    0    0  0.50805684301E-01 -0.34241824816E-02  0.33033080340E-01  0.60699160625E-01  0.51100000000E-03 0.  1.
</event>
<event>
 8    1  0.5489035E+004  0.1043930E+01  0.7957747E-01            NaN
         13   -1    0    0    0    0  0.00000000000E+00  0.00000000000E+00  0.74505805969E-08  0.10566000000E+00  0.10566000000E+00 0. -1.
     999900   -1    0    0    0    0 -0.00000000000E+00 -0.00000000000E+00 -0.74505805969E-08  0.93827000000E+00  0.93827000000E+00 0. -1.
     999902    2    1    2    0    0  0.51473031804E-02 -0.99809167124E-04 -0.24153306028E-01  0.10192341120E+01  0.10189348793E+01 0.  0.
     999903    2    3    3    0    0 -0.51196510108E-01  0.10948269050E-01  0.11342966222E+00  0.12669517253E+00  0.21081537633E-01 0.  0.
         14    1    1    2    0    0 -0.51473031804E-02  0.99809167124E-04  0.24153306028E-01  0.24695887997E-01  0.00000000000E+00 0. -1.
     999901    1    3    3    0    0  0.56343813289E-01 -0.11048078217E-01 -0.13758296824E+00  0.89253893947E+00  0.88000000000E+00 0. -1.
        -11    1    4    4    0    0 -0.55714174797E-02 -0.55697501432E-02  0.17033045630E-01  0.18773613766E-01  0.51100000000E-03 0. -1.
         11    1    4    4    0    0 -0.45625092629E-01  0.16518019193E-01  0.96396616585E-01  0.10792155876E+00  0.51100000000E-03 0.  1.
</event>
<event>
 8    1  0.5489035E+004  0.1043930E+01  0.7957747E-01            NaN
         13   -1    0    0    0    0  0.00000000000E+00  0.00000000000E+00  0.74505805969E-08  0.10566000000E+00  0.10566000000E+00 0. -1.
     999900   -1    0    0    0    0 -0.00000000000E+00 -0.00000000000E+00 -0.74505805969E-08  0.93827000000E+00  0.93827000000E+00 0.  1.
     999902    2    1    2    0    0  0.76748703847E-02  0.21058870930E-01 -0.76069245699E-02  0.10202605053E+01  0.10199859085E+01 0.  0.
     999903    2    3    3    0    0 -0.43089883323E-01  0.12202618538E+00 -0.23516258469E-01  0.13289104121E+00  0.18970673658E-01 0.  0.
         14    1    1    2    0    0 -0.76748703847E-02 -0.21058870930E-01  0.76069245699E-02  0.23669494749E-01  0.00000000000E+00 0. -1.
     999901    1    3    3    0    0  0.50764753708E-01 -0.10096731445E+00  0.15909333899E-01  0.88736946404E+00  0.88000000000E+00 0.  1.
        -11    1    4    4    0    0 -0.12976897280E-01  0.65190412875E-01 -0.12013924245E-01  0.67548392213E-01  0.51100000000E-03 0.  1.
         11    1    4    4    0    0 -0.30112986043E-01  0.56835772503E-01 -0.11502334224E-01  0.65342648998E-01  0.51100000000E-03 0. -1.
</event>
<event>
 8    1  0.5489035E+004  0.1043930E+01  0.7957747E-01            NaN
         13   -1    0    0    0    0  0.00000000000E+00  0.00000000000E+00  0.74505805969E-08  0.10566000000E+00  0.10566000000E+00 0. -1.
     999900   -1    0    0    0    0 -0.00000000000E+00 -0.00000000000E+00 -0.74505805969E-08  0.93827000000E+00  0.93827000000E+00 0. -1.
     999902    2    1    2    0    0  0.10528754421E-01  0.16091341744E-01  0.12619594006E-01  0.10209291282E+01  0.10206699980E+01 0.  0.
     999903    2    3    3    0    0 -0.89786075257E-01  0.67704790154E-01 -0.63120230961E-01  0.13050027977E+00  0.20017031316E-01 0.  0.
         14    1    1    2    0    0 -0.10528754421E-01 -0.16091341744E-01 -0.12619594006E-01  0.23000871759E-01  0.00000000000E+00 0. -1.
     999901    1    3    3    0    0  0.10031482968E+00 -0.51613448410E-01  0.75739824967E-01  0.89042884847E+00  0.88000000000E+00 0.  1.
        -11    1    4    4    0    0 -0.50675122122E-01  0.50317771790E-01 -0.39373013893E-01  0.81549626020E-01  0.51100000000E-03 0. -1.
         11    1    4    4    0    0 -0.39110953136E-01  0.17387018364E-01 -0.23747217068E-01  0.48950653747E-01  0.51100000000E-03 0.  1.
</event>
<event>
 8    1  0.5489035E+004  0.1043930E+01  0.7957747E-01            NaN
         13   -1    0    0    0    0  0.00000000000E+00  0.00000000000E+00  0.74505805969E-08  0.10566000000E+00  0.10566000000E+00 0.  1.
     999900   -1    0    0    0    0 -0.00000000000E+00 -0.00000000000E+00 -0.74505805969E-08  0.93827000000E+00  0.93827000000E+00 0.  1.
     999902    2    1    2    0    0  0.16462961008E-01 -0.11534484236E-01 -0.18533341954E-01  0.10165884899E+01  0.10162207435E+01 0.  0.
     999903    2    3    3    0    0  0.40904712789E-02  0.22181854414E-01  0.12117292761E+00  0.12484429351E+00  0.19860831225E-01 0.  0.
         14    1    1    2    0    0 -0.16462961008E-01  0.11534484236E-01  0.18533341954E-01  0.27341510122E-01  0.00000000000E+00 0. -1.
     999901    1    3    3    0    0  0.12372489729E-01 -0.33716338651E-01 -0.13970626956E+00  0.89174419636E+00  0.88000000000E+00 0.  1.
        -11    1    4    4    0    0  0.56891991434E-02  0.19892357800E-01  0.57553897585E-01  0.61161958225E-01  0.51100000000E-03 0.  1.
         11    1    4    4    0    0 -0.15987278645E-02  0.22894966144E-02  0.63619030024E-01  0.63682335288E-01  0.51100000000E-03 0. -1.
</event>
<event>
 8    1  0.5489035E+004  0.1043930E+01  0.7957747E-01            NaN
         13   -1    0    0    0    0  0.00000000000E+00  0.00000000000E+00  0.74505805969E-08  0.10566000000E+00  0.10566000000E+00 0.  1.
     999900   -1    0    0    0    0 -0.00000000000E+00 -0.00000000000E+00 -0.74505805969E-08  0.93827000000E+00  0.93827000000E+00 0.  1.
     999902    2    1    2    0    0 -0.27998189833E-02 -0.49882581750E-02  0.26481369546E-01  0.10168378491E+01  0.10164768698E+01 0.  0.
     999903    2    3    3    0    0 -0.66017860399E-01 -0.10452175104E+00 -0.24091905403E-01  0.12753413661E+00  0.20034514237E-01 0.  0.
         14    1    1    2    0    0  0.27998189833E-02  0.49882581750E-02 -0.26481369546E-01  0.27092150875E-01  0.00000000000E+00 0. -1.
     999901    1    3    3    0    0  0.63218041416E-01  0.99533492869E-01  0.50573274950E-01  0.88930371252E+00  0.88000000000E+00 0.  1.
        -11    1    4    4    0    0 -0.38427094105E-01 -0.63166626465E-01 -0.44320732484E-02  0.74071375406E-01  0.51100000000E-03 0. -1.
         11    1    4    4    0    0 -0.27590766294E-01 -0.41355124579E-01 -0.19659832155E-01  0.53462761199E-01  0.51100000000E-03 0.  1.
</event>
<event>
 8    1  0.5489035E+004  0.1043930E+01  0.7957747E-01            NaN
         13   -1    0    0    0    0  0.00000000000E+00  0.00000000000E+00  0.74505805969E-08  0.10566000000E+00  0.10566000000E+00 0.  1.
     999900   -1    0    0    0    0 -0.00000000000E+00 -0.00000000000E+00 -0.74505805969E-08  0.93827000000E+00  0.93827000000E+00 0. -1.
     999902    2    1    2    0    0  0.14120682779E-02  0.19579032011E-01 -0.13928138435E-01  0.10198608191E+01  0.10195767577E+01 0.  0.
     999903    2    3    3    0    0  0.13596162580E-01 -0.76238516816E-01  0.99178423146E-01  0.12737969931E+00  0.19800532718E-01 0.  0.
         14    1    1    2    0    0 -0.14120682779E-02 -0.19579032011E-01  0.13928138435E-01  0.24069180949E-01  0.00000000000E+00 0.  1.
     999901    1    3    3    0    0 -0.12184094302E-01  0.95817548827E-01 -0.11310656158E+00  0.89248111974E+00  0.88000000000E+00 0. -1.
        -11    1    4    4    0    0  0.70456325055E-02 -0.34191759548E-01  0.29380731354E-01  0.45631193873E-01  0.51100000000E-03 0. -1.
         11    1    4    4    0    0  0.65505300743E-02 -0.42046757268E-01  0.69797691792E-01  0.81748505439E-01  0.51100000000E-03 0.  1.
</event>
<event>
 8    1  0.5489035E+004  0.1043930E+01  0.7957747E-01            NaN
         13   -1    0    0    0    0  0.00000000000E+00  0.00000000000E+00  0.74505805969E-08  0.10566000000E+00  0.10566000000E+00 0.  1.
     999900   -1    0    0    0    0 -0.00000000000E+00 -0.00000000000E+00 -0.74505805969E-08  0.93827000000E+00  0.93827000000E+00 0.  1.
     999902    2    1    2    0    0 -0.13881296933E-02 -0.23826331221E-01  0.18853219404E-02  0.10199889181E+01  0.10197079080E+01 0.  0.
     999903    2    3    3    0    0 -0.12005584120E+00 -0.49026165037E-01 -0.93103917917E-02  0.13159576112E+00  0.20341855452E-01 0.  0.
         14    1    1    2    0    0  0.13881296933E-02  0.23826331221E-01 -0.18853219404E-02  0.23941081895E-01  0.00000000000E+00 0.  1.
     999901    1    3    3    0    0  0.11866771151E+00  0.25199833816E-01  0.11195713732E-01  0.88839315699E+00  0.88000000000E+00 0. -1.
        -11    1    4    4    0    0 -0.49669895871E-01 -0.29559495758E-01  0.11897120734E-02  0.57814694336E-01  0.51100000000E-03 0. -1.
         11    1    4    4    0    0 -0.70385945331E-01 -0.19466669279E-01 -0.10500103865E-01  0.73781066780E-01  0.51100000000E-03 0.  1.
</event>
<event>
 8    1  0.5489035E+004  0.1043930E+01  0.7957747E-01            NaN
         13   -1    0    0    0    0  0.00000000000E+00  0.00000000000E+00  0.74505805969E-08  0.10566000000E+00  0.10566000000E+00 0. -1.
     999900   -1    0    0    0    0 -0.00000000000E+00 -0.00000000000E+00 -0.74505805969E-08  0.93827000000E+00  0.93827000000E+00 0.  1.
     999902    2    1    2    0    0  0.15068440406E-01  0.18268952867E-01  0.74413529446E-02  0.10191069005E+01  0.10188045388E+01 0.  0.
     999903    2    3    3    0    0 -0.10196911435E+00  0.74510824137E-01 -0.18967688089E-01  0.12918646880E+00  0.19488646293E-01 0.  0.
         14    1    1    2    0    0 -0.15068440406E-01 -0.18268952867E-01 -0.74413529446E-02  0.24823099499E-01  0.00000000000E+00 0. -1.
     999901    1    3    3    0    0  0.11703755476E+00 -0.56241871270E-01  0.26409041033E-01  0.88992043170E+00  0.88000000000E+00 0. -1.
        -11    1    4    4    0    0 -0.11569725178E-01  0.26479536477E-02 -0.48920829529E-02  0.12847715589E-01  0.51100000000E-03 0. -1.
         11    1    4    4    0    0 -0.90399389175E-01  0.71862870489E-01 -0.14075605136E-01  0.11633875321E+00  0.51100000000E-03 0.  1.
</event>
<event>
 8    1  0.5489035E+004  0.1043930E+01  0.7957747E-01            NaN
         13   -1    0    0    0    0  0.00000000000E+00  0.00000000000E+00  0.74505805969E-08  0.10566000000E+00  0.10566000000E+00 0.  1.
     999900   -1    0    0    0    0 -0.00000000000E+00 -0.00000000000E+00 -0.74505805969E-08  0.93827000000E+00  0.93827000000E+00 0.  1.
     999902    2    1    2    0    0  0.11196723587E-01  0.10408718281E-01  0.15757832902E-01  0.10219751069E+01  0.10217392533E+01 0.  0.
     999903    2    3    3    0    0 -0.10391081901E+00  0.51700045634E-01  0.60452788391E-01  0.13239522898E+00  0.20089898100E-01 0.  0.
         14    1    1    2    0    0 -0.11196723587E-01 -0.10408718281E-01 -0.15757832902E-01  0.21954893147E-01  0.00000000000E+00 0. -1.
     999901    1    3    3    0    0  0.11510754260E+00 -0.41291327353E-01 -0.44694955490E-01  0.88957987788E+00  0.88000000000E+00 0. -1.
        -11    1    4    4    0    0 -0.28500178403E-01  0.92336764141E-02  0.24391285259E-01  0.38635694205E-01  0.51100000000E-03 0.  1.
         11    1    4    4    0    0 -0.75410640605E-01  0.42466369220E-01  0.36061503133E-01  0.93759534771E-01  0.51100000000E-03 0. -1.
</event>
<event>
 8    1  0.5489035E+004  0.1043930E+01  0.7957747E-01            NaN
         13   -1    0    0    0    0  0.00000000000E+00  0.00000000000E+00  0.74505805969E-08  0.10566000000E+00  0.10566000000E+00 0. -1.
     999900   -1    0    0    0    0 -0.00000000000E+00 -0.00000000000E+00 -0.74505805969E-08  0.93827000000E+00  0.93827000000E+00 0.  1.
     999902    2    1    2    0    0  0.14533779810E-02  0.23416468180E-01 -0.26267929261E-02  0.10203218800E+01  0.10200487221E+01 0.  0.
     999903    2    3    3    0    0  0.68243553156E-01 -0.36327594110E-01 -0.10284090068E+00  0.13011227103E+00  0.19392668160E-01 0.  0.
         14    1    1    2    0    0 -0.14533779810E-02 -0.23416468180E-01  0.26267929261E-02  0.23608120015E-01  0.00000000000E+00 0. -1.
     999901    1    3    3    0    0 -0.66790175175E-01  0.59744062290E-01  0.10021410776E+00  0.89020960895E+00  0.88000000000E+00 0. -1.
        -11    1    4    4    0    0  0.33031235880E-01 -0.28129531035E-01 -0.51987635636E-01  0.67714905597E-01  0.51100000000E-03 0.  1.
         11    1    4    4    0    0  0.35212317276E-01 -0.81980630748E-02 -0.50853265048E-01  0.62397365435E-01  0.51100000000E-03 0. -1.
</event>
<event>
 8    1  0.5489035E+004  0.1043930E+01  0.7957747E-01            NaN
         13   -1    0    0    0    0  0.00000000000E+00  0.00000000000E+00  0.74505805969E-08  0.10566000000E+00  0.10566000000E+00 0.  1.
     999900   -1    0    0    0    0 -0.00000000000E+00 -0.00000000000E+00 -0.74505805969E-08  0.93827000000E+00  0.93827000000E+00 0. -1.
     999902    2    1    2    0    0  0.73383735622E-02  0.18725741178E-01 -0.13099920045E-01  0.10199276456E+01  0.10196451782E+01 0.  0.
     999903    2    3    3    0    0  0.14932952424E-01  0.80414961813E-01 -0.10331838526E+00  0.13313420350E+00  0.18986001649E-01 0.  0.
         14    1    1    2    0    0 -0.73383735622E-02 -0.18725741178E-01  0.13099920045E-01  0.24002354351E-01  0.00000000000E+00 0.  1.
     999901    1    3    3    0    0 -0.75945788620E-02 -0.61689220635E-01  0.90218465211E-01  0.88679344215E+00  0.88000000000E+00 0.  1.
        -11    1    4    4    0    0 -0.26848960707E-02  0.30659275661E-01 -0.44435663326E-01  0.54055426621E-01  0.51100000000E-03 0. -1.
         11    1    4    4    0    0  0.17617848495E-01  0.49755686152E-01 -0.58882721930E-01  0.79078776881E-01  0.51100000000E-03 0.  1.
</event>
<event>
 8    1  0.5489035E+004  0.1043930E+01  0.7957747E-01            NaN
         13   -1    0    0    0    0  0.00000000000E+00  0.00000000000E+00  0.74505805969E-08  0.10566000000E+00  0.10566000000E+00 0.  1.
     999900   -1    0    0    0    0 -0.00000000000E+00 -0.00000000000E+00 -0.74505805969E-08  0.93827000000E+00  0.93827000000E+00 0.  1.
     999902    2    1    2    0    0  0.10200694753E-01  0.11649287533E-01 -0.18110465522E-01  0.10201025151E+01  0.10198241968E+01 0.  0.
     999903    2    3    3    0    0  0.18970654459E-01 -0.92472906797E-01 -0.88782296173E-01  0.13110709828E+00  0.19890974926E-01 0.  0.
         14    1    1    2    0    0 -0.10200694753E-01 -0.11649287533E-01  0.18110465522E-01  0.23827484863E-01  0.00000000000E+00 0.  1.
     999901    1    3    3    0    0 -0.87699597067E-02  0.10412219433E+00  0.70671830650E-01  0.88899541686E+00  0.88000000000E+00 0. -1.
        -11    1    4    4    0    0 -0.20236823493E-02 -0.38078992791E-01 -0.36666204020E-01  0.52903465108E-01  0.51100000000E-03 0.  1.
         11    1    4    4    0    0  0.20994336809E-01 -0.54393914006E-01 -0.52116092153E-01  0.78203633172E-01  0.51100000000E-03 0. -1.
</event>
<event>
 8    1  0.5489035E+004  0.1043930E+01  0.7957747E-01            NaN
         13   -1    0    0    0    0  0.00000000000E+00  0.00000000000E+00  0.74505805969E-08  0.10566000000E+00  0.10566000000E+00 0.  1.
     999900   -1    0    0    0    0 -0.00000000000E+00 -0.00000000000E+00 -0.74505805969E-08  0.93827000000E+00  0.93827000000E+00 0.  1.
     999902    2    1    2    0    0  0.40036417630E-02 -0.58891736731E-02 -0.23589660589E-01  0.10192889042E+01  0.10189910140E+01 0.  0.
     999903    2    3    3    0    0  0.11056657422E+00  0.35939580240E-02  0.62173485178E-01  0.12867063273E+00  0.21276879427E-01 0.  0.
         14    1    1    2    0    0 -0.40036417630E-02  0.58891736731E-02  0.23589660589E-01  0.24641095767E-01  0.00000000000E+00 0.  1.
     999901    1    3    3    0    0 -0.10656293246E+00 -0.94831316971E-02 -0.85763145766E-01  0.89061827150E+00  0.88000000000E+00 0.  1.
        -11    1    4    4    0    0  0.91611978946E-01  0.95830558201E-02  0.56216500022E-01  0.10791267600E+00  0.51100000000E-03 0.  1.
         11    1    4    4    0    0  0.18954595279E-01 -0.59890977962E-02  0.59569851556E-02  0.20757956733E-01  0.51100000000E-03 0. -1.
</event>
<event>
 8    1  0.5489035E+004  0.1043930E+01  0.7957747E-01            NaN
         13   -1    0    0    0    0  0.00000000000E+00  0.00000000000E+00  0.74505805969E-08  0.10566000000E+00  0.10566000000E+00 0.  1.
     999900   -1    0    0    0    0 -0.00000000000E+00 -0.00000000000E+00 -0.74505805969E-08  0.93827000000E+00  0.93827000000E+00 0. -1.
     999902    2    1    2    0    0  0.19945424246E-01  0.94091969640E-02 -0.43838119200E-02  0.10214450997E+01  0.10211975915E+01 0.  0.
     999903    2    3    3    0    0 -0.11884085839E+00 -0.45619657628E-01 -0.10567975811E-02  0.12886408032E+00  0.20013285338E-01 0.  0.
         14    1    1    2    0    0 -0.19945424246E-01 -0.94091969640E-02  0.43838119200E-02  0.22484900329E-01  0.00000000000E+00 0.  1.
     999901    1    3    3    0    0  0.13878628264E+00  0.55028854592E-01 -0.33270143389E-02  0.89258101935E+00  0.88000000000E+00 0.  1.
        -11    1    4    4    0    0 -0.11419294502E+00 -0.47351614707E-01  0.55553410570E-03  0.12362351656E+00  0.51100000000E-03 0. -1.
         11    1    4    4    0    0 -0.46479133682E-02  0.17319570794E-02 -0.16123316868E-02  0.52405637551E-02  0.51100000000E-03 0.  1.
</event>
<event>
 8    1  0.5489035E+004  0.1043930E+01  0.7957747E-01            NaN
         13   -1    0    0    0    0  0.00000000000E+00  0.00000000000E+00  0.74505805969E-08  0.10566000000E+00  0.10566000000E+00 0.  1.
     999900   -1    0    0    0    0 -0.00000000000E+00 -0.00000000000E+00 -0.74505805969E-08  0.93827000000E+00  0.93827000000E+00 0.  1.
     999902    2    1    2    0    0  0.15893494481E-02  0.82632766924E-02 -0.21913493787E-01  0.10204564195E+01  0.10201864021E+01 0.  0.
     999903    2    3    3    0    0  0.12018228005E+00 -0.41386047697E-01 -0.25380587215E-01  0.13110757939E+00  0.19708825032E-01 0.  0.
         14    1    1    2    0    0 -0.15893494481E-02 -0.82632766924E-02  0.21913493787E-01  0.23473580539E-01  0.00000000000E+00 0.  1.
     999901    1    3    3    0    0 -0.11859293060E+00  0.49649324389E-01  0.34670934277E-02  0.88934884007E+00  0.88000000000E+00 0.  1.
        -11    1    4    4    0    0  0.92750180940E-01 -0.37963707506E-01 -0.13941755044E-01  0.10118533889E+00  0.51100000000E-03 0.  1.
         11    1    4    4    0    0  0.27432099108E-01 -0.34223401905E-02 -0.11438832171E-01  0.29922240496E-01  0.51100000000E-03 0. -1.
</event>
<event>
 8    1  0.5489035E+004  0.1043930E+01  0.7957747E-01            NaN
         13   -1    0    0    0    0  0.00000000000E+00  0.00000000000E+00  0.74505805969E-08  0.10566000000E+00  0.10566000000E+00 0.  1.
     999900   -1    0    0    0    0 -0.00000000000E+00 -0.00000000000E+00 -0.74505805969E-08  0.93827000000E+00  0.93827000000E+00 0.  1.
     999902    2    1    2    0    0 -0.66354726270E-02 -0.17967477100E-01 -0.13178308567E-01  0.10206807517E+01  0.10204159296E+01 0.  0.
     999903    2    3    3    0    0  0.55958625695E-01 -0.82685004091E-01 -0.85861100334E-01  0.13310587166E+00  0.19413058178E-01 0.  0.
         14    1    1    2    0    0  0.66354726270E-02  0.17967477100E-01  0.13178308567E-01  0.23249248311E-01  0.00000000000E+00 0.  1.
     999901    1    3    3    0    0 -0.62594098322E-01  0.64717526991E-01  0.72682791767E-01  0.88757488003E+00  0.88000000000E+00 0. -1.
        -11    1    4    4    0    0  0.15345912154E-01 -0.26601667275E-01 -0.38322567060E-01  0.49112381216E-01  0.51100000000E-03 0.  1.
         11    1    4    4    0    0  0.40612713541E-01 -0.56083336817E-01 -0.47538533274E-01  0.83993490441E-01  0.51100000000E-03 0. -1.
</event>
<event>
 8    1  0.5489035E+004  0.1043930E+01  0.7957747E-01            NaN
         13   -1    0    0    0    0  0.00000000000E+00  0.00000000000E+00  0.74505805969E-08  0.10566000000E+00  0.10566000000E+00 0. -1.
     999900   -1    0    0    0    0 -0.00000000000E+00 -0.00000000000E+00 -0.74505805969E-08  0.93827000000E+00  0.93827000000E+00 0. -1.
     999902    2    1    2    0    0 -0.43256285890E-02  0.92039947551E-02 -0.22756399538E-01  0.10190045451E+01  0.10186996538E+01 0.  0.
     999903    2    3    3    0    0  0.75999910698E-01 -0.97708649777E-01 -0.29716874305E-01  0.12887480510E+00  0.20066292717E-01 0.  0.
         14    1    1    2    0    0  0.43256285890E-02 -0.92039947551E-02  0.22756399538E-01  0.24925454902E-01  0.00000000000E+00 0. -1.
     999901    1    3    3    0    0 -0.80325539287E-01  0.10691264453E+00  0.69604747672E-02  0.89012974000E+00  0.88000000000E+00 0. -1.
        -11    1    4    4    0    0  0.27043202607E-01 -0.51020940245E-01 -0.14123988416E-01  0.59449300420E-01  0.51100000000E-03 0. -1.
         11    1    4    4    0    0  0.48956708091E-01 -0.46687709533E-01 -0.15592885889E-01  0.69425504678E-01  0.51100000000E-03 0.  1.
</event>
<event>
 8    1  0.5489035E+004  0.1043930E+01  0.7957747E-01            NaN
         13   -1    0    0    0    0  0.00000000000E+00  0.00000000000E+00  0.74505805969E-08  0.10566000000E+00  0.10566000000E+00 0. -1.
     999900   -1    0    0    0    0 -0.00000000000E+00 -0.00000000000E+00 -0.74505805969E-08  0.93827000000E+00  0.93827000000E+00 0.  1.
     999902    2    1    2    0    0  0.10104747794E-01  0.24368757988E-01 -0.52075488058E-02  0.10170402090E+01  0.10166846738E+01 0.  0.
     999903    2    3    3    0    0  0.10348283195E+00  0.74820360199E-01  0.17527471433E-01  0.13037132387E+00  0.19562387998E-01 0.  0.
         14    1    1    2    0    0 -0.10104747794E-01 -0.24368757988E-01  0.52075488058E-02  0.26889790970E-01  0.00000000000E+00 0. -1.
     999901    1    3    3    0    0 -0.93378084155E-01 -0.50451602211E-01 -0.22735020239E-01  0.88666888516E+00  0.88000000000E+00 0.  1.
        -11    1    4    4    0    0  0.95868887345E-01  0.67379265188E-01  0.21231531407E-01  0.11908756436E+00  0.51100000000E-03 0.  1.
         11    1    4    4    0    0  0.76139446034E-02  0.74410950114E-02 -0.37040599746E-02  0.11283759510E-01  0.51100000000E-03 0. -1.
</event>
<event>
 8    1  0.5489035E+004  0.1043930E+01  0.7957747E-01            NaN
         13   -1    0    0    0    0  0.00000000000E+00  0.00000000000E+00  0.74505805969E-08  0.10566000000E+00  0.10566000000E+00 0.  1.
     999900   -1    0    0    0    0 -0.00000000000E+00 -0.00000000000E+00 -0.74505805969E-08  0.93827000000E+00  0.93827000000E+00 0. -1.
     999902    2    1    2    0    0 -0.16201398427E-01 -0.62604145041E-02  0.93613702833E-02  0.10241989748E+01  0.10240088997E+01 0.  0.
     999903    2    3    3    0    0 -0.11182596251E+00  0.13356707012E-01  0.75477980486E-01  0.13633620680E+00  0.14394034591E-01 0.  0.
         14    1    1    2    0    0  0.16201398427E-01  0.62604145041E-02 -0.93613702833E-02  0.19731025172E-01  0.00000000000E+00 0. -1.
     999901    1    3    3    0    0  0.95624564084E-01 -0.19617121516E-01 -0.66116610202E-01  0.88786276803E+00  0.88000000000E+00 0. -1.
        -11    1    4    4    0    0 -0.64151143192E-01  0.13679150588E-01  0.48259164986E-01  0.81435228616E-01  0.51100000000E-03 0.  1.
         11    1    4    4    0    0 -0.47674819319E-01 -0.32244357601E-03  0.27218815500E-01  0.54900978180E-01  0.51100000000E-03 0. -1.
</event>
<event>
 8    1  0.5489035E+004  0.1043930E+01  0.7957747E-01            NaN
         13   -1    0    0    0    0  0.00000000000E+00  0.00000000000E+00  0.74505805969E-08  0.10566000000E+00  0.10566000000E+00 0. -1.
     999900   -1    0    0    0    0 -0.00000000000E+00 -0.00000000000E+00 -0.74505805969E-08  0.93827000000E+00  0.93827000000E+00 0.  1.
     999902    2    1    2    0    0  0.22219679749E-01  0.61642626737E-02 -0.30753935046E-02  0.10206669317E+01  0.10204017910E+01 0.  0.
     999903    2    3    3    0    0 -0.26584280263E-01  0.11510453596E+00 -0.53234321821E-01  0.13119195859E+00  0.20534332849E-01 0.  0.
         14    1    1    2    0    0 -0.22219679749E-01 -0.61642626737E-02  0.30753935046E-02  0.23263068320E-01  0.00000000000E+00 0. -1.
     999901    1    3    3    0    0  0.48803960012E-01 -0.10894027328E+00  0.50158928317E-01  0.88947497309E+00  0.88000000000E+00 0. -1.
        -11    1    4    4    0    0 -0.15765506646E-02  0.48057793580E-01 -0.17191547165E-01  0.51067087745E-01  0.51100000000E-03 0. -1.
         11    1    4    4    0    0 -0.25007729599E-01  0.67046742375E-01 -0.36042774657E-01  0.80124870850E-01  0.51100000000E-03 0.  1.
</event>
<event>
 8    1  0.5489035E+004  0.1043930E+01  0.7957747E-01            NaN
         13   -1    0    0    0    0  0.00000000000E+00  0.00000000000E+00  0.74505805969E-08  0.10566000000E+00  0.10566000000E+00 0. -1.
     999900   -1    0    0    0    0 -0.00000000000E+00 -0.00000000000E+00 -0.74505805969E-08  0.93827000000E+00  0.93827000000E+00 0. -1.
     999902    2    1    2    0    0  0.17510072575E-01  0.98509691256E-02 -0.11278344533E-01  0.10208899199E+01  0.10206298954E+01 0.  0.
     999903    2    3    3    0    0 -0.76872329157E-01  0.77890675993E-01  0.66696651068E-01  0.12981330178E+00  0.20657629566E-01 0.  0.
         14    1    1    2    0    0 -0.17510072575E-01 -0.98509691256E-02  0.11278344533E-01  0.23040080072E-01  0.00000000000E+00 0.  1.
     999901    1    3    3    0    0  0.94382401733E-01 -0.68039706868E-01 -0.77974995600E-01  0.89107661815E+00  0.88000000000E+00 0.  1.
        -11    1    4    4    0    0 -0.53901100737E-01  0.49325812162E-01  0.54589793863E-01  0.91206749318E-01  0.51100000000E-03 0.  1.
         11    1    4    4    0    0 -0.22971228421E-01  0.28564863831E-01  0.12106857205E-01  0.38606552465E-01  0.51100000000E-03 0. -1.
</event>
<event>
 8    1  0.5489035E+004  0.1043930E+01  0.7957747E-01            NaN
         13   -1    0    0    0    0  0.00000000000E+00  0.00000000000E+00  0.74505805969E-08  0.10566000000E+00  0.10566000000E+00 0. -1.
     999900   -1    0    0    0    0 -0.00000000000E+00 -0.00000000000E+00 -0.74505805969E-08  0.93827000000E+00  0.93827000000E+00 0.  1.
     999902    2    1    2    0    0  0.22127281547E-01  0.10242892089E-02  0.79877665560E-02  0.10203828097E+01  0.10201110764E+01 0.  0.
     999903    2    3    3    0    0 -0.22493846142E-01  0.11934285119E+00  0.43822532164E-01  0.13062191059E+00  0.19823722036E-01 0.  0.
         14    1    1    2    0    0 -0.22127281547E-01 -0.10242892089E-02 -0.79877665560E-02  0.23547190312E-01  0.00000000000E+00 0. -1.
     999901    1    3    3    0    0  0.44621127689E-01 -0.11831856198E+00 -0.35834765608E-01  0.88976089910E+00  0.88000000000E+00 0.  1.
        -11    1    4    4    0    0 -0.75928775964E-02  0.35706146627E-01  0.37815172902E-02  0.36703428875E-01  0.51100000000E-03 0. -1.
         11    1    4    4    0    0 -0.14900968546E-01  0.83636704562E-01  0.40041014874E-01  0.93918481710E-01  0.51100000000E-03 0.  1.
</event>
<event>
 8    1  0.5489035E+004  0.1043930E+01  0.7957747E-01            NaN
         13   -1    0    0    0    0  0.00000000000E+00  0.00000000000E+00  0.74505805969E-08  0.10566000000E+00  0.10566000000E+00 0. -1.
     999900   -1    0    0    0    0 -0.00000000000E+00 -0.00000000000E+00 -0.74505805969E-08  0.93827000000E+00  0.93827000000E+00 0.  1.
     999902    2    1    2    0    0  0.45919694753E-02 -0.13621810723E-02  0.22893562558E-01  0.10205407519E+01  0.10202726936E+01 0.  0.
     999903    2    3    3    0    0  0.25269391851E-01 -0.11917927622E+00  0.46871603546E-01  0.13212453740E+00  0.20437811043E-01 0.  0.
         14    1    1    2    0    0 -0.45919694753E-02  0.13621810723E-02 -0.22893562558E-01  0.23389248118E-01  0.00000000000E+00 0.  1.
     999901    1    3    3    0    0 -0.20677422376E-01  0.11781709514E+00 -0.23978040988E-01  0.88841621448E+00  0.88000000000E+00 0.  1.
        -11    1    4    4    0    0  0.22159728274E-03 -0.36505009638E-01  0.20142295406E-01  0.41696978538E-01  0.51100000000E-03 0. -1.
         11    1    4    4    0    0  0.25047794568E-01 -0.82674266579E-01  0.26729308141E-01  0.90427558862E-01  0.51100000000E-03 0.  1.
</event>
<event>
 8    1  0.5489035E+004  0.1043930E+01  0.7957747E-01            NaN
         13   -1    0    0    0    0  0.00000000000E+00  0.00000000000E+00  0.74505805969E-08  0.10566000000E+00  0.10566000000E+00 0. -1.
     999900   -1    0    0    0    0 -0.00000000000E+00 -0.00000000000E+00 -0.74505805969E-08  0.93827000000E+00  0.93827000000E+00 0.  1.
     999902    2    1    2    0    0 -0.19941394055E-01 -0.12270953790E-01  0.43131381180E-02  0.10201216262E+01  0.10198437594E+01 0.  0.
     999903    2    3    3    0    0  0.37243741393E-01  0.11772433197E+00 -0.28023598463E-01  0.12814932920E+00  0.19769013449E-01 0.  0.
         14    1    1    2    0    0  0.19941394055E-01  0.12270953790E-01 -0.43131381180E-02  0.23808373825E-01  0.00000000000E+00 0.  1.
     999901    1    3    3    0    0 -0.57185135448E-01 -0.12999528576E+00  0.32336736581E-01  0.89197229697E+00  0.88000000000E+00 0. -1.
        -11    1    4    4    0    0  0.23919986497E-01  0.73239307704E-01 -0.76185861231E-02  0.77423936366E-01  0.51100000000E-03 0. -1.
         11    1    4    4    0    0  0.13323754896E-01  0.44485024268E-01 -0.20405012340E-01  0.50725392835E-01  0.51100000000E-03 0.  1.
</event>
<event>
 8    1  0.5489035E+004  0.1043930E+01  0.7957747E-01            NaN
         13   -1    0    0    0    0  0.00000000000E+00  0.00000000000E+00  0.74505805969E-08  0.10566000000E+00  0.10566000000E+00 0.  1.
     999900   -1    0    0    0    0 -0.00000000000E+00 -0.00000000000E+00 -0.74505805969E-08  0.93827000000E+00  0.93827000000E+00 0.  1.
     999902    2    1    2    0    0 -0.12377204057E-01 -0.10165750144E-01  0.16270537614E-01  0.10210987046E+01  0.10208434241E+01 0.  0.
     999903    2    3    3    0    0  0.10995063704E+00  0.62862523371E-01 -0.15017113765E-01  0.12909189599E+00  0.19959069973E-01 0.  0.
         14    1    1    2    0    0  0.12377204057E-01  0.10165750144E-01 -0.16270537614E-01  0.22831295419E-01  0.00000000000E+00 0. -1.
     999901    1    3    3    0    0 -0.12232784110E+00 -0.73028273515E-01  0.31287651379E-01  0.89200680859E+00  0.88000000000E+00 0. -1.
        -11    1    4    4    0    0  0.26120553939E-01  0.18448845794E-01  0.43137310549E-02  0.32272475050E-01  0.51100000000E-03 0.  1.
         11    1    4    4    0    0  0.83830083104E-01  0.44413677577E-01 -0.19330844820E-01  0.96819420942E-01  0.51100000000E-03 0. -1.
</event>
<event>
 8    1  0.5489035E+004  0.1043930E+01  0.7957747E-01            NaN
         13   -1    0    0    0    0  0.00000000000E+00  0.00000000000E+00  0.74505805969E-08  0.10566000000E+00  0.10566000000E+00 0.  1.
     999900   -1    0    0    0    0 -0.00000000000E+00 -0.00000000000E+00 -0.74505805969E-08  0.93827000000E+00  0.93827000000E+00 0.  1.
     999902    2    1    2    0    0  0.54833342237E-03 -0.21152849839E-01  0.20747535470E-01  0.10142954939E+01  0.10138624882E+01 0.  0.
     999903    2    3    3    0    0  0.99235143325E-01  0.66123689065E-01 -0.24485038488E-01  0.12333967765E+00  0.19829348140E-01 0.  0.
         14    1    1    2    0    0 -0.54833342237E-03  0.21152849839E-01 -0.20747535470E-01  0.29634506136E-01  0.00000000000E+00 0.  1.
     999901    1    3    3    0    0 -0.98686809903E-01 -0.87276538904E-01  0.45232573958E-01  0.89095581621E+00  0.88000000000E+00 0. -1.
        -11    1    4    4    0    0  0.68188794068E-01  0.39018551385E-01 -0.23896775218E-01  0.82118670078E-01  0.51100000000E-03 0.  1.
         11    1    4    4    0    0  0.31046349257E-01  0.27105137680E-01 -0.58826327042E-03  0.41221007576E-01  0.51100000000E-03 0. -1.
</event>
<event>
 8    1  0.5489035E+004  0.1043930E+01  0.7957747E-01            NaN
         13   -1    0    0    0    0  0.00000000000E+00  0.00000000000E+00  0.74505805969E-08  0.10566000000E+00  0.10566000000E+00 0.  1.
     999900   -1    0    0    0    0 -0.00000000000E+00 -0.00000000000E+00 -0.74505805969E-08  0.93827000000E+00  0.93827000000E+00 0.  1.
     999902    2    1    2    0    0 -0.15685365047E-01  0.17132447988E-01  0.18548631277E-02  0.10206278119E+01  0.10203617685E+01 0.  0.
     999903    2    3    3    0    0 -0.10436070978E+00 -0.54767309793E-01  0.55165003817E-01  0.13165376113E+00  0.19972961835E-01 0.  0.
         14    1    1    2    0    0  0.15685365047E-01 -0.17132447988E-01 -0.18548631277E-02  0.23302188050E-01  0.00000000000E+00 0.  1.
     999901    1    3    3    0    0  0.88675344737E-01  0.71899757780E-01 -0.53310140690E-01  0.88897405082E+00  0.88000000000E+00 0.  1.
        -11    1    4    4    0    0 -0.41619272151E-01 -0.18643912488E-01  0.31718745046E-01  0.55552670462E-01  0.51100000000E-03 0.  1.
         11    1    4    4    0    0 -0.62741437633E-01 -0.36123397305E-01  0.23446258771E-01  0.76101090666E-01  0.51100000000E-03 0. -1.
</event>
<event>
 8    1  0.5489035E+004  0.1043930E+01  0.7957747E-01            NaN
         13   -1    0    0    0    0  0.00000000000E+00  0.00000000000E+00  0.74505805969E-08  0.10566000000E+00  0.10566000000E+00 0.  1.
     999900   -1    0    0    0    0 -0.00000000000E+00 -0.00000000000E+00 -0.74505805969E-08  0.93827000000E+00  0.93827000000E+00 0. -1.
     999902    2    1    2    0    0 -0.18104354885E-01  0.41656228388E-02 -0.16656115944E-01  0.10189791227E+01  0.10186736014E+01 0.  0.
     999903    2    3    3    0    0  0.10217202507E+00 -0.56568488854E-01 -0.48701899432E-01  0.12814694315E+00  0.20264436590E-01 0.  0.
         14    1    1    2    0    0  0.18104354885E-01 -0.41656228388E-02  0.16656115944E-01  0.24950877294E-01  0.00000000000E+00 0.  1.
     999901    1    3    3    0    0 -0.12027637996E+00  0.60734111693E-01  0.32045783488E-01  0.89083217956E+00  0.88000000000E+00 0.  1.
        -11    1    4    4    0    0  0.56936657194E-01 -0.41334113961E-01 -0.23586182684E-01  0.74208227603E-01  0.51100000000E-03 0.  1.
         11    1    4    4    0    0  0.45235367881E-01 -0.15234374893E-01 -0.25115716748E-01  0.53938715543E-01  0.51100000000E-03 0. -1.
</event>
<event>
 8    1  0.5489035E+004  0.1043930E+01  0.7957747E-01            NaN
         13   -1    0    0    0    0  0.00000000000E+00  0.00000000000E+00  0.74505805969E-08  0.10566000000E+00  0.10566000000E+00 0.  1.
     999900   -1    0    0    0    0 -0.00000000000E+00 -0.00000000000E+00 -0.74505805969E-08  0.93827000000E+00  0.93827000000E+00 0. -1.
     999902    2    1    2    0    0  0.13417634974E-01 -0.12646092959E-01 -0.24088877538E-03  0.10254905146E+01  0.10253247197E+01 0.  0.
     999903    2    3    3    0    0  0.22637247061E-01 -0.14994258889E-01 -0.13165780102E+00  0.13568102937E+00  0.18392727052E-01 0.  0.
         14    1    1    2    0    0 -0.13417634974E-01  0.12646092959E-01  0.24088877538E-03  0.18439485428E-01  0.00000000000E+00 0. -1.
     999901    1    3    3    0    0 -0.92196120871E-02  0.23481659291E-02  0.13141691224E+00  0.88980948520E+00  0.88000000000E+00 0.  1.
        -11    1    4    4    0    0  0.73348597967E-02  0.58958994734E-03 -0.67580020193E-01  0.67981380060E-01  0.51100000000E-03 0.  1.
         11    1    4    4    0    0  0.15302387265E-01 -0.15583848836E-01 -0.64077780824E-01  0.67699649311E-01  0.51100000000E-03 0. -1.
</event>
<event>
 8    1  0.5489035E+004  0.1043930E+01  0.7957747E-01            NaN
         13   -1    0    0    0    0  0.00000000000E+00  0.00000000000E+00  0.74505805969E-08  0.10566000000E+00  0.10566000000E+00 0. -1.
     999900   -1    0    0    0    0 -0.00000000000E+00 -0.00000000000E+00 -0.74505805969E-08  0.93827000000E+00  0.93827000000E+00 0.  1.
     999902    2    1    2    0    0 -0.42948328564E-02  0.67237238193E-03 -0.23484309967E-01  0.10200467320E+01  0.10197670935E+01 0.  0.
     999903    2    3    3    0    0 -0.73093345169E-01  0.10249614193E+00  0.25876959033E-01  0.13013783208E+00  0.20448523449E-01 0.  0.
         14    1    1    2    0    0  0.42948328564E-02 -0.67237238193E-03  0.23484309967E-01  0.23883267961E-01  0.00000000000E+00 0. -1.
     999901    1    3    3    0    0  0.68798512313E-01 -0.10182376955E+00 -0.49361269000E-01  0.88990889996E+00  0.88000000000E+00 0.  1.
        -11    1    4    4    0    0 -0.31099050609E-01  0.39849109539E-01  0.47338748243E-03  0.50552820856E-01  0.51100000000E-03 0.  1.
         11    1    4    4    0    0 -0.41994294560E-01  0.62647032395E-01  0.25403571550E-01  0.79585011227E-01  0.51100000000E-03 0. -1.
</event>
<event>
 8    1  0.5489035E+004  0.1043930E+01  0.7957747E-01            NaN
         13   -1    0    0    0    0  0.00000000000E+00  0.00000000000E+00  0.74505805969E-08  0.10566000000E+00  0.10566000000E+00 0.  1.
     999900   -1    0    0    0    0 -0.00000000000E+00 -0.00000000000E+00 -0.74505805969E-08  0.93827000000E+00  0.93827000000E+00 0.  1.
     999902    2    1    2    0    0  0.17340463481E-01 -0.10693436727E-01  0.11963718429E-01  0.10203043398E+01  0.10200307711E+01 0.  0.
     999903    2    3    3    0    0  0.23157642856E-01 -0.12815413663E+00  0.13180705351E-01  0.13247984323E+00  0.20430827427E-01 0.  0.
         14    1    1    2    0    0 -0.17340463481E-01  0.10693436727E-01 -0.11963718429E-01  0.23625660232E-01  0.00000000000E+00 0. -1.
     999901    1    3    3    0    0 -0.58171793754E-02  0.11746069991E+00 -0.12169869216E-02  0.88782449654E+00  0.88000000000E+00 0.  1.
        -11    1    4    4    0    0 -0.10157845382E-02 -0.29547215475E-01  0.88270552918E-02  0.30858512386E-01  0.51100000000E-03 0.  1.
         11    1    4    4    0    0  0.24173427394E-01 -0.98606921158E-01  0.43536500592E-02  0.10162133084E+00  0.51100000000E-03 0. -1.
</event>
<event>
 8    1  0.5489035E+004  0.1043930E+01  0.7957747E-01            NaN
         13   -1    0    0    0    0  0.00000000000E+00  0.00000000000E+00  0.74505805969E-08  0.10566000000E+00  0.10566000000E+00 0.  1.
     999900   -1    0    0    0    0 -0.00000000000E+00 -0.00000000000E+00 -0.74505805969E-08  0.93827000000E+00  0.93827000000E+00 0. -1.
     999902    2    1    2    0    0 -0.15629245566E-01 -0.70395579484E-02 -0.13463068418E-01  0.10221336034E+01  0.10219011793E+01 0.  0.
     999903    2    3    3    0    0  0.37988824981E-01 -0.11041262077E+00 -0.61482491137E-01  0.13316411430E+00  0.17846203307E-01 0.  0.
         14    1    1    2    0    0  0.15629245566E-01  0.70395579484E-02  0.13463068418E-01  0.21796396590E-01  0.00000000000E+00 0. -1.
     999901    1    3    3    0    0 -0.53618070547E-01  0.10337306282E+00  0.48019422719E-01  0.88896948911E+00  0.88000000000E+00 0.  1.
        -11    1    4    4    0    0  0.35398731315E-01 -0.80949365039E-01 -0.42759755131E-01  0.98155629787E-01  0.51100000000E-03 0.  1.
         11    1    4    4    0    0  0.25900936664E-02 -0.29463255732E-01 -0.18722736006E-01  0.35008484515E-01  0.51100000000E-03 0. -1.
</event>
<event>
 8    1  0.5489035E+004  0.1043930E+01  0.7957747E-01            NaN
         13   -1    0    0    0    0  0.00000000000E+00  0.00000000000E+00  0.74505805969E-08  0.10566000000E+00  0.10566000000E+00 0. -1.
     999900   -1    0    0    0    0 -0.00000000000E+00 -0.00000000000E+00 -0.74505805969E-08  0.93827000000E+00  0.93827000000E+00 0. -1.
     999902    2    1    2    0    0 -0.47806843375E-02 -0.44706228047E-02  0.21593267989E-01  0.10213665199E+01  0.10211172594E+01 0.  0.
     999903    2    3    3    0    0 -0.28046220349E-01  0.10933868967E+00 -0.61153716342E-01  0.12988409822E+00  0.19711986557E-01 0.  0.
         14    1    1    2    0    0  0.47806843375E-02  0.44706228047E-02 -0.21593267989E-01  0.22563480083E-01  0.00000000000E+00 0.  1.
     999901    1    3    3    0    0  0.23265536012E-01 -0.11380931248E+00  0.82746984330E-01  0.89148242169E+00  0.88000000000E+00 0.  1.
        -11    1    4    4    0    0 -0.90969133448E-02  0.12428215976E-01 -0.12277210571E-01  0.19702928847E-01  0.51100000000E-03 0.  1.
         11    1    4    4    0    0 -0.18949307004E-01  0.96910473696E-01 -0.48876505770E-01  0.11018116938E+00  0.51100000000E-03 0. -1.
</event>
<event>
 8    1  0.5489035E+004  0.1043930E+01  0.7957747E-01            NaN
         13   -1    0    0    0    0  0.00000000000E+00  0.00000000000E+00  0.74505805969E-08  0.10566000000E+00  0.10566000000E+00 0.  1.
     999900   -1    0    0    0    0 -0.00000000000E+00 -0.00000000000E+00 -0.74505805969E-08  0.93827000000E+00  0.93827000000E+00 0.  1.
     999902    2    1    2    0    0 -0.17882845517E-01 -0.48267225606E-02 -0.15619844432E-01  0.10197004116E+01  0.10194125055E+01 0.  0.
     999903    2    3    3    0    0 -0.36763118799E-01  0.11896632597E+00  0.29724266193E-01  0.12967947254E+00  0.20705554286E-01 0.  0.
         14    1    1    2    0    0  0.17882845517E-01  0.48267225606E-02  0.15619844432E-01  0.24229588410E-01  0.00000000000E+00 0.  1.
     999901    1    3    3    0    0  0.18880273282E-01 -0.12379304853E+00 -0.45344110625E-01  0.89002093905E+00  0.88000000000E+00 0.  1.
        -11    1    4    4    0    0 -0.32474890560E-01  0.81019257733E-01  0.27101815662E-01  0.91397528269E-01  0.51100000000E-03 0.  1.
         11    1    4    4    0    0 -0.42882282393E-02  0.37947068236E-01  0.26224505313E-02  0.38281944268E-01  0.51100000000E-03 0. -1.
</event>
<event>
 8    1  0.5489035E+004  0.1043930E+01  0.7957747E-01            NaN
         13   -1    0    0    0    0  0.00000000000E+00  0.00000000000E+00  0.74505805969E-08  0.10566000000E+00  0.10566000000E+00 0.  1.
     999900   -1    0    0    0    0 -0.00000000000E+00 -0.00000000000E+00 -0.74505805969E-08  0.93827000000E+00  0.93827000000E+00 0.  1.
     999902    2    1    2    0    0 -0.22789367152E-01  0.54897892148E-02 -0.49153385875E-02  0.10199789333E+01  0.10196976860E+01 0.  0.
     999903    2    3    3    0    0  0.10270379147E+00 -0.50733804708E-01  0.52456054094E-01  0.12745380648E+00  0.19257399924E-01 0.  0.
         14    1    1    2    0    0  0.22789367152E-01 -0.54897892148E-02  0.49153385875E-02  0.23951066662E-01  0.00000000000E+00 0.  1.
     999901    1    3    3    0    0 -0.12549315863E+00  0.56223593922E-01 -0.57371392682E-01  0.89252512686E+00  0.88000000000E+00 0. -1.
        -11    1    4    4    0    0  0.60024153273E-01 -0.33185572174E-01  0.21484311549E-01  0.71875016107E-01  0.51100000000E-03 0.  1.
         11    1    4    4    0    0  0.42679638201E-01 -0.17548232534E-01  0.30971742545E-01  0.55578790373E-01  0.51100000000E-03 0. -1.
</event>
<event>
 8    1  0.5489035E+004  0.1043930E+01  0.7957747E-01            NaN
         13   -1    0    0    0    0  0.00000000000E+00  0.00000000000E+00  0.74505805969E-08  0.10566000000E+00  0.10566000000E+00 0.  1.
     999900   -1    0    0    0    0 -0.00000000000E+00 -0.00000000000E+00 -0.74505805969E-08  0.93827000000E+00  0.93827000000E+00 0.  1.
     999902    2    1    2    0    0 -0.23625924234E-01 -0.18199381000E-03 -0.64438358491E-02  0.10194404014E+01  0.10191462072E+01 0.  0.
     999903    2    3    3    0    0  0.52184176389E-01  0.69598371730E-01  0.91774557404E-01  0.12800149520E+00  0.19866851122E-01 0.  0.
         14    1    1    2    0    0  0.23625924234E-01  0.18199381000E-03  0.64438358491E-02  0.24489598570E-01  0.00000000000E+00 0.  1.
     999901    1    3    3    0    0 -0.75810100623E-01 -0.69780365540E-01 -0.98218393253E-01  0.89143890623E+00  0.88000000000E+00 0.  1.
        -11    1    4    4    0    0  0.11487928429E-01  0.22938670284E-01  0.38793398459E-01  0.46511761727E-01  0.51100000000E-03 0.  1.
         11    1    4    4    0    0  0.40696247960E-01  0.46659701445E-01  0.52981158945E-01  0.81489733471E-01  0.51100000000E-03 0. -1.
</event>
<event>
 8    1  0.5489035E+004  0.1043930E+01  0.7957747E-01            NaN
         13   -1    0    0    0    0  0.00000000000E+00  0.00000000000E+00  0.74505805969E-08  0.10566000000E+00  0.10566000000E+00 0. -1.
     999900   -1    0    0    0    0 -0.00000000000E+00 -0.00000000000E+00 -0.74505805969E-08  0.93827000000E+00  0.93827000000E+00 0. -1.
     999902    2    1    2    0    0 -0.17935670087E-01 -0.49108135371E-02  0.14362831968E-01  0.10204332919E+01  0.10201627360E+01 0.  0.
     999903    2    3    3    0    0 -0.82759879718E-03  0.73187636754E-01 -0.10421130412E+00  0.12888863242E+00  0.19878847234E-01 0.  0.
         14    1    1    2    0    0  0.17935670087E-01  0.49108135371E-02 -0.14362831968E-01  0.23496708136E-01  0.00000000000E+00 0.  1.
     999901    1    3    3    0    0 -0.17108071290E-01 -0.78098450291E-01  0.11857413608E+00  0.89154465945E+00  0.88000000000E+00 0.  1.
        -11    1    4    4    0    0 -0.35149702724E-02  0.27682614858E-01 -0.24866809160E-01  0.37380496254E-01  0.51100000000E-03 0. -1.
         11    1    4    4    0    0  0.26873714752E-02  0.45505021896E-01 -0.79344494956E-01  0.91508136163E-01  0.51100000000E-03 0.  1.
</event>
<event>
 8    1  0.5489035E+004  0.1043930E+01  0.7957747E-01            NaN
         13   -1    0    0    0    0  0.00000000000E+00  0.00000000000E+00  0.74505805969E-08  0.10566000000E+00  0.10566000000E+00 0.  1.
     999900   -1    0    0    0    0 -0.00000000000E+00 -0.00000000000E+00 -0.74505805969E-08  0.93827000000E+00  0.93827000000E+00 0. -1.
     999902    2    1    2    0    0 -0.76166215096E-02  0.23732227098E-01 -0.12091183550E-01  0.10162275047E+01  0.10158498477E+01 0.  0.
     999903    2    3    3    0    0 -0.54409204814E-01  0.54796310863E-01  0.99098739141E-01  0.12745434913E+00  0.21472162445E-01 0.  0.
         14    1    1    2    0    0  0.76166215096E-02 -0.23732227098E-01  0.12091183550E-01  0.27702495301E-01  0.00000000000E+00 0.  1.
     999901    1    3    3    0    0  0.46792583305E-01 -0.31064083764E-01 -0.11118992269E+00  0.88877315557E+00  0.88000000000E+00 0. -1.
        -11    1    4    4    0    0 -0.33495117477E-01  0.34462570255E-01  0.77352156018E-01  0.91067056640E-01  0.51100000000E-03 0.  1.
         11    1    4    4    0    0 -0.20914087337E-01  0.20333740607E-01  0.21746583124E-01  0.36387292490E-01  0.51100000000E-03 0. -1.
</event>
<event>
 8    1  0.5489035E+004  0.1043930E+01  0.7957747E-01            NaN
         13   -1    0    0    0    0  0.00000000000E+00  0.00000000000E+00  0.74505805969E-08  0.10566000000E+00  0.10566000000E+00 0. -1.
     999900   -1    0    0    0    0 -0.00000000000E+00 -0.00000000000E+00 -0.74505805969E-08  0.93827000000E+00  0.93827000000E+00 0.  1.
     999902    2    1    2    0    0 -0.22794766850E-01  0.69541034767E-02  0.11403029180E-03  0.10200977959E+01  0.10198193660E+01 0.  0.
     999903    2    3    3    0    0 -0.45564096789E-01 -0.78130978213E-01  0.92549881436E-01  0.13088336724E+00  0.19607105660E-01 0.  0.
         14    1    1    2    0    0  0.22794766850E-01 -0.69541034767E-02 -0.11403029180E-03  0.23832204132E-01  0.00000000000E+00 0. -1.
     999901    1    3    3    0    0  0.22769329940E-01  0.85085081689E-01 -0.92435851144E-01  0.88921442863E+00  0.88000000000E+00 0. -1.
        -11    1    4    4    0    0 -0.27658630219E-01 -0.63991995367E-01  0.70597984317E-01  0.99218505367E-01  0.51100000000E-03 0.  1.
         11    1    4    4    0    0 -0.17905466570E-01 -0.14138982846E-01  0.21951897119E-01  0.31664861868E-01  0.51100000000E-03 0. -1.
</event>
<event>
 8    1  0.5489035E+004  0.1043930E+01  0.7957747E-01            NaN
         13   -1    0    0    0    0  0.00000000000E+00  0.00000000000E+00  0.74505805969E-08  0.10566000000E+00  0.10566000000E+00 0. -1.
     999900   -1    0    0    0    0 -0.00000000000E+00 -0.00000000000E+00 -0.74505805969E-08  0.93827000000E+00  0.93827000000E+00 0. -1.
     999902    2    1    2    0    0  0.18830312209E-01 -0.15426146699E-01  0.96006170509E-02  0.10177628735E+01  0.10174264338E+01 0.  0.
     999903    2    3    3    0    0 -0.12950951997E-01  0.12230835931E+00  0.20749472332E-01  0.12641269550E+00  0.20556436138E-01 0.  0.
         14    1    1    2    0    0 -0.18830312209E-01  0.15426146699E-01 -0.96006170509E-02  0.26167126469E-01  0.00000000000E+00 0.  1.
     999901    1    3    3    0    0  0.31781264207E-01 -0.13773450601E+00 -0.11148855281E-01  0.89135017803E+00  0.88000000000E+00 0. -1.
        -11    1    4    4    0    0 -0.11122649705E-01  0.27709729959E-01  0.81848067816E-02  0.30964409471E-01  0.51100000000E-03 0. -1.
         11    1    4    4    0    0 -0.18283022927E-02  0.94598629353E-01  0.12564665550E-01  0.95448286030E-01  0.51100000000E-03 0.  1.
</event>
<event>
 8    1  0.5489035E+004  0.1043930E+01  0.7957747E-01            NaN
         13   -1    0    0    0    0  0.00000000000E+00  0.00000000000E+00  0.74505805969E-08  0.10566000000E+00  0.10566000000E+00 0. -1.
     999900   -1    0    0    0    0 -0.00000000000E+00 -0.00000000000E+00 -0.74505805969E-08  0.93827000000E+00  0.93827000000E+00 0. -1.
     999902    2    1    2    0    0 -0.26801125617E-03  0.21958826707E-01  0.63294587301E-02  0.10210755924E+01  0.10208197889E+01 0.  0.
     999903    2    3    3    0    0 -0.12630494131E+00  0.32386510907E-01 -0.32671900398E-02  0.13198271758E+00  0.20172727167E-01 0.  0.
         14    1    1    2    0    0  0.26801125617E-03 -0.21958826707E-01 -0.63294587301E-02  0.22854407631E-01  0.00000000000E+00 0.  1.
     999901    1    3    3    0    0  0.12603693005E+00 -0.10427684200E-01  0.95966487699E-02  0.88909287479E+00  0.88000000000E+00 0.  1.
        -11    1    4    4    0    0 -0.52399771252E-01  0.36892021957E-02  0.15369559430E-02  0.52554444100E-01  0.51100000000E-03 0.  1.
         11    1    4    4    0    0 -0.73905170055E-01  0.28697308711E-01 -0.48041459828E-02  0.79428273479E-01  0.51100000000E-03 0. -1.
</event>
<event>
 8    1  0.5489035E+004  0.1043930E+01  0.7957747E-01            NaN
         13   -1    0    0    0    0  0.00000000000E+00  0.00000000000E+00  0.74505805969E-08  0.10566000000E+00  0.10566000000E+00 0. -1.
     999900   -1    0    0    0    0 -0.00000000000E+00 -0.00000000000E+00 -0.74505805969E-08  0.93827000000E+00  0.93827000000E+00 0. -1.
     999902    2    1    2    0    0  0.13576785853E-01  0.84618241289E-02 -0.17781046365E-01  0.10200114467E+01  0.10197309715E+01 0.  0.
     999903    2    3    3    0    0 -0.20133161308E-01 -0.10289055853E+00 -0.75296845729E-01  0.13049259877E+00  0.19154428701E-01 0.  0.
         14    1    1    2    0    0 -0.13576785853E-01 -0.84618241289E-02  0.17781046365E-01  0.23918553291E-01  0.00000000000E+00 0. -1.
     999901    1    3    3    0    0  0.33709947162E-01  0.11135238266E+00  0.57515799364E-01  0.88951884794E+00  0.88000000000E+00 0. -1.
        -11    1    4    4    0    0 -0.20791886259E-01 -0.69414999621E-01 -0.44756541604E-01  0.85171320549E-01  0.51100000000E-03 0.  1.
         11    1    4    4    0    0  0.65872495101E-03 -0.33475558906E-01 -0.30540304125E-01  0.45321278222E-01  0.51100000000E-03 0. -1.
</event>
<event>
 8    1  0.5489035E+004  0.1043930E+01  0.7957747E-01            NaN
         13   -1    0    0    0    0  0.00000000000E+00  0.00000000000E+00  0.74505805969E-08  0.10566000000E+00  0.10566000000E+00 0.  1.
     999900   -1    0    0    0    0 -0.00000000000E+00 -0.00000000000E+00 -0.74505805969E-08  0.93827000000E+00  0.93827000000E+00 0.  1.
     999902    2    1    2    0    0 -0.22872406399E-01  0.48877306242E-02 -0.17388807247E-02  0.10204766294E+01  0.10202070822E+01 0.  0.
     999903    2    3    3    0    0 -0.69461603556E-01 -0.54982176149E-01  0.95735854624E-01  0.13185056462E+00  0.19268198308E-01 0.  0.
         14    1    1    2    0    0  0.22872406399E-01 -0.48877306242E-02  0.17388807247E-02  0.23453370575E-01  0.00000000000E+00 0. -1.
     999901    1    3    3    0    0  0.46589197157E-01  0.59869906774E-01 -0.97474735349E-01  0.88862606481E+00  0.88000000000E+00 0.  1.
        -11    1    4    4    0    0 -0.17174337051E-01 -0.46206801076E-02  0.14972074133E-01  0.23253659123E-01  0.51100000000E-03 0.  1.
         11    1    4    4    0    0 -0.52287266505E-01 -0.50361496042E-01  0.80763780491E-01  0.10859690549E+00  0.51100000000E-03 0. -1.
</event>
<event>
 8    1  0.5489035E+004  0.1043930E+01  0.7957747E-01            NaN
         13   -1    0    0    0    0  0.00000000000E+00  0.00000000000E+00  0.74505805969E-08  0.10566000000E+00  0.10566000000E+00 0.  1.
     999900   -1    0    0    0    0 -0.00000000000E+00 -0.00000000000E+00 -0.74505805969E-08  0.93827000000E+00  0.93827000000E+00 0. -1.
     999902    2    1    2    0    0 -0.11405196523E-01 -0.24564349605E-01  0.61948011388E-02  0.10161476074E+01  0.10157677385E+01 0.  0.
     999903    2    3    3    0    0 -0.84295614640E-01 -0.49844427833E-01 -0.80871519232E-01  0.12849190860E+00  0.19487183471E-01 0.  0.
         14    1    1    2    0    0  0.11405196523E-01  0.24564349605E-01 -0.61948011388E-02  0.27782392633E-01  0.00000000000E+00 0.  1.
     999901    1    3    3    0    0  0.72890418117E-01  0.25280078228E-01  0.87066320371E-01  0.88765569877E+00  0.88000000000E+00 0.  1.
        -11    1    4    4    0    0 -0.33764612086E-01 -0.24418421223E-01 -0.45854606668E-01  0.61961394416E-01  0.51100000000E-03 0. -1.
         11    1    4    4    0    0 -0.50531002554E-01 -0.25426006610E-01 -0.35016912564E-01  0.66530514185E-01  0.51100000000E-03 0.  1.
</event>
<event>
 8    1  0.5489035E+004  0.1043930E+01  0.7957747E-01            NaN
         13   -1    0    0    0    0  0.00000000000E+00  0.00000000000E+00  0.74505805969E-08  0.10566000000E+00  0.10566000000E+00 0. -1.
     999900   -1    0    0    0    0 -0.00000000000E+00 -0.00000000000E+00 -0.74505805969E-08  0.93827000000E+00  0.93827000000E+00 0.  1.
     999902    2    1    2    0    0 -0.24415334935E-02 -0.21341117484E-01  0.72701666772E-02  0.10212527051E+01  0.10210008952E+01 0.  0.
     999903    2    3    3    0    0 -0.49296404204E-01 -0.25947029982E-01 -0.11703811444E+00  0.13127004115E+00  0.20748967202E-01 0.  0.
         14    1    1    2    0    0  0.24415334935E-02  0.21341117484E-01 -0.72701666772E-02  0.22677294918E-01  0.00000000000E+00 0.  1.
     999901    1    3    3    0    0  0.46854870710E-01  0.46059124984E-02  0.12430828112E+00  0.88998266393E+00  0.88000000000E+00 0. -1.
        -11    1    4    4    0    0 -0.20735822236E-01 -0.87002559226E-02 -0.26387537457E-01  0.34673217776E-01  0.51100000000E-03 0. -1.
         11    1    4    4    0    0 -0.28560581968E-01 -0.17246774060E-01 -0.90650576986E-01  0.96596823377E-01  0.51100000000E-03 0.  1.
</event>
<event>
 8    1  0.5489035E+004  0.1043930E+01  0.7957747E-01            NaN
         13   -1    0    0    0    0  0.00000000000E+00  0.00000000000E+00  0.74505805969E-08  0.10566000000E+00  0.10566000000E+00 0. -1.
     999900   -1    0    0    0    0 -0.00000000000E+00 -0.00000000000E+00 -0.74505805969E-08  0.93827000000E+00  0.93827000000E+00 0. -1.
     999902    2    1    2    0    0  0.21323332317E-02 -0.21669475493E-01  0.11354962854E-01  0.10193729604E+01  0.10190771238E+01 0.  0.
     999903    2    3    3    0    0 -0.45022361020E-01  0.11591714980E+00  0.19259957153E-01  0.12739979174E+00  0.19898803420E-01 0.  0.
         14    1    1    2    0    0 -0.21323332317E-02  0.21669475493E-01 -0.11354962854E-01  0.24557039614E-01  0.00000000000E+00 0.  1.
     999901    1    3    3    0    0  0.47154694252E-01 -0.13758662529E+00 -0.79049942992E-02  0.89197316865E+00  0.88000000000E+00 0. -1.
        -11    1    4    4    0    0 -0.43651149185E-01  0.10986927485E+00  0.13627782689E-01  0.11900696603E+00  0.51100000000E-03 0.  1.
         11    1    4    4    0    0 -0.13712118357E-02  0.60478749469E-02  0.56321744642E-02  0.83928257141E-02  0.51100000000E-03 0. -1.
</event>
<event>
 8    1  0.5489035E+004  0.1043930E+01  0.7957747E-01            NaN
         13   -1    0    0    0    0  0.00000000000E+00  0.00000000000E+00  0.74505805969E-08  0.10566000000E+00  0.10566000000E+00 0. -1.
     999900   -1    0    0    0    0 -0.00000000000E+00 -0.00000000000E+00 -0.74505805969E-08  0.93827000000E+00  0.93827000000E+00 0. -1.
     999902    2    1    2    0    0 -0.13105700535E-01 -0.16457741961E-01 -0.11475008140E-01  0.10199656000E+01  0.10196840357E+01 0.  0.
     999903    2    3    3    0    0  0.35342255647E-01  0.11592219348E+00 -0.37693514628E-01  0.12836083223E+00  0.19200839335E-01 0.  0.
         14    1    1    2    0    0  0.13105700535E-01  0.16457741961E-01  0.11475008140E-01  0.23964400030E-01  0.00000000000E+00 0. -1.
     999901    1    3    3    0    0 -0.48447956182E-01 -0.13237993544E+00  0.26218506488E-01  0.89160476774E+00  0.88000000000E+00 0.  1.
        -11    1    4    4    0    0  0.24910018417E-01  0.92487852131E-01 -0.21979615791E-01  0.98274495372E-01  0.51100000000E-03 0.  1.
         11    1    4    4    0    0  0.10432237230E-01  0.23434341351E-01 -0.15713898836E-01  0.30086336863E-01  0.51100000000E-03 0. -1.
</event>
<event>
 8    1  0.5489035E+004  0.1043930E+01  0.7957747E-01            NaN
         13   -1    0    0    0    0  0.00000000000E+00  0.00000000000E+00  0.74505805969E-08  0.10566000000E+00  0.10566000000E+00 0. -1.
     999900   -1    0    0    0    0 -0.00000000000E+00 -0.00000000000E+00 -0.74505805969E-08  0.93827000000E+00  0.93827000000E+00 0.  1.
     999902    2    1    2    0    0  0.12219349022E-01  0.10201788661E-01 -0.91614746280E-02  0.10255636830E+01  0.10253992131E+01 0.  0.
     999903    2    3    3    0    0 -0.95253190209E-02  0.54270162896E-01  0.12102693428E+00  0.13462941270E+00  0.21013749308E-01 0.  0.
         14    1    1    2    0    0 -0.12219349022E-01 -0.10201788661E-01  0.91614746280E-02  0.18366316990E-01  0.00000000000E+00 0. -1.
     999901    1    3    3    0    0  0.21744668043E-01 -0.44068374235E-01 -0.13018840891E+00  0.89093427031E+00  0.88000000000E+00 0.  1.
        -11    1    4    4    0    0 -0.94197660740E-02  0.33073785907E-01  0.51395984603E-01  0.61841860107E-01  0.51100000000E-03 0.  1.
         11    1    4    4    0    0 -0.10555294689E-03  0.21196376989E-01  0.69630949677E-01  0.72787552595E-01  0.51100000000E-03 0. -1.
</event>
<event>
 8    1  0.5489035E+004  0.1043930E+01  0.7957747E-01            NaN
         13   -1    0    0    0    0  0.00000000000E+00  0.00000000000E+00  0.74505805969E-08  0.10566000000E+00  0.10566000000E+00 0. -1.
     999900   -1    0    0    0    0 -0.00000000000E+00 -0.00000000000E+00 -0.74505805969E-08  0.93827000000E+00  0.93827000000E+00 0.  1.
     999902    2    1    2    0    0  0.18966739978E-01 -0.55871488988E-02  0.10501108119E-01  0.10215419065E+01  0.10212965485E+01 0.  0.
     999903    2    3    3    0    0  0.89210122613E-01 -0.79447570194E-01 -0.56303756715E-01  0.13314313085E+00  0.16929792845E-01 0.  0.
         14    1    1    2    0    0 -0.18966739978E-01  0.55871488988E-02 -0.10501108119E-01  0.22388093485E-01  0.00000000000E+00 0. -1.
     999901    1    3    3    0    0 -0.70243382635E-01  0.73860421295E-01  0.66804864834E-01  0.88839877567E+00  0.88000000000E+00 0. -1.
        -11    1    4    4    0    0  0.24863589569E-01 -0.14036273681E-01 -0.92010678093E-02  0.30002263830E-01  0.51100000000E-03 0. -1.
         11    1    4    4    0    0  0.64346533043E-01 -0.65411296514E-01 -0.47102688906E-01  0.10314086702E+00  0.51100000000E-03 0.  1.
</event>
<event>
 8    1  0.5489035E+004  0.1043930E+01  0.7957747E-01            NaN
         13   -1    0    0    0    0  0.00000000000E+00  0.00000000000E+00  0.74505805969E-08  0.10566000000E+00  0.10566000000E+00 0. -1.
     999900   -1    0    0    0    0 -0.00000000000E+00 -0.00000000000E+00 -0.74505805969E-08  0.93827000000E+00  0.93827000000E+00 0.  1.
     999902    2    1    2    0    0  0.37354274158E-02  0.18437885964E-01 -0.13493432483E-01  0.10207787198E+01  0.10205161503E+01 0.  0.
     999903    2    3    3    0    0 -0.46206000779E-01 -0.11782865345E+00 -0.13971496751E-01  0.12889142611E+00  0.19980263323E-01 0.  0.
         14    1    1    2    0    0 -0.37354274158E-02 -0.18437885964E-01  0.13493432483E-01  0.23151280244E-01  0.00000000000E+00 0. -1.
     999901    1    3    3    0    0  0.49941428195E-01  0.13626653941E+00  0.47806426809E-03  0.89188729364E+00  0.88000000000E+00 0. -1.
        -11    1    4    4    0    0 -0.18497632848E-01 -0.66792481803E-01 -0.14523614687E-01  0.70813801980E-01  0.51100000000E-03 0.  1.
         11    1    4    4    0    0 -0.27708367931E-01 -0.51036171647E-01  0.55211793637E-03  0.58077624134E-01  0.51100000000E-03 0. -1.
</event>
<event>
 8    1  0.5489035E+004  0.1043930E+01  0.7957747E-01            NaN
         13   -1    0    0    0    0  0.00000000000E+00  0.00000000000E+00  0.74505805969E-08  0.10566000000E+00  0.10566000000E+00 0.  1.
     999900   -1    0    0    0    0 -0.00000000000E+00 -0.00000000000E+00 -0.74505805969E-08  0.93827000000E+00  0.93827000000E+00 0. -1.
     999902    2    1    2    0    0  0.40684488694E-02 -0.20457432134E-04 -0.23287644964E-01  0.10202896298E+01  0.10200157163E+01 0.  0.
     999903    2    3    3    0    0 -0.91523730143E-01 -0.44037077990E-01  0.76489121313E-01  0.12842039575E+00  0.18037598190E-01 0.  0.
         14    1    1    2    0    0 -0.40684488694E-02  0.20457432134E-04  0.23287644964E-01  0.23640370189E-01  0.00000000000E+00 0.  1.
     999901    1    3    3    0    0  0.95592179012E-01  0.44016620558E-01 -0.99776766277E-01  0.89186923406E+00  0.88000000000E+00 0.  1.
        -11    1    4    4    0    0 -0.75891446155E-01 -0.35540680290E-01  0.70879451021E-01  0.10975795758E+00  0.51100000000E-03 0.  1.
         11    1    4    4    0    0 -0.15632283987E-01 -0.84963977000E-02  0.56096702919E-02  0.18662438167E-01  0.51100000000E-03 0. -1.
</event>
<event>
 8    1  0.5489035E+004  0.1043930E+01  0.7957747E-01            NaN
         13   -1    0    0    0    0  0.00000000000E+00  0.00000000000E+00  0.74505805969E-08  0.10566000000E+00  0.10566000000E+00 0.  1.
     999900   -1    0    0    0    0 -0.00000000000E+00 -0.00000000000E+00 -0.74505805969E-08  0.93827000000E+00  0.93827000000E+00 0.  1.
     999902    2    1    2    0    0  0.18922172093E-01 -0.99287224237E-02  0.92252394028E-02  0.10206548380E+01  0.10203894184E+01 0.  0.
     999903    2    3    3    0    0  0.13823974415E-01  0.71525112114E-01 -0.10512938229E+00  0.12951079894E+00  0.20344927887E-01 0.  0.
         14    1    1    2    0    0 -0.18922172093E-01  0.99287224237E-02 -0.92252394028E-02  0.23275162034E-01  0.00000000000E+00 0. -1.
     999901    1    3    3    0    0  0.50981976776E-02 -0.81453834538E-01  0.11435462169E+00  0.89114403902E+00  0.88000000000E+00 0. -1.
        -11    1    4    4    0    0  0.80721589539E-02  0.48468216499E-01 -0.53320815186E-01  0.72509986994E-01  0.51100000000E-03 0. -1.
         11    1    4    4    0    0  0.57518154615E-02  0.23056895615E-01 -0.51808567105E-01  0.57000811951E-01  0.51100000000E-03 0.  1.
</event>
<event>
 7    1  0.5489035E+004  0.1043930E+01  0.7957747E-01            NaN
         13   -1    0    0    0    0  0.00000000000E+00  0.00000000000E+00  0.74505805969E-08  0.10566000000E+00  0.10566000000E+00 0. -1.
     999900   -1    0    0    0    0 -0.00000000000E+00 -0.00000000000E+00 -0.74505805969E-08  0.93827000000E+00  0.93827000000E+00 0. -1.
     999902    2    1    2    0    0  0.12321402057E-01  0.89333193005E-02  0.17498371573E-01  0.10207391796E+01  0.10204757021E+01 0.  0.
         14    1    1    2    0    0 -0.12321402057E-01 -0.89333193005E-02 -0.17498371573E-01  0.23190820384E-01  0.00000000000E+00 0.  1.
     999901    1    3    3    0    0  0.35182660125E-01 -0.34705582801E-01  0.12719947488E+00  0.89051782883E+00  0.88000000000E+00 0.  1.
        -11    1    3    3    0    0 -0.28728452264E-01  0.91543914577E-02 -0.75488772278E-01  0.81289253370E-01  0.51100000000E-03 0.  1.
         11    1    3    3    0    0  0.58671941952E-02  0.34484510644E-01 -0.34212331030E-01  0.48932097417E-01  0.51100000000E-03 0. -1.
</event>
<event>
 8    1  0.5489035E+004  0.1043930E+01  0.7957747E-01            NaN
         13   -1    0    0    0    0  0.00000000000E+00  0.00000000000E+00  0.74505805969E-08  0.10566000000E+00  0.10566000000E+00 0. -1.
     999900   -1    0    0    0    0 -0.00000000000E+00 -0.00000000000E+00 -0.74505805969E-08  0.93827000000E+00  0.93827000000E+00 0. -1.
     999902    2    1    2    0    0 -0.10021710346E-01 -0.27244525100E-02  0.17191590559E-01  0.10238449781E+01  0.10236479527E+01 0.  0.
     999903    2    3    3    0    0 -0.10512553286E+00  0.58969657573E-01  0.57694546697E-01  0.13564939729E+00  0.23308798610E-01 0.  0.
         14    1    1    2    0    0  0.10021710346E-01  0.27244525100E-02 -0.17191590559E-01  0.20085021924E-01  0.00000000000E+00 0.  1.
     999901    1    3    3    0    0  0.95103822514E-01 -0.61694110083E-01 -0.40502956137E-01  0.88819558079E+00  0.88000000000E+00 0. -1.
        -11    1    4    4    0    0 -0.85479946335E-01  0.44438336733E-01  0.35623020116E-01  0.10271731928E+00  0.51100000000E-03 0.  1.
         11    1    4    4    0    0 -0.19645586525E-01  0.14531320840E-01  0.22071526581E-01  0.32932078007E-01  0.51100000000E-03 0. -1.
</event>
<event>
 8    1  0.5489035E+004  0.1043930E+01  0.7957747E-01            NaN
         13   -1    0    0    0    0  0.00000000000E+00  0.00000000000E+00  0.74505805969E-08  0.10566000000E+00  0.10566000000E+00 0.  1.
     999900   -1    0    0    0    0 -0.00000000000E+00 -0.00000000000E+00 -0.74505805969E-08  0.93827000000E+00  0.93827000000E+00 0.  1.
     999902    2    1    2    0    0  0.22476300282E-01 -0.56472793995E-02  0.73941421385E-02  0.10196041048E+01  0.10193138777E+01 0.  0.
     999903    2    3    3    0    0 -0.73319322652E-03  0.12175847373E+00  0.39683293343E-01  0.12954034540E+00  0.19500610743E-01 0.  0.
         14    1    1    2    0    0 -0.22476300282E-01  0.56472793995E-02 -0.73941421385E-02  0.24325895194E-01  0.00000000000E+00 0. -1.
     999901    1    3    3    0    0  0.23209493509E-01 -0.12740575313E+00 -0.32289151204E-01  0.89006375940E+00  0.88000000000E+00 0.  1.
        -11    1    4    4    0    0 -0.68520606806E-02  0.10276487186E+00  0.29524322868E-01  0.10714250504E+00  0.51100000000E-03 0.  1.
         11    1    4    4    0    0  0.61188674541E-02  0.18993601865E-01  0.10158970474E-01  0.22397840361E-01  0.51100000000E-03 0. -1.
</event>
<event>
 8    1  0.5489035E+004  0.1043930E+01  0.7957747E-01            NaN
         13   -1    0    0    0    0  0.00000000000E+00  0.00000000000E+00  0.74505805969E-08  0.10566000000E+00  0.10566000000E+00 0.  1.
     999900   -1    0    0    0    0 -0.00000000000E+00 -0.00000000000E+00 -0.74505805969E-08  0.93827000000E+00  0.93827000000E+00 0. -1.
     999902    2    1    2    0    0 -0.39084974160E-02  0.16149269433E-01 -0.18168875224E-01  0.10193092104E+01  0.10190118169E+01 0.  0.
     999903    2    3    3    0    0 -0.11761220145E+00  0.97712377983E-02  0.51502672567E-01  0.12923992308E+00  0.11060082202E-01 0.  0.
         14    1    1    2    0    0  0.39084974160E-02 -0.16149269433E-01  0.18168875224E-01  0.24620789633E-01  0.00000000000E+00 0.  1.
     999901    1    3    3    0    0  0.11370370403E+00  0.63780316347E-02 -0.69671547791E-01  0.89006928729E+00  0.88000000000E+00 0. -1.
        -11    1    4    4    0    0 -0.66417452558E-01  0.10985885034E-01  0.28990293977E-01  0.73298471608E-01  0.51100000000E-03 0. -1.
         11    1    4    4    0    0 -0.51194748892E-01 -0.12146472357E-02  0.22512378590E-01  0.55941451472E-01  0.51100000000E-03 0.  1.
</event>
<event>
 8    1  0.5489035E+004  0.1043930E+01  0.7957747E-01            NaN
         13   -1    0    0    0    0  0.00000000000E+00  0.00000000000E+00  0.74505805969E-08  0.10566000000E+00  0.10566000000E+00 0.  1.
     999900   -1    0    0    0    0 -0.00000000000E+00 -0.00000000000E+00 -0.74505805969E-08  0.93827000000E+00  0.93827000000E+00 0. -1.
     999902    2    1    2    0    0 -0.17442425534E-01  0.46301465112E-02  0.15496470776E-01  0.10201430903E+01  0.10198657302E+01 0.  0.
     999903    2    3    3    0    0  0.70620347965E-01  0.10294623900E+00  0.30260151690E-01  0.13017731998E+00  0.21102042231E-01 0.  0.
         14    1    1    2    0    0  0.17442425534E-01 -0.46301465112E-02 -0.15496470776E-01  0.23786909672E-01  0.00000000000E+00 0. -1.
     999901    1    3    3    0    0 -0.88062773499E-01 -0.98316092486E-01 -0.14763680913E-01  0.88996577035E+00  0.88000000000E+00 0.  1.
        -11    1    4    4    0    0  0.52974809000E-01  0.74562693625E-01  0.12471327451E-01  0.92313166984E-01  0.51100000000E-03 0. -1.
         11    1    4    4    0    0  0.17645538964E-01  0.28383545372E-01  0.17788824239E-01  0.37864152995E-01  0.51100000000E-03 0.  1.
</event>
<event>
 8    1  0.5489035E+004  0.1043930E+01  0.7957747E-01            NaN
         13   -1    0    0    0    0  0.00000000000E+00  0.00000000000E+00  0.74505805969E-08  0.10566000000E+00  0.10566000000E+00 0.  1.
     999900   -1    0    0    0    0 -0.00000000000E+00 -0.00000000000E+00 -0.74505805969E-08  0.93827000000E+00  0.93827000000E+00 0. -1.
     999902    2    1    2    0    0 -0.15475665238E-02  0.21422852478E-01 -0.89699149917E-02  0.10206535538E+01  0.10203881046E+01 0.  0.
     999903    2    3    3    0    0  0.35592584363E-01  0.12547471016E+00 -0.21420026069E-01  0.13365795907E+00  0.19872029438E-01 0.  0.
         14    1    1    2    0    0  0.15475665238E-02 -0.21422852478E-01  0.89699149917E-02  0.23276446150E-01  0.00000000000E+00 0.  1.
     999901    1    3    3    0    0 -0.37140150886E-01 -0.10405185768E+00  0.12450111077E-01  0.88699559478E+00  0.88000000000E+00 0.  1.
        -11    1    4    4    0    0  0.17855675717E-01  0.53812593403E-01 -0.18976677836E-01  0.59791268483E-01  0.51100000000E-03 0. -1.
         11    1    4    4    0    0  0.17736908645E-01  0.71662116758E-01 -0.24433482334E-02  0.73866690586E-01  0.51100000000E-03 0.  1.
</event>
<event>
 8    1  0.5489035E+004  0.1043930E+01  0.7957747E-01            NaN
         13   -1    0    0    0    0  0.00000000000E+00  0.00000000000E+00  0.74505805969E-08  0.10566000000E+00  0.10566000000E+00 0.  1.
     999900   -1    0    0    0    0 -0.00000000000E+00 -0.00000000000E+00 -0.74505805969E-08  0.93827000000E+00  0.93827000000E+00 0. -1.
     999902    2    1    2    0    0  0.25916652004E-01 -0.60219122117E-02 -0.90193931630E-02  0.10158357705E+01  0.10154472054E+01 0.  0.
     999903    2    3    3    0    0 -0.67636760681E-01  0.99589127858E-01  0.23858668166E-01  0.12399110930E+00  0.17658803910E-01 0.  0.
         14    1    1    2    0    0 -0.25916652004E-01  0.60219122117E-02  0.90193931630E-02  0.28094229493E-01  0.00000000000E+00 0.  1.
     999901    1    3    3    0    0  0.93553412684E-01 -0.10561104007E+00 -0.32878061329E-01  0.89184466121E+00  0.88000000000E+00 0. -1.
        -11    1    4    4    0    0 -0.33093313808E-01  0.33593706951E-01  0.10451566015E-01  0.48303218513E-01  0.51100000000E-03 0. -1.
         11    1    4    4    0    0 -0.34543446872E-01  0.65995420907E-01  0.13407102151E-01  0.75687890786E-01  0.51100000000E-03 0.  1.
</event>
<event>
 8    1  0.5489035E+004  0.1043930E+01  0.7957747E-01            NaN
         13   -1    0    0    0    0  0.00000000000E+00  0.00000000000E+00  0.74505805969E-08  0.10566000000E+00  0.10566000000E+00 0.  1.
     999900   -1    0    0    0    0 -0.00000000000E+00 -0.00000000000E+00 -0.74505805969E-08  0.93827000000E+00  0.93827000000E+00 0. -1.
     999902    2    1    2    0    0 -0.17395664007E-01 -0.10064526505E-01 -0.11257374357E-01  0.10208945426E+01  0.10206346236E+01 0.  0.
     999903    2    3    3    0    0 -0.31755355023E-02  0.12274420574E+00 -0.39254871157E-01  0.13037546294E+00  0.19508776484E-01 0.  0.
         14    1    1    2    0    0  0.17395664007E-01  0.10064526505E-01  0.11257374357E-01  0.23035457395E-01  0.00000000000E+00 0.  1.
     999901    1    3    3    0    0 -0.14220128504E-01 -0.13280873224E+00  0.27997496800E-01  0.89051907966E+00  0.88000000000E+00 0.  1.
        -11    1    4    4    0    0 -0.97545466944E-02  0.83595065950E-01 -0.31854148061E-01  0.89990188921E-01  0.51100000000E-03 0.  1.
         11    1    4    4    0    0  0.65790111922E-02  0.39149139789E-01 -0.74007230959E-02  0.40385274022E-01  0.51100000000E-03 0. -1.
</event>
<event>
 8    1  0.5489035E+004  0.1043930E+01  0.7957747E-01            NaN
         13   -1    0    0    0    0  0.00000000000E+00  0.00000000000E+00  0.74505805969E-08  0.10566000000E+00  0.10566000000E+00 0.  1.
     999900   -1    0    0    0    0 -0.00000000000E+00 -0.00000000000E+00 -0.74505805969E-08  0.93827000000E+00  0.93827000000E+00 0. -1.
     999902    2    1    2    0    0  0.26088709054E-03 -0.64986932471E-02 -0.27291492288E-01  0.10158742229E+01  0.10154867356E+01 0.  0.
     999903    2    3    3    0    0 -0.44317093592E-01 -0.49779526184E-01 -0.10984492726E+00  0.12982936148E+00  0.18648030651E-01 0.  0.
         14    1    1    2    0    0 -0.26088709054E-03  0.64986932471E-02  0.27291492288E-01  0.28055777075E-01  0.00000000000E+00 0.  1.
     999901    1    3    3    0    0  0.44577980683E-01  0.43280832937E-01  0.82553434970E-01  0.88604486144E+00  0.88000000000E+00 0.  1.
        -11    1    4    4    0    0 -0.76566126972E-02 -0.19653468814E-01 -0.25959999758E-01  0.33452432839E-01  0.51100000000E-03 0. -1.
         11    1    4    4    0    0 -0.36660480895E-01 -0.30126057370E-01 -0.83884927500E-01  0.96376928644E-01  0.51100000000E-03 0.  1.
</event>
<event>
 8    1  0.5489035E+004  0.1043930E+01  0.7957747E-01            NaN
         13   -1    0    0    0    0  0.00000000000E+00  0.00000000000E+00  0.74505805969E-08  0.10566000000E+00  0.10566000000E+00 0. -1.
     999900   -1    0    0    0    0 -0.00000000000E+00 -0.00000000000E+00 -0.74505805969E-08  0.93827000000E+00  0.93827000000E+00 0. -1.
     999902    2    1    2    0    0 -0.23238636959E-01 -0.44189182272E-02 -0.73967977733E-02  0.10191454543E+01  0.10188440427E+01 0.  0.
     999903    2    3    3    0    0  0.97675540280E-01 -0.77805529708E-01 -0.19326536611E-01  0.12777114931E+00  0.18914014843E-01 0.  0.
         14    1    1    2    0    0  0.23238636959E-01  0.44189182272E-02  0.73967977733E-02  0.24784545655E-01  0.00000000000E+00 0. -1.
     999901    1    3    3    0    0 -0.12091417724E+00  0.73386611480E-01  0.11929738837E-01  0.89137430503E+00  0.88000000000E+00 0. -1.
        -11    1    4    4    0    0  0.27302448636E-01 -0.32978161811E-01 -0.49366709567E-02  0.43100054513E-01  0.51100000000E-03 0. -1.
         11    1    4    4    0    0  0.70373091644E-01 -0.44827367897E-01 -0.14389865654E-01  0.84671094800E-01  0.51100000000E-03 0.  1.
</event>
<event>
 8    1  0.5489035E+004  0.1043930E+01  0.7957747E-01            NaN
         13   -1    0    0    0    0  0.00000000000E+00  0.00000000000E+00  0.74505805969E-08  0.10566000000E+00  0.10566000000E+00 0.  1.
     999900   -1    0    0    0    0 -0.00000000000E+00 -0.00000000000E+00 -0.74505805969E-08  0.93827000000E+00  0.93827000000E+00 0. -1.
     999902    2    1    2    0    0 -0.48061521830E-02  0.21767978999E-01 -0.92755745226E-02  0.10197850152E+01  0.10194991402E+01 0.  0.
     999903    2    3    3    0    0  0.10380090304E+00  0.67250758375E-01  0.37242401303E-01  0.13072478229E+00  0.20116666593E-01 0.  0.
         14    1    1    2    0    0  0.48061521830E-02 -0.21767978999E-01  0.92755745226E-02  0.24144984805E-01  0.00000000000E+00 0. -1.
     999901    1    3    3    0    0 -0.10860705522E+00 -0.45482779376E-01 -0.46517975826E-01  0.88906023291E+00  0.88000000000E+00 0.  1.
        -11    1    4    4    0    0  0.88267384200E-02  0.34075653895E-02  0.85051180354E-02  0.12732673200E-01  0.51100000000E-03 0. -1.
         11    1    4    4    0    0  0.94974164622E-01  0.63843192986E-01  0.28737283268E-01  0.11799210909E+00  0.51100000000E-03 0.  1.
</event>
<event>
 8    1  0.5489035E+004  0.1043930E+01  0.7957747E-01            NaN
         13   -1    0    0    0    0  0.00000000000E+00  0.00000000000E+00  0.74505805969E-08  0.10566000000E+00  0.10566000000E+00 0. -1.
     999900   -1    0    0    0    0 -0.00000000000E+00 -0.00000000000E+00 -0.74505805969E-08  0.93827000000E+00  0.93827000000E+00 0. -1.
     999902    2    1    2    0    0  0.15274556218E-02  0.14785422467E-01  0.17476111726E-01  0.10209875433E+01  0.10207297425E+01 0.  0.
     999903    2    3    3    0    0 -0.12791571248E+00  0.16976182029E-01  0.16045506265E-01  0.13151445218E+00  0.19697020227E-01 0.  0.
         14    1    1    2    0    0 -0.15274556218E-02 -0.14785422467E-01 -0.17476111726E-01  0.22942456696E-01  0.00000000000E+00 0.  1.
     999901    1    3    3    0    0  0.12944316810E+00 -0.21907595625E-02  0.14306054611E-02  0.88947309112E+00  0.88000000000E+00 0. -1.
        -11    1    4    4    0    0 -0.47574888399E-01  0.81007461748E-02  0.15470347992E-01  0.50681208379E-01  0.51100000000E-03 0. -1.
         11    1    4    4    0    0 -0.80340824082E-01  0.88754358542E-02  0.57515827254E-03  0.80833243804E-01  0.51100000000E-03 0.  1.
</event>
<event>
 8    1  0.5489035E+004  0.1043930E+01  0.7957747E-01            NaN
         13   -1    0    0    0    0  0.00000000000E+00  0.00000000000E+00  0.74505805969E-08  0.10566000000E+00  0.10566000000E+00 0.  1.
     999900   -1    0    0    0    0 -0.00000000000E+00 -0.00000000000E+00 -0.74505805969E-08  0.93827000000E+00  0.93827000000E+00 0.  1.
     999902    2    1    2    0    0 -0.17766867420E-01 -0.88505758951E-02  0.98895293843E-02  0.10217535020E+01  0.10215128104E+01 0.  0.
     999903    2    3    3    0    0  0.55086216603E-01 -0.11403426568E+00 -0.29716000919E-01  0.13161880519E+00  0.20054031013E-01 0.  0.
         14    1    1    2    0    0  0.17766867420E-01  0.88505758951E-02 -0.98895293843E-02  0.22176497989E-01  0.00000000000E+00 0. -1.
     999901    1    3    3    0    0 -0.72853084024E-01  0.10518368979E+00  0.39605530303E-01  0.89013469682E+00  0.88000000000E+00 0. -1.
        -11    1    4    4    0    0  0.52436048865E-01 -0.10523445683E+00 -0.22018267452E-01  0.11961979497E+00  0.51100000000E-03 0. -1.
         11    1    4    4    0    0  0.26501677388E-02 -0.87998088544E-02 -0.76977334671E-02  0.11999010228E-01  0.51100000000E-03 0.  1.
</event>
<event>
 8    1  0.5489035E+004  0.1043930E+01  0.7957747E-01            NaN
         13   -1    0    0    0    0  0.00000000000E+00  0.00000000000E+00  0.74505805969E-08  0.10566000000E+00  0.10566000000E+00 0. -1.
     999900   -1    0    0    0    0 -0.00000000000E+00 -0.00000000000E+00 -0.74505805969E-08  0.93827000000E+00  0.93827000000E+00 0.  1.
     999902    2    1    2    0    0  0.27169846169E-01 -0.67992704248E-03 -0.12446414139E-02  0.10167231631E+01  0.10163590795E+01 0.  0.
     999903    2    3    3    0    0  0.10512615211E+00  0.72827383561E-01  0.13819385409E-01  0.13009616416E+00  0.19460238022E-01 0.  0.
         14    1    1    2    0    0 -0.27169846169E-01  0.67992704248E-03  0.12446414139E-02  0.27206836896E-01  0.00000000000E+00 0. -1.
     999901    1    3    3    0    0 -0.77956305936E-01 -0.73507310604E-01 -0.15064026823E-01  0.88662699894E+00  0.88000000000E+00 0.  1.
        -11    1    4    4    0    0  0.53651667959E-01  0.29046902500E-01 -0.52199813850E-03  0.61014405042E-01  0.51100000000E-03 0.  1.
         11    1    4    4    0    0  0.51474484146E-01  0.43780481061E-01  0.14341383548E-01  0.69081759120E-01  0.51100000000E-03 0. -1.
</event>
<event>
 8    1  0.5489035E+004  0.1043930E+01  0.7957747E-01            NaN
         13   -1    0    0    0    0  0.00000000000E+00  0.00000000000E+00  0.74505805969E-08  0.10566000000E+00  0.10566000000E+00 0.  1.
     999900   -1    0    0    0    0 -0.00000000000E+00 -0.00000000000E+00 -0.74505805969E-08  0.93827000000E+00  0.93827000000E+00 0. -1.
     999902    2    1    2    0    0  0.10115037774E-01  0.15398029078E-01 -0.14786873568E-01  0.10203066023E+01  0.10200330866E+01 0.  0.
     999903    2    3    3    0    0  0.77150626908E-01 -0.34729372949E-01  0.95670502638E-01  0.12946017413E+00  0.21183555700E-01 0.  0.
         14    1    1    2    0    0 -0.10115037774E-01 -0.15398029078E-01  0.14786873568E-01  0.23623397693E-01  0.00000000000E+00 0.  1.
     999901    1    3    3    0    0 -0.67035589134E-01  0.50127402026E-01 -0.11045737621E+00  0.89084642818E+00  0.88000000000E+00 0. -1.
        -11    1    4    4    0    0  0.59455481163E-01 -0.31570221719E-01  0.63169470396E-01  0.92316175455E-01  0.51100000000E-03 0.  1.
         11    1    4    4    0    0  0.17695145745E-01 -0.31591512301E-02  0.32501032243E-01  0.37143998671E-01  0.51100000000E-03 0. -1.
</event>
<event>
 8    1  0.5489035E+004  0.1043930E+01  0.7957747E-01            NaN
         13   -1    0    0    0    0  0.00000000000E+00  0.00000000000E+00  0.74505805969E-08  0.10566000000E+00  0.10566000000E+00 0.  1.
     999900   -1    0    0    0    0 -0.00000000000E+00 -0.00000000000E+00 -0.74505805969E-08  0.93827000000E+00  0.93827000000E+00 0.  1.
     999902    2    1    2    0    0  0.13554368860E-01 -0.16332244769E-01  0.10023439418E-01  0.10204580492E+01  0.10201880698E+01 0.  0.
     999903    2    3    3    0    0  0.90877385854E-01  0.73055052435E-02 -0.92080357885E-01  0.13087231554E+00  0.18349414195E-01 0.  0.
         14    1    1    2    0    0 -0.13554368860E-01  0.16332244769E-01 -0.10023439418E-01  0.23471950753E-01  0.00000000000E+00 0.  1.
     999901    1    3    3    0    0 -0.77323016993E-01 -0.23637750013E-01  0.10210379730E+00  0.88958573370E+00  0.88000000000E+00 0. -1.
        -11    1    4    4    0    0  0.43306662507E-01  0.29002369302E-04 -0.55623515239E-01  0.70496130583E-01  0.51100000000E-03 0.  1.
         11    1    4    4    0    0  0.47570723346E-01  0.72765028742E-02 -0.36456842646E-01  0.60376184961E-01  0.51100000000E-03 0. -1.
</event>
<event>
 8    1  0.5489035E+004  0.1043930E+01  0.7957747E-01            NaN
         13   -1    0    0    0    0  0.00000000000E+00  0.00000000000E+00  0.74505805969E-08  0.10566000000E+00  0.10566000000E+00 0.  1.
     999900   -1    0    0    0    0 -0.00000000000E+00 -0.00000000000E+00 -0.74505805969E-08  0.93827000000E+00  0.93827000000E+00 0. -1.
     999902    2    1    2    0    0  0.98128176792E-02  0.13596327151E-01 -0.19472795974E-01  0.10182328934E+01  0.10179085833E+01 0.  0.
     999903    2    3    3    0    0 -0.79625141089E-02 -0.50381206829E-01  0.11306455196E+00  0.12583430767E+00  0.21189913751E-01 0.  0.
         14    1    1    2    0    0 -0.98128176792E-02 -0.13596327151E-01  0.19472795974E-01  0.25697106566E-01  0.00000000000E+00 0.  1.
     999901    1    3    3    0    0  0.17775331788E-01  0.63977533980E-01 -0.13253734793E+00  0.89239858576E+00  0.88000000000E+00 0. -1.
        -11    1    4    4    0    0  0.12276157967E-02 -0.40566293834E-01  0.95016435596E-01  0.10332238572E+00  0.51100000000E-03 0.  1.
         11    1    4    4    0    0 -0.91901299056E-02 -0.98149129953E-02  0.18048116364E-01  0.22511921954E-01  0.51100000000E-03 0. -1.
</event>
<event>
 8    1  0.5489035E+004  0.1043930E+01  0.7957747E-01            NaN
         13   -1    0    0    0    0  0.00000000000E+00  0.00000000000E+00  0.74505805969E-08  0.10566000000E+00  0.10566000000E+00 0. -1.
     999900   -1    0    0    0    0 -0.00000000000E+00 -0.00000000000E+00 -0.74505805969E-08  0.93827000000E+00  0.93827000000E+00 0.  1.
     999902    2    1    2    0    0  0.92745262251E-02 -0.15819023904E-01 -0.16021713725E-01  0.10195793601E+01  0.10192885351E+01 0.  0.
     999903    2    3    3    0    0  0.63483334060E-01 -0.84299774096E-02 -0.11419160586E+00  0.13243195374E+00  0.19932418295E-01 0.  0.
         14    1    1    2    0    0 -0.92745262251E-02  0.15819023904E-01  0.16021713725E-01  0.24350639923E-01  0.00000000000E+00 0. -1.
     999901    1    3    3    0    0 -0.54208807835E-01 -0.73890464945E-02  0.98169892135E-01  0.88714740634E+00  0.88000000000E+00 0. -1.
        -11    1    4    4    0    0  0.36535626425E-02  0.16372850418E-03 -0.21214844669E-01  0.21533835755E-01  0.51100000000E-03 0. -1.
         11    1    4    4    0    0  0.59829771417E-01 -0.85937059138E-02 -0.92976761191E-01  0.11089811798E+00  0.51100000000E-03 0.  1.
</event>
<event>
 8    1  0.5489035E+004  0.1043930E+01  0.7957747E-01            NaN
         13   -1    0    0    0    0  0.00000000000E+00  0.00000000000E+00  0.74505805969E-08  0.10566000000E+00  0.10566000000E+00 0.  1.
     999900   -1    0    0    0    0 -0.00000000000E+00 -0.00000000000E+00 -0.74505805969E-08  0.93827000000E+00  0.93827000000E+00 0. -1.
     999902    2    1    2    0    0  0.16941434505E-01 -0.10366942402E-02  0.17189730869E-01  0.10197727281E+01  0.10194865586E+01 0.  0.
     999903    2    3    3    0    0  0.12081020723E+00  0.29170650799E-01  0.41827407610E-01  0.13280698990E+00  0.21026923222E-01 0.  0.
         14    1    1    2    0    0 -0.16941434505E-01  0.10366942402E-02 -0.17189730869E-01  0.24157271894E-01  0.00000000000E+00 0. -1.
     999901    1    3    3    0    0 -0.10386877272E+00 -0.30207345039E-01 -0.24637676742E-01  0.88696573821E+00  0.88000000000E+00 0. -1.
        -11    1    4    4    0    0  0.11240612340E+00  0.29537132689E-01  0.43711464857E-01  0.12417138183E+00  0.51100000000E-03 0. -1.
         11    1    4    4    0    0  0.84040838269E-02 -0.36648189063E-03 -0.18840572470E-02  0.86356080652E-02  0.51100000000E-03 0.  1.
</event>
<event>
 8    1  0.5489035E+004  0.1043930E+01  0.7957747E-01            NaN
         13   -1    0    0    0    0  0.00000000000E+00  0.00000000000E+00  0.74505805969E-08  0.10566000000E+00  0.10566000000E+00 0.  1.
     999900   -1    0    0    0    0 -0.00000000000E+00 -0.00000000000E+00 -0.74505805969E-08  0.93827000000E+00  0.93827000000E+00 0.  1.
     999902    2    1    2    0    0 -0.18863367670E-01  0.41114621898E-02  0.13797515180E-01  0.10202002257E+01  0.10199242121E+01 0.  0.
     999903    2    3    3    0    0 -0.52050332600E-01  0.81215732127E-01 -0.85805319459E-01  0.13061202452E+00  0.19791812277E-01 0.  0.
         14    1    1    2    0    0  0.18863367670E-01 -0.41114621898E-02 -0.13797515180E-01  0.23729774258E-01  0.00000000000E+00 0. -1.
     999901    1    3    3    0    0  0.33186964930E-01 -0.77104269938E-01  0.99602834639E-01  0.88958820122E+00  0.88000000000E+00 0. -1.
        -11    1    4    4    0    0 -0.28092804300E-01  0.28047630510E-01 -0.40977929052E-01  0.57055473191E-01  0.51100000000E-03 0. -1.
         11    1    4    4    0    0 -0.23957528300E-01  0.53168101617E-01 -0.44827390407E-01  0.73556551330E-01  0.51100000000E-03 0.  1.
</event>
<event>
 8    1  0.5489035E+004  0.1043930E+01  0.7957747E-01            NaN
         13   -1    0    0    0    0  0.00000000000E+00  0.00000000000E+00  0.74505805969E-08  0.10566000000E+00  0.10566000000E+00 0. -1.
     999900   -1    0    0    0    0 -0.00000000000E+00 -0.00000000000E+00 -0.74505805969E-08  0.93827000000E+00  0.93827000000E+00 0. -1.
     999902    2    1    2    0    0 -0.19867461879E-01  0.71407503719E-02  0.54386348415E-02  0.10221289655E+01  0.10218964414E+01 0.  0.
     999903    2    3    3    0    0  0.63746590379E-01 -0.11140327774E+00 -0.66475249577E-02  0.13017040613E+00  0.20635575290E-01 0.  0.
         14    1    1    2    0    0  0.19867461879E-01 -0.71407503719E-02 -0.54386348415E-02  0.21801034524E-01  0.00000000000E+00 0.  1.
     999901    1    3    3    0    0 -0.83614052258E-01  0.11854402811E+00  0.12086159799E-01  0.89195855935E+00  0.88000000000E+00 0. -1.
        -11    1    4    4    0    0  0.35193196048E-01 -0.74743712527E-01 -0.11642285168E-01  0.83432532835E-01  0.51100000000E-03 0. -1.
         11    1    4    4    0    0  0.28553394331E-01 -0.36659565212E-01  0.49947602106E-02  0.46737873293E-01  0.51100000000E-03 0.  1.
</event>
<event>
 8    1  0.5489035E+004  0.1043930E+01  0.7957747E-01            NaN
         13   -1    0    0    0    0  0.00000000000E+00  0.00000000000E+00  0.74505805969E-08  0.10566000000E+00  0.10566000000E+00 0.  1.
     999900   -1    0    0    0    0 -0.00000000000E+00 -0.00000000000E+00 -0.74505805969E-08  0.93827000000E+00  0.93827000000E+00 0. -1.
     999902    2    1    2    0    0  0.12547265015E-01 -0.93269594890E-02 -0.17715510861E-01  0.10203023603E+01  0.10200287452E+01 0.  0.
     999903    2    3    3    0    0  0.81289135978E-01 -0.83072258784E-01  0.57520610949E-01  0.13135675566E+00  0.20905806972E-01 0.  0.
         14    1    1    2    0    0 -0.12547265015E-01  0.93269594890E-02  0.17715510861E-01  0.23627639699E-01  0.00000000000E+00 0.  1.
     999901    1    3    3    0    0 -0.68741870963E-01  0.73745299295E-01 -0.75236121810E-01  0.88894560464E+00  0.88000000000E+00 0. -1.
        -11    1    4    4    0    0  0.66432948265E-01 -0.55605580209E-01  0.45823261154E-01  0.98006885214E-01  0.51100000000E-03 0. -1.
         11    1    4    4    0    0  0.14856187713E-01 -0.27466678575E-01  0.11697349795E-01  0.33349870443E-01  0.51100000000E-03 0.  1.
</event>
<event>
 8    1  0.5489035E+004  0.1043930E+01  0.7957747E-01            NaN
         13   -1    0    0    0    0  0.00000000000E+00  0.00000000000E+00  0.74505805969E-08  0.10566000000E+00  0.10566000000E+00 0.  1.
     999900   -1    0    0    0    0 -0.00000000000E+00 -0.00000000000E+00 -0.74505805969E-08  0.93827000000E+00  0.93827000000E+00 0. -1.
     999902    2    1    2    0    0 -0.82587724888E-02 -0.12810893972E-01  0.17474001907E-01  0.10207423509E+01  0.10204789463E+01 0.  0.
     999903    2    3    3    0    0  0.20723137075E-01 -0.84075430173E-01 -0.95208361906E-01  0.13022794883E+00  0.19913817104E-01 0.  0.
         14    1    1    2    0    0  0.82587724888E-02  0.12810893972E-01 -0.17474001907E-01  0.23187649084E-01  0.00000000000E+00 0. -1.
     999901    1    3    3    0    0 -0.28981909564E-01  0.71264536201E-01  0.11268236381E+00  0.89051440208E+00  0.88000000000E+00 0.  1.
        -11    1    4    4    0    0 -0.29579306011E-02 -0.25362113989E-01 -0.27734099866E-01  0.37701824834E-01  0.51100000000E-03 0.  1.
         11    1    4    4    0    0  0.23681067677E-01 -0.58713316184E-01 -0.67474262040E-01  0.92526124000E-01  0.51100000000E-03 0. -1.
</event>
<event>
 8    1  0.5489035E+004  0.1043930E+01  0.7957747E-01            NaN
         13   -1    0    0    0    0  0.00000000000E+00  0.00000000000E+00  0.74505805969E-08  0.10566000000E+00  0.10566000000E+00 0.  1.
     999900   -1    0    0    0    0 -0.00000000000E+00 -0.00000000000E+00 -0.74505805969E-08  0.93827000000E+00  0.93827000000E+00 0.  1.
     999902    2    1    2    0    0 -0.19582022857E-01  0.12880343236E-01 -0.21737626351E-02  0.10203910088E+01  0.10201194669E+01 0.  0.
     999903    2    3    3    0    0 -0.45902992686E-01  0.96956773245E-01 -0.74652877292E-01  0.13302701272E+00  0.24807930394E-01 0.  0.
         14    1    1    2    0    0  0.19582022857E-01 -0.12880343236E-01  0.21737626351E-02  0.23538991165E-01  0.00000000000E+00 0.  1.
     999901    1    3    3    0    0  0.26320969828E-01 -0.84076430009E-01  0.72479114656E-01  0.88736399611E+00  0.88000000000E+00 0. -1.
        -11    1    4    4    0    0 -0.47449417495E-01  0.88929184032E-01 -0.63291277116E-01  0.11902056072E+00  0.51100000000E-03 0. -1.
         11    1    4    4    0    0  0.15464248091E-02  0.80275892126E-02 -0.11361600175E-01  0.14006452006E-01  0.51100000000E-03 0.  1.
</event>
<event>
 8    1  0.5489035E+004  0.1043930E+01  0.7957747E-01            NaN
         13   -1    0    0    0    0  0.00000000000E+00  0.00000000000E+00  0.74505805969E-08  0.10566000000E+00  0.10566000000E+00 0.  1.
     999900   -1    0    0    0    0 -0.00000000000E+00 -0.00000000000E+00 -0.74505805969E-08  0.93827000000E+00  0.93827000000E+00 0. -1.
     999902    2    1    2    0    0  0.23332490898E-02  0.17370452608E-02  0.22329656672E-01  0.10214116754E+01  0.10211634226E+01 0.  0.
     999903    2    3    3    0    0 -0.74781691574E-01  0.97051932888E-01  0.46705511959E-01  0.13257770650E+00  0.19597559577E-01 0.  0.
         14    1    1    2    0    0 -0.23332490898E-02 -0.17370452608E-02 -0.22329656672E-01  0.22518324641E-01  0.00000000000E+00 0. -1.
     999901    1    3    3    0    0  0.77114940664E-01 -0.95314887628E-01 -0.24375855288E-01  0.88883396886E+00  0.88000000000E+00 0. -1.
        -11    1    4    4    0    0 -0.39778318698E-01  0.36590337574E-01  0.17008584057E-01  0.56663219948E-01  0.51100000000E-03 0.  1.
         11    1    4    4    0    0 -0.35003372876E-01  0.60461595314E-01  0.29696927902E-01  0.75914486552E-01  0.51100000000E-03 0. -1.
</event>
<event>
 8    1  0.5489035E+004  0.1043930E+01  0.7957747E-01            NaN
         13   -1    0    0    0    0  0.00000000000E+00  0.00000000000E+00  0.74505805969E-08  0.10566000000E+00  0.10566000000E+00 0. -1.
     999900   -1    0    0    0    0 -0.00000000000E+00 -0.00000000000E+00 -0.74505805969E-08  0.93827000000E+00  0.93827000000E+00 0. -1.
     999902    2    1    2    0    0 -0.12384573916E-01 -0.49046256938E-02 -0.12797547360E-01  0.10254581229E+01  0.10252917398E+01 0.  0.
     999903    2    3    3    0    0  0.98052045558E-01 -0.50850633848E-01  0.72222744206E-01  0.13330581947E+00  0.18823552326E-01 0.  0.
         14    1    1    2    0    0  0.12384573916E-01  0.49046256938E-02  0.12797547360E-01  0.18471877076E-01  0.00000000000E+00 0. -1.
     999901    1    3    3    0    0 -0.11043661947E+00  0.45946008154E-01 -0.85020291566E-01  0.89215230346E+00  0.88000000000E+00 0. -1.
        -11    1    4    4    0    0  0.50037490461E-01 -0.22717606866E-01  0.25242875901E-01  0.60475648141E-01  0.51100000000E-03 0. -1.
         11    1    4    4    0    0  0.48014555097E-01 -0.28133026982E-01  0.46979868305E-01  0.72830171325E-01  0.51100000000E-03 0.  1.
</event>
<event>
 8    1  0.5489035E+004  0.1043930E+01  0.7957747E-01            NaN
         13   -1    0    0    0    0  0.00000000000E+00  0.00000000000E+00  0.74505805969E-08  0.10566000000E+00  0.10566000000E+00 0.  1.
     999900   -1    0    0    0    0 -0.00000000000E+00 -0.00000000000E+00 -0.74505805969E-08  0.93827000000E+00  0.93827000000E+00 0. -1.
     999902    2    1    2    0    0 -0.23273937994E-01 -0.45147601131E-02  0.17327976835E-02  0.10201589706E+01  0.10198819851E+01 0.  0.
     999903    2    3    3    0    0 -0.12230141278E+00  0.40419121735E-01 -0.74519633997E-02  0.13341782785E+00  0.33962391837E-01 0.  0.
         14    1    1    2    0    0  0.23273937994E-01  0.45147601131E-02 -0.17327976835E-02  0.23771029352E-01  0.00000000000E+00 0.  1.
     999901    1    3    3    0    0  0.99027474785E-01 -0.44933881848E-01  0.91847610831E-02  0.88674114280E+00  0.88000000000E+00 0.  1.
        -11    1    4    4    0    0 -0.28099926073E-01 -0.24672304531E-02 -0.98547688973E-02  0.29884287886E-01  0.51100000000E-03 0.  1.
         11    1    4    4    0    0 -0.94201486707E-01  0.42886352188E-01  0.24028054976E-02  0.10353353996E+00  0.51100000000E-03 0. -1.
</event>
<event>
 8    1  0.5489035E+004  0.1043930E+01  0.7957747E-01            NaN
         13   -1    0    0    0    0  0.00000000000E+00  0.00000000000E+00  0.74505805969E-08  0.10566000000E+00  0.10566000000E+00 0. -1.
     999900   -1    0    0    0    0 -0.00000000000E+00 -0.00000000000E+00 -0.74505805969E-08  0.93827000000E+00  0.93827000000E+00 0. -1.
     999902    2    1    2    0    0 -0.25343604325E-01 -0.39108036305E-02 -0.71841597339E-02  0.10172991003E+01  0.10169504682E+01 0.  0.
     999903    2    3    3    0    0  0.33997391789E-01  0.63208009407E-01  0.10180464036E+00  0.12606128280E+00  0.19395543801E-01 0.  0.
         14    1    1    2    0    0  0.25343604325E-01  0.39108036305E-02  0.71841597339E-02  0.26630899652E-01  0.00000000000E+00 0.  1.
     999901    1    3    3    0    0 -0.59340996114E-01 -0.67118813038E-01 -0.10898880010E+00  0.89123781755E+00  0.88000000000E+00 0. -1.
        -11    1    4    4    0    0  0.30324226585E-01  0.46639961368E-01  0.65191518340E-01  0.85703208219E-01  0.51100000000E-03 0. -1.
         11    1    4    4    0    0  0.36731652036E-02  0.16568048039E-01  0.36613122024E-01  0.40358074580E-01  0.51100000000E-03 0.  1.
</event>
<event>
 8    1  0.5489035E+004  0.1043930E+01  0.7957747E-01            NaN
         13   -1    0    0    0    0  0.00000000000E+00  0.00000000000E+00  0.74505805969E-08  0.10566000000E+00  0.10566000000E+00 0. -1.
     999900   -1    0    0    0    0 -0.00000000000E+00 -0.00000000000E+00 -0.74505805969E-08  0.93827000000E+00  0.93827000000E+00 0. -1.
     999902    2    1    2    0    0 -0.33406838819E-02  0.20212367116E-01 -0.11343718517E-01  0.10205124873E+01  0.10202437732E+01 0.  0.
     999903    2    3    3    0    0  0.82779270406E-02 -0.11135783082E+00  0.59052875612E-01  0.12787516473E+00  0.19892839781E-01 0.  0.
         14    1    1    2    0    0  0.33406838819E-02 -0.20212367116E-01  0.11343718517E-01  0.23417512742E-01  0.00000000000E+00 0. -1.
     999901    1    3    3    0    0 -0.11618610922E-01  0.13157019794E+00 -0.70396594129E-01  0.89263732253E+00  0.88000000000E+00 0.  1.
        -11    1    4    4    0    0 -0.56564716165E-03 -0.22707028456E-01  0.37860676149E-02  0.23033118048E-01  0.51100000000E-03 0.  1.
         11    1    4    4    0    0  0.88435742023E-02 -0.88650802368E-01  0.55266807997E-01  0.10484204668E+00  0.51100000000E-03 0. -1.
</event>
<event>
 8    1  0.5489035E+004  0.1043930E+01  0.7957747E-01            NaN
         13   -1    0    0    0    0  0.00000000000E+00  0.00000000000E+00  0.74505805969E-08  0.10566000000E+00  0.10566000000E+00 0. -1.
     999900   -1    0    0    0    0 -0.00000000000E+00 -0.00000000000E+00 -0.74505805969E-08  0.93827000000E+00  0.93827000000E+00 0. -1.
     999902    2    1    2    0    0  0.35254265600E-02 -0.21974793740E-01  0.10974265009E-01  0.10191155952E+01  0.10188134480E+01 0.  0.
     999903    2    3    3    0    0 -0.67395909271E-01 -0.66265364958E-01  0.89397673110E-01  0.13168012065E+00  0.20356891660E-01 0.  0.
         14    1    1    2    0    0 -0.35254265600E-02  0.21974793740E-01 -0.10974265009E-01  0.24814404785E-01  0.00000000000E+00 0. -1.
     999901    1    3    3    0    0  0.70921335831E-01  0.44290571219E-01 -0.78423408101E-01  0.88743547456E+00  0.88000000000E+00 0.  1.
        -11    1    4    4    0    0 -0.35484198501E-01 -0.48047529707E-01  0.51170937138E-01  0.78653794459E-01  0.51100000000E-03 0. -1.
         11    1    4    4    0    0 -0.31911710770E-01 -0.18217835251E-01  0.38226735971E-01  0.53026326193E-01  0.51100000000E-03 0.  1.
</event>
<event>
 8    1  0.5489035E+004  0.1043930E+01  0.7957747E-01            NaN
         13   -1    0    0    0    0  0.00000000000E+00  0.00000000000E+00  0.74505805969E-08  0.10566000000E+00  0.10566000000E+00 0. -1.
     999900   -1    0    0    0    0 -0.00000000000E+00 -0.00000000000E+00 -0.74505805969E-08  0.93827000000E+00  0.93827000000E+00 0.  1.
     999902    2    1    2    0    0  0.63249882809E-03 -0.17777872177E-01  0.15290291871E-01  0.10204726809E+01  0.10202030419E+01 0.  0.
     999903    2    3    3    0    0 -0.24726671502E-01  0.51810759177E-01  0.11676768674E+00  0.13155011577E+00  0.19364329071E-01 0.  0.
         14    1    1    2    0    0 -0.63249882809E-03  0.17777872177E-01 -0.15290291871E-01  0.23457319101E-01  0.00000000000E+00 0.  1.
     999901    1    3    3    0    0  0.25359170330E-01 -0.69588631354E-01 -0.10147739487E+00  0.88892256513E+00  0.88000000000E+00 0.  1.
        -11    1    4    4    0    0 -0.16278353670E-01  0.46863808697E-01  0.86307810288E-01  0.99551497234E-01  0.51100000000E-03 0. -1.
         11    1    4    4    0    0 -0.84483178320E-02  0.49469504802E-02  0.30459876455E-01  0.31998618531E-01  0.51100000000E-03 0.  1.
</event>
<event>
 8    1  0.5489035E+004  0.1043930E+01  0.7957747E-01            NaN
         13   -1    0    0    0    0  0.00000000000E+00  0.00000000000E+00  0.74505805969E-08  0.10566000000E+00  0.10566000000E+00 0.  1.
     999900   -1    0    0    0    0 -0.00000000000E+00 -0.00000000000E+00 -0.74505805969E-08  0.93827000000E+00  0.93827000000E+00 0.  1.
     999902    2    1    2    0    0  0.42225743544E-02  0.19167930352E-01 -0.10572771879E-01  0.10216359830E+01  0.10213927054E+01 0.  0.
     999903    2    3    3    0    0 -0.96542274907E-01  0.82069546954E-01  0.32017710246E-01  0.13263422971E+00  0.22602737421E-01 0.  0.
         14    1    1    2    0    0 -0.42225743544E-02 -0.19167930352E-01  0.10572771879E-01  0.22294016986E-01  0.00000000000E+00 0. -1.
     999901    1    3    3    0    0  0.10076484926E+00 -0.62901616601E-01 -0.42590482125E-01  0.88900175331E+00  0.88000000000E+00 0.  1.
        -11    1    4    4    0    0 -0.46739783602E-01  0.53448986931E-01  0.13469240384E-01  0.72270901009E-01  0.51100000000E-03 0.  1.
         11    1    4    4    0    0 -0.49802491304E-01  0.28620560023E-01  0.18548469862E-01  0.60363328697E-01  0.51100000000E-03 0. -1.
</event>
<event>
 8    1  0.5489035E+004  0.1043930E+01  0.7957747E-01            NaN
         13   -1    0    0    0    0  0.00000000000E+00  0.00000000000E+00  0.74505805969E-08  0.10566000000E+00  0.10566000000E+00 0.  1.
     999900   -1    0    0    0    0 -0.00000000000E+00 -0.00000000000E+00 -0.74505805969E-08  0.93827000000E+00  0.93827000000E+00 0.  1.
     999902    2    1    2    0    0  0.13532779978E-01  0.37323162265E-05 -0.17978975577E-01  0.10214271177E+01  0.10211792091E+01 0.  0.
     999903    2    3    3    0    0  0.69020452324E-01 -0.98472883130E-01  0.49826825675E-01  0.13161019709E+00  0.19437074605E-01 0.  0.
         14    1    1    2    0    0 -0.13532779978E-01 -0.37323162265E-05  0.17978975577E-01  0.22502882275E-01  0.00000000000E+00 0.  1.
     999901    1    3    3    0    0 -0.55487672346E-01  0.98476615446E-01 -0.67805801253E-01  0.88981692064E+00  0.88000000000E+00 0.  1.
        -11    1    4    4    0    0  0.36253822473E-02 -0.11850132178E-01  0.10224682554E-01  0.16074025116E-01  0.51100000000E-03 0.  1.
         11    1    4    4    0    0  0.65395070077E-01 -0.86622750952E-01  0.39602143121E-01  0.11553617197E+00  0.51100000000E-03 0. -1.
</event>
<event>
 8    1  0.5489035E+004  0.1043930E+01  0.7957747E-01            NaN
         13   -1    0    0    0    0  0.00000000000E+00  0.00000000000E+00  0.74505805969E-08  0.10566000000E+00  0.10566000000E+00 0. -1.
     999900   -1    0    0    0    0 -0.00000000000E+00 -0.00000000000E+00 -0.74505805969E-08  0.93827000000E+00  0.93827000000E+00 0.  1.
     999902    2    1    2    0    0 -0.16368706638E-01 -0.80733552340E-02  0.16748583065E-01  0.10191584709E+01  0.10188573796E+01 0.  0.
     999903    2    3    3    0    0 -0.78868858194E-01  0.89982402005E-01  0.49228077325E-01  0.13091519448E+00  0.19956329441E-01 0.  0.
         14    1    1    2    0    0  0.16368706638E-01  0.80733552340E-02 -0.16748583065E-01  0.24771529150E-01  0.00000000000E+00 0. -1.
     999901    1    3    3    0    0  0.62500151556E-01 -0.98055757239E-01 -0.32479494261E-01  0.88824327637E+00  0.88000000000E+00 0. -1.
        -11    1    4    4    0    0 -0.31057210303E-01  0.48843175297E-01  0.18618779035E-01  0.60803997719E-01  0.51100000000E-03 0.  1.
         11    1    4    4    0    0 -0.47811647891E-01  0.41139226708E-01  0.30609298290E-01  0.70111196759E-01  0.51100000000E-03 0. -1.
</event>
<event>
 8    1  0.5489035E+004  0.1043930E+01  0.7957747E-01            NaN
         13   -1    0    0    0    0  0.00000000000E+00  0.00000000000E+00  0.74505805969E-08  0.10566000000E+00  0.10566000000E+00 0. -1.
     999900   -1    0    0    0    0 -0.00000000000E+00 -0.00000000000E+00 -0.74505805969E-08  0.93827000000E+00  0.93827000000E+00 0. -1.
     999902    2    1    2    0    0 -0.19263676378E-01 -0.36079223890E-02  0.13726959488E-01  0.10200022808E+01  0.10197215880E+01 0.  0.
     999903    2    3    3    0    0 -0.56347874589E-01  0.39187087257E-01 -0.10837528507E+00  0.12976882332E+00  0.19596793420E-01 0.  0.
         14    1    1    2    0    0  0.19263676378E-01  0.36079223890E-02 -0.13726959488E-01  0.23927719247E-01  0.00000000000E+00 0.  1.
     999901    1    3    3    0    0  0.37084198211E-01 -0.42795009646E-01  0.12210224456E+00  0.89023345743E+00  0.88000000000E+00 0.  1.
        -11    1    4    4    0    0 -0.12499827205E-01  0.57768284091E-02 -0.37673569713E-01  0.40114541036E-01  0.51100000000E-03 0.  1.
         11    1    4    4    0    0 -0.43848047383E-01  0.33410258848E-01 -0.70701715361E-01  0.89654282283E-01  0.51100000000E-03 0. -1.
</event>
<event>
 8    1  0.5489035E+004  0.1043930E+01  0.7957747E-01            NaN
         13   -1    0    0    0    0  0.00000000000E+00  0.00000000000E+00  0.74505805969E-08  0.10566000000E+00  0.10566000000E+00 0.  1.
     999900   -1    0    0    0    0 -0.00000000000E+00 -0.00000000000E+00 -0.74505805969E-08  0.93827000000E+00  0.93827000000E+00 0. -1.
     999902    2    1    2    0    0  0.17835254573E-01  0.27362762410E-02  0.16444700129E-01  0.10195166496E+01  0.10192243066E+01 0.  0.
     999903    2    3    3    0    0 -0.51500047185E-01 -0.16288370023E-01  0.11742518068E+00  0.13082863988E+00  0.20245841480E-01 0.  0.
         14    1    1    2    0    0 -0.17835254573E-01 -0.27362762410E-02 -0.16444700129E-01  0.24413350358E-01  0.00000000000E+00 0. -1.
     999901    1    3    3    0    0  0.69335301759E-01  0.19024646264E-01 -0.10098048055E+00  0.88868800976E+00  0.88000000000E+00 0. -1.
        -11    1    4    4    0    0 -0.93688051169E-02 -0.15375246067E-02  0.43024747736E-01  0.44062779417E-01  0.51100000000E-03 0. -1.
         11    1    4    4    0    0 -0.42131242069E-01 -0.14750845416E-01  0.74400432947E-01  0.86765860466E-01  0.51100000000E-03 0.  1.
</event>
<event>
 8    1  0.5489035E+004  0.1043930E+01  0.7957747E-01            NaN
         13   -1    0    0    0    0  0.00000000000E+00  0.00000000000E+00  0.74505805969E-08  0.10566000000E+00  0.10566000000E+00 0. -1.
     999900   -1    0    0    0    0 -0.00000000000E+00 -0.00000000000E+00 -0.74505805969E-08  0.93827000000E+00  0.93827000000E+00 0. -1.
     999902    2    1    2    0    0  0.19820831143E-01 -0.13958974791E-01 -0.44955405882E-03  0.10196829296E+01  0.10193946029E+01 0.  0.
     999903    2    3    3    0    0  0.66004676330E-01  0.10347600332E+00 -0.38149332759E-01  0.12988228060E+00  0.18711885629E-01 0.  0.
         14    1    1    2    0    0 -0.19820831143E-01  0.13958974791E-01  0.44955405882E-03  0.24247070406E-01  0.00000000000E+00 0. -1.
     999901    1    3    3    0    0 -0.46183845187E-01 -0.11743497811E+00  0.37699778700E-01  0.88980064900E+00  0.88000000000E+00 0. -1.
        -11    1    4    4    0    0  0.51156115164E-01  0.67409280020E-01 -0.31587696970E-01  0.90327198963E-01  0.51100000000E-03 0. -1.
         11    1    4    4    0    0  0.14848561165E-01  0.36066723296E-01 -0.65616357888E-02  0.39555081636E-01  0.51100000000E-03 0.  1.
</event>
<event>
 8    1  0.5489035E+004  0.1043930E+01  0.7957747E-01            NaN
         13   -1    0    0    0    0  0.00000000000E+00  0.00000000000E+00  0.74505805969E-08  0.10566000000E+00  0.10566000000E+00 0.  1.
     999900   -1    0    0    0    0 -0.00000000000E+00 -0.00000000000E+00 -0.74505805969E-08  0.93827000000E+00  0.93827000000E+00 0.  1.
     999902    2    1    2    0    0  0.10466400665E-01  0.20712066688E-01 -0.77195842670E-03  0.10207108017E+01  0.10204466716E+01 0.  0.
     999903    2    3    3    0    0 -0.63679530743E-01 -0.53687303817E-01 -0.96377468125E-01  0.12932239088E+00  0.22321630638E-01 0.  0.
         14    1    1    2    0    0 -0.10466400665E-01 -0.20712066688E-01  0.77195842670E-03  0.23219198289E-01  0.00000000000E+00 0.  1.
     999901    1    3    3    0    0  0.74145931408E-01  0.74399370505E-01  0.95605509699E-01  0.89138841083E+00  0.88000000000E+00 0. -1.
        -11    1    4    4    0    0 -0.33407064131E-01 -0.16339466926E-01 -0.51714693061E-01  0.63699927101E-01  0.51100000000E-03 0. -1.
         11    1    4    4    0    0 -0.30272466612E-01 -0.37347836891E-01 -0.44662775064E-01  0.65622463781E-01  0.51100000000E-03 0.  1.
</event>
<event>
 8    1  0.5489035E+004  0.1043930E+01  0.7957747E-01            NaN
         13   -1    0    0    0    0  0.00000000000E+00  0.00000000000E+00  0.74505805969E-08  0.10566000000E+00  0.10566000000E+00 0.  1.
     999900   -1    0    0    0    0 -0.00000000000E+00 -0.00000000000E+00 -0.74505805969E-08  0.93827000000E+00  0.93827000000E+00 0.  1.
     999902    2    1    2    0    0  0.11972541038E-01  0.22787670392E-04  0.19607042817E-01  0.10209565722E+01  0.10206980669E+01 0.  0.
     999903    2    3    3    0    0 -0.77112280137E-02 -0.11969307596E+00 -0.46608565238E-01  0.13016824405E+00  0.19634610657E-01 0.  0.
         14    1    1    2    0    0 -0.11972541038E-01 -0.22787670392E-04 -0.19607042817E-01  0.22973427829E-01  0.00000000000E+00 0. -1.
     999901    1    3    3    0    0  0.19683769052E-01  0.11971586363E+00  0.66215608055E-01  0.89078832812E+00  0.88000000000E+00 0. -1.
        -11    1    4    4    0    0  0.77883356028E-03 -0.63397183233E-01 -0.33638642337E-01  0.71774847982E-01  0.51100000000E-03 0.  1.
         11    1    4    4    0    0 -0.84900615740E-02 -0.56295892725E-01 -0.12969922901E-01  0.58393396067E-01  0.51100000000E-03 0. -1.
</event>
<event>
 8    1  0.5489035E+004  0.1043930E+01  0.7957747E-01            NaN
         13   -1    0    0    0    0  0.00000000000E+00  0.00000000000E+00  0.74505805969E-08  0.10566000000E+00  0.10566000000E+00 0.  1.
     999900   -1    0    0    0    0 -0.00000000000E+00 -0.00000000000E+00 -0.74505805969E-08  0.93827000000E+00  0.93827000000E+00 0. -1.
     999902    2    1    2    0    0 -0.23362225736E-01 -0.48199990560E-02 -0.29150710727E-02  0.10198982788E+01  0.10196151115E+01 0.  0.
     999903    2    3    3    0    0 -0.10315226071E+00  0.80630006571E-01 -0.12729236825E-02  0.13216473223E+00  0.18008588556E-01 0.  0.
         14    1    1    2    0    0  0.23362225736E-01  0.48199990560E-02  0.29150710727E-02  0.24031721154E-01  0.00000000000E+00 0.  1.
     999901    1    3    3    0    0  0.79790034971E-01 -0.85450005627E-01 -0.16421473902E-02  0.88773354662E+00  0.88000000000E+00 0.  1.
        -11    1    4    4    0    0 -0.61767546631E-01  0.36933893069E-01 -0.11752386144E-02  0.71979056543E-01  0.51100000000E-03 0.  1.
         11    1    4    4    0    0 -0.41384714076E-01  0.43696113502E-01 -0.97685068047E-04  0.60185675685E-01  0.51100000000E-03 0. -1.
</event>
<event>
 7    1  0.5489035E+004  0.1043930E+01  0.7957747E-01            NaN
         13   -1    0    0    0    0  0.00000000000E+00  0.00000000000E+00  0.74505805969E-08  0.10566000000E+00  0.10566000000E+00 0. -1.
     999900   -1    0    0    0    0 -0.00000000000E+00 -0.00000000000E+00 -0.74505805969E-08  0.93827000000E+00  0.93827000000E+00 0. -1.
     999903    2    1    2    0    0  0.92741137088E-01  0.45977740972E-01  0.14604831217E-01  0.10774382737E+00  0.26087546220E-01 0.  0.
         14    1    1    2    0    0  0.32912764560E-01 -0.32942227340E-01  0.58301795205E-02  0.46930069320E-01  0.00000000000E+00 0.  1.
     999901    1    1    2    0    0 -0.12565390165E+00 -0.13035513631E-01 -0.20435010738E-01  0.88925610331E+00  0.88000000000E+00 0. -1.
        -11    1    3    3    0    0  0.69259154175E-01  0.37893177167E-01  0.41104893027E-04  0.78949262969E-01  0.51100000000E-03 0. -1.
         11    1    3    3    0    0  0.23481982913E-01  0.80845638048E-02  0.14563726324E-01  0.28794564399E-01  0.51100000000E-03 0.  1.
</event>
<event>
 8    1  0.5489035E+004  0.1043930E+01  0.7957747E-01            NaN
         13   -1    0    0    0    0  0.00000000000E+00  0.00000000000E+00  0.74505805969E-08  0.10566000000E+00  0.10566000000E+00 0. -1.
     999900   -1    0    0    0    0 -0.00000000000E+00 -0.00000000000E+00 -0.74505805969E-08  0.93827000000E+00  0.93827000000E+00 0. -1.
     999902    2    1    2    0    0  0.68058793647E-02  0.79849294262E-02  0.21378712163E-01  0.10201155417E+01  0.10198375311E+01 0.  0.
     999903    2    3    3    0    0  0.70221177688E-01  0.51787866223E-01  0.98862049522E-01  0.13335522180E+00  0.19922687082E-01 0.  0.
         14    1    1    2    0    0 -0.68058793647E-02 -0.79849294262E-02 -0.21378712163E-01  0.23814458332E-01  0.00000000000E+00 0.  1.
     999901    1    3    3    0    0 -0.63415298323E-01 -0.43802936797E-01 -0.77483337358E-01  0.88676031987E+00  0.88000000000E+00 0. -1.
        -11    1    4    4    0    0  0.28033439265E-01  0.26441763776E-01  0.30658041581E-01  0.49246494527E-01  0.51100000000E-03 0.  1.
         11    1    4    4    0    0  0.42187738423E-01  0.25346102447E-01  0.68204007940E-01  0.84108727268E-01  0.51100000000E-03 0. -1.
</event>
<event>
 8    1  0.5489035E+004  0.1043930E+01  0.7957747E-01            NaN
         13   -1    0    0    0    0  0.00000000000E+00  0.00000000000E+00  0.74505805969E-08  0.10566000000E+00  0.10566000000E+00 0.  1.
     999900   -1    0    0    0    0 -0.00000000000E+00 -0.00000000000E+00 -0.74505805969E-08  0.93827000000E+00  0.93827000000E+00 0. -1.
     999902    2    1    2    0    0  0.15423093332E-01 -0.14262675688E-01 -0.19755378174E-01  0.10150930325E+01  0.10146833467E+01 0.  0.
     999903    2    3    3    0    0 -0.22322488043E-01 -0.89890717406E-01  0.81924812859E-01  0.12521484376E+00  0.19709073753E-01 0.  0.
         14    1    1    2    0    0 -0.15423093332E-01  0.14262675688E-01  0.19755378174E-01  0.28836967464E-01  0.00000000000E+00 0.  1.
     999901    1    3    3    0    0  0.37745581374E-01  0.75628041718E-01 -0.10168019103E+00  0.88987818877E+00  0.88000000000E+00 0. -1.
        -11    1    4    4    0    0 -0.13178365987E-01 -0.24493315441E-01  0.16960519071E-01  0.32580855722E-01  0.51100000000E-03 0. -1.
         11    1    4    4    0    0 -0.91441220557E-02 -0.65397401965E-01  0.64964293788E-01  0.92633988041E-01  0.51100000000E-03 0.  1.
</event>
<event>
 8    1  0.5489035E+004  0.1043930E+01  0.7957747E-01            NaN
         13   -1    0    0    0    0  0.00000000000E+00  0.00000000000E+00  0.74505805969E-08  0.10566000000E+00  0.10566000000E+00 0.  1.
     999900   -1    0    0    0    0 -0.00000000000E+00 -0.00000000000E+00 -0.74505805969E-08  0.93827000000E+00  0.93827000000E+00 0.  1.
     999902    2    1    2    0    0 -0.17719474157E-01 -0.74797721143E-02 -0.12433319171E-01  0.10210277254E+01  0.10207708371E+01 0.  0.
     999903    2    3    3    0    0  0.11624954809E+00 -0.32827908107E-01 -0.41351583747E-01  0.13005831352E+00  0.24770596556E-01 0.  0.
         14    1    1    2    0    0  0.17719474157E-01  0.74797721143E-02  0.12433319171E-01  0.22902274579E-01  0.00000000000E+00 0.  1.
     999901    1    3    3    0    0 -0.13396902225E+00  0.25348135993E-01  0.28918264576E-01  0.89096941190E+00  0.88000000000E+00 0. -1.
        -11    1    4    4    0    0  0.62957966362E-01 -0.30482280925E-01 -0.22530174381E-01  0.73489760222E-01  0.51100000000E-03 0. -1.
         11    1    4    4    0    0  0.53291581733E-01 -0.23456271823E-02 -0.18821409366E-01  0.56568553296E-01  0.51100000000E-03 0.  1.
</event>
<event>
 8    1  0.5489035E+004  0.1043930E+01  0.7957747E-01            NaN
         13   -1    0    0    0    0  0.00000000000E+00  0.00000000000E+00  0.74505805969E-08  0.10566000000E+00  0.10566000000E+00 0.  1.
     999900   -1    0    0    0    0 -0.00000000000E+00 -0.00000000000E+00 -0.74505805969E-08  0.93827000000E+00  0.93827000000E+00 0.  1.
     999902    2    1    2    0    0  0.77525558860E-02  0.18854082495E-01  0.12651943516E-01  0.10199372881E+01  0.10196550502E+01 0.  0.
     999903    2    3    3    0    0 -0.47053323858E-01  0.10607590405E+00 -0.55511362505E-01  0.13131050092E+00  0.26359506431E-01 0.  0.
         14    1    1    2    0    0 -0.77525558860E-02 -0.18854082495E-01 -0.12651943516E-01  0.23992711899E-01  0.00000000000E+00 0. -1.
     999901    1    3    3    0    0  0.54805879744E-01 -0.87221821551E-01  0.68163306021E-01  0.88862678718E+00  0.88000000000E+00 0. -1.
        -11    1    4    4    0    0 -0.46902671603E-01  0.82220407987E-01 -0.48933885675E-01  0.10655910276E+00  0.51100000000E-03 0.  1.
         11    1    4    4    0    0 -0.15065225503E-03  0.23855496059E-01 -0.65774768298E-02  0.24751398158E-01  0.51100000000E-03 0. -1.
</event>
<event>
 8    1  0.5489035E+004  0.1043930E+01  0.7957747E-01            NaN
         13   -1    0    0    0    0  0.00000000000E+00  0.00000000000E+00  0.74505805969E-08  0.10566000000E+00  0.10566000000E+00 0. -1.
     999900   -1    0    0    0    0 -0.00000000000E+00 -0.00000000000E+00 -0.74505805969E-08  0.93827000000E+00  0.93827000000E+00 0.  1.
     999902    2    1    2    0    0 -0.14281706797E-01 -0.81127758159E-02  0.17498771685E-01  0.10199301814E+01  0.10196477743E+01 0.  0.
     999903    2    3    3    0    0 -0.12862304782E+00  0.95894894092E-02  0.22192397741E-01  0.13234393629E+00  0.19661338114E-01 0.  0.
         14    1    1    2    0    0  0.14281706797E-01  0.81127758159E-02 -0.17498771685E-01  0.23999818561E-01  0.00000000000E+00 0.  1.
     999901    1    3    3    0    0  0.11434134102E+00 -0.17702265225E-01 -0.46936260557E-02  0.88758624515E+00  0.88000000000E+00 0.  1.
        -11    1    4    4    0    0 -0.99482960397E-01  0.12999209282E-01  0.23222755615E-01  0.10298250507E+00  0.51100000000E-03 0. -1.
         11    1    4    4    0    0 -0.29140087422E-01 -0.34097198732E-02 -0.10303578738E-02  0.29361431214E-01  0.51100000000E-03 0.  1.
</event>
<event>
 8    1  0.5489035E+004  0.1043930E+01  0.7957747E-01            NaN
         13   -1    0    0    0    0  0.00000000000E+00  0.00000000000E+00  0.74505805969E-08  0.10566000000E+00  0.10566000000E+00 0. -1.
     999900   -1    0    0    0    0 -0.00000000000E+00 -0.00000000000E+00 -0.74505805969E-08  0.93827000000E+00  0.93827000000E+00 0. -1.
     999902    2    1    2    0    0 -0.13282799738E-01  0.14371884862E-01 -0.10651002772E-01  0.10216493424E+01  0.10214063594E+01 0.  0.
     999903    2    3    3    0    0 -0.10201812344E+00 -0.79395036428E-01  0.15041622456E-01  0.13185930863E+00  0.21198055215E-01 0.  0.
         14    1    1    2    0    0  0.13282799738E-01 -0.14371884862E-01  0.10651002772E-01  0.22280657607E-01  0.00000000000E+00 0. -1.
     999901    1    3    3    0    0  0.88735323704E-01  0.93766921290E-01 -0.25692625227E-01  0.88979003377E+00  0.88000000000E+00 0.  1.
        -11    1    4    4    0    0 -0.28637559554E-01 -0.28753969492E-01  0.13208720268E-01  0.42680580957E-01  0.51100000000E-03 0.  1.
         11    1    4    4    0    0 -0.73380563888E-01 -0.50641066936E-01  0.18329021877E-02  0.89178727668E-01  0.51100000000E-03 0. -1.
</event>
<event>
 8    1  0.5489035E+004  0.1043930E+01  0.7957747E-01            NaN
         13   -1    0    0    0    0  0.00000000000E+00  0.00000000000E+00  0.74505805969E-08  0.10566000000E+00  0.10566000000E+00 0. -1.
     999900   -1    0    0    0    0 -0.00000000000E+00 -0.00000000000E+00 -0.74505805969E-08  0.93827000000E+00  0.93827000000E+00 0. -1.
     999902    2    1    2    0    0  0.94901793410E-02  0.23071048687E-01  0.11651883559E-01  0.10163963264E+01  0.10160233212E+01 0.  0.
     999903    2    3    3    0    0 -0.30123059715E-01 -0.99677277758E-01  0.67995142423E-01  0.12521120356E+00  0.14544678604E-01 0.  0.
         14    1    1    2    0    0 -0.94901793410E-02 -0.23071048687E-01 -0.11651883559E-01  0.27533673600E-01  0.00000000000E+00 0.  1.
     999901    1    3    3    0    0  0.39613239056E-01  0.12274832644E+00 -0.56343258864E-01  0.89118512284E+00  0.88000000000E+00 0. -1.
        -11    1    4    4    0    0 -0.11059306303E-01 -0.17924218046E-01  0.11244843787E-01  0.23880818270E-01  0.51100000000E-03 0. -1.
         11    1    4    4    0    0 -0.19063753412E-01 -0.81753059712E-01  0.56750298637E-01  0.10133038529E+00  0.51100000000E-03 0.  1.
</event>
<event>
 8    1  0.5489035E+004  0.1043930E+01  0.7957747E-01            NaN
         13   -1    0    0    0    0  0.00000000000E+00  0.00000000000E+00  0.74505805969E-08  0.10566000000E+00  0.10566000000E+00 0.  1.
     999900   -1    0    0    0    0 -0.00000000000E+00 -0.00000000000E+00 -0.74505805969E-08  0.93827000000E+00  0.93827000000E+00 0. -1.
     999902    2    1    2    0    0 -0.22584803669E-01 -0.50759405259E-02  0.49545295802E-03  0.10207765121E+01  0.10205138919E+01 0.  0.
     999903    2    3    3    0    0  0.59131475105E-01  0.93906781984E-01  0.63408509123E-01  0.12924233876E+00  0.19181450619E-01 0.  0.
         14    1    1    2    0    0  0.22584803669E-01  0.50759405259E-02 -0.49545295802E-03  0.23153487915E-01  0.00000000000E+00 0.  1.
     999901    1    3    3    0    0 -0.81716278775E-01 -0.98982722510E-01 -0.62913056165E-01  0.89153417333E+00  0.88000000000E+00 0. -1.
        -11    1    4    4    0    0  0.18101958472E-01  0.36432443466E-01  0.13883375487E-01  0.42988522576E-01  0.51100000000E-03 0. -1.
         11    1    4    4    0    0  0.41029516634E-01  0.57474338518E-01  0.49525133636E-01  0.86253816182E-01  0.51100000000E-03 0.  1.
</event>
<event>
 8    1  0.5489035E+004  0.1043930E+01  0.7957747E-01            NaN
         13   -1    0    0    0    0  0.00000000000E+00  0.00000000000E+00  0.74505805969E-08  0.10566000000E+00  0.10566000000E+00 0. -1.
     999900   -1    0    0    0    0 -0.00000000000E+00 -0.00000000000E+00 -0.74505805969E-08  0.93827000000E+00  0.93827000000E+00 0. -1.
     999902    2    1    2    0    0  0.17969628928E-01 -0.97088364978E-02 -0.94235202651E-02  0.10214361830E+01  0.10211884763E+01 0.  0.
     999903    2    3    3    0    0  0.19241407267E-01 -0.42142707895E-01  0.12110961078E+00  0.13121572055E+00  0.20094474664E-01 0.  0.
         14    1    1    2    0    0 -0.17969628928E-01  0.97088364978E-02  0.94235202651E-02  0.22493817020E-01  0.00000000000E+00 0.  1.
     999901    1    3    3    0    0 -0.12717783389E-02  0.32433871397E-01 -0.13053313105E+00  0.89022046243E+00  0.88000000000E+00 0. -1.
        -11    1    4    4    0    0  0.22447860069E-01 -0.38838700053E-01  0.99972846709E-01  0.10957728890E+00  0.51100000000E-03 0.  1.
         11    1    4    4    0    0 -0.32064528023E-02 -0.33040078424E-02  0.21136764074E-01  0.21638431642E-01  0.51100000000E-03 0. -1.
</event>
<event>
 8    1  0.5489035E+004  0.1043930E+01  0.7957747E-01            NaN
         13   -1    0    0    0    0  0.00000000000E+00  0.00000000000E+00  0.74505805969E-08  0.10566000000E+00  0.10566000000E+00 0.  1.
     999900   -1    0    0    0    0 -0.00000000000E+00 -0.00000000000E+00 -0.74505805969E-08  0.93827000000E+00  0.93827000000E+00 0. -1.
     999902    2    1    2    0    0  0.20150012406E-01  0.62470234893E-02 -0.11416184449E-01  0.10199429708E+01  0.10196608682E+01 0.  0.
     999903    2    3    3    0    0  0.13916844669E-01 -0.36979167103E-01 -0.12393056179E+00  0.13170491654E+00  0.20646150456E-01 0.  0.
         14    1    1    2    0    0 -0.20150012406E-01 -0.62470234893E-02  0.11416184449E-01  0.23987029199E-01  0.00000000000E+00 0.  1.
     999901    1    3    3    0    0  0.62331677366E-02  0.43226190592E-01  0.11251437734E+00  0.88823805426E+00  0.88000000000E+00 0.  1.
        -11    1    4    4    0    0 -0.51070771616E-02 -0.11502938062E-01 -0.40787731402E-01  0.42688405628E-01  0.51100000000E-03 0.  1.
         11    1    4    4    0    0  0.19023921831E-01 -0.25476229041E-01 -0.83142830391E-01  0.89016510909E-01  0.51100000000E-03 0. -1.
</event>
<event>
 8    1  0.5489035E+004  0.1043930E+01  0.7957747E-01            NaN
         13   -1    0    0    0    0  0.00000000000E+00  0.00000000000E+00  0.74505805969E-08  0.10566000000E+00  0.10566000000E+00 0. -1.
     999900   -1    0    0    0    0 -0.00000000000E+00 -0.00000000000E+00 -0.74505805969E-08  0.93827000000E+00  0.93827000000E+00 0.  1.
     999902    2    1    2    0    0  0.68761732365E-02 -0.20486781064E-01  0.10362904746E-01  0.10199637789E+01  0.10196821714E+01 0.  0.
     999903    2    3    3    0    0 -0.47860250228E-01 -0.34389199107E-01  0.11616414921E+00  0.13182907260E+00  0.20287292941E-01 0.  0.
         14    1    1    2    0    0 -0.68761732365E-02  0.20486781064E-01 -0.10362904746E-01  0.23966221052E-01  0.00000000000E+00 0. -1.
     999901    1    3    3    0    0  0.54736423464E-01  0.13902418043E-01 -0.10580124447E+00  0.88813470634E+00  0.88000000000E+00 0.  1.
        -11    1    4    4    0    0 -0.23527514941E-01 -0.49820569675E-02  0.48604502584E-01  0.54231205439E-01  0.51100000000E-03 0.  1.
         11    1    4    4    0    0 -0.24332735287E-01 -0.29407142140E-01  0.67559646626E-01  0.77597867166E-01  0.51100000000E-03 0. -1.
</event>
<event>
 8    1  0.5489035E+004  0.1043930E+01  0.7957747E-01            NaN
         13   -1    0    0    0    0  0.00000000000E+00  0.00000000000E+00  0.74505805969E-08  0.10566000000E+00  0.10566000000E+00 0.  1.
     999900   -1    0    0    0    0 -0.00000000000E+00 -0.00000000000E+00 -0.74505805969E-08  0.93827000000E+00  0.93827000000E+00 0. -1.
     999902    2    1    2    0    0 -0.12733471852E-02 -0.13997820722E-01 -0.11557229327E-01  0.10257330237E+01  0.10255715996E+01 0.  0.
     999903    2    3    3    0    0 -0.54458033413E-01  0.10470256561E+00  0.58751047119E-01  0.13339808302E+00  0.20372981310E-01 0.  0.
         14    1    1    2    0    0  0.12733471852E-02  0.13997820722E-01  0.11557229327E-01  0.18196976335E-01  0.00000000000E+00 0. -1.
     999901    1    3    3    0    0  0.53184686228E-01 -0.11870038633E+00 -0.70308276446E-01  0.89233494065E+00  0.88000000000E+00 0.  1.
        -11    1    4    4    0    0 -0.90054353817E-02  0.78307799509E-02  0.10935274031E-01  0.16194453378E-01  0.51100000000E-03 0. -1.
         11    1    4    4    0    0 -0.45452598032E-01  0.96871785655E-01  0.47815773088E-01  0.11720362964E+00  0.51100000000E-03 0.  1.
</event>
<event>
 8    1  0.5489035E+004  0.1043930E+01  0.7957747E-01            NaN
         13   -1    0    0    0    0  0.00000000000E+00  0.00000000000E+00  0.74505805969E-08  0.10566000000E+00  0.10566000000E+00 0.  1.
     999900   -1    0    0    0    0 -0.00000000000E+00 -0.00000000000E+00 -0.74505805969E-08  0.93827000000E+00  0.93827000000E+00 0.  1.
     999902    2    1    2    0    0  0.61953991367E-02 -0.22085317607E-01  0.28301186368E-02  0.10208182325E+01  0.10205565688E+01 0.  0.
     999903    2    3    3    0    0  0.87749531047E-01 -0.10537705010E-01 -0.95268113417E-01  0.13154454748E+00  0.20418891033E-01 0.  0.
         14    1    1    2    0    0 -0.61953991367E-02  0.22085317607E-01 -0.28301186368E-02  0.23111767474E-01  0.00000000000E+00 0.  1.
     999901    1    3    3    0    0 -0.81554131911E-01 -0.11547612597E-01  0.98098232054E-01  0.88927368505E+00  0.88000000000E+00 0.  1.
        -11    1    4    4    0    0  0.43555650516E-01 -0.15462411678E-01 -0.47316498352E-01  0.66145997642E-01  0.51100000000E-03 0. -1.
         11    1    4    4    0    0  0.44193880531E-01  0.49247066680E-02 -0.47951615066E-01  0.65398549835E-01  0.51100000000E-03 0.  1.
</event>
<event>
 8    1  0.5489035E+004  0.1043930E+01  0.7957747E-01            NaN
         13   -1    0    0    0    0  0.00000000000E+00  0.00000000000E+00  0.74505805969E-08  0.10566000000E+00  0.10566000000E+00 0.  1.
     999900   -1    0    0    0    0 -0.00000000000E+00 -0.00000000000E+00 -0.74505805969E-08  0.93827000000E+00  0.93827000000E+00 0. -1.
     999902    2    1    2    0    0 -0.25924142382E-02  0.22378330681E-03  0.24078209303E-01  0.10197116009E+01  0.10194239639E+01 0.  0.
     999903    2    3    3    0    0  0.70284182827E-01  0.97720704193E-01  0.47702967924E-01  0.13101886595E+00  0.20029171263E-01 0.  0.
         14    1    1    2    0    0  0.25924142382E-02 -0.22378330681E-03 -0.24078209303E-01  0.24218399076E-01  0.00000000000E+00 0. -1.
     999901    1    3    3    0    0 -0.72876597065E-01 -0.97496920886E-01 -0.23624758621E-01  0.88869273498E+00  0.88000000000E+00 0. -1.
        -11    1    4    4    0    0  0.16485015505E-01  0.19676893439E-01  0.19102740727E-02  0.25745798485E-01  0.51100000000E-03 0. -1.
         11    1    4    4    0    0  0.53799167323E-01  0.78043810754E-01  0.45792693851E-01  0.10527306746E+00  0.51100000000E-03 0.  1.
</event>
<event>
 8    1  0.5489035E+004  0.1043930E+01  0.7957747E-01            NaN
         13   -1    0    0    0    0  0.00000000000E+00  0.00000000000E+00  0.74505805969E-08  0.10566000000E+00  0.10566000000E+00 0.  1.
     999900   -1    0    0    0    0 -0.00000000000E+00 -0.00000000000E+00 -0.74505805969E-08  0.93827000000E+00  0.93827000000E+00 0.  1.
     999902    2    1    2    0    0  0.31556641127E-02 -0.21618287546E-01  0.80302899268E-02  0.10206535284E+01  0.10203880786E+01 0.  0.
     999903    2    3    3    0    0  0.46313494170E-01 -0.53088260422E-01 -0.10863619142E+00  0.13134816729E+00  0.22072965994E-01 0.  0.
         14    1    1    2    0    0 -0.31556641127E-02  0.21618287546E-01 -0.80302899268E-02  0.23276471569E-01  0.00000000000E+00 0. -1.
     999901    1    3    3    0    0 -0.43157830057E-01  0.31469972876E-01  0.11666648134E+00  0.88930536114E+00  0.88000000000E+00 0. -1.
        -11    1    4    4    0    0  0.22494355985E-01 -0.40950407311E-01 -0.75225814568E-01  0.88555723748E-01  0.51100000000E-03 0.  1.
         11    1    4    4    0    0  0.23819138186E-01 -0.12137853112E-01 -0.33410376848E-01  0.42792443540E-01  0.51100000000E-03 0. -1.
</event>
<event>
 8    1  0.5489035E+004  0.1043930E+01  0.7957747E-01            NaN
         13   -1    0    0    0    0  0.00000000000E+00  0.00000000000E+00  0.74505805969E-08  0.10566000000E+00  0.10566000000E+00 0. -1.
     999900   -1    0    0    0    0 -0.00000000000E+00 -0.00000000000E+00 -0.74505805969E-08  0.93827000000E+00  0.93827000000E+00 0. -1.
     999902    2    1    2    0    0  0.13386602518E-01 -0.67873125950E-02 -0.18586390244E-01  0.10200401980E+01  0.10197604046E+01 0.  0.
     999903    2    3    3    0    0  0.13021187252E+00 -0.91510457325E-02 -0.11937935212E-01  0.13229139740E+00  0.17878091223E-01 0.  0.
         14    1    1    2    0    0 -0.13386602518E-01  0.67873125950E-02  0.18586390244E-01  0.23889802041E-01  0.00000000000E+00 0. -1.
     999901    1    3    3    0    0 -0.11682527000E+00  0.23637331374E-02 -0.66484550318E-02  0.88774880056E+00  0.88000000000E+00 0. -1.
        -11    1    4    4    0    0  0.40822678322E-01 -0.11205270471E-01 -0.35206291565E-02  0.42481820845E-01  0.51100000000E-03 0. -1.
         11    1    4    4    0    0  0.89389194196E-01  0.20542247384E-02 -0.84173060559E-02  0.89809576552E-01  0.51100000000E-03 0.  1.
</event>
<event>
 8    1  0.5489035E+004  0.1043930E+01  0.7957747E-01            NaN
         13   -1    0    0    0    0  0.00000000000E+00  0.00000000000E+00  0.74505805969E-08  0.10566000000E+00  0.10566000000E+00 0. -1.
     999900   -1    0    0    0    0 -0.00000000000E+00 -0.00000000000E+00 -0.74505805969E-08  0.93827000000E+00  0.93827000000E+00 0.  1.
     999902    2    1    2    0    0  0.90707519098E-02 -0.19581229425E-01  0.10685847361E-01  0.10198490860E+01  0.10195647443E+01 0.  0.
     999903    2    3    3    0    0 -0.30638493154E-01 -0.13001093035E-01  0.12539898016E+00  0.13149148616E+00  0.21386000638E-01 0.  0.
         14    1    1    2    0    0 -0.90707519098E-02  0.19581229425E-01 -0.10685847361E-01  0.24080914015E-01  0.00000000000E+00 0.  1.
     999901    1    3    3    0    0  0.39709245064E-01 -0.65801363892E-02 -0.11471313280E+00  0.88835759983E+00  0.88000000000E+00 0.  1.
        -11    1    4    4    0    0 -0.12656513245E-01 -0.16898246335E-01  0.64188584085E-01  0.67573467460E-01  0.51100000000E-03 0.  1.
         11    1    4    4    0    0 -0.17981979910E-01  0.38971532992E-02  0.61210396075E-01  0.63918018695E-01  0.51100000000E-03 0. -1.
</event>
<event>
 8    1  0.5489035E+004  0.1043930E+01  0.7957747E-01            NaN
         13   -1    0    0    0    0  0.00000000000E+00  0.00000000000E+00  0.74505805969E-08  0.10566000000E+00  0.10566000000E+00 0. -1.
     999900   -1    0    0    0    0 -0.00000000000E+00 -0.00000000000E+00 -0.74505805969E-08  0.93827000000E+00  0.93827000000E+00 0.  1.
     999902    2    1    2    0    0  0.12892555719E-01 -0.41892240390E-02  0.19504589608E-01  0.10201771769E+01  0.10199006204E+01 0.  0.
     999903    2    3    3    0    0 -0.45442309033E-01  0.98945656711E-01  0.69601425840E-01  0.13082378643E+00  0.20377884726E-01 0.  0.
         14    1    1    2    0    0 -0.12892555719E-01  0.41892240390E-02 -0.19504589608E-01  0.23752823133E-01  0.00000000000E+00 0. -1.
     999901    1    3    3    0    0  0.58334864752E-01 -0.10313488075E+00 -0.50096836232E-01  0.88935339043E+00  0.88000000000E+00 0.  1.
        -11    1    4    4    0    0 -0.26679254231E-01  0.36737264581E-01  0.34058910302E-01  0.56759842382E-01  0.51100000000E-03 0. -1.
         11    1    4    4    0    0 -0.18763054802E-01  0.62208392130E-01  0.35542515538E-01  0.74063944053E-01  0.51100000000E-03 0.  1.
</event>
<event>
 8    1  0.5489035E+004  0.1043930E+01  0.7957747E-01            NaN
         13   -1    0    0    0    0  0.00000000000E+00  0.00000000000E+00  0.74505805969E-08  0.10566000000E+00  0.10566000000E+00 0.  1.
     999900   -1    0    0    0    0 -0.00000000000E+00 -0.00000000000E+00 -0.74505805969E-08  0.93827000000E+00  0.93827000000E+00 0.  1.
     999902    2    1    2    0    0  0.35254283784E-02  0.73758935951E-02 -0.22012800627E-01  0.10204481806E+01  0.10201779714E+01 0.  0.
     999903    2    3    3    0    0 -0.89173436161E-01  0.51177717345E-01  0.75491586420E-01  0.12914644450E+00  0.20217913792E-01 0.  0.
         14    1    1    2    0    0 -0.35254283784E-02 -0.73758935951E-02  0.22012800627E-01  0.23481819414E-01  0.00000000000E+00 0.  1.
     999901    1    3    3    0    0  0.92698864539E-01 -0.43801823750E-01 -0.97504387047E-01  0.89130173608E+00  0.88000000000E+00 0.  1.
        -11    1    4    4    0    0 -0.27338177449E-01  0.84733928722E-02  0.13138416444E-01  0.31496879856E-01  0.51100000000E-03 0.  1.
         11    1    4    4    0    0 -0.61835258712E-01  0.42704324473E-01  0.62353169977E-01  0.97649564647E-01  0.51100000000E-03 0. -1.
</event>
<event>
 8    1  0.5489035E+004  0.1043930E+01  0.7957747E-01            NaN
         13   -1    0    0    0    0  0.00000000000E+00  0.00000000000E+00  0.74505805969E-08  0.10566000000E+00  0.10566000000E+00 0.  1.
     999900   -1    0    0    0    0 -0.00000000000E+00 -0.00000000000E+00 -0.74505805969E-08  0.93827000000E+00  0.93827000000E+00 0.  1.
     999902    2    1    2    0    0  0.22681126714E-01  0.58769492722E-02 -0.64272325201E-02  0.10196342934E+01  0.10193447949E+01 0.  0.
     999903    2    3    3    0    0  0.96980523607E-01  0.84947292089E-01  0.22687094058E-01  0.13249272436E+00  0.20453688641E-01 0.  0.
         14    1    1    2    0    0 -0.22681126714E-01 -0.58769492722E-02  0.64272325201E-02  0.24295706609E-01  0.00000000000E+00 0.  1.
     999901    1    3    3    0    0 -0.74299396894E-01 -0.79070342817E-01 -0.29114326578E-01  0.88714156903E+00  0.88000000000E+00 0. -1.
        -11    1    4    4    0    0  0.60427943527E-01  0.43200351810E-01  0.20040286862E-01  0.76939463047E-01  0.51100000000E-03 0. -1.
         11    1    4    4    0    0  0.36552580081E-01  0.41746940278E-01  0.26468071962E-02  0.55553261313E-01  0.51100000000E-03 0.  1.
</event>
<event>
 8    1  0.5489035E+004  0.1043930E+01  0.7957747E-01            NaN
         13   -1    0    0    0    0  0.00000000000E+00  0.00000000000E+00  0.74505805969E-08  0.10566000000E+00  0.10566000000E+00 0. -1.
     999900   -1    0    0    0    0 -0.00000000000E+00 -0.00000000000E+00 -0.74505805969E-08  0.93827000000E+00  0.93827000000E+00 0. -1.
     999902    2    1    2    0    0  0.44599202630E-03 -0.22372712619E-01  0.86197673851E-02  0.10199500590E+01  0.10196681251E+01 0.  0.
     999903    2    3    3    0    0 -0.45930193381E-01 -0.91442140144E-01  0.82394100994E-01  0.13295288391E+00  0.20406709732E-01 0.  0.
         14    1    1    2    0    0 -0.44599202630E-03  0.22372712619E-01 -0.86197673851E-02  0.23979940963E-01  0.00000000000E+00 0. -1.
     999901    1    3    3    0    0  0.46376185407E-01  0.69069427525E-01 -0.73774333609E-01  0.88699717513E+00  0.88000000000E+00 0. -1.
        -11    1    4    4    0    0 -0.40903758858E-01 -0.83084443664E-01  0.81102606549E-01  0.12310173101E+00  0.51100000000E-03 0.  1.
         11    1    4    4    0    0 -0.50264345230E-02 -0.83576964801E-02  0.12914944449E-02  0.98511528954E-02  0.51100000000E-03 0. -1.
</event>
<event>
 8    1  0.5489035E+004  0.1043930E+01  0.7957747E-01            NaN
         13   -1    0    0    0    0  0.00000000000E+00  0.00000000000E+00  0.74505805969E-08  0.10566000000E+00  0.10566000000E+00 0. -1.
     999900   -1    0    0    0    0 -0.00000000000E+00 -0.00000000000E+00 -0.74505805969E-08  0.93827000000E+00  0.93827000000E+00 0. -1.
     999902    2    1    2    0    0 -0.68171482982E-02  0.40765256009E-03 -0.21288891583E-01  0.10215725271E+01  0.10213278472E+01 0.  0.
     999903    2    3    3    0    0 -0.63881513902E-01 -0.88433671232E-01 -0.74767880369E-01  0.13364847351E+00  0.19243609579E-01 0.  0.
         14    1    1    2    0    0  0.68171482982E-02 -0.40765256009E-03  0.21288891583E-01  0.22357472942E-01  0.00000000000E+00 0. -1.
     999901    1    3    3    0    0  0.57064365603E-01  0.88841323792E-01  0.53478988786E-01  0.88792405355E+00  0.88000000000E+00 0.  1.
        -11    1    4    4    0    0 -0.65190839896E-01 -0.85674587641E-01 -0.73114181616E-01  0.13013810068E+00  0.51100000000E-03 0. -1.
         11    1    4    4    0    0  0.13093259945E-02 -0.27590835911E-02 -0.16536987529E-02  0.35103728274E-02  0.51100000000E-03 0.  1.
</event>
<event>
 8    1  0.5489035E+004  0.1043930E+01  0.7957747E-01            NaN
         13   -1    0    0    0    0  0.00000000000E+00  0.00000000000E+00  0.74505805969E-08  0.10566000000E+00  0.10566000000E+00 0. -1.
     999900   -1    0    0    0    0 -0.00000000000E+00 -0.00000000000E+00 -0.74505805969E-08  0.93827000000E+00  0.93827000000E+00 0.  1.
     999902    2    1    2    0    0  0.17616734247E-01 -0.82736818231E-02 -0.14230703101E-01  0.10198195034E+01  0.10195344543E+01 0.  0.
     999903    2    3    3    0    0 -0.66690287963E-02  0.11415799265E+00 -0.53586327777E-01  0.13014080947E+00  0.31442209458E-01 0.  0.
         14    1    1    2    0    0 -0.17616734247E-01  0.82736818231E-02  0.14230703101E-01  0.24110496618E-01  0.00000000000E+00 0. -1.
     999901    1    3    3    0    0  0.24285763043E-01 -0.12243167447E+00  0.39355624676E-01  0.88967869391E+00  0.88000000000E+00 0. -1.
        -11    1    4    4    0    0 -0.17311397792E-01  0.39705382320E-01 -0.21702294730E-01  0.48450516987E-01  0.51100000000E-03 0.  1.
         11    1    4    4    0    0  0.10642368996E-01  0.74452610326E-01 -0.31884033047E-01  0.81690292487E-01  0.51100000000E-03 0. -1.
</event>
<event>
 8    1  0.5489035E+004  0.1043930E+01  0.7957747E-01            NaN
         13   -1    0    0    0    0  0.00000000000E+00  0.00000000000E+00  0.74505805969E-08  0.10566000000E+00  0.10566000000E+00 0. -1.
     999900   -1    0    0    0    0 -0.00000000000E+00 -0.00000000000E+00 -0.74505805969E-08  0.93827000000E+00  0.93827000000E+00 0. -1.
     999902    2    1    2    0    0 -0.63162581877E-02 -0.84394601401E-02  0.20973046343E-01  0.10204568605E+01  0.10201868534E+01 0.  0.
     999903    2    3    3    0    0 -0.27436743128E-01  0.98971522193E-01 -0.73259609140E-01  0.12868167170E+00  0.25374499418E-01 0.  0.
         14    1    1    2    0    0  0.63162581877E-02  0.84394601401E-02 -0.20973046343E-01  0.23473139498E-01  0.00000000000E+00 0.  1.
     999901    1    3    3    0    0  0.21120484940E-01 -0.10741098233E+00  0.94232655484E-01  0.89177518881E+00  0.88000000000E+00 0.  1.
        -11    1    4    4    0    0 -0.22214908414E-01  0.43105829457E-01 -0.24445977916E-01  0.54309130414E-01  0.51100000000E-03 0. -1.
         11    1    4    4    0    0 -0.52218347140E-02  0.55865692735E-01 -0.48813631224E-01  0.74372541283E-01  0.51100000000E-03 0.  1.
</event>
<event>
 8    1  0.5489035E+004  0.1043930E+01  0.7957747E-01            NaN
         13   -1    0    0    0    0  0.00000000000E+00  0.00000000000E+00  0.74505805969E-08  0.10566000000E+00  0.10566000000E+00 0. -1.
     999900   -1    0    0    0    0 -0.00000000000E+00 -0.00000000000E+00 -0.74505805969E-08  0.93827000000E+00  0.93827000000E+00 0. -1.
     999902    2    1    2    0    0  0.22110095771E-01  0.66284381023E-02  0.43628570254E-02  0.10204390007E+01  0.10201685778E+01 0.  0.
     999903    2    3    3    0    0 -0.15209209006E-01 -0.12547633741E+00  0.20581628330E-01  0.12964864895E+00  0.20237031954E-01 0.  0.
         14    1    1    2    0    0 -0.22110095771E-01 -0.66284381023E-02 -0.43628570254E-02  0.23490999300E-01  0.00000000000E+00 0.  1.
     999901    1    3    3    0    0  0.37319304777E-01  0.13210477551E+00 -0.16218771305E-01  0.89079035175E+00  0.88000000000E+00 0. -1.
        -11    1    4    4    0    0 -0.14452718186E-02 -0.69530767147E-01  0.18629246198E-01  0.71999488370E-01  0.51100000000E-03 0.  1.
         11    1    4    4    0    0 -0.13763937188E-01 -0.55945570264E-01  0.19523821325E-02  0.57649160584E-01  0.51100000000E-03 0. -1.
</event>
<event>
 8    1  0.5489035E+004  0.1043930E+01  0.7957747E-01            NaN
         13   -1    0    0    0    0  0.00000000000E+00  0.00000000000E+00  0.74505805969E-08  0.10566000000E+00  0.10566000000E+00 0. -1.
     999900   -1    0    0    0    0 -0.00000000000E+00 -0.00000000000E+00 -0.74505805969E-08  0.93827000000E+00  0.93827000000E+00 0.  1.
     999902    2    1    2    0    0  0.10491844611E-01  0.20072624248E-01 -0.68591521131E-02  0.10202648988E+01  0.10199904052E+01 0.  0.
     999903    2    3    3    0    0  0.39188381205E-01 -0.40711047721E-01 -0.11646996915E+00  0.13092093991E+00  0.19542777781E-01 0.  0.
         14    1    1    2    0    0 -0.10491844611E-01 -0.20072624248E-01  0.68591521131E-02  0.23665101209E-01  0.00000000000E+00 0. -1.
     999901    1    3    3    0    0 -0.28696536594E-01  0.60783671968E-01  0.10961081704E+00  0.88934395888E+00  0.88000000000E+00 0. -1.
        -11    1    4    4    0    0  0.24522997601E-01 -0.28453949027E-01 -0.95073203327E-01  0.10222612063E+00  0.51100000000E-03 0.  1.
         11    1    4    4    0    0  0.14665383605E-01 -0.12257098694E-01 -0.21396765827E-01  0.28694819280E-01  0.51100000000E-03 0. -1.
</event>
<event>
 8    1  0.5489035E+004  0.1043930E+01  0.7957747E-01            NaN
         13   -1    0    0    0    0  0.00000000000E+00  0.00000000000E+00  0.74505805969E-08  0.10566000000E+00  0.10566000000E+00 0.  1.
     999900   -1    0    0    0    0 -0.00000000000E+00 -0.00000000000E+00 -0.74505805969E-08  0.93827000000E+00  0.93827000000E+00 0. -1.
     999902    2    1    2    0    0 -0.83297561914E-02  0.21524144742E-01 -0.52115847594E-02  0.10202691830E+01  0.10199947900E+01 0.  0.
     999903    2    3    3    0    0 -0.79394678533E-01  0.49699432801E-01  0.91574283190E-01  0.13166827468E+00  0.13309268023E-01 0.  0.
         14    1    1    2    0    0  0.83297561914E-02 -0.21524144742E-01  0.52115847594E-02  0.23660816993E-01  0.00000000000E+00 0.  1.
     999901    1    3    3    0    0  0.71064922342E-01 -0.28175288059E-01 -0.96785867950E-01  0.88860090833E+00  0.88000000000E+00 0.  1.
        -11    1    4    4    0    0 -0.29897069898E-01  0.21804843605E-01  0.44537086502E-01  0.57905951233E-01  0.51100000000E-03 0.  1.
         11    1    4    4    0    0 -0.49497608635E-01  0.27894589195E-01  0.47037196689E-01  0.73762323447E-01  0.51100000000E-03 0. -1.
</event>
<event>
 8    1  0.5489035E+004  0.1043930E+01  0.7957747E-01            NaN
         13   -1    0    0    0    0  0.00000000000E+00  0.00000000000E+00  0.74505805969E-08  0.10566000000E+00  0.10566000000E+00 0.  1.
     999900   -1    0    0    0    0 -0.00000000000E+00 -0.00000000000E+00 -0.74505805969E-08  0.93827000000E+00  0.93827000000E+00 0.  1.
     999902    2    1    2    0    0 -0.87846424162E-02  0.17081043607E-02  0.21793405455E-01  0.10203707113E+01  0.10200986954E+01 0.  0.
     999903    2    3    3    0    0  0.17937288178E-01 -0.12400624014E+00 -0.26884812925E-01  0.12970369892E+00  0.20024046696E-01 0.  0.
         14    1    1    2    0    0  0.87846424162E-02 -0.17081043607E-02 -0.21793405455E-01  0.23559288703E-01  0.00000000000E+00 0. -1.
     999901    1    3    3    0    0 -0.26721930594E-01  0.12571434450E+00  0.48678218379E-01  0.89066701238E+00  0.88000000000E+00 0. -1.
        -11    1    4    4    0    0  0.21779043091E-01 -0.87792904487E-01 -0.18385356299E-01  0.92304947015E-01  0.51100000000E-03 0. -1.
         11    1    4    4    0    0 -0.38417549130E-02 -0.36213335657E-01 -0.84994566255E-02  0.37398751906E-01  0.51100000000E-03 0.  1.
</event>
<event>
 8    1  0.5489035E+004  0.1043930E+01  0.7957747E-01            NaN
         13   -1    0    0    0    0  0.00000000000E+00  0.00000000000E+00  0.74505805969E-08  0.10566000000E+00  0.10566000000E+00 0.  1.
     999900   -1    0    0    0    0 -0.00000000000E+00 -0.00000000000E+00 -0.74505805969E-08  0.93827000000E+00  0.93827000000E+00 0.  1.
     999902    2    1    2    0    0 -0.11862197560E-01  0.18286231192E-01 -0.85185571081E-02  0.10205277822E+01  0.10202594231E+01 0.  0.
     999903    2    3    3    0    0 -0.10808079077E+00 -0.70408255755E-01 -0.80142358503E-02  0.13085088354E+00  0.20468168836E-01 0.  0.
         14    1    1    2    0    0  0.11862197560E-01 -0.18286231192E-01  0.85185571081E-02  0.23402217787E-01  0.00000000000E+00 0.  1.
     999901    1    3    3    0    0  0.96218593206E-01  0.88694486947E-01 -0.50432125780E-03  0.88967689867E+00  0.88000000000E+00 0. -1.
        -11    1    4    4    0    0 -0.53922934695E-01 -0.25289512430E-01  0.23195736396E-02  0.59606072409E-01  0.51100000000E-03 0.  1.
         11    1    4    4    0    0 -0.54157856071E-01 -0.45118743325E-01 -0.10333809490E-01  0.71244811131E-01  0.51100000000E-03 0. -1.
</event>
<event>
 8    1  0.5489035E+004  0.1043930E+01  0.7957747E-01            NaN
         13   -1    0    0    0    0  0.00000000000E+00  0.00000000000E+00  0.74505805969E-08  0.10566000000E+00  0.10566000000E+00 0.  1.
     999900   -1    0    0    0    0 -0.00000000000E+00 -0.00000000000E+00 -0.74505805969E-08  0.93827000000E+00  0.93827000000E+00 0. -1.
     999902    2    1    2    0    0 -0.18568246639E-01  0.14170843099E-01 -0.40549390542E-02  0.10202227204E+01  0.10199472359E+01 0.  0.
     999903    2    3    3    0    0 -0.46368673502E-01  0.66148661130E-01 -0.10343534970E+00  0.13266932854E+00  0.19405667151E-01 0.  0.
         14    1    1    2    0    0  0.18568246639E-01 -0.14170843099E-01  0.40549390542E-02  0.23707279644E-01  0.00000000000E+00 0. -1.
     999901    1    3    3    0    0  0.27800426864E-01 -0.51977818031E-01  0.99380410642E-01  0.88755339181E+00  0.88000000000E+00 0. -1.
        -11    1    4    4    0    0 -0.35390378241E-01  0.61781115226E-01 -0.90301631710E-01  0.11499578636E+00  0.51100000000E-03 0.  1.
         11    1    4    4    0    0 -0.10978295261E-01  0.43675459043E-02 -0.13133717986E-01  0.17673542181E-01  0.51100000000E-03 0. -1.
</event>
<event>
 8    1  0.5489035E+004  0.1043930E+01  0.7957747E-01            NaN
         13   -1    0    0    0    0  0.00000000000E+00  0.00000000000E+00  0.74505805969E-08  0.10566000000E+00  0.10566000000E+00 0.  1.
     999900   -1    0    0    0    0 -0.00000000000E+00 -0.00000000000E+00 -0.74505805969E-08  0.93827000000E+00  0.93827000000E+00 0. -1.
     999902    2    1    2    0    0  0.22230323802E-01 -0.57317064257E-02  0.41414827892E-02  0.10206020846E+01  0.10203354466E+01 0.  0.
     999903    2    3    3    0    0 -0.10556698232E+00  0.63245327916E-01  0.29144229685E-01  0.12834925049E+00  0.21903988621E-01 0.  0.
         14    1    1    2    0    0 -0.22230323802E-01  0.57317064257E-02 -0.41414827892E-02  0.23327915350E-01  0.00000000000E+00 0. -1.
     999901    1    3    3    0    0  0.12779730612E+00 -0.68977034342E-01 -0.25002746895E-01  0.89225283416E+00  0.88000000000E+00 0.  1.
        -11    1    4    4    0    0 -0.40537084513E-01  0.17561969079E-01  0.15054549796E-02  0.44206396533E-01  0.51100000000E-03 0. -1.
         11    1    4    4    0    0 -0.65029897807E-01  0.45683358838E-01  0.27638774705E-01  0.84142853955E-01  0.51100000000E-03 0.  1.
</event>
<event>
 8    1  0.5489035E+004  0.1043930E+01  0.7957747E-01            NaN
         13   -1    0    0    0    0  0.00000000000E+00  0.00000000000E+00  0.74505805969E-08  0.10566000000E+00  0.10566000000E+00 0.  1.
     999900   -1    0    0    0    0 -0.00000000000E+00 -0.00000000000E+00 -0.74505805969E-08  0.93827000000E+00  0.93827000000E+00 0. -1.
     999902    2    1    2    0    0 -0.11965127600E-01 -0.19665903312E-01 -0.30743846465E-02  0.10207057912E+01  0.10204415458E+01 0.  0.
     999903    2    3    3    0    0  0.25568816528E-01  0.11237299573E+00  0.53045093467E-01  0.12829755302E+00  0.19105643722E-01 0.  0.
         14    1    1    2    0    0  0.11965127600E-01  0.19665903312E-01  0.30743846465E-02  0.23224208760E-01  0.00000000000E+00 0.  1.
     999901    1    3    3    0    0 -0.37533944128E-01 -0.13203889904E+00 -0.56119478114E-01  0.89240823822E+00  0.88000000000E+00 0. -1.
        -11    1    4    4    0    0  0.43307434279E-02  0.49324752754E-01  0.29959089438E-01  0.57874819514E-01  0.51100000000E-03 0. -1.
         11    1    4    4    0    0  0.21238073100E-01  0.63048242975E-01  0.23086004029E-01  0.70422733505E-01  0.51100000000E-03 0.  1.
</event>
<event>
 8    1  0.5489035E+004  0.1043930E+01  0.7957747E-01            NaN
         13   -1    0    0    0    0  0.00000000000E+00  0.00000000000E+00  0.74505805969E-08  0.10566000000E+00  0.10566000000E+00 0. -1.
     999900   -1    0    0    0    0 -0.00000000000E+00 -0.00000000000E+00 -0.74505805969E-08  0.93827000000E+00  0.93827000000E+00 0. -1.
     999902    2    1    2    0    0 -0.89339098929E-02 -0.16007813101E-01  0.14998934019E-01  0.10202438680E+01  0.10199688806E+01 0.  0.
     999903    2    3    3    0    0 -0.98455034789E-02  0.21077006769E-02  0.13056444005E+00  0.13250269571E+00  0.20211754575E-01 0.  0.
         14    1    1    2    0    0  0.89339098929E-02  0.16007813101E-01 -0.14998934019E-01  0.23686131975E-01  0.00000000000E+00 0. -1.
     999901    1    3    3    0    0  0.91159358595E-03 -0.18115513778E-01 -0.11556550603E+00  0.88774117232E+00  0.88000000000E+00 0. -1.
        -11    1    4    4    0    0  0.53768787380E-02  0.38035387953E-02  0.55354719906E-01  0.55747501013E-01  0.51100000000E-03 0.  1.
         11    1    4    4    0    0 -0.15222382217E-01 -0.16958381184E-02  0.75209720146E-01  0.76755194695E-01  0.51100000000E-03 0. -1.
</event>
<event>
 8    1  0.5489035E+004  0.1043930E+01  0.7957747E-01            NaN
         13   -1    0    0    0    0  0.00000000000E+00  0.00000000000E+00  0.74505805969E-08  0.10566000000E+00  0.10566000000E+00 0.  1.
     999900   -1    0    0    0    0 -0.00000000000E+00 -0.00000000000E+00 -0.74505805969E-08  0.93827000000E+00  0.93827000000E+00 0. -1.
     999902    2    1    2    0    0  0.65270160192E-02  0.16058862272E-01 -0.16047160944E-01  0.10203079685E+01  0.10200344849E+01 0.  0.
     999903    2    3    3    0    0  0.77792755980E-01  0.11591378546E-01  0.10082748673E+00  0.12971353371E+00  0.21756511818E-01 0.  0.
         14    1    1    2    0    0 -0.65270160192E-02 -0.16058862272E-01  0.16047160944E-01  0.23622031453E-01  0.00000000000E+00 0.  1.
     999901    1    3    3    0    0 -0.71265739960E-01  0.44674837254E-02 -0.11687464767E+00  0.89059443484E+00  0.88000000000E+00 0. -1.
        -11    1    4    4    0    0  0.39860183617E-01 -0.48375617697E-02  0.53028500105E-01  0.66517059363E-01  0.51100000000E-03 0. -1.
         11    1    4    4    0    0  0.37932572362E-01  0.16428940316E-01  0.47798986625E-01  0.63196474343E-01  0.51100000000E-03 0.  1.
</event>
<event>
 8    1  0.5489035E+004  0.1043930E+01  0.7957747E-01            NaN
         13   -1    0    0    0    0  0.00000000000E+00  0.00000000000E+00  0.74505805969E-08  0.10566000000E+00  0.10566000000E+00 0.  1.
     999900   -1    0    0    0    0 -0.00000000000E+00 -0.00000000000E+00 -0.74505805969E-08  0.93827000000E+00  0.93827000000E+00 0.  1.
     999902    2    1    2    0    0  0.22188838210E-01  0.75727392857E-02  0.54957664996E-02  0.10198490039E+01  0.10195646603E+01 0.  0.
     999903    2    3    3    0    0 -0.95466735314E-01 -0.61900958278E-01  0.55088972093E-01  0.12792472764E+00  0.19603951317E-01 0.  0.
         14    1    1    2    0    0 -0.22188838210E-01 -0.75727392857E-02 -0.54957664996E-02  0.24080996051E-01  0.00000000000E+00 0. -1.
     999901    1    3    3    0    0  0.11765557352E+00  0.69473697564E-01 -0.49593205594E-01  0.89192427631E+00  0.88000000000E+00 0. -1.
        -11    1    4    4    0    0 -0.59021812433E-01 -0.48987796454E-01  0.38889607198E-01  0.86000239612E-01  0.51100000000E-03 0. -1.
         11    1    4    4    0    0 -0.36444922881E-01 -0.12913161825E-01  0.16199364896E-01  0.41924488025E-01  0.51100000000E-03 0.  1.
</event>
<event>
 8    1  0.5489035E+004  0.1043930E+01  0.7957747E-01            NaN
         13   -1    0    0    0    0  0.00000000000E+00  0.00000000000E+00  0.74505805969E-08  0.10566000000E+00  0.10566000000E+00 0.  1.
     999900   -1    0    0    0    0 -0.00000000000E+00 -0.00000000000E+00 -0.74505805969E-08  0.93827000000E+00  0.93827000000E+00 0. -1.
     999902    2    1    2    0    0  0.14349128531E-01 -0.16907288002E-01 -0.90071034632E-02  0.10199950509E+01  0.10197141864E+01 0.  0.
     999903    2    3    3    0    0 -0.61979674930E-01 -0.18742116476E-01  0.11019474763E+00  0.12868223589E+00  0.14949528250E-01 0.  0.
         14    1    1    2    0    0 -0.14349128531E-01  0.16907288002E-01  0.90071034632E-02  0.23934949133E-01  0.00000000000E+00 0.  1.
     999901    1    3    3    0    0  0.76328803461E-01  0.18348284737E-02 -0.11920185109E+00  0.89131281497E+00  0.88000000000E+00 0. -1.
        -11    1    4    4    0    0 -0.27116455682E-01 -0.92206451766E-03  0.40754137083E-01  0.48962364956E-01  0.51100000000E-03 0. -1.
         11    1    4    4    0    0 -0.34863219248E-01 -0.17820051958E-01  0.69440610547E-01  0.79719870937E-01  0.51100000000E-03 0.  1.
</event>
<event>
 8    1  0.5489035E+004  0.1043930E+01  0.7957747E-01            NaN
         13   -1    0    0    0    0  0.00000000000E+00  0.00000000000E+00  0.74505805969E-08  0.10566000000E+00  0.10566000000E+00 0.  1.
     999900   -1    0    0    0    0 -0.00000000000E+00 -0.00000000000E+00 -0.74505805969E-08  0.93827000000E+00  0.93827000000E+00 0. -1.
     999902    2    1    2    0    0  0.83398131865E-04 -0.20894355177E-01 -0.11986594586E-01  0.10198414242E+01  0.10195568994E+01 0.  0.
     999903    2    3    3    0    0  0.69539866741E-01  0.47253366327E-01  0.94590944650E-01  0.12808636544E+00  0.19748329227E-01 0.  0.
         14    1    1    2    0    0 -0.83398131865E-04  0.20894355177E-01  0.11986594586E-01  0.24088575783E-01  0.00000000000E+00 0.  1.
     999901    1    3    3    0    0 -0.69456468609E-01 -0.68147721503E-01 -0.10657753924E+00  0.89175505877E+00  0.88000000000E+00 0. -1.
        -11    1    4    4    0    0  0.69465400382E-01  0.47327310348E-01  0.88808827041E-01  0.12228076315E+00  0.51100000000E-03 0. -1.
         11    1    4    4    0    0  0.74466359629E-04 -0.73944021694E-04  0.57821176092E-02  0.58056022947E-02  0.51100000000E-03 0.  1.
</event>
<event>
 8    1  0.5489035E+004  0.1043930E+01  0.7957747E-01            NaN
         13   -1    0    0    0    0  0.00000000000E+00  0.00000000000E+00  0.74505805969E-08  0.10566000000E+00  0.10566000000E+00 0. -1.
     999900   -1    0    0    0    0 -0.00000000000E+00 -0.00000000000E+00 -0.74505805969E-08  0.93827000000E+00  0.93827000000E+00 0.  1.
     999902    2    1    2    0    0 -0.16028238388E-02 -0.94841498347E-02  0.21451144693E-01  0.10204210708E+01  0.10201502301E+01 0.  0.
     999903    2    3    3    0    0 -0.69134592334E-01 -0.33378979729E-01 -0.98729020059E-01  0.12936844912E+00  0.33091208500E-01 0.  0.
         14    1    1    2    0    0  0.16028238388E-02  0.94841498347E-02 -0.21451144693E-01  0.23508929176E-01  0.00000000000E+00 0.  1.
     999901    1    3    3    0    0  0.67531768495E-01  0.23894829894E-01  0.12018016475E+00  0.89105262171E+00  0.88000000000E+00 0.  1.
        -11    1    4    4    0    0 -0.63598576198E-01 -0.39860757927E-01 -0.88669027483E-01  0.11617278714E+00  0.51100000000E-03 0. -1.
         11    1    4    4    0    0 -0.55360161362E-02  0.64817781981E-02 -0.10059992576E-01  0.13195661973E-01  0.51100000000E-03 0.  1.
</event>
<event>
 8    1  0.5489035E+004  0.1043930E+01  0.7957747E-01            NaN
         13   -1    0    0    0    0  0.00000000000E+00  0.00000000000E+00  0.74505805969E-08  0.10566000000E+00  0.10566000000E+00 0.  1.
     999900   -1    0    0    0    0 -0.00000000000E+00 -0.00000000000E+00 -0.74505805969E-08  0.93827000000E+00  0.93827000000E+00 0.  1.
     999902    2    1    2    0    0 -0.42478853095E-02  0.87248765483E-02  0.21544121973E-01  0.10203012634E+01  0.10200276226E+01 0.  0.
     999903    2    3    3    0    0 -0.31284024371E-01  0.16556962472E-01  0.12567572469E+00  0.13371472785E+00  0.28851646065E-01 0.  0.
         14    1    1    2    0    0  0.42478853095E-02 -0.87248765483E-02 -0.21544121973E-01  0.23628736572E-01  0.00000000000E+00 0. -1.
     999901    1    3    3    0    0  0.27036139061E-01 -0.78320859235E-02 -0.10413160272E+00  0.88658653558E+00  0.88000000000E+00 0.  1.
        -11    1    4    4    0    0 -0.22051497088E-01 -0.41964360266E-02  0.72254519125E-01  0.75662773239E-01  0.51100000000E-03 0. -1.
         11    1    4    4    0    0 -0.92325272829E-02  0.20753398498E-01  0.53421205563E-01  0.58051954610E-01  0.51100000000E-03 0.  1.
</event>
<event>
 8    1  0.5489035E+004  0.1043930E+01  0.7957747E-01            NaN
         13   -1    0    0    0    0  0.00000000000E+00  0.00000000000E+00  0.74505805969E-08  0.10566000000E+00  0.10566000000E+00 0. -1.
     999900   -1    0    0    0    0 -0.00000000000E+00 -0.00000000000E+00 -0.74505805969E-08  0.93827000000E+00  0.93827000000E+00 0.  1.
     999902    2    1    2    0    0  0.90583300585E-02  0.20660817433E-01  0.62964616345E-02  0.10205084682E+01  0.10202396609E+01 0.  0.
     999903    2    3    3    0    0 -0.80571310172E-02  0.48448693303E-03  0.12965181969E+00  0.13151096112E+00  0.20503327953E-01 0.  0.
         14    1    1    2    0    0 -0.90583300585E-02 -0.20660817433E-01 -0.62964616345E-02  0.23421531751E-01  0.00000000000E+00 0.  1.
     999901    1    3    3    0    0  0.17115461076E-01  0.20176330500E-01 -0.12335535806E+00  0.88899750713E+00  0.88000000000E+00 0.  1.
        -11    1    4    4    0    0 -0.11797154074E-01  0.37795369964E-02  0.44020589706E-01  0.45733261236E-01  0.51100000000E-03 0.  1.
         11    1    4    4    0    0  0.37400230570E-02 -0.32950500634E-02  0.85631229987E-01  0.85777699884E-01  0.51100000000E-03 0. -1.
</event>
<event>
 8    1  0.5489035E+004  0.1043930E+01  0.7957747E-01            NaN
         13   -1    0    0    0    0  0.00000000000E+00  0.00000000000E+00  0.74505805969E-08  0.10566000000E+00  0.10566000000E+00 0. -1.
     999900   -1    0    0    0    0 -0.00000000000E+00 -0.00000000000E+00 -0.74505805969E-08  0.93827000000E+00  0.93827000000E+00 0.  1.
     999902    2    1    2    0    0 -0.22219443233E-01 -0.82889264644E-02  0.45330846021E-02  0.10197854599E+01  0.10194995956E+01 0.  0.
     999903    2    3    3    0    0 -0.13691992032E-01 -0.89255165162E-01  0.93607684925E-01  0.13154983034E+00  0.19723185148E-01 0.  0.
         14    1    1    2    0    0  0.22219443233E-01  0.82889264644E-02 -0.45330846021E-02  0.24144540077E-01  0.00000000000E+00 0.  1.
     999901    1    3    3    0    0 -0.85274512008E-02  0.80966238697E-01 -0.89074600323E-01  0.88823562958E+00  0.88000000000E+00 0.  1.
        -11    1    4    4    0    0 -0.16370499972E-01 -0.87752015537E-01  0.89648337099E-01  0.12651282530E+00  0.51100000000E-03 0.  1.
         11    1    4    4    0    0  0.26785079403E-02 -0.15031496247E-02  0.39593478262E-02  0.50370050416E-02  0.51100000000E-03 0. -1.
</event>
<event>
 8    1  0.5489035E+004  0.1043930E+01  0.7957747E-01            NaN
         13   -1    0    0    0    0  0.00000000000E+00  0.00000000000E+00  0.74505805969E-08  0.10566000000E+00  0.10566000000E+00 0. -1.
     999900   -1    0    0    0    0 -0.00000000000E+00 -0.00000000000E+00 -0.74505805969E-08  0.93827000000E+00  0.93827000000E+00 0.  1.
     999902    2    1    2    0    0  0.17702684497E-01  0.85622507646E-02  0.13234314572E-01  0.10202267458E+01  0.10199513560E+01 0.  0.
     999903    2    3    3    0    0 -0.11816225484E+00 -0.21957455586E-01  0.43279252976E-01  0.12877095188E+00  0.16260872864E-01 0.  0.
         14    1    1    2    0    0 -0.17702684497E-01 -0.85622507646E-02 -0.13234314572E-01  0.23703254180E-01  0.00000000000E+00 0.  1.
     999901    1    3    3    0    0  0.13586493934E+00  0.30519706350E-01 -0.30044938404E-01  0.89145579394E+00  0.88000000000E+00 0. -1.
        -11    1    4    4    0    0 -0.39638898991E-01 -0.10468316575E-01  0.22347765012E-01  0.46695949366E-01  0.51100000000E-03 0.  1.
         11    1    4    4    0    0 -0.78523355849E-01 -0.11489139011E-01  0.20931487964E-01  0.82075002518E-01  0.51100000000E-03 0. -1.
</event>
<event>
 8    1  0.5489035E+004  0.1043930E+01  0.7957747E-01            NaN
         13   -1    0    0    0    0  0.00000000000E+00  0.00000000000E+00  0.74505805969E-08  0.10566000000E+00  0.10566000000E+00 0.  1.
     999900   -1    0    0    0    0 -0.00000000000E+00 -0.00000000000E+00 -0.74505805969E-08  0.93827000000E+00  0.93827000000E+00 0. -1.
     999902    2    1    2    0    0 -0.21341682982E-01  0.30951312119E-02 -0.10117084942E-01  0.10201097843E+01  0.10198316377E+01 0.  0.
     999903    2    3    3    0    0  0.51988322406E-02 -0.38889265431E-01 -0.12345614879E+00  0.13145190190E+00  0.22333361053E-01 0.  0.
         14    1    1    2    0    0  0.21341682982E-01 -0.30951312119E-02  0.10117084942E-01  0.23820215731E-01  0.00000000000E+00 0.  1.
     999901    1    3    3    0    0 -0.26540515223E-01  0.41984396643E-01  0.11333906385E+00  0.88865788237E+00  0.88000000000E+00 0.  1.
        -11    1    4    4    0    0 -0.55363167206E-02 -0.13514495578E-02 -0.22275477916E-01  0.22998592481E-01  0.51100000000E-03 0.  1.
         11    1    4    4    0    0  0.10735148961E-01 -0.37537815874E-01 -0.10118067087E+00  0.10845330942E+00  0.51100000000E-03 0. -1.
</event>
<event>
 8    1  0.5489035E+004  0.1043930E+01  0.7957747E-01            NaN
         13   -1    0    0    0    0  0.00000000000E+00  0.00000000000E+00  0.74505805969E-08  0.10566000000E+00  0.10566000000E+00 0. -1.
     999900   -1    0    0    0    0 -0.00000000000E+00 -0.00000000000E+00 -0.74505805969E-08  0.93827000000E+00  0.93827000000E+00 0.  1.
     999902    2    1    2    0    0  0.23054978131E-01 -0.18301894649E-02 -0.18116277623E-01  0.10145517576E+01  0.10141263175E+01 0.  0.
     999903    2    3    3    0    0 -0.11145481367E+00 -0.65826029155E-02 -0.48971956585E-01  0.12378380667E+00  0.21416631649E-01 0.  0.
         14    1    1    2    0    0 -0.23054978131E-01  0.18301894649E-02  0.18116277623E-01  0.29378242374E-01  0.00000000000E+00 0. -1.
     999901    1    3    3    0    0  0.13450979180E+00  0.47524134505E-02  0.30855678962E-01  0.89076795095E+00  0.88000000000E+00 0.  1.
        -11    1    4    4    0    0 -0.38427940717E-01 -0.26368941168E-02 -0.60789064487E-02  0.38998385389E-01  0.51100000000E-03 0.  1.
         11    1    4    4    0    0 -0.73026872952E-01 -0.39457087987E-02 -0.42893050136E-01  0.84785421282E-01  0.51100000000E-03 0. -1.
</event>
<event>
 8    1  0.5489035E+004  0.1043930E+01  0.7957747E-01            NaN
         13   -1    0    0    0    0  0.00000000000E+00  0.00000000000E+00  0.74505805969E-08  0.10566000000E+00  0.10566000000E+00 0.  1.
     999900   -1    0    0    0    0 -0.00000000000E+00 -0.00000000000E+00 -0.74505805969E-08  0.93827000000E+00  0.93827000000E+00 0. -1.
     999902    2    1    2    0    0  0.21136524836E-01 -0.81911031182E-02 -0.67041138847E-02  0.10202912184E+01  0.10200173422E+01 0.  0.
     999903    2    3    3    0    0  0.28460185894E-01  0.12527513063E+00 -0.60964598712E-02  0.13019726785E+00  0.20256386608E-01 0.  0.
         14    1    1    2    0    0 -0.21136524836E-01  0.81911031182E-02  0.67041138847E-02  0.23638781597E-01  0.00000000000E+00 0.  1.
     999901    1    3    3    0    0 -0.73236610581E-02 -0.13346623375E+00 -0.60765401355E-03  0.89009395055E+00  0.88000000000E+00 0.  1.
        -11    1    4    4    0    0  0.63173367941E-02  0.65727500701E-01 -0.87438691996E-02  0.66608779168E-01  0.51100000000E-03 0. -1.
         11    1    4    4    0    0  0.22142849100E-01  0.59547629927E-01  0.26474093284E-02  0.63588488685E-01  0.51100000000E-03 0.  1.
</event>
<event>
 8    1  0.5489035E+004  0.1043930E+01  0.7957747E-01            NaN
         13   -1    0    0    0    0  0.00000000000E+00  0.00000000000E+00  0.74505805969E-08  0.10566000000E+00  0.10566000000E+00 0.  1.
     999900   -1    0    0    0    0 -0.00000000000E+00 -0.00000000000E+00 -0.74505805969E-08  0.93827000000E+00  0.93827000000E+00 0. -1.
     999902    2    1    2    0    0  0.16738769078E-01 -0.18011395132E-01  0.48145409612E-02  0.10188745305E+01  0.10185664104E+01 0.  0.
     999903    2    3    3    0    0 -0.16194877949E-02 -0.65942044207E-01  0.11145280289E+00  0.13095218506E+00  0.19384828196E-01 0.  0.
         14    1    1    2    0    0 -0.16738769078E-01  0.18011395132E-01 -0.48145409612E-02  0.25055469453E-01  0.00000000000E+00 0. -1.
     999901    1    3    3    0    0  0.18358256873E-01  0.47930649075E-01 -0.10663826193E+00  0.88792234549E+00  0.88000000000E+00 0. -1.
        -11    1    4    4    0    0  0.38469425170E-02 -0.41156233859E-01  0.83622728459E-01  0.93282669281E-01  0.51100000000E-03 0. -1.
         11    1    4    4    0    0 -0.54664303119E-02 -0.24785810348E-01  0.27830074429E-01  0.37669515775E-01  0.51100000000E-03 0.  1.
</event>
<event>
 8    1  0.5489035E+004  0.1043930E+01  0.7957747E-01            NaN
         13   -1    0    0    0    0  0.00000000000E+00  0.00000000000E+00  0.74505805969E-08  0.10566000000E+00  0.10566000000E+00 0.  1.
     999900   -1    0    0    0    0 -0.00000000000E+00 -0.00000000000E+00 -0.74505805969E-08  0.93827000000E+00  0.93827000000E+00 0.  1.
     999902    2    1    2    0    0  0.16499217371E-01 -0.10620931821E-02 -0.17626489819E-01  0.10197629696E+01  0.10194765661E+01 0.  0.
     999903    2    3    3    0    0 -0.28965646551E-01 -0.10691230791E+00  0.62337561011E-01  0.12865940027E+00  0.19950426133E-01 0.  0.
         14    1    1    2    0    0 -0.16499217371E-01  0.10620931821E-02  0.17626489819E-01  0.24167030416E-01  0.00000000000E+00 0. -1.
     999901    1    3    3    0    0  0.45464863922E-01  0.10585021473E+00 -0.79964050830E-01  0.89110356931E+00  0.88000000000E+00 0. -1.
        -11    1    4    4    0    0 -0.16476726795E-01 -0.34130838468E-01  0.28535047971E-01  0.47443721862E-01  0.51100000000E-03 0. -1.
         11    1    4    4    0    0 -0.12488919756E-01 -0.72781469445E-01  0.33802513040E-01  0.81215678413E-01  0.51100000000E-03 0.  1.
</event>
<event>
 8    1  0.5489035E+004  0.1043930E+01  0.7957747E-01            NaN
         13   -1    0    0    0    0  0.00000000000E+00  0.00000000000E+00  0.74505805969E-08  0.10566000000E+00  0.10566000000E+00 0.  1.
     999900   -1    0    0    0    0 -0.00000000000E+00 -0.00000000000E+00 -0.74505805969E-08  0.93827000000E+00  0.93827000000E+00 0.  1.
     999902    2    1    2    0    0 -0.29686485130E-02  0.19127596162E-01 -0.11453522064E-01  0.10214386466E+01  0.10211909948E+01 0.  0.
     999903    2    3    3    0    0  0.41080934418E-01  0.61760995813E-01  0.10667613218E+00  0.13143157489E+00  0.19809036480E-01 0.  0.
         14    1    1    2    0    0  0.29686485130E-02 -0.19127596162E-01  0.11453522064E-01  0.22491353374E-01  0.00000000000E+00 0.  1.
     999901    1    3    3    0    0 -0.44049582931E-01 -0.42633399651E-01 -0.11812965424E+00  0.89000707173E+00  0.88000000000E+00 0.  1.
        -11    1    4    4    0    0  0.24400584189E-01  0.20616630056E-01  0.51566460154E-01  0.60661312857E-01  0.51100000000E-03 0.  1.
         11    1    4    4    0    0  0.16680350228E-01  0.41144365758E-01  0.55109672023E-01  0.70770262037E-01  0.51100000000E-03 0. -1.
</event>
<event>
 8    1  0.5489035E+004  0.1043930E+01  0.7957747E-01            NaN
         13   -1    0    0    0    0  0.00000000000E+00  0.00000000000E+00  0.74505805969E-08  0.10566000000E+00  0.10566000000E+00 0. -1.
     999900   -1    0    0    0    0 -0.00000000000E+00 -0.00000000000E+00 -0.74505805969E-08  0.93827000000E+00  0.93827000000E+00 0.  1.
     999902    2    1    2    0    0  0.17849352423E-01 -0.17303048925E-01 -0.40733001549E-03  0.10190671602E+01  0.10187638177E+01 0.  0.
     999903    2    3    3    0    0  0.10852703658E+00 -0.23466299402E-01  0.67957360718E-01  0.13174863850E+00  0.20266129212E-01 0.  0.
         14    1    1    2    0    0 -0.17849352423E-01  0.17303048925E-01  0.40733001549E-03  0.24862839777E-01  0.00000000000E+00 0. -1.
     999901    1    3    3    0    0 -0.90677684157E-01  0.61632504772E-02 -0.68364690734E-01  0.88731852173E+00  0.88000000000E+00 0.  1.
        -11    1    4    4    0    0  0.72096087185E-01 -0.14249200371E-01  0.55709570775E-01  0.92220946078E-01  0.51100000000E-03 0.  1.
         11    1    4    4    0    0  0.36430949395E-01 -0.92170990310E-02  0.12247789943E-01  0.39527692418E-01  0.51100000000E-03 0. -1.
</event>
<event>
 8    1  0.5489035E+004  0.1043930E+01  0.7957747E-01            NaN
         13   -1    0    0    0    0  0.00000000000E+00  0.00000000000E+00  0.74505805969E-08  0.10566000000E+00  0.10566000000E+00 0. -1.
     999900   -1    0    0    0    0 -0.00000000000E+00 -0.00000000000E+00 -0.74505805969E-08  0.93827000000E+00  0.93827000000E+00 0. -1.
     999902    2    1    2    0    0  0.17665465055E-01 -0.12709610869E-01 -0.10013594265E-01  0.10199743131E+01  0.10196929560E+01 0.  0.
     999903    2    3    3    0    0 -0.85257781320E-01  0.40110082512E-01  0.83625420460E-01  0.12747704156E+00  0.19480174104E-01 0.  0.
         14    1    1    2    0    0 -0.17665465055E-01  0.12709610869E-01  0.10013594265E-01  0.23955686886E-01  0.00000000000E+00 0. -1.
     999901    1    3    3    0    0  0.10292324637E+00 -0.52819693381E-01 -0.93639014725E-01  0.89249727155E+00  0.88000000000E+00 0. -1.
        -11    1    4    4    0    0 -0.36891073113E-01  0.12999394472E-01  0.46411538665E-01  0.60697838301E-01  0.51100000000E-03 0. -1.
         11    1    4    4    0    0 -0.48366708206E-01  0.27110688040E-01  0.37213881794E-01  0.66779203259E-01  0.51100000000E-03 0.  1.
</event>
<event>
 8    1  0.5489035E+004  0.1043930E+01  0.7957747E-01            NaN
         13   -1    0    0    0    0  0.00000000000E+00  0.00000000000E+00  0.74505805969E-08  0.10566000000E+00  0.10566000000E+00 0.  1.
     999900   -1    0    0    0    0 -0.00000000000E+00 -0.00000000000E+00 -0.74505805969E-08  0.93827000000E+00  0.93827000000E+00 0.  1.
     999902    2    1    2    0    0 -0.26529533679E-01  0.23520130658E-01 -0.27354887960E-04  0.10084756145E+01  0.10078521973E+01 0.  0.
     999903    2    3    3    0    0  0.36575616609E-01 -0.68203761019E-01 -0.85882482202E-01  0.11731533980E+00  0.19938893068E-01 0.  0.
         14    1    1    2    0    0  0.26529533679E-01 -0.23520130658E-01  0.27354887960E-04  0.35454385507E-01  0.00000000000E+00 0. -1.
     999901    1    3    3    0    0 -0.63105150288E-01  0.91723891677E-01  0.85855127314E-01  0.89116027469E+00  0.88000000000E+00 0.  1.
        -11    1    4    4    0    0  0.16930642708E-01 -0.37816560662E-01 -0.31755638691E-01  0.52205561318E-01  0.51100000000E-03 0.  1.
         11    1    4    4    0    0  0.19644973901E-01 -0.30387200356E-01 -0.54126843511E-01  0.65109778486E-01  0.51100000000E-03 0. -1.
</event>
<event>
 8    1  0.5489035E+004  0.1043930E+01  0.7957747E-01            NaN
         13   -1    0    0    0    0  0.00000000000E+00  0.00000000000E+00  0.74505805969E-08  0.10566000000E+00  0.10566000000E+00 0.  1.
     999900   -1    0    0    0    0 -0.00000000000E+00 -0.00000000000E+00 -0.74505805969E-08  0.93827000000E+00  0.93827000000E+00 0.  1.
     999902    2    1    2    0    0 -0.23556230149E-02  0.14462274989E-01  0.22286702520E-01  0.10172578522E+01  0.10169081249E+01 0.  0.
     999903    2    3    3    0    0 -0.94010243087E-01  0.38279987102E-01 -0.73746765867E-01  0.12698245672E+00  0.19562096548E-01 0.  0.
         14    1    1    2    0    0  0.23556230149E-02 -0.14462274989E-01 -0.22286702520E-01  0.26672147774E-01  0.00000000000E+00 0. -1.
     999901    1    3    3    0    0  0.91654620072E-01 -0.23817712112E-01  0.96033468387E-01  0.89027539550E+00  0.88000000000E+00 0. -1.
        -11    1    4    4    0    0 -0.80111815038E-01  0.28926607445E-01 -0.53030423078E-01  0.10033513054E+00  0.51100000000E-03 0. -1.
         11    1    4    4    0    0 -0.13898428049E-01  0.93533796565E-02 -0.20716342789E-01  0.26647326184E-01  0.51100000000E-03 0.  1.
</event>
<event>
 8    1  0.5489035E+004  0.1043930E+01  0.7957747E-01            NaN
         13   -1    0    0    0    0  0.00000000000E+00  0.00000000000E+00  0.74505805969E-08  0.10566000000E+00  0.10566000000E+00 0. -1.
     999900   -1    0    0    0    0 -0.00000000000E+00 -0.00000000000E+00 -0.74505805969E-08  0.93827000000E+00  0.93827000000E+00 0.  1.
     999902    2    1    2    0    0  0.25949898032E-02 -0.15513263086E-01  0.18134854822E-01  0.10199244118E+01  0.10196418673E+01 0.  0.
     999903    2    3    3    0    0  0.69247178197E-01  0.30861705491E-01  0.10511304058E+00  0.13191632813E+00  0.24607920937E-01 0.  0.
         14    1    1    2    0    0 -0.25949898032E-02  0.15513263086E-01 -0.18134854822E-01  0.24005588163E-01  0.00000000000E+00 0.  1.
     999901    1    3    3    0    0 -0.66652188394E-01 -0.46374968577E-01 -0.86978185762E-01  0.88800808371E+00  0.88000000000E+00 0.  1.
        -11    1    4    4    0    0  0.12982789455E-01  0.99561752695E-02  0.40712398267E-01  0.43879821578E-01  0.51100000000E-03 0. -1.
         11    1    4    4    0    0  0.56264388743E-01  0.20905530222E-01  0.64400642316E-01  0.88036506554E-01  0.51100000000E-03 0.  1.
</event>
<event>
 8    1  0.5489035E+004  0.1043930E+01  0.7957747E-01            NaN
         13   -1    0    0    0    0  0.00000000000E+00  0.00000000000E+00  0.74505805969E-08  0.10566000000E+00  0.10566000000E+00 0.  1.
     999900   -1    0    0    0    0 -0.00000000000E+00 -0.00000000000E+00 -0.74505805969E-08  0.93827000000E+00  0.93827000000E+00 0.  1.
     999902    2    1    2    0    0  0.16478690691E-01  0.30744161287E-02  0.15810490717E-01  0.10208871942E+01  0.10206271074E+01 0.  0.
     999903    2    3    3    0    0 -0.23819542359E-01 -0.22826846502E-01  0.12687188141E+00  0.13261389422E+00  0.20038341487E-01 0.  0.
         14    1    1    2    0    0 -0.16478690691E-01 -0.30744161287E-02 -0.15810490717E-01  0.23042805778E-01  0.00000000000E+00 0. -1.
     999901    1    3    3    0    0  0.40298233051E-01  0.25901262630E-01 -0.11106139069E+00  0.88827330000E+00  0.88000000000E+00 0.  1.
        -11    1    4    4    0    0 -0.21121560126E-01 -0.89268635871E-02  0.95085478181E-01  0.97812670332E-01  0.51100000000E-03 0. -1.
         11    1    4    4    0    0 -0.26979822334E-02 -0.13899982915E-01  0.31786403225E-01  0.34801223888E-01  0.51100000000E-03 0.  1.
</event>
<event>
 8    1  0.5489035E+004  0.1043930E+01  0.7957747E-01            NaN
         13   -1    0    0    0    0  0.00000000000E+00  0.00000000000E+00  0.74505805969E-08  0.10566000000E+00  0.10566000000E+00 0.  1.
     999900   -1    0    0    0    0 -0.00000000000E+00 -0.00000000000E+00 -0.74505805969E-08  0.93827000000E+00  0.93827000000E+00 0. -1.
     999902    2    1    2    0    0 -0.11447187193E-01  0.17044784089E-01 -0.95724534897E-02  0.10212762006E+01  0.10210249181E+01 0.  0.
     999903    2    3    3    0    0  0.10003711058E+00 -0.44503596862E-01  0.65192324816E-01  0.12897203506E+00  0.19893541310E-01 0.  0.
         14    1    1    2    0    0  0.11447187193E-01 -0.17044784089E-01  0.95724534897E-02  0.22653799352E-01  0.00000000000E+00 0.  1.
     999901    1    3    3    0    0 -0.11148429777E+00  0.61548380951E-01 -0.74764778306E-01  0.89230416559E+00  0.88000000000E+00 0. -1.
        -11    1    4    4    0    0  0.84287604857E-01 -0.30046164639E-01  0.48080190988E-01  0.10158315918E+00  0.51100000000E-03 0.  1.
         11    1    4    4    0    0  0.15749505725E-01 -0.14457432222E-01  0.17112133828E-01  0.27388875884E-01  0.51100000000E-03 0. -1.
</event>
<event>
 8    1  0.5489035E+004  0.1043930E+01  0.7957747E-01            NaN
         13   -1    0    0    0    0  0.00000000000E+00  0.00000000000E+00  0.74505805969E-08  0.10566000000E+00  0.10566000000E+00 0. -1.
     999900   -1    0    0    0    0 -0.00000000000E+00 -0.00000000000E+00 -0.74505805969E-08  0.93827000000E+00  0.93827000000E+00 0.  1.
     999902    2    1    2    0    0  0.20610509738E-01 -0.46109475081E-02  0.86004625258E-02  0.10211260112E+01  0.10208713479E+01 0.  0.
     999903    2    3    3    0    0 -0.72120918131E-01 -0.45959221958E-01  0.98541848095E-01  0.13073382215E+00  0.81950908388E-02 0.  0.
         14    1    1    2    0    0 -0.20610509738E-01  0.46109475081E-02 -0.86004625258E-02  0.22803988779E-01  0.00000000000E+00 0.  1.
     999901    1    3    3    0    0  0.92731427869E-01  0.41348274450E-01 -0.89941385569E-01  0.89039218907E+00  0.88000000000E+00 0.  1.
        -11    1    4    4    0    0 -0.16306602426E-01 -0.10055394637E-01  0.27452916610E-01  0.33480441983E-01  0.51100000000E-03 0.  1.
         11    1    4    4    0    0 -0.55814315705E-01 -0.35903827321E-01  0.71088931485E-01  0.97253380171E-01  0.51100000000E-03 0. -1.
</event>
<event>
 8    1  0.5489035E+004  0.1043930E+01  0.7957747E-01            NaN
         13   -1    0    0    0    0  0.00000000000E+00  0.00000000000E+00  0.74505805969E-08  0.10566000000E+00  0.10566000000E+00 0.  1.
     999900   -1    0    0    0    0 -0.00000000000E+00 -0.00000000000E+00 -0.74505805969E-08  0.93827000000E+00  0.93827000000E+00 0. -1.
     999902    2    1    2    0    0  0.20526431452E-01 -0.81530445882E-02 -0.79360870599E-02  0.10204611270E+01  0.10201912191E+01 0.  0.
     999903    2    3    3    0    0  0.16728769178E-01  0.79258492340E-01  0.99219871062E-01  0.12965385353E+00  0.20094242833E-01 0.  0.
         14    1    1    2    0    0 -0.20526431452E-01  0.81530445882E-02  0.79360870599E-02  0.23468873046E-01  0.00000000000E+00 0. -1.
     999901    1    3    3    0    0  0.37976622739E-02 -0.87411536929E-01 -0.10715595812E+00  0.89080727343E+00  0.88000000000E+00 0. -1.
        -11    1    4    4    0    0  0.97140775786E-02  0.39756138453E-01  0.65531727597E-01  0.77263071973E-01  0.51100000000E-03 0.  1.
         11    1    4    4    0    0  0.70146915997E-02  0.39502353888E-01  0.33688143465E-01  0.52390781556E-01  0.51100000000E-03 0. -1.
</event>
<event>
 8    1  0.5489035E+004  0.1043930E+01  0.7957747E-01            NaN
         13   -1    0    0    0    0  0.00000000000E+00  0.00000000000E+00  0.74505805969E-08  0.10566000000E+00  0.10566000000E+00 0. -1.
     999900   -1    0    0    0    0 -0.00000000000E+00 -0.00000000000E+00 -0.74505805969E-08  0.93827000000E+00  0.93827000000E+00 0.  1.
     999902    2    1    2    0    0  0.98054869392E-02  0.13722682180E-01  0.15949479533E-01  0.10207169546E+01  0.10204529660E+01 0.  0.
     999903    2    3    3    0    0 -0.35627980636E-01  0.94931331300E-01  0.84079612296E-01  0.13319187907E+00  0.19732835069E-01 0.  0.
         14    1    1    2    0    0 -0.98054869392E-02 -0.13722682180E-01 -0.15949479533E-01  0.23213045420E-01  0.00000000000E+00 0.  1.
     999901    1    3    3    0    0  0.45433467575E-01 -0.81208649120E-01 -0.68130132764E-01  0.88752507551E+00  0.88000000000E+00 0.  1.
        -11    1    4    4    0    0 -0.13403743868E-02  0.15433763419E-01  0.60478386472E-02  0.16638363203E-01  0.51100000000E-03 0.  1.
         11    1    4    4    0    0 -0.34287606249E-01  0.79497567881E-01  0.78031773649E-01  0.11655351587E+00  0.51100000000E-03 0. -1.
</event>
<event>
 8    1  0.5489035E+004  0.1043930E+01  0.7957747E-01            NaN
         13   -1    0    0    0    0  0.00000000000E+00  0.00000000000E+00  0.74505805969E-08  0.10566000000E+00  0.10566000000E+00 0. -1.
     999900   -1    0    0    0    0 -0.00000000000E+00 -0.00000000000E+00 -0.74505805969E-08  0.93827000000E+00  0.93827000000E+00 0. -1.
     999902    2    1    2    0    0  0.13750507141E-01 -0.70831655928E-03 -0.17408691033E-01  0.10217344896E+01  0.10214933806E+01 0.  0.
     999903    2    3    3    0    0 -0.11881549490E+00 -0.35415336103E-01 -0.36923608773E-01  0.13091511726E+00  0.20100924882E-01 0.  0.
         14    1    1    2    0    0 -0.13750507141E-01  0.70831655928E-03  0.17408691033E-01  0.22195510412E-01  0.00000000000E+00 0. -1.
     999901    1    3    3    0    0  0.13256600205E+00  0.34707019544E-01  0.19514917740E-01  0.89081937233E+00  0.88000000000E+00 0. -1.
        -11    1    4    4    0    0 -0.82931820715E-01 -0.30682005366E-01 -0.33482729355E-01  0.94553829253E-01  0.51100000000E-03 0.  1.
         11    1    4    4    0    0 -0.35883674189E-01 -0.47333307376E-02 -0.34408794186E-02  0.36361288005E-01  0.51100000000E-03 0. -1.
</event>
<event>
 8    1  0.5489035E+004  0.1043930E+01  0.7957747E-01            NaN
         13   -1    0    0    0    0  0.00000000000E+00  0.00000000000E+00  0.74505805969E-08  0.10566000000E+00  0.10566000000E+00 0. -1.
     999900   -1    0    0    0    0 -0.00000000000E+00 -0.00000000000E+00 -0.74505805969E-08  0.93827000000E+00  0.93827000000E+00 0.  1.
     999902    2    1    2    0    0  0.72866534926E-02 -0.21633685431E-01 -0.87926152880E-02  0.10194673397E+01  0.10191738002E+01 0.  0.
     999903    2    3    3    0    0 -0.75926620922E-01  0.75445204124E-01  0.65612267796E-01  0.12711939947E+00  0.19938441433E-01 0.  0.
         14    1    1    2    0    0 -0.72866534926E-02  0.21633685431E-01  0.87926152880E-02  0.24462660282E-01  0.00000000000E+00 0. -1.
     999901    1    3    3    0    0  0.83213274415E-01 -0.97078889555E-01 -0.74404883084E-01  0.89234794025E+00  0.88000000000E+00 0.  1.
        -11    1    4    4    0    0 -0.48099558916E-01  0.35072379118E-01  0.40735004070E-01  0.72133494456E-01  0.51100000000E-03 0. -1.
         11    1    4    4    0    0 -0.27827062006E-01  0.40372825006E-01  0.24877263726E-01  0.54985905015E-01  0.51100000000E-03 0.  1.
</event>
<event>
 8    1  0.5489035E+004  0.1043930E+01  0.7957747E-01            NaN
         13   -1    0    0    0    0  0.00000000000E+00  0.00000000000E+00  0.74505805969E-08  0.10566000000E+00  0.10566000000E+00 0. -1.
     999900   -1    0    0    0    0 -0.00000000000E+00 -0.00000000000E+00 -0.74505805969E-08  0.93827000000E+00  0.93827000000E+00 0. -1.
     999902    2    1    2    0    0 -0.43569132655E-02 -0.21554499859E-01  0.13773458602E-01  0.10179822194E+01  0.10176514687E+01 0.  0.
     999903    2    3    3    0    0  0.57192389258E-01  0.10292065821E+00 -0.38505674211E-01  0.12556108037E+00  0.20476002587E-01 0.  0.
         14    1    1    2    0    0  0.43569132655E-02  0.21554499859E-01 -0.13773458602E-01  0.25947780623E-01  0.00000000000E+00 0. -1.
     999901    1    3    3    0    0 -0.61549302524E-01 -0.12447515807E+00  0.52279132813E-01  0.89242113901E+00  0.88000000000E+00 0. -1.
        -11    1    4    4    0    0  0.15571007308E-01  0.19720198393E-01 -0.16174131792E-01  0.29886554727E-01  0.51100000000E-03 0. -1.
         11    1    4    4    0    0  0.41621381950E-01  0.83200459818E-01 -0.22331542419E-01  0.95674525644E-01  0.51100000000E-03 0.  1.
</event>
<event>
 8    1  0.5489035E+004  0.1043930E+01  0.7957747E-01            NaN
         13   -1    0    0    0    0  0.00000000000E+00  0.00000000000E+00  0.74505805969E-08  0.10566000000E+00  0.10566000000E+00 0. -1.
     999900   -1    0    0    0    0 -0.00000000000E+00 -0.00000000000E+00 -0.74505805969E-08  0.93827000000E+00  0.93827000000E+00 0.  1.
     999902    2    1    2    0    0 -0.37769808489E-03  0.14232769001E-01 -0.18006492063E-01  0.10209746493E+01  0.10207165554E+01 0.  0.
     999903    2    3    3    0    0  0.12701075633E+00 -0.37105358624E-02 -0.28658473273E-01  0.13155728652E+00  0.18452946858E-01 0.  0.
         14    1    1    2    0    0  0.37769808489E-03 -0.14232769001E-01  0.18006492063E-01  0.22955350699E-01  0.00000000000E+00 0. -1.
     999901    1    3    3    0    0 -0.12738845441E+00  0.17943304863E-01  0.10651981209E-01  0.88941736278E+00  0.88000000000E+00 0. -1.
        -11    1    4    4    0    0  0.49398238935E-01 -0.97895363605E-02 -0.78228816113E-02  0.50965474880E-01  0.51100000000E-03 0.  1.
         11    1    4    4    0    0  0.77612517393E-01  0.60790004980E-02 -0.20835591661E-01  0.80591811644E-01  0.51100000000E-03 0. -1.
</event>
<event>
 8    1  0.5489035E+004  0.1043930E+01  0.7957747E-01            NaN
         13   -1    0    0    0    0  0.00000000000E+00  0.00000000000E+00  0.74505805969E-08  0.10566000000E+00  0.10566000000E+00 0.  1.
     999900   -1    0    0    0    0 -0.00000000000E+00 -0.00000000000E+00 -0.74505805969E-08  0.93827000000E+00  0.93827000000E+00 0. -1.
     999902    2    1    2    0    0  0.23502962428E-01  0.30596942039E-02 -0.75693416724E-02  0.10190493669E+01  0.10187455846E+01 0.  0.
     999903    2    3    3    0    0 -0.43141109250E-03 -0.68315378677E-01 -0.10904170442E+00  0.13002524140E+00  0.18689382558E-01 0.  0.
         14    1    1    2    0    0 -0.23502962428E-01 -0.30596942039E-02  0.75693416724E-02  0.24880633128E-01  0.00000000000E+00 0.  1.
     999901    1    3    3    0    0  0.23934373520E-01  0.71375072881E-01  0.10147236275E+00  0.88902412547E+00  0.88000000000E+00 0.  1.
        -11    1    4    4    0    0  0.11132395962E-02 -0.53361316401E-01 -0.68887365562E-01  0.87145852716E-01  0.51100000000E-03 0.  1.
         11    1    4    4    0    0 -0.15446506887E-02 -0.14954062275E-01 -0.40154338855E-01  0.42879388687E-01  0.51100000000E-03 0. -1.
</event>
<event>
 8    1  0.5489035E+004  0.1043930E+01  0.7957747E-01            NaN
         13   -1    0    0    0    0  0.00000000000E+00  0.00000000000E+00  0.74505805969E-08  0.10566000000E+00  0.10566000000E+00 0.  1.
     999900   -1    0    0    0    0 -0.00000000000E+00 -0.00000000000E+00 -0.74505805969E-08  0.93827000000E+00  0.93827000000E+00 0. -1.
     999902    2    1    2    0    0  0.58398218209E-02 -0.11821529663E-01 -0.19634175723E-01  0.10202793565E+01  0.10200052021E+01 0.  0.
     999903    2    3    3    0    0  0.66545623992E-01  0.10938038960E+00 -0.84731954481E-02  0.12983021861E+00  0.19791435612E-01 0.  0.
         14    1    1    2    0    0 -0.58398218209E-02  0.11821529663E-01  0.19634175723E-01  0.23650643518E-01  0.00000000000E+00 0.  1.
     999901    1    3    3    0    0 -0.60705802171E-01 -0.12120191926E+00 -0.11160980275E-01  0.89044913787E+00  0.88000000000E+00 0.  1.
        -11    1    4    4    0    0  0.55300258801E-02  0.16464972168E-01  0.44082939019E-02  0.17926814298E-01  0.51100000000E-03 0.  1.
         11    1    4    4    0    0  0.61015598112E-01  0.92915417428E-01 -0.12881489350E-01  0.11190340432E+00  0.51100000000E-03 0. -1.
</event>
<event>
 8    1  0.5489035E+004  0.1043930E+01  0.7957747E-01            NaN
         13   -1    0    0    0    0  0.00000000000E+00  0.00000000000E+00  0.74505805969E-08  0.10566000000E+00  0.10566000000E+00 0. -1.
     999900   -1    0    0    0    0 -0.00000000000E+00 -0.00000000000E+00 -0.74505805969E-08  0.93827000000E+00  0.93827000000E+00 0. -1.
     999902    2    1    2    0    0  0.22187876574E-01 -0.19399713480E-02  0.24164199292E-02  0.10215267761E+01  0.10212810827E+01 0.  0.
     999903    2    3    3    0    0 -0.36131015163E-01  0.52463778761E-01  0.11184645263E+00  0.13116966055E+00  0.25257722469E-01 0.  0.
         14    1    1    2    0    0 -0.22187876574E-01  0.19399713480E-02 -0.24164199292E-02  0.22403223897E-01  0.00000000000E+00 0.  1.
     999901    1    3    3    0    0  0.58318891736E-01 -0.54403750109E-01 -0.10943003270E+00  0.89035711555E+00  0.88000000000E+00 0. -1.
        -11    1    4    4    0    0 -0.14762390681E-01  0.20960388068E-01  0.70240235699E-01  0.74774446696E-01  0.51100000000E-03 0.  1.
         11    1    4    4    0    0 -0.21368624481E-01  0.31503390693E-01  0.41606216931E-01  0.56395213854E-01  0.51100000000E-03 0. -1.
</event>
<event>
 8    1  0.5489035E+004  0.1043930E+01  0.7957747E-01            NaN
         13   -1    0    0    0    0  0.00000000000E+00  0.00000000000E+00  0.74505805969E-08  0.10566000000E+00  0.10566000000E+00 0.  1.
     999900   -1    0    0    0    0 -0.00000000000E+00 -0.00000000000E+00 -0.74505805969E-08  0.93827000000E+00  0.93827000000E+00 0.  1.
     999902    2    1    2    0    0  0.11927528926E-01 -0.86958300981E-02 -0.18252198316E-01  0.10204560538E+01  0.10201860279E+01 0.  0.
     999903    2    3    3    0    0  0.95671215068E-01 -0.60292913958E-01 -0.68268844042E-01  0.13356433048E+00  0.19763057519E-01 0.  0.
         14    1    1    2    0    0 -0.11927528926E-01  0.86958300981E-02  0.18252198316E-01  0.23473946212E-01  0.00000000000E+00 0.  1.
     999901    1    3    3    0    0 -0.83743686141E-01  0.51597083860E-01  0.50016645726E-01  0.88689172331E+00  0.88000000000E+00 0. -1.
        -11    1    4    4    0    0  0.36411326551E-01 -0.33724633142E-01 -0.25483532662E-01  0.55792536595E-01  0.51100000000E-03 0.  1.
         11    1    4    4    0    0  0.59259888516E-01 -0.26568280816E-01 -0.42785311380E-01  0.77771793880E-01  0.51100000000E-03 0. -1.
</event>
<event>
 8    1  0.5489035E+004  0.1043930E+01  0.7957747E-01            NaN
         13   -1    0    0    0    0  0.00000000000E+00  0.00000000000E+00  0.74505805969E-08  0.10566000000E+00  0.10566000000E+00 0.  1.
     999900   -1    0    0    0    0 -0.00000000000E+00 -0.00000000000E+00 -0.74505805969E-08  0.93827000000E+00  0.93827000000E+00 0. -1.
     999902    2    1    2    0    0 -0.22872539408E-01 -0.55651381699E-02  0.21047243538E-02  0.10202962596E+01  0.10200225015E+01 0.  0.
     999903    2    3    3    0    0  0.30065922930E-01  0.53115212122E-01 -0.11221821760E+00  0.12938908183E+00  0.20577187735E-01 0.  0.
         14    1    1    2    0    0  0.22872539408E-01  0.55651381699E-02 -0.21047243538E-02  0.23633740424E-01  0.00000000000E+00 0. -1.
     999901    1    3    3    0    0 -0.52938462338E-01 -0.58680350292E-01  0.11432294195E+00  0.89090717775E+00  0.88000000000E+00 0.  1.
        -11    1    4    4    0    0  0.10637955919E-01  0.20889042262E-01 -0.24363801339E-01  0.33813815660E-01  0.51100000000E-03 0.  1.
         11    1    4    4    0    0  0.19427967011E-01  0.32226169859E-01 -0.87854416259E-01  0.95575266168E-01  0.51100000000E-03 0. -1.
</event>
<event>
 8    1  0.5489035E+004  0.1043930E+01  0.7957747E-01            NaN
         13   -1    0    0    0    0  0.00000000000E+00  0.00000000000E+00  0.74505805969E-08  0.10566000000E+00  0.10566000000E+00 0. -1.
     999900   -1    0    0    0    0 -0.00000000000E+00 -0.00000000000E+00 -0.74505805969E-08  0.93827000000E+00  0.93827000000E+00 0.  1.
     999902    2    1    2    0    0  0.16966867300E-01 -0.26630403070E-02 -0.14921569820E-01  0.10211787447E+01  0.10209252711E+01 0.  0.
     999903    2    3    3    0    0  0.17046769710E-01  0.76178694866E-01 -0.10578607185E+00  0.13299386348E+00  0.20072090465E-01 0.  0.
         14    1    1    2    0    0 -0.16966867300E-01  0.26630403070E-02  0.14921569820E-01  0.22751255252E-01  0.00000000000E+00 0. -1.
     999901    1    3    3    0    0 -0.79902409441E-04 -0.78841735173E-01  0.90864502031E-01  0.88818488127E+00  0.88000000000E+00 0.  1.
        -11    1    4    4    0    0 -0.37191193785E-02  0.26362168167E-01 -0.35013580675E-01  0.43988722556E-01  0.51100000000E-03 0.  1.
         11    1    4    4    0    0  0.20765889088E-01  0.49816526699E-01 -0.70772491176E-01  0.89005140920E-01  0.51100000000E-03 0. -1.
</event>
<event>
 8    1  0.5489035E+004  0.1043930E+01  0.7957747E-01            NaN
         13   -1    0    0    0    0  0.00000000000E+00  0.00000000000E+00  0.74505805969E-08  0.10566000000E+00  0.10566000000E+00 0.  1.
     999900   -1    0    0    0    0 -0.00000000000E+00 -0.00000000000E+00 -0.74505805969E-08  0.93827000000E+00  0.93827000000E+00 0. -1.
     999902    2    1    2    0    0 -0.87334337161E-02 -0.13636493793E-01  0.18583597408E-01  0.10192809246E+01  0.10189828390E+01 0.  0.
     999903    2    3    3    0    0  0.38090640132E-02  0.63887623060E-02 -0.12525848511E+00  0.12728940563E+00  0.21391106609E-01 0.  0.
         14    1    1    2    0    0  0.87334337161E-02  0.13636493793E-01 -0.18583597408E-01  0.24649075440E-01  0.00000000000E+00 0. -1.
     999901    1    3    3    0    0 -0.12542497729E-01 -0.20025256099E-01  0.14384208252E+00  0.89199151893E+00  0.88000000000E+00 0.  1.
        -11    1    4    4    0    0 -0.51293738920E-02  0.10581194925E-01 -0.86170959972E-01  0.86971073501E-01  0.51100000000E-03 0. -1.
         11    1    4    4    0    0  0.89384379052E-02 -0.41924326189E-02 -0.39087525140E-01  0.40318332133E-01  0.51100000000E-03 0.  1.
</event>
<event>
 8    1  0.5489035E+004  0.1043930E+01  0.7957747E-01            NaN
         13   -1    0    0    0    0  0.00000000000E+00  0.00000000000E+00  0.74505805969E-08  0.10566000000E+00  0.10566000000E+00 0. -1.
     999900   -1    0    0    0    0 -0.00000000000E+00 -0.00000000000E+00 -0.74505805969E-08  0.93827000000E+00  0.93827000000E+00 0.  1.
     999902    2    1    2    0    0 -0.19777911662E-01  0.12768268932E-03 -0.12791814548E-01  0.10203755394E+01  0.10201036363E+01 0.  0.
     999903    2    3    3    0    0 -0.16300133390E-01 -0.43054142081E-02  0.12634076651E+00  0.12942681904E+00  0.22474013087E-01 0.  0.
         14    1    1    2    0    0  0.19777911662E-01 -0.12768268932E-03  0.12791814548E-01  0.23554460554E-01  0.00000000000E+00 0. -1.
     999901    1    3    3    0    0 -0.34777782718E-02  0.44330968975E-02 -0.13913258105E+00  0.89094872041E+00  0.88000000000E+00 0.  1.
        -11    1    4    4    0    0 -0.25210063292E-02 -0.67134196628E-02  0.92860153644E-01  0.93138041274E-01  0.51100000000E-03 0. -1.
         11    1    4    4    0    0 -0.13779127061E-01  0.24080054547E-02  0.33480612862E-01  0.36288777762E-01  0.51100000000E-03 0.  1.
</event>
<event>
 8    1  0.5489035E+004  0.1043930E+01  0.7957747E-01            NaN
         13   -1    0    0    0    0  0.00000000000E+00  0.00000000000E+00  0.74505805969E-08  0.10566000000E+00  0.10566000000E+00 0. -1.
     999900   -1    0    0    0    0 -0.00000000000E+00 -0.00000000000E+00 -0.74505805969E-08  0.93827000000E+00  0.93827000000E+00 0. -1.
     999902    2    1    2    0    0  0.20068814459E-01  0.14739066019E-01 -0.62866086148E-03  0.10190223185E+01  0.10187178673E+01 0.  0.
     999903    2    3    3    0    0 -0.11130641136E-01 -0.11789710103E-01  0.12580953202E+00  0.12904265664E+00  0.23687136781E-01 0.  0.
         14    1    1    2    0    0 -0.20068814459E-01 -0.14739066019E-01  0.62866086148E-03  0.24907681453E-01  0.00000000000E+00 0.  1.
     999901    1    3    3    0    0  0.31199455595E-01  0.26528776122E-01 -0.12643819288E+00  0.88997966191E+00  0.88000000000E+00 0. -1.
        -11    1    4    4    0    0 -0.11393185410E-01 -0.23844340432E-02  0.22813968505E-01  0.25616956873E-01  0.51100000000E-03 0. -1.
         11    1    4    4    0    0  0.26254427365E-03 -0.94052760601E-02  0.10299556351E+00  0.10342569977E+00  0.51100000000E-03 0.  1.
</event>
<event>
 8    1  0.5489035E+004  0.1043930E+01  0.7957747E-01            NaN
         13   -1    0    0    0    0  0.00000000000E+00  0.00000000000E+00  0.74505805969E-08  0.10566000000E+00  0.10566000000E+00 0.  1.
     999900   -1    0    0    0    0 -0.00000000000E+00 -0.00000000000E+00 -0.74505805969E-08  0.93827000000E+00  0.93827000000E+00 0.  1.
     999902    2    1    2    0    0 -0.53291313995E-02 -0.22015810650E-01  0.57527844678E-02  0.10205592899E+01  0.10202916613E+01 0.  0.
     999903    2    3    3    0    0 -0.52697415431E-01 -0.22871430267E-01  0.11719320252E+00  0.13226685318E+00  0.21451196147E-01 0.  0.
         14    1    1    2    0    0  0.53291313995E-02  0.22015810650E-01 -0.57527844678E-02  0.23370710071E-01  0.00000000000E+00 0. -1.
     999901    1    3    3    0    0  0.47368284031E-01  0.85561961701E-03 -0.11144041805E+00  0.88829243675E+00  0.88000000000E+00 0.  1.
        -11    1    4    4    0    0 -0.43319231771E-01 -0.23135237121E-01  0.10989322042E+00  0.12036850108E+00  0.51100000000E-03 0.  1.
         11    1    4    4    0    0 -0.93781836600E-02  0.26380685366E-03  0.72999821014E-02  0.11898352092E-01  0.51100000000E-03 0. -1.
</event>
<event>
 8    1  0.5489035E+004  0.1043930E+01  0.7957747E-01            NaN
         13   -1    0    0    0    0  0.00000000000E+00  0.00000000000E+00  0.74505805969E-08  0.10566000000E+00  0.10566000000E+00 0.  1.
     999900   -1    0    0    0    0 -0.00000000000E+00 -0.00000000000E+00 -0.74505805969E-08  0.93827000000E+00  0.93827000000E+00 0.  1.
     999902    2    1    2    0    0 -0.26681343303E-01  0.30207147776E-02  0.86425937076E-02  0.10157216107E+01  0.10153298367E+01 0.  0.
     999903    2    3    3    0    0 -0.11646082148E+00 -0.19720063208E-01  0.50103987630E-01  0.12989061960E+00  0.20227695145E-01 0.  0.
         14    1    1    2    0    0  0.26681343303E-01 -0.30207147776E-02 -0.86425937076E-02  0.28208389252E-01  0.00000000000E+00 0. -1.
     999901    1    3    3    0    0  0.89779478181E-01  0.22740777985E-01 -0.41461393922E-01  0.88583099114E+00  0.88000000000E+00 0.  1.
        -11    1    4    4    0    0 -0.56122464140E-01 -0.17509839806E-01  0.31550238129E-01  0.66723340130E-01  0.51100000000E-03 0. -1.
         11    1    4    4    0    0 -0.60338357344E-01 -0.22102234018E-02  0.18553749501E-01  0.63167279473E-01  0.51100000000E-03 0.  1.
</event>
<event>
 8    1  0.5489035E+004  0.1043930E+01  0.7957747E-01            NaN
         13   -1    0    0    0    0  0.00000000000E+00  0.00000000000E+00  0.74505805969E-08  0.10566000000E+00  0.10566000000E+00 0.  1.
     999900   -1    0    0    0    0 -0.00000000000E+00 -0.00000000000E+00 -0.74505805969E-08  0.93827000000E+00  0.93827000000E+00 0.  1.
     999902    2    1    2    0    0 -0.11032546510E-01  0.34357049676E-02 -0.20947361088E-01  0.10200069340E+01  0.10197263517E+01 0.  0.
     999903    2    3    3    0    0  0.86029285652E-01  0.69991816148E-01 -0.66888539667E-01  0.13098426437E+00  0.19568046807E-01 0.  0.
         14    1    1    2    0    0  0.11032546510E-01 -0.34357049676E-02  0.20947361088E-01  0.23923066018E-01  0.00000000000E+00 0.  1.
     999901    1    3    3    0    0 -0.97061832162E-01 -0.66556111181E-01  0.45941178579E-01  0.88902266961E+00  0.88000000000E+00 0. -1.
        -11    1    4    4    0    0  0.41179535385E-01  0.27092616008E-01 -0.39390498888E-01  0.63100209986E-01  0.51100000000E-03 0. -1.
         11    1    4    4    0    0  0.44849750267E-01  0.42899200140E-01 -0.27498040780E-01  0.67884054382E-01  0.51100000000E-03 0.  1.
</event>
<event>
 8    1  0.5489035E+004  0.1043930E+01  0.7957747E-01            NaN
         13   -1    0    0    0    0  0.00000000000E+00  0.00000000000E+00  0.74505805969E-08  0.10566000000E+00  0.10566000000E+00 0.  1.
     999900   -1    0    0    0    0 -0.00000000000E+00 -0.00000000000E+00 -0.74505805969E-08  0.93827000000E+00  0.93827000000E+00 0. -1.
     999902    2    1    2    0    0 -0.41153775257E-02 -0.56286344873E-02  0.22388779645E-01  0.10204805797E+01  0.10202111243E+01 0.  0.
     999903    2    3    3    0    0  0.69906911276E-01 -0.10385723853E+00 -0.30946464931E-01  0.13032733098E+00  0.18820926375E-01 0.  0.
         14    1    1    2    0    0  0.41153775257E-02  0.56286344873E-02 -0.22388779645E-01  0.23449420299E-01  0.00000000000E+00 0. -1.
     999901    1    3    3    0    0 -0.74022288802E-01  0.98228604044E-01  0.53335244576E-01  0.89015324872E+00  0.88000000000E+00 0.  1.
        -11    1    4    4    0    0  0.25197778048E-01 -0.53950915558E-01 -0.16324215615E-01  0.61744396058E-01  0.51100000000E-03 0. -1.
         11    1    4    4    0    0  0.44709133228E-01 -0.49906322973E-01 -0.14622249316E-01  0.68582934924E-01  0.51100000000E-03 0.  1.
</event>
<event>
 8    1  0.5489035E+004  0.1043930E+01  0.7957747E-01            NaN
         13   -1    0    0    0    0  0.00000000000E+00  0.00000000000E+00  0.74505805969E-08  0.10566000000E+00  0.10566000000E+00 0. -1.
     999900   -1    0    0    0    0 -0.00000000000E+00 -0.00000000000E+00 -0.74505805969E-08  0.93827000000E+00  0.93827000000E+00 0. -1.
     999902    2    1    2    0    0  0.13837487875E-01 -0.16727267574E-01  0.36321901340E-02  0.10219193127E+01  0.10216822457E+01 0.  0.
     999903    2    3    3    0    0 -0.98486035850E-01  0.81488787842E-01 -0.21079630866E-02  0.12934107136E+00  0.19614979725E-01 0.  0.
         14    1    1    2    0    0 -0.13837487875E-01  0.16727267574E-01 -0.36321901340E-02  0.22010687321E-01  0.00000000000E+00 0.  1.
     999901    1    3    3    0    0  0.11232352373E+00 -0.98216055416E-01  0.57401532206E-02  0.89257824132E+00  0.88000000000E+00 0.  1.
        -11    1    4    4    0    0 -0.63806446741E-01  0.64283179864E-01 -0.15307699090E-03  0.90575241720E-01  0.51100000000E-03 0. -1.
         11    1    4    4    0    0 -0.34679589109E-01  0.17205607979E-01 -0.19548860957E-02  0.38765829635E-01  0.51100000000E-03 0.  1.
</event>
<event>
 8    1  0.5489035E+004  0.1043930E+01  0.7957747E-01            NaN
         13   -1    0    0    0    0  0.00000000000E+00  0.00000000000E+00  0.74505805969E-08  0.10566000000E+00  0.10566000000E+00 0. -1.
     999900   -1    0    0    0    0 -0.00000000000E+00 -0.00000000000E+00 -0.74505805969E-08  0.93827000000E+00  0.93827000000E+00 0.  1.
     999902    2    1    2    0    0 -0.12002875628E-01 -0.63187919933E-02  0.18971299163E-01  0.10206082002E+01  0.10203417035E+01 0.  0.
     999903    2    3    3    0    0 -0.64455244220E-01 -0.60173624018E-01 -0.93835652337E-01  0.13022794308E+00  0.19463914661E-01 0.  0.
         14    1    1    2    0    0  0.12002875628E-01  0.63187919933E-02 -0.18971299163E-01  0.23321799834E-01  0.00000000000E+00 0.  1.
     999901    1    3    3    0    0  0.52452368593E-01  0.53854832025E-01  0.11280695150E+00  0.89038025709E+00  0.88000000000E+00 0.  1.
        -11    1    4    4    0    0 -0.24838614446E-01 -0.34196812367E-01 -0.36465058885E-01  0.55824191746E-01  0.51100000000E-03 0.  1.
         11    1    4    4    0    0 -0.39616629774E-01 -0.25976811652E-01 -0.57370593453E-01  0.74403751333E-01  0.51100000000E-03 0. -1.
</event>
<event>
 8    1  0.5489035E+004  0.1043930E+01  0.7957747E-01            NaN
         13   -1    0    0    0    0  0.00000000000E+00  0.00000000000E+00  0.74505805969E-08  0.10566000000E+00  0.10566000000E+00 0.  1.
     999900   -1    0    0    0    0 -0.00000000000E+00 -0.00000000000E+00 -0.74505805969E-08  0.93827000000E+00  0.93827000000E+00 0. -1.
     999902    2    1    2    0    0  0.13981434741E-02 -0.17340176037E-01  0.14969794088E-01  0.10209793738E+01  0.10207213872E+01 0.  0.
     999903    2    3    3    0    0  0.27278238544E-01  0.31274664205E-01  0.12438562914E+00  0.13249470479E+00  0.18996187583E-01 0.  0.
         14    1    1    2    0    0 -0.13981434741E-02  0.17340176037E-01 -0.14969794088E-01  0.22950626249E-01  0.00000000000E+00 0. -1.
     999901    1    3    3    0    0 -0.25880095070E-01 -0.48614840242E-01 -0.10941583505E+00  0.88848466896E+00  0.88000000000E+00 0. -1.
        -11    1    4    4    0    0  0.29247877977E-01  0.23586109871E-01  0.10596906544E+00  0.11243418918E+00  0.51100000000E-03 0. -1.
         11    1    4    4    0    0 -0.19696394329E-02  0.76885543342E-02  0.18416563700E-01  0.20060515616E-01  0.51100000000E-03 0.  1.
</event>
<event>
 8    1  0.5489035E+004  0.1043930E+01  0.7957747E-01            NaN
         13   -1    0    0    0    0  0.00000000000E+00  0.00000000000E+00  0.74505805969E-08  0.10566000000E+00  0.10566000000E+00 0. -1.
     999900   -1    0    0    0    0 -0.00000000000E+00 -0.00000000000E+00 -0.74505805969E-08  0.93827000000E+00  0.93827000000E+00 0.  1.
     999902    2    1    2    0    0  0.14178371413E-01 -0.14021212534E-01  0.16584604295E-01  0.10179941230E+01  0.10176636796E+01 0.  0.
     999903    2    3    3    0    0 -0.23918823220E-01 -0.91931909024E-01  0.87747080519E-01  0.13087205084E+00  0.20108643669E-01 0.  0.
         14    1    1    2    0    0 -0.14178371413E-01  0.14021212534E-01 -0.16584604295E-01  0.25935877014E-01  0.00000000000E+00 0.  1.
     999901    1    3    3    0    0  0.38097194633E-01  0.77910696490E-01 -0.71162476224E-01  0.88712207215E+00  0.88000000000E+00 0.  1.
        -11    1    4    4    0    0 -0.18496272992E-01 -0.33795002279E-01  0.31046795048E-01  0.49481096364E-01  0.51100000000E-03 0. -1.
         11    1    4    4    0    0 -0.54225502276E-02 -0.58136906746E-01  0.56700285471E-01  0.81390954476E-01  0.51100000000E-03 0.  1.
</event>
<event>
 8    1  0.5489035E+004  0.1043930E+01  0.7957747E-01            NaN
         13   -1    0    0    0    0  0.00000000000E+00  0.00000000000E+00  0.74505805969E-08  0.10566000000E+00  0.10566000000E+00 0.  1.
     999900   -1    0    0    0    0 -0.00000000000E+00 -0.00000000000E+00 -0.74505805969E-08  0.93827000000E+00  0.93827000000E+00 0.  1.
     999902    2    1    2    0    0  0.69882445871E-02  0.20736629570E-01 -0.10579735018E-01  0.10196241538E+01  0.10193344107E+01 0.  0.
     999903    2    3    3    0    0 -0.90131109838E-02  0.43108843993E-01  0.12024849607E+00  0.12952720095E+00  0.19441871753E-01 0.  0.
         14    1    1    2    0    0 -0.69882445871E-02 -0.20736629570E-01  0.10579735018E-01  0.24305846239E-01  0.00000000000E+00 0.  1.
     999901    1    3    3    0    0  0.16001355571E-01 -0.22372214423E-01 -0.13082823109E+00  0.89009695281E+00  0.88000000000E+00 0.  1.
        -11    1    4    4    0    0 -0.32621680378E-02  0.34091649175E-01  0.67384557066E-01  0.75589826933E-01  0.51100000000E-03 0. -1.
         11    1    4    4    0    0 -0.57509429459E-02  0.90171948180E-02  0.52863939008E-01  0.53937374014E-01  0.51100000000E-03 0.  1.
</event>
<event>
 8    1  0.5489035E+004  0.1043930E+01  0.7957747E-01            NaN
         13   -1    0    0    0    0  0.00000000000E+00  0.00000000000E+00  0.74505805969E-08  0.10566000000E+00  0.10566000000E+00 0.  1.
     999900   -1    0    0    0    0 -0.00000000000E+00 -0.00000000000E+00 -0.74505805969E-08  0.93827000000E+00  0.93827000000E+00 0.  1.
     999902    2    1    2    0    0  0.23089988765E-01 -0.32152714932E-02  0.23868657259E-02  0.10204953530E+01  0.10202262410E+01 0.  0.
     999903    2    3    3    0    0  0.30796942221E-01  0.99064184863E-01 -0.77180450962E-01  0.13097219860E+00  0.20850190019E-01 0.  0.
         14    1    1    2    0    0 -0.23089988765E-01  0.32152714932E-02 -0.23868657259E-02  0.23434646999E-01  0.00000000000E+00 0. -1.
     999901    1    3    3    0    0 -0.77069534553E-02 -0.10227945636E+00  0.79567316688E-01  0.88952315440E+00  0.88000000000E+00 0. -1.
        -11    1    4    4    0    0  0.21584384960E-01  0.36758562351E-01 -0.35130432816E-01  0.55240257160E-01  0.51100000000E-03 0. -1.
         11    1    4    4    0    0  0.92125572601E-02  0.62305622512E-01 -0.42050018146E-01  0.75731941444E-01  0.51100000000E-03 0.  1.
</event>
<event>
 8    1  0.5489035E+004  0.1043930E+01  0.7957747E-01            NaN
         13   -1    0    0    0    0  0.00000000000E+00  0.00000000000E+00  0.74505805969E-08  0.10566000000E+00  0.10566000000E+00 0. -1.
     999900   -1    0    0    0    0 -0.00000000000E+00 -0.00000000000E+00 -0.74505805969E-08  0.93827000000E+00  0.93827000000E+00 0.  1.
     999902    2    1    2    0    0 -0.13179685701E-01 -0.17973702146E-01 -0.67050311992E-02  0.10206552169E+01  0.10203898061E+01 0.  0.
     999903    2    3    3    0    0 -0.53637420177E-01  0.70684389374E-01  0.92545147127E-01  0.12973003299E+00  0.19799531745E-01 0.  0.
         14    1    1    2    0    0  0.13179685701E-01  0.17973702146E-01  0.67050311992E-02  0.23274783080E-01  0.00000000000E+00 0. -1.
     999901    1    3    3    0    0  0.40457734476E-01 -0.88658091521E-01 -0.99250178326E-01  0.89092518393E+00  0.88000000000E+00 0.  1.
        -11    1    4    4    0    0 -0.49158009574E-01  0.55218978909E-01  0.68501660707E-01  0.10078880978E+00  0.51100000000E-03 0.  1.
         11    1    4    4    0    0 -0.44794106031E-02  0.15465410465E-01  0.24043486419E-01  0.28941223202E-01  0.51100000000E-03 0. -1.
</event>
<event>
 8    1  0.5489035E+004  0.1043930E+01  0.7957747E-01            NaN
         13   -1    0    0    0    0  0.00000000000E+00  0.00000000000E+00  0.74505805969E-08  0.10566000000E+00  0.10566000000E+00 0. -1.
     999900   -1    0    0    0    0 -0.00000000000E+00 -0.00000000000E+00 -0.74505805969E-08  0.93827000000E+00  0.93827000000E+00 0. -1.
     999902    2    1    2    0    0 -0.16640654624E-01  0.12168979883E-01 -0.10662025284E-01  0.10207206432E+01  0.10204567396E+01 0.  0.
     999903    2    3    3    0    0  0.60937261678E-01  0.61380417654E-01  0.94840386698E-01  0.12967021951E+00  0.18405470574E-01 0.  0.
         14    1    1    2    0    0  0.16640654624E-01 -0.12168979883E-01  0.10662025284E-01  0.23209356753E-01  0.00000000000E+00 0.  1.
     999901    1    3    3    0    0 -0.77577916303E-01 -0.49211437771E-01 -0.10550241198E+00  0.89105042374E+00  0.88000000000E+00 0. -1.
        -11    1    4    4    0    0  0.24675660782E-01  0.13473986390E-01  0.34628575787E-01  0.44607577006E-01  0.51100000000E-03 0.  1.
         11    1    4    4    0    0  0.36261600896E-01  0.47906431264E-01  0.60211810910E-01  0.85062642506E-01  0.51100000000E-03 0. -1.
</event>
<event>
 8    1  0.5489035E+004  0.1043930E+01  0.7957747E-01            NaN
         13   -1    0    0    0    0  0.00000000000E+00  0.00000000000E+00  0.74505805969E-08  0.10566000000E+00  0.10566000000E+00 0.  1.
     999900   -1    0    0    0    0 -0.00000000000E+00 -0.00000000000E+00 -0.74505805969E-08  0.93827000000E+00  0.93827000000E+00 0.  1.
     999902    2    1    2    0    0  0.80285788607E-02  0.19478529148E-01  0.97438956817E-02  0.10207176180E+01  0.10204536447E+01 0.  0.
     999903    2    3    3    0    0 -0.12096373528E+00 -0.39595556649E-01 -0.83581981960E-03  0.12929140392E+00  0.22705399677E-01 0.  0.
         14    1    1    2    0    0 -0.80285788607E-02 -0.19478529148E-01 -0.97438956817E-02  0.23212382027E-01  0.00000000000E+00 0. -1.
     999901    1    3    3    0    0  0.12899231414E+00  0.59074085797E-01  0.10579715501E-01  0.89142621405E+00  0.88000000000E+00 0. -1.
        -11    1    4    4    0    0 -0.60747474816E-01 -0.81729842215E-02 -0.24902105837E-02  0.61347499031E-01  0.51100000000E-03 0.  1.
         11    1    4    4    0    0 -0.60216260462E-01 -0.31422572428E-01  0.16543907641E-02  0.67943904891E-01  0.51100000000E-03 0. -1.
</event>
<event>
 8    1  0.5489035E+004  0.1043930E+01  0.7957747E-01            NaN
         13   -1    0    0    0    0  0.00000000000E+00  0.00000000000E+00  0.74505805969E-08  0.10566000000E+00  0.10566000000E+00 0.  1.
     999900   -1    0    0    0    0 -0.00000000000E+00 -0.00000000000E+00 -0.74505805969E-08  0.93827000000E+00  0.93827000000E+00 0. -1.
     999902    2    1    2    0    0  0.19200748692E-01  0.64122832823E-02 -0.12699986818E-01  0.10200328079E+01  0.10197528393E+01 0.  0.
     999903    2    3    3    0    0  0.48070942011E-01 -0.49139675949E-01 -0.11131036877E+00  0.13231465683E+00  0.19790073218E-01 0.  0.
         14    1    1    2    0    0 -0.19200748692E-01 -0.64122832823E-02  0.12699986818E-01  0.23897192145E-01  0.00000000000E+00 0.  1.
     999901    1    3    3    0    0 -0.28870193320E-01  0.55551959231E-01  0.98610381949E-01  0.88771815103E+00  0.88000000000E+00 0.  1.
        -11    1    4    4    0    0  0.20162178685E-01 -0.15782037786E-01 -0.58762278515E-01  0.64100332786E-01  0.51100000000E-03 0. -1.
         11    1    4    4    0    0  0.27908763327E-01 -0.33357638163E-01 -0.52548090252E-01  0.68214324041E-01  0.51100000000E-03 0.  1.
</event>
<event>
 8    1  0.5489035E+004  0.1043930E+01  0.7957747E-01            NaN
         13   -1    0    0    0    0  0.00000000000E+00  0.00000000000E+00  0.74505805969E-08  0.10566000000E+00  0.10566000000E+00 0. -1.
     999900   -1    0    0    0    0 -0.00000000000E+00 -0.00000000000E+00 -0.74505805969E-08  0.93827000000E+00  0.93827000000E+00 0. -1.
     999902    2    1    2    0    0  0.95166233352E-02  0.13030708942E-01  0.17791581532E-01  0.10199111352E+01  0.10196282743E+01 0.  0.
     999903    2    3    3    0    0  0.10658694360E+00  0.66199682444E-01  0.37882919064E-01  0.13275091926E+00  0.21083560066E-01 0.  0.
         14    1    1    2    0    0 -0.95166233352E-02 -0.13030708942E-01 -0.17791581532E-01  0.24018864849E-01  0.00000000000E+00 0.  1.
     999901    1    3    3    0    0 -0.97070320266E-01 -0.53168973502E-01 -0.20091337532E-01  0.88716021589E+00  0.88000000000E+00 0.  1.
        -11    1    4    4    0    0  0.43840922060E-01  0.35074380024E-01  0.25308732773E-01  0.61587593367E-01  0.51100000000E-03 0.  1.
         11    1    4    4    0    0  0.62746021541E-01  0.31125302420E-01  0.12574186291E-01  0.71163325891E-01  0.51100000000E-03 0. -1.
</event>
<event>
 8    1  0.5489035E+004  0.1043930E+01  0.7957747E-01            NaN
         13   -1    0    0    0    0  0.00000000000E+00  0.00000000000E+00  0.74505805969E-08  0.10566000000E+00  0.10566000000E+00 0.  1.
     999900   -1    0    0    0    0 -0.00000000000E+00 -0.00000000000E+00 -0.74505805969E-08  0.93827000000E+00  0.93827000000E+00 0. -1.
     999902    2    1    2    0    0 -0.21637353455E-01  0.87385016753E-02 -0.27036608303E-02  0.10204385918E+01  0.10201681594E+01 0.  0.
     999903    2    3    3    0    0 -0.19105785185E-01  0.87866272354E-01  0.93950419141E-01  0.13161373613E+00  0.20247998325E-01 0.  0.
         14    1    1    2    0    0  0.21637353455E-01 -0.87385016753E-02  0.27036608303E-02  0.23491408173E-01  0.00000000000E+00 0.  1.
     999901    1    3    3    0    0 -0.25315682698E-02 -0.79127770679E-01 -0.96654079971E-01  0.88882485570E+00  0.88000000000E+00 0. -1.
        -11    1    4    4    0    0 -0.73194885984E-02  0.21436301025E-01  0.36687566606E-01  0.43119932507E-01  0.51100000000E-03 0.  1.
         11    1    4    4    0    0 -0.11786296587E-01  0.66429971329E-01  0.57262852536E-01  0.88493803622E-01  0.51100000000E-03 0. -1.
</event>
<event>
 8    1  0.5489035E+004  0.1043930E+01  0.7957747E-01            NaN
         13   -1    0    0    0    0  0.00000000000E+00  0.00000000000E+00  0.74505805969E-08  0.10566000000E+00  0.10566000000E+00 0.  1.
     999900   -1    0    0    0    0 -0.00000000000E+00 -0.00000000000E+00 -0.74505805969E-08  0.93827000000E+00  0.93827000000E+00 0. -1.
     999902    2    1    2    0    0  0.12439031539E-02  0.31470908836E-02  0.23511177251E-01  0.10201765385E+01  0.10198999671E+01 0.  0.
     999903    2    3    3    0    0  0.10371915536E+00 -0.75411328930E-02 -0.74183824380E-01  0.12879573955E+00  0.16449038083E-01 0.  0.
         14    1    1    2    0    0 -0.12439031539E-02 -0.31470908836E-02 -0.23511177251E-01  0.23753461470E-01  0.00000000000E+00 0. -1.
     999901    1    3    3    0    0 -0.10247525220E+00  0.10688223777E-01  0.97695001631E-01  0.89138079898E+00  0.88000000000E+00 0.  1.
        -11    1    4    4    0    0  0.14010415832E-01  0.37253270097E-04 -0.38195304437E-02  0.14530763001E-01  0.51100000000E-03 0. -1.
         11    1    4    4    0    0  0.89708739526E-01 -0.75783861631E-02 -0.70364293936E-01  0.11426497655E+00  0.51100000000E-03 0.  1.
</event>
<event>
 8    1  0.5489035E+004  0.1043930E+01  0.7957747E-01            NaN
         13   -1    0    0    0    0  0.00000000000E+00  0.00000000000E+00  0.74505805969E-08  0.10566000000E+00  0.10566000000E+00 0.  1.
     999900   -1    0    0    0    0 -0.00000000000E+00 -0.00000000000E+00 -0.74505805969E-08  0.93827000000E+00  0.93827000000E+00 0. -1.
     999902    2    1    2    0    0  0.19918009786E-01  0.11225002886E-01  0.21446701859E-04  0.10210667486E+01  0.10208107449E+01 0.  0.
     999903    2    3    3    0    0 -0.10274428974E+00 -0.63180924101E-01 -0.39739052100E-01  0.12856286686E+00  0.20024990085E-01 0.  0.
         14    1    1    2    0    0 -0.19918009786E-01 -0.11225002886E-01 -0.21446701859E-04  0.22863251378E-01  0.00000000000E+00 0. -1.
     999901    1    3    3    0    0  0.12266229953E+00  0.74405926987E-01  0.39760498802E-01  0.89250388176E+00  0.88000000000E+00 0.  1.
        -11    1    4    4    0    0 -0.53384967221E-01 -0.36572135317E-01 -0.11318568042E-01  0.65695105680E-01  0.51100000000E-03 0.  1.
         11    1    4    4    0    0 -0.49359322523E-01 -0.26608788784E-01 -0.28420484059E-01  0.62867761179E-01  0.51100000000E-03 0. -1.
</event>
<event>
 8    1  0.5489035E+004  0.1043930E+01  0.7957747E-01            NaN
         13   -1    0    0    0    0  0.00000000000E+00  0.00000000000E+00  0.74505805969E-08  0.10566000000E+00  0.10566000000E+00 0.  1.
     999900   -1    0    0    0    0 -0.00000000000E+00 -0.00000000000E+00 -0.74505805969E-08  0.93827000000E+00  0.93827000000E+00 0. -1.
     999902    2    1    2    0    0  0.15671635077E-01  0.14261812091E-01 -0.18771008996E-02  0.10226574135E+01  0.10224361410E+01 0.  0.
     999903    2    3    3    0    0  0.28545098755E-01  0.12920078617E+00  0.16947797545E-01  0.13488994919E+00  0.20010115927E-01 0.  0.
         14    1    1    2    0    0 -0.15671635077E-01 -0.14261812091E-01  0.18771008996E-02  0.21272586535E-01  0.00000000000E+00 0.  1.
     999901    1    3    3    0    0 -0.12873463678E-01 -0.11493897408E+00 -0.18824898445E-01  0.88776746428E+00  0.88000000000E+00 0.  1.
        -11    1    4    4    0    0  0.23057419392E-01  0.63575528168E-01  0.13356353028E-01  0.68935808242E-01  0.51100000000E-03 0.  1.
         11    1    4    4    0    0  0.54876793636E-02  0.65625258005E-01  0.35914445175E-02  0.65954140945E-01  0.51100000000E-03 0. -1.
</event>
<event>
 8    1  0.5489035E+004  0.1043930E+01  0.7957747E-01            NaN
         13   -1    0    0    0    0  0.00000000000E+00  0.00000000000E+00  0.74505805969E-08  0.10566000000E+00  0.10566000000E+00 0. -1.
     999900   -1    0    0    0    0 -0.00000000000E+00 -0.00000000000E+00 -0.74505805969E-08  0.93827000000E+00  0.93827000000E+00 0.  1.
     999902    2    1    2    0    0  0.10087014192E-01  0.22756257278E-01  0.29112304962E-02  0.10188686680E+01  0.10185604018E+01 0.  0.
     999903    2    3    3    0    0 -0.10397095303E+00 -0.52382842764E-01 -0.46612153466E-01  0.12695630130E+00  0.19781008539E-01 0.  0.
         14    1    1    2    0    0 -0.10087014192E-01 -0.22756257278E-01 -0.29112304962E-02  0.25061332040E-01  0.00000000000E+00 0.  1.
     999901    1    3    3    0    0  0.11405796722E+00  0.75139100042E-01  0.49523383962E-01  0.89191236666E+00  0.88000000000E+00 0. -1.
        -11    1    4    4    0    0 -0.44799218402E-01 -0.17543694780E-01 -0.10019910309E-01  0.49146830208E-01  0.51100000000E-03 0.  1.
         11    1    4    4    0    0 -0.59171734630E-01 -0.34839147984E-01 -0.36592243157E-01  0.77809471092E-01  0.51100000000E-03 0. -1.
</event>
<event>
 8    1  0.5489035E+004  0.1043930E+01  0.7957747E-01            NaN
         13   -1    0    0    0    0  0.00000000000E+00  0.00000000000E+00  0.74505805969E-08  0.10566000000E+00  0.10566000000E+00 0. -1.
     999900   -1    0    0    0    0 -0.00000000000E+00 -0.00000000000E+00 -0.74505805969E-08  0.93827000000E+00  0.93827000000E+00 0.  1.
     999902    2    1    2    0    0  0.13264725194E-01 -0.53969602222E-02 -0.19510192549E-01  0.10197281875E+01  0.10194409491E+01 0.  0.
     999903    2    3    3    0    0  0.63266153289E-01  0.13141457274E-02 -0.11528503517E+00  0.13309522951E+00  0.20478468025E-01 0.  0.
         14    1    1    2    0    0 -0.13264725194E-01  0.53969602222E-02  0.19510192549E-01  0.24201812482E-01  0.00000000000E+00 0. -1.
     999901    1    3    3    0    0 -0.50001428095E-01 -0.67111059496E-02  0.95774842619E-01  0.88663295801E+00  0.88000000000E+00 0. -1.
        -11    1    4    4    0    0  0.14665673565E-01  0.26110119656E-02 -0.46727494764E-01  0.49047112581E-01  0.51100000000E-03 0. -1.
         11    1    4    4    0    0  0.48600479724E-01 -0.12968662382E-02 -0.68557540403E-01  0.84048116925E-01  0.51100000000E-03 0.  1.
</event>
<event>
 8    1  0.5489035E+004  0.1043930E+01  0.7957747E-01            NaN
         13   -1    0    0    0    0  0.00000000000E+00  0.00000000000E+00  0.74505805969E-08  0.10566000000E+00  0.10566000000E+00 0.  1.
     999900   -1    0    0    0    0 -0.00000000000E+00 -0.00000000000E+00 -0.74505805969E-08  0.93827000000E+00  0.93827000000E+00 0.  1.
     999902    2    1    2    0    0 -0.53941235146E-02 -0.36536360220E-02  0.22489976397E-01  0.10205153750E+01  0.10202467280E+01 0.  0.
     999903    2    3    3    0    0  0.73185717509E-01  0.10255495051E+00 -0.22090411315E-01  0.12953699917E+00  0.20449468461E-01 0.  0.
         14    1    1    2    0    0  0.53941235146E-02  0.36536360220E-02 -0.22489976397E-01  0.23414624981E-01  0.00000000000E+00 0. -1.
     999901    1    3    3    0    0 -0.78579841024E-01 -0.10620858653E+00  0.44580387712E-01  0.89097837585E+00  0.88000000000E+00 0. -1.
        -11    1    4    4    0    0  0.25737981276E-01  0.51370379565E-01 -0.14979722699E-01  0.59380239053E-01  0.51100000000E-03 0.  1.
         11    1    4    4    0    0  0.47447736233E-01  0.51184570941E-01 -0.71106886165E-02  0.70156760114E-01  0.51100000000E-03 0. -1.
</event>
<event>
 8    1  0.5489035E+004  0.1043930E+01  0.7957747E-01            NaN
         13   -1    0    0    0    0  0.00000000000E+00  0.00000000000E+00  0.74505805969E-08  0.10566000000E+00  0.10566000000E+00 0.  1.
     999900   -1    0    0    0    0 -0.00000000000E+00 -0.00000000000E+00 -0.74505805969E-08  0.93827000000E+00  0.93827000000E+00 0.  1.
     999902    2    1    2    0    0  0.14436723887E-01  0.14530027297E-01 -0.12171692383E-01  0.10201037375E+01  0.10198254480E+01 0.  0.
     999903    2    3    3    0    0 -0.12574493453E+00  0.17863561861E-01  0.12232350949E-02  0.12890149675E+00  0.21981905281E-01 0.  0.
         14    1    1    2    0    0 -0.14436723887E-01 -0.14530027297E-01  0.12171692383E-01  0.23826262512E-01  0.00000000000E+00 0.  1.
     999901    1    3    3    0    0  0.14018165841E+00 -0.33335345644E-02 -0.13394927478E-01  0.89120224073E+00  0.88000000000E+00 0. -1.
        -11    1    4    4    0    0 -0.90985057130E-01  0.29848616467E-02  0.24393324748E-02  0.91068114529E-01  0.51100000000E-03 0.  1.
         11    1    4    4    0    0 -0.34759877396E-01  0.14878700214E-01 -0.12160973799E-02  0.37833382224E-01  0.51100000000E-03 0. -1.
</event>
<event>
 8    1  0.5489035E+004  0.1043930E+01  0.7957747E-01            NaN
         13   -1    0    0    0    0  0.00000000000E+00  0.00000000000E+00  0.74505805969E-08  0.10566000000E+00  0.10566000000E+00 0.  1.
     999900   -1    0    0    0    0 -0.00000000000E+00 -0.00000000000E+00 -0.74505805969E-08  0.93827000000E+00  0.93827000000E+00 0. -1.
     999902    2    1    2    0    0  0.10718435424E-01  0.19778185473E-01  0.83827374641E-02  0.10199230892E+01  0.10196405132E+01 0.  0.
     999903    2    3    3    0    0  0.69835179986E-01 -0.90425485503E-01 -0.56100021457E-01  0.12874540502E+00  0.19350610203E-01 0.  0.
         14    1    1    2    0    0 -0.10718435424E-01 -0.19778185473E-01 -0.83827374641E-02  0.24006910795E-01  0.00000000000E+00 0. -1.
     999901    1    3    3    0    0 -0.59116744562E-01  0.11020367098E+00  0.64482758921E-01  0.89117768418E+00  0.88000000000E+00 0.  1.
        -11    1    4    4    0    0  0.49789415533E-01 -0.49965340602E-01 -0.30644756610E-01  0.76908279068E-01  0.51100000000E-03 0.  1.
         11    1    4    4    0    0  0.20045764453E-01 -0.40460144901E-01 -0.25455264847E-01  0.51837125956E-01  0.51100000000E-03 0. -1.
</event>
<event>
 8    1  0.5489035E+004  0.1043930E+01  0.7957747E-01            NaN
         13   -1    0    0    0    0  0.00000000000E+00  0.00000000000E+00  0.74505805969E-08  0.10566000000E+00  0.10566000000E+00 0.  1.
     999900   -1    0    0    0    0 -0.00000000000E+00 -0.00000000000E+00 -0.74505805969E-08  0.93827000000E+00  0.93827000000E+00 0. -1.
     999902    2    1    2    0    0 -0.15853120505E-01  0.16581309287E-01  0.99489142997E-02  0.10189251576E+01  0.10186182968E+01 0.  0.
     999903    2    3    3    0    0 -0.80830800077E-01 -0.22657829096E-02 -0.99399694026E-01  0.12958021335E+00  0.19286796171E-01 0.  0.
         14    1    1    2    0    0  0.15853120505E-01 -0.16581309287E-01 -0.99489142997E-02  0.25004842394E-01  0.00000000000E+00 0. -1.
     999901    1    3    3    0    0  0.64977679572E-01  0.18847092197E-01  0.10934860833E+00  0.88934494425E+00  0.88000000000E+00 0.  1.
        -11    1    4    4    0    0 -0.31089740260E-01  0.83201797150E-02 -0.41409615309E-01  0.52448209702E-01  0.51100000000E-03 0. -1.
         11    1    4    4    0    0 -0.49741059816E-01 -0.10585962625E-01 -0.57990078718E-01  0.77132003650E-01  0.51100000000E-03 0.  1.
</event>
<event>
 8    1  0.5489035E+004  0.1043930E+01  0.7957747E-01            NaN
         13   -1    0    0    0    0  0.00000000000E+00  0.00000000000E+00  0.74505805969E-08  0.10566000000E+00  0.10566000000E+00 0. -1.
     999900   -1    0    0    0    0 -0.00000000000E+00 -0.00000000000E+00 -0.74505805969E-08  0.93827000000E+00  0.93827000000E+00 0. -1.
     999902    2    1    2    0    0  0.87589922870E-02 -0.15653460133E-02 -0.20904298713E-01  0.10212108460E+01  0.10209580951E+01 0.  0.
     999903    2    3    3    0    0  0.20025397775E-01  0.52974904529E-01 -0.12067968171E+00  0.13382327685E+00  0.11735705494E-01 0.  0.
         14    1    1    2    0    0 -0.87589922870E-02  0.15653460133E-02  0.20904298713E-01  0.22719154005E-01  0.00000000000E+00 0. -1.
     999901    1    3    3    0    0 -0.11266405488E-01 -0.54540250543E-01  0.99775382996E-01  0.88738756915E+00  0.88000000000E+00 0.  1.
        -11    1    4    4    0    0  0.48224005807E-02  0.15670005635E-01 -0.23843023444E-01  0.28940551341E-01  0.51100000000E-03 0. -1.
         11    1    4    4    0    0  0.15202997195E-01  0.37304898894E-01 -0.96836658265E-01  0.10488272551E+00  0.51100000000E-03 0.  1.
</event>
<event>
 8    1  0.5489035E+004  0.1043930E+01  0.7957747E-01            NaN
         13   -1    0    0    0    0  0.00000000000E+00  0.00000000000E+00  0.74505805969E-08  0.10566000000E+00  0.10566000000E+00 0. -1.
     999900   -1    0    0    0    0 -0.00000000000E+00 -0.00000000000E+00 -0.74505805969E-08  0.93827000000E+00  0.93827000000E+00 0. -1.
     999902    2    1    2    0    0 -0.87118333741E-02 -0.14779925813E-01 -0.16236290316E-01  0.10203088364E+01  0.10200353730E+01 0.  0.
     999903    2    3    3    0    0  0.87986769003E-01 -0.14253454670E-02 -0.95531074062E-01  0.13136754065E+00  0.19686073638E-01 0.  0.
         14    1    1    2    0    0  0.87118333741E-02  0.14779925813E-01  0.16236290316E-01  0.23621163625E-01  0.00000000000E+00 0. -1.
     999901    1    3    3    0    0 -0.96698602377E-01 -0.13354580346E-01  0.79294783746E-01  0.88894129573E+00  0.88000000000E+00 0.  1.
        -11    1    4    4    0    0  0.58961958528E-01 -0.99855086995E-02 -0.66382330765E-01  0.89348183508E-01  0.51100000000E-03 0. -1.
         11    1    4    4    0    0  0.29024810474E-01  0.85601632325E-02 -0.29148743298E-01  0.42019357140E-01  0.51100000000E-03 0.  1.
</event>
<event>
 8    1  0.5489035E+004  0.1043930E+01  0.7957747E-01            NaN
         13   -1    0    0    0    0  0.00000000000E+00  0.00000000000E+00  0.74505805969E-08  0.10566000000E+00  0.10566000000E+00 0.  1.
     999900   -1    0    0    0    0 -0.00000000000E+00 -0.00000000000E+00 -0.74505805969E-08  0.93827000000E+00  0.93827000000E+00 0. -1.
     999902    2    1    2    0    0  0.16613338051E-01  0.15521894276E-01 -0.71696797722E-02  0.10200901906E+01  0.10198115809E+01 0.  0.
     999903    2    3    3    0    0 -0.10628214149E+00 -0.64926613398E-01 -0.20380180137E-01  0.12781793475E+00  0.20266079409E-01 0.  0.
         14    1    1    2    0    0 -0.16613338051E-01 -0.15521894276E-01  0.71696797722E-02  0.23839809377E-01  0.00000000000E+00 0.  1.
     999901    1    3    3    0    0  0.12289547954E+00  0.80448507674E-01  0.13210500365E-01  0.89227225587E+00  0.88000000000E+00 0.  1.
        -11    1    4    4    0    0 -0.51065814645E-01 -0.43015199177E-01 -0.11358930794E-01  0.67729692273E-01  0.51100000000E-03 0.  1.
         11    1    4    4    0    0 -0.55216326845E-01 -0.21911414221E-01 -0.90212493425E-02  0.60088242478E-01  0.51100000000E-03 0. -1.
</event>
<event>
 8    1  0.5489035E+004  0.1043930E+01  0.7957747E-01            NaN
         13   -1    0    0    0    0  0.00000000000E+00  0.00000000000E+00  0.74505805969E-08  0.10566000000E+00  0.10566000000E+00 0. -1.
     999900   -1    0    0    0    0 -0.00000000000E+00 -0.00000000000E+00 -0.74505805969E-08  0.93827000000E+00  0.93827000000E+00 0. -1.
     999902    2    1    2    0    0  0.23781418143E-01  0.54394148228E-02 -0.20766692284E-02  0.10194462168E+01  0.10191521640E+01 0.  0.
     999903    2    3    3    0    0 -0.33767891622E-01 -0.87364864838E-01 -0.86253145064E-01  0.12871043309E+00  0.18811710182E-01 0.  0.
         14    1    1    2    0    0 -0.23781418143E-01 -0.54394148228E-02  0.20766692284E-02  0.24483783155E-01  0.00000000000E+00 0.  1.
     999901    1    3    3    0    0  0.57549309765E-01  0.92804279661E-01  0.84176475836E-01  0.89073578376E+00  0.88000000000E+00 0.  1.
        -11    1    4    4    0    0  0.13651970210E-02 -0.97948114900E-02 -0.13269904038E-01  0.16557583435E-01  0.51100000000E-03 0. -1.
         11    1    4    4    0    0 -0.35133088643E-01 -0.77570053348E-01 -0.72983241026E-01  0.11215284965E+00  0.51100000000E-03 0.  1.
</event>
<event>
 8    1  0.5489035E+004  0.1043930E+01  0.7957747E-01            NaN
         13   -1    0    0    0    0  0.00000000000E+00  0.00000000000E+00  0.74505805969E-08  0.10566000000E+00  0.10566000000E+00 0.  1.
     999900   -1    0    0    0    0 -0.00000000000E+00 -0.00000000000E+00 -0.74505805969E-08  0.93827000000E+00  0.93827000000E+00 0.  1.
     999902    2    1    2    0    0  0.39778403874E-03  0.22557513438E-01 -0.10953915493E-01  0.10188503686E+01  0.10185416466E+01 0.  0.
     999903    2    3    3    0    0  0.51853388030E-01  0.29945601089E-01  0.11225853244E+00  0.12874724520E+00  0.19706906612E-01 0.  0.
         14    1    1    2    0    0 -0.39778403874E-03 -0.22557513438E-01  0.10953915493E-01  0.25079631362E-01  0.00000000000E+00 0.  1.
     999901    1    3    3    0    0 -0.51455603991E-01 -0.73880876506E-02 -0.12321244793E+00  0.89010312343E+00  0.88000000000E+00 0.  1.
        -11    1    4    4    0    0  0.36864230939E-01  0.28793177982E-01  0.72963087652E-01  0.86671171111E-01  0.51100000000E-03 0. -1.
         11    1    4    4    0    0  0.14989157091E-01  0.11524231063E-02  0.39295444784E-01  0.42076074093E-01  0.51100000000E-03 0.  1.
</event>
<event>
 8    1  0.5489035E+004  0.1043930E+01  0.7957747E-01            NaN
         13   -1    0    0    0    0  0.00000000000E+00  0.00000000000E+00  0.74505805969E-08  0.10566000000E+00  0.10566000000E+00 0.  1.
     999900   -1    0    0    0    0 -0.00000000000E+00 -0.00000000000E+00 -0.74505805969E-08  0.93827000000E+00  0.93827000000E+00 0.  1.
     999902    2    1    2    0    0  0.44360026211E-02 -0.18820432661E-01  0.13354752704E-01  0.10204302931E+01  0.10201596673E+01 0.  0.
     999903    2    3    3    0    0  0.24215992049E-01 -0.84166552737E-01 -0.96318539466E-01  0.13099811783E+00  0.14588452912E-01 0.  0.
         14    1    1    2    0    0 -0.44360026211E-02  0.18820432661E-01 -0.13354752704E-01  0.23499706904E-01  0.00000000000E+00 0. -1.
     999901    1    3    3    0    0 -0.19779989428E-01  0.65346120077E-01  0.10967329217E+00  0.88943217527E+00  0.88000000000E+00 0. -1.
        -11    1    4    4    0    0  0.16166951562E-01 -0.57402168289E-01 -0.55100781799E-01  0.81195668129E-01  0.51100000000E-03 0.  1.
         11    1    4    4    0    0  0.80490404871E-02 -0.26764384448E-01 -0.41217757667E-01  0.49802449696E-01  0.51100000000E-03 0. -1.
</event>
<event>
 8    1  0.5489035E+004  0.1043930E+01  0.7957747E-01            NaN
         13   -1    0    0    0    0  0.00000000000E+00  0.00000000000E+00  0.74505805969E-08  0.10566000000E+00  0.10566000000E+00 0. -1.
     999900   -1    0    0    0    0 -0.00000000000E+00 -0.00000000000E+00 -0.74505805969E-08  0.93827000000E+00  0.93827000000E+00 0.  1.
     999902    2    1    2    0    0 -0.23975824373E-01  0.45298358420E-02 -0.23537846087E-01  0.10100273487E+01  0.10094581989E+01 0.  0.
     999903    2    3    3    0    0  0.87112872169E-01  0.79296162548E-01  0.59919123645E-02  0.11940806486E+00  0.18597017151E-01 0.  0.
         14    1    1    2    0    0  0.23975824373E-01 -0.45298358420E-02  0.23537846087E-01  0.33902651305E-01  0.00000000000E+00 0. -1.
     999901    1    3    3    0    0 -0.11108869654E+00 -0.74766326706E-01 -0.29529758451E-01  0.89061928384E+00  0.88000000000E+00 0.  1.
        -11    1    4    4    0    0  0.31876832985E-01  0.33999169727E-01  0.10687309628E-01  0.47817943613E-01  0.51100000000E-03 0. -1.
         11    1    4    4    0    0  0.55236039185E-01  0.45296992821E-01 -0.46953972638E-02  0.71590121245E-01  0.51100000000E-03 0.  1.
</event>
<event>
 8    1  0.5489035E+004  0.1043930E+01  0.7957747E-01            NaN
         13   -1    0    0    0    0  0.00000000000E+00  0.00000000000E+00  0.74505805969E-08  0.10566000000E+00  0.10566000000E+00 0. -1.
     999900   -1    0    0    0    0 -0.00000000000E+00 -0.00000000000E+00 -0.74505805969E-08  0.93827000000E+00  0.93827000000E+00 0. -1.
     999902    2    1    2    0    0  0.14620116456E-01 -0.24735115788E-02  0.16428700231E-01  0.10217992916E+01  0.10215596037E+01 0.  0.
     999903    2    3    3    0    0  0.16387516189E-01  0.23068662103E-01  0.12862002271E+00  0.13430708361E+00  0.26354669535E-01 0.  0.
         14    1    1    2    0    0 -0.14620116456E-01  0.24735115788E-02 -0.16428700231E-01  0.22130708438E-01  0.00000000000E+00 0.  1.
     999901    1    3    3    0    0 -0.17673997330E-02 -0.25542173682E-01 -0.11219132248E+00  0.88749220795E+00  0.88000000000E+00 0. -1.
        -11    1    4    4    0    0  0.19893842962E-01  0.60206858017E-02  0.59514811470E-01  0.63041950721E-01  0.51100000000E-03 0. -1.
         11    1    4    4    0    0 -0.35063267736E-02  0.17047976302E-01  0.69105211243E-01  0.71265132887E-01  0.51100000000E-03 0.  1.
</event>
<event>
 7    1  0.5489035E+004  0.1043930E+01  0.7957747E-01            NaN
         13   -1    0    0    0    0  0.00000000000E+00  0.00000000000E+00  0.74505805969E-08  0.10566000000E+00  0.10566000000E+00 0. -1.
     999900   -1    0    0    0    0 -0.00000000000E+00 -0.00000000000E+00 -0.74505805969E-08  0.93827000000E+00  0.93827000000E+00 0. -1.
     999903    2    1    2    0    0 -0.62710994794E-01 -0.42579756887E-01 -0.82610550416E-01  0.11383355355E+00  0.19694423304E-01 0.  0.
         14    1    1    2    0    0 -0.34846824546E-01  0.53104269305E-02  0.22641603818E-01  0.41894439232E-01  0.00000000000E+00 0. -1.
     999901    1    1    2    0    0  0.97557819340E-01  0.37269329956E-01  0.59968946598E-01  0.88820200722E+00  0.88000000000E+00 0.  1.
        -11    1    3    3    0    0 -0.46882020958E-01 -0.25755683326E-01 -0.46052546229E-01  0.70585956450E-01  0.51100000000E-03 0.  1.
         11    1    3    3    0    0 -0.15828973836E-01 -0.16824073561E-01 -0.36558004186E-01  0.43247597101E-01  0.51100000000E-03 0. -1.
</event>
<event>
 8    1  0.5489035E+004  0.1043930E+01  0.7957747E-01            NaN
         13   -1    0    0    0    0  0.00000000000E+00  0.00000000000E+00  0.74505805969E-08  0.10566000000E+00  0.10566000000E+00 0.  1.
     999900   -1    0    0    0    0 -0.00000000000E+00 -0.00000000000E+00 -0.74505805969E-08  0.93827000000E+00  0.93827000000E+00 0.  1.
     999902    2    1    2    0    0 -0.17415317083E-01 -0.14126157663E-01  0.70259446328E-02  0.10204309469E+01  0.10201603363E+01 0.  0.
     999903    2    3    3    0    0  0.65169296197E-01 -0.95993962454E-01  0.57768098612E-01  0.13133178368E+00  0.21189766251E-01 0.  0.
         14    1    1    2    0    0  0.17415317083E-01  0.14126157663E-01 -0.70259446328E-02  0.23499053117E-01  0.00000000000E+00 0. -1.
     999901    1    3    3    0    0 -0.82584613280E-01  0.81867804790E-01 -0.50742153979E-01  0.88909916320E+00  0.88000000000E+00 0.  1.
        -11    1    4    4    0    0  0.51022352538E-01 -0.73377214948E-01  0.34077978095E-01  0.95650749313E-01  0.51100000000E-03 0.  1.
         11    1    4    4    0    0  0.14146943659E-01 -0.22616747505E-01  0.23690120517E-01  0.35681034370E-01  0.51100000000E-03 0. -1.
</event>
<event>
 8    1  0.5489035E+004  0.1043930E+01  0.7957747E-01            NaN
         13   -1    0    0    0    0  0.00000000000E+00  0.00000000000E+00  0.74505805969E-08  0.10566000000E+00  0.10566000000E+00 0.  1.
     999900   -1    0    0    0    0 -0.00000000000E+00 -0.00000000000E+00 -0.74505805969E-08  0.93827000000E+00  0.93827000000E+00 0. -1.
     999902    2    1    2    0    0  0.26925808022E-02 -0.67782922889E-02  0.22461296171E-01  0.10203142200E+01  0.10200408828E+01 0.  0.
     999903    2    3    3    0    0 -0.53287688198E-01 -0.70967952576E-01  0.97192981586E-01  0.13304936228E+00  0.19484073659E-01 0.  0.
         14    1    1    2    0    0 -0.26925808022E-02  0.67782922889E-02 -0.22461296171E-01  0.23615779966E-01  0.00000000000E+00 0. -1.
     999901    1    3    3    0    0  0.55980269001E-01  0.64189660287E-01 -0.74731685414E-01  0.88726485776E+00  0.88000000000E+00 0.  1.
        -11    1    4    4    0    0 -0.17908148291E-01 -0.17520631029E-01  0.39686164120E-01  0.46935349476E-01  0.51100000000E-03 0. -1.
         11    1    4    4    0    0 -0.35379539908E-01 -0.53447321547E-01  0.57506817466E-01  0.86114012801E-01  0.51100000000E-03 0.  1.
</event>
<event>
 8    1  0.5489035E+004  0.1043930E+01  0.7957747E-01            NaN
         13   -1    0    0    0    0  0.00000000000E+00  0.00000000000E+00  0.74505805969E-08  0.10566000000E+00  0.10566000000E+00 0. -1.
     999900   -1    0    0    0    0 -0.00000000000E+00 -0.00000000000E+00 -0.74505805969E-08  0.93827000000E+00  0.93827000000E+00 0. -1.
     999902    2    1    2    0    0 -0.21216941367E-02  0.22691831901E-01  0.36454016037E-02  0.10208494936E+01  0.10205885453E+01 0.  0.
     999903    2    3    3    0    0 -0.12811510173E+00 -0.18293002118E-01 -0.11937845569E-02  0.13091830917E+00  0.19750071779E-01 0.  0.
         14    1    1    2    0    0  0.21216941367E-02 -0.22691831901E-01 -0.36454016037E-02  0.23080506361E-01  0.00000000000E+00 0. -1.
     999901    1    3    3    0    0  0.12599340759E+00  0.40984834019E-01  0.48391861606E-02  0.88993118447E+00  0.88000000000E+00 0. -1.
        -11    1    4    4    0    0 -0.88404870167E-01 -0.33573966095E-02  0.76563519884E-04  0.88470108874E-01  0.51100000000E-03 0.  1.
         11    1    4    4    0    0 -0.39710231563E-01 -0.14935605509E-01 -0.12703480768E-02  0.42448200291E-01  0.51100000000E-03 0. -1.
</event>
<event>
 8    1  0.5489035E+004  0.1043930E+01  0.7957747E-01            NaN
         13   -1    0    0    0    0  0.00000000000E+00  0.00000000000E+00  0.74505805969E-08  0.10566000000E+00  0.10566000000E+00 0. -1.
     999900   -1    0    0    0    0 -0.00000000000E+00 -0.00000000000E+00 -0.74505805969E-08  0.93827000000E+00  0.93827000000E+00 0. -1.
     999902    2    1    2    0    0  0.24195267572E-01  0.20502906944E-02  0.21837612005E-02  0.10195500189E+01  0.10192584842E+01 0.  0.
     999903    2    3    3    0    0  0.90192754249E-01 -0.79214106630E-01  0.51231017266E-01  0.13198863859E+00  0.19666620902E-01 0.  0.
         14    1    1    2    0    0 -0.24195267572E-01 -0.20502906944E-02 -0.21837612005E-02  0.24379981087E-01  0.00000000000E+00 0.  1.
     999901    1    3    3    0    0 -0.65997486677E-01  0.81264397324E-01 -0.49047256065E-01  0.88756138033E+00  0.88000000000E+00 0.  1.
        -11    1    4    4    0    0  0.45872985946E-01 -0.49554923892E-01  0.35995916083E-01  0.76524430199E-01  0.51100000000E-03 0.  1.
         11    1    4    4    0    0  0.44319768302E-01 -0.29659182738E-01  0.15235101183E-01  0.55464208388E-01  0.51100000000E-03 0. -1.
</event>
<event>
 8    1  0.5489035E+004  0.1043930E+01  0.7957747E-01            NaN
         13   -1    0    0    0    0  0.00000000000E+00  0.00000000000E+00  0.74505805969E-08  0.10566000000E+00  0.10566000000E+00 0.  1.
     999900   -1    0    0    0    0 -0.00000000000E+00 -0.00000000000E+00 -0.74505805969E-08  0.93827000000E+00  0.93827000000E+00 0. -1.
     999902    2    1    2    0    0 -0.13580696047E-02 -0.13823545874E-01  0.18958582985E-01  0.10204276035E+01  0.10201569150E+01 0.  0.
     999903    2    3    3    0    0 -0.16405915712E-01  0.12292566648E+00 -0.26588948378E-01  0.12857483403E+00  0.21086541234E-01 0.  0.
         14    1    1    2    0    0  0.13580696047E-02  0.13823545874E-01 -0.18958582985E-01  0.23502396524E-01  0.00000000000E+00 0. -1.
     999901    1    3    3    0    0  0.15047846107E-01 -0.13674921235E+00  0.45547531363E-01  0.89185276944E+00  0.88000000000E+00 0.  1.
        -11    1    4    4    0    0 -0.15240901076E-01  0.63253303081E-01 -0.56003992247E-02  0.65306133010E-01  0.51100000000E-03 0. -1.
         11    1    4    4    0    0 -0.11650146353E-02  0.59672363396E-01 -0.20988549153E-01  0.63268701022E-01  0.51100000000E-03 0.  1.
</event>
<event>
 8    1  0.5489035E+004  0.1043930E+01  0.7957747E-01            NaN
         13   -1    0    0    0    0  0.00000000000E+00  0.00000000000E+00  0.74505805969E-08  0.10566000000E+00  0.10566000000E+00 0.  1.
     999900   -1    0    0    0    0 -0.00000000000E+00 -0.00000000000E+00 -0.74505805969E-08  0.93827000000E+00  0.93827000000E+00 0. -1.
     999902    2    1    2    0    0 -0.21453132998E-01  0.44829952609E-02  0.29677295925E-02  0.10218134546E+01  0.10215740768E+01 0.  0.
     999903    2    3    3    0    0  0.60757380983E-01 -0.51416681906E-01 -0.10079522227E+00  0.13015763944E+00  0.21123440744E-01 0.  0.
         14    1    1    2    0    0  0.21453132998E-01 -0.44829952609E-02 -0.29677295925E-02  0.22116545410E-01  0.00000000000E+00 0.  1.
     999901    1    3    3    0    0 -0.82210513980E-01  0.55899677167E-01  0.10376295187E+00  0.89165581515E+00  0.88000000000E+00 0. -1.
        -11    1    4    4    0    0  0.49847217941E-01 -0.42157582700E-01 -0.67464422817E-01  0.93881395295E-01  0.51100000000E-03 0. -1.
         11    1    4    4    0    0  0.10910163042E-01 -0.92590992052E-02 -0.33330799456E-01  0.36276244142E-01  0.51100000000E-03 0.  1.
</event>
<event>
 8    1  0.5489035E+004  0.1043930E+01  0.7957747E-01            NaN
         13   -1    0    0    0    0  0.00000000000E+00  0.00000000000E+00  0.74505805969E-08  0.10566000000E+00  0.10566000000E+00 0. -1.
     999900   -1    0    0    0    0 -0.00000000000E+00 -0.00000000000E+00 -0.74505805969E-08  0.93827000000E+00  0.93827000000E+00 0. -1.
     999902    2    1    2    0    0  0.11222740517E-01  0.16709089437E-01  0.12154078473E-01  0.10204169143E+01  0.10201459767E+01 0.  0.
     999903    2    3    3    0    0  0.19293911498E-01 -0.55032328055E-01  0.11594133465E+00  0.13138161169E+00  0.20443156759E-01 0.  0.
         14    1    1    2    0    0 -0.11222740517E-01 -0.16709089437E-01 -0.12154078473E-01  0.23513085677E-01  0.00000000000E+00 0. -1.
     999901    1    3    3    0    0 -0.80711709812E-02  0.71741417492E-01 -0.10378725617E+00  0.88903530263E+00  0.88000000000E+00 0. -1.
        -11    1    4    4    0    0 -0.20949348581E-02 -0.88888858157E-02  0.31539919079E-01  0.32839437566E-01  0.51100000000E-03 0.  1.
         11    1    4    4    0    0  0.21388846356E-01 -0.46143442240E-01  0.84401415568E-01  0.98542174124E-01  0.51100000000E-03 0. -1.
</event>
<event>
 8    1  0.5489035E+004  0.1043930E+01  0.7957747E-01            NaN
         13   -1    0    0    0    0  0.00000000000E+00  0.00000000000E+00  0.74505805969E-08  0.10566000000E+00  0.10566000000E+00 0.  1.
     999900   -1    0    0    0    0 -0.00000000000E+00 -0.00000000000E+00 -0.74505805969E-08  0.93827000000E+00  0.93827000000E+00 0. -1.
     999902    2    1    2    0    0  0.68498896092E-03 -0.23710617189E-01 -0.45957994640E-02  0.10197683786E+01  0.10194821048E+01 0.  0.
     999903    2    3    3    0    0 -0.79792674496E-02 -0.12933707051E+00 -0.23203040899E-01  0.13321423673E+00  0.20393755032E-01 0.  0.
         14    1    1    2    0    0 -0.68498896092E-03  0.23710617189E-01  0.45957994640E-02  0.24161621429E-01  0.00000000000E+00 0. -1.
     999901    1    3    3    0    0  0.86642564105E-02  0.10562645332E+00  0.18607241435E-01  0.88655414184E+00  0.88000000000E+00 0. -1.
        -11    1    4    4    0    0  0.69166383168E-04 -0.96881980728E-01 -0.10540020800E-01  0.97454995425E-01  0.51100000000E-03 0. -1.
         11    1    4    4    0    0 -0.80484338327E-02 -0.32455089780E-01 -0.12663020099E-01  0.35759241306E-01  0.51100000000E-03 0.  1.
</event>
<event>
 8    1  0.5489035E+004  0.1043930E+01  0.7957747E-01            NaN
         13   -1    0    0    0    0  0.00000000000E+00  0.00000000000E+00  0.74505805969E-08  0.10566000000E+00  0.10566000000E+00 0.  1.
     999900   -1    0    0    0    0 -0.00000000000E+00 -0.00000000000E+00 -0.74505805969E-08  0.93827000000E+00  0.93827000000E+00 0. -1.
     999902    2    1    2    0    0  0.22351701636E-02  0.18281672170E-03  0.23648213078E-01  0.10201756869E+01  0.10198990954E+01 0.  0.
     999903    2    3    3    0    0  0.29963947083E-01  0.71524890311E-02 -0.12345490659E+00  0.12750733350E+00  0.82468122357E-02 0.  0.
         14    1    1    2    0    0 -0.22351701636E-02 -0.18281672170E-03 -0.23648213078E-01  0.23754313070E-01  0.00000000000E+00 0. -1.
     999901    1    3    3    0    0 -0.27728776919E-01 -0.69696723094E-02  0.14710311966E+00  0.89266835343E+00  0.88000000000E+00 0.  1.
        -11    1    4    4    0    0  0.18563588847E-01  0.61656335814E-03 -0.78445408630E-01  0.80615942824E-01  0.51100000000E-03 0. -1.
         11    1    4    4    0    0  0.11400358236E-01  0.65359256730E-02 -0.45009497955E-01  0.46891390675E-01  0.51100000000E-03 0.  1.
</event>
<event>
 8    1  0.5489035E+004  0.1043930E+01  0.7957747E-01            NaN
         13   -1    0    0    0    0  0.00000000000E+00  0.00000000000E+00  0.74505805969E-08  0.10566000000E+00  0.10566000000E+00 0.  1.
     999900   -1    0    0    0    0 -0.00000000000E+00 -0.00000000000E+00 -0.74505805969E-08  0.93827000000E+00  0.93827000000E+00 0.  1.
     999902    2    1    2    0    0  0.58249685463E-02 -0.21958691693E-02 -0.22817660902E-01  0.10202784092E+01  0.10200042326E+01 0.  0.
     999903    2    3    3    0    0  0.11666487089E+00 -0.25006997528E-01 -0.53421971655E-01  0.13250453291E+00  0.21621798280E-01 0.  0.
         14    1    1    2    0    0 -0.58249685463E-02  0.21958691693E-02  0.22817660902E-01  0.23651590835E-01  0.00000000000E+00 0.  1.
     999901    1    3    3    0    0 -0.11083990234E+00  0.22811128359E-01  0.30604310754E-01  0.88777387626E+00  0.88000000000E+00 0. -1.
        -11    1    4    4    0    0  0.58293418088E-01 -0.60429793672E-02 -0.35680775342E-01  0.68615005954E-01  0.51100000000E-03 0.  1.
         11    1    4    4    0    0  0.58371452800E-01 -0.18964018161E-01 -0.17741196314E-01  0.63889526954E-01  0.51100000000E-03 0. -1.
</event>
<event>
 8    1  0.5489035E+004  0.1043930E+01  0.7957747E-01            NaN
         13   -1    0    0    0    0  0.00000000000E+00  0.00000000000E+00  0.74505805969E-08  0.10566000000E+00  0.10566000000E+00 0.  1.
     999900   -1    0    0    0    0 -0.00000000000E+00 -0.00000000000E+00 -0.74505805969E-08  0.93827000000E+00  0.93827000000E+00 0.  1.
     999902    2    1    2    0    0  0.16191255214E-01  0.97059952338E-02  0.14359511462E-01  0.10202116810E+01  0.10199359369E+01 0.  0.
     999903    2    3    3    0    0 -0.13926597343E-01  0.89923778217E-01 -0.90376831891E-01  0.12986810718E+00  0.20433245375E-01 0.  0.
         14    1    1    2    0    0 -0.16191255214E-01 -0.97059952338E-02 -0.14359511462E-01  0.23718319045E-01  0.00000000000E+00 0. -1.
     999901    1    3    3    0    0  0.30117852556E-01 -0.80217782984E-01  0.10473634335E+00  0.89034357378E+00  0.88000000000E+00 0. -1.
        -11    1    4    4    0    0 -0.45121589004E-02  0.59269052634E-01 -0.46243073449E-01  0.75311772925E-01  0.51100000000E-03 0.  1.
         11    1    4    4    0    0 -0.94144384421E-02  0.30654725584E-01 -0.44133758443E-01  0.54556334252E-01  0.51100000000E-03 0. -1.
</event>
<event>
 8    1  0.5489035E+004  0.1043930E+01  0.7957747E-01            NaN
         13   -1    0    0    0    0  0.00000000000E+00  0.00000000000E+00  0.74505805969E-08  0.10566000000E+00  0.10566000000E+00 0.  1.
     999900   -1    0    0    0    0 -0.00000000000E+00 -0.00000000000E+00 -0.74505805969E-08  0.93827000000E+00  0.93827000000E+00 0.  1.
     999902    2    1    2    0    0 -0.14714314425E-01 -0.24829093035E-02  0.16313288644E-01  0.10218211947E+01  0.10215819862E+01 0.  0.
     999903    2    3    3    0    0  0.98232280096E-01 -0.83643871994E-01 -0.51677638226E-02  0.13063913093E+00  0.19849397285E-01 0.  0.
         14    1    1    2    0    0  0.14714314425E-01  0.24829093035E-02 -0.16313288644E-01  0.22108805350E-01  0.00000000000E+00 0. -1.
     999901    1    3    3    0    0 -0.11294659452E+00  0.81160962690E-01  0.21481052467E-01  0.89118206372E+00  0.88000000000E+00 0.  1.
        -11    1    4    4    0    0  0.64724662128E-01 -0.65876931013E-01  0.32581385433E-04  0.92354285823E-01  0.51100000000E-03 0. -1.
         11    1    4    4    0    0  0.33507617968E-01 -0.17766940981E-01 -0.52003452080E-02  0.38284845109E-01  0.51100000000E-03 0.  1.
</event>
<event>
 8    1  0.5489035E+004  0.1043930E+01  0.7957747E-01            NaN
         13   -1    0    0    0    0  0.00000000000E+00  0.00000000000E+00  0.74505805969E-08  0.10566000000E+00  0.10566000000E+00 0.  1.
     999900   -1    0    0    0    0 -0.00000000000E+00 -0.00000000000E+00 -0.74505805969E-08  0.93827000000E+00  0.93827000000E+00 0. -1.
     999902    2    1    2    0    0  0.18946107090E-02 -0.16023742263E-01 -0.18188357367E-01  0.10196160902E+01  0.10193261525E+01 0.  0.
     999903    2    3    3    0    0 -0.67655747484E-01  0.91450225107E-01 -0.58555361372E-01  0.12943779290E+00  0.19620602551E-01 0.  0.
         14    1    1    2    0    0 -0.18946107090E-02  0.16023742263E-01  0.18188357367E-01  0.24313909796E-01  0.00000000000E+00 0.  1.
     999901    1    3    3    0    0  0.69550358193E-01 -0.10747396737E+00  0.40367004005E-01  0.89017829731E+00  0.88000000000E+00 0. -1.
        -11    1    4    4    0    0 -0.29717505482E-01  0.36453395420E-01 -0.34864408704E-01  0.58547145832E-01  0.51100000000E-03 0.  1.
         11    1    4    4    0    0 -0.37938242002E-01  0.54996829687E-01 -0.23690952668E-01  0.70890647063E-01  0.51100000000E-03 0. -1.
</event>
<event>
 8    1  0.5489035E+004  0.1043930E+01  0.7957747E-01            NaN
         13   -1    0    0    0    0  0.00000000000E+00  0.00000000000E+00  0.74505805969E-08  0.10566000000E+00  0.10566000000E+00 0.  1.
     999900   -1    0    0    0    0 -0.00000000000E+00 -0.00000000000E+00 -0.74505805969E-08  0.93827000000E+00  0.93827000000E+00 0.  1.
     999902    2    1    2    0    0 -0.14008300929E-01 -0.16472237913E-01 -0.91789615777E-02  0.10204391411E+01  0.10201687214E+01 0.  0.
     999903    2    3    3    0    0 -0.54976776546E-01  0.10207094388E+00 -0.56384364423E-01  0.13029350581E+00  0.18875316171E-01 0.  0.
         14    1    1    2    0    0  0.14008300929E-01  0.16472237913E-01  0.91789615777E-02  0.23490858912E-01  0.00000000000E+00 0.  1.
     999901    1    3    3    0    0  0.40968475617E-01 -0.11854318180E+00  0.47205402845E-01  0.89014563528E+00  0.88000000000E+00 0.  1.
        -11    1    4    4    0    0 -0.10650560482E-01  0.12663290628E-01 -0.20901946490E-02  0.16686024175E-01  0.51100000000E-03 0. -1.
         11    1    4    4    0    0 -0.44326216064E-01  0.89407653256E-01 -0.54294169774E-01  0.11360748164E+00  0.51100000000E-03 0.  1.
</event>
<event>
 8    1  0.5489035E+004  0.1043930E+01  0.7957747E-01            NaN
         13   -1    0    0    0    0  0.00000000000E+00  0.00000000000E+00  0.74505805969E-08  0.10566000000E+00  0.10566000000E+00 0. -1.
     999900   -1    0    0    0    0 -0.00000000000E+00 -0.00000000000E+00 -0.74505805969E-08  0.93827000000E+00  0.93827000000E+00 0.  1.
     999902    2    1    2    0    0  0.15599233649E-01 -0.15357152707E-01 -0.11838450852E-01  0.10190437157E+01  0.10187397937E+01 0.  0.
     999903    2    3    3    0    0  0.10356000620E+00 -0.99392755016E-02 -0.78899397901E-01  0.13210311927E+00  0.20066266471E-01 0.  0.
         14    1    1    2    0    0 -0.15599233649E-01  0.15357152707E-01  0.11838450852E-01  0.24886284341E-01  0.00000000000E+00 0.  1.
     999901    1    3    3    0    0 -0.87960772552E-01 -0.54178772059E-02  0.67060947049E-01  0.88694059639E+00  0.88000000000E+00 0. -1.
        -11    1    4    4    0    0  0.39114893122E-01  0.59146054395E-02 -0.28168211490E-01  0.48566106299E-01  0.51100000000E-03 0.  1.
         11    1    4    4    0    0  0.64445113079E-01 -0.15853880941E-01 -0.50731186412E-01  0.83537012973E-01  0.51100000000E-03 0. -1.
</event>
<event>
 8    1  0.5489035E+004  0.1043930E+01  0.7957747E-01            NaN
         13   -1    0    0    0    0  0.00000000000E+00  0.00000000000E+00  0.74505805969E-08  0.10566000000E+00  0.10566000000E+00 0. -1.
     999900   -1    0    0    0    0 -0.00000000000E+00 -0.00000000000E+00 -0.74505805969E-08  0.93827000000E+00  0.93827000000E+00 0. -1.
     999902    2    1    2    0    0 -0.16154364361E-02  0.21095286889E-01 -0.92833123347E-02  0.10208258737E+01  0.10205643849E+01 0.  0.
     999903    2    3    3    0    0 -0.57628372480E-01  0.94257997176E-01  0.70230638520E-01  0.13244943347E+00  0.20122387890E-01 0.  0.
         14    1    1    2    0    0  0.16154364361E-02 -0.21095286889E-01  0.92833123347E-02  0.23104126292E-01  0.00000000000E+00 0.  1.
     999901    1    3    3    0    0  0.56012936044E-01 -0.73162710287E-01 -0.79513950855E-01  0.88837644023E+00  0.88000000000E+00 0. -1.
        -11    1    4    4    0    0 -0.35691124601E-01  0.74136093314E-01  0.55344174148E-01  0.99162772452E-01  0.51100000000E-03 0. -1.
         11    1    4    4    0    0 -0.21937247880E-01  0.20121903862E-01  0.14886464372E-01  0.33286661023E-01  0.51100000000E-03 0.  1.
</event>
<event>
 8    1  0.5489035E+004  0.1043930E+01  0.7957747E-01            NaN
         13   -1    0    0    0    0  0.00000000000E+00  0.00000000000E+00  0.74505805969E-08  0.10566000000E+00  0.10566000000E+00 0. -1.
     999900   -1    0    0    0    0 -0.00000000000E+00 -0.00000000000E+00 -0.74505805969E-08  0.93827000000E+00  0.93827000000E+00 0.  1.
     999902    2    1    2    0    0 -0.55712613282E-02  0.21582352850E-01  0.12248250995E-01  0.10184966251E+01  0.10181790210E+01 0.  0.
     999903    2    3    3    0    0  0.26988728618E-01 -0.47257481048E-01  0.11545904573E+00  0.12919828154E+00  0.19993592103E-01 0.  0.
         14    1    1    2    0    0  0.55712613282E-02 -0.21582352850E-01 -0.12248250995E-01  0.25433374919E-01  0.00000000000E+00 0.  1.
     999901    1    3    3    0    0 -0.32559989946E-01  0.68839833898E-01 -0.10321079473E+00  0.88929834354E+00  0.88000000000E+00 0.  1.
        -11    1    4    4    0    0  0.15229797479E-01 -0.16851287444E-01  0.67373214102E-01  0.71100799709E-01  0.51100000000E-03 0. -1.
         11    1    4    4    0    0  0.11758931139E-01 -0.30406193605E-01  0.48085831625E-01  0.58097481831E-01  0.51100000000E-03 0.  1.
</event>
<event>
 8    1  0.5489035E+004  0.1043930E+01  0.7957747E-01            NaN
         13   -1    0    0    0    0  0.00000000000E+00  0.00000000000E+00  0.74505805969E-08  0.10566000000E+00  0.10566000000E+00 0.  1.
     999900   -1    0    0    0    0 -0.00000000000E+00 -0.00000000000E+00 -0.74505805969E-08  0.93827000000E+00  0.93827000000E+00 0.  1.
     999902    2    1    2    0    0 -0.10422940983E-01 -0.19249056297E-02  0.21168919210E-01  0.10202558347E+01  0.10199811284E+01 0.  0.
     999903    2    3    3    0    0  0.38564389056E-01 -0.56620740756E-01  0.11237896738E+00  0.13249986276E+00  0.15299050146E-01 0.  0.
         14    1    1    2    0    0  0.10422940983E-01  0.19249056297E-02 -0.21168919210E-01  0.23674165264E-01  0.00000000000E+00 0. -1.
     999901    1    3    3    0    0 -0.48987330040E-01  0.54695835126E-01 -0.91210048172E-01  0.88775597197E+00  0.88000000000E+00 0.  1.
        -11    1    4    4    0    0  0.25139848524E-01 -0.34123396089E-01  0.55148890702E-01  0.69556303892E-01  0.51100000000E-03 0.  1.
         11    1    4    4    0    0  0.13424540533E-01 -0.22497344667E-01  0.57230076680E-01  0.62943558872E-01  0.51100000000E-03 0. -1.
</event>
<event>
 8    1  0.5489035E+004  0.1043930E+01  0.7957747E-01            NaN
         13   -1    0    0    0    0  0.00000000000E+00  0.00000000000E+00  0.74505805969E-08  0.10566000000E+00  0.10566000000E+00 0. -1.
     999900   -1    0    0    0    0 -0.00000000000E+00 -0.00000000000E+00 -0.74505805969E-08  0.93827000000E+00  0.93827000000E+00 0. -1.
     999902    2    1    2    0    0 -0.97616592625E-02  0.10723917213E-01  0.19413421189E-01  0.10196983407E+01  0.10194103848E+01 0.  0.
     999903    2    3    3    0    0  0.12430569513E+00  0.97287924248E-02 -0.23615592201E-01  0.12850445503E+00  0.20227296525E-01 0.  0.
         14    1    1    2    0    0  0.97616592625E-02 -0.10723917213E-01 -0.19413421189E-01  0.24231659337E-01  0.00000000000E+00 0.  1.
     999901    1    3    3    0    0 -0.13406735439E+00  0.99512478862E-03  0.43029013390E-01  0.89119388563E+00  0.88000000000E+00 0.  1.
        -11    1    4    4    0    0  0.67914822241E-01 -0.24769348730E-02 -0.19275358717E-01  0.70642472076E-01  0.51100000000E-03 0.  1.
         11    1    4    4    0    0  0.56390872890E-01  0.12205727298E-01 -0.43402334839E-02  0.57861982959E-01  0.51100000000E-03 0. -1.
</event>
<event>
 8    1  0.5489035E+004  0.1043930E+01  0.7957747E-01            NaN
         13   -1    0    0    0    0  0.00000000000E+00  0.00000000000E+00  0.74505805969E-08  0.10566000000E+00  0.10566000000E+00 0.  1.
     999900   -1    0    0    0    0 -0.00000000000E+00 -0.00000000000E+00 -0.74505805969E-08  0.93827000000E+00  0.93827000000E+00 0.  1.
     999902    2    1    2    0    0 -0.23570683036E-01 -0.32304134543E-02  0.54338821671E-02  0.10195263170E+01  0.10192342082E+01 0.  0.
     999903    2    3    3    0    0  0.64376044352E-01 -0.10879161111E+00 -0.13460957549E-01  0.12866448241E+00  0.19835874647E-01 0.  0.
         14    1    1    2    0    0  0.23570683036E-01  0.32304134543E-02 -0.54338821671E-02  0.24403683027E-01  0.00000000000E+00 0. -1.
     999901    1    3    3    0    0 -0.87946727388E-01  0.10556119765E+00  0.18894839716E-01  0.89086183456E+00  0.88000000000E+00 0.  1.
        -11    1    4    4    0    0  0.35126017170E-01 -0.77653169726E-01 -0.94217667432E-02  0.85748951366E-01  0.51100000000E-03 0. -1.
         11    1    4    4    0    0  0.29250027182E-01 -0.31138441379E-01 -0.40391908055E-02  0.42915531047E-01  0.51100000000E-03 0.  1.
</event>
<event>
 8    1  0.5489035E+004  0.1043930E+01  0.7957747E-01            NaN
         13   -1    0    0    0    0  0.00000000000E+00  0.00000000000E+00  0.74505805969E-08  0.10566000000E+00  0.10566000000E+00 0. -1.
     999900   -1    0    0    0    0 -0.00000000000E+00 -0.00000000000E+00 -0.74505805969E-08  0.93827000000E+00  0.93827000000E+00 0.  1.
     999902    2    1    2    0    0  0.36821853638E-02  0.15608124338E-01 -0.17548860865E-01  0.10201574412E+01  0.10198804196E+01 0.  0.
     999903    2    3    3    0    0 -0.10243172150E-01  0.86855795350E-01 -0.98644409464E-01  0.13345194657E+00  0.20732842596E-01 0.  0.
         14    1    1    2    0    0 -0.36821853638E-02 -0.15608124338E-01  0.17548860865E-01  0.23772558803E-01  0.00000000000E+00 0. -1.
     999901    1    3    3    0    0  0.13925357514E-01 -0.71247671012E-01  0.81095548599E-01  0.88670549463E+00  0.88000000000E+00 0. -1.
        -11    1    4    4    0    0 -0.10639493721E-01  0.50170262787E-01 -0.43690519457E-01  0.67374896706E-01  0.51100000000E-03 0.  1.
         11    1    4    4    0    0  0.39632157154E-03  0.36685532563E-01 -0.54953890007E-01  0.66077049859E-01  0.51100000000E-03 0. -1.
</event>
<event>
 8    1  0.5489035E+004  0.1043930E+01  0.7957747E-01            NaN
         13   -1    0    0    0    0  0.00000000000E+00  0.00000000000E+00  0.74505805969E-08  0.10566000000E+00  0.10566000000E+00 0. -1.
     999900   -1    0    0    0    0 -0.00000000000E+00 -0.00000000000E+00 -0.74505805969E-08  0.93827000000E+00  0.93827000000E+00 0. -1.
     999902    2    1    2    0    0 -0.95614525941E-03 -0.68223012696E-02  0.22518565566E-01  0.10203812462E+01  0.10201094764E+01 0.  0.
     999903    2    3    3    0    0  0.59268314867E-01 -0.11571261017E+00  0.28957310720E-02  0.13141041399E+00  0.18925388918E-01 0.  0.
         14    1    1    2    0    0  0.95614525941E-03  0.68223012696E-02 -0.22518565566E-01  0.23548753757E-01  0.00000000000E+00 0.  1.
     999901    1    3    3    0    0 -0.60224460126E-01  0.10889030890E+00  0.19622834494E-01  0.88897083226E+00  0.88000000000E+00 0. -1.
        -11    1    4    4    0    0  0.33279090768E-01 -0.49649696743E-01  0.76370547635E-02  0.60259239918E-01  0.51100000000E-03 0.  1.
         11    1    4    4    0    0  0.25989224098E-01 -0.66062913428E-01 -0.47413236916E-02  0.71151174068E-01  0.51100000000E-03 0. -1.
</event>
<event>
 8    1  0.5489035E+004  0.1043930E+01  0.7957747E-01            NaN
         13   -1    0    0    0    0  0.00000000000E+00  0.00000000000E+00  0.74505805969E-08  0.10566000000E+00  0.10566000000E+00 0. -1.
     999900   -1    0    0    0    0 -0.00000000000E+00 -0.00000000000E+00 -0.74505805969E-08  0.93827000000E+00  0.93827000000E+00 0.  1.
     999902    2    1    2    0    0  0.12379173226E-01 -0.64845355207E-02 -0.18691223543E-01  0.10205921559E+01  0.10203252882E+01 0.  0.
     999903    2    3    3    0    0 -0.73769930617E-01  0.99347953030E-01 -0.35381204675E-01  0.12991783875E+00  0.17742512402E-01 0.  0.
         14    1    1    2    0    0 -0.12379173226E-01  0.64845355207E-02  0.18691223543E-01  0.23337844121E-01  0.00000000000E+00 0. -1.
     999901    1    3    3    0    0  0.86149103843E-01 -0.10583248855E+00  0.16689981132E-01  0.89067431713E+00  0.88000000000E+00 0.  1.
        -11    1    4    4    0    0 -0.44462313643E-01  0.66426093676E-01 -0.14898724256E-01  0.81311477425E-01  0.51100000000E-03 0. -1.
         11    1    4    4    0    0 -0.29307616974E-01  0.32921859354E-01 -0.20482480419E-01  0.48606361324E-01  0.51100000000E-03 0.  1.
</event>
<event>
 8    1  0.5489035E+004  0.1043930E+01  0.7957747E-01            NaN
         13   -1    0    0    0    0  0.00000000000E+00  0.00000000000E+00  0.74505805969E-08  0.10566000000E+00  0.10566000000E+00 0.  1.
     999900   -1    0    0    0    0 -0.00000000000E+00 -0.00000000000E+00 -0.74505805969E-08  0.93827000000E+00  0.93827000000E+00 0. -1.
     999902    2    1    2    0    0  0.32230160204E-02  0.21864090469E-01 -0.76492278197E-02  0.10205433164E+01  0.10202753176E+01 0.  0.
     999903    2    3    3    0    0 -0.40924943367E-01 -0.47353334763E-01  0.11097663209E+00  0.12879660968E+00  0.18856417821E-01 0.  0.
         14    1    1    2    0    0 -0.32230160204E-02 -0.21864090469E-01  0.76492278197E-02  0.23386683616E-01  0.00000000000E+00 0.  1.
     999901    1    3    3    0    0  0.44147959387E-01  0.69217425232E-01 -0.11862585991E+00  0.89174670670E+00  0.88000000000E+00 0. -1.
        -11    1    4    4    0    0 -0.23449291288E-01 -0.39301708208E-01  0.71799917659E-01  0.85146830985E-01  0.51100000000E-03 0. -1.
         11    1    4    4    0    0 -0.17475652078E-01 -0.80516265546E-02  0.39176714431E-01  0.43649778698E-01  0.51100000000E-03 0.  1.
</event>
<event>
 8    1  0.5489035E+004  0.1043930E+01  0.7957747E-01            NaN
         13   -1    0    0    0    0  0.00000000000E+00  0.00000000000E+00  0.74505805969E-08  0.10566000000E+00  0.10566000000E+00 0. -1.
     999900   -1    0    0    0    0 -0.00000000000E+00 -0.00000000000E+00 -0.74505805969E-08  0.93827000000E+00  0.93827000000E+00 0.  1.
     999902    2    1    2    0    0 -0.20178348130E-01  0.10042586962E-01 -0.59839417095E-02  0.10206099047E+01  0.10203434474E+01 0.  0.
     999903    2    3    3    0    0 -0.15387495354E-01  0.66301098133E-01  0.10857530149E+00  0.13139013853E+00  0.29020023849E-01 0.  0.
         14    1    1    2    0    0  0.20178348130E-01 -0.10042586962E-01  0.59839417095E-02  0.23320095294E-01  0.00000000000E+00 0. -1.
     999901    1    3    3    0    0 -0.47908527762E-02 -0.56258511170E-01 -0.11455924320E+00  0.88921976617E+00  0.88000000000E+00 0.  1.
        -11    1    4    4    0    0 -0.18908084126E-01  0.63075258885E-01  0.86031869153E-01  0.10834088591E+00  0.51100000000E-03 0. -1.
         11    1    4    4    0    0  0.35205887722E-02  0.32258392475E-02  0.22543432333E-01  0.23049252624E-01  0.51100000000E-03 0.  1.
</event>
<event>
 8    1  0.5489035E+004  0.1043930E+01  0.7957747E-01            NaN
         13   -1    0    0    0    0  0.00000000000E+00  0.00000000000E+00  0.74505805969E-08  0.10566000000E+00  0.10566000000E+00 0.  1.
     999900   -1    0    0    0    0 -0.00000000000E+00 -0.00000000000E+00 -0.74505805969E-08  0.93827000000E+00  0.93827000000E+00 0.  1.
     999902    2    1    2    0    0  0.16607755204E-01  0.16615505793E-01  0.42611505330E-03  0.10204337420E+01  0.10201631966E+01 0.  0.
     999903    2    3    3    0    0  0.12908053762E+00  0.82922064476E-02 -0.23271754777E-01  0.13291980232E+00  0.19888524327E-01 0.  0.
         14    1    1    2    0    0 -0.16607755204E-01 -0.16615505793E-01 -0.42611505330E-03  0.23496257994E-01  0.00000000000E+00 0. -1.
     999901    1    3    3    0    0 -0.11247278241E+00  0.83232993454E-02  0.23697869830E-01  0.88751393968E+00  0.88000000000E+00 0. -1.
        -11    1    4    4    0    0  0.70688763906E-01  0.46441228628E-02 -0.26785862682E-02  0.70893618648E-01  0.51100000000E-03 0.  1.
         11    1    4    4    0    0  0.58391773712E-01  0.36480835848E-02 -0.20593168509E-01  0.62026183675E-01  0.51100000000E-03 0. -1.
</event>
<event>
 8    1  0.5489035E+004  0.1043930E+01  0.7957747E-01            NaN
         13   -1    0    0    0    0  0.00000000000E+00  0.00000000000E+00  0.74505805969E-08  0.10566000000E+00  0.10566000000E+00 0. -1.
     999900   -1    0    0    0    0 -0.00000000000E+00 -0.00000000000E+00 -0.74505805969E-08  0.93827000000E+00  0.93827000000E+00 0.  1.
     999902    2    1    2    0    0 -0.19617647678E-01  0.91869695451E-02 -0.87269646018E-02  0.10205759335E+01  0.10203086904E+01 0.  0.
     999903    2    3    3    0    0  0.58273961530E-01  0.56977616118E-01 -0.10064959598E+00  0.13108123492E+00  0.20239704703E-01 0.  0.
         14    1    1    2    0    0  0.19617647678E-01 -0.91869695451E-02  0.87269646018E-02  0.23354066477E-01  0.00000000000E+00 0. -1.
     999901    1    3    3    0    0 -0.77891609208E-01 -0.47790646573E-01  0.91922631377E-01  0.88949469860E+00  0.88000000000E+00 0. -1.
        -11    1    4    4    0    0  0.39045078510E-01  0.31392447170E-01 -0.74335988666E-01  0.89644320663E-01  0.51100000000E-03 0. -1.
         11    1    4    4    0    0  0.19228883021E-01  0.25585168948E-01 -0.26313607313E-01  0.41436914257E-01  0.51100000000E-03 0.  1.
</event>
<event>
 8    1  0.5489035E+004  0.1043930E+01  0.7957747E-01            NaN
         13   -1    0    0    0    0  0.00000000000E+00  0.00000000000E+00  0.74505805969E-08  0.10566000000E+00  0.10566000000E+00 0. -1.
     999900   -1    0    0    0    0 -0.00000000000E+00 -0.00000000000E+00 -0.74505805969E-08  0.93827000000E+00  0.93827000000E+00 0.  1.
     999902    2    1    2    0    0 -0.20350152378E-01 -0.11854265847E-01 -0.93895081956E-02  0.10185761998E+01  0.10182606050E+01 0.  0.
     999903    2    3    3    0    0 -0.11694235899E-01  0.11938991478E+00 -0.40789015858E-01  0.12824710956E+00  0.19820958422E-01 0.  0.
         14    1    1    2    0    0  0.20350152378E-01  0.11854265847E-01  0.93895081956E-02  0.25353800203E-01  0.00000000000E+00 0. -1.
     999901    1    3    3    0    0 -0.86559164781E-02 -0.13124418062E+00  0.31399507662E-01  0.89032909024E+00  0.88000000000E+00 0.  1.
        -11    1    4    4    0    0  0.11548030925E-02  0.79305576126E-01 -0.29908390714E-01  0.84767216133E-01  0.51100000000E-03 0.  1.
         11    1    4    4    0    0 -0.12849038992E-01  0.40084338651E-01 -0.10880625144E-01  0.43479893429E-01  0.51100000000E-03 0. -1.
</event>
<event>
 8    1  0.5489035E+004  0.1043930E+01  0.7957747E-01            NaN
         13   -1    0    0    0    0  0.00000000000E+00  0.00000000000E+00  0.74505805969E-08  0.10566000000E+00  0.10566000000E+00 0.  1.
     999900   -1    0    0    0    0 -0.00000000000E+00 -0.00000000000E+00 -0.74505805969E-08  0.93827000000E+00  0.93827000000E+00 0.  1.
     999902    2    1    2    0    0  0.17954755841E-01 -0.82074934550E-02 -0.12773605105E-01  0.10204161489E+01  0.10201451935E+01 0.  0.
     999903    2    3    3    0    0  0.58890927683E-01 -0.11377643179E+00  0.26977796057E-01  0.13227159715E+00  0.18834971145E-01 0.  0.
         14    1    1    2    0    0 -0.17954755841E-01  0.82074934550E-02  0.12773605105E-01  0.23513851099E-01  0.00000000000E+00 0.  1.
     999901    1    3    3    0    0 -0.40936171842E-01  0.10556893834E+00 -0.39751401162E-01  0.88814455175E+00  0.88000000000E+00 0.  1.
        -11    1    4    4    0    0  0.40948467591E-01 -0.63936243152E-01  0.96602594329E-02  0.76538891551E-01  0.51100000000E-03 0.  1.
         11    1    4    4    0    0  0.17942460092E-01 -0.49840188641E-01  0.17317536624E-01  0.55732705601E-01  0.51100000000E-03 0. -1.
</event>
<event>
 8    1  0.5489035E+004  0.1043930E+01  0.7957747E-01            NaN
         13   -1    0    0    0    0  0.00000000000E+00  0.00000000000E+00  0.74505805969E-08  0.10566000000E+00  0.10566000000E+00 0. -1.
     999900   -1    0    0    0    0 -0.00000000000E+00 -0.00000000000E+00 -0.74505805969E-08  0.93827000000E+00  0.93827000000E+00 0. -1.
     999902    2    1    2    0    0 -0.15814909282E-01 -0.39428028816E-02 -0.19840539173E-01  0.10182530834E+01  0.10179292892E+01 0.  0.
     999903    2    3    3    0    0  0.92662849360E-01 -0.50354756497E-01 -0.71128845383E-01  0.12889827014E+00  0.20819371895E-01 0.  0.
         14    1    1    2    0    0  0.15814909282E-01  0.39428028816E-02  0.19840539173E-01  0.25676916576E-01  0.00000000000E+00 0. -1.
     999901    1    3    3    0    0 -0.10847775864E+00  0.46411953616E-01  0.51288306210E-01  0.88935481328E+00  0.88000000000E+00 0.  1.
        -11    1    4    4    0    0  0.28062709474E-01 -0.10327393373E-01 -0.30523915479E-01  0.42733374008E-01  0.51100000000E-03 0. -1.
         11    1    4    4    0    0  0.64600139886E-01 -0.40027363124E-01 -0.40604929904E-01  0.86164896132E-01  0.51100000000E-03 0.  1.
</event>
<event>
 8    1  0.5489035E+004  0.1043930E+01  0.7957747E-01            NaN
         13   -1    0    0    0    0  0.00000000000E+00  0.00000000000E+00  0.74505805969E-08  0.10566000000E+00  0.10566000000E+00 0.  1.
     999900   -1    0    0    0    0 -0.00000000000E+00 -0.00000000000E+00 -0.74505805969E-08  0.93827000000E+00  0.93827000000E+00 0.  1.
     999902    2    1    2    0    0  0.11703723418E-01 -0.14579605255E-01  0.14789526282E-01  0.10200915412E+01  0.10198129634E+01 0.  0.
     999903    2    3    3    0    0 -0.50403427664E-01  0.26020738110E-01  0.11634576949E+00  0.13114871027E+00  0.21120175035E-01 0.  0.
         14    1    1    2    0    0 -0.11703723418E-01  0.14579605255E-01 -0.14789526282E-01  0.23838458820E-01  0.00000000000E+00 0. -1.
     999901    1    3    3    0    0  0.62107151082E-01 -0.40600343365E-01 -0.10155624321E+00  0.88894283091E+00  0.88000000000E+00 0.  1.
        -11    1    4    4    0    0 -0.42504675221E-01  0.12178479161E-01  0.91536197953E-01  0.10165677266E+00  0.51100000000E-03 0. -1.
         11    1    4    4    0    0 -0.78987524431E-02  0.13842258949E-01  0.24809571541E-01  0.29491937610E-01  0.51100000000E-03 0.  1.
</event>
<event>
 8    1  0.5489035E+004  0.1043930E+01  0.7957747E-01            NaN
         13   -1    0    0    0    0  0.00000000000E+00  0.00000000000E+00  0.74505805969E-08  0.10566000000E+00  0.10566000000E+00 0. -1.
     999900   -1    0    0    0    0 -0.00000000000E+00 -0.00000000000E+00 -0.74505805969E-08  0.93827000000E+00  0.93827000000E+00 0. -1.
     999902    2    1    2    0    0  0.17091623744E-01 -0.87971693599E-02  0.13672722609E-01  0.10203406563E+01  0.10200679379E+01 0.  0.
     999903    2    3    3    0    0  0.21770926927E-01 -0.12402596064E+00 -0.32807819154E-01  0.13159996807E+00  0.19641446673E-01 0.  0.
         14    1    1    2    0    0 -0.17091623744E-01  0.87971693599E-02 -0.13672722609E-01  0.23589343664E-01  0.00000000000E+00 0. -1.
     999901    1    3    3    0    0 -0.46793031824E-02  0.11522879128E+00  0.46480541764E-01  0.88874068827E+00  0.88000000000E+00 0. -1.
        -11    1    4    4    0    0  0.93661535823E-02 -0.27437295745E-01 -0.14838862521E-01  0.32572733884E-01  0.51100000000E-03 0. -1.
         11    1    4    4    0    0  0.12404773344E-01 -0.96588664890E-01 -0.17968956634E-01  0.99027234186E-01  0.51100000000E-03 0.  1.
</event>
<event>
 8    1  0.5489035E+004  0.1043930E+01  0.7957747E-01            NaN
         13   -1    0    0    0    0  0.00000000000E+00  0.00000000000E+00  0.74505805969E-08  0.10566000000E+00  0.10566000000E+00 0.  1.
     999900   -1    0    0    0    0 -0.00000000000E+00 -0.00000000000E+00 -0.74505805969E-08  0.93827000000E+00  0.93827000000E+00 0.  1.
     999902    2    1    2    0    0  0.67666290665E-02  0.14128829244E-01  0.17591399988E-01  0.10203743544E+01  0.10201024237E+01 0.  0.
     999903    2    3    3    0    0 -0.74105868224E-03  0.59511494061E-01 -0.11333295273E+00  0.12949998743E+00  0.19588809969E-01 0.  0.
         14    1    1    2    0    0 -0.67666290665E-02 -0.14128829244E-01 -0.17591399988E-01  0.23555645571E-01  0.00000000000E+00 0. -1.
     999901    1    3    3    0    0  0.75076877487E-02 -0.45382664817E-01  0.13092435272E+00  0.89087436700E+00  0.88000000000E+00 0. -1.
        -11    1    4    4    0    0  0.72911470863E-02  0.41054672095E-01 -0.66102539575E-01  0.78156597840E-01  0.51100000000E-03 0. -1.
         11    1    4    4    0    0 -0.80322057685E-02  0.18456821967E-01 -0.47230413156E-01  0.51343389589E-01  0.51100000000E-03 0.  1.
</event>
<event>
 8    1  0.5489035E+004  0.1043930E+01  0.7957747E-01            NaN
         13   -1    0    0    0    0  0.00000000000E+00  0.00000000000E+00  0.74505805969E-08  0.10566000000E+00  0.10566000000E+00 0.  1.
     999900   -1    0    0    0    0 -0.00000000000E+00 -0.00000000000E+00 -0.74505805969E-08  0.93827000000E+00  0.93827000000E+00 0. -1.
     999902    2    1    2    0    0  0.22493589641E-01 -0.43172811543E-02  0.62765179814E-02  0.10201814175E+01  0.10199049610E+01 0.  0.
     999903    2    3    3    0    0  0.99371621723E-01 -0.31306677624E-01 -0.79100326668E-01  0.13230312354E+00  0.19809784218E-01 0.  0.
         14    1    1    2    0    0 -0.22493589641E-01  0.43172811543E-02 -0.62765179814E-02  0.23748582473E-01  0.00000000000E+00 0. -1.
     999901    1    3    3    0    0 -0.76878032083E-01  0.26989396470E-01  0.85376844649E-01  0.88787829399E+00  0.88000000000E+00 0.  1.
        -11    1    4    4    0    0  0.72997866324E-01 -0.31903147357E-01 -0.59163091058E-01  0.99232211321E-01  0.51100000000E-03 0.  1.
         11    1    4    4    0    0  0.26373755399E-01  0.59646973227E-03 -0.19937235610E-01  0.33070912215E-01  0.51100000000E-03 0. -1.
</event>
<event>
 8    1  0.5489035E+004  0.1043930E+01  0.7957747E-01            NaN
         13   -1    0    0    0    0  0.00000000000E+00  0.00000000000E+00  0.74505805969E-08  0.10566000000E+00  0.10566000000E+00 0. -1.
     999900   -1    0    0    0    0 -0.00000000000E+00 -0.00000000000E+00 -0.74505805969E-08  0.93827000000E+00  0.93827000000E+00 0. -1.
     999902    2    1    2    0    0  0.32698375663E-02 -0.22357876432E-01 -0.41351386600E-02  0.10209590216E+01  0.10207005721E+01 0.  0.
     999903    2    3    3    0    0  0.11922006042E-01  0.74371829828E-01  0.10299403883E+00  0.12915850762E+00  0.20021107733E-01 0.  0.
         14    1    1    2    0    0 -0.32698375663E-02  0.22357876432E-01  0.41351386600E-02  0.22970978385E-01  0.00000000000E+00 0.  1.
     999901    1    3    3    0    0 -0.86521684757E-02 -0.96729706260E-01 -0.10712917749E+00  0.89180051400E+00  0.88000000000E+00 0. -1.
        -11    1    4    4    0    0 -0.19830978952E-02  0.20607203335E-02  0.49034915609E-03  0.29463212401E-02  0.51100000000E-03 0. -1.
         11    1    4    4    0    0  0.13905103937E-01  0.72311109494E-01  0.10250368968E+00  0.12621218638E+00  0.51100000000E-03 0.  1.
</event>
<event>
 8    1  0.5489035E+004  0.1043930E+01  0.7957747E-01            NaN
         13   -1    0    0    0    0  0.00000000000E+00  0.00000000000E+00  0.74505805969E-08  0.10566000000E+00  0.10566000000E+00 0. -1.
     999900   -1    0    0    0    0 -0.00000000000E+00 -0.00000000000E+00 -0.74505805969E-08  0.93827000000E+00  0.93827000000E+00 0.  1.
     999902    2    1    2    0    0  0.23155522787E-01  0.88295503853E-02  0.38993898177E-02  0.10188432617E+01  0.10185343625E+01 0.  0.
     999903    2    3    3    0    0  0.45826920426E-01 -0.11659636942E+00 -0.24180109675E-01  0.12921743482E+00  0.20436432172E-01 0.  0.
         14    1    1    2    0    0 -0.23155522787E-01 -0.88295503853E-02 -0.38993898177E-02  0.25086738259E-01  0.00000000000E+00 0. -1.
     999901    1    3    3    0    0 -0.22671397639E-01  0.12542591981E+00  0.28079499492E-01  0.88962582692E+00  0.88000000000E+00 0. -1.
        -11    1    4    4    0    0  0.90331504670E-02 -0.42740879189E-01 -0.18159473677E-02  0.43725728663E-01  0.51100000000E-03 0. -1.
         11    1    4    4    0    0  0.36793769959E-01 -0.73855490232E-01 -0.22364162307E-01  0.85491706159E-01  0.51100000000E-03 0.  1.
</event>
<event>
 8    1  0.5489035E+004  0.1043930E+01  0.7957747E-01            NaN
         13   -1    0    0    0    0  0.00000000000E+00  0.00000000000E+00  0.74505805969E-08  0.10566000000E+00  0.10566000000E+00 0.  1.
     999900   -1    0    0    0    0 -0.00000000000E+00 -0.00000000000E+00 -0.74505805969E-08  0.93827000000E+00  0.93827000000E+00 0. -1.
     999902    2    1    2    0    0  0.12653039756E-01  0.12467181437E-01 -0.16519951940E-01  0.10196722417E+01  0.10193836577E+01 0.  0.
     999903    2    3    3    0    0  0.90647135440E-01  0.48793101903E-01  0.77714804586E-01  0.13046875493E+00  0.19617217035E-01 0.  0.
         14    1    1    2    0    0 -0.12653039756E-01 -0.12467181437E-01  0.16519951940E-01  0.24257758350E-01  0.00000000000E+00 0.  1.
     999901    1    3    3    0    0 -0.77994095684E-01 -0.36325920466E-01 -0.94234756527E-01  0.88920348672E+00  0.88000000000E+00 0. -1.
        -11    1    4    4    0    0  0.79740788672E-01  0.39022840997E-01  0.73408687643E-01  0.11519753487E+00  0.51100000000E-03 0. -1.
         11    1    4    4    0    0  0.10906346768E-01  0.97702609061E-02  0.43061169432E-02  0.15271220060E-01  0.51100000000E-03 0.  1.
</event>
<event>
 8    1  0.5489035E+004  0.1043930E+01  0.7957747E-01            NaN
         13   -1    0    0    0    0  0.00000000000E+00  0.00000000000E+00  0.74505805969E-08  0.10566000000E+00  0.10566000000E+00 0.  1.
     999900   -1    0    0    0    0 -0.00000000000E+00 -0.00000000000E+00 -0.74505805969E-08  0.93827000000E+00  0.93827000000E+00 0. -1.
     999902    2    1    2    0    0 -0.22575031264E-01 -0.61836217911E-03  0.67575808876E-02  0.10203571489E+01  0.10200848161E+01 0.  0.
     999903    2    3    3    0    0  0.80446586956E-01  0.45189525294E-01 -0.86608121648E-01  0.12826468130E+00  0.20907299819E-01 0.  0.
         14    1    1    2    0    0  0.22575031264E-01  0.61836217911E-03 -0.67575808876E-02  0.23572851075E-01  0.00000000000E+00 0. -1.
     999901    1    3    3    0    0 -0.10302161822E+00 -0.45807887473E-01  0.93365702536E-01  0.89209246762E+00  0.88000000000E+00 0.  1.
        -11    1    4    4    0    0  0.36869412758E-01  0.30186430862E-01 -0.35360012986E-01  0.59339412238E-01  0.51100000000E-03 0. -1.
         11    1    4    4    0    0  0.43577174197E-01  0.15003094432E-01 -0.51248108662E-01  0.68925269067E-01  0.51100000000E-03 0.  1.
</event>
<event>
 8    1  0.5489035E+004  0.1043930E+01  0.7957747E-01            NaN
         13   -1    0    0    0    0  0.00000000000E+00  0.00000000000E+00  0.74505805969E-08  0.10566000000E+00  0.10566000000E+00 0.  1.
     999900   -1    0    0    0    0 -0.00000000000E+00 -0.00000000000E+00 -0.74505805969E-08  0.93827000000E+00  0.93827000000E+00 0.  1.
     999902    2    1    2    0    0  0.18843254123E-01  0.15347228975E-01  0.54883645477E-03  0.10196214236E+01  0.10193316147E+01 0.  0.
     999903    2    3    3    0    0 -0.76916417059E-01 -0.57288644426E-01  0.81929869003E-01  0.12773087139E+00  0.20113380593E-01 0.  0.
         14    1    1    2    0    0 -0.18843254123E-01 -0.15347228975E-01 -0.54883645477E-03  0.24308576359E-01  0.00000000000E+00 0. -1.
     999901    1    3    3    0    0  0.95759671182E-01  0.72635873401E-01 -0.81381032548E-01  0.89189055225E+00  0.88000000000E+00 0.  1.
        -11    1    4    4    0    0 -0.19885297842E-01 -0.11241328661E-01  0.30838178410E-01  0.38380293237E-01  0.51100000000E-03 0. -1.
         11    1    4    4    0    0 -0.57031119217E-01 -0.46047315765E-01  0.51091690593E-01  0.89350578157E-01  0.51100000000E-03 0.  1.
</event>
<event>
 8    1  0.5489035E+004  0.1043930E+01  0.7957747E-01            NaN
         13   -1    0    0    0    0  0.00000000000E+00  0.00000000000E+00  0.74505805969E-08  0.10566000000E+00  0.10566000000E+00 0. -1.
     999900   -1    0    0    0    0 -0.00000000000E+00 -0.00000000000E+00 -0.74505805969E-08  0.93827000000E+00  0.93827000000E+00 0. -1.
     999902    2    1    2    0    0 -0.18616807258E-01  0.22445799600E-02  0.12765700719E-01  0.10212454950E+01  0.10209935232E+01 0.  0.
     999903    2    3    3    0    0 -0.10494994436E+00 -0.51710384730E-01 -0.58884174371E-01  0.13248329207E+00  0.19900300905E-01 0.  0.
         14    1    1    2    0    0  0.18616807258E-01 -0.22445799600E-02 -0.12765700719E-01  0.22684504987E-01  0.00000000000E+00 0. -1.
     999901    1    3    3    0    0  0.86333137106E-01  0.53954964690E-01  0.71649875089E-01  0.88876220294E+00  0.88000000000E+00 0.  1.
        -11    1    4    4    0    0 -0.38428100438E-01 -0.85357624126E-02 -0.19029127357E-01  0.43725815627E-01  0.51100000000E-03 0.  1.
         11    1    4    4    0    0 -0.66521843925E-01 -0.43174622317E-01 -0.39855047014E-01  0.88757476445E-01  0.51100000000E-03 0. -1.
</event>
<event>
 8    1  0.5489035E+004  0.1043930E+01  0.7957747E-01            NaN
         13   -1    0    0    0    0  0.00000000000E+00  0.00000000000E+00  0.74505805969E-08  0.10566000000E+00  0.10566000000E+00 0. -1.
     999900   -1    0    0    0    0 -0.00000000000E+00 -0.00000000000E+00 -0.74505805969E-08  0.93827000000E+00  0.93827000000E+00 0. -1.
     999902    2    1    2    0    0 -0.18191156103E-01  0.17609100411E-02 -0.12180529474E-01  0.10219667520E+01  0.10217307169E+01 0.  0.
     999903    2    3    3    0    0  0.16480059193E-01  0.81780773877E-01 -0.10183878174E+00  0.13312262957E+00  0.19768907671E-01 0.  0.
         14    1    1    2    0    0  0.18191156103E-01 -0.17609100411E-02  0.12180529474E-01  0.21963248003E-01  0.00000000000E+00 0.  1.
     999901    1    3    3    0    0 -0.34671215296E-01 -0.80019863835E-01  0.89658252263E-01  0.88884412243E+00  0.88000000000E+00 0.  1.
        -11    1    4    4    0    0  0.13092364586E-01  0.53390179018E-01 -0.52050320082E-01  0.75706130318E-01  0.51100000000E-03 0.  1.
         11    1    4    4    0    0  0.33876946068E-02  0.28390594859E-01 -0.49788461655E-01  0.57416499250E-01  0.51100000000E-03 0. -1.
</event>
<event>
 8    1  0.5489035E+004  0.1043930E+01  0.7957747E-01            NaN
         13   -1    0    0    0    0  0.00000000000E+00  0.00000000000E+00  0.74505805969E-08  0.10566000000E+00  0.10566000000E+00 0.  1.
     999900   -1    0    0    0    0 -0.00000000000E+00 -0.00000000000E+00 -0.74505805969E-08  0.93827000000E+00  0.93827000000E+00 0.  1.
     999902    2    1    2    0    0  0.86699370122E-02  0.50742910782E-02 -0.22408672260E-01  0.10193726217E+01  0.10190767768E+01 0.  0.
     999903    2    3    3    0    0 -0.82272875954E-01  0.37853116925E-01 -0.92937976207E-01  0.13127384937E+00  0.19841157436E-01 0.  0.
         14    1    1    2    0    0 -0.86699370122E-02 -0.50742910782E-02  0.22408672260E-01  0.24557378325E-01  0.00000000000E+00 0.  1.
     999901    1    3    3    0    0  0.90942812966E-01 -0.32778825847E-01  0.70529303947E-01  0.88809877230E+00  0.88000000000E+00 0.  1.
        -11    1    4    4    0    0 -0.58036159483E-01  0.16340275291E-01 -0.61108162683E-01  0.85846776711E-01  0.51100000000E-03 0. -1.
         11    1    4    4    0    0 -0.24236716471E-01  0.21512841634E-01 -0.31829813524E-01  0.45427072659E-01  0.51100000000E-03 0.  1.
</event>
<event>
 8    1  0.5489035E+004  0.1043930E+01  0.7957747E-01            NaN
         13   -1    0    0    0    0  0.00000000000E+00  0.00000000000E+00  0.74505805969E-08  0.10566000000E+00  0.10566000000E+00 0. -1.
     999900   -1    0    0    0    0 -0.00000000000E+00 -0.00000000000E+00 -0.74505805969E-08  0.93827000000E+00  0.93827000000E+00 0. -1.
     999902    2    1    2    0    0  0.11309949011E-01  0.24317894474E-02 -0.21246582588E-01  0.10197381456E+01  0.10194511464E+01 0.  0.
     999903    2    3    3    0    0 -0.61014612466E-01 -0.89520042973E-01  0.64789524220E-01  0.12783669739E+00  0.20196973129E-01 0.  0.
         14    1    1    2    0    0 -0.11309949011E-01 -0.24317894474E-02  0.21246582588E-01  0.24191854377E-01  0.00000000000E+00 0. -1.
     999901    1    3    3    0    0  0.72324561477E-01  0.91951832420E-01 -0.86036106808E-01  0.89190144823E+00  0.88000000000E+00 0.  1.
        -11    1    4    4    0    0 -0.12325493059E-01 -0.18003107046E-01  0.42336604925E-02  0.22230938906E-01  0.51100000000E-03 0.  1.
         11    1    4    4    0    0 -0.48689119406E-01 -0.71516935927E-01  0.60555863728E-01  0.10560575849E+00  0.51100000000E-03 0. -1.
</event>
<event>
 8    1  0.5489035E+004  0.1043930E+01  0.7957747E-01            NaN
         13   -1    0    0    0    0  0.00000000000E+00  0.00000000000E+00  0.74505805969E-08  0.10566000000E+00  0.10566000000E+00 0. -1.
     999900   -1    0    0    0    0 -0.00000000000E+00 -0.00000000000E+00 -0.74505805969E-08  0.93827000000E+00  0.93827000000E+00 0. -1.
     999902    2    1    2    0    0  0.17863089363E-01 -0.14661616736E-01 -0.14848804285E-03  0.10208199369E+01  0.10205583122E+01 0.  0.
     999903    2    3    3    0    0 -0.78402793805E-01 -0.10326304101E+00 -0.26523681255E-02  0.13114381492E+00  0.19529757296E-01 0.  0.
         14    1    1    2    0    0 -0.17863089363E-01  0.14661616736E-01  0.14848804285E-03  0.23110063081E-01  0.00000000000E+00 0.  1.
     999901    1    3    3    0    0  0.96265883168E-01  0.88601424270E-01  0.25038800827E-02  0.88967612200E+00  0.88000000000E+00 0. -1.
        -11    1    4    4    0    0 -0.65808968240E-01 -0.94471321733E-01  0.17861646559E-02  0.11514817600E+00  0.51100000000E-03 0.  1.
         11    1    4    4    0    0 -0.12593825565E-01 -0.87917192740E-02 -0.44385327814E-02  0.15995638918E-01  0.51100000000E-03 0. -1.
</event>
<event>
 8    1  0.5489035E+004  0.1043930E+01  0.7957747E-01            NaN
         13   -1    0    0    0    0  0.00000000000E+00  0.00000000000E+00  0.74505805969E-08  0.10566000000E+00  0.10566000000E+00 0.  1.
     999900   -1    0    0    0    0 -0.00000000000E+00 -0.00000000000E+00 -0.74505805969E-08  0.93827000000E+00  0.93827000000E+00 0. -1.
     999902    2    1    2    0    0  0.95545943601E-02  0.20225774104E-01  0.90070036289E-02  0.10198157236E+01  0.10195305840E+01 0.  0.
     999903    2    3    3    0    0 -0.52073875350E-01  0.10481340569E+00 -0.55901823586E-01  0.13124029544E+00  0.20036535627E-01 0.  0.
         14    1    1    2    0    0 -0.95545943601E-02 -0.20225774104E-01 -0.90070036289E-02  0.24114276391E-01  0.00000000000E+00 0. -1.
     999901    1    3    3    0    0  0.61628469710E-01 -0.84587631589E-01  0.64908827215E-01  0.88857542817E+00  0.88000000000E+00 0.  1.
        -11    1    4    4    0    0 -0.51788975297E-02  0.96516367672E-02  0.71394573404E-03  0.10988444450E-01  0.51100000000E-03 0.  1.
         11    1    4    4    0    0 -0.46894977820E-01  0.95161768926E-01 -0.56615769320E-01  0.12025185099E+00  0.51100000000E-03 0. -1.
</event>
<event>
 8    1  0.5489035E+004  0.1043930E+01  0.7957747E-01            NaN
         13   -1    0    0    0    0  0.00000000000E+00  0.00000000000E+00  0.74505805969E-08  0.10566000000E+00  0.10566000000E+00 0.  1.
     999900   -1    0    0    0    0 -0.00000000000E+00 -0.00000000000E+00 -0.74505805969E-08  0.93827000000E+00  0.93827000000E+00 0.  1.
     999902    2    1    2    0    0  0.12320536417E-01  0.71735579899E-02  0.18813151837E-01  0.10203251227E+01  0.10200520407E+01 0.  0.
     999903    2    3    3    0    0  0.10739364635E+00  0.61410645042E-01  0.46099411509E-01  0.13312441380E+00  0.17096526192E-01 0.  0.
         14    1    1    2    0    0 -0.12320536417E-01 -0.71735579899E-02 -0.18813151837E-01  0.23604877333E-01  0.00000000000E+00 0. -1.
     999901    1    3    3    0    0 -0.95073109933E-01 -0.54237087052E-01 -0.27286259671E-01  0.88720070887E+00  0.88000000000E+00 0. -1.
        -11    1    4    4    0    0  0.87101672272E-01  0.55778096655E-01  0.34250629358E-01  0.10895533081E+00  0.51100000000E-03 0.  1.
         11    1    4    4    0    0  0.20291974078E-01  0.56325483865E-02  0.11848782150E-01  0.24169082993E-01  0.51100000000E-03 0. -1.
</event>
<event>
 8    1  0.5489035E+004  0.1043930E+01  0.7957747E-01            NaN
         13   -1    0    0    0    0  0.00000000000E+00  0.00000000000E+00  0.74505805969E-08  0.10566000000E+00  0.10566000000E+00 0.  1.
     999900   -1    0    0    0    0 -0.00000000000E+00 -0.00000000000E+00 -0.74505805969E-08  0.93827000000E+00  0.93827000000E+00 0.  1.
     999902    2    1    2    0    0  0.13052458867E-01 -0.10988546828E-01 -0.13881255364E-01  0.10219344529E+01  0.10216977155E+01 0.  0.
     999903    2    3    3    0    0 -0.57964771442E-01 -0.91764843549E-01 -0.74962707357E-01  0.13328423995E+00  0.19093975093E-01 0.  0.
         14    1    1    2    0    0 -0.13052458867E-01  0.10988546828E-01  0.13881255364E-01  0.21995547148E-01  0.00000000000E+00 0.  1.
     999901    1    3    3    0    0  0.71017230309E-01  0.80776296721E-01  0.61081451993E-01  0.88865021290E+00  0.88000000000E+00 0.  1.
        -11    1    4    4    0    0 -0.27303645354E-01 -0.26740132065E-01 -0.28639333053E-01  0.47759776289E-01  0.51100000000E-03 0. -1.
         11    1    4    4    0    0 -0.30661126088E-01 -0.65024711484E-01 -0.46323374304E-01  0.85524463661E-01  0.51100000000E-03 0.  1.
</event>
<event>
 8    1  0.5489035E+004  0.1043930E+01  0.7957747E-01            NaN
         13   -1    0    0    0    0  0.00000000000E+00  0.00000000000E+00  0.74505805969E-08  0.10566000000E+00  0.10566000000E+00 0.  1.
     999900   -1    0    0    0    0 -0.00000000000E+00 -0.00000000000E+00 -0.74505805969E-08  0.93827000000E+00  0.93827000000E+00 0. -1.
     999902    2    1    2    0    0  0.74068271896E-02  0.29975817318E-02  0.25570728500E-01  0.10171399134E+01  0.10167870449E+01 0.  0.
     999903    2    3    3    0    0  0.53669417925E-01  0.52785427903E-01 -0.98602156495E-01  0.12582741919E+00  0.21058165516E-01 0.  0.
         14    1    1    2    0    0 -0.74068271896E-02 -0.29975817318E-02 -0.25570728500E-01  0.26790086623E-01  0.00000000000E+00 0. -1.
     999901    1    3    3    0    0 -0.46262590735E-01 -0.49787846171E-01  0.12417288500E+00  0.89131249419E+00  0.88000000000E+00 0.  1.
        -11    1    4    4    0    0  0.36909711991E-01  0.41102884134E-01 -0.84651562167E-01  0.10108373767E+00  0.51100000000E-03 0.  1.
         11    1    4    4    0    0  0.16759705933E-01  0.11682543768E-01 -0.13950594328E-01  0.24743681516E-01  0.51100000000E-03 0. -1.
</event>
<event>
 8    1  0.5489035E+004  0.1043930E+01  0.7957747E-01            NaN
         13   -1    0    0    0    0  0.00000000000E+00  0.00000000000E+00  0.74505805969E-08  0.10566000000E+00  0.10566000000E+00 0.  1.
     999900   -1    0    0    0    0 -0.00000000000E+00 -0.00000000000E+00 -0.74505805969E-08  0.93827000000E+00  0.93827000000E+00 0.  1.
     999902    2    1    2    0    0  0.10820097948E-01 -0.20974693538E-01 -0.99842674532E-03  0.10203077828E+01  0.10200342948E+01 0.  0.
     999903    2    3    3    0    0  0.97505105924E-01  0.55460370741E-01 -0.63449930634E-01  0.13055680642E+00  0.20882710598E-01 0.  0.
         14    1    1    2    0    0 -0.10820097948E-01  0.20974693538E-01  0.99842674532E-03  0.23622217182E-01  0.00000000000E+00 0.  1.
     999901    1    3    3    0    0 -0.86685007976E-01 -0.76435064279E-01  0.62451503888E-01  0.88975097640E+00  0.88000000000E+00 0. -1.
        -11    1    4    4    0    0  0.30923683401E-01  0.86407385226E-02 -0.24085977936E-01  0.40141400218E-01  0.51100000000E-03 0.  1.
         11    1    4    4    0    0  0.66581422523E-01  0.46819632218E-01 -0.39363952698E-01  0.90415406205E-01  0.51100000000E-03 0. -1.
</event>
<event>
 8    1  0.5489035E+004  0.1043930E+01  0.7957747E-01            NaN
         13   -1    0    0    0    0  0.00000000000E+00  0.00000000000E+00  0.74505805969E-08  0.10566000000E+00  0.10566000000E+00 0.  1.
     999900   -1    0    0    0    0 -0.00000000000E+00 -0.00000000000E+00 -0.74505805969E-08  0.93827000000E+00  0.93827000000E+00 0.  1.
     999902    2    1    2    0    0 -0.18937896257E-01  0.45971265120E-02 -0.50153471835E-02  0.10238070978E+01  0.10236093211E+01 0.  0.
     999903    2    3    3    0    0 -0.76944552555E-01  0.10843770589E+00 -0.18440039471E-01  0.13570357877E+00  0.19905426617E-01 0.  0.
         14    1    1    2    0    0  0.18937896257E-01 -0.45971265120E-02  0.50153471835E-02  0.20122902231E-01  0.00000000000E+00 0. -1.
     999901    1    3    3    0    0  0.58006656298E-01 -0.10384057937E+00  0.13424692287E-01  0.88810351900E+00  0.88000000000E+00 0. -1.
        -11    1    4    4    0    0 -0.60135599339E-01  0.95833684503E-01 -0.18763567241E-01  0.11468529971E+00  0.51100000000E-03 0.  1.
         11    1    4    4    0    0 -0.16808953217E-01  0.12604021383E-01  0.32352777050E-03  0.21018279056E-01  0.51100000000E-03 0. -1.
</event>
<event>
 8    1  0.5489035E+004  0.1043930E+01  0.7957747E-01            NaN
         13   -1    0    0    0    0  0.00000000000E+00  0.00000000000E+00  0.74505805969E-08  0.10566000000E+00  0.10566000000E+00 0. -1.
     999900   -1    0    0    0    0 -0.00000000000E+00 -0.00000000000E+00 -0.74505805969E-08  0.93827000000E+00  0.93827000000E+00 0.  1.
     999902    2    1    2    0    0  0.13993655510E-01 -0.67784714904E-02 -0.18268867160E-01  0.10199399692E+01  0.10196577951E+01 0.  0.
     999903    2    3    3    0    0  0.42996013239E-02  0.50097910592E-01  0.11558422445E+00  0.12795031250E+00  0.21983682840E-01 0.  0.
         14    1    1    2    0    0 -0.13993655510E-01  0.67784714904E-02  0.18268867160E-01  0.23990030796E-01  0.00000000000E+00 0. -1.
     999901    1    3    3    0    0  0.96940541864E-02 -0.56876382082E-01 -0.13385309161E+00  0.89198965670E+00  0.88000000000E+00 0.  1.
        -11    1    4    4    0    0 -0.40729247666E-02  0.32552779351E-01  0.52249729789E-01  0.61697386846E-01  0.51100000000E-03 0. -1.
         11    1    4    4    0    0  0.83725260906E-02  0.17545131241E-01  0.63334494661E-01  0.66252925659E-01  0.51100000000E-03 0.  1.
</event>
<event>
 8    1  0.5489035E+004  0.1043930E+01  0.7957747E-01            NaN
         13   -1    0    0    0    0  0.00000000000E+00  0.00000000000E+00  0.74505805969E-08  0.10566000000E+00  0.10566000000E+00 0. -1.
     999900   -1    0    0    0    0 -0.00000000000E+00 -0.00000000000E+00 -0.74505805969E-08  0.93827000000E+00  0.93827000000E+00 0. -1.
     999902    2    1    2    0    0  0.16858704471E-01 -0.15856431985E-01  0.39750911279E-02  0.10204471616E+01  0.10201769287E+01 0.  0.
     999903    2    3    3    0    0  0.12984550070E+00  0.33727697271E-02  0.23623931786E-01  0.13279753741E+00  0.14348036778E-01 0.  0.
         14    1    1    2    0    0 -0.16858704471E-01  0.15856431985E-01 -0.39750911279E-02  0.23482838440E-01  0.00000000000E+00 0. -1.
     999901    1    3    3    0    0 -0.11298679623E+00 -0.19229201712E-01 -0.19648840658E-01  0.88764962415E+00  0.88000000000E+00 0.  1.
        -11    1    4    4    0    0  0.10640841232E+00 -0.27435566814E-02  0.19775199775E-01  0.10826632424E+00  0.51100000000E-03 0. -1.
         11    1    4    4    0    0  0.23437088380E-01  0.61163264086E-02  0.38487320112E-02  0.24531213169E-01  0.51100000000E-03 0.  1.
</event>
<event>
 8    1  0.5489035E+004  0.1043930E+01  0.7957747E-01            NaN
         13   -1    0    0    0    0  0.00000000000E+00  0.00000000000E+00  0.74505805969E-08  0.10566000000E+00  0.10566000000E+00 0.  1.
     999900   -1    0    0    0    0 -0.00000000000E+00 -0.00000000000E+00 -0.74505805969E-08  0.93827000000E+00  0.93827000000E+00 0.  1.
     999902    2    1    2    0    0 -0.13719695763E-01 -0.13943949787E-01 -0.14010993585E-01  0.10198681686E+01  0.10195842828E+01 0.  0.
     999903    2    3    3    0    0 -0.65579048202E-02  0.11056517115E+00 -0.64287720087E-01  0.12965383395E+00  0.20237156841E-01 0.  0.
         14    1    1    2    0    0  0.13719695763E-01  0.13943949787E-01  0.14010993585E-01  0.24061831367E-01  0.00000000000E+00 0.  1.
     999901    1    3    3    0    0 -0.71617909430E-02 -0.12450912094E+00  0.50276726502E-01  0.89021433468E+00  0.88000000000E+00 0. -1.
        -11    1    4    4    0    0 -0.32590167368E-02  0.44565976067E-01 -0.14732140826E-01  0.47053634367E-01  0.51100000000E-03 0.  1.
         11    1    4    4    0    0 -0.32988880834E-02  0.65999195083E-01 -0.49555579262E-01  0.82600199583E-01  0.51100000000E-03 0. -1.
</event>
<event>
 8    1  0.5489035E+004  0.1043930E+01  0.7957747E-01            NaN
         13   -1    0    0    0    0  0.00000000000E+00  0.00000000000E+00  0.74505805969E-08  0.10566000000E+00  0.10566000000E+00 0.  1.
     999900   -1    0    0    0    0 -0.00000000000E+00 -0.00000000000E+00 -0.74505805969E-08  0.93827000000E+00  0.93827000000E+00 0.  1.
     999902    2    1    2    0    0  0.63877195515E-02 -0.19895459455E-01 -0.10949781343E-01  0.10203391124E+01  0.10200663578E+01 0.  0.
     999903    2    3    3    0    0  0.12131472560E+00 -0.46334261745E-01  0.12835427152E-01  0.13215390469E+00  0.20875341352E-01 0.  0.
         14    1    1    2    0    0 -0.63877195515E-02  0.19895459455E-01  0.10949781343E-01  0.23590887636E-01  0.00000000000E+00 0.  1.
     999901    1    3    3    0    0 -0.11492700605E+00  0.26438802290E-01 -0.23785208495E-01  0.88818520767E+00  0.88000000000E+00 0. -1.
        -11    1    4    4    0    0  0.46974185950E-01 -0.27265284487E-01  0.10791815123E-01  0.55377741724E-01  0.51100000000E-03 0.  1.
         11    1    4    4    0    0  0.74340539648E-01 -0.19068977259E-01  0.20436120291E-02  0.76776162967E-01  0.51100000000E-03 0. -1.
</event>
<event>
 8    1  0.5489035E+004  0.1043930E+01  0.7957747E-01            NaN
         13   -1    0    0    0    0  0.00000000000E+00  0.00000000000E+00  0.74505805969E-08  0.10566000000E+00  0.10566000000E+00 0. -1.
     999900   -1    0    0    0    0 -0.00000000000E+00 -0.00000000000E+00 -0.74505805969E-08  0.93827000000E+00  0.93827000000E+00 0. -1.
     999902    2    1    2    0    0 -0.97417650172E-02  0.13884994310E-01  0.14477477114E-01  0.10216299463E+01  0.10213865354E+01 0.  0.
     999903    2    3    3    0    0  0.40726480282E-02 -0.12812343170E+00 -0.50470090094E-02  0.12992459324E+00  0.20560336016E-01 0.  0.
         14    1    1    2    0    0  0.97417650172E-02 -0.13884994310E-01 -0.14477477114E-01  0.22300053727E-01  0.00000000000E+00 0.  1.
     999901    1    3    3    0    0 -0.13814413045E-01  0.14200842601E+00  0.19524486123E-01  0.89170535303E+00  0.88000000000E+00 0.  1.
        -11    1    4    4    0    0  0.43656361654E-02 -0.55167829220E-02 -0.17716219502E-02  0.72727875173E-02  0.51100000000E-03 0.  1.
         11    1    4    4    0    0 -0.29298813724E-03 -0.12260664878E+00 -0.32753870592E-02  0.12265180573E+00  0.51100000000E-03 0. -1.
</event>
<event>
 8    1  0.5489035E+004  0.1043930E+01  0.7957747E-01            NaN
         13   -1    0    0    0    0  0.00000000000E+00  0.00000000000E+00  0.74505805969E-08  0.10566000000E+00  0.10566000000E+00 0.  1.
     999900   -1    0    0    0    0 -0.00000000000E+00 -0.00000000000E+00 -0.74505805969E-08  0.93827000000E+00  0.93827000000E+00 0.  1.
     999902    2    1    2    0    0  0.73230603988E-02 -0.18678913279E-01 -0.13884862070E-01  0.10195308523E+01  0.10192388534E+01 0.  0.
     999903    2    3    3    0    0 -0.22969260336E-01  0.11507140071E+00  0.43944382894E-01  0.12703379751E+00  0.20915610015E-01 0.  0.
         14    1    1    2    0    0 -0.73230603988E-02  0.18678913279E-01  0.13884862070E-01  0.24399147723E-01  0.00000000000E+00 0.  1.
     999901    1    3    3    0    0  0.30292320735E-01 -0.13375031398E+00 -0.57829244965E-01  0.89249705476E+00  0.88000000000E+00 0.  1.
        -11    1    4    4    0    0 -0.22663248377E-01  0.84818581067E-01  0.24813980097E-01  0.91234912453E-01  0.51100000000E-03 0. -1.
         11    1    4    4    0    0 -0.30601195941E-03  0.30252819639E-01  0.19130402798E-01  0.35798885061E-01  0.51100000000E-03 0.  1.
</event>
<event>
 8    1  0.5489035E+004  0.1043930E+01  0.7957747E-01            NaN
         13   -1    0    0    0    0  0.00000000000E+00  0.00000000000E+00  0.74505805969E-08  0.10566000000E+00  0.10566000000E+00 0.  1.
     999900   -1    0    0    0    0 -0.00000000000E+00 -0.00000000000E+00 -0.74505805969E-08  0.93827000000E+00  0.93827000000E+00 0.  1.
     999902    2    1    2    0    0 -0.43940826018E-02  0.17540788231E-01 -0.16353691615E-01  0.10195490557E+01  0.10192574977E+01 0.  0.
     999903    2    3    3    0    0 -0.90516560937E-01  0.51443835507E-01 -0.79189245068E-01  0.13246686977E+00  0.20900216169E-01 0.  0.
         14    1    1    2    0    0  0.43940826018E-02 -0.17540788231E-01  0.16353691615E-01  0.24380944262E-01  0.00000000000E+00 0. -1.
     999901    1    3    3    0    0  0.86122478335E-01 -0.33903047276E-01  0.62835553453E-01  0.88708218597E+00  0.88000000000E+00 0. -1.
        -11    1    4    4    0    0 -0.81297580144E-01  0.49560068107E-01 -0.64462808367E-01  0.11498352783E+00  0.51100000000E-03 0.  1.
         11    1    4    4    0    0 -0.92189807931E-02  0.18837674003E-02 -0.14726436701E-01  0.17483341940E-01  0.51100000000E-03 0. -1.
</event>
<event>
 8    1  0.5489035E+004  0.1043930E+01  0.7957747E-01            NaN
         13   -1    0    0    0    0  0.00000000000E+00  0.00000000000E+00  0.74505805969E-08  0.10566000000E+00  0.10566000000E+00 0. -1.
     999900   -1    0    0    0    0 -0.00000000000E+00 -0.00000000000E+00 -0.74505805969E-08  0.93827000000E+00  0.93827000000E+00 0.  1.
     999902    2    1    2    0    0  0.11731021143E-01  0.18314804607E-01 -0.92861188882E-02  0.10202808789E+01  0.10200067602E+01 0.  0.
     999903    2    3    3    0    0  0.18451343888E-01 -0.12593726533E-01  0.12587228195E+00  0.12940025090E+00  0.20038451293E-01 0.  0.
         14    1    1    2    0    0 -0.11731021143E-01 -0.18314804607E-01  0.92861188882E-02  0.23649121101E-01  0.00000000000E+00 0.  1.
     999901    1    3    3    0    0 -0.67203227445E-02  0.30908531140E-01 -0.13515840083E+00  0.89088062800E+00  0.88000000000E+00 0.  1.
        -11    1    4    4    0    0  0.18750105119E-01 -0.14364695720E-02  0.81494245087E-01  0.83637330123E-01  0.51100000000E-03 0. -1.
         11    1    4    4    0    0 -0.29876123098E-03 -0.11157256961E-01  0.44378036860E-01  0.45762920773E-01  0.51100000000E-03 0.  1.
</event>
<event>
 8    1  0.5489035E+004  0.1043930E+01  0.7957747E-01            NaN
         13   -1    0    0    0    0  0.00000000000E+00  0.00000000000E+00  0.74505805969E-08  0.10566000000E+00  0.10566000000E+00 0.  1.
     999900   -1    0    0    0    0 -0.00000000000E+00 -0.00000000000E+00 -0.74505805969E-08  0.93827000000E+00  0.93827000000E+00 0.  1.
     999902    2    1    2    0    0  0.38925078107E-02  0.60825821538E-02 -0.15013179483E-01  0.10272703187E+01  0.10271352212E+01 0.  0.
     999903    2    3    3    0    0  0.10700035550E+00  0.66900213568E-01  0.48784471057E-01  0.13687706134E+00  0.20753087760E-01 0.  0.
         14    1    1    2    0    0 -0.38925078107E-02 -0.60825821538E-02  0.15013179483E-01  0.16659681296E-01  0.00000000000E+00 0.  1.
     999901    1    3    3    0    0 -0.10310784769E+00 -0.60817631414E-01 -0.63797650540E-01  0.89039325736E+00  0.88000000000E+00 0. -1.
        -11    1    4    4    0    0  0.63799132298E-01  0.31642222157E-01  0.19243622905E-01  0.73770845518E-01  0.51100000000E-03 0.  1.
         11    1    4    4    0    0  0.43201223204E-01  0.35257991411E-01  0.29540848153E-01  0.63106215820E-01  0.51100000000E-03 0. -1.
</event>
<event>
 8    1  0.5489035E+004  0.1043930E+01  0.7957747E-01            NaN
         13   -1    0    0    0    0  0.00000000000E+00  0.00000000000E+00  0.74505805969E-08  0.10566000000E+00  0.10566000000E+00 0.  1.
     999900   -1    0    0    0    0 -0.00000000000E+00 -0.00000000000E+00 -0.74505805969E-08  0.93827000000E+00  0.93827000000E+00 0.  1.
     999902    2    1    2    0    0  0.76621157701E-02  0.43665510086E-02  0.24089638057E-01  0.10182768238E+01  0.10179536357E+01 0.  0.
     999903    2    3    3    0    0  0.11019293926E+00 -0.30742221168E-01 -0.53995086155E-01  0.12819681630E+00  0.20769842486E-01 0.  0.
         14    1    1    2    0    0 -0.76621157701E-02 -0.43665510086E-02 -0.24089638057E-01  0.25653176168E-01  0.00000000000E+00 0. -1.
     999901    1    3    3    0    0 -0.10253082349E+00  0.35108772177E-01  0.78084724213E-01  0.89008000753E+00  0.88000000000E+00 0. -1.
        -11    1    4    4    0    0  0.71277238437E-01 -0.11040934233E-01 -0.27714142627E-01  0.77270186816E-01  0.51100000000E-03 0. -1.
         11    1    4    4    0    0  0.38915700819E-01 -0.19701286935E-01 -0.26280943528E-01  0.50926629487E-01  0.51100000000E-03 0.  1.
</event>
<event>
 8    1  0.5489035E+004  0.1043930E+01  0.7957747E-01            NaN
         13   -1    0    0    0    0  0.00000000000E+00  0.00000000000E+00  0.74505805969E-08  0.10566000000E+00  0.10566000000E+00 0.  1.
     999900   -1    0    0    0    0 -0.00000000000E+00 -0.00000000000E+00 -0.74505805969E-08  0.93827000000E+00  0.93827000000E+00 0.  1.
     999902    2    1    2    0    0  0.13538461702E-02  0.18315127419E-01 -0.16356054041E-01  0.10193373731E+01  0.10190406680E+01 0.  0.
     999903    2    3    3    0    0  0.97693353407E-01 -0.70908326113E-01  0.37447452138E-01  0.12796935566E+00  0.20046503552E-01 0.  0.
         14    1    1    2    0    0 -0.13538461702E-02 -0.18315127419E-01  0.16356054041E-01  0.24592626855E-01  0.00000000000E+00 0.  1.
     999901    1    3    3    0    0 -0.96339507237E-01  0.89223453532E-01 -0.53803506180E-01  0.89136801748E+00  0.88000000000E+00 0.  1.
        -11    1    4    4    0    0  0.86989222813E-01 -0.69150154751E-01  0.36911706141E-01  0.11709655827E+00  0.51100000000E-03 0.  1.
         11    1    4    4    0    0  0.10704130595E-01 -0.17581713619E-02  0.53574599766E-03  0.10872797391E-01  0.51100000000E-03 0. -1.
</event>
<event>
 8    1  0.5489035E+004  0.1043930E+01  0.7957747E-01            NaN
         13   -1    0    0    0    0  0.00000000000E+00  0.00000000000E+00  0.74505805969E-08  0.10566000000E+00  0.10566000000E+00 0. -1.
     999900   -1    0    0    0    0 -0.00000000000E+00 -0.00000000000E+00 -0.74505805969E-08  0.93827000000E+00  0.93827000000E+00 0. -1.
     999902    2    1    2    0    0 -0.11892568905E-01 -0.56655534971E-02  0.20424311238E-01  0.10196260048E+01  0.10193363064E+01 0.  0.
     999903    2    3    3    0    0 -0.33443518688E-01  0.70630426798E-01 -0.99340869315E-01  0.12798189504E+00  0.20090570200E-01 0.  0.
         14    1    1    2    0    0  0.11892568905E-01  0.56655534971E-02 -0.20424311238E-01  0.24303995168E-01  0.00000000000E+00 0.  1.
     999901    1    3    3    0    0  0.21550949783E-01 -0.76295980295E-01  0.11976518055E+00  0.89164410979E+00  0.88000000000E+00 0.  1.
        -11    1    4    4    0    0 -0.25803706915E-01  0.38987125708E-01 -0.46673558532E-01  0.66064434067E-01  0.51100000000E-03 0. -1.
         11    1    4    4    0    0 -0.76398117730E-02  0.31643301091E-01 -0.52667310783E-01  0.61917460978E-01  0.51100000000E-03 0.  1.
</event>
<event>
 8    1  0.5489035E+004  0.1043930E+01  0.7957747E-01            NaN
         13   -1    0    0    0    0  0.00000000000E+00  0.00000000000E+00  0.74505805969E-08  0.10566000000E+00  0.10566000000E+00 0. -1.
     999900   -1    0    0    0    0 -0.00000000000E+00 -0.00000000000E+00 -0.74505805969E-08  0.93827000000E+00  0.93827000000E+00 0.  1.
     999902    2    1    2    0    0  0.16136872337E-01 -0.14754700974E-01 -0.99299210023E-02  0.10199153549E+01  0.10196325946E+01 0.  0.
     999903    2    3    3    0    0 -0.23585441781E-01  0.53275481415E-01  0.11275956836E+00  0.12791833763E+00  0.15932070261E-01 0.  0.
         14    1    1    2    0    0 -0.16136872337E-01  0.14754700974E-01  0.99299210023E-02  0.24014645131E-01  0.00000000000E+00 0. -1.
     999901    1    3    3    0    0  0.39722314118E-01 -0.68030182390E-01 -0.12268948936E+00  0.89199701723E+00  0.88000000000E+00 0.  1.
        -11    1    4    4    0    0 -0.41920271733E-02  0.31528256484E-02  0.20295405974E-01  0.20968500805E-01  0.51100000000E-03 0. -1.
         11    1    4    4    0    0 -0.19393414608E-01  0.50122655767E-01  0.92464162385E-01  0.10694983683E+00  0.51100000000E-03 0.  1.
</event>
<event>
 8    1  0.5489035E+004  0.1043930E+01  0.7957747E-01            NaN
         13   -1    0    0    0    0  0.00000000000E+00  0.00000000000E+00  0.74505805969E-08  0.10566000000E+00  0.10566000000E+00 0.  1.
     999900   -1    0    0    0    0 -0.00000000000E+00 -0.00000000000E+00 -0.74505805969E-08  0.93827000000E+00  0.93827000000E+00 0.  1.
     999902    2    1    2    0    0  0.78991824889E-02 -0.33162908205E-02 -0.21611980058E-01  0.10206819345E+01  0.10204171396E+01 0.  0.
     999903    2    3    3    0    0  0.87415694186E-01 -0.62241620869E-01  0.71184189007E-01  0.13028528177E+00  0.19787443554E-01 0.  0.
         14    1    1    2    0    0 -0.78991824889E-02  0.33162908205E-02  0.21611980058E-01  0.23248065528E-01  0.00000000000E+00 0.  1.
     999901    1    3    3    0    0 -0.79516511697E-01  0.58925330048E-01 -0.92796169064E-01  0.89039665270E+00  0.88000000000E+00 0.  1.
        -11    1    4    4    0    0  0.49995805710E-01 -0.38307964108E-01  0.30231026482E-01  0.69865991626E-01  0.51100000000E-03 0.  1.
         11    1    4    4    0    0  0.37419888476E-01 -0.23933656760E-01  0.40953162525E-01  0.60419290142E-01  0.51100000000E-03 0. -1.
</event>
<event>
 8    1  0.5489035E+004  0.1043930E+01  0.7957747E-01            NaN
         13   -1    0    0    0    0  0.00000000000E+00  0.00000000000E+00  0.74505805969E-08  0.10566000000E+00  0.10566000000E+00 0.  1.
     999900   -1    0    0    0    0 -0.00000000000E+00 -0.00000000000E+00 -0.74505805969E-08  0.93827000000E+00  0.93827000000E+00 0. -1.
     999902    2    1    2    0    0 -0.16646705567E-02 -0.37000428148E-02  0.23042208846E-01  0.10205333158E+01  0.10202650850E+01 0.  0.
     999903    2    3    3    0    0  0.38956647357E-02 -0.10403664050E+00  0.80166562062E-01  0.13297399837E+00  0.20410972514E-01 0.  0.
         14    1    1    2    0    0  0.16646705567E-02  0.37000428148E-02 -0.23042208846E-01  0.23396684240E-01  0.00000000000E+00 0. -1.
     999901    1    3    3    0    0 -0.55603352923E-02  0.10033659768E+00 -0.57124353216E-01  0.88755931739E+00  0.88000000000E+00 0.  1.
        -11    1    4    4    0    0  0.52026117818E-02 -0.65841033997E-01  0.62255404475E-01  0.90764009577E-01  0.51100000000E-03 0.  1.
         11    1    4    4    0    0 -0.13069470462E-02 -0.38195606499E-01  0.17911157588E-01  0.42209988789E-01  0.51100000000E-03 0. -1.
</event>
<event>
 8    1  0.5489035E+004  0.1043930E+01  0.7957747E-01            NaN
         13   -1    0    0    0    0  0.00000000000E+00  0.00000000000E+00  0.74505805969E-08  0.10566000000E+00  0.10566000000E+00 0. -1.
     999900   -1    0    0    0    0 -0.00000000000E+00 -0.00000000000E+00 -0.74505805969E-08  0.93827000000E+00  0.93827000000E+00 0. -1.
     999902    2    1    2    0    0  0.25678308907E-01  0.19018062750E-02  0.24347050570E-02  0.10180665083E+01  0.10177379304E+01 0.  0.
     999903    2    3    3    0    0  0.64340209568E-01  0.81784649427E-01  0.76112027454E-01  0.13053940501E+00  0.20472031861E-01 0.  0.
         14    1    1    2    0    0 -0.25678308907E-01 -0.19018062750E-02 -0.24347050570E-02  0.25863491724E-01  0.00000000000E+00 0. -1.
     999901    1    3    3    0    0 -0.38661900661E-01 -0.79882843152E-01 -0.73677322398E-01  0.88752710326E+00  0.88000000000E+00 0. -1.
        -11    1    4    4    0    0  0.17848774927E-01  0.26950311202E-01  0.35314545582E-01  0.47877722282E-01  0.51100000000E-03 0. -1.
         11    1    4    4    0    0  0.46491434641E-01  0.54834338226E-01  0.40797481872E-01  0.82661682730E-01  0.51100000000E-03 0.  1.
</event>
<event>
 8    1  0.5489035E+004  0.1043930E+01  0.7957747E-01            NaN
         13   -1    0    0    0    0  0.00000000000E+00  0.00000000000E+00  0.74505805969E-08  0.10566000000E+00  0.10566000000E+00 0.  1.
     999900   -1    0    0    0    0 -0.00000000000E+00 -0.00000000000E+00 -0.74505805969E-08  0.93827000000E+00  0.93827000000E+00 0. -1.
     999902    2    1    2    0    0  0.58181808389E-02  0.50473783484E-02  0.22456466281E-01  0.10201893148E+01  0.10199130443E+01 0.  0.
     999903    2    3    3    0    0  0.16668901500E-01  0.93302257800E-01  0.91194441307E-01  0.13304131637E+00  0.20010051196E-01 0.  0.
         14    1    1    2    0    0 -0.58181808389E-02 -0.50473783484E-02 -0.22456466281E-01  0.23740685211E-01  0.00000000000E+00 0. -1.
     999901    1    3    3    0    0 -0.10850720661E-01 -0.88254879451E-01 -0.68737975026E-01  0.88714799842E+00  0.88000000000E+00 0. -1.
        -11    1    4    4    0    0  0.72593791502E-02  0.35006451428E-01  0.21614638682E-01  0.41780425484E-01  0.51100000000E-03 0.  1.
         11    1    4    4    0    0  0.94095223496E-02  0.58295806372E-01  0.69579802625E-01  0.91260890888E-01  0.51100000000E-03 0. -1.
</event>
<event>
 8    1  0.5489035E+004  0.1043930E+01  0.7957747E-01            NaN
         13   -1    0    0    0    0  0.00000000000E+00  0.00000000000E+00  0.74505805969E-08  0.10566000000E+00  0.10566000000E+00 0. -1.
     999900   -1    0    0    0    0 -0.00000000000E+00 -0.00000000000E+00 -0.74505805969E-08  0.93827000000E+00  0.93827000000E+00 0. -1.
     999902    2    1    2    0    0  0.11324846426E-01 -0.11050890835E-01  0.17768867656E-01  0.10201369970E+01  0.10198594931E+01 0.  0.
     999903    2    3    3    0    0 -0.10673941835E+00 -0.59918271365E-01 -0.36779064095E-01  0.12923707648E+00  0.19131641506E-01 0.  0.
         14    1    1    2    0    0 -0.11324846426E-01  0.11050890835E-01 -0.17768867656E-01  0.23793003018E-01  0.00000000000E+00 0.  1.
     999901    1    3    3    0    0  0.11806426478E+00  0.48867380531E-01  0.54547931751E-01  0.89089992051E+00  0.88000000000E+00 0.  1.
        -11    1    4    4    0    0 -0.90394129619E-01 -0.58021565374E-01 -0.31185958793E-01  0.11185001504E+00  0.51100000000E-03 0. -1.
         11    1    4    4    0    0 -0.16345288735E-01 -0.18967059918E-02 -0.55931053019E-02  0.17387061435E-01  0.51100000000E-03 0.  1.
</event>
<event>
 8    1  0.5489035E+004  0.1043930E+01  0.7957747E-01            NaN
         13   -1    0    0    0    0  0.00000000000E+00  0.00000000000E+00  0.74505805969E-08  0.10566000000E+00  0.10566000000E+00 0. -1.
     999900   -1    0    0    0    0 -0.00000000000E+00 -0.00000000000E+00 -0.74505805969E-08  0.93827000000E+00  0.93827000000E+00 0. -1.
     999902    2    1    2    0    0 -0.11363923805E-01  0.20663295728E-01 -0.28189749500E-02  0.10201801121E+01  0.10199036249E+01 0.  0.
     999903    2    3    3    0    0 -0.67914708361E-02 -0.12205279790E+00 -0.32902549791E-01  0.12816340141E+00  0.20006752028E-01 0.  0.
         14    1    1    2    0    0  0.11363923805E-01 -0.20663295728E-01  0.28189749500E-02  0.23749887881E-01  0.00000000000E+00 0. -1.
     999901    1    3    3    0    0 -0.45724529686E-02  0.14271609363E+00  0.30083574841E-01  0.89201671071E+00  0.88000000000E+00 0.  1.
        -11    1    4    4    0    0  0.52989681290E-02 -0.44073861394E-01 -0.60345099989E-02  0.44802463697E-01  0.51100000000E-03 0. -1.
         11    1    4    4    0    0 -0.12090438965E-01 -0.77978936508E-01 -0.26868039792E-01  0.83360937714E-01  0.51100000000E-03 0.  1.
</event>
<event>
 8    1  0.5489035E+004  0.1043930E+01  0.7957747E-01            NaN
         13   -1    0    0    0    0  0.00000000000E+00  0.00000000000E+00  0.74505805969E-08  0.10566000000E+00  0.10566000000E+00 0.  1.
     999900   -1    0    0    0    0 -0.00000000000E+00 -0.00000000000E+00 -0.74505805969E-08  0.93827000000E+00  0.93827000000E+00 0.  1.
     999902    2    1    2    0    0 -0.16255677778E-01 -0.16933605315E-01 -0.22916542804E-02  0.10203451377E+01  0.10200725241E+01 0.  0.
     999903    2    3    3    0    0  0.24404145612E-01  0.47933418798E-01 -0.11628710170E+00  0.12969598453E+00  0.20129168448E-01 0.  0.
         14    1    1    2    0    0  0.16255677778E-01  0.16933605315E-01  0.22916542804E-02  0.23584862270E-01  0.00000000000E+00 0. -1.
     999901    1    3    3    0    0 -0.40659823390E-01 -0.64867024112E-01  0.11399544742E+00  0.89064915320E+00  0.88000000000E+00 0. -1.
        -11    1    4    4    0    0  0.96182094824E-02  0.32845554591E-01 -0.87729603266E-01  0.94170509292E-01  0.51100000000E-03 0. -1.
         11    1    4    4    0    0  0.14785936130E-01  0.15087864207E-01 -0.28557498431E-01  0.35525475243E-01  0.51100000000E-03 0.  1.
</event>
<event>
 8    1  0.5489035E+004  0.1043930E+01  0.7957747E-01            NaN
         13   -1    0    0    0    0  0.00000000000E+00  0.00000000000E+00  0.74505805969E-08  0.10566000000E+00  0.10566000000E+00 0. -1.
     999900   -1    0    0    0    0 -0.00000000000E+00 -0.00000000000E+00 -0.74505805969E-08  0.93827000000E+00  0.93827000000E+00 0. -1.
     999902    2    1    2    0    0 -0.17308983384E-01 -0.18122572048E-01 -0.70331084036E-02  0.10179013017E+01  0.10175684580E+01 0.  0.
     999903    2    3    3    0    0 -0.90871874208E-01  0.86104777481E-01  0.20067589651E-01  0.12828942723E+00  0.19589251060E-01 0.  0.
         14    1    1    2    0    0  0.17308983384E-01  0.18122572048E-01  0.70331084036E-02  0.26028698339E-01  0.00000000000E+00 0. -1.
     999901    1    3    3    0    0  0.73562890823E-01 -0.10422734953E+00 -0.27100698055E-01  0.88961187443E+00  0.88000000000E+00 0. -1.
        -11    1    4    4    0    0 -0.79349324952E-01  0.74313232129E-01  0.10500934619E-01  0.10922134676E+00  0.51100000000E-03 0. -1.
         11    1    4    4    0    0 -0.11522549256E-01  0.11791545352E-01  0.95666550322E-02  0.19068080466E-01  0.51100000000E-03 0.  1.
</event>
<event>
 8    1  0.5489035E+004  0.1043930E+01  0.7957747E-01            NaN
         13   -1    0    0    0    0  0.00000000000E+00  0.00000000000E+00  0.74505805969E-08  0.10566000000E+00  0.10566000000E+00 0. -1.
     999900   -1    0    0    0    0 -0.00000000000E+00 -0.00000000000E+00 -0.74505805969E-08  0.93827000000E+00  0.93827000000E+00 0. -1.
     999902    2    1    2    0    0  0.10027456520E-01 -0.22622623734E-01 -0.71138771670E-02  0.10181823741E+01  0.10178567713E+01 0.  0.
     999903    2    3    3    0    0 -0.95453383161E-01  0.73908020405E-01  0.29483052535E-01  0.12589110552E+00  0.20138923142E-01 0.  0.
         14    1    1    2    0    0 -0.10027456520E-01  0.22622623734E-01  0.71138771670E-02  0.25747625856E-01  0.00000000000E+00 0. -1.
     999901    1    3    3    0    0  0.10548083968E+00 -0.96530644139E-01 -0.36596929702E-01  0.89229126862E+00  0.88000000000E+00 0.  1.
        -11    1    4    4    0    0 -0.59474461815E-01  0.37104939544E-01  0.24150598204E-01  0.74145132418E-01  0.51100000000E-03 0.  1.
         11    1    4    4    0    0 -0.35978921347E-01  0.36803080861E-01  0.53324543312E-02  0.51745973103E-01  0.51100000000E-03 0. -1.
</event>
<event>
 8    1  0.5489035E+004  0.1043930E+01  0.7957747E-01            NaN
         13   -1    0    0    0    0  0.00000000000E+00  0.00000000000E+00  0.74505805969E-08  0.10566000000E+00  0.10566000000E+00 0. -1.
     999900   -1    0    0    0    0 -0.00000000000E+00 -0.00000000000E+00 -0.74505805969E-08  0.93827000000E+00  0.93827000000E+00 0. -1.
     999902    2    1    2    0    0  0.40783291844E-02  0.58648099598E-02 -0.22253818203E-01  0.10205577688E+01  0.10202901050E+01 0.  0.
     999903    2    3    3    0    0 -0.19999302965E-01  0.20907894751E-01 -0.12951459491E+00  0.13359051973E+00  0.15338985799E-01 0.  0.
         14    1    1    2    0    0 -0.40783291844E-02 -0.58648099598E-02  0.22253818203E-01  0.23372231160E-01  0.00000000000E+00 0. -1.
     999901    1    3    3    0    0  0.24077632150E-01 -0.15043084792E-01  0.10726077671E+00  0.88696724911E+00  0.88000000000E+00 0.  1.
        -11    1    4    4    0    0 -0.13898201185E-01  0.22401599850E-01 -0.10070620283E+00  0.10410087455E+00  0.51100000000E-03 0.  1.
         11    1    4    4    0    0 -0.61011017800E-02 -0.14937050989E-02 -0.28808392080E-01  0.29489645185E-01  0.51100000000E-03 0. -1.
</event>
<event>
 8    1  0.5489035E+004  0.1043930E+01  0.7957747E-01            NaN
         13   -1    0    0    0    0  0.00000000000E+00  0.00000000000E+00  0.74505805969E-08  0.10566000000E+00  0.10566000000E+00 0.  1.
     999900   -1    0    0    0    0 -0.00000000000E+00 -0.00000000000E+00 -0.74505805969E-08  0.93827000000E+00  0.93827000000E+00 0. -1.
     999902    2    1    2    0    0  0.38431805272E-02  0.10359746801E-01 -0.18756299138E-01  0.10221609130E+01  0.10219290773E+01 0.  0.
     999903    2    3    3    0    0 -0.35696130171E-01  0.40933798529E-01  0.11653829557E+00  0.13041949474E+00  0.21869629660E-01 0.  0.
         14    1    1    2    0    0 -0.38431805272E-02 -0.10359746801E-01  0.18756299138E-01  0.21769086974E-01  0.00000000000E+00 0.  1.
     999901    1    3    3    0    0  0.39539310698E-01 -0.30574051728E-01 -0.13529459471E+00  0.89174141829E+00  0.88000000000E+00 0. -1.
        -11    1    4    4    0    0 -0.17096133309E-01  0.20827164676E-01  0.33593947582E-01  0.43068120434E-01  0.51100000000E-03 0. -1.
         11    1    4    4    0    0 -0.18599996861E-01  0.20106633853E-01  0.82944347993E-01  0.87351374305E-01  0.51100000000E-03 0.  1.
</event>
<event>
 8    1  0.5489035E+004  0.1043930E+01  0.7957747E-01            NaN
         13   -1    0    0    0    0  0.00000000000E+00  0.00000000000E+00  0.74505805969E-08  0.10566000000E+00  0.10566000000E+00 0. -1.
     999900   -1    0    0    0    0 -0.00000000000E+00 -0.00000000000E+00 -0.74505805969E-08  0.93827000000E+00  0.93827000000E+00 0.  1.
     999902    2    1    2    0    0  0.78384076864E-02  0.15212626681E-01 -0.16751227511E-01  0.10199828025E+01  0.10197016471E+01 0.  0.
     999903    2    3    3    0    0 -0.66403562308E-01  0.80084638968E-01  0.74886923250E-01  0.12974811502E+00  0.20088294920E-01 0.  0.
         14    1    1    2    0    0 -0.78384076864E-02 -0.15212626681E-01  0.16751227511E-01  0.23947197512E-01  0.00000000000E+00 0. -1.
     999901    1    3    3    0    0  0.74241969994E-01 -0.64872012288E-01 -0.91638150761E-01  0.89023468746E+00  0.88000000000E+00 0.  1.
        -11    1    4    4    0    0 -0.50036711888E-01  0.65546565616E-01  0.49326050060E-01  0.96090296784E-01  0.51100000000E-03 0.  1.
         11    1    4    4    0    0 -0.16366850420E-01  0.14538073353E-01  0.25560873191E-01  0.33657818241E-01  0.51100000000E-03 0. -1.
</event>
<event>
 8    1  0.5489035E+004  0.1043930E+01  0.7957747E-01            NaN
         13   -1    0    0    0    0  0.00000000000E+00  0.00000000000E+00  0.74505805969E-08  0.10566000000E+00  0.10566000000E+00 0. -1.
     999900   -1    0    0    0    0 -0.00000000000E+00 -0.00000000000E+00 -0.74505805969E-08  0.93827000000E+00  0.93827000000E+00 0. -1.
     999902    2    1    2    0    0  0.18848169316E-01 -0.14743032650E-01  0.13638943230E-02  0.10199618815E+01  0.10196802288E+01 0.  0.
     999903    2    3    3    0    0  0.90291829393E-01  0.84916816492E-01  0.36476886783E-01  0.13076606257E+00  0.20142484294E-01 0.  0.
         14    1    1    2    0    0 -0.18848169316E-01  0.14743032650E-01 -0.13638943230E-02  0.23968118533E-01  0.00000000000E+00 0. -1.
     999901    1    3    3    0    0 -0.71443660077E-01 -0.99659849142E-01 -0.35112992460E-01  0.88919581889E+00  0.88000000000E+00 0.  1.
        -11    1    4    4    0    0  0.52596439041E-01  0.52761298954E-01  0.11863185303E-01  0.75439620583E-01  0.51100000000E-03 0.  1.
         11    1    4    4    0    0  0.37695390352E-01  0.32155517538E-01  0.24613701479E-01  0.55326441992E-01  0.51100000000E-03 0. -1.
</event>
<event>
 8    1  0.5489035E+004  0.1043930E+01  0.7957747E-01            NaN
         13   -1    0    0    0    0  0.00000000000E+00  0.00000000000E+00  0.74505805969E-08  0.10566000000E+00  0.10566000000E+00 0. -1.
     999900   -1    0    0    0    0 -0.00000000000E+00 -0.00000000000E+00 -0.74505805969E-08  0.93827000000E+00  0.93827000000E+00 0.  1.
     999902    2    1    2    0    0  0.12712359242E-01 -0.10310973667E-01 -0.16618774743E-01  0.10206039646E+01  0.10203373700E+01 0.  0.
     999903    2    3    3    0    0 -0.80016424400E-01 -0.73742661540E-01 -0.71256473195E-01  0.13178031251E+00  0.21165006244E-01 0.  0.
         14    1    1    2    0    0 -0.12712359242E-01  0.10310973667E-01  0.16618774743E-01  0.23326035441E-01  0.00000000000E+00 0. -1.
     999901    1    3    3    0    0  0.92728783642E-01  0.63431687874E-01  0.54637698452E-01  0.88882365204E+00  0.88000000000E+00 0. -1.
        -11    1    4    4    0    0 -0.62297551751E-01 -0.47354815108E-01 -0.43231588840E-01  0.89401872814E-01  0.51100000000E-03 0. -1.
         11    1    4    4    0    0 -0.17718872650E-01 -0.26387846432E-01 -0.28024884355E-01  0.42378439700E-01  0.51100000000E-03 0.  1.
</event>
<event>
 8    1  0.5489035E+004  0.1043930E+01  0.7957747E-01            NaN
         13   -1    0    0    0    0  0.00000000000E+00  0.00000000000E+00  0.74505805969E-08  0.10566000000E+00  0.10566000000E+00 0. -1.
     999900   -1    0    0    0    0 -0.00000000000E+00 -0.00000000000E+00 -0.74505805969E-08  0.93827000000E+00  0.93827000000E+00 0.  1.
     999902    2    1    2    0    0  0.11062094112E-02  0.22677931783E-01 -0.94326228860E-03  0.10212055191E+01  0.10209526483E+01 0.  0.
     999903    2    3    3    0    0 -0.55780436369E-01 -0.10281288012E+00 -0.50861796936E-01  0.12908675208E+00  0.19862572193E-01 0.  0.
         14    1    1    2    0    0 -0.11062094112E-02 -0.22677931783E-01  0.94326228860E-03  0.22724480917E-01  0.00000000000E+00 0. -1.
     999901    1    3    3    0    0  0.56886645780E-01  0.12549081190E+00  0.49918534647E-01  0.89211876700E+00  0.88000000000E+00 0. -1.
        -11    1    4    4    0    0 -0.23039540461E-01 -0.56436350478E-01 -0.34306616785E-01  0.69950605116E-01  0.51100000000E-03 0. -1.
         11    1    4    4    0    0 -0.32740895908E-01 -0.46376529644E-01 -0.16555180151E-01  0.59136146962E-01  0.51100000000E-03 0.  1.
</event>
<event>
 8    1  0.5489035E+004  0.1043930E+01  0.7957747E-01            NaN
         13   -1    0    0    0    0  0.00000000000E+00  0.00000000000E+00  0.74505805969E-08  0.10566000000E+00  0.10566000000E+00 0.  1.
     999900   -1    0    0    0    0 -0.00000000000E+00 -0.00000000000E+00 -0.74505805969E-08  0.93827000000E+00  0.93827000000E+00 0.  1.
     999902    2    1    2    0    0  0.17608649851E-01  0.66657379511E-02  0.14269003961E-01  0.10203058368E+01  0.10200323032E+01 0.  0.
     999903    2    3    3    0    0 -0.83884600721E-01  0.77641706360E-01  0.59621590916E-01  0.13047701893E+00  0.20116102020E-01 0.  0.
         14    1    1    2    0    0 -0.17608649851E-01 -0.66657379511E-02 -0.14269003961E-01  0.23624163182E-01  0.00000000000E+00 0.  1.
     999901    1    3    3    0    0  0.10149325057E+00 -0.70975968409E-01 -0.45352586954E-01  0.88982881789E+00  0.88000000000E+00 0.  1.
        -11    1    4    4    0    0 -0.77878672791E-01  0.63750716748E-01  0.48712231214E-01  0.11181406062E+00  0.51100000000E-03 0. -1.
         11    1    4    4    0    0 -0.60059279302E-02  0.13890989612E-01  0.10909359701E-01  0.18662958308E-01  0.51100000000E-03 0.  1.
</event>
<event>
 8    1  0.5489035E+004  0.1043930E+01  0.7957747E-01            NaN
         13   -1    0    0    0    0  0.00000000000E+00  0.00000000000E+00  0.74505805969E-08  0.10566000000E+00  0.10566000000E+00 0.  1.
     999900   -1    0    0    0    0 -0.00000000000E+00 -0.00000000000E+00 -0.74505805969E-08  0.93827000000E+00  0.93827000000E+00 0.  1.
     999902    2    1    2    0    0  0.79089445786E-02 -0.12995380043E-01  0.98305409825E-02  0.10258172740E+01  0.10256573545E+01 0.  0.
     999903    2    3    3    0    0  0.12566310286E+00  0.30460537611E-01 -0.36184865382E-01  0.13572071959E+00  0.19791651560E-01 0.  0.
         14    1    1    2    0    0 -0.79089445786E-02  0.12995380043E-01 -0.98305409825E-02  0.18112725991E-01  0.00000000000E+00 0. -1.
     999901    1    3    3    0    0 -0.11775415828E+00 -0.43455917654E-01  0.46015406364E-01  0.89009655442E+00  0.88000000000E+00 0. -1.
        -11    1    4    4    0    0  0.74504984581E-01  0.91601515615E-02 -0.16093711157E-01  0.76773496494E-01  0.51100000000E-03 0.  1.
         11    1    4    4    0    0  0.51158118276E-01  0.21300386050E-01 -0.20091154225E-01  0.58947223094E-01  0.51100000000E-03 0. -1.
</event>
<event>
 8    1  0.5489035E+004  0.1043930E+01  0.7957747E-01            NaN
         13   -1    0    0    0    0  0.00000000000E+00  0.00000000000E+00  0.74505805969E-08  0.10566000000E+00  0.10566000000E+00 0.  1.
     999900   -1    0    0    0    0 -0.00000000000E+00 -0.00000000000E+00 -0.74505805969E-08  0.93827000000E+00  0.93827000000E+00 0. -1.
     999902    2    1    2    0    0  0.15525109740E-01  0.94273541493E-02  0.13203160212E-01  0.10214749899E+01  0.10212281467E+01 0.  0.
     999903    2    3    3    0    0 -0.73367577821E-01  0.10690647751E+00 -0.62192755347E-02  0.13142930546E+00  0.20571498180E-01 0.  0.
         14    1    1    2    0    0 -0.15525109740E-01 -0.94273541493E-02 -0.13203160212E-01  0.22455010093E-01  0.00000000000E+00 0. -1.
     999901    1    3    3    0    0  0.88892687560E-01 -0.97479123357E-01  0.19422435747E-01  0.89004568445E+00  0.88000000000E+00 0. -1.
        -11    1    4    4    0    0 -0.23093090819E-01  0.34148114928E-01  0.75854139667E-02  0.41918781265E-01  0.51100000000E-03 0. -1.
         11    1    4    4    0    0 -0.50274487002E-01  0.72758362579E-01 -0.13804689501E-01  0.89510524195E-01  0.51100000000E-03 0.  1.
</event>
<event>
 8    1  0.5489035E+004  0.1043930E+01  0.7957747E-01            NaN
         13   -1    0    0    0    0  0.00000000000E+00  0.00000000000E+00  0.74505805969E-08  0.10566000000E+00  0.10566000000E+00 0. -1.
     999900   -1    0    0    0    0 -0.00000000000E+00 -0.00000000000E+00 -0.74505805969E-08  0.93827000000E+00  0.93827000000E+00 0.  1.
     999902    2    1    2    0    0 -0.22313147260E-01  0.37900929396E-02 -0.79921388964E-02  0.10199275912E+01  0.10196451224E+01 0.  0.
     999903    2    3    3    0    0 -0.32637863512E-02 -0.77244321447E-01  0.10174908958E+00  0.12921293895E+00  0.19125084701E-01 0.  0.
         14    1    1    2    0    0  0.22313147260E-01 -0.37900929396E-02  0.79921388964E-02  0.24002408823E-01  0.00000000000E+00 0.  1.
     999901    1    3    3    0    0 -0.19049360909E-01  0.81034414386E-01 -0.10974122847E+00  0.89071465223E+00  0.88000000000E+00 0.  1.
        -11    1    4    4    0    0  0.63774963378E-02 -0.30128945730E-01  0.31306117900E-01  0.43917649861E-01  0.51100000000E-03 0.  1.
         11    1    4    4    0    0 -0.96412826891E-02 -0.47115375717E-01  0.70442971678E-01  0.85295289088E-01  0.51100000000E-03 0. -1.
</event>
<event>
 8    1  0.5489035E+004  0.1043930E+01  0.7957747E-01            NaN
         13   -1    0    0    0    0  0.00000000000E+00  0.00000000000E+00  0.74505805969E-08  0.10566000000E+00  0.10566000000E+00 0.  1.
     999900   -1    0    0    0    0 -0.00000000000E+00 -0.00000000000E+00 -0.74505805969E-08  0.93827000000E+00  0.93827000000E+00 0. -1.
     999902    2    1    2    0    0  0.10236288153E-01  0.16696864174E-01 -0.13347420848E-01  0.10202293563E+01  0.10199540279E+01 0.  0.
     999903    2    3    3    0    0  0.31603344074E-01 -0.12039778034E+00 -0.27693647865E-01  0.12924265221E+00  0.21031598908E-01 0.  0.
         14    1    1    2    0    0 -0.10236288153E-01 -0.16696864174E-01  0.13347420848E-01  0.23700643698E-01  0.00000000000E+00 0. -1.
     999901    1    3    3    0    0 -0.21367055921E-01  0.13709464451E+00  0.14346227017E-01  0.89098670409E+00  0.88000000000E+00 0.  1.
        -11    1    4    4    0    0  0.26401609721E-01 -0.60694931034E-01 -0.17335040406E-01  0.68422835340E-01  0.51100000000E-03 0.  1.
         11    1    4    4    0    0  0.52017343534E-02 -0.59702849302E-01 -0.10358607459E-01  0.60819816874E-01  0.51100000000E-03 0. -1.
</event>
<event>
 8    1  0.5489035E+004  0.1043930E+01  0.7957747E-01            NaN
         13   -1    0    0    0    0  0.00000000000E+00  0.00000000000E+00  0.74505805969E-08  0.10566000000E+00  0.10566000000E+00 0.  1.
     999900   -1    0    0    0    0 -0.00000000000E+00 -0.00000000000E+00 -0.74505805969E-08  0.93827000000E+00  0.93827000000E+00 0.  1.
     999902    2    1    2    0    0 -0.25163284046E-01 -0.25649257692E-01  0.38871161595E-03  0.10079963614E+01  0.10073556662E+01 0.  0.
     999903    2    3    3    0    0 -0.43948780478E-02 -0.12072116911E-01 -0.11736963450E+00  0.11980567609E+00  0.20315461156E-01 0.  0.
         14    1    1    2    0    0  0.25163284046E-01  0.25649257692E-01 -0.38871161595E-03  0.35933638569E-01  0.00000000000E+00 0. -1.
     999901    1    3    3    0    0 -0.20768405998E-01 -0.13577140781E-01  0.11775834612E+00  0.88819068534E+00  0.88000000000E+00 0. -1.
        -11    1    4    4    0    0  0.65868155464E-02 -0.61560921304E-02 -0.77572250204E-01  0.78096086535E-01  0.51100000000E-03 0.  1.
         11    1    4    4    0    0 -0.10981693594E-01 -0.59160247805E-02 -0.39797384295E-01  0.41709589558E-01  0.51100000000E-03 0. -1.
</event>
<event>
 8    1  0.5489035E+004  0.1043930E+01  0.7957747E-01            NaN
         13   -1    0    0    0    0  0.00000000000E+00  0.00000000000E+00  0.74505805969E-08  0.10566000000E+00  0.10566000000E+00 0. -1.
     999900   -1    0    0    0    0 -0.00000000000E+00 -0.00000000000E+00 -0.74505805969E-08  0.93827000000E+00  0.93827000000E+00 0. -1.
     999902    2    1    2    0    0 -0.11861842241E-01 -0.20298839601E-01  0.94936615988E-03  0.10204002850E+01  0.10201289596E+01 0.  0.
     999903    2    3    3    0    0  0.76433797378E-01  0.10019744840E+00 -0.39434989366E-03  0.12781007616E+00  0.21298028272E-01 0.  0.
         14    1    1    2    0    0  0.11861842241E-01  0.20298839601E-01 -0.94936615988E-03  0.23529714971E-01  0.00000000000E+00 0.  1.
     999901    1    3    3    0    0 -0.88295639619E-01 -0.12049628800E+00  0.13437160535E-02  0.89259020887E+00  0.88000000000E+00 0. -1.
        -11    1    4    4    0    0  0.55867235862E-01  0.79342018023E-01 -0.85109684062E-02  0.97411506358E-01  0.51100000000E-03 0.  1.
         11    1    4    4    0    0  0.20566561516E-01  0.20855430378E-01  0.81166185125E-02  0.30398569801E-01  0.51100000000E-03 0. -1.
</event>
<event>
 8    1  0.5489035E+004  0.1043930E+01  0.7957747E-01            NaN
         13   -1    0    0    0    0  0.00000000000E+00  0.00000000000E+00  0.74505805969E-08  0.10566000000E+00  0.10566000000E+00 0.  1.
     999900   -1    0    0    0    0 -0.00000000000E+00 -0.00000000000E+00 -0.74505805969E-08  0.93827000000E+00  0.93827000000E+00 0. -1.
     999902    2    1    2    0    0 -0.11888092230E-01 -0.19825683996E-01  0.55022074897E-03  0.10208066952E+01  0.10205447671E+01 0.  0.
     999903    2    3    3    0    0 -0.36023641516E-02 -0.12120981916E+00 -0.51925223287E-01  0.13339412575E+00  0.19823387295E-01 0.  0.
         14    1    1    2    0    0  0.11888092230E-01  0.19825683996E-01 -0.55022074897E-03  0.23123304817E-01  0.00000000000E+00 0. -1.
     999901    1    3    3    0    0 -0.82857280787E-02  0.10138413516E+00  0.52475444036E-01  0.88741256943E+00  0.88000000000E+00 0. -1.
        -11    1    4    4    0    0 -0.79892324209E-02 -0.51143357992E-01 -0.14122648800E-01  0.53658002492E-01  0.51100000000E-03 0. -1.
         11    1    4    4    0    0  0.43868682693E-02 -0.70066461169E-01 -0.37802574487E-01  0.79736123262E-01  0.51100000000E-03 0.  1.
</event>
<event>
 8    1  0.5489035E+004  0.1043930E+01  0.7957747E-01            NaN
         13   -1    0    0    0    0  0.00000000000E+00  0.00000000000E+00  0.74505805969E-08  0.10566000000E+00  0.10566000000E+00 0.  1.
     999900   -1    0    0    0    0 -0.00000000000E+00 -0.00000000000E+00 -0.74505805969E-08  0.93827000000E+00  0.93827000000E+00 0. -1.
     999902    2    1    2    0    0 -0.23241722538E-01 -0.28122251674E-04  0.69155206126E-02  0.10196812293E+01  0.10193928617E+01 0.  0.
     999903    2    3    3    0    0 -0.11035362525E+00  0.64726285026E-01 -0.27179718503E-01  0.13235710460E+00  0.20303976479E-01 0.  0.
         14    1    1    2    0    0  0.23241722538E-01  0.28122251674E-04 -0.69155206126E-02  0.24248770747E-01  0.00000000000E+00 0. -1.
     999901    1    3    3    0    0  0.87111902716E-01 -0.64754407277E-01  0.34095239116E-01  0.88732412465E+00  0.88000000000E+00 0. -1.
        -11    1    4    4    0    0 -0.80795033634E-01  0.36608482573E-01 -0.20017404996E-01  0.90933910506E-01  0.51100000000E-03 0. -1.
         11    1    4    4    0    0 -0.29558591620E-01  0.28117802453E-01 -0.71623135074E-02  0.41423194096E-01  0.51100000000E-03 0.  1.
</event>
<event>
 8    1  0.5489035E+004  0.1043930E+01  0.7957747E-01            NaN
         13   -1    0    0    0    0  0.00000000000E+00  0.00000000000E+00  0.74505805969E-08  0.10566000000E+00  0.10566000000E+00 0.  1.
     999900   -1    0    0    0    0 -0.00000000000E+00 -0.00000000000E+00 -0.74505805969E-08  0.93827000000E+00  0.93827000000E+00 0.  1.
     999902    2    1    2    0    0  0.14222523681E-01 -0.18562441208E-01 -0.35219801051E-02  0.10202815593E+01  0.10200074566E+01 0.  0.
     999903    2    3    3    0    0 -0.12176267481E+00 -0.13175434773E-01 -0.36198637124E-01  0.12922109112E+00  0.19697918730E-01 0.  0.
         14    1    1    2    0    0 -0.14222523681E-01  0.18562441208E-01  0.35219801051E-02  0.23648440695E-01  0.00000000000E+00 0. -1.
     999901    1    3    3    0    0  0.13598519849E+00 -0.53870064356E-02  0.32676657019E-01  0.89106046818E+00  0.88000000000E+00 0. -1.
        -11    1    4    4    0    0 -0.59953880865E-01 -0.10475271161E-02 -0.26216226024E-01  0.65445525224E-01  0.51100000000E-03 0.  1.
         11    1    4    4    0    0 -0.61808793945E-01 -0.12127907656E-01 -0.99824111000E-02  0.63775565896E-01  0.51100000000E-03 0. -1.
</event>
<event>
 8    1  0.5489035E+004  0.1043930E+01  0.7957747E-01            NaN
         13   -1    0    0    0    0  0.00000000000E+00  0.00000000000E+00  0.74505805969E-08  0.10566000000E+00  0.10566000000E+00 0. -1.
     999900   -1    0    0    0    0 -0.00000000000E+00 -0.00000000000E+00 -0.74505805969E-08  0.93827000000E+00  0.93827000000E+00 0.  1.
     999902    2    1    2    0    0 -0.13556721466E-01  0.19279114004E-01  0.93973888861E-03  0.10203428840E+01  0.10200702176E+01 0.  0.
     999903    2    3    3    0    0 -0.31656168336E-01  0.12254933373E+00 -0.36536372581E-01  0.13332722052E+00  0.20513142623E-01 0.  0.
         14    1    1    2    0    0  0.13556721466E-01 -0.19279114004E-01 -0.93973888861E-03  0.23587116036E-01  0.00000000000E+00 0. -1.
     999901    1    3    3    0    0  0.18099446871E-01 -0.10327021972E+00  0.37476111469E-01  0.88701566344E+00  0.88000000000E+00 0. -1.
        -11    1    4    4    0    0 -0.21730547505E-01  0.47362989195E-01 -0.10642940344E-01  0.53188370350E-01  0.51100000000E-03 0. -1.
         11    1    4    4    0    0 -0.99256208316E-02  0.75186344533E-01 -0.25893432236E-01  0.80138850174E-01  0.51100000000E-03 0.  1.
</event>
<event>
 8    1  0.5489035E+004  0.1043930E+01  0.7957747E-01            NaN
         13   -1    0    0    0    0  0.00000000000E+00  0.00000000000E+00  0.74505805969E-08  0.10566000000E+00  0.10566000000E+00 0. -1.
     999900   -1    0    0    0    0 -0.00000000000E+00 -0.00000000000E+00 -0.74505805969E-08  0.93827000000E+00  0.93827000000E+00 0.  1.
     999902    2    1    2    0    0 -0.13373147851E-01  0.19875506354E-01 -0.24823913427E-01  0.10094321230E+01  0.10088424592E+01 0.  0.
     999903    2    3    3    0    0  0.34425445203E-01 -0.41648370562E-01  0.10196623069E+00  0.11693807065E+00  0.18913014481E-01 0.  0.
         14    1    1    2    0    0  0.13373147851E-01 -0.19875506354E-01  0.24823913427E-01  0.34497876951E-01  0.00000000000E+00 0. -1.
     999901    1    3    3    0    0 -0.47798593054E-01  0.61523876916E-01 -0.12679014412E+00  0.89249405240E+00  0.88000000000E+00 0.  1.
        -11    1    4    4    0    0  0.25753092792E-01 -0.40577540599E-01  0.80509121255E-01  0.93764269931E-01  0.51100000000E-03 0. -1.
         11    1    4    4    0    0  0.86723524103E-02 -0.10708299631E-02  0.21457109438E-01  0.23173800715E-01  0.51100000000E-03 0.  1.
</event>
<event>
 8    1  0.5489035E+004  0.1043930E+01  0.7957747E-01            NaN
         13   -1    0    0    0    0  0.00000000000E+00  0.00000000000E+00  0.74505805969E-08  0.10566000000E+00  0.10566000000E+00 0. -1.
     999900   -1    0    0    0    0 -0.00000000000E+00 -0.00000000000E+00 -0.74505805969E-08  0.93827000000E+00  0.93827000000E+00 0.  1.
     999902    2    1    2    0    0 -0.11766622358E-02  0.67261765939E-02  0.22673708346E-01  0.10202504089E+01  0.10199755751E+01 0.  0.
     999903    2    3    3    0    0 -0.48975759221E-01 -0.11551690412E+00 -0.23884376560E-01  0.12929823299E+00  0.20119380756E-01 0.  0.
         14    1    1    2    0    0  0.11766622358E-02 -0.67261765939E-02 -0.22673708346E-01  0.23679591123E-01  0.00000000000E+00 0.  1.
     999901    1    3    3    0    0  0.47799096985E-01  0.12224308071E+00  0.46558084906E-01  0.89095217589E+00  0.88000000000E+00 0. -1.
        -11    1    4    4    0    0 -0.32701128419E-01 -0.89285162050E-01 -0.10559518614E-01  0.95671147775E-01  0.51100000000E-03 0. -1.
         11    1    4    4    0    0 -0.16274630802E-01 -0.26231742066E-01 -0.13324857947E-01  0.33627085212E-01  0.51100000000E-03 0.  1.
</event>
<event>
 8    1  0.5489035E+004  0.1043930E+01  0.7957747E-01            NaN
         13   -1    0    0    0    0  0.00000000000E+00  0.00000000000E+00  0.74505805969E-08  0.10566000000E+00  0.10566000000E+00 0. -1.
     999900   -1    0    0    0    0 -0.00000000000E+00 -0.00000000000E+00 -0.74505805969E-08  0.93827000000E+00  0.93827000000E+00 0. -1.
     999902    2    1    2    0    0 -0.21418607278E-02 -0.13710185371E-01 -0.21406098859E-01  0.10184196527E+01  0.10181000988E+01 0.  0.
     999903    2    3    3    0    0  0.56932210889E-01 -0.34974877452E-02 -0.11654758250E+00  0.13126355200E+00  0.19831087674E-01 0.  0.
         14    1    1    2    0    0  0.21418607278E-02  0.13710185371E-01  0.21406098859E-01  0.25510347286E-01  0.00000000000E+00 0. -1.
     999901    1    3    3    0    0 -0.59074071617E-01 -0.10212697626E-01  0.95141483643E-01  0.88715610072E+00  0.88000000000E+00 0.  1.
        -11    1    4    4    0    0  0.27332326426E-01 -0.72968125860E-02 -0.39098900232E-01  0.48262663231E-01  0.51100000000E-03 0. -1.
         11    1    4    4    0    0  0.29599884462E-01  0.37993248408E-02 -0.77448682270E-01  0.83000888765E-01  0.51100000000E-03 0.  1.
</event>
<event>
 8    1  0.5489035E+004  0.1043930E+01  0.7957747E-01            NaN
         13   -1    0    0    0    0  0.00000000000E+00  0.00000000000E+00  0.74505805969E-08  0.10566000000E+00  0.10566000000E+00 0.  1.
     999900   -1    0    0    0    0 -0.00000000000E+00 -0.00000000000E+00 -0.74505805969E-08  0.93827000000E+00  0.93827000000E+00 0. -1.
     999902    2    1    2    0    0  0.28153406884E-02  0.21417384431E-01  0.89545042081E-02  0.10205459532E+01  0.10202780155E+01 0.  0.
     999903    2    3    3    0    0 -0.62430130812E-02  0.11095166490E+00  0.71606439217E-01  0.13374061599E+00  0.20244087311E-01 0.  0.
         14    1    1    2    0    0 -0.28153406884E-02 -0.21417384431E-01 -0.89545042081E-02  0.23384046798E-01  0.00000000000E+00 0. -1.
     999901    1    3    3    0    0  0.90583537696E-02 -0.89534280468E-01 -0.62651935009E-01  0.88680533721E+00  0.88000000000E+00 0.  1.
        -11    1    4    4    0    0 -0.64958772024E-02  0.73330550615E-01  0.36048329868E-01  0.81971393067E-01  0.51100000000E-03 0.  1.
         11    1    4    4    0    0  0.25286412123E-03  0.37621114284E-01  0.35558109349E-01  0.51769222920E-01  0.51100000000E-03 0. -1.
</event>
<event>
 8    1  0.5489035E+004  0.1043930E+01  0.7957747E-01            NaN
         13   -1    0    0    0    0  0.00000000000E+00  0.00000000000E+00  0.74505805969E-08  0.10566000000E+00  0.10566000000E+00 0.  1.
     999900   -1    0    0    0    0 -0.00000000000E+00 -0.00000000000E+00 -0.74505805969E-08  0.93827000000E+00  0.93827000000E+00 0.  1.
     999902    2    1    2    0    0  0.11091791883E-02  0.41718151525E-02  0.24020364850E-01  0.10195248315E+01  0.10192326868E+01 0.  0.
     999903    2    3    3    0    0 -0.78854086198E-03 -0.33921007059E-01 -0.12077438407E+00  0.12687698173E+00  0.18975250448E-01 0.  0.
         14    1    1    2    0    0 -0.11091791883E-02 -0.41718151525E-02 -0.24020364850E-01  0.24405168462E-01  0.00000000000E+00 0. -1.
     999901    1    3    3    0    0  0.18977200503E-02  0.38092822212E-01  0.14479474892E+00  0.89264784980E+00  0.88000000000E+00 0. -1.
        -11    1    4    4    0    0 -0.97018822423E-03  0.73351834867E-03 -0.24820274782E-01  0.24855310814E-01  0.51100000000E-03 0. -1.
         11    1    4    4    0    0  0.18164736225E-03 -0.34654525408E-01 -0.95954109288E-01  0.10202167092E+00  0.51100000000E-03 0.  1.
</event>
<event>
 8    1  0.5489035E+004  0.1043930E+01  0.7957747E-01            NaN
         13   -1    0    0    0    0  0.00000000000E+00  0.00000000000E+00  0.74505805969E-08  0.10566000000E+00  0.10566000000E+00 0.  1.
     999900   -1    0    0    0    0 -0.00000000000E+00 -0.00000000000E+00 -0.74505805969E-08  0.93827000000E+00  0.93827000000E+00 0.  1.
     999902    2    1    2    0    0  0.12270681530E-01  0.17700118422E-01 -0.87789198111E-02  0.10206720282E+01  0.10204070051E+01 0.  0.
     999903    2    3    3    0    0  0.81406598223E-01  0.10354484741E+00  0.10188267165E-01  0.13359320048E+00  0.19868889446E-01 0.  0.
         14    1    1    2    0    0 -0.12270681530E-01 -0.17700118422E-01  0.87789198111E-02  0.23257971761E-01  0.00000000000E+00 0.  1.
     999901    1    3    3    0    0 -0.69135916693E-01 -0.85844728989E-01 -0.18967186977E-01  0.88707882776E+00  0.88000000000E+00 0.  1.
        -11    1    4    4    0    0  0.52234260286E-02  0.17522376080E-01  0.17542523439E-02  0.18375428301E-01  0.51100000000E-03 0.  1.
         11    1    4    4    0    0  0.76183172195E-01  0.86022471331E-01  0.84340148215E-02  0.11521777218E+00  0.51100000000E-03 0. -1.
</event>
<event>
 8    1  0.5489035E+004  0.1043930E+01  0.7957747E-01            NaN
         13   -1    0    0    0    0  0.00000000000E+00  0.00000000000E+00  0.74505805969E-08  0.10566000000E+00  0.10566000000E+00 0. -1.
     999900   -1    0    0    0    0 -0.00000000000E+00 -0.00000000000E+00 -0.74505805969E-08  0.93827000000E+00  0.93827000000E+00 0. -1.
     999902    2    1    2    0    0 -0.93231398361E-02 -0.10667135398E-01 -0.18833307023E-01  0.10203630280E+01  0.10200908326E+01 0.  0.
     999903    2    3    3    0    0  0.11012616316E+00 -0.55370664925E-01  0.35088602185E-01  0.12953525915E+00  0.18827931671E-01 0.  0.
         14    1    1    2    0    0  0.93231398361E-02  0.10667135398E-01  0.18833307023E-01  0.23566971961E-01  0.00000000000E+00 0. -1.
     999901    1    3    3    0    0 -0.11944930300E+00  0.44703529527E-01 -0.53921909208E-01  0.89082776889E+00  0.88000000000E+00 0. -1.
        -11    1    4    4    0    0  0.23232656499E-01 -0.66734527566E-02  0.13209237278E-01  0.27550614697E-01  0.51100000000E-03 0. -1.
         11    1    4    4    0    0  0.86893506665E-01 -0.48697212168E-01  0.21879364907E-01  0.10198464445E+00  0.51100000000E-03 0.  1.
</event>
<event>
 8    1  0.5489035E+004  0.1043930E+01  0.7957747E-01            NaN
         13   -1    0    0    0    0  0.00000000000E+00  0.00000000000E+00  0.74505805969E-08  0.10566000000E+00  0.10566000000E+00 0.  1.
     999900   -1    0    0    0    0 -0.00000000000E+00 -0.00000000000E+00 -0.74505805969E-08  0.93827000000E+00  0.93827000000E+00 0. -1.
     999902    2    1    2    0    0  0.21058618855E-02  0.16640312184E-01  0.16308963304E-01  0.10205351944E+01  0.10202670073E+01 0.  0.
     999903    2    3    3    0    0  0.79684304170E-01 -0.91024849537E-01  0.43462991364E-01  0.13017148054E+00  0.20505393544E-01 0.  0.
         14    1    1    2    0    0 -0.21058618855E-02 -0.16640312184E-01 -0.16308963304E-01  0.23394805575E-01  0.00000000000E+00 0.  1.
     999901    1    3    3    0    0 -0.77578442285E-01  0.10766516172E+00 -0.27154028060E-01  0.89036371388E+00  0.88000000000E+00 0. -1.
        -11    1    4    4    0    0  0.46786034626E-01 -0.38685211434E-01  0.18124024142E-01  0.63357872374E-01  0.51100000000E-03 0.  1.
         11    1    4    4    0    0  0.32898269544E-01 -0.52339638103E-01  0.25338967222E-01  0.66813608170E-01  0.51100000000E-03 0. -1.
</event>
<event>
 8    1  0.5489035E+004  0.1043930E+01  0.7957747E-01            NaN
         13   -1    0    0    0    0  0.00000000000E+00  0.00000000000E+00  0.74505805969E-08  0.10566000000E+00  0.10566000000E+00 0. -1.
     999900   -1    0    0    0    0 -0.00000000000E+00 -0.00000000000E+00 -0.74505805969E-08  0.93827000000E+00  0.93827000000E+00 0. -1.
     999902    2    1    2    0    0 -0.11572722588E-01  0.14167730990E-01 -0.15169310340E-01  0.10201653101E+01  0.10198884740E+01 0.  0.
     999903    2    3    3    0    0 -0.99948454844E-01 -0.37237431894E-01 -0.75532919459E-01  0.13219204129E+00  0.19829117460E-01 0.  0.
         14    1    1    2    0    0  0.11572722588E-01 -0.14167730990E-01  0.15169310340E-01  0.23764689893E-01  0.00000000000E+00 0. -1.
     999901    1    3    3    0    0  0.88375732256E-01  0.51405162884E-01  0.60363609119E-01  0.88797326881E+00  0.88000000000E+00 0.  1.
        -11    1    4    4    0    0 -0.61473787640E-01 -0.15497373021E-01 -0.52727563773E-01  0.82460003880E-01  0.51100000000E-03 0.  1.
         11    1    4    4    0    0 -0.38474667204E-01 -0.21740058873E-01 -0.22805355686E-01  0.49732037413E-01  0.51100000000E-03 0. -1.
</event>
<event>
 8    1  0.5489035E+004  0.1043930E+01  0.7957747E-01            NaN
         13   -1    0    0    0    0  0.00000000000E+00  0.00000000000E+00  0.74505805969E-08  0.10566000000E+00  0.10566000000E+00 0. -1.
     999900   -1    0    0    0    0 -0.00000000000E+00 -0.00000000000E+00 -0.74505805969E-08  0.93827000000E+00  0.93827000000E+00 0.  1.
     999902    2    1    2    0    0  0.16646927101E-01 -0.13306911199E-01 -0.10015328371E-01  0.10203821578E+01  0.10201104093E+01 0.  0.
     999903    2    3    3    0    0  0.22134863288E-01 -0.11849042007E+00  0.51073138522E-01  0.13199851957E+00  0.16888216805E-01 0.  0.
         14    1    1    2    0    0 -0.16646927101E-01  0.13306911199E-01  0.10015328371E-01  0.23547842151E-01  0.00000000000E+00 0.  1.
     999901    1    3    3    0    0 -0.54879361871E-02  0.10518350888E+00 -0.61088466893E-01  0.88838363828E+00  0.88000000000E+00 0.  1.
        -11    1    4    4    0    0  0.20682661306E-01 -0.75000136448E-01  0.37826521049E-01  0.86509535669E-01  0.51100000000E-03 0. -1.
         11    1    4    4    0    0  0.14522019817E-02 -0.43490283626E-01  0.13246617472E-01  0.45488983897E-01  0.51100000000E-03 0.  1.
</event>
<event>
 8    1  0.5489035E+004  0.1043930E+01  0.7957747E-01            NaN
         13   -1    0    0    0    0  0.00000000000E+00  0.00000000000E+00  0.74505805969E-08  0.10566000000E+00  0.10566000000E+00 0. -1.
     999900   -1    0    0    0    0 -0.00000000000E+00 -0.00000000000E+00 -0.74505805969E-08  0.93827000000E+00  0.93827000000E+00 0.  1.
     999902    2    1    2    0    0 -0.21799279278E-01  0.23973739762E-02  0.96861218814E-02  0.10199554940E+01  0.10196736894E+01 0.  0.
     999903    2    3    3    0    0  0.85702642548E-02 -0.74187369943E-01 -0.10314748464E+00  0.12893419523E+00  0.20184345990E-01 0.  0.
         14    1    1    2    0    0  0.21799279278E-01 -0.23973739762E-02 -0.96861218814E-02  0.23974505962E-01  0.00000000000E+00 0.  1.
     999901    1    3    3    0    0 -0.30369543533E-01  0.76584743920E-01  0.11283360652E+00  0.89102129881E+00  0.88000000000E+00 0. -1.
        -11    1    4    4    0    0  0.14793094551E-02 -0.26225810780E-01 -0.53144965450E-01  0.59284314799E-01  0.51100000000E-03 0.  1.
         11    1    4    4    0    0  0.70909547997E-02 -0.47961559164E-01 -0.50002519187E-01  0.69649880427E-01  0.51100000000E-03 0. -1.
</event>
<event>
 8    1  0.5489035E+004  0.1043930E+01  0.7957747E-01            NaN
         13   -1    0    0    0    0  0.00000000000E+00  0.00000000000E+00  0.74505805969E-08  0.10566000000E+00  0.10566000000E+00 0. -1.
     999900   -1    0    0    0    0 -0.00000000000E+00 -0.00000000000E+00 -0.74505805969E-08  0.93827000000E+00  0.93827000000E+00 0. -1.
     999902    2    1    2    0    0 -0.16084030886E-01  0.47830754398E-02 -0.16549389115E-01  0.10203618830E+01  0.10200896608E+01 0.  0.
     999903    2    3    3    0    0 -0.31135680167E-02  0.12505426282E+00  0.32563287419E-01  0.13072968570E+00  0.19535098662E-01 0.  0.
         14    1    1    2    0    0  0.16084030886E-01 -0.47830754398E-02  0.16549389115E-01  0.23568117029E-01  0.00000000000E+00 0. -1.
     999901    1    3    3    0    0 -0.12970462869E-01 -0.12027118738E+00 -0.49112676535E-01  0.88963219727E+00  0.88000000000E+00 0. -1.
        -11    1    4    4    0    0  0.13863737666E-02  0.37917419894E-01  0.18966530659E-01  0.42422201380E-01  0.51100000000E-03 0.  1.
         11    1    4    4    0    0 -0.44999417833E-02  0.87136842930E-01  0.13596756760E-01  0.88307484322E-01  0.51100000000E-03 0. -1.
</event>
<event>
 8    1  0.5489035E+004  0.1043930E+01  0.7957747E-01            NaN
         13   -1    0    0    0    0  0.00000000000E+00  0.00000000000E+00  0.74505805969E-08  0.10566000000E+00  0.10566000000E+00 0.  1.
     999900   -1    0    0    0    0 -0.00000000000E+00 -0.00000000000E+00 -0.74505805969E-08  0.93827000000E+00  0.93827000000E+00 0.  1.
     999902    2    1    2    0    0 -0.21491702095E-01 -0.73797582268E-02  0.67868260536E-02  0.10202147075E+01  0.10199390346E+01 0.  0.
     999903    2    3    3    0    0 -0.41859717191E-01 -0.46316245108E-01 -0.11349436772E+00  0.13094620383E+00  0.19196518125E-01 0.  0.
         14    1    1    2    0    0  0.21491702095E-01  0.73797582268E-02 -0.67868260536E-02  0.23715292499E-01  0.00000000000E+00 0.  1.
     999901    1    3    3    0    0  0.20368015096E-01  0.38936486881E-01  0.12028119378E+00  0.88926850367E+00  0.88000000000E+00 0. -1.
        -11    1    4    4    0    0 -0.94145486797E-02 -0.19264042466E-01 -0.52861934748E-01  0.57047193843E-01  0.51100000000E-03 0.  1.
         11    1    4    4    0    0 -0.32445168511E-01 -0.27052202641E-01 -0.60632432973E-01  0.73899009985E-01  0.51100000000E-03 0. -1.
</event>
<event>
 8    1  0.5489035E+004  0.1043930E+01  0.7957747E-01            NaN
         13   -1    0    0    0    0  0.00000000000E+00  0.00000000000E+00  0.74505805969E-08  0.10566000000E+00  0.10566000000E+00 0.  1.
     999900   -1    0    0    0    0 -0.00000000000E+00 -0.00000000000E+00 -0.74505805969E-08  0.93827000000E+00  0.93827000000E+00 0.  1.
     999902    2    1    2    0    0  0.15673470065E-01 -0.19975292457E-02  0.17924935863E-01  0.10200354167E+01  0.10197555100E+01 0.  0.
     999903    2    3    3    0    0  0.44425559925E-01 -0.11081391791E+00 -0.48353591643E-01  0.13039474071E+00  0.20282105496E-01 0.  0.
         14    1    1    2    0    0 -0.15673470065E-01  0.19975292457E-02 -0.17924935863E-01  0.23894583333E-01  0.00000000000E+00 0. -1.
     999901    1    3    3    0    0 -0.28752089860E-01  0.10881638866E+00  0.66278527506E-01  0.88964067596E+00  0.88000000000E+00 0. -1.
        -11    1    4    4    0    0  0.25307931582E-01 -0.74354188679E-01 -0.22210832573E-01  0.81624867410E-01  0.51100000000E-03 0. -1.
         11    1    4    4    0    0  0.19117628343E-01 -0.36459729226E-01 -0.26142759071E-01  0.48769873298E-01  0.51100000000E-03 0.  1.
</event>
<event>
 8    1  0.5489035E+004  0.1043930E+01  0.7957747E-01            NaN
         13   -1    0    0    0    0  0.00000000000E+00  0.00000000000E+00  0.74505805969E-08  0.10566000000E+00  0.10566000000E+00 0. -1.
     999900   -1    0    0    0    0 -0.00000000000E+00 -0.00000000000E+00 -0.74505805969E-08  0.93827000000E+00  0.93827000000E+00 0. -1.
     999902    2    1    2    0    0  0.15024868688E-01  0.15012809971E-01 -0.11491951997E-01  0.10197805465E+01  0.10194945645E+01 0.  0.
     999903    2    3    3    0    0  0.10878269808E+00 -0.64792058603E-01 -0.27789143937E-01  0.13105958577E+00  0.19305238731E-01 0.  0.
         14    1    1    2    0    0 -0.15024868688E-01 -0.15012809971E-01  0.11491951997E-01  0.24149453473E-01  0.00000000000E+00 0. -1.
     999901    1    3    3    0    0 -0.93757829392E-01  0.79804868574E-01  0.16297191940E-01  0.88872096076E+00  0.88000000000E+00 0. -1.
        -11    1    4    4    0    0  0.78739348154E-01 -0.56469639662E-01 -0.20581664400E-01  0.99058423074E-01  0.51100000000E-03 0.  1.
         11    1    4    4    0    0  0.30043349926E-01 -0.83224189401E-02 -0.72074795371E-02  0.32001162698E-01  0.51100000000E-03 0. -1.
</event>
<event>
 8    1  0.5489035E+004  0.1043930E+01  0.7957747E-01            NaN
         13   -1    0    0    0    0  0.00000000000E+00  0.00000000000E+00  0.74505805969E-08  0.10566000000E+00  0.10566000000E+00 0. -1.
     999900   -1    0    0    0    0 -0.00000000000E+00 -0.00000000000E+00 -0.74505805969E-08  0.93827000000E+00  0.93827000000E+00 0.  1.
     999902    2    1    2    0    0 -0.10104715312E-01  0.96867060878E-02 -0.19858770386E-01  0.10196337388E+01  0.10193442270E+01 0.  0.
     999903    2    3    3    0    0  0.57048796293E-01 -0.96991063238E-01  0.56516570583E-01  0.12737652629E+00  0.19204822138E-01 0.  0.
         14    1    1    2    0    0  0.10104715312E-01 -0.96867060878E-02  0.19858770386E-01  0.24296261186E-01  0.00000000000E+00 0. -1.
     999901    1    3    3    0    0 -0.67153511605E-01  0.10667776933E+00 -0.76375340969E-01  0.89225721252E+00  0.88000000000E+00 0.  1.
        -11    1    4    4    0    0  0.33912673228E-01 -0.72391804398E-01  0.44724328621E-01  0.91603326583E-01  0.51100000000E-03 0.  1.
         11    1    4    4    0    0  0.23136123065E-01 -0.24599258840E-01  0.11792241962E-01  0.35773199710E-01  0.51100000000E-03 0. -1.
</event>
<event>
 8    1  0.5489035E+004  0.1043930E+01  0.7957747E-01            NaN
         13   -1    0    0    0    0  0.00000000000E+00  0.00000000000E+00  0.74505805969E-08  0.10566000000E+00  0.10566000000E+00 0.  1.
     999900   -1    0    0    0    0 -0.00000000000E+00 -0.00000000000E+00 -0.74505805969E-08  0.93827000000E+00  0.93827000000E+00 0. -1.
     999902    2    1    2    0    0  0.14756359255E-01  0.98150485418E-02  0.15869112626E-01  0.10201410519E+01  0.10198636437E+01 0.  0.
     999903    2    3    3    0    0 -0.65163913694E-01  0.57713048948E-01  0.96571491168E-01  0.13154983971E+00  0.20054320097E-01 0.  0.
         14    1    1    2    0    0 -0.14756359255E-01 -0.98150485418E-02 -0.15869112626E-01  0.23788948104E-01  0.00000000000E+00 0. -1.
     999901    1    3    3    0    0  0.79920272949E-01 -0.47898000407E-01 -0.80702378542E-01  0.88859121219E+00  0.88000000000E+00 0. -1.
        -11    1    4    4    0    0 -0.22281153345E-01  0.18957554918E-01  0.47193436799E-01  0.55527653297E-01  0.51100000000E-03 0. -1.
         11    1    4    4    0    0 -0.42882760348E-01  0.38755494031E-01  0.49378054370E-01  0.76022186413E-01  0.51100000000E-03 0.  1.
</event>
<event>
 8    1  0.5489035E+004  0.1043930E+01  0.7957747E-01            NaN
         13   -1    0    0    0    0  0.00000000000E+00  0.00000000000E+00  0.74505805969E-08  0.10566000000E+00  0.10566000000E+00 0. -1.
     999900   -1    0    0    0    0 -0.00000000000E+00 -0.00000000000E+00 -0.74505805969E-08  0.93827000000E+00  0.93827000000E+00 0. -1.
     999902    2    1    2    0    0 -0.12960013444E-01  0.15853378642E-01 -0.38282217820E-02  0.10230986091E+01  0.10228865124E+01 0.  0.
     999903    2    3    3    0    0 -0.10239968267E+00 -0.63381928234E-01  0.53980074227E-01  0.13314384211E+00  0.17620171427E-01 0.  0.
         14    1    1    2    0    0  0.12960013444E-01 -0.15853378642E-01  0.38282217820E-02  0.20831390853E-01  0.00000000000E+00 0.  1.
     999901    1    3    3    0    0  0.89439669222E-01  0.79235306876E-01 -0.57808296009E-01  0.88995476704E+00  0.88000000000E+00 0.  1.
        -11    1    4    4    0    0 -0.67305395899E-01 -0.47124211505E-01  0.43966854633E-01  0.93188266721E-01  0.51100000000E-03 0. -1.
         11    1    4    4    0    0 -0.35094286768E-01 -0.16257716729E-01  0.10013219594E-01  0.39955575388E-01  0.51100000000E-03 0.  1.
</event>
<event>
 8    1  0.5489035E+004  0.1043930E+01  0.7957747E-01            NaN
         13   -1    0    0    0    0  0.00000000000E+00  0.00000000000E+00  0.74505805969E-08  0.10566000000E+00  0.10566000000E+00 0. -1.
     999900   -1    0    0    0    0 -0.00000000000E+00 -0.00000000000E+00 -0.74505805969E-08  0.93827000000E+00  0.93827000000E+00 0. -1.
     999902    2    1    2    0    0  0.13101215434E-01  0.11420354004E-01 -0.16513864723E-01  0.10199555540E+01  0.10196737508E+01 0.  0.
     999903    2    3    3    0    0  0.11897842443E-01 -0.17075849863E-01 -0.12915152194E+00  0.13231783313E+00  0.19868317567E-01 0.  0.
         14    1    1    2    0    0 -0.13101215434E-01 -0.11420354004E-01  0.16513864723E-01  0.23974445969E-01  0.00000000000E+00 0. -1.
     999901    1    3    3    0    0  0.12033729909E-02  0.28496203867E-01  0.11263765721E+00  0.88763772090E+00  0.88000000000E+00 0.  1.
        -11    1    4    4    0    0 -0.51133439626E-02 -0.48074459502E-02 -0.20924652655E-01  0.22076232305E-01  0.51100000000E-03 0. -1.
         11    1    4    4    0    0  0.17011186406E-01 -0.12268403913E-01 -0.10822686928E+00  0.11024160083E+00  0.51100000000E-03 0.  1.
</event>
<event>
 8    1  0.5489035E+004  0.1043930E+01  0.7957747E-01            NaN
         13   -1    0    0    0    0  0.00000000000E+00  0.00000000000E+00  0.74505805969E-08  0.10566000000E+00  0.10566000000E+00 0. -1.
     999900   -1    0    0    0    0 -0.00000000000E+00 -0.00000000000E+00 -0.74505805969E-08  0.93827000000E+00  0.93827000000E+00 0. -1.
     999902    2    1    2    0    0 -0.13693807172E-01  0.92264000264E-02 -0.17294126869E-01  0.10200190478E+01  0.10197387529E+01 0.  0.
     999903    2    3    3    0    0  0.11741964905E+00 -0.38580420336E-01 -0.30257987364E-01  0.12892741828E+00  0.20758385472E-01 0.  0.
         14    1    1    2    0    0  0.13693807172E-01 -0.92264000264E-02  0.17294126869E-01  0.23910952229E-01  0.00000000000E+00 0. -1.
     999901    1    3    3    0    0 -0.13111345622E+00  0.47806820362E-01  0.12963860495E-01  0.89109162949E+00  0.88000000000E+00 0.  1.
        -11    1    4    4    0    0  0.10796877543E+00 -0.29720729590E-01 -0.23987007946E-01  0.11452604903E+00  0.51100000000E-03 0.  1.
         11    1    4    4    0    0  0.94508736243E-02 -0.88596907461E-02 -0.62709794189E-02  0.14401369249E-01  0.51100000000E-03 0. -1.
</event>
<event>
 8    1  0.5489035E+004  0.1043930E+01  0.7957747E-01            NaN
         13   -1    0    0    0    0  0.00000000000E+00  0.00000000000E+00  0.74505805969E-08  0.10566000000E+00  0.10566000000E+00 0. -1.
     999900   -1    0    0    0    0 -0.00000000000E+00 -0.00000000000E+00 -0.74505805969E-08  0.93827000000E+00  0.93827000000E+00 0.  1.
     999902    2    1    2    0    0 -0.41155604976E-02 -0.23456564158E-01 -0.12164026462E-02  0.10200840805E+01  0.10198053263E+01 0.  0.
     999903    2    3    3    0    0 -0.12151375460E+00  0.32458616454E-02  0.43829630913E-01  0.13074471860E+00  0.19925278443E-01 0.  0.
         14    1    1    2    0    0  0.41155604976E-02  0.23456564158E-01  0.12164026462E-02  0.23845919477E-01  0.00000000000E+00 0. -1.
     999901    1    3    3    0    0  0.11739819410E+00 -0.26702425804E-01 -0.45046033560E-01  0.88933936192E+00  0.88000000000E+00 0.  1.
        -11    1    4    4    0    0 -0.68651545580E-01 -0.58504111063E-02  0.18035083978E-01  0.71223503114E-01  0.51100000000E-03 0. -1.
         11    1    4    4    0    0 -0.52862209021E-01  0.90962727517E-02  0.25794546935E-01  0.59521215488E-01  0.51100000000E-03 0.  1.
</event>
<event>
 8    1  0.5489035E+004  0.1043930E+01  0.7957747E-01            NaN
         13   -1    0    0    0    0  0.00000000000E+00  0.00000000000E+00  0.74505805969E-08  0.10566000000E+00  0.10566000000E+00 0. -1.
     999900   -1    0    0    0    0 -0.00000000000E+00 -0.00000000000E+00 -0.74505805969E-08  0.93827000000E+00  0.93827000000E+00 0. -1.
     999902    2    1    2    0    0 -0.15623766630E-01  0.55751341970E-02  0.16710223619E-01  0.10203839647E+01  0.10201122584E+01 0.  0.
     999903    2    3    3    0    0  0.40625704301E-01 -0.12061958816E+00  0.13942309274E-01  0.12959960680E+00  0.20053358717E-01 0.  0.
         14    1    1    2    0    0  0.15623766630E-01 -0.55751341970E-02 -0.16710223619E-01  0.23546035301E-01  0.00000000000E+00 0.  1.
     999901    1    3    3    0    0 -0.56249470930E-01  0.12619472236E+00  0.27679143444E-02  0.89078435790E+00  0.88000000000E+00 0. -1.
        -11    1    4    4    0    0  0.14691147221E-01 -0.74370702271E-01  0.73599687195E-02  0.76166012259E-01  0.51100000000E-03 0. -1.
         11    1    4    4    0    0  0.25934557079E-01 -0.46248885892E-01  0.65823405548E-02  0.53433594539E-01  0.51100000000E-03 0.  1.
</event>
<event>
 8    1  0.5489035E+004  0.1043930E+01  0.7957747E-01            NaN
         13   -1    0    0    0    0  0.00000000000E+00  0.00000000000E+00  0.74505805969E-08  0.10566000000E+00  0.10566000000E+00 0. -1.
     999900   -1    0    0    0    0 -0.00000000000E+00 -0.00000000000E+00 -0.74505805969E-08  0.93827000000E+00  0.93827000000E+00 0.  1.
     999902    2    1    2    0    0 -0.16368848018E-01  0.43956349948E-02 -0.16424790637E-01  0.10203284208E+01  0.10200554160E+01 0.  0.
     999903    2    3    3    0    0  0.12159173653E+00 -0.22099755929E-01  0.27390480714E-01  0.12810932966E+00  0.19718324125E-01 0.  0.
         14    1    1    2    0    0  0.16368848018E-01 -0.43956349948E-02  0.16424790637E-01  0.23601579183E-01  0.00000000000E+00 0.  1.
     999901    1    3    3    0    0 -0.13796058455E+00  0.26495390924E-01 -0.43815271352E-01  0.89221909116E+00  0.88000000000E+00 0.  1.
        -11    1    4    4    0    0  0.36995735281E-01  0.11768509289E-02  0.12766937168E-01  0.39157696724E-01  0.51100000000E-03 0.  1.
         11    1    4    4    0    0  0.84596001250E-01 -0.23276606858E-01  0.14623543546E-01  0.88951632932E-01  0.51100000000E-03 0. -1.
</event>
<event>
 8    1  0.5489035E+004  0.1043930E+01  0.7957747E-01            NaN
         13   -1    0    0    0    0  0.00000000000E+00  0.00000000000E+00  0.74505805969E-08  0.10566000000E+00  0.10566000000E+00 0. -1.
     999900   -1    0    0    0    0 -0.00000000000E+00 -0.00000000000E+00 -0.74505805969E-08  0.93827000000E+00  0.93827000000E+00 0.  1.
     999902    2    1    2    0    0  0.62663616952E-02 -0.10414615035E-02  0.22293369627E-01  0.10207492696E+01  0.10204860240E+01 0.  0.
     999903    2    3    3    0    0 -0.24296492218E-02  0.58945518978E-01  0.11797553050E+00  0.13348993080E+00  0.20514834312E-01 0.  0.
         14    1    1    2    0    0 -0.62663616952E-02  0.10414615035E-02 -0.22293369627E-01  0.23180730365E-01  0.00000000000E+00 0.  1.
     999901    1    3    3    0    0  0.86960109169E-02 -0.59986980481E-01 -0.95682160871E-01  0.88725933883E+00  0.88000000000E+00 0.  1.
        -11    1    4    4    0    0 -0.76722470605E-02  0.11311643058E-01  0.36314360779E-01  0.38804775008E-01  0.51100000000E-03 0.  1.
         11    1    4    4    0    0  0.52425978388E-02  0.47633875920E-01  0.81661169719E-01  0.94685155796E-01  0.51100000000E-03 0. -1.
</event>
<event>
 8    1  0.5489035E+004  0.1043930E+01  0.7957747E-01            NaN
         13   -1    0    0    0    0  0.00000000000E+00  0.00000000000E+00  0.74505805969E-08  0.10566000000E+00  0.10566000000E+00 0.  1.
     999900   -1    0    0    0    0 -0.00000000000E+00 -0.00000000000E+00 -0.74505805969E-08  0.93827000000E+00  0.93827000000E+00 0. -1.
     999902    2    1    2    0    0  0.23301943759E-01  0.33370160061E-02 -0.33807066764E-02  0.10201488008E+01  0.10198715754E+01 0.  0.
     999903    2    3    3    0    0 -0.10736178323E+00 -0.11678265199E-01 -0.66191085079E-01  0.12816022918E+00  0.19515384285E-01 0.  0.
         14    1    1    2    0    0 -0.23301943759E-01 -0.33370160061E-02  0.33807066764E-02  0.23781199221E-01  0.00000000000E+00 0. -1.
     999901    1    3    3    0    0  0.13066372699E+00  0.15015281205E-01  0.62810378403E-01  0.89198857159E+00  0.88000000000E+00 0.  1.
        -11    1    4    4    0    0 -0.10337704663E+00 -0.96151909859E-02 -0.58313075574E-01  0.11907955984E+00  0.51100000000E-03 0. -1.
         11    1    4    4    0    0 -0.39847366032E-02 -0.20630742132E-02 -0.78780095052E-02  0.90806693459E-02  0.51100000000E-03 0.  1.
</event>
<event>
 8    1  0.5489035E+004  0.1043930E+01  0.7957747E-01            NaN
         13   -1    0    0    0    0  0.00000000000E+00  0.00000000000E+00  0.74505805969E-08  0.10566000000E+00  0.10566000000E+00 0.  1.
     999900   -1    0    0    0    0 -0.00000000000E+00 -0.00000000000E+00 -0.74505805969E-08  0.93827000000E+00  0.93827000000E+00 0.  1.
     999902    2    1    2    0    0 -0.47261744691E-02 -0.15101821209E-01 -0.17527588518E-01  0.10203160616E+01  0.10200427674E+01 0.  0.
     999903    2    3    3    0    0  0.62266505593E-01 -0.10407310074E+00 -0.50373739402E-01  0.13268844968E+00  0.18983757256E-01 0.  0.
         14    1    1    2    0    0  0.47261744691E-02  0.15101821209E-01  0.17527588518E-01  0.23613938431E-01  0.00000000000E+00 0.  1.
     999901    1    3    3    0    0 -0.66992680062E-01  0.88971279534E-01  0.32846150884E-01  0.88762761189E+00  0.88000000000E+00 0. -1.
        -11    1    4    4    0    0  0.26467850257E-01 -0.33573610972E-01 -0.10005497873E-01  0.43910198811E-01  0.51100000000E-03 0. -1.
         11    1    4    4    0    0  0.35798655336E-01 -0.70499489772E-01 -0.40368241529E-01  0.88778250867E-01  0.51100000000E-03 0.  1.
</event>
<event>
 8    1  0.5489035E+004  0.1043930E+01  0.7957747E-01            NaN
         13   -1    0    0    0    0  0.00000000000E+00  0.00000000000E+00  0.74505805969E-08  0.10566000000E+00  0.10566000000E+00 0. -1.
     999900   -1    0    0    0    0 -0.00000000000E+00 -0.00000000000E+00 -0.74505805969E-08  0.93827000000E+00  0.93827000000E+00 0.  1.
     999902    2    1    2    0    0 -0.56302675767E-02  0.21809987125E-01  0.67579516689E-02  0.10204130835E+01  0.10201420566E+01 0.  0.
     999903    2    3    3    0    0  0.20220903537E-01 -0.77271785005E-02  0.12803467355E+00  0.13122875475E+00  0.18960860115E-01 0.  0.
         14    1    1    2    0    0  0.56302675767E-02 -0.21809987125E-01 -0.67579516689E-02  0.23516916510E-01  0.00000000000E+00 0.  1.
     999901    1    3    3    0    0 -0.25851171113E-01  0.29537165626E-01 -0.12127672188E+00  0.88918432874E+00  0.88000000000E+00 0.  1.
        -11    1    4    4    0    0  0.11771154214E-01  0.17893327226E-02  0.96283546077E-01  0.97018267090E-01  0.51100000000E-03 0. -1.
         11    1    4    4    0    0  0.84497493229E-02 -0.95165112231E-02  0.31751127470E-01  0.34210487663E-01  0.51100000000E-03 0.  1.
</event>
<event>
 8    1  0.5489035E+004  0.1043930E+01  0.7957747E-01            NaN
         13   -1    0    0    0    0  0.00000000000E+00  0.00000000000E+00  0.74505805969E-08  0.10566000000E+00  0.10566000000E+00 0. -1.
     999900   -1    0    0    0    0 -0.00000000000E+00 -0.00000000000E+00 -0.74505805969E-08  0.93827000000E+00  0.93827000000E+00 0. -1.
     999902    2    1    2    0    0  0.94489794653E-02  0.15938739799E-01  0.16769694461E-01  0.10189390158E+01  0.10186324993E+01 0.  0.
     999903    2    3    3    0    0  0.67258419101E-01  0.83469635176E-01 -0.71047585522E-01  0.13011157033E+00  0.19758198026E-01 0.  0.
         14    1    1    2    0    0 -0.94489794653E-02 -0.15938739799E-01 -0.16769694461E-01  0.24990984207E-01  0.00000000000E+00 0.  1.
     999901    1    3    3    0    0 -0.57809439636E-01 -0.67530895377E-01  0.87817279983E-01  0.88882744546E+00  0.88000000000E+00 0.  1.
        -11    1    4    4    0    0  0.44329756187E-01  0.42937237352E-01 -0.33070262414E-01  0.70018833268E-01  0.51100000000E-03 0. -1.
         11    1    4    4    0    0  0.22928662914E-01  0.40532397824E-01 -0.37977323108E-01  0.60092737064E-01  0.51100000000E-03 0.  1.
</event>
<event>
 8    1  0.5489035E+004  0.1043930E+01  0.7957747E-01            NaN
         13   -1    0    0    0    0  0.00000000000E+00  0.00000000000E+00  0.74505805969E-08  0.10566000000E+00  0.10566000000E+00 0.  1.
     999900   -1    0    0    0    0 -0.00000000000E+00 -0.00000000000E+00 -0.74505805969E-08  0.93827000000E+00  0.93827000000E+00 0.  1.
     999902    2    1    2    0    0 -0.21007584071E-01  0.35654904222E-02  0.10680104083E-01  0.10200952369E+01  0.10198167465E+01 0.  0.
     999903    2    3    3    0    0  0.58070061188E-02  0.12802578039E+00 -0.14716686373E-01  0.13057042946E+00  0.20192434907E-01 0.  0.
         14    1    1    2    0    0  0.21007584071E-01 -0.35654904222E-02 -0.10680104083E-01  0.23834763135E-01  0.00000000000E+00 0. -1.
     999901    1    3    3    0    0 -0.26814590190E-01 -0.12446028997E+00  0.25396790456E-01  0.88952480741E+00  0.88000000000E+00 0. -1.
        -11    1    4    4    0    0  0.97066702195E-02  0.68737537058E-01 -0.27458968746E-03  0.69421934343E-01  0.51100000000E-03 0.  1.
         11    1    4    4    0    0 -0.38996641007E-02  0.59288243330E-01 -0.14442096685E-01  0.61148495116E-01  0.51100000000E-03 0. -1.
</event>
<event>
 8    1  0.5489035E+004  0.1043930E+01  0.7957747E-01            NaN
         13   -1    0    0    0    0  0.00000000000E+00  0.00000000000E+00  0.74505805969E-08  0.10566000000E+00  0.10566000000E+00 0.  1.
     999900   -1    0    0    0    0 -0.00000000000E+00 -0.00000000000E+00 -0.74505805969E-08  0.93827000000E+00  0.93827000000E+00 0.  1.
     999902    2    1    2    0    0  0.61953464194E-02 -0.24502331486E-01 -0.13176889456E-01  0.10154277723E+01  0.10150276764E+01 0.  0.
     999903    2    3    3    0    0  0.12113217942E-01 -0.10520506992E+00  0.68831434396E-01  0.12791815641E+00  0.20259604952E-01 0.  0.
         14    1    1    2    0    0 -0.61953464194E-02  0.24502331486E-01  0.13176889456E-01  0.28502227654E-01  0.00000000000E+00 0.  1.
     999901    1    3    3    0    0 -0.59178715228E-02  0.80702738435E-01 -0.82008323852E-01  0.88750961593E+00  0.88000000000E+00 0. -1.
        -11    1    4    4    0    0 -0.23842776354E-02 -0.64118591715E-01  0.43453788678E-01  0.77494331759E-01  0.51100000000E-03 0. -1.
         11    1    4    4    0    0  0.14497495578E-01 -0.41086478207E-01  0.25377645718E-01  0.50423824653E-01  0.51100000000E-03 0.  1.
</event>
<event>
 8    1  0.5489035E+004  0.1043930E+01  0.7957747E-01            NaN
         13   -1    0    0    0    0  0.00000000000E+00  0.00000000000E+00  0.74505805969E-08  0.10566000000E+00  0.10566000000E+00 0. -1.
     999900   -1    0    0    0    0 -0.00000000000E+00 -0.00000000000E+00 -0.74505805969E-08  0.93827000000E+00  0.93827000000E+00 0. -1.
     999902    2    1    2    0    0  0.20430256985E-01  0.82473902201E-02  0.52871454415E-02  0.10212723577E+01  0.10210209890E+01 0.  0.
     999903    2    3    3    0    0 -0.92461708952E-01  0.41760152006E-01  0.79238121707E-01  0.13035347924E+00  0.20500529268E-01 0.  0.
         14    1    1    2    0    0 -0.20430256985E-01 -0.82473902201E-02 -0.52871454415E-02  0.22657642261E-01  0.00000000000E+00 0.  1.
     999901    1    3    3    0    0  0.11289196594E+00 -0.33512761786E-01 -0.73950976266E-01  0.89091887850E+00  0.88000000000E+00 0. -1.
        -11    1    4    4    0    0 -0.24380821123E-01  0.15517239918E-02  0.18843384027E-01  0.30857195734E-01  0.51100000000E-03 0. -1.
         11    1    4    4    0    0 -0.68080887829E-01  0.40208428015E-01  0.60394737680E-01  0.99496283506E-01  0.51100000000E-03 0.  1.
</event>
<event>
 8    1  0.5489035E+004  0.1043930E+01  0.7957747E-01            NaN
         13   -1    0    0    0    0  0.00000000000E+00  0.00000000000E+00  0.74505805969E-08  0.10566000000E+00  0.10566000000E+00 0.  1.
     999900   -1    0    0    0    0 -0.00000000000E+00 -0.00000000000E+00 -0.74505805969E-08  0.93827000000E+00  0.93827000000E+00 0.  1.
     999902    2    1    2    0    0  0.18437360151E-01 -0.81593250490E-02  0.10510873407E-01  0.10211926014E+01  0.10209394399E+01 0.  0.
     999903    2    3    3    0    0 -0.10690647909E+00  0.62864582761E-01 -0.27493241644E-01  0.12866821168E+00  0.20461654957E-01 0.  0.
         14    1    1    2    0    0 -0.18437360151E-01  0.81593250490E-02 -0.10510873407E-01  0.22737398584E-01  0.00000000000E+00 0. -1.
     999901    1    3    3    0    0  0.12534383924E+00 -0.71023907810E-01  0.38004115051E-01  0.89252438974E+00  0.88000000000E+00 0. -1.
        -11    1    4    4    0    0 -0.59135295137E-01  0.23017586548E-01 -0.12546393646E-01  0.64687444964E-01  0.51100000000E-03 0. -1.
         11    1    4    4    0    0 -0.47771183952E-01  0.39846996212E-01 -0.14946847998E-01  0.63980766715E-01  0.51100000000E-03 0.  1.
</event>
<event>
 8    1  0.5489035E+004  0.1043930E+01  0.7957747E-01            NaN
         13   -1    0    0    0    0  0.00000000000E+00  0.00000000000E+00  0.74505805969E-08  0.10566000000E+00  0.10566000000E+00 0. -1.
     999900   -1    0    0    0    0 -0.00000000000E+00 -0.00000000000E+00 -0.74505805969E-08  0.93827000000E+00  0.93827000000E+00 0. -1.
     999902    2    1    2    0    0  0.61492055691E-02  0.21905792379E-01  0.42301871786E-02  0.10207875941E+01  0.10205252281E+01 0.  0.
     999903    2    3    3    0    0  0.11923814807E+00  0.52209653499E-01 -0.17068540452E-01  0.13277798336E+00  0.19876466434E-01 0.  0.
         14    1    1    2    0    0 -0.61492055691E-02 -0.21905792379E-01 -0.42301871786E-02  0.23142405935E-01  0.00000000000E+00 0. -1.
     999901    1    3    3    0    0 -0.11308894250E+00 -0.30303861121E-01  0.21298727630E-01  0.88800961071E+00  0.88000000000E+00 0. -1.
        -11    1    4    4    0    0  0.51139137173E-01  0.17149916900E-01  0.15078916429E-02  0.53961707337E-01  0.51100000000E-03 0.  1.
         11    1    4    4    0    0  0.68099010894E-01  0.35059736600E-01 -0.18576432094E-01  0.78816276019E-01  0.51100000000E-03 0. -1.
</event>
<event>
 8    1  0.5489035E+004  0.1043930E+01  0.7957747E-01            NaN
         13   -1    0    0    0    0  0.00000000000E+00  0.00000000000E+00  0.74505805969E-08  0.10566000000E+00  0.10566000000E+00 0.  1.
     999900   -1    0    0    0    0 -0.00000000000E+00 -0.00000000000E+00 -0.74505805969E-08  0.93827000000E+00  0.93827000000E+00 0.  1.
     999902    2    1    2    0    0  0.18089390315E-01 -0.13400124351E-01 -0.78179720392E-02  0.10200991364E+01  0.10198207381E+01 0.  0.
     999903    2    3    3    0    0 -0.12001119906E+00 -0.24032327270E-02  0.39686790850E-01  0.12799521478E+00  0.19981746969E-01 0.  0.
         14    1    1    2    0    0 -0.18089390315E-01  0.13400124351E-01  0.78179720392E-02  0.23830863631E-01  0.00000000000E+00 0.  1.
     999901    1    3    3    0    0  0.13810058938E+00 -0.10996891624E-01 -0.47504762889E-01  0.89210392159E+00  0.88000000000E+00 0.  1.
        -11    1    4    4    0    0 -0.78958882295E-01 -0.47967417159E-02  0.16586402773E-01  0.80826256268E-01  0.51100000000E-03 0.  1.
         11    1    4    4    0    0 -0.41052316765E-01  0.23935089889E-02  0.23100388077E-01  0.47168958515E-01  0.51100000000E-03 0. -1.
</event>
<event>
 8    1  0.5489035E+004  0.1043930E+01  0.7957747E-01            NaN
         13   -1    0    0    0    0  0.00000000000E+00  0.00000000000E+00  0.74505805969E-08  0.10566000000E+00  0.10566000000E+00 0. -1.
     999900   -1    0    0    0    0 -0.00000000000E+00 -0.00000000000E+00 -0.74505805969E-08  0.93827000000E+00  0.93827000000E+00 0.  1.
     999902    2    1    2    0    0  0.27234291532E-02  0.20634085526E-01 -0.14283752732E-01  0.10186870179E+01  0.10183742104E+01 0.  0.
     999903    2    3    3    0    0  0.10877556755E+00 -0.27517645008E-01  0.58459401879E-01  0.12803713624E+00  0.19663715426E-01 0.  0.
         14    1    1    2    0    0 -0.27234291532E-02 -0.20634085526E-01  0.14283752732E-01  0.25242982074E-01  0.00000000000E+00 0. -1.
     999901    1    3    3    0    0 -0.10605213840E+00  0.48151730535E-01 -0.72743154611E-01  0.89064988169E+00  0.88000000000E+00 0.  1.
        -11    1    4    4    0    0  0.78705814482E-01 -0.25844638713E-01  0.49957435671E-01  0.96739635534E-01  0.51100000000E-03 0. -1.
         11    1    4    4    0    0  0.30069753070E-01 -0.16730062955E-02  0.85019662074E-02  0.31297500702E-01  0.51100000000E-03 0.  1.
</event>
<event>
 8    1  0.5489035E+004  0.1043930E+01  0.7957747E-01            NaN
         13   -1    0    0    0    0  0.00000000000E+00  0.00000000000E+00  0.74505805969E-08  0.10566000000E+00  0.10566000000E+00 0. -1.
     999900   -1    0    0    0    0 -0.00000000000E+00 -0.00000000000E+00 -0.74505805969E-08  0.93827000000E+00  0.93827000000E+00 0. -1.
     999902    2    1    2    0    0  0.22684236566E-01 -0.25278654924E-02 -0.78060832187E-02  0.10198074042E+01  0.10195220655E+01 0.  0.
     999903    2    3    3    0    0  0.59452684233E-01  0.49765347516E-01  0.10314861387E+00  0.13053947851E+00  0.19741008865E-01 0.  0.
         14    1    1    2    0    0 -0.22684236566E-01  0.25278654924E-02  0.78060832187E-02  0.24122595792E-01  0.00000000000E+00 0. -1.
     999901    1    3    3    0    0 -0.36768447668E-01 -0.52293213009E-01 -0.11095469709E+00  0.88926792570E+00  0.88000000000E+00 0. -1.
        -11    1    4    4    0    0  0.53425455409E-01  0.41165242680E-01  0.77037251759E-01  0.10239070158E+00  0.51100000000E-03 0. -1.
         11    1    4    4    0    0  0.60272288246E-02  0.86001048366E-02  0.26111362108E-01  0.28148776930E-01  0.51100000000E-03 0.  1.
</event>
<event>
 8    1  0.5489035E+004  0.1043930E+01  0.7957747E-01            NaN
         13   -1    0    0    0    0  0.00000000000E+00  0.00000000000E+00  0.74505805969E-08  0.10566000000E+00  0.10566000000E+00 0.  1.
     999900   -1    0    0    0    0 -0.00000000000E+00 -0.00000000000E+00 -0.74505805969E-08  0.93827000000E+00  0.93827000000E+00 0. -1.
     999902    2    1    2    0    0  0.19036551670E-01 -0.33339346552E-03  0.16238280241E-01  0.10189063473E+01  0.10185990189E+01 0.  0.
     999903    2    3    3    0    0  0.20649638575E-01 -0.59040491511E-01 -0.11008976838E+00  0.12794736882E+00  0.18400675922E-01 0.  0.
         14    1    1    2    0    0 -0.19036551670E-01  0.33339346552E-03 -0.16238280241E-01  0.25023652729E-01  0.00000000000E+00 0. -1.
     999901    1    3    3    0    0 -0.16130869047E-02  0.58707098046E-01  0.12632804863E+00  0.89095897845E+00  0.88000000000E+00 0.  1.
        -11    1    4    4    0    0  0.12831912926E-01 -0.12609194813E-01 -0.33893875989E-01  0.38375848313E-01  0.51100000000E-03 0. -1.
         11    1    4    4    0    0  0.78177256487E-02 -0.46431296698E-01 -0.76195892396E-01  0.89571520509E-01  0.51100000000E-03 0.  1.
</event>
<event>
 8    1  0.5489035E+004  0.1043930E+01  0.7957747E-01            NaN
         13   -1    0    0    0    0  0.00000000000E+00  0.00000000000E+00  0.74505805969E-08  0.10566000000E+00  0.10566000000E+00 0.  1.
     999900   -1    0    0    0    0 -0.00000000000E+00 -0.00000000000E+00 -0.74505805969E-08  0.93827000000E+00  0.93827000000E+00 0. -1.
     999902    2    1    2    0    0  0.63926782827E-02  0.13723294868E-01 -0.23339126151E-01  0.10161107626E+01  0.10157298716E+01 0.  0.
     999903    2    3    3    0    0 -0.94938848043E-01 -0.53648644677E-01  0.55904992490E-01  0.12421015899E+00  0.20278892142E-01 0.  0.
         14    1    1    2    0    0 -0.63926782827E-02 -0.13723294868E-01  0.23339126151E-01  0.27819237357E-01  0.00000000000E+00 0. -1.
     999901    1    3    3    0    0  0.10133152633E+00  0.67371939544E-01 -0.79244118641E-01  0.89190060366E+00  0.88000000000E+00 0. -1.
        -11    1    4    4    0    0 -0.33796640232E-01 -0.27513350480E-01  0.29683687968E-01  0.52731203267E-01  0.51100000000E-03 0. -1.
         11    1    4    4    0    0 -0.61142207811E-01 -0.26135294197E-01  0.26221304521E-01  0.71478955718E-01  0.51100000000E-03 0.  1.
</event>
<event>
 8    1  0.5489035E+004  0.1043930E+01  0.7957747E-01            NaN
         13   -1    0    0    0    0  0.00000000000E+00  0.00000000000E+00  0.74505805969E-08  0.10566000000E+00  0.10566000000E+00 0.  1.
     999900   -1    0    0    0    0 -0.00000000000E+00 -0.00000000000E+00 -0.74505805969E-08  0.93827000000E+00  0.93827000000E+00 0. -1.
     999902    2    1    2    0    0  0.15070663073E-01 -0.68070734427E-02  0.17816918739E-01  0.10196214886E+01  0.10193316812E+01 0.  0.
     999903    2    3    3    0    0  0.13378242917E-01  0.12315898003E+00  0.33378656867E-01  0.12993828258E+00  0.20559931912E-01 0.  0.
         14    1    1    2    0    0 -0.15070663073E-01  0.68070734427E-02 -0.17816918739E-01  0.24308511424E-01  0.00000000000E+00 0. -1.
     999901    1    3    3    0    0  0.16924201566E-02 -0.12996605347E+00 -0.15561738128E-01  0.88968320600E+00  0.88000000000E+00 0. -1.
        -11    1    4    4    0    0 -0.52970007365E-02  0.20406366937E-01  0.70143159829E-02  0.22224755973E-01  0.51100000000E-03 0.  1.
         11    1    4    4    0    0  0.18675243653E-01  0.10275261309E+00  0.26364340884E-01  0.10771352660E+00  0.51100000000E-03 0. -1.
</event>
<event>
 8    1  0.5489035E+004  0.1043930E+01  0.7957747E-01            NaN
         13   -1    0    0    0    0  0.00000000000E+00  0.00000000000E+00  0.74505805969E-08  0.10566000000E+00  0.10566000000E+00 0.  1.
     999900   -1    0    0    0    0 -0.00000000000E+00 -0.00000000000E+00 -0.74505805969E-08  0.93827000000E+00  0.93827000000E+00 0.  1.
     999902    2    1    2    0    0 -0.11911958327E-01  0.40783431350E-03  0.30757086690E-01  0.10109442537E+01  0.10104059702E+01 0.  0.
     999903    2    3    3    0    0  0.86410134639E-01 -0.67178557794E-01 -0.44509869614E-01  0.11970900465E+00  0.19221012091E-01 0.  0.
         14    1    1    2    0    0  0.11911958327E-01 -0.40783431350E-03 -0.30757086690E-01  0.32985746341E-01  0.00000000000E+00 0. -1.
     999901    1    3    3    0    0 -0.98322092966E-01  0.67586392108E-01  0.75266956304E-01  0.89123524901E+00  0.88000000000E+00 0. -1.
        -11    1    4    4    0    0  0.29953894170E-01 -0.32451302569E-01 -0.11386071123E-01  0.45609500666E-01  0.51100000000E-03 0. -1.
         11    1    4    4    0    0  0.56456240469E-01 -0.34727255225E-01 -0.33123798491E-01  0.74099503986E-01  0.51100000000E-03 0.  1.
</event>
<event>
 8    1  0.5489035E+004  0.1043930E+01  0.7957747E-01            NaN
         13   -1    0    0    0    0  0.00000000000E+00  0.00000000000E+00  0.74505805969E-08  0.10566000000E+00  0.10566000000E+00 0.  1.
     999900   -1    0    0    0    0 -0.00000000000E+00 -0.00000000000E+00 -0.74505805969E-08  0.93827000000E+00  0.93827000000E+00 0. -1.
     999902    2    1    2    0    0  0.11658748805E-01  0.19975296574E-01  0.77802196308E-03  0.10207881717E+01  0.10205258191E+01 0.  0.
     999903    2    3    3    0    0  0.12565657516E+00  0.13281678660E-01  0.34979479741E-01  0.13275098297E+00  0.20815417514E-01 0.  0.
         14    1    1    2    0    0 -0.11658748805E-01 -0.19975296574E-01 -0.77802196308E-03  0.23141828257E-01  0.00000000000E+00 0.  1.
     999901    1    3    3    0    0 -0.11399782636E+00  0.66936179140E-02 -0.34201457778E-01  0.88803718878E+00  0.88000000000E+00 0. -1.
        -11    1    4    4    0    0  0.11505062113E+00  0.13984581624E-01  0.25887895252E-01  0.11875461333E+00  0.51100000000E-03 0. -1.
         11    1    4    4    0    0  0.10605954035E-01 -0.70290296445E-03  0.90915844890E-02  0.13996369639E-01  0.51100000000E-03 0.  1.
</event>
<event>
 7    1  0.5489035E+004  0.1043930E+01  0.7957747E-01            NaN
         13   -1    0    0    0    0  0.00000000000E+00  0.00000000000E+00  0.74505805969E-08  0.10566000000E+00  0.10566000000E+00 0. -1.
     999900   -1    0    0    0    0 -0.00000000000E+00 -0.00000000000E+00 -0.74505805969E-08  0.93827000000E+00  0.93827000000E+00 0.  1.
     999903    2    1    2    0    0 -0.18209730575E-01 -0.64765072218E-01  0.31940475133E-01  0.77021698172E-01  0.19647879545E-01 0.  0.
         14    1    1    2    0    0  0.48483461011E-01 -0.56346275872E-01  0.18720040142E-01  0.76654997875E-01  0.00000000000E+00 0. -1.
     999901    1    1    2    0    0 -0.30273730436E-01  0.12111134809E+00 -0.50660515275E-01  0.89025330395E+00  0.88000000000E+00 0.  1.
        -11    1    3    3    0    0 -0.96853631444E-02 -0.58973163635E-01  0.26993135727E-01  0.65578432322E-01  0.51100000000E-03 0.  1.
         11    1    3    3    0    0 -0.85243674310E-02 -0.57919085824E-02  0.49473394059E-02  0.11443265850E-01  0.51100000000E-03 0. -1.
</event>
<event>
 8    1  0.5489035E+004  0.1043930E+01  0.7957747E-01            NaN
         13   -1    0    0    0    0  0.00000000000E+00  0.00000000000E+00  0.74505805969E-08  0.10566000000E+00  0.10566000000E+00 0.  1.
     999900   -1    0    0    0    0 -0.00000000000E+00 -0.00000000000E+00 -0.74505805969E-08  0.93827000000E+00  0.93827000000E+00 0. -1.
     999902    2    1    2    0    0  0.84767283647E-02  0.91692597678E-02 -0.21668431788E-01  0.10189209779E+01  0.10186140133E+01 0.  0.
     999903    2    3    3    0    0  0.10051171266E+00 -0.71239277217E-01 -0.37055535776E-01  0.13034192455E+00  0.20934793104E-01 0.  0.
         14    1    1    2    0    0 -0.84767283647E-02 -0.91692597678E-02  0.21668431788E-01  0.25009022064E-01  0.00000000000E+00 0.  1.
     999901    1    3    3    0    0 -0.92034984296E-01  0.80408536985E-01  0.15387103988E-01  0.88857905339E+00  0.88000000000E+00 0.  1.
        -11    1    4    4    0    0  0.74590516465E-01 -0.62844035919E-01 -0.26079419675E-01  0.10096293998E+00  0.51100000000E-03 0.  1.
         11    1    4    4    0    0  0.25921196195E-01 -0.83952412975E-02 -0.10976116101E-01  0.29378984569E-01  0.51100000000E-03 0. -1.
</event>
<event>
 8    1  0.5489035E+004  0.1043930E+01  0.7957747E-01            NaN
         13   -1    0    0    0    0  0.00000000000E+00  0.00000000000E+00  0.74505805969E-08  0.10566000000E+00  0.10566000000E+00 0. -1.
     999900   -1    0    0    0    0 -0.00000000000E+00 -0.00000000000E+00 -0.74505805969E-08  0.93827000000E+00  0.93827000000E+00 0.  1.
     999902    2    1    2    0    0 -0.20134600278E-02  0.30648750563E-01  0.83016277953E-02  0.10121130712E+01  0.10116128469E+01 0.  0.
     999903    2    3    3    0    0  0.45130350255E-01 -0.10779670172E+00  0.18095489388E-01  0.11998886360E+00  0.20322481045E-01 0.  0.
         14    1    1    2    0    0  0.20134600278E-02 -0.30648750563E-01 -0.83016277953E-02  0.31816928771E-01  0.00000000000E+00 0. -1.
     999901    1    3    3    0    0 -0.47143810283E-01  0.13844545229E+00 -0.97938615932E-02  0.89212420763E+00  0.88000000000E+00 0.  1.
        -11    1    4    4    0    0  0.27633128607E-01 -0.58883906323E-01  0.21677671654E-03  0.65047769628E-01  0.51100000000E-03 0. -1.
         11    1    4    4    0    0  0.17497221649E-01 -0.48912795401E-01  0.17878712672E-01  0.54941093975E-01  0.51100000000E-03 0.  1.
</event>
<event>
 8    1  0.5489035E+004  0.1043930E+01  0.7957747E-01            NaN
         13   -1    0    0    0    0  0.00000000000E+00  0.00000000000E+00  0.74505805969E-08  0.10566000000E+00  0.10566000000E+00 0.  1.
     999900   -1    0    0    0    0 -0.00000000000E+00 -0.00000000000E+00 -0.74505805969E-08  0.93827000000E+00  0.93827000000E+00 0. -1.
     999902    2    1    2    0    0  0.15335710922E-01  0.11720732806E-01  0.11823066845E-01  0.10212949715E+01  0.10210441098E+01 0.  0.
     999903    2    3    3    0    0 -0.84293734468E-01 -0.89907325069E-01 -0.31593463398E-01  0.12880447649E+00  0.20091925283E-01 0.  0.
         14    1    1    2    0    0 -0.15335710922E-01 -0.11720732806E-01 -0.11823066845E-01  0.22635028532E-01  0.00000000000E+00 0. -1.
     999901    1    3    3    0    0  0.99629445390E-01  0.10162805788E+00  0.43416530243E-01  0.89249049498E+00  0.88000000000E+00 0.  1.
        -11    1    4    4    0    0 -0.31369663396E-01 -0.47316167763E-01 -0.17648653314E-01  0.59452599591E-01  0.51100000000E-03 0.  1.
         11    1    4    4    0    0 -0.52924071072E-01 -0.42591157306E-01 -0.13944810084E-01  0.69351876894E-01  0.51100000000E-03 0. -1.
</event>
<event>
 8    1  0.5489035E+004  0.1043930E+01  0.7957747E-01            NaN
         13   -1    0    0    0    0  0.00000000000E+00  0.00000000000E+00  0.74505805969E-08  0.10566000000E+00  0.10566000000E+00 0. -1.
     999900   -1    0    0    0    0 -0.00000000000E+00 -0.00000000000E+00 -0.74505805969E-08  0.93827000000E+00  0.93827000000E+00 0.  1.
     999902    2    1    2    0    0 -0.97891441063E-02  0.20746774284E-01  0.37442782321E-02  0.10206861706E+01  0.10204214733E+01 0.  0.
     999903    2    3    3    0    0 -0.76952019897E-01 -0.10117124905E+00 -0.16626923433E-01  0.12951287536E+00  0.18436249648E-01 0.  0.
         14    1    1    2    0    0  0.97891441063E-02 -0.20746774284E-01 -0.37442782321E-02  0.23243829396E-01  0.00000000000E+00 0.  1.
     999901    1    3    3    0    0  0.67162875791E-01  0.12191802333E+00  0.20371201666E-01  0.89117329524E+00  0.88000000000E+00 0.  1.
        -11    1    4    4    0    0 -0.50479271633E-01 -0.51314715415E-01 -0.86736644310E-02  0.72504140974E-01  0.51100000000E-03 0. -1.
         11    1    4    4    0    0 -0.26472748264E-01 -0.49856533633E-01 -0.79532590025E-02  0.57008734386E-01  0.51100000000E-03 0.  1.
</event>
<event>
 8    1  0.5489035E+004  0.1043930E+01  0.7957747E-01            NaN
         13   -1    0    0    0    0  0.00000000000E+00  0.00000000000E+00  0.74505805969E-08  0.10566000000E+00  0.10566000000E+00 0. -1.
     999900   -1    0    0    0    0 -0.00000000000E+00 -0.00000000000E+00 -0.74505805969E-08  0.93827000000E+00  0.93827000000E+00 0.  1.
     999902    2    1    2    0    0 -0.42341917661E-03 -0.22225603435E-01  0.89706750940E-02  0.10199585640E+01  0.10196768324E+01 0.  0.
     999903    2    3    3    0    0  0.99782529859E-01  0.13258260990E-01 -0.78505308402E-01  0.12925525507E+00  0.20285530993E-01 0.  0.
         14    1    1    2    0    0  0.42341917661E-03  0.22225603435E-01 -0.89706750940E-02  0.23971435992E-01  0.00000000000E+00 0.  1.
     999901    1    3    3    0    0 -0.10020594904E+00 -0.35483864425E-01  0.87475983497E-01  0.89070330893E+00  0.88000000000E+00 0. -1.
        -11    1    4    4    0    0  0.47116552858E-01  0.28227054996E-02 -0.24834642135E-01  0.53338145735E-01  0.51100000000E-03 0. -1.
         11    1    4    4    0    0  0.52665977001E-01  0.10435555490E-01 -0.53670666268E-01  0.75917109339E-01  0.51100000000E-03 0.  1.
</event>
<event>
 8    1  0.5489035E+004  0.1043930E+01  0.7957747E-01            NaN
         13   -1    0    0    0    0  0.00000000000E+00  0.00000000000E+00  0.74505805969E-08  0.10566000000E+00  0.10566000000E+00 0.  1.
     999900   -1    0    0    0    0 -0.00000000000E+00 -0.00000000000E+00 -0.74505805969E-08  0.93827000000E+00  0.93827000000E+00 0.  1.
     999902    2    1    2    0    0  0.19915445107E-01  0.79516602853E-02 -0.40091841214E-02  0.10221142394E+01  0.10218813977E+01 0.  0.
     999903    2    3    3    0    0  0.10870156570E+00 -0.29477428452E-01  0.68425841483E-01  0.13389650432E+00  0.23690270425E-01 0.  0.
         14    1    1    2    0    0 -0.19915445107E-01 -0.79516602853E-02  0.40091841214E-02  0.21815760643E-01  0.00000000000E+00 0. -1.
     999901    1    3    3    0    0 -0.88786120596E-01  0.37429088738E-01 -0.72435025604E-01  0.88821773503E+00  0.88000000000E+00 0.  1.
        -11    1    4    4    0    0  0.10350055355E+00 -0.25312624230E-01  0.69375402992E-01  0.12714677028E+00  0.51100000000E-03 0.  1.
         11    1    4    4    0    0  0.52010121528E-02 -0.41648042226E-02 -0.94956150951E-03  0.67497340456E-02  0.51100000000E-03 0. -1.
</event>
<event>
 8    1  0.5489035E+004  0.1043930E+01  0.7957747E-01            NaN
         13   -1    0    0    0    0  0.00000000000E+00  0.00000000000E+00  0.74505805969E-08  0.10566000000E+00  0.10566000000E+00 0.  1.
     999900   -1    0    0    0    0 -0.00000000000E+00 -0.00000000000E+00 -0.74505805969E-08  0.93827000000E+00  0.93827000000E+00 0.  1.
     999902    2    1    2    0    0  0.12806717440E-01  0.91702908703E-02  0.25684688628E-01  0.10138001232E+01  0.10133522982E+01 0.  0.
     999903    2    3    3    0    0  0.54146146655E-01  0.92279790329E-01  0.67184116358E-01  0.12794554156E+00  0.20223531173E-01 0.  0.
         14    1    1    2    0    0 -0.12806717440E-01 -0.91702908703E-02 -0.25684688628E-01  0.30129876803E-01  0.00000000000E+00 0. -1.
     999901    1    3    3    0    0 -0.41339429215E-01 -0.83109499459E-01 -0.41499427729E-01  0.88585458164E+00  0.88000000000E+00 0.  1.
        -11    1    4    4    0    0  0.45343676173E-01  0.71800919601E-01  0.43488671250E-01  0.95409363653E-01  0.51100000000E-03 0. -1.
         11    1    4    4    0    0  0.88024704817E-02  0.20478870728E-01  0.23695445107E-01  0.32536177906E-01  0.51100000000E-03 0.  1.
</event>
<event>
 8    1  0.5489035E+004  0.1043930E+01  0.7957747E-01            NaN
         13   -1    0    0    0    0  0.00000000000E+00  0.00000000000E+00  0.74505805969E-08  0.10566000000E+00  0.10566000000E+00 0. -1.
     999900   -1    0    0    0    0 -0.00000000000E+00 -0.00000000000E+00 -0.74505805969E-08  0.93827000000E+00  0.93827000000E+00 0. -1.
     999902    2    1    2    0    0 -0.24406573328E-01 -0.10459637354E-01 -0.10390337067E-02  0.10173562455E+01  0.10170091277E+01 0.  0.
     999903    2    3    3    0    0 -0.89318365057E-01 -0.34720614094E-01 -0.86170105169E-01  0.13053640192E+00  0.20764725450E-01 0.  0.
         14    1    1    2    0    0  0.24406573328E-01  0.10459637354E-01  0.10390337067E-02  0.26573754462E-01  0.00000000000E+00 0.  1.
     999901    1    3    3    0    0  0.64911791729E-01  0.24260976741E-01  0.85131071462E-01  0.88681984361E+00  0.88000000000E+00 0.  1.
        -11    1    4    4    0    0 -0.66068434524E-01 -0.34655112749E-01 -0.69067553982E-01  0.10166908583E+00  0.51100000000E-03 0. -1.
         11    1    4    4    0    0 -0.23249930533E-01 -0.65501345546E-04 -0.17102551187E-01  0.28867316091E-01  0.51100000000E-03 0.  1.
</event>
<event>
 8    1  0.5489035E+004  0.1043930E+01  0.7957747E-01            NaN
         13   -1    0    0    0    0  0.00000000000E+00  0.00000000000E+00  0.74505805969E-08  0.10566000000E+00  0.10566000000E+00 0. -1.
     999900   -1    0    0    0    0 -0.00000000000E+00 -0.00000000000E+00 -0.74505805969E-08  0.93827000000E+00  0.93827000000E+00 0.  1.
     999902    2    1    2    0    0 -0.11125102189E-01 -0.19133201558E-01 -0.23324925704E-01  0.10117756930E+01  0.10112646308E+01 0.  0.
     999903    2    3    3    0    0 -0.69523170432E-01  0.14964186328E-02 -0.10319778839E+00  0.12599039744E+00  0.19699904156E-01 0.  0.
         14    1    1    2    0    0  0.11125102189E-01  0.19133201558E-01  0.23324925704E-01  0.32154307016E-01  0.00000000000E+00 0. -1.
     999901    1    3    3    0    0  0.58398068243E-01 -0.20629620191E-01  0.79872862684E-01  0.88578529554E+00  0.88000000000E+00 0. -1.
        -11    1    4    4    0    0 -0.45290760685E-01 -0.35590624177E-02 -0.80320850412E-01  0.92280117364E-01  0.51100000000E-03 0. -1.
         11    1    4    4    0    0 -0.24232409747E-01  0.50554810505E-02 -0.22876937976E-01  0.33710280078E-01  0.51100000000E-03 0.  1.
</event>
<event>
 8    1  0.5489035E+004  0.1043930E+01  0.7957747E-01            NaN
         13   -1    0    0    0    0  0.00000000000E+00  0.00000000000E+00  0.74505805969E-08  0.10566000000E+00  0.10566000000E+00 0.  1.
     999900   -1    0    0    0    0 -0.00000000000E+00 -0.00000000000E+00 -0.74505805969E-08  0.93827000000E+00  0.93827000000E+00 0.  1.
     999902    2    1    2    0    0  0.15181146849E-01 -0.10472468234E-01  0.11902306547E-01  0.10219799496E+01  0.10217442012E+01 0.  0.
     999903    2    3    3    0    0  0.13057287158E+00  0.19804639558E-01  0.94923429056E-02  0.13392715765E+00  0.20121641152E-01 0.  0.
         14    1    1    2    0    0 -0.15181146849E-01  0.10472468234E-01 -0.11902306547E-01  0.21950050381E-01  0.00000000000E+00 0. -1.
     999901    1    3    3    0    0 -0.11539172473E+00 -0.30277107791E-01  0.24099636414E-02  0.88805279197E+00  0.88000000000E+00 0.  1.
        -11    1    4    4    0    0  0.11247652496E+00  0.14142269673E-01  0.15790938773E-02  0.11337427890E+00  0.51100000000E-03 0. -1.
         11    1    4    4    0    0  0.18096346621E-01  0.56623698847E-02  0.79132490282E-02  0.20552878751E-01  0.51100000000E-03 0.  1.
</event>
<event>
 8    1  0.5489035E+004  0.1043930E+01  0.7957747E-01            NaN
         13   -1    0    0    0    0  0.00000000000E+00  0.00000000000E+00  0.74505805969E-08  0.10566000000E+00  0.10566000000E+00 0. -1.
     999900   -1    0    0    0    0 -0.00000000000E+00 -0.00000000000E+00 -0.74505805969E-08  0.93827000000E+00  0.93827000000E+00 0. -1.
     999902    2    1    2    0    0 -0.17940465158E-01  0.78413899820E-02  0.13137176641E-01  0.10203517665E+01  0.10200793078E+01 0.  0.
     999903    2    3    3    0    0  0.97191264882E-01  0.77401591658E-01 -0.28965647687E-01  0.12913541521E+00  0.19994958216E-01 0.  0.
         14    1    1    2    0    0  0.17940465158E-01 -0.78413899820E-02 -0.13137176641E-01  0.23578233544E-01  0.00000000000E+00 0. -1.
     999901    1    3    3    0    0 -0.11513173004E+00 -0.69560201676E-01  0.42102824328E-01  0.89121635125E+00  0.88000000000E+00 0. -1.
        -11    1    4    4    0    0  0.79296705229E-01  0.60768525352E-01 -0.31027136729E-01  0.10461226251E+00  0.51100000000E-03 0. -1.
         11    1    4    4    0    0  0.17894559653E-01  0.16633066306E-01  0.20614890426E-02  0.24523152692E-01  0.51100000000E-03 0.  1.
</event>
<event>
 8    1  0.5489035E+004  0.1043930E+01  0.7957747E-01            NaN
         13   -1    0    0    0    0  0.00000000000E+00  0.00000000000E+00  0.74505805969E-08  0.10566000000E+00  0.10566000000E+00 0.  1.
     999900   -1    0    0    0    0 -0.00000000000E+00 -0.00000000000E+00 -0.74505805969E-08  0.93827000000E+00  0.93827000000E+00 0.  1.
     999902    2    1    2    0    0  0.49336446024E-02  0.95920935403E-05  0.23514383163E-01  0.10199036154E+01  0.10196205753E+01 0.  0.
     999903    2    3    3    0    0 -0.25915693488E-01 -0.60376893013E-01  0.11354224581E+00  0.13271523333E+00  0.20112165337E-01 0.  0.
         14    1    1    2    0    0 -0.49336446024E-02 -0.95920935403E-05 -0.23514383163E-01  0.24026384593E-01  0.00000000000E+00 0. -1.
     999901    1    3    3    0    0  0.30849338090E-01  0.60386485107E-01 -0.90027862648E-01  0.88718838208E+00  0.88000000000E+00 0.  1.
        -11    1    4    4    0    0 -0.16457951491E-01 -0.47859127977E-01  0.99592631128E-01  0.11171532390E+00  0.51100000000E-03 0.  1.
         11    1    4    4    0    0 -0.94577419972E-02 -0.12517765036E-01  0.13949614683E-01  0.20999909428E-01  0.51100000000E-03 0. -1.
</event>
<event>
 8    1  0.5489035E+004  0.1043930E+01  0.7957747E-01            NaN
         13   -1    0    0    0    0  0.00000000000E+00  0.00000000000E+00  0.74505805969E-08  0.10566000000E+00  0.10566000000E+00 0.  1.
     999900   -1    0    0    0    0 -0.00000000000E+00 -0.00000000000E+00 -0.74505805969E-08  0.93827000000E+00  0.93827000000E+00 0. -1.
     999902    2    1    2    0    0 -0.99821462990E-02  0.21649707630E-01  0.91265745452E-03  0.10200723801E+01  0.10197933489E+01 0.  0.
     999903    2    3    3    0    0 -0.22830225746E-01 -0.65241093068E-01 -0.10718019607E+00  0.12911831314E+00  0.20157502992E-01 0.  0.
         14    1    1    2    0    0  0.99821462990E-02 -0.21649707630E-01 -0.91265745452E-03  0.23857619932E-01  0.00000000000E+00 0.  1.
     999901    1    3    3    0    0  0.12848079447E-01  0.86890800697E-01  0.10809285352E+00  0.89095406693E+00  0.88000000000E+00 0. -1.
        -11    1    4    4    0    0 -0.19276939869E-01 -0.33461715541E-01 -0.45831354895E-01  0.59933805404E-01  0.51100000000E-03 0.  1.
         11    1    4    4    0    0 -0.35532858762E-02 -0.31779377526E-01 -0.61348841174E-01  0.69184507737E-01  0.51100000000E-03 0. -1.
</event>
<event>
 8    1  0.5489035E+004  0.1043930E+01  0.7957747E-01            NaN
         13   -1    0    0    0    0  0.00000000000E+00  0.00000000000E+00  0.74505805969E-08  0.10566000000E+00  0.10566000000E+00 0. -1.
     999900   -1    0    0    0    0 -0.00000000000E+00 -0.00000000000E+00 -0.74505805969E-08  0.93827000000E+00  0.93827000000E+00 0. -1.
     999902    2    1    2    0    0 -0.11175979800E-01 -0.21416890137E-01  0.27653755795E-02  0.10196147165E+01  0.10193247457E+01 0.  0.
     999903    2    3    3    0    0 -0.23065631236E-01  0.12126909239E+00  0.25750808546E-01  0.12774646195E+00  0.20441093049E-01 0.  0.
         14    1    1    2    0    0  0.11175979800E-01  0.21416890137E-01 -0.27653755795E-02  0.24315283460E-01  0.00000000000E+00 0.  1.
     999901    1    3    3    0    0  0.11889651436E-01 -0.14268598253E+00 -0.22985432967E-01  0.89186825459E+00  0.88000000000E+00 0.  1.
        -11    1    4    4    0    0 -0.21285041020E-01  0.79049803086E-01  0.24553312117E-01  0.85469588721E-01  0.51100000000E-03 0.  1.
         11    1    4    4    0    0 -0.17805902161E-02  0.42219289307E-01  0.11974964295E-02  0.42276873227E-01  0.51100000000E-03 0. -1.
</event>
<event>
 8    1  0.5489035E+004  0.1043930E+01  0.7957747E-01            NaN
         13   -1    0    0    0    0  0.00000000000E+00  0.00000000000E+00  0.74505805969E-08  0.10566000000E+00  0.10566000000E+00 0. -1.
     999900   -1    0    0    0    0 -0.00000000000E+00 -0.00000000000E+00 -0.74505805969E-08  0.93827000000E+00  0.93827000000E+00 0.  1.
     999902    2    1    2    0    0 -0.85845365480E-02  0.14988523893E-01  0.15977903862E-01  0.10204003691E+01  0.10201290457E+01 0.  0.
     999903    2    3    3    0    0  0.51486347879E-01 -0.85498618949E-01 -0.77233507646E-01  0.12776688094E+00  0.19962547485E-01 0.  0.
         14    1    1    2    0    0  0.85845365480E-02 -0.14988523893E-01 -0.15977903862E-01  0.23529630852E-01  0.00000000000E+00 0.  1.
     999901    1    3    3    0    0 -0.60070884427E-01  0.10048714284E+00  0.93211411508E-01  0.89263348821E+00  0.88000000000E+00 0. -1.
        -11    1    4    4    0    0  0.28310949302E-01 -0.29047356580E-01 -0.27041480594E-01  0.48752041684E-01  0.51100000000E-03 0.  1.
         11    1    4    4    0    0  0.23175398578E-01 -0.56451262369E-01 -0.50192027053E-01  0.79014839258E-01  0.51100000000E-03 0. -1.
</event>
<event>
 8    1  0.5489035E+004  0.1043930E+01  0.7957747E-01            NaN
         13   -1    0    0    0    0  0.00000000000E+00  0.00000000000E+00  0.74505805969E-08  0.10566000000E+00  0.10566000000E+00 0. -1.
     999900   -1    0    0    0    0 -0.00000000000E+00 -0.00000000000E+00 -0.74505805969E-08  0.93827000000E+00  0.93827000000E+00 0.  1.
     999902    2    1    2    0    0  0.21828184087E-01  0.12018649070E-03 -0.82547628615E-02  0.10205927942E+01  0.10203259412E+01 0.  0.
     999903    2    3    3    0    0  0.39333830505E-02 -0.11838664681E+00  0.50994427205E-01  0.13049473219E+00  0.19939254735E-01 0.  0.
         14    1    1    2    0    0 -0.21828184087E-01 -0.12018649070E-03  0.82547628615E-02  0.23337205815E-01  0.00000000000E+00 0. -1.
     999901    1    3    3    0    0  0.17894801037E-01  0.11850683330E+00 -0.59249190067E-01  0.89009806199E+00  0.88000000000E+00 0.  1.
        -11    1    4    4    0    0  0.10298292713E-01 -0.10149613270E+00  0.44557431682E-01  0.11132450595E+00  0.51100000000E-03 0.  1.
         11    1    4    4    0    0 -0.63649096623E-02 -0.16890514109E-01  0.64369955235E-02  0.19170226244E-01  0.51100000000E-03 0. -1.
</event>
<event>
 8    1  0.5489035E+004  0.1043930E+01  0.7957747E-01            NaN
         13   -1    0    0    0    0  0.00000000000E+00  0.00000000000E+00  0.74505805969E-08  0.10566000000E+00  0.10566000000E+00 0. -1.
     999900   -1    0    0    0    0 -0.00000000000E+00 -0.00000000000E+00 -0.74505805969E-08  0.93827000000E+00  0.93827000000E+00 0.  1.
     999902    2    1    2    0    0 -0.14507224548E-01 -0.81253836064E-02  0.17524456505E-01  0.10197724339E+01  0.10194862574E+01 0.  0.
     999903    2    3    3    0    0  0.61809310661E-01 -0.99596788333E-01 -0.52471780607E-01  0.12899148182E+00  0.12066627150E-01 0.  0.
         14    1    1    2    0    0  0.14507224548E-01  0.81253836064E-02 -0.17524456505E-01  0.24157566074E-01  0.00000000000E+00 0.  1.
     999901    1    3    3    0    0 -0.76316535208E-01  0.91471404727E-01  0.69996237112E-01  0.89078095211E+00  0.88000000000E+00 0.  1.
        -11    1    4    4    0    0  0.26289005168E-01 -0.53759928855E-01 -0.26605158957E-01  0.65493032815E-01  0.51100000000E-03 0.  1.
         11    1    4    4    0    0  0.35520305492E-01 -0.45836859479E-01 -0.25866621650E-01  0.63498449002E-01  0.51100000000E-03 0. -1.
</event>
<event>
 8    1  0.5489035E+004  0.1043930E+01  0.7957747E-01            NaN
         13   -1    0    0    0    0  0.00000000000E+00  0.00000000000E+00  0.74505805969E-08  0.10566000000E+00  0.10566000000E+00 0. -1.
     999900   -1    0    0    0    0 -0.00000000000E+00 -0.00000000000E+00 -0.74505805969E-08  0.93827000000E+00  0.93827000000E+00 0. -1.
     999902    2    1    2    0    0 -0.20219924767E-01  0.12513334195E-01  0.48500300254E-02  0.10196616733E+01  0.10193728348E+01 0.  0.
     999903    2    3    3    0    0 -0.78371953653E-01  0.97807773236E-01  0.34821296950E-01  0.13312059886E+00  0.28285110851E-01 0.  0.
         14    1    1    2    0    0  0.20219924767E-01 -0.12513334195E-01 -0.48500300254E-02  0.24268326715E-01  0.00000000000E+00 0. -1.
     999901    1    3    3    0    0  0.58152028886E-01 -0.85294439041E-01 -0.29971266925E-01  0.88654107442E+00  0.88000000000E+00 0. -1.
        -11    1    4    4    0    0 -0.36585797733E-01  0.24654893594E-01  0.14677137127E-01  0.46497998334E-01  0.51100000000E-03 0.  1.
         11    1    4    4    0    0 -0.41786155920E-01  0.73152879642E-01  0.20144159823E-01  0.86622600530E-01  0.51100000000E-03 0. -1.
</event>
<event>
 8    1  0.5489035E+004  0.1043930E+01  0.7957747E-01            NaN
         13   -1    0    0    0    0  0.00000000000E+00  0.00000000000E+00  0.74505805969E-08  0.10566000000E+00  0.10566000000E+00 0. -1.
     999900   -1    0    0    0    0 -0.00000000000E+00 -0.00000000000E+00 -0.74505805969E-08  0.93827000000E+00  0.93827000000E+00 0. -1.
     999902    2    1    2    0    0 -0.13873063644E-01 -0.16983766374E-01  0.20702567162E-02  0.10219028309E+01  0.10216654049E+01 0.  0.
     999903    2    3    3    0    0 -0.95117347978E-01 -0.90563827260E-01  0.23213655173E-01  0.13485057631E+00  0.19917014094E-01 0.  0.
         14    1    1    2    0    0  0.13873063644E-01  0.16983766374E-01 -0.20702567162E-02  0.22027169087E-01  0.00000000000E+00 0. -1.
     999901    1    3    3    0    0  0.81244284334E-01  0.73580060885E-01 -0.21143398457E-01  0.88705225460E+00  0.88000000000E+00 0. -1.
        -11    1    4    4    0    0 -0.43022720393E-01 -0.35369326950E-01  0.76731832836E-03  0.55702725762E-01  0.51100000000E-03 0.  1.
         11    1    4    4    0    0 -0.52094627585E-01 -0.55194500309E-01  0.22446336844E-01  0.79147850548E-01  0.51100000000E-03 0. -1.
</event>
<event>
 8    1  0.5489035E+004  0.1043930E+01  0.7957747E-01            NaN
         13   -1    0    0    0    0  0.00000000000E+00  0.00000000000E+00  0.74505805969E-08  0.10566000000E+00  0.10566000000E+00 0. -1.
     999900   -1    0    0    0    0 -0.00000000000E+00 -0.00000000000E+00 -0.74505805969E-08  0.93827000000E+00  0.93827000000E+00 0.  1.
     999902    2    1    2    0    0  0.10620844787E-01  0.16964079932E-01 -0.13426913508E-01  0.10198288723E+01  0.10195440473E+01 0.  0.
     999903    2    3    3    0    0  0.94316393807E-01 -0.69179218914E-01  0.51653881458E-01  0.12928907936E+00  0.19136251003E-01 0.  0.
         14    1    1    2    0    0 -0.10620844787E-01 -0.16964079932E-01  0.13426913508E-01  0.24101127739E-01  0.00000000000E+00 0. -1.
     999901    1    3    3    0    0 -0.83695549020E-01  0.86143298847E-01 -0.65080794965E-01  0.89053979290E+00  0.88000000000E+00 0.  1.
        -11    1    4    4    0    0  0.75550851361E-01 -0.46229759185E-01  0.42615044657E-01  0.98292547672E-01  0.51100000000E-03 0. -1.
         11    1    4    4    0    0  0.18765542446E-01 -0.22949459729E-01  0.90388368004E-02  0.30996531691E-01  0.51100000000E-03 0.  1.
</event>
<event>
 8    1  0.5489035E+004  0.1043930E+01  0.7957747E-01            NaN
         13   -1    0    0    0    0  0.00000000000E+00  0.00000000000E+00  0.74505805969E-08  0.10566000000E+00  0.10566000000E+00 0.  1.
     999900   -1    0    0    0    0 -0.00000000000E+00 -0.00000000000E+00 -0.74505805969E-08  0.93827000000E+00  0.93827000000E+00 0.  1.
     999902    2    1    2    0    0  0.17056951070E-01  0.35160101636E-02  0.15921449222E-01  0.10203335076E+01  0.10200606219E+01 0.  0.
     999903    2    3    3    0    0 -0.18258926896E-01  0.21509841587E-02  0.12948726378E+00  0.13233223016E+00  0.20170585399E-01 0.  0.
         14    1    1    2    0    0 -0.17056951070E-01 -0.35160101636E-02 -0.15921449222E-01  0.23596492379E-01  0.00000000000E+00 0. -1.
     999901    1    3    3    0    0  0.35315877966E-01  0.13650260049E-02 -0.11356581455E+00  0.88800127746E+00  0.88000000000E+00 0.  1.
        -11    1    4    4    0    0 -0.11947019091E-01 -0.76649369088E-02  0.49535929060E-01  0.51532047425E-01  0.51100000000E-03 0.  1.
         11    1    4    4    0    0 -0.63119078048E-02  0.98159210675E-02  0.79951334716E-01  0.80800182737E-01  0.51100000000E-03 0. -1.
</event>
<event>
 8    1  0.5489035E+004  0.1043930E+01  0.7957747E-01            NaN
         13   -1    0    0    0    0  0.00000000000E+00  0.00000000000E+00  0.74505805969E-08  0.10566000000E+00  0.10566000000E+00 0. -1.
     999900   -1    0    0    0    0 -0.00000000000E+00 -0.00000000000E+00 -0.74505805969E-08  0.93827000000E+00  0.93827000000E+00 0.  1.
     999902    2    1    2    0    0  0.96260771310E-02 -0.87175246624E-02  0.23496744062E-01  0.10170831458E+01  0.10167287603E+01 0.  0.
     999903    2    3    3    0    0 -0.10249390863E+00  0.39966777828E-01  0.61800369158E-01  0.12780916094E+00  0.20335962086E-01 0.  0.
         14    1    1    2    0    0 -0.96260771310E-02  0.87175246624E-02 -0.23496744062E-01  0.26846854168E-01  0.00000000000E+00 0.  1.
     999901    1    3    3    0    0  0.11211998577E+00 -0.48684302490E-01 -0.38303625096E-01  0.88927398490E+00  0.88000000000E+00 0.  1.
        -11    1    4    4    0    0 -0.75564248376E-01  0.19530156343E-01  0.42144317539E-01  0.88700548257E-01  0.51100000000E-03 0. -1.
         11    1    4    4    0    0 -0.26929660259E-01  0.20436621485E-01  0.19656051620E-01  0.39108612679E-01  0.51100000000E-03 0.  1.
</event>
<event>
 8    1  0.5489035E+004  0.1043930E+01  0.7957747E-01            NaN
         13   -1    0    0    0    0  0.00000000000E+00  0.00000000000E+00  0.74505805969E-08  0.10566000000E+00  0.10566000000E+00 0. -1.
     999900   -1    0    0    0    0 -0.00000000000E+00 -0.00000000000E+00 -0.74505805969E-08  0.93827000000E+00  0.93827000000E+00 0.  1.
     999902    2    1    2    0    0 -0.16032858011E-01  0.14681241973E-01 -0.17827057736E-02  0.10221178602E+01  0.10218850966E+01 0.  0.
     999903    2    3    3    0    0  0.64333853304E-01  0.57286699209E-01  0.97721222834E-01  0.13185100973E+00  0.20362730352E-01 0.  0.
         14    1    1    2    0    0  0.16032858011E-01 -0.14681241973E-01  0.17827057736E-02  0.21812139780E-01  0.00000000000E+00 0. -1.
     999901    1    3    3    0    0 -0.80366711315E-01 -0.42605457236E-01 -0.99503928608E-01  0.89026685049E+00  0.88000000000E+00 0.  1.
        -11    1    4    4    0    0  0.18517860837E-01  0.20473471403E-01  0.45529284218E-01  0.53247075448E-01  0.51100000000E-03 0.  1.
         11    1    4    4    0    0  0.45815992466E-01  0.36813227806E-01  0.52191938616E-01  0.78603934282E-01  0.51100000000E-03 0. -1.
</event>
<event>
 8    1  0.5489035E+004  0.1043930E+01  0.7957747E-01            NaN
         13   -1    0    0    0    0  0.00000000000E+00  0.00000000000E+00  0.74505805969E-08  0.10566000000E+00  0.10566000000E+00 0.  1.
     999900   -1    0    0    0    0 -0.00000000000E+00 -0.00000000000E+00 -0.74505805969E-08  0.93827000000E+00  0.93827000000E+00 0.  1.
     999902    2    1    2    0    0 -0.23906276606E-01  0.60948702900E-02 -0.12588189571E-01  0.10162330684E+01  0.10158555651E+01 0.  0.
     999903    2    3    3    0    0  0.40806902083E-01 -0.15696679837E-01  0.11483172745E+00  0.12443796724E+00  0.19669596947E-01 0.  0.
         14    1    1    2    0    0  0.23906276606E-01 -0.60948702900E-02  0.12588189571E-01  0.27696931629E-01  0.00000000000E+00 0.  1.
     999901    1    3    3    0    0 -0.64713178688E-01  0.21791550127E-01 -0.12741991703E+00  0.89179510113E+00  0.88000000000E+00 0.  1.
        -11    1    4    4    0    0  0.27952877080E-01 -0.14634866361E-01  0.56694676077E-01  0.64885206842E-01  0.51100000000E-03 0. -1.
         11    1    4    4    0    0  0.12854025003E-01 -0.10618134763E-02  0.58137051378E-01  0.59552760394E-01  0.51100000000E-03 0.  1.
</event>
<event>
 8    1  0.5489035E+004  0.1043930E+01  0.7957747E-01            NaN
         13   -1    0    0    0    0  0.00000000000E+00  0.00000000000E+00  0.74505805969E-08  0.10566000000E+00  0.10566000000E+00 0.  1.
     999900   -1    0    0    0    0 -0.00000000000E+00 -0.00000000000E+00 -0.74505805969E-08  0.93827000000E+00  0.93827000000E+00 0.  1.
     999902    2    1    2    0    0  0.10686730522E-01 -0.11034309776E-02 -0.18818871173E-01  0.10222603511E+01  0.10220306511E+01 0.  0.
     999903    2    3    3    0    0  0.30283154858E-01 -0.10758469924E+00 -0.71333475068E-01  0.13407114610E+00  0.19876382264E-01 0.  0.
         14    1    1    2    0    0 -0.10686730522E-01  0.11034309776E-02  0.18818871173E-01  0.21669648853E-01  0.00000000000E+00 0.  1.
     999901    1    3    3    0    0 -0.19596424336E-01  0.10648126827E+00  0.52514603895E-01  0.88818920505E+00  0.88000000000E+00 0. -1.
        -11    1    4    4    0    0  0.75787718777E-03 -0.39851524085E-02  0.11290886846E-02  0.42416718176E-02  0.51100000000E-03 0. -1.
         11    1    4    4    0    0  0.29525277670E-01 -0.10359954684E+00 -0.72462563752E-01  0.12982947428E+00  0.51100000000E-03 0.  1.
</event>
<event>
 8    1  0.5489035E+004  0.1043930E+01  0.7957747E-01            NaN
         13   -1    0    0    0    0  0.00000000000E+00  0.00000000000E+00  0.74505805969E-08  0.10566000000E+00  0.10566000000E+00 0.  1.
     999900   -1    0    0    0    0 -0.00000000000E+00 -0.00000000000E+00 -0.74505805969E-08  0.93827000000E+00  0.93827000000E+00 0.  1.
     999902    2    1    2    0    0 -0.17298200894E-01 -0.17756897682E-01 -0.54803415196E-03  0.10191341231E+01  0.10188324324E+01 0.  0.
     999903    2    3    3    0    0  0.10876741313E+00 -0.58487080278E-01  0.29553988405E-01  0.12870859642E+00  0.21008946752E-01 0.  0.
         14    1    1    2    0    0  0.17298200894E-01  0.17756897682E-01  0.54803415196E-03  0.24795876893E-01  0.00000000000E+00 0.  1.
     999901    1    3    3    0    0 -0.12606561402E+00  0.40730182596E-01 -0.30102022557E-01  0.89042552669E+00  0.88000000000E+00 0.  1.
        -11    1    4    4    0    0  0.39910266618E-01 -0.28541801446E-01  0.20105744889E-01  0.53027972900E-01  0.51100000000E-03 0.  1.
         11    1    4    4    0    0  0.68857146511E-01 -0.29945278832E-01  0.94482435168E-02  0.75680623520E-01  0.51100000000E-03 0. -1.
</event>
<event>
 8    1  0.5489035E+004  0.1043930E+01  0.7957747E-01            NaN
         13   -1    0    0    0    0  0.00000000000E+00  0.00000000000E+00  0.74505805969E-08  0.10566000000E+00  0.10566000000E+00 0.  1.
     999900   -1    0    0    0    0 -0.00000000000E+00 -0.00000000000E+00 -0.74505805969E-08  0.93827000000E+00  0.93827000000E+00 0. -1.
     999902    2    1    2    0    0  0.18252368882E-01 -0.40926516766E-02  0.11983952856E-01  0.10217148274E+01  0.10214732863E+01 0.  0.
     999903    2    3    3    0    0  0.88652504848E-02  0.11830701850E+00 -0.52176347328E-01  0.13088019551E+00  0.18223914650E-01 0.  0.
         14    1    1    2    0    0 -0.18252368882E-01  0.40926516766E-02 -0.11983952856E-01  0.22215172599E-01  0.00000000000E+00 0. -1.
     999901    1    3    3    0    0  0.93871183969E-02 -0.12239967017E+00  0.64160300184E-01  0.89083463189E+00  0.88000000000E+00 0. -1.
        -11    1    4    4    0    0 -0.23764727935E-02  0.54070336609E-01 -0.30670056554E-01  0.62210629429E-01  0.51100000000E-03 0. -1.
         11    1    4    4    0    0  0.11241723278E-01  0.64236681889E-01 -0.21506290774E-01  0.68669566085E-01  0.51100000000E-03 0.  1.
</event>
<event>
 8    1  0.5489035E+004  0.1043930E+01  0.7957747E-01            NaN
         13   -1    0    0    0    0  0.00000000000E+00  0.00000000000E+00  0.74505805969E-08  0.10566000000E+00  0.10566000000E+00 0. -1.
     999900   -1    0    0    0    0 -0.00000000000E+00 -0.00000000000E+00 -0.74505805969E-08  0.93827000000E+00  0.93827000000E+00 0. -1.
     999902    2    1    2    0    0 -0.77003852664E-02  0.19733000722E-01  0.56937239341E-02  0.10219958772E+01  0.10217604745E+01 0.  0.
     999903    2    3    3    0    0  0.71074556217E-02  0.15201655360E-02 -0.12997935859E+00  0.13128932348E+00  0.17012523945E-01 0.  0.
         14    1    1    2    0    0  0.77003852664E-02 -0.19733000722E-01 -0.56937239341E-02  0.21934122800E-01  0.00000000000E+00 0. -1.
     999901    1    3    3    0    0 -0.14807840888E-01  0.18212835186E-01  0.13567308253E+00  0.89070655372E+00  0.88000000000E+00 0.  1.
        -11    1    4    4    0    0  0.30068480350E-02 -0.69320413587E-02 -0.84989479401E-01  0.85326239002E-01  0.51100000000E-03 0. -1.
         11    1    4    4    0    0  0.41006075868E-02  0.84522068946E-02 -0.44989879192E-01  0.45963084478E-01  0.51100000000E-03 0.  1.
</event>
<event>
 8    1  0.5489035E+004  0.1043930E+01  0.7957747E-01            NaN
         13   -1    0    0    0    0  0.00000000000E+00  0.00000000000E+00  0.74505805969E-08  0.10566000000E+00  0.10566000000E+00 0.  1.
     999900   -1    0    0    0    0 -0.00000000000E+00 -0.00000000000E+00 -0.74505805969E-08  0.93827000000E+00  0.93827000000E+00 0.  1.
     999902    2    1    2    0    0 -0.10702962565E-01 -0.20703450351E-01  0.31038956886E-02  0.10204178663E+01  0.10201469509E+01 0.  0.
     999903    2    3    3    0    0  0.11886663465E-01 -0.69689261218E-01  0.11003864775E+00  0.13230473042E+00  0.19953741375E-01 0.  0.
         14    1    1    2    0    0  0.10702962565E-01  0.20703450351E-01 -0.31038956886E-02  0.23512133730E-01  0.00000000000E+00 0.  1.
     999901    1    3    3    0    0 -0.22589626030E-01  0.48985810867E-01 -0.10693475206E+00  0.88811313585E+00  0.88000000000E+00 0.  1.
        -11    1    4    4    0    0  0.43968273809E-02 -0.48212811986E-01  0.58281859868E-01  0.75768355144E-01  0.51100000000E-03 0. -1.
         11    1    4    4    0    0  0.74898360839E-02 -0.21476449232E-01  0.51756787884E-01  0.56536375275E-01  0.51100000000E-03 0.  1.
</event>
<event>
 8    1  0.5489035E+004  0.1043930E+01  0.7957747E-01            NaN
         13   -1    0    0    0    0  0.00000000000E+00  0.00000000000E+00  0.74505805969E-08  0.10566000000E+00  0.10566000000E+00 0.  1.
     999900   -1    0    0    0    0 -0.00000000000E+00 -0.00000000000E+00 -0.74505805969E-08  0.93827000000E+00  0.93827000000E+00 0.  1.
     999902    2    1    2    0    0  0.61315734701E-02 -0.16750076389E-01  0.18534907075E-01  0.10182063915E+01  0.10178814036E+01 0.  0.
     999903    2    3    3    0    0 -0.12107625887E+00  0.21836841057E-01  0.27685768095E-01  0.12817576225E+00  0.22939402420E-01 0.  0.
         14    1    1    2    0    0 -0.61315734701E-02  0.16750076389E-01 -0.18534907075E-01  0.25723608467E-01  0.00000000000E+00 0. -1.
     999901    1    3    3    0    0  0.12720783234E+00 -0.38586917446E-01 -0.91508610198E-02  0.89003062928E+00  0.88000000000E+00 0. -1.
        -11    1    4    4    0    0 -0.74785160004E-01  0.22355399446E-01  0.10350812348E-01  0.78739980179E-01  0.51100000000E-03 0.  1.
         11    1    4    4    0    0 -0.46291098867E-01 -0.51855838931E-03  0.17334955747E-01  0.49435782070E-01  0.51100000000E-03 0. -1.
</event>
<event>
 8    1  0.5489035E+004  0.1043930E+01  0.7957747E-01            NaN
         13   -1    0    0    0    0  0.00000000000E+00  0.00000000000E+00  0.74505805969E-08  0.10566000000E+00  0.10566000000E+00 0. -1.
     999900   -1    0    0    0    0 -0.00000000000E+00 -0.00000000000E+00 -0.74505805969E-08  0.93827000000E+00  0.93827000000E+00 0.  1.
     999902    2    1    2    0    0  0.17040511034E-01  0.11569056936E-01 -0.11475593953E-01  0.10203522276E+01  0.10200797797E+01 0.  0.
     999903    2    3    3    0    0  0.51457116100E-01 -0.13814090151E-01  0.11664792301E+00  0.13004641359E+00  0.21602496684E-01 0.  0.
         14    1    1    2    0    0 -0.17040511034E-01 -0.11569056936E-01  0.11475593953E-01  0.23577772398E-01  0.00000000000E+00 0. -1.
     999901    1    3    3    0    0 -0.34416605066E-01  0.25383147087E-01 -0.12812351696E+00  0.89030581401E+00  0.88000000000E+00 0.  1.
        -11    1    4    4    0    0  0.17829204925E-01  0.53424370039E-02  0.42656971287E-01  0.46543533405E-01  0.51100000000E-03 0. -1.
         11    1    4    4    0    0  0.33627911175E-01 -0.19156527155E-01  0.73990951719E-01  0.83502880189E-01  0.51100000000E-03 0.  1.
</event>
<event>
 8    1  0.5489035E+004  0.1043930E+01  0.7957747E-01            NaN
         13   -1    0    0    0    0  0.00000000000E+00  0.00000000000E+00  0.74505805969E-08  0.10566000000E+00  0.10566000000E+00 0. -1.
     999900   -1    0    0    0    0 -0.00000000000E+00 -0.00000000000E+00 -0.74505805969E-08  0.93827000000E+00  0.93827000000E+00 0. -1.
     999902    2    1    2    0    0  0.13477128820E-02  0.19077502372E-01  0.17621877824E-01  0.10179242698E+01  0.10175920209E+01 0.  0.
     999903    2    3    3    0    0 -0.10089419865E+00 -0.57863393619E-01 -0.45431592354E-01  0.12643728161E+00  0.19863155705E-01 0.  0.
         14    1    1    2    0    0 -0.13477128820E-02 -0.19077502372E-01 -0.17621877824E-01  0.26005730230E-01  0.00000000000E+00 0.  1.
     999901    1    3    3    0    0  0.10224191154E+00  0.76940895991E-01  0.63053470178E-01  0.89148698816E+00  0.88000000000E+00 0.  1.
        -11    1    4    4    0    0 -0.33161177146E-01 -0.10136970853E-01 -0.18527575697E-01  0.39318621924E-01  0.51100000000E-03 0.  1.
         11    1    4    4    0    0 -0.67733021509E-01 -0.47726422766E-01 -0.26904016657E-01  0.87118659689E-01  0.51100000000E-03 0. -1.
</event>
<event>
 8    1  0.5489035E+004  0.1043930E+01  0.7957747E-01            NaN
         13   -1    0    0    0    0  0.00000000000E+00  0.00000000000E+00  0.74505805969E-08  0.10566000000E+00  0.10566000000E+00 0.  1.
     999900   -1    0    0    0    0 -0.00000000000E+00 -0.00000000000E+00 -0.74505805969E-08  0.93827000000E+00  0.93827000000E+00 0. -1.
     999902    2    1    2    0    0  0.16652839527E-01  0.12643034598E-01 -0.11167192188E-01  0.10202262119E+01  0.10199508096E+01 0.  0.
     999903    2    3    3    0    0  0.52156784445E-01  0.34570988282E-02 -0.12034908378E+00  0.13272094603E+00  0.19966618493E-01 0.  0.
         14    1    1    2    0    0 -0.16652839527E-01 -0.12643034598E-01  0.11167192188E-01  0.23703788084E-01  0.00000000000E+00 0. -1.
     999901    1    3    3    0    0 -0.35503944918E-01  0.91859357693E-02  0.10918189159E+00  0.88750526588E+00  0.88000000000E+00 0.  1.
        -11    1    4    4    0    0  0.39838990414E-01  0.69569592318E-02 -0.70766362862E-01  0.81508795063E-01  0.51100000000E-03 0. -1.
         11    1    4    4    0    0  0.12317794031E-01 -0.34998604035E-02 -0.49582720914E-01  0.51212150970E-01  0.51100000000E-03 0.  1.
</event>
<event>
 8    1  0.5489035E+004  0.1043930E+01  0.7957747E-01            NaN
         13   -1    0    0    0    0  0.00000000000E+00  0.00000000000E+00  0.74505805969E-08  0.10566000000E+00  0.10566000000E+00 0.  1.
     999900   -1    0    0    0    0 -0.00000000000E+00 -0.00000000000E+00 -0.74505805969E-08  0.93827000000E+00  0.93827000000E+00 0. -1.
     999902    2    1    2    0    0  0.10995840164E-01  0.32218492408E-02 -0.21174113324E-01  0.10198544546E+01  0.10195702411E+01 0.  0.
     999903    2    3    3    0    0  0.66641650196E-01  0.61705037666E-01  0.89510726214E-01  0.12925472785E+00  0.21118554641E-01 0.  0.
         14    1    1    2    0    0 -0.10995840164E-01 -0.32218492408E-02  0.21174113324E-01  0.24075545445E-01  0.00000000000E+00 0.  1.
     999901    1    3    3    0    0 -0.55645810031E-01 -0.58483188425E-01 -0.11068483954E+00  0.89059972670E+00  0.88000000000E+00 0. -1.
        -11    1    4    4    0    0  0.27633509351E-02 -0.11737520173E-02  0.60801926356E-02  0.68002695296E-02  0.51100000000E-03 0. -1.
         11    1    4    4    0    0  0.63878299261E-01  0.62878789683E-01  0.83430533578E-01  0.12245445832E+00  0.51100000000E-03 0.  1.
</event>
<event>
 8    1  0.5489035E+004  0.1043930E+01  0.7957747E-01            NaN
         13   -1    0    0    0    0  0.00000000000E+00  0.00000000000E+00  0.74505805969E-08  0.10566000000E+00  0.10566000000E+00 0.  1.
     999900   -1    0    0    0    0 -0.00000000000E+00 -0.00000000000E+00 -0.74505805969E-08  0.93827000000E+00  0.93827000000E+00 0. -1.
     999902    2    1    2    0    0 -0.14261418975E-01  0.19241237273E-01  0.14314386736E-02  0.10199370365E+01  0.10196547926E+01 0.  0.
     999903    2    3    3    0    0  0.35881716943E-01 -0.26088620529E-01  0.11982732021E+00  0.12943902138E+00  0.20682356123E-01 0.  0.
         14    1    1    2    0    0  0.14261418975E-01 -0.19241237273E-01 -0.14314386736E-02  0.23992963544E-01  0.00000000000E+00 0. -1.
     999901    1    3    3    0    0 -0.50143135918E-01  0.45329857802E-01 -0.11839588154E+00  0.89049801508E+00  0.88000000000E+00 0. -1.
        -11    1    4    4    0    0  0.31832883890E-01 -0.22201685995E-01  0.76867448163E-01  0.86111050777E-01  0.51100000000E-03 0. -1.
         11    1    4    4    0    0  0.40488330530E-02 -0.38869345339E-02  0.42959872048E-01  0.43327970603E-01  0.51100000000E-03 0.  1.
</event>
<event>
 8    1  0.5489035E+004  0.1043930E+01  0.7957747E-01            NaN
         13   -1    0    0    0    0  0.00000000000E+00  0.00000000000E+00  0.74505805969E-08  0.10566000000E+00  0.10566000000E+00 0. -1.
     999900   -1    0    0    0    0 -0.00000000000E+00 -0.00000000000E+00 -0.74505805969E-08  0.93827000000E+00  0.93827000000E+00 0. -1.
     999902    2    1    2    0    0  0.79702686042E-02  0.25970587380E-01 -0.14048442050E-01  0.10133464208E+01  0.10128847976E+01 0.  0.
     999903    2    3    3    0    0  0.56761917269E-01  0.84435234523E-01  0.71398645523E-01  0.12593448452E+00  0.20260891574E-01 0.  0.
         14    1    1    2    0    0 -0.79702686042E-02 -0.25970587380E-01  0.14048442050E-01  0.30583579164E-01  0.00000000000E+00 0. -1.
     999901    1    3    3    0    0 -0.48791648665E-01 -0.58464647143E-01 -0.85447087573E-01  0.88741193632E+00  0.88000000000E+00 0. -1.
        -11    1    4    4    0    0  0.38566025117E-01  0.48092320279E-01  0.32572971890E-01  0.69724236689E-01  0.51100000000E-03 0. -1.
         11    1    4    4    0    0  0.18195892152E-01  0.36342914244E-01  0.38825673633E-01  0.56210247828E-01  0.51100000000E-03 0.  1.
</event>
<event>
 8    1  0.5489035E+004  0.1043930E+01  0.7957747E-01            NaN
         13   -1    0    0    0    0  0.00000000000E+00  0.00000000000E+00  0.74505805969E-08  0.10566000000E+00  0.10566000000E+00 0.  1.
     999900   -1    0    0    0    0 -0.00000000000E+00 -0.00000000000E+00 -0.74505805969E-08  0.93827000000E+00  0.93827000000E+00 0. -1.
     999902    2    1    2    0    0  0.24078669037E-02 -0.23928129543E-01 -0.36161584548E-02  0.10196106701E+01  0.10193206015E+01 0.  0.
     999903    2    3    3    0    0  0.31230926434E-01  0.10085056910E-01 -0.12440071717E+00  0.13024203152E+00  0.20257571491E-01 0.  0.
         14    1    1    2    0    0 -0.24078669037E-02  0.23928129543E-01  0.36161584548E-02  0.24319329934E-01  0.00000000000E+00 0. -1.
     999901    1    3    3    0    0 -0.28823059531E-01 -0.34013186453E-01  0.12078455871E+00  0.88936863855E+00  0.88000000000E+00 0.  1.
        -11    1    4    4    0    0  0.31385564448E-02  0.35857585168E-02 -0.53303408953E-01  0.53518433532E-01  0.51100000000E-03 0.  1.
         11    1    4    4    0    0  0.28092369989E-01  0.64992983929E-02 -0.71097308214E-01  0.76723597984E-01  0.51100000000E-03 0. -1.
</event>
<event>
 8    1  0.5489035E+004  0.1043930E+01  0.7957747E-01            NaN
         13   -1    0    0    0    0  0.00000000000E+00  0.00000000000E+00  0.74505805969E-08  0.10566000000E+00  0.10566000000E+00 0.  1.
     999900   -1    0    0    0    0 -0.00000000000E+00 -0.00000000000E+00 -0.74505805969E-08  0.93827000000E+00  0.93827000000E+00 0. -1.
     999902    2    1    2    0    0 -0.72283804959E-03  0.61479239086E-02  0.22697696643E-01  0.10204033152E+01  0.10201320605E+01 0.  0.
     999903    2    3    3    0    0  0.98257380488E-01  0.69890518391E-01  0.50470232327E-01  0.13212885554E+00  0.19276740717E-01 0.  0.
         14    1    1    2    0    0  0.72283804959E-03 -0.61479239086E-02 -0.22697696643E-01  0.23526684767E-01  0.00000000000E+00 0. -1.
     999901    1    3    3    0    0 -0.98980218538E-01 -0.63742594482E-01 -0.27772535684E-01  0.88827445970E+00  0.88000000000E+00 0.  1.
        -11    1    4    4    0    0  0.62105482115E-01  0.48077552630E-01  0.41983673062E-01  0.89058586899E-01  0.51100000000E-03 0.  1.
         11    1    4    4    0    0  0.36151898374E-01  0.21812965760E-01  0.84865592644E-02  0.43070268636E-01  0.51100000000E-03 0. -1.
</event>
<event>
 8    1  0.5489035E+004  0.1043930E+01  0.7957747E-01            NaN
         13   -1    0    0    0    0  0.00000000000E+00  0.00000000000E+00  0.74505805969E-08  0.10566000000E+00  0.10566000000E+00 0.  1.
     999900   -1    0    0    0    0 -0.00000000000E+00 -0.00000000000E+00 -0.74505805969E-08  0.93827000000E+00  0.93827000000E+00 0. -1.
     999902    2    1    2    0    0 -0.67584121701E-02  0.22107505861E-02  0.22148454267E-01  0.10206680659E+01  0.10204029513E+01 0.  0.
     999903    2    3    3    0    0  0.23366545742E-01  0.65144629445E-01 -0.10552322762E+00  0.12872174206E+00  0.25383402196E-01 0.  0.
         14    1    1    2    0    0  0.67584121701E-02 -0.22107505861E-02 -0.22148454267E-01  0.23261934134E-01  0.00000000000E+00 0.  1.
     999901    1    3    3    0    0 -0.30124957913E-01 -0.62933878859E-01  0.12767168188E+00  0.89194632381E+00  0.88000000000E+00 0.  1.
        -11    1    4    4    0    0  0.20763409494E-04  0.29451213288E-01 -0.30369648536E-01  0.42307813327E-01  0.51100000000E-03 0.  1.
         11    1    4    4    0    0  0.23345782333E-01  0.35693416157E-01 -0.75153579079E-01  0.86413928733E-01  0.51100000000E-03 0. -1.
</event>
<event>
 8    1  0.5489035E+004  0.1043930E+01  0.7957747E-01            NaN
         13   -1    0    0    0    0  0.00000000000E+00  0.00000000000E+00  0.74505805969E-08  0.10566000000E+00  0.10566000000E+00 0.  1.
     999900   -1    0    0    0    0 -0.00000000000E+00 -0.00000000000E+00 -0.74505805969E-08  0.93827000000E+00  0.93827000000E+00 0. -1.
     999902    2    1    2    0    0 -0.48555151030E-02  0.22141431326E-01 -0.65606508908E-02  0.10203320944E+01  0.10200591756E+01 0.  0.
     999903    2    3    3    0    0 -0.12262135682E+00  0.42560284033E-01 -0.15514222679E-01  0.13220716543E+00  0.19765337347E-01 0.  0.
         14    1    1    2    0    0  0.48555151030E-02 -0.22141431326E-01  0.65606508908E-02  0.23597905589E-01  0.00000000000E+00 0.  1.
     999901    1    3    3    0    0  0.11776584172E+00 -0.20418852707E-01  0.89535717880E-02  0.88812492898E+00  0.88000000000E+00 0. -1.
        -11    1    4    4    0    0 -0.74169661770E-01  0.24751625376E-01 -0.18995239928E-01  0.80466526871E-01  0.51100000000E-03 0. -1.
         11    1    4    4    0    0 -0.48451695055E-01  0.17808658657E-01  0.34810172492E-02  0.51740638563E-01  0.51100000000E-03 0.  1.
</event>
<event>
 8    1  0.5489035E+004  0.1043930E+01  0.7957747E-01            NaN
         13   -1    0    0    0    0  0.00000000000E+00  0.00000000000E+00  0.74505805969E-08  0.10566000000E+00  0.10566000000E+00 0. -1.
     999900   -1    0    0    0    0 -0.00000000000E+00 -0.00000000000E+00 -0.74505805969E-08  0.93827000000E+00  0.93827000000E+00 0.  1.
     999902    2    1    2    0    0  0.18840198505E-01 -0.17956238527E-02 -0.14639282861E-01  0.10200033214E+01  0.10197226534E+01 0.  0.
     999903    2    3    3    0    0 -0.14918165336E-03 -0.51866004766E-02 -0.13043885214E+00  0.13220737893E+00  0.20918265129E-01 0.  0.
         14    1    1    2    0    0 -0.18840198505E-01  0.17956238527E-02  0.14639282861E-01  0.23926678570E-01  0.00000000000E+00 0. -1.
     999901    1    3    3    0    0  0.18989380158E-01  0.33909766240E-02  0.11579956928E+00  0.88779594250E+00  0.88000000000E+00 0. -1.
        -11    1    4    4    0    0  0.41344963679E-02 -0.11201985809E-01 -0.10601088316E+00  0.10668245880E+00  0.51100000000E-03 0. -1.
         11    1    4    4    0    0 -0.42836780212E-02  0.60153853323E-02 -0.24427968974E-01  0.25524920123E-01  0.51100000000E-03 0.  1.
</event>
<event>
 8    1  0.5489035E+004  0.1043930E+01  0.7957747E-01            NaN
         13   -1    0    0    0    0  0.00000000000E+00  0.00000000000E+00  0.74505805969E-08  0.10566000000E+00  0.10566000000E+00 0. -1.
     999900   -1    0    0    0    0 -0.00000000000E+00 -0.00000000000E+00 -0.74505805969E-08  0.93827000000E+00  0.93827000000E+00 0.  1.
     999902    2    1    2    0    0 -0.18677772840E-01  0.11152187005E-02  0.14621129788E-01  0.10201838351E+01  0.10199074355E+01 0.  0.
     999903    2    3    3    0    0  0.92193282582E-01 -0.82231907107E-01  0.31587538372E-01  0.12915802553E+00  0.20550792633E-01 0.  0.
         14    1    1    2    0    0  0.18677772840E-01 -0.11152187005E-02 -0.14621129788E-01  0.23746164897E-01  0.00000000000E+00 0.  1.
     999901    1    3    3    0    0 -0.11087105542E+00  0.83347125807E-01 -0.16966408584E-01  0.89102580958E+00  0.88000000000E+00 0.  1.
        -11    1    4    4    0    0  0.51640622595E-01 -0.45054067049E-01  0.27968896933E-01  0.74021234631E-01  0.51100000000E-03 0. -1.
         11    1    4    4    0    0  0.40552659988E-01 -0.37177840058E-01  0.36186414388E-02  0.55136790896E-01  0.51100000000E-03 0.  1.
</event>
<event>
 8    1  0.5489035E+004  0.1043930E+01  0.7957747E-01            NaN
         13   -1    0    0    0    0  0.00000000000E+00  0.00000000000E+00  0.74505805969E-08  0.10566000000E+00  0.10566000000E+00 0.  1.
     999900   -1    0    0    0    0 -0.00000000000E+00 -0.00000000000E+00 -0.74505805969E-08  0.93827000000E+00  0.93827000000E+00 0.  1.
     999902    2    1    2    0    0 -0.18599685297E-02  0.22101720786E-01  0.11470701088E-01  0.10189595669E+01  0.10186535606E+01 0.  0.
     999903    2    3    3    0    0  0.93038440896E-01 -0.41202572046E-01  0.76908981801E-01  0.12918694980E+00  0.20505440467E-01 0.  0.
         14    1    1    2    0    0  0.18599685297E-02 -0.22101720786E-01 -0.11470701088E-01  0.24970433077E-01  0.00000000000E+00 0. -1.
     999901    1    3    3    0    0 -0.94898409426E-01  0.63304292832E-01 -0.65438280713E-01  0.88977261712E+00  0.88000000000E+00 0.  1.
        -11    1    4    4    0    0  0.34295551299E-01 -0.23561707489E-01  0.23107805975E-01  0.47598011689E-01  0.51100000000E-03 0.  1.
         11    1    4    4    0    0  0.58742889597E-01 -0.17640864557E-01  0.53801175826E-01  0.81588938109E-01  0.51100000000E-03 0. -1.
</event>
<event>
 8    1  0.5489035E+004  0.1043930E+01  0.7957747E-01            NaN
         13   -1    0    0    0    0  0.00000000000E+00  0.00000000000E+00  0.74505805969E-08  0.10566000000E+00  0.10566000000E+00 0.  1.
     999900   -1    0    0    0    0 -0.00000000000E+00 -0.00000000000E+00 -0.74505805969E-08  0.93827000000E+00  0.93827000000E+00 0.  1.
     999902    2    1    2    0    0  0.73764432949E-03 -0.63515785953E-02 -0.27736215874E-01  0.10154662627E+01  0.10150672620E+01 0.  0.
     999903    2    3    3    0    0 -0.86031418875E-01 -0.84331221132E-01  0.31128609203E-01  0.12581758901E+00  0.18652493173E-01 0.  0.
         14    1    1    2    0    0 -0.73764432949E-03  0.63515785953E-02  0.27736215874E-01  0.28463737295E-01  0.00000000000E+00 0.  1.
     999901    1    3    3    0    0  0.86769063204E-01  0.77979642537E-01 -0.58864825077E-01  0.88964867370E+00  0.88000000000E+00 0.  1.
        -11    1    4    4    0    0 -0.53160849392E-01 -0.63245167444E-01  0.24714407748E-01  0.86238565528E-01  0.51100000000E-03 0. -1.
         11    1    4    4    0    0 -0.32870569483E-01 -0.21086053688E-01  0.64142014552E-02  0.39579023480E-01  0.51100000000E-03 0.  1.
</event>
<event>
 8    1  0.5489035E+004  0.1043930E+01  0.7957747E-01            NaN
         13   -1    0    0    0    0  0.00000000000E+00  0.00000000000E+00  0.74505805969E-08  0.10566000000E+00  0.10566000000E+00 0.  1.
     999900   -1    0    0    0    0 -0.00000000000E+00 -0.00000000000E+00 -0.74505805969E-08  0.93827000000E+00  0.93827000000E+00 0. -1.
     999902    2    1    2    0    0  0.82306126190E-02  0.10773707940E-01  0.19029919052E-01  0.10205643503E+01  0.10202968389E+01 0.  0.
     999903    2    3    3    0    0 -0.99740276850E-01 -0.60302811860E-01  0.50120920939E-01  0.13057770150E+00  0.30884906814E-01 0.  0.
         14    1    1    2    0    0 -0.82306126190E-02 -0.10773707940E-01 -0.19029919052E-01  0.23365649702E-01  0.00000000000E+00 0.  1.
     999901    1    3    3    0    0  0.10797088947E+00  0.71076519800E-01 -0.31091001886E-01  0.88998664880E+00  0.88000000000E+00 0.  1.
        -11    1    4    4    0    0 -0.84510182723E-02 -0.17530428006E-01  0.48338116593E-02  0.20058974851E-01  0.51100000000E-03 0.  1.
         11    1    4    4    0    0 -0.91289258578E-01 -0.42772383854E-01  0.45287109280E-01  0.11051872665E+00  0.51100000000E-03 0. -1.
</event>
<event>
 8    1  0.5489035E+004  0.1043930E+01  0.7957747E-01            NaN
         13   -1    0    0    0    0  0.00000000000E+00  0.00000000000E+00  0.74505805969E-08  0.10566000000E+00  0.10566000000E+00 0. -1.
     999900   -1    0    0    0    0 -0.00000000000E+00 -0.00000000000E+00 -0.74505805969E-08  0.93827000000E+00  0.93827000000E+00 0. -1.
     999902    2    1    2    0    0  0.72802854753E-02  0.17531725822E-01  0.12888156465E-01  0.10209850976E+01  0.10207272413E+01 0.  0.
     999903    2    3    3    0    0 -0.24548466678E-01  0.64871956550E-01  0.11251284101E+00  0.13352848199E+00  0.18966237031E-01 0.  0.
         14    1    1    2    0    0 -0.72802854753E-02 -0.17531725822E-01 -0.12888156465E-01  0.22944902353E-01  0.00000000000E+00 0.  1.
     999901    1    3    3    0    0  0.31828752153E-01 -0.47340230728E-01 -0.99624684544E-01  0.88745661566E+00  0.88000000000E+00 0. -1.
        -11    1    4    4    0    0 -0.15664826646E-01  0.21520388272E-01  0.53572499497E-01  0.59822969908E-01  0.51100000000E-03 0.  1.
         11    1    4    4    0    0 -0.88836400314E-02  0.43351568278E-01  0.58940341511E-01  0.73705512079E-01  0.51100000000E-03 0. -1.
</event>
<event>
 8    1  0.5489035E+004  0.1043930E+01  0.7957747E-01            NaN
         13   -1    0    0    0    0  0.00000000000E+00  0.00000000000E+00  0.74505805969E-08  0.10566000000E+00  0.10566000000E+00 0.  1.
     999900   -1    0    0    0    0 -0.00000000000E+00 -0.00000000000E+00 -0.74505805969E-08  0.93827000000E+00  0.93827000000E+00 0.  1.
     999902    2    1    2    0    0  0.10148527601E-01 -0.74948246641E-02 -0.20943743376E-01  0.10194799408E+01  0.10191867073E+01 0.  0.
     999903    2    3    3    0    0  0.27656084222E-01 -0.11723163628E+00 -0.49538358272E-01  0.13203059892E+00  0.21677513044E-01 0.  0.
         14    1    1    2    0    0 -0.10148527601E-01  0.74948246641E-02  0.20943743376E-01  0.24450059219E-01  0.00000000000E+00 0.  1.
     999901    1    3    3    0    0 -0.17507556621E-01  0.10973681162E+00  0.28594614895E-01  0.88744934186E+00  0.88000000000E+00 0. -1.
        -11    1    4    4    0    0  0.59530671949E-02 -0.71395731221E-01 -0.30250361753E-01  0.77769756028E-01  0.51100000000E-03 0. -1.
         11    1    4    4    0    0  0.21703017027E-01 -0.45835905062E-01 -0.19287996519E-01  0.54260842894E-01  0.51100000000E-03 0.  1.
</event>
<event>
 8    1  0.5489035E+004  0.1043930E+01  0.7957747E-01            NaN
         13   -1    0    0    0    0  0.00000000000E+00  0.00000000000E+00  0.74505805969E-08  0.10566000000E+00  0.10566000000E+00 0.  1.
     999900   -1    0    0    0    0 -0.00000000000E+00 -0.00000000000E+00 -0.74505805969E-08  0.93827000000E+00  0.93827000000E+00 0.  1.
     999902    2    1    2    0    0 -0.13164547994E-01 -0.15460747868E-01 -0.13170208682E-01  0.10197268092E+01  0.10194395377E+01 0.  0.
     999903    2    3    3    0    0  0.36031363815E-01 -0.10647545419E+00  0.63046474491E-01  0.13039397088E+00  0.19810304711E-01 0.  0.
         14    1    1    2    0    0  0.13164547994E-01  0.15460747868E-01  0.13170208682E-01  0.24203190807E-01  0.00000000000E+00 0. -1.
     999901    1    3    3    0    0 -0.49195911809E-01  0.91014706324E-01 -0.76216683173E-01  0.88933283831E+00  0.88000000000E+00 0.  1.
        -11    1    4    4    0    0  0.10603270751E-01 -0.28146662565E-01  0.27275509591E-01  0.40606385073E-01  0.51100000000E-03 0. -1.
         11    1    4    4    0    0  0.25428093064E-01 -0.78328791626E-01  0.35770964900E-01  0.89787585809E-01  0.51100000000E-03 0.  1.
</event>
<event>
 8    1  0.5489035E+004  0.1043930E+01  0.7957747E-01            NaN
         13   -1    0    0    0    0  0.00000000000E+00  0.00000000000E+00  0.74505805969E-08  0.10566000000E+00  0.10566000000E+00 0. -1.
     999900   -1    0    0    0    0 -0.00000000000E+00 -0.00000000000E+00 -0.74505805969E-08  0.93827000000E+00  0.93827000000E+00 0.  1.
     999902    2    1    2    0    0 -0.12562484693E-01 -0.16561559265E-01  0.73078416551E-02  0.10218958035E+01  0.10216582243E+01 0.  0.
     999903    2    3    3    0    0 -0.18796751818E-01 -0.89800230037E-01 -0.94019774973E-01  0.13303695367E+00  0.21016987463E-01 0.  0.
         14    1    1    2    0    0  0.12562484693E-01  0.16561559265E-01 -0.73078416551E-02  0.22034196527E-01  0.00000000000E+00 0.  1.
     999901    1    3    3    0    0  0.62342671256E-02  0.73238670772E-01  0.10132761663E+00  0.88885884980E+00  0.88000000000E+00 0. -1.
        -11    1    4    4    0    0 -0.22583087380E-01 -0.80154840051E-01 -0.87444251571E-01  0.12075409920E+00  0.51100000000E-03 0. -1.
         11    1    4    4    0    0  0.37863355613E-02 -0.96453899855E-02 -0.65755234018E-02  0.12282854471E-01  0.51100000000E-03 0.  1.
</event>
<event>
 8    1  0.5489035E+004  0.1043930E+01  0.7957747E-01            NaN
         13   -1    0    0    0    0  0.00000000000E+00  0.00000000000E+00  0.74505805969E-08  0.10566000000E+00  0.10566000000E+00 0. -1.
     999900   -1    0    0    0    0 -0.00000000000E+00 -0.00000000000E+00 -0.74505805969E-08  0.93827000000E+00  0.93827000000E+00 0. -1.
     999902    2    1    2    0    0 -0.49282949397E-02 -0.19407433894E-01  0.12292134521E-01  0.10204346142E+01  0.10201640891E+01 0.  0.
     999903    2    3    3    0    0 -0.88759674354E-01  0.92107328330E-01  0.40270266147E-02  0.12940624522E+00  0.19176017202E-01 0.  0.
         14    1    1    2    0    0  0.49282949397E-02  0.19407433894E-01 -0.12292134521E-01  0.23495385769E-01  0.00000000000E+00 0.  1.
     999901    1    3    3    0    0  0.83831379414E-01 -0.11151476222E+00  0.82651079065E-02  0.89102836901E+00  0.88000000000E+00 0. -1.
        -11    1    4    4    0    0 -0.33507797746E-01  0.47372922099E-01  0.55877764286E-02  0.58296231648E-01  0.51100000000E-03 0. -1.
         11    1    4    4    0    0 -0.55251876608E-01  0.44734406231E-01 -0.15607498138E-02  0.71110013574E-01  0.51100000000E-03 0.  1.
</event>
<event>
 8    1  0.5489035E+004  0.1043930E+01  0.7957747E-01            NaN
         13   -1    0    0    0    0  0.00000000000E+00  0.00000000000E+00  0.74505805969E-08  0.10566000000E+00  0.10566000000E+00 0. -1.
     999900   -1    0    0    0    0 -0.00000000000E+00 -0.00000000000E+00 -0.74505805969E-08  0.93827000000E+00  0.93827000000E+00 0.  1.
     999902    2    1    2    0    0 -0.84888541585E-02 -0.93047144464E-02 -0.23763730378E-01  0.10170347730E+01  0.10166790920E+01 0.  0.
     999903    2    3    3    0    0  0.10868361343E+00  0.12959376662E-01 -0.63397388970E-01  0.12810513356E+00  0.20288495386E-01 0.  0.
         14    1    1    2    0    0  0.84888541585E-02  0.93047144464E-02  0.23763730378E-01  0.26895227036E-01  0.00000000000E+00 0. -1.
     999901    1    3    3    0    0 -0.11717246759E+00 -0.22264091109E-01  0.39633658592E-01  0.88892963940E+00  0.88000000000E+00 0.  1.
        -11    1    4    4    0    0  0.51803316277E-01  0.62694760222E-02 -0.18626754933E-01  0.55408546518E-01  0.51100000000E-03 0. -1.
         11    1    4    4    0    0  0.56880297154E-01  0.66899006403E-02 -0.44770634037E-01  0.72696587045E-01  0.51100000000E-03 0.  1.
</event>
<event>
 8    1  0.5489035E+004  0.1043930E+01  0.7957747E-01            NaN
         13   -1    0    0    0    0  0.00000000000E+00  0.00000000000E+00  0.74505805969E-08  0.10566000000E+00  0.10566000000E+00 0.  1.
     999900   -1    0    0    0    0 -0.00000000000E+00 -0.00000000000E+00 -0.74505805969E-08  0.93827000000E+00  0.93827000000E+00 0. -1.
     999902    2    1    2    0    0 -0.12637590531E-01  0.84944408066E-02  0.17624529262E-01  0.10206386228E+01  0.10203728290E+01 0.  0.
     999903    2    3    3    0    0 -0.43220967298E-01 -0.85329072740E-01 -0.84430169011E-01  0.12926139849E+00  0.20759408243E-01 0.  0.
         14    1    1    2    0    0  0.12637590531E-01 -0.84944408066E-02 -0.17624529262E-01  0.23291377176E-01  0.00000000000E+00 0. -1.
     999901    1    3    3    0    0  0.30583376767E-01  0.93823513546E-01  0.10205469827E+00  0.89137722434E+00  0.88000000000E+00 0.  1.
        -11    1    4    4    0    0 -0.19428275628E-01 -0.20903483703E-01 -0.31826027734E-01  0.42750095756E-01  0.51100000000E-03 0. -1.
         11    1    4    4    0    0 -0.23792691670E-01 -0.64425589036E-01 -0.52604141277E-01  0.86511302730E-01  0.51100000000E-03 0.  1.
</event>
<event>
 8    1  0.5489035E+004  0.1043930E+01  0.7957747E-01            NaN
         13   -1    0    0    0    0  0.00000000000E+00  0.00000000000E+00  0.74505805969E-08  0.10566000000E+00  0.10566000000E+00 0. -1.
     999900   -1    0    0    0    0 -0.00000000000E+00 -0.00000000000E+00 -0.74505805969E-08  0.93827000000E+00  0.93827000000E+00 0.  1.
     999902    2    1    2    0    0  0.23562823413E-01 -0.54780397877E-02  0.37226541101E-02  0.10194540175E+01  0.10191601543E+01 0.  0.
     999903    2    3    3    0    0 -0.24871523249E-01  0.26558156211E-01 -0.12212001666E+00  0.12860690288E+00  0.17392776362E-01 0.  0.
         14    1    1    2    0    0 -0.23562823413E-01  0.54780397877E-02 -0.37226541101E-02  0.24475982529E-01  0.00000000000E+00 0.  1.
     999901    1    3    3    0    0  0.48434346662E-01 -0.32036195998E-01  0.12584267077E+00  0.89084711459E+00  0.88000000000E+00 0. -1.
        -11    1    4    4    0    0 -0.10039808242E-01  0.16787077413E-01 -0.87869785309E-01  0.90022019578E-01  0.51100000000E-03 0.  1.
         11    1    4    4    0    0 -0.14831715007E-01  0.97710787981E-02 -0.34250231349E-01  0.38584883301E-01  0.51100000000E-03 0. -1.
</event>
<event>
 8    1  0.5489035E+004  0.1043930E+01  0.7957747E-01            NaN
         13   -1    0    0    0    0  0.00000000000E+00  0.00000000000E+00  0.74505805969E-08  0.10566000000E+00  0.10566000000E+00 0.  1.
     999900   -1    0    0    0    0 -0.00000000000E+00 -0.00000000000E+00 -0.74505805969E-08  0.93827000000E+00  0.93827000000E+00 0. -1.
     999902    2    1    2    0    0 -0.11971449123E-01  0.11331748951E-02 -0.21754294100E-01  0.10190734316E+01  0.10187702440E+01 0.  0.
     999903    2    3    3    0    0 -0.93891017404E-01  0.77678857739E-01 -0.45584001974E-01  0.13164010331E+00  0.20042142478E-01 0.  0.
         14    1    1    2    0    0  0.11971449123E-01 -0.11331748951E-02  0.21754294100E-01  0.24856568372E-01  0.00000000000E+00 0.  1.
     999901    1    3    3    0    0  0.81919568280E-01 -0.76545682844E-01  0.23829707874E-01  0.88743332832E+00  0.88000000000E+00 0.  1.
        -11    1    4    4    0    0 -0.73167237801E-01  0.56970600887E-01 -0.25696685202E-01  0.96227204076E-01  0.51100000000E-03 0.  1.
         11    1    4    4    0    0 -0.20723779603E-01  0.20708256851E-01 -0.19887316773E-01  0.35412899235E-01  0.51100000000E-03 0. -1.
</event>
<event>
 8    1  0.5489035E+004  0.1043930E+01  0.7957747E-01            NaN
         13   -1    0    0    0    0  0.00000000000E+00  0.00000000000E+00  0.74505805969E-08  0.10566000000E+00  0.10566000000E+00 0.  1.
     999900   -1    0    0    0    0 -0.00000000000E+00 -0.00000000000E+00 -0.74505805969E-08  0.93827000000E+00  0.93827000000E+00 0.  1.
     999902    2    1    2    0    0 -0.21158680886E-01 -0.33144896645E-03 -0.41163762983E-02  0.10223720736E+01  0.10221447612E+01 0.  0.
     999903    2    3    3    0    0  0.62761343543E-01 -0.56685051851E-01  0.97425443716E-01  0.13078414176E+00  0.21461437641E-01 0.  0.
         14    1    1    2    0    0  0.21158680886E-01  0.33144896645E-03  0.41163762983E-02  0.21557926364E-01  0.00000000000E+00 0. -1.
     999901    1    3    3    0    0 -0.83920024430E-01  0.56353602885E-01 -0.10154182001E+00  0.89158793188E+00  0.88000000000E+00 0.  1.
        -11    1    4    4    0    0  0.33960608742E-01 -0.41231896002E-01  0.70383295161E-01  0.88359841290E-01  0.51100000000E-03 0. -1.
         11    1    4    4    0    0  0.28800734802E-01 -0.15453155849E-01  0.27042148554E-01  0.42424300469E-01  0.51100000000E-03 0.  1.
</event>
<event>
 8    1  0.5489035E+004  0.1043930E+01  0.7957747E-01            NaN
         13   -1    0    0    0    0  0.00000000000E+00  0.00000000000E+00  0.74505805969E-08  0.10566000000E+00  0.10566000000E+00 0.  1.
     999900   -1    0    0    0    0 -0.00000000000E+00 -0.00000000000E+00 -0.74505805969E-08  0.93827000000E+00  0.93827000000E+00 0.  1.
     999902    2    1    2    0    0 -0.11964290591E-01  0.14879556313E-01 -0.13545267253E-01  0.10205201792E+01  0.10202516437E+01 0.  0.
     999903    2    3    3    0    0 -0.11817189018E+00  0.56430312932E-01 -0.85960104283E-02  0.13314708137E+00  0.22478390421E-01 0.  0.
         14    1    1    2    0    0  0.11964290591E-01 -0.14879556313E-01  0.13545267253E-01  0.23409820810E-01  0.00000000000E+00 0.  1.
     999901    1    3    3    0    0  0.10620759959E+00 -0.41550756619E-01 -0.49492568246E-02  0.88737309782E+00  0.88000000000E+00 0.  1.
        -11    1    4    4    0    0 -0.51743722603E-01  0.14040730678E-01  0.18859709293E-02  0.53650470213E-01  0.51100000000E-03 0. -1.
         11    1    4    4    0    0 -0.66428167579E-01  0.42389582254E-01 -0.10481981358E-01  0.79496611159E-01  0.51100000000E-03 0.  1.
</event>
<event>
 8    1  0.5489035E+004  0.1043930E+01  0.7957747E-01            NaN
         13   -1    0    0    0    0  0.00000000000E+00  0.00000000000E+00  0.74505805969E-08  0.10566000000E+00  0.10566000000E+00 0.  1.
     999900   -1    0    0    0    0 -0.00000000000E+00 -0.00000000000E+00 -0.74505805969E-08  0.93827000000E+00  0.93827000000E+00 0. -1.
     999902    2    1    2    0    0  0.19915069781E-01 -0.12044919993E-01  0.51920049877E-03  0.10206499727E+01  0.10203844408E+01 0.  0.
     999903    2    3    3    0    0 -0.12143035691E+00  0.16198556448E-01  0.33755823859E-01  0.12830424556E+00  0.17742575222E-01 0.  0.
         14    1    1    2    0    0 -0.19915069781E-01  0.12044919993E-01 -0.51920049877E-03  0.23280027302E-01  0.00000000000E+00 0.  1.
     999901    1    3    3    0    0  0.14134542669E+00 -0.28243476441E-01 -0.33236623360E-01  0.89234572714E+00  0.88000000000E+00 0.  1.
        -11    1    4    4    0    0 -0.96160283586E-01  0.17818698501E-01  0.21349576458E-01  0.10010180663E+00  0.51100000000E-03 0. -1.
         11    1    4    4    0    0 -0.25270073319E-01 -0.16201420530E-02  0.12406247401E-01  0.28202438926E-01  0.51100000000E-03 0.  1.
</event>
<event>
 8    1  0.5489035E+004  0.1043930E+01  0.7957747E-01            NaN
         13   -1    0    0    0    0  0.00000000000E+00  0.00000000000E+00  0.74505805969E-08  0.10566000000E+00  0.10566000000E+00 0.  1.
     999900   -1    0    0    0    0 -0.00000000000E+00 -0.00000000000E+00 -0.74505805969E-08  0.93827000000E+00  0.93827000000E+00 0. -1.
     999902    2    1    2    0    0 -0.62480368683E-02  0.41154176597E-03 -0.22835848102E-01  0.10202512481E+01  0.10199764341E+01 0.  0.
     999903    2    3    3    0    0  0.66338090639E-01  0.26711599227E-01  0.10408040496E+00  0.12780059167E+00  0.19647104917E-01 0.  0.
         14    1    1    2    0    0  0.62480368683E-02 -0.41154176597E-03  0.22835848102E-01  0.23678751865E-01  0.00000000000E+00 0.  1.
     999901    1    3    3    0    0 -0.72586127507E-01 -0.26300057461E-01 -0.12691625307E+00  0.89245065646E+00  0.88000000000E+00 0. -1.
        -11    1    4    4    0    0  0.40597375341E-01  0.26048181470E-01  0.63644241866E-01  0.79859284283E-01  0.51100000000E-03 0.  1.
         11    1    4    4    0    0  0.25740715298E-01  0.66341775653E-03  0.40436163097E-01  0.47941307390E-01  0.51100000000E-03 0. -1.
</event>
<event>
 8    1  0.5489035E+004  0.1043930E+01  0.7957747E-01            NaN
         13   -1    0    0    0    0  0.00000000000E+00  0.00000000000E+00  0.74505805969E-08  0.10566000000E+00  0.10566000000E+00 0.  1.
     999900   -1    0    0    0    0 -0.00000000000E+00 -0.00000000000E+00 -0.74505805969E-08  0.93827000000E+00  0.93827000000E+00 0.  1.
     999902    2    1    2    0    0 -0.54137798730E-02 -0.85669334080E-02  0.21964956282E-01  0.10197399056E+01  0.10194529486E+01 0.  0.
     999903    2    3    3    0    0  0.69857352708E-01  0.91746241202E-02  0.10972511674E+00  0.13199988062E+00  0.20497409237E-01 0.  0.
         14    1    1    2    0    0  0.54137798730E-02  0.85669334080E-02 -0.21964956282E-01  0.24190094357E-01  0.00000000000E+00 0. -1.
     999901    1    3    3    0    0 -0.75271132581E-01 -0.17741557528E-01 -0.87760160457E-01  0.88774002502E+00  0.88000000000E+00 0.  1.
        -11    1    4    4    0    0  0.34892048111E-01  0.71118072849E-02  0.73134064016E-01  0.81344239284E-01  0.51100000000E-03 0. -1.
         11    1    4    4    0    0  0.34965304597E-01  0.20628168354E-02  0.36591052723E-01  0.50655641337E-01  0.51100000000E-03 0.  1.
</event>
<event>
 8    1  0.5489035E+004  0.1043930E+01  0.7957747E-01            NaN
         13   -1    0    0    0    0  0.00000000000E+00  0.00000000000E+00  0.74505805969E-08  0.10566000000E+00  0.10566000000E+00 0. -1.
     999900   -1    0    0    0    0 -0.00000000000E+00 -0.00000000000E+00 -0.74505805969E-08  0.93827000000E+00  0.93827000000E+00 0.  1.
     999902    2    1    2    0    0 -0.71411759183E-02 -0.15631923908E-01  0.25942774719E-01  0.10128111793E+01  0.10123330006E+01 0.  0.
     999903    2    3    3    0    0  0.43570147009E-01 -0.43106591104E-01  0.10943643222E+00  0.12697954385E+00  0.19772100366E-01 0.  0.
         14    1    1    2    0    0  0.71411759183E-02  0.15631923908E-01 -0.25942774719E-01  0.31118820651E-01  0.00000000000E+00 0.  1.
     999901    1    3    3    0    0 -0.50711322927E-01  0.27474667196E-01 -0.83493657497E-01  0.88583163550E+00  0.88000000000E+00 0.  1.
        -11    1    4    4    0    0  0.24182914570E-01 -0.25358406097E-01  0.80982922645E-01  0.88240336570E-01  0.51100000000E-03 0.  1.
         11    1    4    4    0    0  0.19387232439E-01 -0.17748185007E-01  0.28453509571E-01  0.38739207278E-01  0.51100000000E-03 0. -1.
</event>
<event>
 8    1  0.5489035E+004  0.1043930E+01  0.7957747E-01            NaN
         13   -1    0    0    0    0  0.00000000000E+00  0.00000000000E+00  0.74505805969E-08  0.10566000000E+00  0.10566000000E+00 0. -1.
     999900   -1    0    0    0    0 -0.00000000000E+00 -0.00000000000E+00 -0.74505805969E-08  0.93827000000E+00  0.93827000000E+00 0. -1.
     999902    2    1    2    0    0 -0.41061261833E-02  0.72527361363E-02  0.23196005831E-01  0.10192821372E+01  0.10189840814E+01 0.  0.
     999903    2    3    3    0    0 -0.66484758327E-01 -0.10759577956E+00  0.14755661225E-01  0.12958976637E+00  0.24056249517E-01 0.  0.
         14    1    1    2    0    0  0.41061261833E-02 -0.72527361363E-02 -0.23196005831E-01  0.24647862792E-01  0.00000000000E+00 0.  1.
     999901    1    3    3    0    0  0.62378632144E-01  0.11484851570E+00  0.84403446061E-02  0.88969237084E+00  0.88000000000E+00 0. -1.
        -11    1    4    4    0    0 -0.26049856032E-01 -0.63071552631E-01  0.12664485080E-01  0.69406527459E-01  0.51100000000E-03 0. -1.
         11    1    4    4    0    0 -0.40434902295E-01 -0.44524226931E-01  0.20911761448E-02  0.60183238914E-01  0.51100000000E-03 0.  1.
</event>
<event>
 8    1  0.5489035E+004  0.1043930E+01  0.7957747E-01            NaN
         13   -1    0    0    0    0  0.00000000000E+00  0.00000000000E+00  0.74505805969E-08  0.10566000000E+00  0.10566000000E+00 0. -1.
     999900   -1    0    0    0    0 -0.00000000000E+00 -0.00000000000E+00 -0.74505805969E-08  0.93827000000E+00  0.93827000000E+00 0. -1.
     999902    2    1    2    0    0  0.23078342907E-01 -0.51531685689E-02 -0.17970576113E-02  0.10202151423E+01  0.10199394797E+01 0.  0.
     999903    2    3    3    0    0  0.24933949494E-02 -0.79200630778E-01 -0.10252268760E+00  0.13114123131E+00  0.20203072617E-01 0.  0.
         14    1    1    2    0    0 -0.23078342907E-01  0.51531685689E-02  0.17970576113E-02  0.23714857657E-01  0.00000000000E+00 0.  1.
     999901    1    3    3    0    0  0.20584947957E-01  0.74047462210E-01  0.10072562999E+00  0.88907391103E+00  0.88000000000E+00 0.  1.
        -11    1    4    4    0    0 -0.38722150451E-02 -0.13029932069E-01 -0.28930664110E-01  0.31969010400E-01  0.51100000000E-03 0. -1.
         11    1    4    4    0    0  0.63656099945E-02 -0.66170698710E-01 -0.73592023489E-01  0.99172220911E-01  0.51100000000E-03 0.  1.
</event>
<event>
 8    1  0.5489035E+004  0.1043930E+01  0.7957747E-01            NaN
         13   -1    0    0    0    0  0.00000000000E+00  0.00000000000E+00  0.74505805969E-08  0.10566000000E+00  0.10566000000E+00 0.  1.
     999900   -1    0    0    0    0 -0.00000000000E+00 -0.00000000000E+00 -0.74505805969E-08  0.93827000000E+00  0.93827000000E+00 0.  1.
     999902    2    1    2    0    0  0.30256818618E-03  0.21357005233E-02  0.23469751699E-01  0.10203613342E+01  0.10200890992E+01 0.  0.
     999903    2    3    3    0    0 -0.45399749732E-02 -0.84773682941E-01 -0.94265139687E-01  0.12826369612E+00  0.18933316948E-01 0.  0.
         14    1    1    2    0    0 -0.30256818618E-03 -0.21357005233E-02 -0.23469751699E-01  0.23568665831E-01  0.00000000000E+00 0. -1.
     999901    1    3    3    0    0  0.48425431594E-02  0.86909383464E-01  0.11773489139E+00  0.89209763805E+00  0.88000000000E+00 0. -1.
        -11    1    4    4    0    0 -0.67768799728E-02 -0.33921733737E-01 -0.50022529133E-01  0.60820429658E-01  0.51100000000E-03 0.  1.
         11    1    4    4    0    0  0.22369049996E-02 -0.50851949203E-01 -0.44242610554E-01  0.67443266465E-01  0.51100000000E-03 0. -1.
</event>
<event>
 8    1  0.5489035E+004  0.1043930E+01  0.7957747E-01            NaN
         13   -1    0    0    0    0  0.00000000000E+00  0.00000000000E+00  0.74505805969E-08  0.10566000000E+00  0.10566000000E+00 0. -1.
     999900   -1    0    0    0    0 -0.00000000000E+00 -0.00000000000E+00 -0.74505805969E-08  0.93827000000E+00  0.93827000000E+00 0.  1.
     999902    2    1    2    0    0  0.52881951706E-02 -0.15442970664E-01 -0.17438009164E-01  0.10200441357E+01  0.10197644356E+01 0.  0.
     999903    2    3    3    0    0 -0.71934790057E-01 -0.63096861462E-01  0.84751505474E-01  0.12949543983E+00  0.20746645776E-01 0.  0.
         14    1    1    2    0    0 -0.52881951706E-02  0.15442970664E-01  0.17438009164E-01  0.23885864328E-01  0.00000000000E+00 0. -1.
     999901    1    3    3    0    0  0.77222985228E-01  0.47653890799E-01 -0.10218951464E+00  0.89054869584E+00  0.88000000000E+00 0.  1.
        -11    1    4    4    0    0 -0.41912091695E-01 -0.47484601906E-01  0.47529249418E-01  0.79187761173E-01  0.51100000000E-03 0.  1.
         11    1    4    4    0    0 -0.30022698362E-01 -0.15612259556E-01  0.37222256056E-01  0.50307678661E-01  0.51100000000E-03 0. -1.
</event>
<event>
 8    1  0.5489035E+004  0.1043930E+01  0.7957747E-01            NaN
         13   -1    0    0    0    0  0.00000000000E+00  0.00000000000E+00  0.74505805969E-08  0.10566000000E+00  0.10566000000E+00 0.  1.
     999900   -1    0    0    0    0 -0.00000000000E+00 -0.00000000000E+00 -0.74505805969E-08  0.93827000000E+00  0.93827000000E+00 0.  1.
     999902    2    1    2    0    0 -0.11991677726E-01 -0.11307955374E-01  0.16002388961E-01  0.10209572631E+01  0.10206987736E+01 0.  0.
     999903    2    3    3    0    0  0.92576563526E-01 -0.55780583929E-01 -0.68716051370E-01  0.12961583248E+00  0.19911671317E-01 0.  0.
         14    1    1    2    0    0  0.11991677726E-01  0.11307955374E-01 -0.16002388961E-01  0.22972736927E-01  0.00000000000E+00 0. -1.
     999901    1    3    3    0    0 -0.10456824125E+00  0.44472628554E-01  0.84718440331E-01  0.89134143060E+00  0.88000000000E+00 0.  1.
        -11    1    4    4    0    0  0.63939285380E-01 -0.27350355531E-01 -0.43396741204E-01  0.81974462064E-01  0.51100000000E-03 0.  1.
         11    1    4    4    0    0  0.28637278146E-01 -0.28430228398E-01 -0.25319310166E-01  0.47641370411E-01  0.51100000000E-03 0. -1.
</event>
<event>
 8    1  0.5489035E+004  0.1043930E+01  0.7957747E-01            NaN
         13   -1    0    0    0    0  0.00000000000E+00  0.00000000000E+00  0.74505805969E-08  0.10566000000E+00  0.10566000000E+00 0.  1.
     999900   -1    0    0    0    0 -0.00000000000E+00 -0.00000000000E+00 -0.74505805969E-08  0.93827000000E+00  0.93827000000E+00 0.  1.
     999902    2    1    2    0    0 -0.10442220894E-01  0.20854343434E-01  0.48538131802E-02  0.10201076760E+01  0.10198294796E+01 0.  0.
     999903    2    3    3    0    0  0.35766722130E-01  0.24956974104E-01  0.12055857966E+00  0.13132216141E+00  0.28443452315E-01 0.  0.
         14    1    1    2    0    0  0.10442220894E-01 -0.20854343434E-01 -0.48538131802E-02  0.23822323977E-01  0.00000000000E+00 0. -1.
     999901    1    3    3    0    0 -0.46208943024E-01 -0.41026306700E-02 -0.11570476648E+00  0.88878551461E+00  0.88000000000E+00 0.  1.
        -11    1    4    4    0    0  0.47267359290E-02  0.14822864430E-01  0.65349132723E-01  0.67177597539E-01  0.51100000000E-03 0.  1.
         11    1    4    4    0    0  0.31039986201E-01  0.10134109675E-01  0.55209446939E-01  0.64144563874E-01  0.51100000000E-03 0. -1.
</event>
<event>
 8    1  0.5489035E+004  0.1043930E+01  0.7957747E-01            NaN
         13   -1    0    0    0    0  0.00000000000E+00  0.00000000000E+00  0.74505805969E-08  0.10566000000E+00  0.10566000000E+00 0.  1.
     999900   -1    0    0    0    0 -0.00000000000E+00 -0.00000000000E+00 -0.74505805969E-08  0.93827000000E+00  0.93827000000E+00 0. -1.
     999902    2    1    2    0    0  0.13419121370E-01 -0.46894250989E-02 -0.19324438895E-01  0.10199404718E+01  0.10196583097E+01 0.  0.
     999903    2    3    3    0    0 -0.12087443562E+00  0.25394126160E-01 -0.32177987687E-01  0.12915149944E+00  0.19728053274E-01 0.  0.
         14    1    1    2    0    0 -0.13419121370E-01  0.46894250989E-02  0.19324438895E-01  0.23989528230E-01  0.00000000000E+00 0.  1.
     999901    1    3    3    0    0  0.13429355699E+00 -0.30083551259E-01  0.12853548793E-01  0.89078897233E+00  0.88000000000E+00 0.  1.
        -11    1    4    4    0    0 -0.96372174736E-01  0.11954740053E-01 -0.25842145835E-01  0.10049173844E+00  0.51100000000E-03 0. -1.
         11    1    4    4    0    0 -0.24502260886E-01  0.13439386107E-01 -0.63358418521E-02  0.28659760997E-01  0.51100000000E-03 0.  1.
</event>
<event>
 8    1  0.5489035E+004  0.1043930E+01  0.7957747E-01            NaN
         13   -1    0    0    0    0  0.00000000000E+00  0.00000000000E+00  0.74505805969E-08  0.10566000000E+00  0.10566000000E+00 0. -1.
     999900   -1    0    0    0    0 -0.00000000000E+00 -0.00000000000E+00 -0.74505805969E-08  0.93827000000E+00  0.93827000000E+00 0.  1.
     999902    2    1    2    0    0  0.19866899213E-01 -0.11325788549E-01 -0.63750752999E-02  0.10201895544E+01  0.10199132896E+01 0.  0.
     999903    2    3    3    0    0  0.10134667400E+00 -0.57503417980E-01  0.60196306515E-01  0.13271951210E+00  0.20324422873E-01 0.  0.
         14    1    1    2    0    0 -0.19866899213E-01  0.11325788549E-01  0.63750752999E-02  0.23740445566E-01  0.00000000000E+00 0.  1.
     999901    1    3    3    0    0 -0.81479774785E-01  0.46177629431E-01 -0.66571381815E-01  0.88747004233E+00  0.88000000000E+00 0.  1.
        -11    1    4    4    0    0  0.64315408390E-01 -0.35031479067E-01  0.48524392085E-01  0.87855301662E-01  0.51100000000E-03 0. -1.
         11    1    4    4    0    0  0.37031265608E-01 -0.22471938913E-01  0.11671914430E-01  0.44864210441E-01  0.51100000000E-03 0.  1.
</event>
<event>
 8    1  0.5489035E+004  0.1043930E+01  0.7957747E-01            NaN
         13   -1    0    0    0    0  0.00000000000E+00  0.00000000000E+00  0.74505805969E-08  0.10566000000E+00  0.10566000000E+00 0. -1.
     999900   -1    0    0    0    0 -0.00000000000E+00 -0.00000000000E+00 -0.74505805969E-08  0.93827000000E+00  0.93827000000E+00 0. -1.
     999902    2    1    2    0    0  0.53019236542E-02 -0.96496531446E-02  0.18739158015E-01  0.10221956437E+01  0.10219645550E+01 0.  0.
     999903    2    3    3    0    0 -0.12610665226E+00 -0.22626877973E-01 -0.21295438092E-01  0.13144349464E+00  0.20224570385E-01 0.  0.
         14    1    1    2    0    0 -0.53019236542E-02  0.96496531446E-02 -0.18739158015E-01  0.21734356290E-01  0.00000000000E+00 0.  1.
     999901    1    3    3    0    0  0.13140857592E+00  0.12977224829E-01  0.40034596107E-01  0.89075214907E+00  0.88000000000E+00 0. -1.
        -11    1    4    4    0    0 -0.20491043198E-01 -0.27598041124E-02 -0.11150203224E-01  0.23496542789E-01  0.51100000000E-03 0.  1.
         11    1    4    4    0    0 -0.10561560907E+00 -0.19867073861E-01 -0.10145234868E-01  0.10794695185E+00  0.51100000000E-03 0. -1.
</event>
<event>
 8    1  0.5489035E+004  0.1043930E+01  0.7957747E-01            NaN
         13   -1    0    0    0    0  0.00000000000E+00  0.00000000000E+00  0.74505805969E-08  0.10566000000E+00  0.10566000000E+00 0.  1.
     999900   -1    0    0    0    0 -0.00000000000E+00 -0.00000000000E+00 -0.74505805969E-08  0.93827000000E+00  0.93827000000E+00 0.  1.
     999902    2    1    2    0    0  0.13392778162E-01  0.58673135176E-02 -0.19228591195E-01  0.10197736221E+01  0.10194874740E+01 0.  0.
     999903    2    3    3    0    0  0.28509268034E-01 -0.12299737818E+00 -0.24475139804E-01  0.13024445263E+00  0.20577938919E-01 0.  0.
         14    1    1    2    0    0 -0.13392778162E-01 -0.58673135176E-02  0.19228591195E-01  0.24156377919E-01  0.00000000000E+00 0.  1.
     999901    1    3    3    0    0 -0.15116489872E-01  0.12886469170E+00  0.52465486092E-02  0.88952916945E+00  0.88000000000E+00 0.  1.
        -11    1    4    4    0    0  0.23322457655E-01 -0.67486147334E-01 -0.66703315319E-02  0.71715211474E-01  0.51100000000E-03 0. -1.
         11    1    4    4    0    0  0.51868103783E-02 -0.55511230844E-01 -0.17804808272E-01  0.58529241156E-01  0.51100000000E-03 0.  1.
</event>
<event>
 8    1  0.5489035E+004  0.1043930E+01  0.7957747E-01            NaN
         13   -1    0    0    0    0  0.00000000000E+00  0.00000000000E+00  0.74505805969E-08  0.10566000000E+00  0.10566000000E+00 0.  1.
     999900   -1    0    0    0    0 -0.00000000000E+00 -0.00000000000E+00 -0.74505805969E-08  0.93827000000E+00  0.93827000000E+00 0. -1.
     999902    2    1    2    0    0 -0.15703794370E-01 -0.14601164240E-01 -0.89223711647E-02  0.10207047581E+01  0.10204404889E+01 0.  0.
     999903    2    3    3    0    0 -0.37824583318E-01  0.56269061875E-01 -0.11106220255E+00  0.13169156167E+00  0.20271856154E-01 0.  0.
         14    1    1    2    0    0  0.15703794370E-01  0.14601164240E-01  0.89223711647E-02  0.23225241914E-01  0.00000000000E+00 0.  1.
     999901    1    3    3    0    0  0.22120788948E-01 -0.70870226115E-01  0.10213983138E+00  0.88901319642E+00  0.88000000000E+00 0.  1.
        -11    1    4    4    0    0 -0.33968729900E-01  0.34590581215E-01 -0.81429052729E-01  0.94769903815E-01  0.51100000000E-03 0.  1.
         11    1    4    4    0    0 -0.38558534180E-02  0.21678480660E-01 -0.29633149818E-01  0.36921657851E-01  0.51100000000E-03 0. -1.
</event>
<event>
 8    1  0.5489035E+004  0.1043930E+01  0.7957747E-01            NaN
         13   -1    0    0    0    0  0.00000000000E+00  0.00000000000E+00  0.74505805969E-08  0.10566000000E+00  0.10566000000E+00 0. -1.
     999900   -1    0    0    0    0 -0.00000000000E+00 -0.00000000000E+00 -0.74505805969E-08  0.93827000000E+00  0.93827000000E+00 0.  1.
     999902    2    1    2    0    0 -0.65705975395E-02 -0.20285185229E-01  0.10603602946E-01  0.10201161828E+01  0.10198381875E+01 0.  0.
     999903    2    3    3    0    0  0.14973018910E-01 -0.54234089886E-02  0.12923368110E+00  0.13177047579E+00  0.20211612961E-01 0.  0.
         14    1    1    2    0    0  0.65705975395E-02  0.20285185229E-01 -0.10603602946E-01  0.23813817150E-01  0.00000000000E+00 0.  1.
     999901    1    3    3    0    0 -0.21543616449E-01 -0.14861776241E-01 -0.11863007816E+00  0.88834570706E+00  0.88000000000E+00 0.  1.
        -11    1    4    4    0    0  0.13067753806E-01  0.40329064506E-02  0.46420710230E-01  0.48396012059E-01  0.51100000000E-03 0. -1.
         11    1    4    4    0    0  0.19052651039E-02 -0.94563154392E-02  0.82812970875E-01  0.83374463734E-01  0.51100000000E-03 0.  1.
</event>
<event>
 8    1  0.5489035E+004  0.1043930E+01  0.7957747E-01            NaN
         13   -1    0    0    0    0  0.00000000000E+00  0.00000000000E+00  0.74505805969E-08  0.10566000000E+00  0.10566000000E+00 0.  1.
     999900   -1    0    0    0    0 -0.00000000000E+00 -0.00000000000E+00 -0.74505805969E-08  0.93827000000E+00  0.93827000000E+00 0. -1.
     999902    2    1    2    0    0  0.17410889894E-01  0.15896252990E-01  0.88170093508E-03  0.10203374727E+01  0.10200646798E+01 0.  0.
     999903    2    3    3    0    0  0.61021687669E-01 -0.11262885624E+00 -0.86151476538E-02  0.12988208614E+00  0.19652732828E-01 0.  0.
         14    1    1    2    0    0 -0.17410889894E-01 -0.15896252990E-01 -0.88170093508E-03  0.23592527261E-01  0.00000000000E+00 0.  1.
     999901    1    3    3    0    0 -0.43610797775E-01  0.12852510923E+00  0.94968485889E-02  0.89045538660E+00  0.88000000000E+00 0. -1.
        -11    1    4    4    0    0  0.44035351395E-01 -0.75754813048E-01 -0.14627704976E-01  0.88837687646E-01  0.51100000000E-03 0.  1.
         11    1    4    4    0    0  0.16986336274E-01 -0.36874043193E-01  0.60125573225E-02  0.41044398497E-01  0.51100000000E-03 0. -1.
</event>
<event>
 8    1  0.5489035E+004  0.1043930E+01  0.7957747E-01            NaN
         13   -1    0    0    0    0  0.00000000000E+00  0.00000000000E+00  0.74505805969E-08  0.10566000000E+00  0.10566000000E+00 0. -1.
     999900   -1    0    0    0    0 -0.00000000000E+00 -0.00000000000E+00 -0.74505805969E-08  0.93827000000E+00  0.93827000000E+00 0.  1.
     999902    2    1    2    0    0 -0.11528944694E-01 -0.17428161413E-02  0.20794669283E-01  0.10200894412E+01  0.10198108137E+01 0.  0.
     999903    2    3    3    0    0 -0.10092397715E+00  0.86675068617E-02 -0.78698771490E-01  0.12992159667E+00  0.20624010469E-01 0.  0.
         14    1    1    2    0    0  0.11528944694E-01  0.17428161413E-02 -0.20794669283E-01  0.23840558812E-01  0.00000000000E+00 0.  1.
     999901    1    3    3    0    0  0.89395032461E-01 -0.10410323003E-01  0.99493440773E-01  0.89016784452E+00  0.88000000000E+00 0. -1.
        -11    1    4    4    0    0 -0.47551122789E-01 -0.45735540887E-02 -0.43630934591E-01  0.64698889093E-01  0.51100000000E-03 0. -1.
         11    1    4    4    0    0 -0.53372854365E-01  0.13241060950E-01 -0.35067836899E-01  0.65222707579E-01  0.51100000000E-03 0.  1.
</event>
<event>
 8    1  0.5489035E+004  0.1043930E+01  0.7957747E-01            NaN
         13   -1    0    0    0    0  0.00000000000E+00  0.00000000000E+00  0.74505805969E-08  0.10566000000E+00  0.10566000000E+00 0. -1.
     999900   -1    0    0    0    0 -0.00000000000E+00 -0.00000000000E+00 -0.74505805969E-08  0.93827000000E+00  0.93827000000E+00 0. -1.
     999902    2    1    2    0    0  0.58134870658E-03  0.21872447983E-02  0.23685837334E-01  0.10201362845E+01  0.10198587638E+01 0.  0.
     999903    2    3    3    0    0  0.98141797314E-01 -0.74883568337E-01 -0.33320229876E-01  0.12957037283E+00  0.20949525265E-01 0.  0.
         14    1    1    2    0    0 -0.58134870658E-03 -0.21872447983E-02 -0.23685837334E-01  0.23793715480E-01  0.00000000000E+00 0.  1.
     999901    1    3    3    0    0 -0.97560448607E-01  0.77070813135E-01  0.57006067210E-01  0.89056591169E+00  0.88000000000E+00 0.  1.
        -11    1    4    4    0    0  0.16208229206E-01 -0.18240466444E-01  0.39806476014E-03  0.24409852246E-01  0.51100000000E-03 0. -1.
         11    1    4    4    0    0  0.81933568108E-01 -0.56643101892E-01 -0.33718294636E-01  0.10516052058E+00  0.51100000000E-03 0.  1.
</event>
<event>
 8    1  0.5489035E+004  0.1043930E+01  0.7957747E-01            NaN
         13   -1    0    0    0    0  0.00000000000E+00  0.00000000000E+00  0.74505805969E-08  0.10566000000E+00  0.10566000000E+00 0.  1.
     999900   -1    0    0    0    0 -0.00000000000E+00 -0.00000000000E+00 -0.74505805969E-08  0.93827000000E+00  0.93827000000E+00 0. -1.
     999902    2    1    2    0    0 -0.31986642274E-03 -0.21667566728E-01 -0.85542084699E-02  0.10206327846E+01  0.10203668560E+01 0.  0.
     999903    2    3    3    0    0 -0.10326980743E+00  0.13666039807E-01 -0.77376650962E-01  0.13126015028E+00  0.19765302076E-01 0.  0.
         14    1    1    2    0    0  0.31986642274E-03  0.21667566728E-01  0.85542084699E-02  0.23297215391E-01  0.00000000000E+00 0. -1.
     999901    1    3    3    0    0  0.10294994101E+00 -0.35333606535E-01  0.68822442492E-01  0.88937263433E+00  0.88000000000E+00 0.  1.
        -11    1    4    4    0    0 -0.78758209434E-01  0.24928397805E-02 -0.53353638459E-01  0.95162711506E-01  0.51100000000E-03 0.  1.
         11    1    4    4    0    0 -0.24511597998E-01  0.11173200026E-01 -0.24023012502E-01  0.36097438772E-01  0.51100000000E-03 0. -1.
</event>
<event>
 8    1  0.5489035E+004  0.1043930E+01  0.7957747E-01            NaN
         13   -1    0    0    0    0  0.00000000000E+00  0.00000000000E+00  0.74505805969E-08  0.10566000000E+00  0.10566000000E+00 0.  1.
     999900   -1    0    0    0    0 -0.00000000000E+00 -0.00000000000E+00 -0.74505805969E-08  0.93827000000E+00  0.93827000000E+00 0. -1.
     999902    2    1    2    0    0  0.41551660902E-02 -0.13333294143E-01 -0.18934366665E-01  0.10204023061E+01  0.10201310278E+01 0.  0.
     999903    2    3    3    0    0  0.23591905461E-02 -0.11684647331E+00  0.56052936296E-01  0.13116594869E+00  0.20097520291E-01 0.  0.
         14    1    1    2    0    0 -0.41551660902E-02  0.13333294143E-01  0.18934366665E-01  0.23527693873E-01  0.00000000000E+00 0.  1.
     999901    1    3    3    0    0  0.17959755441E-02  0.10351317917E+00 -0.74987302962E-01  0.88923635744E+00  0.88000000000E+00 0. -1.
        -11    1    4    4    0    0  0.88139267242E-02 -0.53303051875E-01  0.32723084816E-01  0.63166146347E-01  0.51100000000E-03 0.  1.
         11    1    4    4    0    0 -0.64547361781E-02 -0.63543421437E-01  0.23329851480E-01  0.67999802339E-01  0.51100000000E-03 0. -1.
</event>
<event>
 8    1  0.5489035E+004  0.1043930E+01  0.7957747E-01            NaN
         13   -1    0    0    0    0  0.00000000000E+00  0.00000000000E+00  0.74505805969E-08  0.10566000000E+00  0.10566000000E+00 0. -1.
     999900   -1    0    0    0    0 -0.00000000000E+00 -0.00000000000E+00 -0.74505805969E-08  0.93827000000E+00  0.93827000000E+00 0. -1.
     999902    2    1    2    0    0  0.22759209862E-01  0.25203486408E-02 -0.36894819403E-03  0.10210286919E+01  0.10207718255E+01 0.  0.
     999903    2    3    3    0    0  0.11327190697E+00 -0.54781452022E-02 -0.68021664688E-01  0.13376694116E+00  0.20152238021E-01 0.  0.
         14    1    1    2    0    0 -0.22759209862E-01 -0.25203486408E-02  0.36894819403E-03  0.22901308119E-01  0.00000000000E+00 0. -1.
     999901    1    3    3    0    0 -0.90512697108E-01  0.79984938429E-02  0.67652716494E-01  0.88726175072E+00  0.88000000000E+00 0.  1.
        -11    1    4    4    0    0  0.36444671256E-01 -0.10063812643E-01 -0.27748184522E-01  0.46901143410E-01  0.51100000000E-03 0.  1.
         11    1    4    4    0    0  0.76827235714E-01  0.45856674407E-02 -0.40273480165E-01  0.86865797751E-01  0.51100000000E-03 0. -1.
</event>
<event>
 8    1  0.5489035E+004  0.1043930E+01  0.7957747E-01            NaN
         13   -1    0    0    0    0  0.00000000000E+00  0.00000000000E+00  0.74505805969E-08  0.10566000000E+00  0.10566000000E+00 0. -1.
     999900   -1    0    0    0    0 -0.00000000000E+00 -0.00000000000E+00 -0.74505805969E-08  0.93827000000E+00  0.93827000000E+00 0.  1.
     999902    2    1    2    0    0 -0.62506238199E-02 -0.25579014252E-02 -0.22589107452E-01  0.10203528727E+01  0.10200804399E+01 0.  0.
     999903    2    3    3    0    0  0.18621823914E-01 -0.17151323212E-01  0.12363016337E+00  0.12782181899E+00  0.20323875179E-01 0.  0.
         14    1    1    2    0    0  0.62506238199E-02  0.25579014252E-02  0.22589107452E-01  0.23577127334E-01  0.00000000000E+00 0. -1.
     999901    1    3    3    0    0 -0.24872447734E-01  0.14593421787E-01 -0.14621927082E+00  0.89253105368E+00  0.88000000000E+00 0.  1.
        -11    1    4    4    0    0  0.14195308539E-01 -0.41707014762E-03  0.40893556325E-01  0.43292318047E-01  0.51100000000E-03 0.  1.
         11    1    4    4    0    0  0.44265153755E-02 -0.16734253064E-01  0.82736607042E-01  0.84529500943E-01  0.51100000000E-03 0. -1.
</event>
<event>
 8    1  0.5489035E+004  0.1043930E+01  0.7957747E-01            NaN
         13   -1    0    0    0    0  0.00000000000E+00  0.00000000000E+00  0.74505805969E-08  0.10566000000E+00  0.10566000000E+00 0.  1.
     999900   -1    0    0    0    0 -0.00000000000E+00 -0.00000000000E+00 -0.74505805969E-08  0.93827000000E+00  0.93827000000E+00 0.  1.
     999902    2    1    2    0    0  0.18569754543E-01 -0.11577940619E-01 -0.89862353752E-02  0.10202733536E+01  0.10199990584E+01 0.  0.
     999903    2    3    3    0    0  0.52375537159E-01 -0.88816099582E-01 -0.81580693083E-01  0.13326798753E+00  0.21758919540E-01 0.  0.
         14    1    1    2    0    0 -0.18569754543E-01  0.11577940619E-01  0.89862353752E-02  0.23656646402E-01  0.00000000000E+00 0.  1.
     999901    1    3    3    0    0 -0.33805782616E-01  0.77238158963E-01  0.72594457708E-01  0.88700536607E+00  0.88000000000E+00 0. -1.
        -11    1    4    4    0    0  0.14708564062E-01 -0.28632190235E-01 -0.13528389070E-01  0.34920232048E-01  0.51100000000E-03 0.  1.
         11    1    4    4    0    0  0.37666973097E-01 -0.60183909347E-01 -0.68052304013E-01  0.98347755486E-01  0.51100000000E-03 0. -1.
</event>
<event>
 8    1  0.5489035E+004  0.1043930E+01  0.7957747E-01            NaN
         13   -1    0    0    0    0  0.00000000000E+00  0.00000000000E+00  0.74505805969E-08  0.10566000000E+00  0.10566000000E+00 0.  1.
     999900   -1    0    0    0    0 -0.00000000000E+00 -0.00000000000E+00 -0.74505805969E-08  0.93827000000E+00  0.93827000000E+00 0.  1.
     999902    2    1    2    0    0  0.47489660831E-02  0.67292725689E-02  0.16812336135E-01  0.10252086102E+01  0.10250376598E+01 0.  0.
     999903    2    3    3    0    0  0.12376930182E+00 -0.44543040819E-01 -0.22448896213E-01  0.13485130286E+00  0.19442180544E-01 0.  0.
         14    1    1    2    0    0 -0.47489660831E-02 -0.67292725689E-02 -0.16812336135E-01  0.18721389758E-01  0.00000000000E+00 0. -1.
     999901    1    3    3    0    0 -0.11902033574E+00  0.51272313387E-01  0.39261232348E-01  0.89035730738E+00  0.88000000000E+00 0. -1.
        -11    1    4    4    0    0  0.98382679480E-01 -0.38936770385E-01 -0.25003362762E-01  0.10872282640E+00  0.51100000000E-03 0.  1.
         11    1    4    4    0    0  0.25386622339E-01 -0.56062704333E-02  0.25544665489E-02  0.26128476463E-01  0.51100000000E-03 0. -1.
</event>
<event>
 8    1  0.5489035E+004  0.1043930E+01  0.7957747E-01            NaN
         13   -1    0    0    0    0  0.00000000000E+00  0.00000000000E+00  0.74505805969E-08  0.10566000000E+00  0.10566000000E+00 0. -1.
     999900   -1    0    0    0    0 -0.00000000000E+00 -0.00000000000E+00 -0.74505805969E-08  0.93827000000E+00  0.93827000000E+00 0. -1.
     999902    2    1    2    0    0  0.91470186959E-02 -0.16159695619E-02  0.30371707176E-01  0.10121696488E+01  0.10116712303E+01 0.  0.
     999903    2    3    3    0    0  0.10664628690E+00 -0.16173407469E-01  0.62863722528E-01  0.12606933999E+00  0.17510604094E-01 0.  0.
         14    1    1    2    0    0 -0.91470186959E-02  0.16159695619E-02 -0.30371707176E-01  0.31760351154E-01  0.00000000000E+00 0.  1.
     999901    1    3    3    0    0 -0.97499268205E-01  0.14557437907E-01 -0.32492015352E-01  0.88610030886E+00  0.88000000000E+00 0.  1.
        -11    1    4    4    0    0  0.54326645634E-01 -0.86703157906E-03  0.25815238916E-01  0.60156660902E-01  0.51100000000E-03 0.  1.
         11    1    4    4    0    0  0.52319641267E-01 -0.15306375889E-01  0.37048483613E-01  0.65912679085E-01  0.51100000000E-03 0. -1.
</event>
<event>
 8    1  0.5489035E+004  0.1043930E+01  0.7957747E-01            NaN
         13   -1    0    0    0    0  0.00000000000E+00  0.00000000000E+00  0.74505805969E-08  0.10566000000E+00  0.10566000000E+00 0. -1.
     999900   -1    0    0    0    0 -0.00000000000E+00 -0.00000000000E+00 -0.74505805969E-08  0.93827000000E+00  0.93827000000E+00 0. -1.
     999902    2    1    2    0    0 -0.13936074796E-02  0.11508785281E-01  0.20881954352E-01  0.10200458986E+01  0.10197662404E+01 0.  0.
     999903    2    3    3    0    0  0.43544654340E-02 -0.11133177642E+00  0.64055281093E-01  0.13044667422E+00  0.22350167073E-01 0.  0.
         14    1    1    2    0    0  0.13936074796E-02 -0.11508785281E-01 -0.20881954352E-01  0.23884101365E-01  0.00000000000E+00 0.  1.
     999901    1    3    3    0    0 -0.57480729136E-02  0.12284056170E+00 -0.43173326741E-01  0.88959922442E+00  0.88000000000E+00 0. -1.
        -11    1    4    4    0    0  0.13182276499E-01 -0.69194490176E-01  0.42884119353E-01  0.82467925269E-01  0.51100000000E-03 0.  1.
         11    1    4    4    0    0 -0.88278110645E-02 -0.42137286245E-01  0.21171161740E-01  0.47978748949E-01  0.51100000000E-03 0. -1.
</event>
<event>
 8    1  0.5489035E+004  0.1043930E+01  0.7957747E-01            NaN
         13   -1    0    0    0    0  0.00000000000E+00  0.00000000000E+00  0.74505805969E-08  0.10566000000E+00  0.10566000000E+00 0.  1.
     999900   -1    0    0    0    0 -0.00000000000E+00 -0.00000000000E+00 -0.74505805969E-08  0.93827000000E+00  0.93827000000E+00 0.  1.
     999902    2    1    2    0    0 -0.11221695405E-01 -0.47941806861E-02 -0.20524331960E-01  0.10200520014E+01  0.10197724877E+01 0.  0.
     999903    2    3    3    0    0 -0.72088002868E-01 -0.51347518544E-01 -0.97894441938E-01  0.13334006699E+00  0.19052660833E-01 0.  0.
         14    1    1    2    0    0  0.11221695405E-01  0.47941806861E-02  0.20524331960E-01  0.23877998631E-01  0.00000000000E+00 0.  1.
     999901    1    3    3    0    0  0.60866307463E-01  0.46553337858E-01  0.77370109979E-01  0.88671193438E+00  0.88000000000E+00 0. -1.
        -11    1    4    4    0    0 -0.76113829275E-03 -0.56274153539E-02 -0.46870430698E-02  0.73808284632E-02  0.51100000000E-03 0.  1.
         11    1    4    4    0    0 -0.71326864575E-01 -0.45720103190E-01 -0.93207398868E-01  0.12595923853E+00  0.51100000000E-03 0. -1.
</event>
<event>
 8    1  0.5489035E+004  0.1043930E+01  0.7957747E-01            NaN
         13   -1    0    0    0    0  0.00000000000E+00  0.00000000000E+00  0.74505805969E-08  0.10566000000E+00  0.10566000000E+00 0.  1.
     999900   -1    0    0    0    0 -0.00000000000E+00 -0.00000000000E+00 -0.74505805969E-08  0.93827000000E+00  0.93827000000E+00 0.  1.
     999902    2    1    2    0    0 -0.33943888679E-02  0.79646183843E-03 -0.23312414674E-01  0.10203583029E+01  0.10200859970E+01 0.  0.
     999903    2    3    3    0    0 -0.24854456734E-01  0.28717684117E-01  0.12033437782E+00  0.12801614308E+00  0.21571300406E-01 0.  0.
         14    1    1    2    0    0  0.33943888679E-02 -0.79646183843E-03  0.23312414674E-01  0.23571697122E-01  0.00000000000E+00 0.  1.
     999901    1    3    3    0    0  0.21460067866E-01 -0.27921222278E-01 -0.14364679250E+00  0.89234215980E+00  0.88000000000E+00 0.  1.
        -11    1    4    4    0    0 -0.66415997307E-02  0.28533457865E-02  0.54441234882E-01  0.54921412997E-01  0.51100000000E-03 0.  1.
         11    1    4    4    0    0 -0.18212857003E-01  0.25864338330E-01  0.65893142942E-01  0.73094730079E-01  0.51100000000E-03 0. -1.
</event>
<event>
 8    1  0.5489035E+004  0.1043930E+01  0.7957747E-01            NaN
         13   -1    0    0    0    0  0.00000000000E+00  0.00000000000E+00  0.74505805969E-08  0.10566000000E+00  0.10566000000E+00 0.  1.
     999900   -1    0    0    0    0 -0.00000000000E+00 -0.00000000000E+00 -0.74505805969E-08  0.93827000000E+00  0.93827000000E+00 0. -1.
     999902    2    1    2    0    0  0.33335264260E-02 -0.25067931235E-01 -0.14429706509E-02  0.10186002598E+01  0.10182852712E+01 0.  0.
     999903    2    3    3    0    0 -0.91380137601E-01  0.45271000812E-01 -0.74301846082E-01  0.12774299892E+00  0.19942827768E-01 0.  0.
         14    1    1    2    0    0 -0.33335264260E-02  0.25067931235E-01  0.14429706509E-02  0.25329740211E-01  0.00000000000E+00 0. -1.
     999901    1    3    3    0    0  0.94713664027E-01 -0.70338932047E-01  0.72858875431E-01  0.89085726087E+00  0.88000000000E+00 0.  1.
        -11    1    4    4    0    0 -0.75773754123E-01  0.37947787685E-01 -0.51551588688E-01  0.99194373940E-01  0.51100000000E-03 0. -1.
         11    1    4    4    0    0 -0.15606383478E-01  0.73232131274E-02 -0.22750257394E-01  0.28548624980E-01  0.51100000000E-03 0.  1.
</event>
<event>
 8    1  0.5489035E+004  0.1043930E+01  0.7957747E-01            NaN
         13   -1    0    0    0    0  0.00000000000E+00  0.00000000000E+00  0.74505805969E-08  0.10566000000E+00  0.10566000000E+00 0.  1.
     999900   -1    0    0    0    0 -0.00000000000E+00 -0.00000000000E+00 -0.74505805969E-08  0.93827000000E+00  0.93827000000E+00 0.  1.
     999902    2    1    2    0    0 -0.13366185168E-01 -0.50603344718E-03 -0.19770259622E-01  0.10200600578E+01  0.10197807349E+01 0.  0.
     999903    2    3    3    0    0  0.15026821473E-01 -0.40982402900E-01  0.11866636103E+00  0.12786658255E+00  0.19047177846E-01 0.  0.
         14    1    1    2    0    0  0.13366185168E-01  0.50603344718E-03  0.19770259622E-01  0.23869942215E-01  0.00000000000E+00 0.  1.
     999901    1    3    3    0    0 -0.28393006641E-01  0.40476369453E-01 -0.13843662065E+00  0.89219347523E+00  0.88000000000E+00 0.  1.
        -11    1    4    4    0    0  0.29497266404E-02 -0.20516205456E-01  0.33077113990E-01  0.39038086076E-01  0.51100000000E-03 0.  1.
         11    1    4    4    0    0  0.12077094832E-01 -0.20466197444E-01  0.85589247035E-01  0.88828496477E-01  0.51100000000E-03 0. -1.
</event>
<event>
 8    1  0.5489035E+004  0.1043930E+01  0.7957747E-01            NaN
         13   -1    0    0    0    0  0.00000000000E+00  0.00000000000E+00  0.74505805969E-08  0.10566000000E+00  0.10566000000E+00 0. -1.
     999900   -1    0    0    0    0 -0.00000000000E+00 -0.00000000000E+00 -0.74505805969E-08  0.93827000000E+00  0.93827000000E+00 0.  1.
     999902    2    1    2    0    0 -0.17177844643E-01  0.16438842412E-01  0.20161038229E-02  0.10200683454E+01  0.10197892188E+01 0.  0.
     999903    2    3    3    0    0 -0.11583704564E+00  0.34812392867E-01  0.51158130429E-01  0.13300230270E+00  0.21031746826E-01 0.  0.
         14    1    1    2    0    0  0.17177844643E-01 -0.16438842412E-01 -0.20161038229E-02  0.23861654617E-01  0.00000000000E+00 0. -1.
     999901    1    3    3    0    0  0.98659201000E-01 -0.18373550455E-01 -0.49142026606E-01  0.88706604268E+00  0.88000000000E+00 0.  1.
        -11    1    4    4    0    0 -0.43046013650E-01  0.23570285689E-01  0.18908672005E-01  0.52595785540E-01  0.51100000000E-03 0. -1.
         11    1    4    4    0    0 -0.72791031993E-01  0.11242107179E-01  0.32249458423E-01  0.80406517162E-01  0.51100000000E-03 0.  1.
</event>
<event>
 8    1  0.5489035E+004  0.1043930E+01  0.7957747E-01            NaN
         13   -1    0    0    0    0  0.00000000000E+00  0.00000000000E+00  0.74505805969E-08  0.10566000000E+00  0.10566000000E+00 0. -1.
     999900   -1    0    0    0    0 -0.00000000000E+00 -0.00000000000E+00 -0.74505805969E-08  0.93827000000E+00  0.93827000000E+00 0.  1.
     999902    2    1    2    0    0 -0.52169556292E-02  0.22590914846E-01  0.59323464563E-02  0.10199976204E+01  0.10197168170E+01 0.  0.
     999903    2    3    3    0    0  0.42298513278E-01 -0.46851127479E-02  0.12058556752E+00  0.13087048517E+00  0.27840443386E-01 0.  0.
         14    1    1    2    0    0  0.52169556292E-02 -0.22590914846E-01 -0.59323464563E-02  0.23932379617E-01  0.00000000000E+00 0.  1.
     999901    1    3    3    0    0 -0.47515468907E-01  0.27276027594E-01 -0.11465322107E+00  0.88912713521E+00  0.88000000000E+00 0.  1.
        -11    1    4    4    0    0  0.18975951857E-01  0.11710281837E-01  0.50454695604E-01  0.55164797462E-01  0.51100000000E-03 0. -1.
         11    1    4    4    0    0  0.23322561421E-01 -0.16395394585E-01  0.70130871918E-01  0.75705687711E-01  0.51100000000E-03 0.  1.
</event>
<event>
 8    1  0.5489035E+004  0.1043930E+01  0.7957747E-01            NaN
         13   -1    0    0    0    0  0.00000000000E+00  0.00000000000E+00  0.74505805969E-08  0.10566000000E+00  0.10566000000E+00 0.  1.
     999900   -1    0    0    0    0 -0.00000000000E+00 -0.00000000000E+00 -0.74505805969E-08  0.93827000000E+00  0.93827000000E+00 0. -1.
     999902    2    1    2    0    0 -0.15027918577E-01 -0.14274087870E-01  0.11751913129E-01  0.10201036410E+01  0.10198253493E+01 0.  0.
     999903    2    3    3    0    0 -0.81020942601E-01 -0.96960907425E-01 -0.34948333652E-01  0.13253781110E+00  0.19469839164E-01 0.  0.
         14    1    1    2    0    0  0.15027918577E-01  0.14274087870E-01 -0.11751913129E-01  0.23826359006E-01  0.00000000000E+00 0. -1.
     999901    1    3    3    0    0  0.65993024024E-01  0.82686819554E-01  0.46700246782E-01  0.88756582990E+00  0.88000000000E+00 0.  1.
        -11    1    4    4    0    0 -0.37649994301E-01 -0.52015722783E-01 -0.87586594858E-02  0.64808430968E-01  0.51100000000E-03 0.  1.
         11    1    4    4    0    0 -0.43370948300E-01 -0.44945184641E-01 -0.26189674167E-01  0.67729380131E-01  0.51100000000E-03 0. -1.
</event>
<event>
 8    1  0.5489035E+004  0.1043930E+01  0.7957747E-01            NaN
         13   -1    0    0    0    0  0.00000000000E+00  0.00000000000E+00  0.74505805969E-08  0.10566000000E+00  0.10566000000E+00 0. -1.
     999900   -1    0    0    0    0 -0.00000000000E+00 -0.00000000000E+00 -0.74505805969E-08  0.93827000000E+00  0.93827000000E+00 0. -1.
     999902    2    1    2    0    0  0.20447323977E-01  0.32589974031E-02  0.11191412455E-01  0.10203936062E+01  0.10201221249E+01 0.  0.
     999903    2    3    3    0    0 -0.11366490337E+00  0.47858632088E-01  0.32074572724E-01  0.12887169207E+00  0.19208744833E-01 0.  0.
         14    1    1    2    0    0 -0.20447323977E-01 -0.32589974031E-02 -0.11191412455E-01  0.23536393832E-01  0.00000000000E+00 0.  1.
     999901    1    3    3    0    0  0.13411222735E+00 -0.44599634685E-01 -0.20883160269E-01  0.89152191410E+00  0.88000000000E+00 0. -1.
        -11    1    4    4    0    0 -0.78909695425E-01  0.42329509268E-01  0.21036677941E-01  0.91985489762E-01  0.51100000000E-03 0. -1.
         11    1    4    4    0    0 -0.34755207943E-01  0.55291228192E-02  0.11037894783E-01  0.36886202306E-01  0.51100000000E-03 0.  1.
</event>
<event>
 8    1  0.5489035E+004  0.1043930E+01  0.7957747E-01            NaN
         13   -1    0    0    0    0  0.00000000000E+00  0.00000000000E+00  0.74505805969E-08  0.10566000000E+00  0.10566000000E+00 0.  1.
     999900   -1    0    0    0    0 -0.00000000000E+00 -0.00000000000E+00 -0.74505805969E-08  0.93827000000E+00  0.93827000000E+00 0.  1.
     999902    2    1    2    0    0  0.11298960593E-01 -0.16347284011E-01  0.12650789253E-01  0.10203727787E+01  0.10201008111E+01 0.  0.
     999903    2    3    3    0    0 -0.10865830985E+00  0.40697671713E-01  0.53736598247E-01  0.12945644293E+00  0.20209399870E-01 0.  0.
         14    1    1    2    0    0 -0.11298960593E-01  0.16347284011E-01 -0.12650789253E-01  0.23557221266E-01  0.00000000000E+00 0. -1.
     999901    1    3    3    0    0  0.11995727044E+00 -0.57044955724E-01 -0.41085808993E-01  0.89091633581E+00  0.88000000000E+00 0.  1.
        -11    1    4    4    0    0 -0.98511458402E-01  0.30402910385E-01  0.49627602827E-01  0.11442029750E+00  0.51100000000E-03 0.  1.
         11    1    4    4    0    0 -0.10146851445E-01  0.10294761328E-01  0.41089954194E-02  0.15036145430E-01  0.51100000000E-03 0. -1.
</event>
<event>
 8    1  0.5489035E+004  0.1043930E+01  0.7957747E-01            NaN
         13   -1    0    0    0    0  0.00000000000E+00  0.00000000000E+00  0.74505805969E-08  0.10566000000E+00  0.10566000000E+00 0.  1.
     999900   -1    0    0    0    0 -0.00000000000E+00 -0.00000000000E+00 -0.74505805969E-08  0.93827000000E+00  0.93827000000E+00 0. -1.
     999902    2    1    2    0    0  0.13411872374E-01 -0.49746228947E-02  0.25069204019E-01  0.10150666983E+01  0.10146562531E+01 0.  0.
     999903    2    3    3    0    0  0.11282273516E+00 -0.50420837758E-01 -0.22079362189E-01  0.12705157155E+00  0.19579916983E-01 0.  0.
         14    1    1    2    0    0 -0.13411872374E-01  0.49746228947E-02 -0.25069204019E-01  0.28863301677E-01  0.00000000000E+00 0. -1.
     999901    1    3    3    0    0 -0.99410862786E-01  0.45446214864E-01  0.47148566208E-01  0.88801512677E+00  0.88000000000E+00 0. -1.
        -11    1    4    4    0    0  0.39013428882E-01 -0.10130677616E-01 -0.83982790458E-03  0.40319284393E-01  0.51100000000E-03 0.  1.
         11    1    4    4    0    0  0.73809306278E-01 -0.40290160143E-01 -0.21239534285E-01  0.86732287156E-01  0.51100000000E-03 0. -1.
</event>
<event>
 8    1  0.5489035E+004  0.1043930E+01  0.7957747E-01            NaN
         13   -1    0    0    0    0  0.00000000000E+00  0.00000000000E+00  0.74505805969E-08  0.10566000000E+00  0.10566000000E+00 0. -1.
     999900   -1    0    0    0    0 -0.00000000000E+00 -0.00000000000E+00 -0.74505805969E-08  0.93827000000E+00  0.93827000000E+00 0.  1.
     999902    2    1    2    0    0  0.23175037853E-01  0.83004552611E-03  0.64204607498E-02  0.10198677127E+01  0.10195838159E+01 0.  0.
     999903    2    3    3    0    0  0.67047565396E-01  0.59682708711E-02 -0.11055628885E+00  0.13102871714E+00  0.20367509160E-01 0.  0.
         14    1    1    2    0    0 -0.23175037853E-01 -0.83004552611E-03 -0.64204607498E-02  0.24062287325E-01  0.00000000000E+00 0. -1.
     999901    1    3    3    0    0 -0.43872527542E-01 -0.51382253449E-02  0.11697674960E+00  0.88883899553E+00  0.88000000000E+00 0. -1.
        -11    1    4    4    0    0  0.60110845785E-01  0.29872800955E-02 -0.10677313587E+00  0.12256835353E+00  0.51100000000E-03 0.  1.
         11    1    4    4    0    0  0.69367196108E-02  0.29809907755E-02 -0.37831529813E-02  0.84603636117E-02  0.51100000000E-03 0. -1.
</event>
<event>
 8    1  0.5489035E+004  0.1043930E+01  0.7957747E-01            NaN
         13   -1    0    0    0    0  0.00000000000E+00  0.00000000000E+00  0.74505805969E-08  0.10566000000E+00  0.10566000000E+00 0. -1.
     999900   -1    0    0    0    0 -0.00000000000E+00 -0.00000000000E+00 -0.74505805969E-08  0.93827000000E+00  0.93827000000E+00 0. -1.
     999902    2    1    2    0    0  0.96732317151E-02 -0.71206766623E-03 -0.21158643916E-01  0.10206541184E+01  0.10203886822E+01 0.  0.
     999903    2    3    3    0    0  0.10150361031E-01 -0.10956967987E+00 -0.71100433577E-01  0.13254129350E+00  0.20084278747E-01 0.  0.
         14    1    1    2    0    0 -0.96732317151E-02  0.71206766623E-03  0.21158643916E-01  0.23275881606E-01  0.00000000000E+00 0. -1.
     999901    1    3    3    0    0 -0.47712931643E-03  0.10885761220E+00  0.49941789661E-01  0.88811282489E+00  0.88000000000E+00 0.  1.
        -11    1    4    4    0    0  0.39027811158E-02 -0.96687748371E-01 -0.66794843428E-01  0.11758216113E+00  0.51100000000E-03 0. -1.
         11    1    4    4    0    0  0.62475799157E-02 -0.12881931495E-01 -0.43055901485E-02  0.14959132374E-01  0.51100000000E-03 0.  1.
</event>
<event>
 8    1  0.5489035E+004  0.1043930E+01  0.7957747E-01            NaN
         13   -1    0    0    0    0  0.00000000000E+00  0.00000000000E+00  0.74505805969E-08  0.10566000000E+00  0.10566000000E+00 0.  1.
     999900   -1    0    0    0    0 -0.00000000000E+00 -0.00000000000E+00 -0.74505805969E-08  0.93827000000E+00  0.93827000000E+00 0.  1.
     999902    2    1    2    0    0  0.10738762167E-01  0.19416811473E-01 -0.99963027858E-02  0.10195936147E+01  0.10193031342E+01 0.  0.
     999903    2    3    3    0    0  0.18497484361E-01 -0.12385023101E+00 -0.15556987522E-01  0.12795660085E+00  0.21209318492E-01 0.  0.
         14    1    1    2    0    0 -0.10738762167E-01 -0.19416811473E-01  0.99963027858E-02  0.24336385311E-01  0.00000000000E+00 0.  1.
     999901    1    3    3    0    0 -0.77587221947E-02  0.14326704248E+00  0.55606847360E-02  0.89163701384E+00  0.88000000000E+00 0.  1.
        -11    1    4    4    0    0  0.22330941846E-01 -0.90918298576E-01 -0.14838654116E-01  0.94790583692E-01  0.51100000000E-03 0.  1.
         11    1    4    4    0    0 -0.38334574844E-02 -0.32931932436E-01 -0.71833340609E-03  0.33166017158E-01  0.51100000000E-03 0. -1.
</event>
<event>
 8    1  0.5489035E+004  0.1043930E+01  0.7957747E-01            NaN
         13   -1    0    0    0    0  0.00000000000E+00  0.00000000000E+00  0.74505805969E-08  0.10566000000E+00  0.10566000000E+00 0.  1.
     999900   -1    0    0    0    0 -0.00000000000E+00 -0.00000000000E+00 -0.74505805969E-08  0.93827000000E+00  0.93827000000E+00 0.  1.
     999902    2    1    2    0    0  0.75065021365E-02 -0.22612372554E-02 -0.20817952734E-01  0.10216848224E+01  0.10214426212E+01 0.  0.
     999903    2    3    3    0    0 -0.24601246560E-01  0.99455345742E-01 -0.82162415776E-01  0.13312401196E+00  0.21788824347E-01 0.  0.
         14    1    1    2    0    0 -0.75065021365E-02  0.22612372554E-02  0.20817952734E-01  0.22245177551E-01  0.00000000000E+00 0.  1.
     999901    1    3    3    0    0  0.32107748696E-01 -0.10171658300E+00  0.61344463042E-01  0.88856081048E+00  0.88000000000E+00 0. -1.
        -11    1    4    4    0    0 -0.26322990034E-01  0.82587904890E-01 -0.60963724823E-01  0.10597404731E+00  0.51100000000E-03 0.  1.
         11    1    4    4    0    0  0.17217434746E-02  0.16867440852E-01 -0.21198690953E-01  0.27149964652E-01  0.51100000000E-03 0. -1.
</event>
<event>
 8    1  0.5489035E+004  0.1043930E+01  0.7957747E-01            NaN
         13   -1    0    0    0    0  0.00000000000E+00  0.00000000000E+00  0.74505805969E-08  0.10566000000E+00  0.10566000000E+00 0.  1.
     999900   -1    0    0    0    0 -0.00000000000E+00 -0.00000000000E+00 -0.74505805969E-08  0.93827000000E+00  0.93827000000E+00 0.  1.
     999902    2    1    2    0    0 -0.98264516606E-02  0.11958021507E-01 -0.18023391412E-01  0.10201729785E+01  0.10198963232E+01 0.  0.
     999903    2    3    3    0    0  0.47946469751E-01  0.41304438826E-02  0.11694579508E+00  0.12797587996E+00  0.19636250544E-01 0.  0.
         14    1    1    2    0    0  0.98264516606E-02 -0.11958021507E-01  0.18023391412E-01  0.23757021459E-01  0.00000000000E+00 0.  1.
     999901    1    3    3    0    0 -0.57772921411E-01  0.78275776245E-02 -0.13496918649E+00  0.89219709858E+00  0.88000000000E+00 0.  1.
        -11    1    4    4    0    0  0.44406673289E-01  0.23612989345E-02  0.86431587273E-01  0.97201896919E-01  0.51100000000E-03 0. -1.
         11    1    4    4    0    0  0.35397964618E-02  0.17691449481E-02  0.30514207808E-01  0.30773983037E-01  0.51100000000E-03 0.  1.
</event>
<event>
 8    1  0.5489035E+004  0.1043930E+01  0.7957747E-01            NaN
         13   -1    0    0    0    0  0.00000000000E+00  0.00000000000E+00  0.74505805969E-08  0.10566000000E+00  0.10566000000E+00 0. -1.
     999900   -1    0    0    0    0 -0.00000000000E+00 -0.00000000000E+00 -0.74505805969E-08  0.93827000000E+00  0.93827000000E+00 0. -1.
     999902    2    1    2    0    0  0.43297655212E-02  0.20889790916E-01  0.81321669599E-02  0.10210988289E+01  0.10208435512E+01 0.  0.
     999903    2    3    3    0    0 -0.43012322566E-01  0.12104980002E+00  0.32098368222E-01  0.13382903931E+00  0.19411144836E-01 0.  0.
         14    1    1    2    0    0 -0.43297655212E-02 -0.20889790916E-01 -0.81321669599E-02  0.22831171092E-01  0.00000000000E+00 0. -1.
     999901    1    3    3    0    0  0.47342088087E-01 -0.10016000910E+00 -0.23966201262E-01  0.88726978960E+00  0.88000000000E+00 0.  1.
        -11    1    4    4    0    0 -0.22472878916E-01  0.62211529942E-01  0.65436848810E-02  0.66470938592E-01  0.51100000000E-03 0. -1.
         11    1    4    4    0    0 -0.20539443650E-01  0.58838270075E-01  0.25554683341E-01  0.67358100719E-01  0.51100000000E-03 0.  1.
</event>
<event>
 7    1  0.5489035E+004  0.1043930E+01  0.7957747E-01            NaN
         13   -1    0    0    0    0  0.00000000000E+00  0.00000000000E+00  0.74505805969E-08  0.10566000000E+00  0.10566000000E+00 0. -1.
     999900   -1    0    0    0    0 -0.00000000000E+00 -0.00000000000E+00 -0.74505805969E-08  0.93827000000E+00  0.93827000000E+00 0. -1.
     999903    2    1    2    0    0 -0.19211999132E-01  0.92163925214E-01  0.34528508017E-01  0.10184916071E+00  0.17825365371E-01 0.  0.
         14    1    1    2    0    0 -0.46105383414E-01 -0.51848960003E-02  0.26242912495E-01  0.53303658247E-01  0.00000000000E+00 0.  1.
     999901    1    1    2    0    0  0.65317382546E-01 -0.86979029214E-01 -0.60771420512E-01  0.88877718104E+00  0.88000000000E+00 0. -1.
        -11    1    3    3    0    0 -0.18453043641E-01  0.83969592392E-01  0.25620858399E-01  0.89711185324E-01  0.51100000000E-03 0.  1.
         11    1    3    3    0    0 -0.75895549081E-03  0.81943328217E-02  0.89076496181E-02  0.12137975389E-01  0.51100000000E-03 0. -1.
</event>
<event>
 8    1  0.5489035E+004  0.1043930E+01  0.7957747E-01            NaN
         13   -1    0    0    0    0  0.00000000000E+00  0.00000000000E+00  0.74505805969E-08  0.10566000000E+00  0.10566000000E+00 0.  1.
     999900   -1    0    0    0    0 -0.00000000000E+00 -0.00000000000E+00 -0.74505805969E-08  0.93827000000E+00  0.93827000000E+00 0. -1.
     999902    2    1    2    0    0  0.16782628905E-01  0.46951162609E-02  0.15820808949E-01  0.10203928221E+01  0.10201213225E+01 0.  0.
     999903    2    3    3    0    0 -0.11259288637E+00 -0.46335270945E-01 -0.34628330460E-01  0.12804354065E+00  0.19285010661E-01 0.  0.
         14    1    1    2    0    0 -0.16782628905E-01 -0.46951162609E-02 -0.15820808949E-01  0.23537177942E-01  0.00000000000E+00 0. -1.
     999901    1    3    3    0    0  0.12937551527E+00  0.51030387206E-01  0.50449139409E-01  0.89234928141E+00  0.88000000000E+00 0.  1.
        -11    1    4    4    0    0 -0.35286709561E-01 -0.23268821517E-01 -0.75175315333E-02  0.42934418918E-01  0.51100000000E-03 0. -1.
         11    1    4    4    0    0 -0.77306176807E-01 -0.23066449428E-01 -0.27110798927E-01  0.85109121727E-01  0.51100000000E-03 0.  1.
</event>
<event>
 8    1  0.5489035E+004  0.1043930E+01  0.7957747E-01            NaN
         13   -1    0    0    0    0  0.00000000000E+00  0.00000000000E+00  0.74505805969E-08  0.10566000000E+00  0.10566000000E+00 0. -1.
     999900   -1    0    0    0    0 -0.00000000000E+00 -0.00000000000E+00 -0.74505805969E-08  0.93827000000E+00  0.93827000000E+00 0. -1.
     999902    2    1    2    0    0  0.16406011516E-01 -0.14144379433E-01  0.41608723747E-02  0.10218724946E+01  0.10216344071E+01 0.  0.
     999903    2    3    3    0    0 -0.17999878758E-02  0.11175389939E+00  0.64703783864E-01  0.13066697449E+00  0.19877238045E-01 0.  0.
         14    1    1    2    0    0 -0.16406011516E-01  0.14144379433E-01 -0.41608723747E-02  0.22057505352E-01  0.00000000000E+00 0.  1.
     999901    1    3    3    0    0  0.18205999392E-01 -0.12589827882E+00 -0.60542911490E-01  0.89120552016E+00  0.88000000000E+00 0.  1.
        -11    1    4    4    0    0  0.21995627227E-02  0.43037786159E-01  0.14504468944E-01  0.45472297654E-01  0.51100000000E-03 0.  1.
         11    1    4    4    0    0 -0.39995505985E-02  0.68716113228E-01  0.50199314921E-01  0.85194676839E-01  0.51100000000E-03 0. -1.
</event>
<event>
 8    1  0.5489035E+004  0.1043930E+01  0.7957747E-01            NaN
         13   -1    0    0    0    0  0.00000000000E+00  0.00000000000E+00  0.74505805969E-08  0.10566000000E+00  0.10566000000E+00 0. -1.
     999900   -1    0    0    0    0 -0.00000000000E+00 -0.00000000000E+00 -0.74505805969E-08  0.93827000000E+00  0.93827000000E+00 0. -1.
     999902    2    1    2    0    0 -0.76299974932E-02 -0.20253711303E-01  0.99541572812E-02  0.10201074281E+01  0.10198292259E+01 0.  0.
     999903    2    3    3    0    0 -0.88102313620E-02  0.30521286660E-01  0.12560889979E+00  0.13108801730E+00  0.19932472437E-01 0.  0.
         14    1    1    2    0    0  0.76299974932E-02  0.20253711303E-01 -0.99541572812E-02  0.23822571869E-01  0.00000000000E+00 0.  1.
     999901    1    3    3    0    0  0.11802338688E-02 -0.50774997963E-01 -0.11565474251E+00  0.88901941083E+00  0.88000000000E+00 0. -1.
        -11    1    4    4    0    0  0.58756759384E-02  0.60373967981E-02  0.38646413999E-01  0.39557302281E-01  0.51100000000E-03 0. -1.
         11    1    4    4    0    0 -0.14685907300E-01  0.24483889862E-01  0.86962485790E-01  0.91530715018E-01  0.51100000000E-03 0.  1.
</event>
<event>
 8    1  0.5489035E+004  0.1043930E+01  0.7957747E-01            NaN
         13   -1    0    0    0    0  0.00000000000E+00  0.00000000000E+00  0.74505805969E-08  0.10566000000E+00  0.10566000000E+00 0. -1.
     999900   -1    0    0    0    0 -0.00000000000E+00 -0.00000000000E+00 -0.74505805969E-08  0.93827000000E+00  0.93827000000E+00 0. -1.
     999902    2    1    2    0    0  0.43975378517E-02 -0.84118569971E-03  0.31309713076E-01  0.10123017837E+01  0.10118075693E+01 0.  0.
     999903    2    3    3    0    0 -0.29885092342E-01  0.11568390627E+00  0.10723557701E-01  0.12372022551E+00  0.30262428783E-01 0.  0.
         14    1    1    2    0    0 -0.43975378517E-02  0.84118569971E-03 -0.31309713076E-01  0.31628216286E-01  0.00000000000E+00 0.  1.
     999901    1    3    3    0    0  0.34282630194E-01 -0.11652509197E+00  0.20586155375E-01  0.88858155821E+00  0.88000000000E+00 0. -1.
        -11    1    4    4    0    0 -0.12926501943E-01  0.56700572451E-01  0.20308092450E-01  0.61601372621E-01  0.51100000000E-03 0.  1.
         11    1    4    4    0    0 -0.16958590399E-01  0.58983333818E-01 -0.95845347491E-02  0.62118852887E-01  0.51100000000E-03 0. -1.
</event>
<event>
 8    1  0.5489035E+004  0.1043930E+01  0.7957747E-01            NaN
         13   -1    0    0    0    0  0.00000000000E+00  0.00000000000E+00  0.74505805969E-08  0.10566000000E+00  0.10566000000E+00 0.  1.
     999900   -1    0    0    0    0 -0.00000000000E+00 -0.00000000000E+00 -0.74505805969E-08  0.93827000000E+00  0.93827000000E+00 0. -1.
     999902    2    1    2    0    0  0.21113204648E-01 -0.79381244053E-02  0.12057904294E-01  0.10183531690E+01  0.10180319261E+01 0.  0.
     999903    2    3    3    0    0  0.11744222296E+00 -0.18609479919E-01  0.53788415178E-01  0.13204927462E+00  0.20120358966E-01 0.  0.
         14    1    1    2    0    0 -0.21113204648E-01  0.79381244053E-02 -0.12057904294E-01  0.25576831030E-01  0.00000000000E+00 0.  1.
     999901    1    3    3    0    0 -0.96329018310E-01  0.10671355514E-01 -0.41730510884E-01  0.88630389435E+00  0.88000000000E+00 0. -1.
        -11    1    4    4    0    0  0.81620815317E-01 -0.17087424626E-01  0.46425242928E-01  0.95443710506E-01  0.51100000000E-03 0.  1.
         11    1    4    4    0    0  0.35821407641E-01 -0.15220552938E-02  0.73631722500E-02  0.36605564116E-01  0.51100000000E-03 0. -1.
</event>
<event>
 8    1  0.5489035E+004  0.1043930E+01  0.7957747E-01            NaN
         13   -1    0    0    0    0  0.00000000000E+00  0.00000000000E+00  0.74505805969E-08  0.10566000000E+00  0.10566000000E+00 0. -1.
     999900   -1    0    0    0    0 -0.00000000000E+00 -0.00000000000E+00 -0.74505805969E-08  0.93827000000E+00  0.93827000000E+00 0.  1.
     999902    2    1    2    0    0 -0.87669868403E-02  0.18955222204E-01  0.11663364316E-01  0.10200094111E+01  0.10197288876E+01 0.  0.
     999903    2    3    3    0    0  0.79891471363E-01  0.71672598114E-01  0.73789869060E-01  0.13180946370E+00  0.20228233447E-01 0.  0.
         14    1    1    2    0    0  0.87669868403E-02 -0.18955222204E-01 -0.11663364316E-01  0.23920588919E-01  0.00000000000E+00 0.  1.
     999901    1    3    3    0    0 -0.88658458203E-01 -0.52717375911E-01 -0.62126504744E-01  0.88819994738E+00  0.88000000000E+00 0.  1.
        -11    1    4    4    0    0  0.71102918162E-01  0.57348488044E-01  0.55146582914E-01  0.10670464273E+00  0.51100000000E-03 0.  1.
         11    1    4    4    0    0  0.87885532006E-02  0.14324110070E-01  0.18643286146E-01  0.25104820971E-01  0.51100000000E-03 0. -1.
</event>
<event>
 8    1  0.5489035E+004  0.1043930E+01  0.7957747E-01            NaN
         13   -1    0    0    0    0  0.00000000000E+00  0.00000000000E+00  0.74505805969E-08  0.10566000000E+00  0.10566000000E+00 0.  1.
     999900   -1    0    0    0    0 -0.00000000000E+00 -0.00000000000E+00 -0.74505805969E-08  0.93827000000E+00  0.93827000000E+00 0.  1.
     999902    2    1    2    0    0 -0.11436251678E-01  0.15920745253E-01 -0.14636031287E-01  0.10194663250E+01  0.10191727608E+01 0.  0.
     999903    2    3    3    0    0 -0.11475703340E+00  0.54724455271E-01  0.27403226694E-01  0.13157657338E+00  0.19937780986E-01 0.  0.
         14    1    1    2    0    0  0.11436251678E-01 -0.15920745253E-01  0.14636031287E-01  0.24463674983E-01  0.00000000000E+00 0.  1.
     999901    1    3    3    0    0  0.10332078172E+00 -0.38803710018E-01 -0.42039257981E-01  0.88788975163E+00  0.88000000000E+00 0. -1.
        -11    1    4    4    0    0 -0.37841135102E-01  0.12872895245E-01  0.52337505973E-03  0.39977468407E-01  0.51100000000E-03 0.  1.
         11    1    4    4    0    0 -0.76915898296E-01  0.41851560026E-01  0.26879851634E-01  0.91599104975E-01  0.51100000000E-03 0. -1.
</event>
<event>
 8    1  0.5489035E+004  0.1043930E+01  0.7957747E-01            NaN
         13   -1    0    0    0    0  0.00000000000E+00  0.00000000000E+00  0.74505805969E-08  0.10566000000E+00  0.10566000000E+00 0. -1.
     999900   -1    0    0    0    0 -0.00000000000E+00 -0.00000000000E+00 -0.74505805969E-08  0.93827000000E+00  0.93827000000E+00 0.  1.
     999902    2    1    2    0    0  0.13466888455E-01  0.48592737562E-02 -0.19970369853E-01  0.10193579570E+01  0.10190617543E+01 0.  0.
     999903    2    3    3    0    0 -0.13190706156E-01  0.12666628097E+00  0.15394315254E-01  0.12986471063E+00  0.20236517993E-01 0.  0.
         14    1    1    2    0    0 -0.13466888455E-01 -0.48592737562E-02  0.19970369853E-01  0.24572043020E-01  0.00000000000E+00 0. -1.
     999901    1    3    3    0    0  0.26657594611E-01 -0.12180700721E+00 -0.35364685107E-01  0.88949324635E+00  0.88000000000E+00 0. -1.
        -11    1    4    4    0    0 -0.14479077725E-01  0.10372846910E+00  0.19460785700E-01  0.10652803525E+00  0.51100000000E-03 0. -1.
         11    1    4    4    0    0  0.12883715695E-02  0.22937811874E-01 -0.40664704455E-02  0.23336675379E-01  0.51100000000E-03 0.  1.
</event>
<event>
 8    1  0.5489035E+004  0.1043930E+01  0.7957747E-01            NaN
         13   -1    0    0    0    0  0.00000000000E+00  0.00000000000E+00  0.74505805969E-08  0.10566000000E+00  0.10566000000E+00 0. -1.
     999900   -1    0    0    0    0 -0.00000000000E+00 -0.00000000000E+00 -0.74505805969E-08  0.93827000000E+00  0.93827000000E+00 0.  1.
     999902    2    1    2    0    0  0.69499018388E-03  0.10618119385E-01  0.21428779676E-01  0.10200046981E+01  0.10197240628E+01 0.  0.
     999903    2    3    3    0    0  0.21157518882E-01 -0.76502901247E-01 -0.97681142049E-01  0.12748245149E+00  0.20244392337E-01 0.  0.
         14    1    1    2    0    0 -0.69499018388E-03 -0.10618119385E-01 -0.21428779676E-01  0.23925301859E-01  0.00000000000E+00 0.  1.
     999901    1    3    3    0    0 -0.20462528698E-01  0.87121020631E-01  0.11910992173E+00  0.89252224665E+00  0.88000000000E+00 0. -1.
        -11    1    4    4    0    0  0.23907764331E-01 -0.52046291240E-01 -0.69679425708E-01  0.90199119260E-01  0.51100000000E-03 0. -1.
         11    1    4    4    0    0 -0.27502454499E-02 -0.24456610006E-01 -0.28001716341E-01  0.37283332229E-01  0.51100000000E-03 0.  1.
</event>
<event>
 8    1  0.5489035E+004  0.1043930E+01  0.7957747E-01            NaN
         13   -1    0    0    0    0  0.00000000000E+00  0.00000000000E+00  0.74505805969E-08  0.10566000000E+00  0.10566000000E+00 0. -1.
     999900   -1    0    0    0    0 -0.00000000000E+00 -0.00000000000E+00 -0.74505805969E-08  0.93827000000E+00  0.93827000000E+00 0.  1.
     999902    2    1    2    0    0 -0.23830014845E-01 -0.78730907652E-02 -0.36487258095E-02  0.10185692357E+01  0.10182534653E+01 0.  0.
     999903    2    3    3    0    0 -0.67368215471E-01 -0.10681388428E+00 -0.31067341130E-01  0.13153111025E+00  0.19686821678E-01 0.  0.
         14    1    1    2    0    0  0.23830014845E-01  0.78730907652E-02  0.36487258095E-02  0.25360764297E-01  0.00000000000E+00 0. -1.
     999901    1    3    3    0    0  0.43538200627E-01  0.98940793519E-01  0.27418615321E-01  0.88703812545E+00  0.88000000000E+00 0. -1.
        -11    1    4    4    0    0 -0.55834659361E-01 -0.80475891173E-01 -0.31118121033E-01  0.10277391120E+00  0.51100000000E-03 0.  1.
         11    1    4    4    0    0 -0.11533556111E-01 -0.26337993111E-01  0.50779903097E-04  0.28757199051E-01  0.51100000000E-03 0. -1.
</event>
<event>
 8    1  0.5489035E+004  0.1043930E+01  0.7957747E-01            NaN
         13   -1    0    0    0    0  0.00000000000E+00  0.00000000000E+00  0.74505805969E-08  0.10566000000E+00  0.10566000000E+00 0. -1.
     999900   -1    0    0    0    0 -0.00000000000E+00 -0.00000000000E+00 -0.74505805969E-08  0.93827000000E+00  0.93827000000E+00 0. -1.
     999902    2    1    2    0    0  0.17060647231E-01 -0.30204386508E-02 -0.16314575836E-01  0.10201318043E+01  0.10198541778E+01 0.  0.
     999903    2    3    3    0    0 -0.90817380547E-01  0.87411887084E-01  0.21204052831E-01  0.12815460622E+00  0.92388649258E-02 0.  0.
         14    1    1    2    0    0 -0.17060647231E-01  0.30204386508E-02  0.16314575836E-01  0.23798195694E-01  0.00000000000E+00 0. -1.
     999901    1    3    3    0    0  0.10787802778E+00 -0.90432325735E-01 -0.37518628667E-01  0.89197719809E+00  0.88000000000E+00 0. -1.
        -11    1    4    4    0    0 -0.46426127452E-01  0.39217534700E-01  0.78196559302E-02  0.61276492051E-01  0.51100000000E-03 0.  1.
         11    1    4    4    0    0 -0.44391253094E-01  0.48194352383E-01  0.13384396901E-01  0.66878114166E-01  0.51100000000E-03 0. -1.
</event>
<event>
 8    1  0.5489035E+004  0.1043930E+01  0.7957747E-01            NaN
         13   -1    0    0    0    0  0.00000000000E+00  0.00000000000E+00  0.74505805969E-08  0.10566000000E+00  0.10566000000E+00 0.  1.
     999900   -1    0    0    0    0 -0.00000000000E+00 -0.00000000000E+00 -0.74505805969E-08  0.93827000000E+00  0.93827000000E+00 0.  1.
     999902    2    1    2    0    0 -0.13857070911E-01  0.65925440418E-02 -0.19251412431E-01  0.10193109640E+01  0.10190136135E+01 0.  0.
     999903    2    3    3    0    0 -0.92460621650E-01  0.84843822420E-01 -0.36371921608E-01  0.13218363801E+00  0.20053845423E-01 0.  0.
         14    1    1    2    0    0  0.13857070911E-01 -0.65925440418E-02  0.19251412431E-01  0.24619035963E-01  0.00000000000E+00 0.  1.
     999901    1    3    3    0    0  0.78603550739E-01 -0.78251278378E-01  0.17120509177E-01  0.88712732603E+00  0.88000000000E+00 0. -1.
        -11    1    4    4    0    0 -0.61008162915E-02  0.98483365154E-02 -0.87212397683E-02  0.14509680756E-01  0.51100000000E-03 0.  1.
         11    1    4    4    0    0 -0.86359805358E-01  0.74995485905E-01 -0.27650681840E-01  0.11767395725E+00  0.51100000000E-03 0. -1.
</event>
<event>
 8    1  0.5489035E+004  0.1043930E+01  0.7957747E-01            NaN
         13   -1    0    0    0    0  0.00000000000E+00  0.00000000000E+00  0.74505805969E-08  0.10566000000E+00  0.10566000000E+00 0. -1.
     999900   -1    0    0    0    0 -0.00000000000E+00 -0.00000000000E+00 -0.74505805969E-08  0.93827000000E+00  0.93827000000E+00 0. -1.
     999902    2    1    2    0    0  0.79873227286E-02  0.10832873117E-01  0.19241950296E-01  0.10204480683E+01  0.10201778566E+01 0.  0.
     999903    2    3    3    0    0 -0.15131774739E-01  0.87005935764E-01  0.97867403709E-01  0.13336363600E+00  0.20219476566E-01 0.  0.
         14    1    1    2    0    0 -0.79873227286E-02 -0.10832873117E-01 -0.19241950296E-01  0.23481931683E-01  0.00000000000E+00 0.  1.
     999901    1    3    3    0    0  0.23119097468E-01 -0.76173062647E-01 -0.78625453413E-01  0.88708443232E+00  0.88000000000E+00 0. -1.
        -11    1    4    4    0    0 -0.15671399797E-01  0.35579027750E-01  0.36951269835E-01  0.53638768169E-01  0.51100000000E-03 0.  1.
         11    1    4    4    0    0  0.53962505743E-03  0.51426908014E-01  0.60916133873E-01  0.79724867828E-01  0.51100000000E-03 0. -1.
</event>
<event>
 8    1  0.5489035E+004  0.1043930E+01  0.7957747E-01            NaN
         13   -1    0    0    0    0  0.00000000000E+00  0.00000000000E+00  0.74505805969E-08  0.10566000000E+00  0.10566000000E+00 0. -1.
     999900   -1    0    0    0    0 -0.00000000000E+00 -0.00000000000E+00 -0.74505805969E-08  0.93827000000E+00  0.93827000000E+00 0.  1.
     999902    2    1    2    0    0 -0.15750885298E-01  0.29196057771E-02  0.18806217535E-01  0.10192259861E+01  0.10189265540E+01 0.  0.
     999903    2    3    3    0    0  0.29417019585E-01  0.14082866778E-01  0.12583504037E+00  0.13152112131E+00  0.19991492898E-01 0.  0.
         14    1    1    2    0    0  0.15750885298E-01 -0.29196057771E-02 -0.18806217535E-01  0.24704013916E-01  0.00000000000E+00 0.  1.
     999901    1    3    3    0    0 -0.45167904883E-01 -0.11163261001E-01 -0.10702882283E+00  0.88770486477E+00  0.88000000000E+00 0.  1.
        -11    1    4    4    0    0  0.15716465630E-01  0.57264787596E-02  0.97735298609E-01  0.99157700488E-01  0.51100000000E-03 0. -1.
         11    1    4    4    0    0  0.13700553954E-01  0.83563880184E-02  0.28099741758E-01  0.32363420821E-01  0.51100000000E-03 0.  1.
</event>
<event>
 8    1  0.5489035E+004  0.1043930E+01  0.7957747E-01            NaN
         13   -1    0    0    0    0  0.00000000000E+00  0.00000000000E+00  0.74505805969E-08  0.10566000000E+00  0.10566000000E+00 0.  1.
     999900   -1    0    0    0    0 -0.00000000000E+00 -0.00000000000E+00 -0.74505805969E-08  0.93827000000E+00  0.93827000000E+00 0. -1.
     999902    2    1    2    0    0  0.70086965128E-02 -0.36537462991E-02  0.22287500632E-01  0.10202824975E+01  0.10200084168E+01 0.  0.
     999903    2    3    3    0    0 -0.12772467460E+00  0.49175616502E-02 -0.74502392931E-02  0.12949021995E+00  0.19350350997E-01 0.  0.
         14    1    1    2    0    0 -0.70086965128E-02  0.36537462991E-02 -0.22287500632E-01  0.23647502474E-01  0.00000000000E+00 0. -1.
     999901    1    3    3    0    0  0.13473337111E+00 -0.85713079493E-02  0.29737739926E-01  0.89079227757E+00  0.88000000000E+00 0.  1.
        -11    1    4    4    0    0 -0.54300408517E-01  0.58441947894E-02  0.56179368965E-02  0.54904565510E-01  0.51100000000E-03 0. -1.
         11    1    4    4    0    0 -0.73424266081E-01 -0.92663313921E-03 -0.13068176190E-01  0.74585654441E-01  0.51100000000E-03 0.  1.
</event>
<event>
 8    1  0.5489035E+004  0.1043930E+01  0.7957747E-01            NaN
         13   -1    0    0    0    0  0.00000000000E+00  0.00000000000E+00  0.74505805969E-08  0.10566000000E+00  0.10566000000E+00 0. -1.
     999900   -1    0    0    0    0 -0.00000000000E+00 -0.00000000000E+00 -0.74505805969E-08  0.93827000000E+00  0.93827000000E+00 0.  1.
     999902    2    1    2    0    0  0.19057660870E-01 -0.82157658669E-02 -0.11292438871E-01  0.10203034805E+01  0.10200298917E+01 0.  0.
     999903    2    3    3    0    0 -0.12043306831E+00 -0.14002604802E-01 -0.39217552796E-01  0.12886028940E+00  0.19151001358E-01 0.  0.
         14    1    1    2    0    0 -0.19057660870E-01  0.82157658669E-02  0.11292438871E-01  0.23626519470E-01  0.00000000000E+00 0. -1.
     999901    1    3    3    0    0  0.13949072918E+00  0.57868389354E-02  0.27925113925E-01  0.89144319113E+00  0.88000000000E+00 0.  1.
        -11    1    4    4    0    0 -0.81293947975E-01 -0.14487941272E-01 -0.34262807708E-01  0.89402502944E-01  0.51100000000E-03 0.  1.
         11    1    4    4    0    0 -0.39139120331E-01  0.48533646971E-03 -0.49547450883E-02  0.39457786452E-01  0.51100000000E-03 0. -1.
</event>
<event>
 8    1  0.5489035E+004  0.1043930E+01  0.7957747E-01            NaN
         13   -1    0    0    0    0  0.00000000000E+00  0.00000000000E+00  0.74505805969E-08  0.10566000000E+00  0.10566000000E+00 0.  1.
     999900   -1    0    0    0    0 -0.00000000000E+00 -0.00000000000E+00 -0.74505805969E-08  0.93827000000E+00  0.93827000000E+00 0. -1.
     999902    2    1    2    0    0 -0.20217375488E-01 -0.46421168595E-02 -0.11432127856E-01  0.10202448767E+01  0.10199699129E+01 0.  0.
     999903    2    3    3    0    0  0.40114320962E-01 -0.85148012907E-01 -0.88929678452E-01  0.13112903311E+00  0.20663803296E-01 0.  0.
         14    1    1    2    0    0  0.20217375488E-01  0.46421168595E-02  0.11432127856E-01  0.23685123345E-01  0.00000000000E+00 0.  1.
     999901    1    3    3    0    0 -0.60331696450E-01  0.80505896047E-01  0.77497550596E-01  0.88911584355E+00  0.88000000000E+00 0.  1.
        -11    1    4    4    0    0  0.24096994117E-01 -0.70580106631E-01 -0.71657426194E-01  0.10342758059E+00  0.51100000000E-03 0.  1.
         11    1    4    4    0    0  0.16017326845E-01 -0.14567906276E-01 -0.17272252258E-01  0.27701452518E-01  0.51100000000E-03 0. -1.
</event>
<event>
 8    1  0.5489035E+004  0.1043930E+01  0.7957747E-01            NaN
         13   -1    0    0    0    0  0.00000000000E+00  0.00000000000E+00  0.74505805969E-08  0.10566000000E+00  0.10566000000E+00 0.  1.
     999900   -1    0    0    0    0 -0.00000000000E+00 -0.00000000000E+00 -0.74505805969E-08  0.93827000000E+00  0.93827000000E+00 0. -1.
     999902    2    1    2    0    0  0.20759150400E-01 -0.60837363674E-02 -0.98150151789E-02  0.10201752384E+01  0.10198986364E+01 0.  0.
     999903    2    3    3    0    0  0.69572054795E-02  0.10872288503E-02 -0.13018323179E+00  0.13184510612E+00  0.19643660394E-01 0.  0.
         14    1    1    2    0    0 -0.20759150400E-01  0.60837363674E-02  0.98150151789E-02  0.23754761554E-01  0.00000000000E+00 0.  1.
     999901    1    3    3    0    0  0.13801944921E-01 -0.71709652176E-02  0.12036821661E+00  0.88833013232E+00  0.88000000000E+00 0.  1.
        -11    1    4    4    0    0  0.83380557101E-02 -0.56812220731E-02 -0.35518290050E-01  0.36927083642E-01  0.51100000000E-03 0.  1.
         11    1    4    4    0    0 -0.13808502306E-02  0.67684509234E-02 -0.94664941742E-01  0.94918022479E-01  0.51100000000E-03 0. -1.
</event>
<event>
 8    1  0.5489035E+004  0.1043930E+01  0.7957747E-01            NaN
         13   -1    0    0    0    0  0.00000000000E+00  0.00000000000E+00  0.74505805969E-08  0.10566000000E+00  0.10566000000E+00 0. -1.
     999900   -1    0    0    0    0 -0.00000000000E+00 -0.00000000000E+00 -0.74505805969E-08  0.93827000000E+00  0.93827000000E+00 0.  1.
     999902    2    1    2    0    0 -0.19930866509E-01  0.27822849456E-02 -0.15159781744E-01  0.10187347716E+01  0.10184231613E+01 0.  0.
     999903    2    3    3    0    0 -0.69154888481E-01 -0.86343669364E-01  0.63914131945E-01  0.12934221271E+00  0.20168388267E-01 0.  0.
         14    1    1    2    0    0  0.19930866509E-01 -0.27822849456E-02  0.15159781744E-01  0.25195228355E-01  0.00000000000E+00 0. -1.
     999901    1    3    3    0    0  0.49224021972E-01  0.89125954309E-01 -0.79073913689E-01  0.88939255894E+00  0.88000000000E+00 0.  1.
        -11    1    4    4    0    0 -0.44120068776E-01 -0.42191103387E-01  0.28004023898E-01  0.67165140880E-01  0.51100000000E-03 0.  1.
         11    1    4    4    0    0 -0.25034819705E-01 -0.44152565976E-01  0.35910108047E-01  0.62177071826E-01  0.51100000000E-03 0. -1.
</event>
<event>
 8    1  0.5489035E+004  0.1043930E+01  0.7957747E-01            NaN
         13   -1    0    0    0    0  0.00000000000E+00  0.00000000000E+00  0.74505805969E-08  0.10566000000E+00  0.10566000000E+00 0.  1.
     999900   -1    0    0    0    0 -0.00000000000E+00 -0.00000000000E+00 -0.74505805969E-08  0.93827000000E+00  0.93827000000E+00 0. -1.
     999902    2    1    2    0    0  0.59233454745E-02 -0.30574358877E-02 -0.23792619129E-01  0.10192212432E+01  0.10189216947E+01 0.  0.
     999903    2    3    3    0    0 -0.12573849846E-01  0.78525259208E-01  0.97311288506E-01  0.12699703441E+00  0.18287751210E-01 0.  0.
         14    1    1    2    0    0 -0.59233454745E-02  0.30574358877E-02  0.23792619129E-01  0.24708756764E-01  0.00000000000E+00 0.  1.
     999901    1    3    3    0    0  0.18497195320E-01 -0.81582695095E-01 -0.12110390763E+00  0.89222420883E+00  0.88000000000E+00 0. -1.
        -11    1    4    4    0    0 -0.14298320213E-01  0.63385274308E-01  0.87012233213E-01  0.10859799634E+00  0.51100000000E-03 0. -1.
         11    1    4    4    0    0  0.17244703671E-02  0.15139984900E-01  0.10299055293E-01  0.18399038066E-01  0.51100000000E-03 0.  1.
</event>
<event>
 8    1  0.5489035E+004  0.1043930E+01  0.7957747E-01            NaN
         13   -1    0    0    0    0  0.00000000000E+00  0.00000000000E+00  0.74505805969E-08  0.10566000000E+00  0.10566000000E+00 0. -1.
     999900   -1    0    0    0    0 -0.00000000000E+00 -0.00000000000E+00 -0.74505805969E-08  0.93827000000E+00  0.93827000000E+00 0. -1.
     999902    2    1    2    0    0 -0.41653087260E-02 -0.17471914960E-01  0.14771959364E-01  0.10206742826E+01  0.10204093114E+01 0.  0.
     999903    2    3    3    0    0  0.82492038524E-01  0.79186465011E-01  0.58428120333E-01  0.13007998738E+00  0.20773184909E-01 0.  0.
         14    1    1    2    0    0  0.41653087260E-02  0.17471914960E-01 -0.14771959364E-01  0.23255717417E-01  0.00000000000E+00 0. -1.
     999901    1    3    3    0    0 -0.86657347250E-01 -0.96658379971E-01 -0.43656160969E-01  0.89059429520E+00  0.88000000000E+00 0.  1.
        -11    1    4    4    0    0  0.36877769447E-02  0.11058986435E-01  0.92146289695E-02  0.14868469585E-01  0.51100000000E-03 0.  1.
         11    1    4    4    0    0  0.78804261580E-01  0.68127478576E-01  0.49213491363E-01  0.11521151780E+00  0.51100000000E-03 0. -1.
</event>
<event>
 8    1  0.5489035E+004  0.1043930E+01  0.7957747E-01            NaN
         13   -1    0    0    0    0  0.00000000000E+00  0.00000000000E+00  0.74505805969E-08  0.10566000000E+00  0.10566000000E+00 0.  1.
     999900   -1    0    0    0    0 -0.00000000000E+00 -0.00000000000E+00 -0.74505805969E-08  0.93827000000E+00  0.93827000000E+00 0. -1.
     999902    2    1    2    0    0 -0.19651369447E-02  0.16589795156E-01  0.16988482548E-01  0.10201037203E+01  0.10198254304E+01 0.  0.
     999903    2    3    3    0    0 -0.75563500884E-01 -0.97896531492E-01 -0.28170494938E-01  0.12849664795E+00  0.20597043598E-01 0.  0.
         14    1    1    2    0    0  0.19651369447E-02 -0.16589795156E-01 -0.16988482548E-01  0.23826279731E-01  0.00000000000E+00 0. -1.
     999901    1    3    3    0    0  0.73598363940E-01  0.11448632665E+00  0.45158977486E-01  0.89160707232E+00  0.88000000000E+00 0. -1.
        -11    1    4    4    0    0 -0.18952600931E-01 -0.37519394848E-01 -0.15294960975E-01  0.44733690033E-01  0.51100000000E-03 0. -1.
         11    1    4    4    0    0 -0.56610899953E-01 -0.60377136644E-01 -0.12875533962E-01  0.83762957915E-01  0.51100000000E-03 0.  1.
</event>
<event>
 8    1  0.5489035E+004  0.1043930E+01  0.7957747E-01            NaN
         13   -1    0    0    0    0  0.00000000000E+00  0.00000000000E+00  0.74505805969E-08  0.10566000000E+00  0.10566000000E+00 0. -1.
     999900   -1    0    0    0    0 -0.00000000000E+00 -0.00000000000E+00 -0.74505805969E-08  0.93827000000E+00  0.93827000000E+00 0.  1.
     999902    2    1    2    0    0  0.21315094189E-01  0.64799538906E-03  0.10819042945E-01  0.10200175591E+01  0.10197372289E+01 0.  0.
     999903    2    3    3    0    0  0.61109426075E-01  0.38192294154E-01 -0.10701629770E+00  0.13047929085E+00  0.19476757451E-01 0.  0.
         14    1    1    2    0    0 -0.21315094189E-01 -0.64799538906E-03 -0.10819042945E-01  0.23912440874E-01  0.00000000000E+00 0.  1.
     999901    1    3    3    0    0 -0.39794331885E-01 -0.37544298765E-01  0.11783534064E+00  0.88953826827E+00  0.88000000000E+00 0. -1.
        -11    1    4    4    0    0  0.11145748151E-01 -0.86676573134E-03 -0.17535225245E-01  0.20802024663E-01  0.51100000000E-03 0. -1.
         11    1    4    4    0    0  0.49963677923E-01  0.39059059885E-01 -0.89481072451E-01  0.10967726619E+00  0.51100000000E-03 0.  1.
</event>
<event>
 8    1  0.5489035E+004  0.1043930E+01  0.7957747E-01            NaN
         13   -1    0    0    0    0  0.00000000000E+00  0.00000000000E+00  0.74505805969E-08  0.10566000000E+00  0.10566000000E+00 0.  1.
     999900   -1    0    0    0    0 -0.00000000000E+00 -0.00000000000E+00 -0.74505805969E-08  0.93827000000E+00  0.93827000000E+00 0. -1.
     999902    2    1    2    0    0  0.22953631646E-01  0.47244321236E-02  0.86974070471E-03  0.10204790744E+01  0.10202095840E+01 0.  0.
     999903    2    3    3    0    0 -0.12322690412E+00 -0.25936616792E-01 -0.90976190779E-02  0.12783793861E+00  0.20054772148E-01 0.  0.
         14    1    1    2    0    0 -0.22953631646E-01 -0.47244321236E-02 -0.86974070471E-03  0.23450925644E-01  0.00000000000E+00 0. -1.
     999901    1    3    3    0    0  0.14618053577E+00  0.30661048916E-01  0.99673597826E-02  0.89264113574E+00  0.88000000000E+00 0.  1.
        -11    1    4    4    0    0 -0.23818867161E-01 -0.89814448433E-02 -0.89639646165E-02  0.26992935501E-01  0.51100000000E-03 0. -1.
         11    1    4    4    0    0 -0.99408036962E-01 -0.16955171949E-01 -0.13365446139E-03  0.10084500311E+00  0.51100000000E-03 0.  1.
</event>
<event>
 8    1  0.5489035E+004  0.1043930E+01  0.7957747E-01            NaN
         13   -1    0    0    0    0  0.00000000000E+00  0.00000000000E+00  0.74505805969E-08  0.10566000000E+00  0.10566000000E+00 0. -1.
     999900   -1    0    0    0    0 -0.00000000000E+00 -0.00000000000E+00 -0.74505805969E-08  0.93827000000E+00  0.93827000000E+00 0.  1.
     999902    2    1    2    0    0 -0.31062886104E-02 -0.25801436493E-01  0.80530064708E-02  0.10167231246E+01  0.10163590400E+01 0.  0.
     999903    2    3    3    0    0  0.29175612691E-01 -0.12546142747E+00  0.86415310271E-02  0.13050950405E+00  0.19138140709E-01 0.  0.
         14    1    1    2    0    0  0.31062886104E-02  0.25801436493E-01 -0.80530064708E-02  0.27206875367E-01  0.00000000000E+00 0.  1.
     999901    1    3    3    0    0 -0.32281901302E-01  0.99659990975E-01 -0.58852455623E-03  0.88621362059E+00  0.88000000000E+00 0. -1.
        -11    1    4    4    0    0  0.28131454632E-01 -0.97150023141E-01  0.94168459217E-03  0.10114669360E+00  0.51100000000E-03 0.  1.
         11    1    4    4    0    0  0.10441580597E-02 -0.28311404326E-01  0.76998464349E-02  0.29362810443E-01  0.51100000000E-03 0. -1.
</event>
<event>
 8    1  0.5489035E+004  0.1043930E+01  0.7957747E-01            NaN
         13   -1    0    0    0    0  0.00000000000E+00  0.00000000000E+00  0.74505805969E-08  0.10566000000E+00  0.10566000000E+00 0.  1.
     999900   -1    0    0    0    0 -0.00000000000E+00 -0.00000000000E+00 -0.74505805969E-08  0.93827000000E+00  0.93827000000E+00 0.  1.
     999902    2    1    2    0    0  0.13399843487E-01 -0.17764621731E-01 -0.18823238719E-02  0.10215988394E+01  0.10213547415E+01 0.  0.
     999903    2    3    3    0    0  0.93760804303E-01  0.85674923878E-01 -0.28226712701E-01  0.13151364660E+00  0.19178397384E-01 0.  0.
         14    1    1    2    0    0 -0.13399843487E-01  0.17764621731E-01  0.18823238719E-02  0.22331160603E-01  0.00000000000E+00 0.  1.
     999901    1    3    3    0    0 -0.80360960816E-01 -0.10343954561E+00  0.26344388829E-01  0.89008519280E+00  0.88000000000E+00 0.  1.
        -11    1    4    4    0    0  0.60746269529E-01  0.56558986856E-01 -0.90423438110E-02  0.83492834174E-01  0.51100000000E-03 0. -1.
         11    1    4    4    0    0  0.33014534775E-01  0.29115937022E-01 -0.19184368890E-01  0.48020812423E-01  0.51100000000E-03 0.  1.
</event>
<event>
 8    1  0.5489035E+004  0.1043930E+01  0.7957747E-01            NaN
         13   -1    0    0    0    0  0.00000000000E+00  0.00000000000E+00  0.74505805969E-08  0.10566000000E+00  0.10566000000E+00 0. -1.
     999900   -1    0    0    0    0 -0.00000000000E+00 -0.00000000000E+00 -0.74505805969E-08  0.93827000000E+00  0.93827000000E+00 0.  1.
     999902    2    1    2    0    0  0.58422119991E-02 -0.65314337618E-02  0.21662004844E-01  0.10205626398E+01  0.10202950888E+01 0.  0.
     999903    2    3    3    0    0  0.88610126535E-01  0.37771721434E-01  0.89518159975E-01  0.13297165573E+00  0.19735825264E-01 0.  0.
         14    1    1    2    0    0 -0.58422119991E-02  0.65314337618E-02 -0.21662004844E-01  0.23367360183E-01  0.00000000000E+00 0.  1.
     999901    1    3    3    0    0 -0.82767914535E-01 -0.44303155195E-01 -0.67856155131E-01  0.88759098408E+00  0.88000000000E+00 0.  1.
        -11    1    4    4    0    0  0.60894613284E-01  0.23459538570E-01  0.47865137276E-01  0.80931059331E-01  0.51100000000E-03 0.  1.
         11    1    4    4    0    0  0.27715513250E-01  0.14312182864E-01  0.41653022699E-01  0.52040596403E-01  0.51100000000E-03 0. -1.
</event>
<event>
 8    1  0.5489035E+004  0.1043930E+01  0.7957747E-01            NaN
         13   -1    0    0    0    0  0.00000000000E+00  0.00000000000E+00  0.74505805969E-08  0.10566000000E+00  0.10566000000E+00 0.  1.
     999900   -1    0    0    0    0 -0.00000000000E+00 -0.00000000000E+00 -0.74505805969E-08  0.93827000000E+00  0.93827000000E+00 0.  1.
     999902    2    1    2    0    0 -0.26457247979E-01 -0.36234162260E-02 -0.12415296128E-01  0.10144808117E+01  0.10140532839E+01 0.  0.
     999903    2    3    3    0    0  0.16662964460E-01 -0.95162433080E-01  0.75656877750E-01  0.12431484279E+00  0.19916674742E-01 0.  0.
         14    1    1    2    0    0  0.26457247979E-01  0.36234162260E-02  0.12415296128E-01  0.29449188337E-01  0.00000000000E+00 0.  1.
     999901    1    3    3    0    0 -0.43120212439E-01  0.91539016854E-01 -0.88072173878E-01  0.89016596887E+00  0.88000000000E+00 0.  1.
        -11    1    4    4    0    0  0.59860629867E-02 -0.42192471611E-01  0.45864057817E-01  0.62608390262E-01  0.51100000000E-03 0.  1.
         11    1    4    4    0    0  0.10676901474E-01 -0.52969961469E-01  0.29792819933E-01  0.61706452529E-01  0.51100000000E-03 0. -1.
</event>
<event>
 7    1  0.5489035E+004  0.1043930E+01  0.7957747E-01            NaN
         13   -1    0    0    0    0  0.00000000000E+00  0.00000000000E+00  0.74505805969E-08  0.10566000000E+00  0.10566000000E+00 0.  1.
     999900   -1    0    0    0    0 -0.00000000000E+00 -0.00000000000E+00 -0.74505805969E-08  0.93827000000E+00  0.93827000000E+00 0.  1.
     999903    2    1    2    0    0 -0.17018416442E-01  0.29656633472E-01  0.60932134732E-01  0.72698874542E-01  0.20081307468E-01 0.  0.
         14    1    1    2    0    0 -0.55913313510E-01 -0.51781979057E-01  0.32821341743E-01  0.82975372590E-01  0.00000000000E+00 0. -1.
     999901    1    1    2    0    0  0.72931729952E-01  0.22125345585E-01 -0.93753476476E-01  0.88825575287E+00  0.88000000000E+00 0.  1.
        -11    1    3    3    0    0 -0.97163555071E-02  0.24200628663E-01  0.26923662908E-01  0.37486300663E-01  0.51100000000E-03 0. -1.
         11    1    3    3    0    0 -0.73020609348E-02  0.54560048087E-02  0.34008471825E-01  0.35212573879E-01  0.51100000000E-03 0.  1.
</event>
<event>
 8    1  0.5489035E+004  0.1043930E+01  0.7957747E-01            NaN
         13   -1    0    0    0    0  0.00000000000E+00  0.00000000000E+00  0.74505805969E-08  0.10566000000E+00  0.10566000000E+00 0.  1.
     999900   -1    0    0    0    0 -0.00000000000E+00 -0.00000000000E+00 -0.74505805969E-08  0.93827000000E+00  0.93827000000E+00 0. -1.
     999902    2    1    2    0    0 -0.24082882139E-01 -0.21578688163E-01  0.13164406238E-01  0.10090168709E+01  0.10084126730E+01 0.  0.
     999903    2    3    3    0    0 -0.95785063453E-01 -0.18700934764E-01 -0.71185730932E-01  0.12207581875E+00  0.17623674243E-01 0.  0.
         14    1    1    2    0    0  0.24082882139E-01  0.21578688163E-01 -0.13164406238E-01  0.34913129143E-01  0.00000000000E+00 0. -1.
     999901    1    3    3    0    0  0.71702181315E-01 -0.28777533990E-02  0.84350137170E-01  0.88694105211E+00  0.88000000000E+00 0. -1.
        -11    1    4    4    0    0 -0.49076522772E-01 -0.51210229233E-02 -0.45233385904E-01  0.66940647476E-01  0.51100000000E-03 0.  1.
         11    1    4    4    0    0 -0.46708540682E-01 -0.13579911840E-01 -0.25952345028E-01  0.55135171276E-01  0.51100000000E-03 0. -1.
</event>
<event>
 8    1  0.5489035E+004  0.1043930E+01  0.7957747E-01            NaN
         13   -1    0    0    0    0  0.00000000000E+00  0.00000000000E+00  0.74505805969E-08  0.10566000000E+00  0.10566000000E+00 0. -1.
     999900   -1    0    0    0    0 -0.00000000000E+00 -0.00000000000E+00 -0.74505805969E-08  0.93827000000E+00  0.93827000000E+00 0. -1.
     999902    2    1    2    0    0  0.21914970877E-01  0.36109955084E-02 -0.82309742372E-02  0.10202434178E+01  0.10199684198E+01 0.  0.
     999903    2    3    3    0    0  0.27930168998E-01 -0.12397811122E+00 -0.24722780956E-01  0.13086883847E+00  0.19098968051E-01 0.  0.
         14    1    1    2    0    0 -0.21914970877E-01 -0.36109955084E-02  0.82309742372E-02  0.23686582151E-01  0.00000000000E+00 0. -1.
     999901    1    3    3    0    0 -0.60151981207E-02  0.12758910673E+00  0.16491806719E-01  0.88937457938E+00  0.88000000000E+00 0.  1.
        -11    1    4    4    0    0  0.23268480703E-01 -0.61618027840E-01 -0.15377621793E-01  0.67638272613E-01  0.51100000000E-03 0.  1.
         11    1    4    4    0    0  0.46616882952E-02 -0.62360083382E-01 -0.93451591633E-02  0.63230565852E-01  0.51100000000E-03 0. -1.
</event>
<event>
 8    1  0.5489035E+004  0.1043930E+01  0.7957747E-01            NaN
         13   -1    0    0    0    0  0.00000000000E+00  0.00000000000E+00  0.74505805969E-08  0.10566000000E+00  0.10566000000E+00 0. -1.
     999900   -1    0    0    0    0 -0.00000000000E+00 -0.00000000000E+00 -0.74505805969E-08  0.93827000000E+00  0.93827000000E+00 0. -1.
     999902    2    1    2    0    0  0.12650414976E-01 -0.16843909303E-01 -0.10894453482E-01  0.10202141952E+01  0.10199385103E+01 0.  0.
     999903    2    3    3    0    0 -0.12593224308E+00 -0.12074934994E-01 -0.17993814533E-01  0.12932795268E+00  0.19930079765E-01 0.  0.
         14    1    1    2    0    0 -0.12650414976E-01  0.16843909303E-01  0.10894453482E-01  0.23715804779E-01  0.00000000000E+00 0. -1.
     999901    1    3    3    0    0  0.13858265806E+00 -0.47689743095E-02  0.70993610517E-02  0.89088624255E+00  0.88000000000E+00 0. -1.
        -11    1    4    4    0    0 -0.95127072793E-01 -0.96827469051E-03 -0.10326590720E-01  0.95692199948E-01  0.51100000000E-03 0.  1.
         11    1    4    4    0    0 -0.30805170287E-01 -0.11106660303E-01 -0.76672238136E-02  0.33635752727E-01  0.51100000000E-03 0. -1.
</event>
<event>
 8    1  0.5489035E+004  0.1043930E+01  0.7957747E-01            NaN
         13   -1    0    0    0    0  0.00000000000E+00  0.00000000000E+00  0.74505805969E-08  0.10566000000E+00  0.10566000000E+00 0. -1.
     999900   -1    0    0    0    0 -0.00000000000E+00 -0.00000000000E+00 -0.74505805969E-08  0.93827000000E+00  0.93827000000E+00 0. -1.
     999902    2    1    2    0    0 -0.85857846114E-02  0.21469588344E-01 -0.50315373237E-02  0.10202662030E+01  0.10199917400E+01 0.  0.
     999903    2    3    3    0    0  0.72871611161E-01 -0.61162442121E-01 -0.84978464709E-01  0.12905642354E+00  0.19573067060E-01 0.  0.
         14    1    1    2    0    0  0.85857846114E-02 -0.21469588344E-01  0.50315373237E-02  0.23663797009E-01  0.00000000000E+00 0.  1.
     999901    1    3    3    0    0 -0.81457395772E-01  0.82632030465E-01  0.79946927385E-01  0.89120977945E+00  0.88000000000E+00 0.  1.
        -11    1    4    4    0    0  0.54527615823E-01 -0.44471019815E-01 -0.50629667948E-01  0.86686543871E-01  0.51100000000E-03 0.  1.
         11    1    4    4    0    0  0.18343995338E-01 -0.16691422307E-01 -0.34348796761E-01  0.42369879673E-01  0.51100000000E-03 0. -1.
</event>
<event>
 8    1  0.5489035E+004  0.1043930E+01  0.7957747E-01            NaN
         13   -1    0    0    0    0  0.00000000000E+00  0.00000000000E+00  0.74505805969E-08  0.10566000000E+00  0.10566000000E+00 0. -1.
     999900   -1    0    0    0    0 -0.00000000000E+00 -0.00000000000E+00 -0.74505805969E-08  0.93827000000E+00  0.93827000000E+00 0.  1.
     999902    2    1    2    0    0  0.18418283310E-01  0.11285336177E-01 -0.44926529066E-02  0.10218670015E+01  0.10216287941E+01 0.  0.
     999903    2    3    3    0    0  0.27090787380E-01 -0.71163513768E-02  0.12724144279E+00  0.13182896501E+00  0.20098209702E-01 0.  0.
         14    1    1    2    0    0 -0.18418283310E-01 -0.11285336177E-01  0.44926529066E-02  0.22062998501E-01  0.00000000000E+00 0.  1.
     999901    1    3    3    0    0 -0.86725040704E-02  0.18401687554E-01 -0.13173409570E+00  0.89003803649E+00  0.88000000000E+00 0.  1.
        -11    1    4    4    0    0  0.22068693573E-01 -0.12407217856E-01  0.76970142559E-01  0.81028576795E-01  0.51100000000E-03 0. -1.
         11    1    4    4    0    0  0.50220938075E-02  0.52908664796E-02  0.50271300234E-01  0.50800388212E-01  0.51100000000E-03 0.  1.
</event>
<event>
 8    1  0.5489035E+004  0.1043930E+01  0.7957747E-01            NaN
         13   -1    0    0    0    0  0.00000000000E+00  0.00000000000E+00  0.74505805969E-08  0.10566000000E+00  0.10566000000E+00 0.  1.
     999900   -1    0    0    0    0 -0.00000000000E+00 -0.00000000000E+00 -0.74505805969E-08  0.93827000000E+00  0.93827000000E+00 0.  1.
     999902    2    1    2    0    0 -0.85607589001E-02  0.62356192596E-03  0.17477556900E-01  0.10244584716E+01  0.10242734106E+01 0.  0.
     999903    2    3    3    0    0  0.83159087874E-01  0.41141424275E-01 -0.91466854033E-01  0.13208909062E+00  0.21755270336E-01 0.  0.
         14    1    1    2    0    0  0.85607589001E-02 -0.62356192596E-03 -0.17477556900E-01  0.19471528384E-01  0.00000000000E+00 0.  1.
     999901    1    3    3    0    0 -0.91719846774E-01 -0.40517862349E-01  0.10894441093E+00  0.89236938099E+00  0.88000000000E+00 0.  1.
        -11    1    4    4    0    0  0.22568768825E-01  0.51745796317E-02 -0.34126243289E-01  0.41243026110E-01  0.51100000000E-03 0. -1.
         11    1    4    4    0    0  0.60590319049E-01  0.35966844643E-01 -0.57340610744E-01  0.90846064513E-01  0.51100000000E-03 0.  1.
</event>
<event>
 8    1  0.5489035E+004  0.1043930E+01  0.7957747E-01            NaN
         13   -1    0    0    0    0  0.00000000000E+00  0.00000000000E+00  0.74505805969E-08  0.10566000000E+00  0.10566000000E+00 0.  1.
     999900   -1    0    0    0    0 -0.00000000000E+00 -0.00000000000E+00 -0.74505805969E-08  0.93827000000E+00  0.93827000000E+00 0.  1.
     999902    2    1    2    0    0 -0.59376806462E-02  0.15383209498E-01  0.17059892726E-01  0.10202036618E+01  0.10199277290E+01 0.  0.
     999903    2    3    3    0    0  0.43380829078E-01 -0.55382807802E-01 -0.10463179419E+00  0.12765169619E+00  0.19949723095E-01 0.  0.
         14    1    1    2    0    0  0.59376806462E-02 -0.15383209498E-01 -0.17059892726E-01  0.23726338229E-01  0.00000000000E+00 0. -1.
     999901    1    3    3    0    0 -0.49318509724E-01  0.70766017300E-01  0.12169168692E+00  0.89255196559E+00  0.88000000000E+00 0. -1.
        -11    1    4    4    0    0  0.20216159360E-01 -0.39149828224E-01 -0.72496880093E-01  0.84837850594E-01  0.51100000000E-03 0. -1.
         11    1    4    4    0    0  0.23164669718E-01 -0.16232979578E-01 -0.32134914099E-01  0.42813845591E-01  0.51100000000E-03 0.  1.
</event>
<event>
 8    1  0.5489035E+004  0.1043930E+01  0.7957747E-01            NaN
         13   -1    0    0    0    0  0.00000000000E+00  0.00000000000E+00  0.74505805969E-08  0.10566000000E+00  0.10566000000E+00 0. -1.
     999900   -1    0    0    0    0 -0.00000000000E+00 -0.00000000000E+00 -0.74505805969E-08  0.93827000000E+00  0.93827000000E+00 0. -1.
     999902    2    1    2    0    0  0.19919825554E-01 -0.11736531804E-01  0.20290810052E-02  0.10207208897E+01  0.10204569917E+01 0.  0.
     999903    2    3    3    0    0 -0.10498499550E+00 -0.67826778634E-01 -0.27847484094E-01  0.12963170271E+00  0.20163699989E-01 0.  0.
         14    1    1    2    0    0 -0.19919825554E-01  0.11736531804E-01 -0.20290810052E-02  0.23209110250E-01  0.00000000000E+00 0. -1.
     999901    1    3    3    0    0  0.12490482106E+00  0.56090246831E-01  0.29876565099E-01  0.89108918704E+00  0.88000000000E+00 0.  1.
        -11    1    4    4    0    0 -0.29139556294E-01 -0.29741779388E-01 -0.11501762150E-01  0.43199986524E-01  0.51100000000E-03 0.  1.
         11    1    4    4    0    0 -0.75845439209E-01 -0.38084999246E-01 -0.16345721944E-01  0.86431716188E-01  0.51100000000E-03 0. -1.
</event>
<event>
 8    1  0.5489035E+004  0.1043930E+01  0.7957747E-01            NaN
         13   -1    0    0    0    0  0.00000000000E+00  0.00000000000E+00  0.74505805969E-08  0.10566000000E+00  0.10566000000E+00 0. -1.
     999900   -1    0    0    0    0 -0.00000000000E+00 -0.00000000000E+00 -0.74505805969E-08  0.93827000000E+00  0.93827000000E+00 0. -1.
     999902    2    1    2    0    0  0.97106730529E-02 -0.11448249228E-01  0.19302169379E-01  0.10194773248E+01  0.10191840278E+01 0.  0.
     999903    2    3    3    0    0  0.63014871452E-01 -0.11095834716E+00  0.28032692910E-01  0.13222323538E+00  0.20359844653E-01 0.  0.
         14    1    1    2    0    0 -0.97106730529E-02  0.11448249228E-01 -0.19302169379E-01  0.24452675197E-01  0.00000000000E+00 0.  1.
     999901    1    3    3    0    0 -0.53304198399E-01  0.99510097930E-01 -0.87305235302E-02  0.88725408942E+00  0.88000000000E+00 0. -1.
        -11    1    4    4    0    0  0.90158559658E-02 -0.34145273396E-01  0.72924888379E-02  0.36064204809E-01  0.51100000000E-03 0.  1.
         11    1    4    4    0    0  0.53999015486E-01 -0.76813073763E-01  0.20740204072E-01  0.96159030571E-01  0.51100000000E-03 0. -1.
</event>
<event>
 8    1  0.5489035E+004  0.1043930E+01  0.7957747E-01            NaN
         13   -1    0    0    0    0  0.00000000000E+00  0.00000000000E+00  0.74505805969E-08  0.10566000000E+00  0.10566000000E+00 0.  1.
     999900   -1    0    0    0    0 -0.00000000000E+00 -0.00000000000E+00 -0.74505805969E-08  0.93827000000E+00  0.93827000000E+00 0.  1.
     999902    2    1    2    0    0 -0.21776685879E-01 -0.12877529622E-01  0.12967748636E-01  0.10155008368E+01  0.10151028185E+01 0.  0.
     999903    2    3    3    0    0 -0.26726723879E-01  0.11642102668E+00  0.34116457536E-01  0.12578746303E+00  0.19758035254E-01 0.  0.
         14    1    1    2    0    0  0.21776685879E-01  0.12877529622E-01 -0.12967748636E-01  0.28429163226E-01  0.00000000000E+00 0. -1.
     999901    1    3    3    0    0  0.49500380000E-02 -0.12929855630E+00 -0.21148708900E-01  0.88971337375E+00  0.88000000000E+00 0. -1.
        -11    1    4    4    0    0 -0.19191696840E-01  0.68257955327E-01  0.10719561733E-01  0.71712201318E-01  0.51100000000E-03 0. -1.
         11    1    4    4    0    0 -0.75350270393E-02  0.48163071353E-01  0.23396895802E-01  0.54075261709E-01  0.51100000000E-03 0.  1.
</event>
<event>
 8    1  0.5489035E+004  0.1043930E+01  0.7957747E-01            NaN
         13   -1    0    0    0    0  0.00000000000E+00  0.00000000000E+00  0.74505805969E-08  0.10566000000E+00  0.10566000000E+00 0.  1.
     999900   -1    0    0    0    0 -0.00000000000E+00 -0.00000000000E+00 -0.74505805969E-08  0.93827000000E+00  0.93827000000E+00 0. -1.
     999902    2    1    2    0    0  0.10176761397E-01  0.18271099852E-01 -0.11839132081E-01  0.10198974260E+01  0.10196142384E+01 0.  0.
     999903    2    3    3    0    0  0.37380879210E-01 -0.35752216487E-01  0.11614067557E+00  0.12858523949E+00  0.19234244988E-01 0.  0.
         14    1    1    2    0    0 -0.10176761397E-01 -0.18271099852E-01  0.11839132081E-01  0.24032573952E-01  0.00000000000E+00 0.  1.
     999901    1    3    3    0    0 -0.27204117813E-01  0.54023316338E-01 -0.12797980765E+00  0.89131218655E+00  0.88000000000E+00 0. -1.
        -11    1    4    4    0    0  0.34341012046E-01 -0.24521230158E-01  0.10116552612E+00  0.10961441800E+00  0.51100000000E-03 0. -1.
         11    1    4    4    0    0  0.30398671639E-02 -0.11230986329E-01  0.14975149450E-01  0.18970821498E-01  0.51100000000E-03 0.  1.
</event>
<event>
 8    1  0.5489035E+004  0.1043930E+01  0.7957747E-01            NaN
         13   -1    0    0    0    0  0.00000000000E+00  0.00000000000E+00  0.74505805969E-08  0.10566000000E+00  0.10566000000E+00 0. -1.
     999900   -1    0    0    0    0 -0.00000000000E+00 -0.00000000000E+00 -0.74505805969E-08  0.93827000000E+00  0.93827000000E+00 0. -1.
     999902    2    1    2    0    0 -0.19522364775E-01 -0.16122690141E-01  0.75760658021E-02  0.10175015941E+01  0.10171583129E+01 0.  0.
     999903    2    3    3    0    0 -0.35173052340E-02  0.34989367141E-02  0.12733941283E+00  0.12902850536E+00  0.20209283594E-01 0.  0.
         14    1    1    2    0    0  0.19522364775E-01  0.16122690141E-01 -0.75760658021E-02  0.26428405870E-01  0.00000000000E+00 0. -1.
     999901    1    3    3    0    0 -0.16005059541E-01 -0.19621626855E-01 -0.11976334702E+00  0.88847308877E+00  0.88000000000E+00 0. -1.
        -11    1    4    4    0    0 -0.31992684265E-02 -0.73041585773E-02  0.83178942427E-01  0.83561855145E-01  0.51100000000E-03 0. -1.
         11    1    4    4    0    0 -0.31803680749E-03  0.10803095291E-01  0.44160470399E-01  0.45466650219E-01  0.51100000000E-03 0.  1.
</event>
<event>
 8    1  0.5489035E+004  0.1043930E+01  0.7957747E-01            NaN
         13   -1    0    0    0    0  0.00000000000E+00  0.00000000000E+00  0.74505805969E-08  0.10566000000E+00  0.10566000000E+00 0. -1.
     999900   -1    0    0    0    0 -0.00000000000E+00 -0.00000000000E+00 -0.74505805969E-08  0.93827000000E+00  0.93827000000E+00 0. -1.
     999902    2    1    2    0    0  0.27528046303E-02 -0.15394322911E-01  0.19308868041E-01  0.10190825555E+01  0.10187795932E+01 0.  0.
     999903    2    3    3    0    0  0.25973452692E-01  0.11995405899E+00  0.32012797005E-01  0.12834141874E+00  0.19573044716E-01 0.  0.
         14    1    1    2    0    0 -0.27528046303E-02  0.15394322911E-01 -0.19308868041E-01  0.24847444461E-01  0.00000000000E+00 0.  1.
     999901    1    3    3    0    0 -0.23220648062E-01 -0.13534838190E+00 -0.12703928964E-01  0.89074113680E+00  0.88000000000E+00 0. -1.
        -11    1    4    4    0    0  0.20160938549E-01  0.69301228529E-01  0.27183600839E-01  0.77125436753E-01  0.51100000000E-03 0.  1.
         11    1    4    4    0    0  0.58125141425E-02  0.50652830458E-01  0.48291961662E-02  0.51215981985E-01  0.51100000000E-03 0. -1.
</event>
<event>
 8    1  0.5489035E+004  0.1043930E+01  0.7957747E-01            NaN
         13   -1    0    0    0    0  0.00000000000E+00  0.00000000000E+00  0.74505805969E-08  0.10566000000E+00  0.10566000000E+00 0. -1.
     999900   -1    0    0    0    0 -0.00000000000E+00 -0.00000000000E+00 -0.74505805969E-08  0.93827000000E+00  0.93827000000E+00 0. -1.
     999902    2    1    2    0    0  0.21488319684E-02 -0.22432502575E-01 -0.59228009995E-02  0.10206294802E+01  0.10203634753E+01 0.  0.
     999903    2    3    3    0    0  0.38805664040E-01 -0.10955619411E+00 -0.62233712295E-01  0.13377820762E+00  0.22696578171E-01 0.  0.
         14    1    1    2    0    0 -0.21488319684E-02  0.22432502575E-01  0.59228009995E-02  0.23300519786E-01  0.00000000000E+00 0. -1.
     999901    1    3    3    0    0 -0.36656832071E-01  0.87123691531E-01  0.56310911295E-01  0.88685127259E+00  0.88000000000E+00 0.  1.
        -11    1    4    4    0    0  0.33194916280E-01 -0.76657380588E-01 -0.34497094112E-01  0.90380125518E-01  0.51100000000E-03 0. -1.
         11    1    4    4    0    0  0.56107477597E-02 -0.32898813518E-01 -0.27736618183E-01  0.43398082107E-01  0.51100000000E-03 0.  1.
</event>
<event>
 8    1  0.5489035E+004  0.1043930E+01  0.7957747E-01            NaN
         13   -1    0    0    0    0  0.00000000000E+00  0.00000000000E+00  0.74505805969E-08  0.10566000000E+00  0.10566000000E+00 0.  1.
     999900   -1    0    0    0    0 -0.00000000000E+00 -0.00000000000E+00 -0.74505805969E-08  0.93827000000E+00  0.93827000000E+00 0. -1.
     999902    2    1    2    0    0  0.26332498237E-02  0.14550395134E-01  0.18964266308E-01  0.10198823099E+01  0.10195987616E+01 0.  0.
     999903    2    3    3    0    0  0.57515471053E-01  0.76103149754E-02  0.11733236722E+00  0.13267517162E+00  0.21676495575E-01 0.  0.
         14    1    1    2    0    0 -0.26332498237E-02 -0.14550395134E-01 -0.18964266308E-01  0.24047690113E-01  0.00000000000E+00 0. -1.
     999901    1    3    3    0    0 -0.54882221230E-01  0.69400801584E-02 -0.98368100917E-01  0.88720713827E+00  0.88000000000E+00 0. -1.
        -11    1    4    4    0    0  0.21270093797E-01  0.92699437333E-02  0.28747624503E-01  0.36946390657E-01  0.51100000000E-03 0. -1.
         11    1    4    4    0    0  0.36245377256E-01 -0.16596287578E-02  0.88584742722E-01  0.95728780960E-01  0.51100000000E-03 0.  1.
</event>
<event>
 8    1  0.5489035E+004  0.1043930E+01  0.7957747E-01            NaN
         13   -1    0    0    0    0  0.00000000000E+00  0.00000000000E+00  0.74505805969E-08  0.10566000000E+00  0.10566000000E+00 0. -1.
     999900   -1    0    0    0    0 -0.00000000000E+00 -0.00000000000E+00 -0.74505805969E-08  0.93827000000E+00  0.93827000000E+00 0. -1.
     999902    2    1    2    0    0 -0.92530045545E-02 -0.21211580587E-01 -0.56603093682E-02  0.10201058873E+01  0.10198276486E+01 0.  0.
     999903    2    3    3    0    0 -0.12235474851E+00  0.27056691668E-01 -0.33339685732E-01  0.13112445977E+00  0.19476659316E-01 0.  0.
         14    1    1    2    0    0  0.92530045545E-02  0.21211580587E-01  0.56603093682E-02  0.23824112710E-01  0.00000000000E+00 0. -1.
     999901    1    3    3    0    0  0.11310174396E+00 -0.48268272256E-01  0.27679376363E-01  0.88898142752E+00  0.88000000000E+00 0. -1.
        -11    1    4    4    0    0 -0.19956856608E-01  0.11149037426E-01 -0.24802876938E-02  0.22999784982E-01  0.51100000000E-03 0. -1.
         11    1    4    4    0    0 -0.10239789191E+00  0.15907654242E-01 -0.30859398038E-01  0.10812467479E+00  0.51100000000E-03 0.  1.
</event>
<event>
 8    1  0.5489035E+004  0.1043930E+01  0.7957747E-01            NaN
         13   -1    0    0    0    0  0.00000000000E+00  0.00000000000E+00  0.74505805969E-08  0.10566000000E+00  0.10566000000E+00 0. -1.
     999900   -1    0    0    0    0 -0.00000000000E+00 -0.00000000000E+00 -0.74505805969E-08  0.93827000000E+00  0.93827000000E+00 0.  1.
     999902    2    1    2    0    0  0.22934665910E-01  0.15650899266E-01 -0.87173759662E-03  0.10161503406E+01  0.10157705476E+01 0.  0.
     999903    2    3    3    0    0 -0.12175445013E+00  0.91400599482E-02 -0.11698555453E-01  0.12424532814E+00  0.19808042376E-01 0.  0.
         14    1    1    2    0    0 -0.22934665910E-01 -0.15650899266E-01  0.87173759662E-03  0.27779659370E-01  0.00000000000E+00 0. -1.
     999901    1    3    3    0    0  0.14468911604E+00  0.65108393177E-02  0.10826817857E-01  0.89190501249E+00  0.88000000000E+00 0. -1.
        -11    1    4    4    0    0 -0.81004022135E-01 -0.29629097526E-02 -0.10277673115E-01  0.81708764046E-01  0.51100000000E-03 0. -1.
         11    1    4    4    0    0 -0.40750427990E-01  0.12102969701E-01 -0.14208823385E-02  0.42536564090E-01  0.51100000000E-03 0.  1.
</event>
<event>
 8    1  0.5489035E+004  0.1043930E+01  0.7957747E-01            NaN
         13   -1    0    0    0    0  0.00000000000E+00  0.00000000000E+00  0.74505805969E-08  0.10566000000E+00  0.10566000000E+00 0. -1.
     999900   -1    0    0    0    0 -0.00000000000E+00 -0.00000000000E+00 -0.74505805969E-08  0.93827000000E+00  0.93827000000E+00 0. -1.
     999902    2    1    2    0    0  0.35216593476E-02  0.21846605334E-01  0.71333578393E-02  0.10206800313E+01  0.10204151926E+01 0.  0.
     999903    2    3    3    0    0  0.10287029765E+00 -0.47045552683E-01 -0.60683005926E-01  0.12982912317E+00  0.19431722763E-01 0.  0.
         14    1    1    2    0    0 -0.35216593476E-02 -0.21846605334E-01 -0.71333578393E-02  0.23249968672E-01  0.00000000000E+00 0. -1.
     999901    1    3    3    0    0 -0.99348638302E-01  0.68892158017E-01  0.67816363765E-01  0.89085090816E+00  0.88000000000E+00 0.  1.
        -11    1    4    4    0    0  0.34316310172E-01 -0.93151720115E-02 -0.11373422681E-01  0.37336275094E-01  0.51100000000E-03 0. -1.
         11    1    4    4    0    0  0.68553987478E-01 -0.37730380671E-01 -0.49309583245E-01  0.92492848078E-01  0.51100000000E-03 0.  1.
</event>
<event>
 8    1  0.5489035E+004  0.1043930E+01  0.7957747E-01            NaN
         13   -1    0    0    0    0  0.00000000000E+00  0.00000000000E+00  0.74505805969E-08  0.10566000000E+00  0.10566000000E+00 0.  1.
     999900   -1    0    0    0    0 -0.00000000000E+00 -0.00000000000E+00 -0.74505805969E-08  0.93827000000E+00  0.93827000000E+00 0. -1.
     999902    2    1    2    0    0  0.25471619552E-02  0.75690821440E-02  0.23178769238E-01  0.10194139974E+01  0.10191191607E+01 0.  0.
     999903    2    3    3    0    0  0.81400761574E-01 -0.79045076187E-01  0.62770567497E-01  0.13077041698E+00  0.16927780649E-01 0.  0.
         14    1    1    2    0    0 -0.25471619552E-02 -0.75690821440E-02 -0.23178769238E-01  0.24516002568E-01  0.00000000000E+00 0. -1.
     999901    1    3    3    0    0 -0.78853599619E-01  0.86614158332E-01 -0.39591798259E-01  0.88864358046E+00  0.88000000000E+00 0. -1.
        -11    1    4    4    0    0  0.68881056369E-01 -0.74116081121E-01  0.53872055137E-01  0.11463094195E+00  0.51100000000E-03 0. -1.
         11    1    4    4    0    0  0.12519705205E-01 -0.49289950660E-02  0.88985123599E-02  0.16139475023E-01  0.51100000000E-03 0.  1.
</event>
<event>
 8    1  0.5489035E+004  0.1043930E+01  0.7957747E-01            NaN
         13   -1    0    0    0    0  0.00000000000E+00  0.00000000000E+00  0.74505805969E-08  0.10566000000E+00  0.10566000000E+00 0.  1.
     999900   -1    0    0    0    0 -0.00000000000E+00 -0.00000000000E+00 -0.74505805969E-08  0.93827000000E+00  0.93827000000E+00 0. -1.
     999902    2    1    2    0    0 -0.17187510461E-01  0.16993597225E-01  0.39482396216E-02  0.10194395639E+01  0.10191453493E+01 0.  0.
     999903    2    3    3    0    0 -0.42593657260E-01  0.12329642292E+00  0.12750285986E-01  0.13263449005E+00  0.20325122738E-01 0.  0.
         14    1    1    2    0    0  0.17187510461E-01 -0.16993597225E-01 -0.39482396216E-02  0.24490436064E-01  0.00000000000E+00 0. -1.
     999901    1    3    3    0    0  0.25406146799E-01 -0.10630282570E+00 -0.88020463646E-02  0.88680507388E+00  0.88000000000E+00 0. -1.
        -11    1    4    4    0    0 -0.16265980186E-01  0.71414380021E-01  0.86191611994E-03  0.73250254645E-01  0.51100000000E-03 0.  1.
         11    1    4    4    0    0 -0.26327677074E-01  0.51882042901E-01  0.11888369866E-01  0.59384235406E-01  0.51100000000E-03 0. -1.
</event>
<event>
 8    1  0.5489035E+004  0.1043930E+01  0.7957747E-01            NaN
         13   -1    0    0    0    0  0.00000000000E+00  0.00000000000E+00  0.74505805969E-08  0.10566000000E+00  0.10566000000E+00 0. -1.
     999900   -1    0    0    0    0 -0.00000000000E+00 -0.00000000000E+00 -0.74505805969E-08  0.93827000000E+00  0.93827000000E+00 0. -1.
     999902    2    1    2    0    0  0.21819957458E-01  0.68864886052E-02 -0.67934074263E-02  0.10200619324E+01  0.10197826539E+01 0.  0.
     999903    2    3    3    0    0  0.62711475740E-02 -0.82641327706E-01  0.97418394109E-01  0.12926616734E+00  0.18721169074E-01 0.  0.
         14    1    1    2    0    0 -0.21819957458E-01 -0.68864886052E-02  0.67934074263E-02  0.23868067648E-01  0.00000000000E+00 0.  1.
     999901    1    3    3    0    0  0.15548809884E-01  0.89527816311E-01 -0.10421180153E+00  0.89079576501E+00  0.88000000000E+00 0. -1.
        -11    1    4    4    0    0 -0.42475334165E-02 -0.55645607636E-02  0.10370731532E-01  0.12522742117E-01  0.51100000000E-03 0. -1.
         11    1    4    4    0    0  0.10518680991E-01 -0.77076766942E-01  0.87047662577E-01  0.11674342522E+00  0.51100000000E-03 0.  1.
</event>
<event>
 8    1  0.5489035E+004  0.1043930E+01  0.7957747E-01            NaN
         13   -1    0    0    0    0  0.00000000000E+00  0.00000000000E+00  0.74505805969E-08  0.10566000000E+00  0.10566000000E+00 0. -1.
     999900   -1    0    0    0    0 -0.00000000000E+00 -0.00000000000E+00 -0.74505805969E-08  0.93827000000E+00  0.93827000000E+00 0. -1.
     999902    2    1    2    0    0 -0.15827663881E-01 -0.98807517511E-02 -0.15443671192E-01  0.10197091169E+01  0.10194214202E+01 0.  0.
     999903    2    3    3    0    0 -0.10069776022E-01 -0.12335052579E+00 -0.41413011892E-01  0.13202507988E+00  0.19970767656E-01 0.  0.
         14    1    1    2    0    0  0.15827663881E-01  0.98807517511E-02  0.15443671192E-01  0.24220883117E-01  0.00000000000E+00 0. -1.
     999901    1    3    3    0    0 -0.57578878588E-02  0.11346977404E+00  0.25969340701E-01  0.88768403700E+00  0.88000000000E+00 0.  1.
        -11    1    4    4    0    0 -0.15241064040E-01 -0.67362539063E-01 -0.20693824118E-01  0.72100604572E-01  0.51100000000E-03 0. -1.
         11    1    4    4    0    0  0.51712880182E-02 -0.55987986730E-01 -0.20719187774E-01  0.59924475308E-01  0.51100000000E-03 0.  1.
</event>
<event>
 8    1  0.5489035E+004  0.1043930E+01  0.7957747E-01            NaN
         13   -1    0    0    0    0  0.00000000000E+00  0.00000000000E+00  0.74505805969E-08  0.10566000000E+00  0.10566000000E+00 0.  1.
     999900   -1    0    0    0    0 -0.00000000000E+00 -0.00000000000E+00 -0.74505805969E-08  0.93827000000E+00  0.93827000000E+00 0.  1.
     999902    2    1    2    0    0 -0.35828801763E-02  0.18922599341E-01  0.10534306410E-01  0.10219783848E+01  0.10217426025E+01 0.  0.
     999903    2    3    3    0    0  0.51057266778E-01  0.60153344227E-01  0.10655851393E+00  0.13411230913E+00  0.20152549658E-01 0.  0.
         14    1    1    2    0    0  0.35828801763E-02 -0.18922599341E-01 -0.10534306410E-01  0.21951615151E-01  0.00000000000E+00 0.  1.
     999901    1    3    3    0    0 -0.54640146954E-01 -0.41230744886E-01 -0.96024207516E-01  0.88786607572E+00  0.88000000000E+00 0.  1.
        -11    1    4    4    0    0  0.17535132830E-01  0.13204941144E-01  0.42964248301E-01  0.48249757586E-01  0.51100000000E-03 0.  1.
         11    1    4    4    0    0  0.33522133947E-01  0.46948403083E-01  0.63594265625E-01  0.85862551545E-01  0.51100000000E-03 0. -1.
</event>
<event>
 8    1  0.5489035E+004  0.1043930E+01  0.7957747E-01            NaN
         13   -1    0    0    0    0  0.00000000000E+00  0.00000000000E+00  0.74505805969E-08  0.10566000000E+00  0.10566000000E+00 0. -1.
     999900   -1    0    0    0    0 -0.00000000000E+00 -0.00000000000E+00 -0.74505805969E-08  0.93827000000E+00  0.93827000000E+00 0. -1.
     999902    2    1    2    0    0  0.20918132520E-01  0.68811890109E-02 -0.85859137496E-02  0.10202944982E+01  0.10200206989E+01 0.  0.
     999903    2    3    3    0    0 -0.72652097817E-01 -0.86400006885E-02 -0.10554155204E+00  0.12990318472E+00  0.19566329815E-01 0.  0.
         14    1    1    2    0    0 -0.20918132520E-01 -0.68811890109E-02  0.85859137496E-02  0.23635501798E-01  0.00000000000E+00 0.  1.
     999901    1    3    3    0    0  0.93570230337E-01  0.15521189699E-01  0.96955638294E-01  0.89039131349E+00  0.88000000000E+00 0.  1.
        -11    1    4    4    0    0 -0.72214648485E-02  0.41837108618E-02 -0.18117703275E-01  0.19954079385E-01  0.51100000000E-03 0. -1.
         11    1    4    4    0    0 -0.65430632968E-01 -0.12823711550E-01 -0.87423848768E-01  0.10994910533E+00  0.51100000000E-03 0.  1.
</event>
<event>
 8    1  0.5489035E+004  0.1043930E+01  0.7957747E-01            NaN
         13   -1    0    0    0    0  0.00000000000E+00  0.00000000000E+00  0.74505805969E-08  0.10566000000E+00  0.10566000000E+00 0.  1.
     999900   -1    0    0    0    0 -0.00000000000E+00 -0.00000000000E+00 -0.74505805969E-08  0.93827000000E+00  0.93827000000E+00 0. -1.
     999902    2    1    2    0    0 -0.13917055312E-02 -0.41429195023E-02 -0.20284736037E-01  0.10231797918E+01  0.10229693618E+01 0.  0.
     999903    2    3    3    0    0  0.14496983117E-01  0.10522315265E+00  0.74432174438E-01  0.13122425402E+00  0.19939455304E-01 0.  0.
         14    1    1    2    0    0  0.13917055312E-02  0.41429195023E-02  0.20284736037E-01  0.20750208249E-01  0.00000000000E+00 0.  1.
     999901    1    3    3    0    0 -0.15888688648E-01 -0.10936607215E+00 -0.94716910476E-01  0.89195553773E+00  0.88000000000E+00 0.  1.
        -11    1    4    4    0    0  0.86289354787E-02  0.43546699341E-01  0.42766141067E-01  0.61643957480E-01  0.51100000000E-03 0.  1.
         11    1    4    4    0    0  0.58680476383E-02  0.61676453308E-01  0.31666033371E-01  0.69580296537E-01  0.51100000000E-03 0. -1.
</event>
<event>
 8    1  0.5489035E+004  0.1043930E+01  0.7957747E-01            NaN
         13   -1    0    0    0    0  0.00000000000E+00  0.00000000000E+00  0.74505805969E-08  0.10566000000E+00  0.10566000000E+00 0. -1.
     999900   -1    0    0    0    0 -0.00000000000E+00 -0.00000000000E+00 -0.74505805969E-08  0.93827000000E+00  0.93827000000E+00 0.  1.
     999902    2    1    2    0    0 -0.67946874782E-02 -0.14948832898E-01 -0.17871348431E-01  0.10196602559E+01  0.10193713833E+01 0.  0.
     999903    2    3    3    0    0 -0.72112003413E-01  0.10467273584E+00 -0.11025746335E-01  0.12914212936E+00  0.19989993218E-01 0.  0.
         14    1    1    2    0    0  0.67946874782E-02  0.14948832898E-01  0.17871348431E-01  0.24269744080E-01  0.00000000000E+00 0. -1.
     999901    1    3    3    0    0  0.65317315935E-01 -0.11962156874E+00 -0.68456020962E-02  0.89051812656E+00  0.88000000000E+00 0.  1.
        -11    1    4    4    0    0 -0.29973027900E-01  0.53013979761E-01 -0.13685891836E-01  0.62421384220E-01  0.51100000000E-03 0. -1.
         11    1    4    4    0    0 -0.42138975513E-01  0.51658756077E-01  0.26601455004E-02  0.66720745138E-01  0.51100000000E-03 0.  1.
</event>
<event>
 8    1  0.5489035E+004  0.1043930E+01  0.7957747E-01            NaN
         13   -1    0    0    0    0  0.00000000000E+00  0.00000000000E+00  0.74505805969E-08  0.10566000000E+00  0.10566000000E+00 0. -1.
     999900   -1    0    0    0    0 -0.00000000000E+00 -0.00000000000E+00 -0.74505805969E-08  0.93827000000E+00  0.93827000000E+00 0. -1.
     999902    2    1    2    0    0 -0.82693782085E-02 -0.13439211238E-01  0.17196375767E-01  0.10205909693E+01  0.10203240741E+01 0.  0.
     999903    2    3    3    0    0 -0.12641770020E+00  0.29259377962E-01 -0.52832224231E-02  0.13138484705E+00  0.19912796722E-01 0.  0.
         14    1    1    2    0    0  0.82693782085E-02  0.13439211238E-01 -0.17196375767E-01  0.23339030703E-01  0.00000000000E+00 0.  1.
     999901    1    3    3    0    0  0.11814832199E+00 -0.42698589199E-01  0.22479598190E-01  0.88920612225E+00  0.88000000000E+00 0. -1.
        -11    1    4    4    0    0 -0.30965100013E-02 -0.16603275085E-02 -0.22615953347E-02  0.42096313474E-02  0.51100000000E-03 0. -1.
         11    1    4    4    0    0 -0.12332119020E+00  0.30919705470E-01 -0.30216270884E-02  0.12717521570E+00  0.51100000000E-03 0.  1.
</event>
<event>
 8    1  0.5489035E+004  0.1043930E+01  0.7957747E-01            NaN
         13   -1    0    0    0    0  0.00000000000E+00  0.00000000000E+00  0.74505805969E-08  0.10566000000E+00  0.10566000000E+00 0.  1.
     999900   -1    0    0    0    0 -0.00000000000E+00 -0.00000000000E+00 -0.74505805969E-08  0.93827000000E+00  0.93827000000E+00 0. -1.
     999902    2    1    2    0    0 -0.19130830874E-01  0.11475499568E-01  0.16226227626E-02  0.10215624189E+01  0.10213175153E+01 0.  0.
     999903    2    3    3    0    0 -0.76714362205E-01 -0.26474805219E-01 -0.10306705165E+00  0.13267771509E+00  0.19863289424E-01 0.  0.
         14    1    1    2    0    0  0.19130830874E-01 -0.11475499568E-01 -0.16226227626E-02  0.22367581114E-01  0.00000000000E+00 0. -1.
     999901    1    3    3    0    0  0.57583531331E-01  0.37950304787E-01  0.10468967441E+00  0.88888470380E+00  0.88000000000E+00 0.  1.
        -11    1    4    4    0    0 -0.40454854025E-01 -0.12089668213E-01 -0.68946999110E-01  0.80849892387E-01  0.51100000000E-03 0.  1.
         11    1    4    4    0    0 -0.36259508180E-01 -0.14385137007E-01 -0.34120052535E-01  0.51827822703E-01  0.51100000000E-03 0. -1.
</event>
<event>
 8    1  0.5489035E+004  0.1043930E+01  0.7957747E-01            NaN
         13   -1    0    0    0    0  0.00000000000E+00  0.00000000000E+00  0.74505805969E-08  0.10566000000E+00  0.10566000000E+00 0. -1.
     999900   -1    0    0    0    0 -0.00000000000E+00 -0.00000000000E+00 -0.74505805969E-08  0.93827000000E+00  0.93827000000E+00 0. -1.
     999902    2    1    2    0    0  0.62176583546E-02 -0.53466348941E-02  0.21934689805E-01  0.10205125621E+01  0.10202438498E+01 0.  0.
     999903    2    3    3    0    0 -0.22337845197E-02 -0.12863605919E+00 -0.15941452910E-01  0.13107098944E+00  0.19319648879E-01 0.  0.
         14    1    1    2    0    0 -0.62176583546E-02  0.53466348941E-02 -0.21934689805E-01  0.23417437881E-01  0.00000000000E+00 0.  1.
     999901    1    3    3    0    0  0.84514428743E-02  0.12328942430E+00  0.37876142714E-01  0.88944157268E+00  0.88000000000E+00 0. -1.
        -11    1    4    4    0    0 -0.90270596935E-02 -0.95322942448E-01 -0.15939557669E-01  0.97068438657E-01  0.51100000000E-03 0.  1.
         11    1    4    4    0    0  0.67932751738E-02 -0.33313116745E-01 -0.18952405500E-05  0.34002550778E-01  0.51100000000E-03 0. -1.
</event>
<event>
 8    1  0.5489035E+004  0.1043930E+01  0.7957747E-01            NaN
         13   -1    0    0    0    0  0.00000000000E+00  0.00000000000E+00  0.74505805969E-08  0.10566000000E+00  0.10566000000E+00 0. -1.
     999900   -1    0    0    0    0 -0.00000000000E+00 -0.00000000000E+00 -0.74505805969E-08  0.93827000000E+00  0.93827000000E+00 0. -1.
     999902    2    1    2    0    0  0.15973887731E-01 -0.17743392642E-01 -0.27509678870E-02  0.10198975033E+01  0.10196143175E+01 0.  0.
     999903    2    3    3    0    0  0.73631544890E-02 -0.86918092156E-01 -0.97035230999E-01  0.13212005034E+00  0.20758151600E-01 0.  0.
         14    1    1    2    0    0 -0.15973887731E-01  0.17743392642E-01  0.27509678870E-02  0.24032496666E-01  0.00000000000E+00 0.  1.
     999901    1    3    3    0    0  0.86107332422E-02  0.69174699514E-01  0.94284263112E-01  0.88777745300E+00  0.88000000000E+00 0.  1.
        -11    1    4    4    0    0  0.53941381364E-03 -0.54236588594E-01 -0.73149774747E-01  0.91066180200E-01  0.51100000000E-03 0. -1.
         11    1    4    4    0    0  0.68237406754E-02 -0.32681503561E-01 -0.23885456252E-01  0.41053870137E-01  0.51100000000E-03 0.  1.
</event>
<event>
 8    1  0.5489035E+004  0.1043930E+01  0.7957747E-01            NaN
         13   -1    0    0    0    0  0.00000000000E+00  0.00000000000E+00  0.74505805969E-08  0.10566000000E+00  0.10566000000E+00 0. -1.
     999900   -1    0    0    0    0 -0.00000000000E+00 -0.00000000000E+00 -0.74505805969E-08  0.93827000000E+00  0.93827000000E+00 0.  1.
     999902    2    1    2    0    0 -0.46942356285E-02  0.19688669094E-01 -0.12982888437E-01  0.10198834840E+01  0.10195999637E+01 0.  0.
     999903    2    3    3    0    0 -0.22331528408E-01 -0.90637758327E-01 -0.87844496245E-01  0.12966595161E+00  0.19562798625E-01 0.  0.
         14    1    1    2    0    0  0.46942356285E-02 -0.19688669094E-01  0.12982888437E-01  0.24046515984E-01  0.00000000000E+00 0. -1.
     999901    1    3    3    0    0  0.17637292779E-01  0.11032642742E+00  0.74861607808E-01  0.89021753241E+00  0.88000000000E+00 0. -1.
        -11    1    4    4    0    0 -0.92337118989E-02 -0.57549285738E-01 -0.65328529731E-01  0.87551468533E-01  0.51100000000E-03 0.  1.
         11    1    4    4    0    0 -0.13097816509E-01 -0.33088472589E-01 -0.22515966514E-01  0.42114483074E-01  0.51100000000E-03 0. -1.
</event>
<event>
 8    1  0.5489035E+004  0.1043930E+01  0.7957747E-01            NaN
         13   -1    0    0    0    0  0.00000000000E+00  0.00000000000E+00  0.74505805969E-08  0.10566000000E+00  0.10566000000E+00 0. -1.
     999900   -1    0    0    0    0 -0.00000000000E+00 -0.00000000000E+00 -0.74505805969E-08  0.93827000000E+00  0.93827000000E+00 0. -1.
     999902    2    1    2    0    0  0.50461680312E-02 -0.91818410595E-02 -0.12276697903E-01  0.10277903802E+01  0.10276636503E+01 0.  0.
     999903    2    3    3    0    0 -0.56384808146E-01 -0.43957378520E-01 -0.11717705085E+00  0.13875315547E+00  0.20260286087E-01 0.  0.
         14    1    1    2    0    0 -0.50461680312E-02  0.91818410595E-02  0.12276697903E-01  0.16139619835E-01  0.00000000000E+00 0. -1.
     999901    1    3    3    0    0  0.61430976177E-01  0.34775537461E-01  0.10490035294E+00  0.88903722469E+00  0.88000000000E+00 0.  1.
        -11    1    4    4    0    0 -0.34918429009E-01 -0.37013702584E-01 -0.90361878748E-01  0.10370555007E+00  0.51100000000E-03 0. -1.
         11    1    4    4    0    0 -0.21466379137E-01 -0.69436759363E-02 -0.26815172099E-01  0.35047605403E-01  0.51100000000E-03 0.  1.
</event>
<event>
 8    1  0.5489035E+004  0.1043930E+01  0.7957747E-01            NaN
         13   -1    0    0    0    0  0.00000000000E+00  0.00000000000E+00  0.74505805969E-08  0.10566000000E+00  0.10566000000E+00 0.  1.
     999900   -1    0    0    0    0 -0.00000000000E+00 -0.00000000000E+00 -0.74505805969E-08  0.93827000000E+00  0.93827000000E+00 0. -1.
     999902    2    1    2    0    0 -0.19383927033E-01 -0.12995780007E-01  0.75196609667E-02  0.10194111863E+01  0.10191162811E+01 0.  0.
     999903    2    3    3    0    0 -0.37782810448E-02 -0.87218871711E-01  0.96432747835E-01  0.13168479794E+00  0.20498882037E-01 0.  0.
         14    1    1    2    0    0  0.19383927033E-01  0.12995780007E-01 -0.75196609667E-02  0.24518813721E-01  0.00000000000E+00 0. -1.
     999901    1    3    3    0    0 -0.15605645988E-01  0.74223091704E-01 -0.88913086868E-01  0.88772638833E+00  0.88000000000E+00 0. -1.
        -11    1    4    4    0    0  0.52655429499E-02 -0.36663890125E-01  0.51533871816E-01  0.63466273303E-01  0.51100000000E-03 0.  1.
         11    1    4    4    0    0 -0.90438239947E-02 -0.50554981585E-01  0.44898876019E-01  0.68218524642E-01  0.51100000000E-03 0. -1.
</event>
<event>
 8    1  0.5489035E+004  0.1043930E+01  0.7957747E-01            NaN
         13   -1    0    0    0    0  0.00000000000E+00  0.00000000000E+00  0.74505805969E-08  0.10566000000E+00  0.10566000000E+00 0.  1.
     999900   -1    0    0    0    0 -0.00000000000E+00 -0.00000000000E+00 -0.74505805969E-08  0.93827000000E+00  0.93827000000E+00 0.  1.
     999902    2    1    2    0    0  0.15337831848E-01 -0.17415454635E-01  0.19791727410E-01  0.10134298423E+01  0.10129707724E+01 0.  0.
     999903    2    3    3    0    0  0.45397560967E-01 -0.11652426929E+00  0.13509203642E-01  0.12733412819E+00  0.19815088784E-01 0.  0.
         14    1    1    2    0    0 -0.15337831848E-01  0.17415454635E-01 -0.19791727410E-01  0.30500157702E-01  0.00000000000E+00 0. -1.
     999901    1    3    3    0    0 -0.30059729119E-01  0.99108814655E-01  0.62825237682E-02  0.88609571411E+00  0.88000000000E+00 0.  1.
        -11    1    4    4    0    0  0.17919416807E-01 -0.68827384276E-01  0.12891117274E-01  0.72282476096E-01  0.51100000000E-03 0. -1.
         11    1    4    4    0    0  0.27478144160E-01 -0.47696885014E-01  0.61808636795E-03  0.55051652094E-01  0.51100000000E-03 0.  1.
</event>
<event>
 8    1  0.5489035E+004  0.1043930E+01  0.7957747E-01            NaN
         13   -1    0    0    0    0  0.00000000000E+00  0.00000000000E+00  0.74505805969E-08  0.10566000000E+00  0.10566000000E+00 0.  1.
     999900   -1    0    0    0    0 -0.00000000000E+00 -0.00000000000E+00 -0.74505805969E-08  0.93827000000E+00  0.93827000000E+00 0. -1.
     999902    2    1    2    0    0 -0.24454635168E-01  0.26184688211E-02  0.13087819391E-01  0.10160700543E+01  0.10156880321E+01 0.  0.
     999903    2    3    3    0    0 -0.57995141290E-01 -0.11039151634E+00  0.21462800154E-01  0.12817008095E+00  0.20425341339E-01 0.  0.
         14    1    1    2    0    0  0.24454635168E-01 -0.26184688211E-02 -0.13087819391E-01  0.27859945739E-01  0.00000000000E+00 0.  1.
     999901    1    3    3    0    0  0.33540506122E-01  0.11300998516E+00 -0.83749807626E-02  0.88789997331E+00  0.88000000000E+00 0.  1.
        -11    1    4    4    0    0 -0.19367808959E-01 -0.37001659325E-01 -0.24988535058E-02  0.41841847552E-01  0.51100000000E-03 0. -1.
         11    1    4    4    0    0 -0.38627332331E-01 -0.73389857012E-01  0.23961653659E-01  0.86328233402E-01  0.51100000000E-03 0.  1.
</event>
<event>
 8    1  0.5489035E+004  0.1043930E+01  0.7957747E-01            NaN
         13   -1    0    0    0    0  0.00000000000E+00  0.00000000000E+00  0.74505805969E-08  0.10566000000E+00  0.10566000000E+00 0.  1.
     999900   -1    0    0    0    0 -0.00000000000E+00 -0.00000000000E+00 -0.74505805969E-08  0.93827000000E+00  0.93827000000E+00 0.  1.
     999902    2    1    2    0    0  0.13700719761E-01  0.15003761225E-01  0.71776727989E-02  0.10223814140E+01  0.10221543005E+01 0.  0.
     999903    2    3    3    0    0 -0.11073409368E+00 -0.62822148747E-01 -0.16991877926E-01  0.12989888628E+00  0.19399352159E-01 0.  0.
         14    1    1    2    0    0 -0.13700719761E-01 -0.15003761225E-01 -0.71776727989E-02  0.21548586025E-01  0.00000000000E+00 0. -1.
     999901    1    3    3    0    0  0.12443481344E+00  0.77825909972E-01  0.24169550725E-01  0.89248252770E+00  0.88000000000E+00 0. -1.
        -11    1    4    4    0    0 -0.60251225841E-02 -0.11104791862E-02  0.28001581749E-02  0.67555364687E-02  0.51100000000E-03 0.  1.
         11    1    4    4    0    0 -0.10470897110E+00 -0.61711669561E-01 -0.19792036101E-01  0.12314334981E+00  0.51100000000E-03 0. -1.
</event>
<event>
 8    1  0.5489035E+004  0.1043930E+01  0.7957747E-01            NaN
         13   -1    0    0    0    0  0.00000000000E+00  0.00000000000E+00  0.74505805969E-08  0.10566000000E+00  0.10566000000E+00 0.  1.
     999900   -1    0    0    0    0 -0.00000000000E+00 -0.00000000000E+00 -0.74505805969E-08  0.93827000000E+00  0.93827000000E+00 0. -1.
     999902    2    1    2    0    0 -0.23339216408E-02  0.21187453800E-01 -0.10497539395E-01  0.10201696607E+01  0.10198929272E+01 0.  0.
     999903    2    3    3    0    0 -0.52203958320E-02  0.46883869666E-01  0.11968745720E+00  0.13021641990E+00  0.20146434780E-01 0.  0.
         14    1    1    2    0    0  0.23339216408E-02 -0.21187453800E-01  0.10497539395E-01  0.23760339268E-01  0.00000000000E+00 0.  1.
     999901    1    3    3    0    0  0.28864741912E-02 -0.25696415865E-01 -0.13018499659E+00  0.88995324083E+00  0.88000000000E+00 0. -1.
        -11    1    4    4    0    0 -0.11147001488E-01  0.14502087680E-01  0.39464160083E-01  0.43499968291E-01  0.51100000000E-03 0. -1.
         11    1    4    4    0    0  0.59266056561E-02  0.32381781985E-01  0.80223297116E-01  0.86716451613E-01  0.51100000000E-03 0.  1.
</event>
<event>
 8    1  0.5489035E+004  0.1043930E+01  0.7957747E-01            NaN
         13   -1    0    0    0    0  0.00000000000E+00  0.00000000000E+00  0.74505805969E-08  0.10566000000E+00  0.10566000000E+00 0. -1.
     999900   -1    0    0    0    0 -0.00000000000E+00 -0.00000000000E+00 -0.74505805969E-08  0.93827000000E+00  0.93827000000E+00 0.  1.
     999902    2    1    2    0    0  0.87301313918E-02  0.19932971045E-01  0.97237515945E-02  0.10200953640E+01  0.10198168766E+01 0.  0.
     999903    2    3    3    0    0  0.10644184598E+00  0.95431871472E-03  0.75557314820E-01  0.13204028323E+00  0.19873380999E-01 0.  0.
         14    1    1    2    0    0 -0.87301313918E-02 -0.19932971045E-01 -0.97237515945E-02  0.23834636013E-01  0.00000000000E+00 0. -1.
     999901    1    3    3    0    0 -0.97711714590E-01  0.18978652330E-01 -0.65833563226E-01  0.88805508076E+00  0.88000000000E+00 0.  1.
        -11    1    4    4    0    0  0.77258885267E-01 -0.72373856684E-02  0.59133371632E-01  0.97561938611E-01  0.51100000000E-03 0. -1.
         11    1    4    4    0    0  0.29182960715E-01  0.81917043831E-02  0.16423943188E-01  0.34478344619E-01  0.51100000000E-03 0.  1.
</event>
<event>
 8    1  0.5489035E+004  0.1043930E+01  0.7957747E-01            NaN
         13   -1    0    0    0    0  0.00000000000E+00  0.00000000000E+00  0.74505805969E-08  0.10566000000E+00  0.10566000000E+00 0.  1.
     999900   -1    0    0    0    0 -0.00000000000E+00 -0.00000000000E+00 -0.74505805969E-08  0.93827000000E+00  0.93827000000E+00 0.  1.
     999902    2    1    2    0    0  0.23099716797E-01  0.70314114902E-02  0.30633137789E-02  0.10195902885E+01  0.10192997277E+01 0.  0.
     999903    2    3    3    0    0 -0.12234669452E-02 -0.79566277185E-01 -0.99917650255E-01  0.12903099465E+00  0.18252983603E-01 0.  0.
         14    1    1    2    0    0 -0.23099716797E-01 -0.70314114902E-02 -0.30633137789E-02  0.24339711481E-01  0.00000000000E+00 0. -1.
     999901    1    3    3    0    0  0.24323183742E-01  0.86597688675E-01  0.10298096403E+00  0.89055929387E+00  0.88000000000E+00 0. -1.
        -11    1    4    4    0    0  0.18591404000E-02 -0.10962833009E-01 -0.25191566498E-01  0.27541173799E-01  0.51100000000E-03 0.  1.
         11    1    4    4    0    0 -0.30826073452E-02 -0.68603444177E-01 -0.74726083757E-01  0.10148982085E+00  0.51100000000E-03 0. -1.
</event>
<event>
 8    1  0.5489035E+004  0.1043930E+01  0.7957747E-01            NaN
         13   -1    0    0    0    0  0.00000000000E+00  0.00000000000E+00  0.74505805969E-08  0.10566000000E+00  0.10566000000E+00 0. -1.
     999900   -1    0    0    0    0 -0.00000000000E+00 -0.00000000000E+00 -0.74505805969E-08  0.93827000000E+00  0.93827000000E+00 0. -1.
     999902    2    1    2    0    0  0.11205772109E-01 -0.18853792858E-01  0.84656629432E-02  0.10204203789E+01  0.10201495221E+01 0.  0.
     999903    2    3    3    0    0  0.81896290423E-01  0.44534052239E-01 -0.88344789305E-01  0.13003426496E+00  0.20342666319E-01 0.  0.
         14    1    1    2    0    0 -0.11205772109E-01  0.18853792858E-01 -0.84656629432E-02  0.23509621068E-01  0.00000000000E+00 0. -1.
     999901    1    3    3    0    0 -0.70690518315E-01 -0.63387845097E-01  0.96810452248E-01  0.89038611397E+00  0.88000000000E+00 0.  1.
        -11    1    4    4    0    0  0.35106702969E-01  0.94703827901E-02 -0.27048224949E-01  0.45321477661E-01  0.51100000000E-03 0.  1.
         11    1    4    4    0    0  0.46789587455E-01  0.35063669449E-01 -0.61296564357E-01  0.84712787301E-01  0.51100000000E-03 0. -1.
</event>
<event>
 8    1  0.5489035E+004  0.1043930E+01  0.7957747E-01            NaN
         13   -1    0    0    0    0  0.00000000000E+00  0.00000000000E+00  0.74505805969E-08  0.10566000000E+00  0.10566000000E+00 0. -1.
     999900   -1    0    0    0    0 -0.00000000000E+00 -0.00000000000E+00 -0.74505805969E-08  0.93827000000E+00  0.93827000000E+00 0. -1.
     999902    2    1    2    0    0  0.21910373800E-01  0.88476614148E-03 -0.11026666529E-01  0.10193854555E+01  0.10190899235E+01 0.  0.
     999903    2    3    3    0    0  0.57349638014E-01 -0.96563802193E-01 -0.65493279225E-01  0.13162491523E+00  0.20547501340E-01 0.  0.
         14    1    1    2    0    0 -0.21910373800E-01 -0.88476614148E-03  0.11026666529E-01  0.24544544524E-01  0.00000000000E+00 0.  1.
     999901    1    3    3    0    0 -0.35439264214E-01  0.97448568335E-01  0.54466612696E-01  0.88776054025E+00  0.88000000000E+00 0.  1.
        -11    1    4    4    0    0  0.33672145269E-01 -0.37563318034E-01 -0.32327258732E-01  0.59917685260E-01  0.51100000000E-03 0.  1.
         11    1    4    4    0    0  0.23677492745E-01 -0.59000484159E-01 -0.33166020492E-01  0.71707229970E-01  0.51100000000E-03 0. -1.
</event>
<event>
 8    1  0.5489035E+004  0.1043930E+01  0.7957747E-01            NaN
         13   -1    0    0    0    0  0.00000000000E+00  0.00000000000E+00  0.74505805969E-08  0.10566000000E+00  0.10566000000E+00 0.  1.
     999900   -1    0    0    0    0 -0.00000000000E+00 -0.00000000000E+00 -0.74505805969E-08  0.93827000000E+00  0.93827000000E+00 0. -1.
     999902    2    1    2    0    0 -0.13201949464E-01 -0.20103428637E-01  0.24907995043E-03  0.10198779449E+01  0.10195942924E+01 0.  0.
     999903    2    3    3    0    0  0.12237204553E-01 -0.89984692072E-01 -0.93413432893E-01  0.13178830539E+00  0.19876971843E-01 0.  0.
         14    1    1    2    0    0  0.13201949464E-01  0.20103428637E-01 -0.24907995043E-03  0.24052055078E-01  0.00000000000E+00 0.  1.
     999901    1    3    3    0    0 -0.25439154017E-01  0.69881263435E-01  0.93662512843E-01  0.88808963953E+00  0.88000000000E+00 0. -1.
        -11    1    4    4    0    0  0.66055440011E-02 -0.18376504074E-01 -0.10827264551E-01  0.22334276174E-01  0.51100000000E-03 0. -1.
         11    1    4    4    0    0  0.56316605516E-02 -0.71608187998E-01 -0.82586168341E-01  0.10945402921E+00  0.51100000000E-03 0.  1.
</event>
<event>
 8    1  0.5489035E+004  0.1043930E+01  0.7957747E-01            NaN
         13   -1    0    0    0    0  0.00000000000E+00  0.00000000000E+00  0.74505805969E-08  0.10566000000E+00  0.10566000000E+00 0. -1.
     999900   -1    0    0    0    0 -0.00000000000E+00 -0.00000000000E+00 -0.74505805969E-08  0.93827000000E+00  0.93827000000E+00 0. -1.
     999902    2    1    2    0    0 -0.71062314990E-02  0.14542429442E-01  0.16581523933E-01  0.10207582992E+01  0.10204952610E+01 0.  0.
     999903    2    3    3    0    0  0.86382459906E-01 -0.91236519225E-01  0.24958442378E-01  0.12946738480E+00  0.18784250345E-01 0.  0.
         14    1    1    2    0    0  0.71062314990E-02 -0.14542429442E-01 -0.16581523933E-01  0.23171700761E-01  0.00000000000E+00 0.  1.
     999901    1    3    3    0    0 -0.93488691405E-01  0.10577894867E+00 -0.83769184453E-02  0.89129091444E+00  0.88000000000E+00 0. -1.
        -11    1    4    4    0    0  0.22531247183E-01 -0.29842756862E-01  0.15138844083E-01  0.40344676947E-01  0.51100000000E-03 0. -1.
         11    1    4    4    0    0  0.63851212722E-01 -0.61393762363E-01  0.98195982950E-02  0.89122707852E-01  0.51100000000E-03 0.  1.
</event>
<event>
 8    1  0.5489035E+004  0.1043930E+01  0.7957747E-01            NaN
         13   -1    0    0    0    0  0.00000000000E+00  0.00000000000E+00  0.74505805969E-08  0.10566000000E+00  0.10566000000E+00 0. -1.
     999900   -1    0    0    0    0 -0.00000000000E+00 -0.00000000000E+00 -0.74505805969E-08  0.93827000000E+00  0.93827000000E+00 0. -1.
     999902    2    1    2    0    0 -0.10284983051E-02 -0.16709651993E-01  0.16129942349E-01  0.10206825202E+01  0.10204177388E+01 0.  0.
     999903    2    3    3    0    0  0.10228201908E+00 -0.43589404398E-01  0.69689475598E-01  0.13261483823E+00  0.19194392614E-01 0.  0.
         14    1    1    2    0    0  0.10284983051E-02  0.16709651993E-01 -0.16129942349E-01  0.23247479835E-01  0.00000000000E+00 0.  1.
     999901    1    3    3    0    0 -0.10331051738E+00  0.26879752405E-01 -0.53559533249E-01  0.88806768193E+00  0.88000000000E+00 0. -1.
        -11    1    4    4    0    0  0.51738781309E-01 -0.12866511542E-01  0.27762634899E-01  0.60112175374E-01  0.51100000000E-03 0. -1.
         11    1    4    4    0    0  0.50543237768E-01 -0.30722892856E-01  0.41926840699E-01  0.72502662858E-01  0.51100000000E-03 0.  1.
</event>
<event>
 8    1  0.5489035E+004  0.1043930E+01  0.7957747E-01            NaN
         13   -1    0    0    0    0  0.00000000000E+00  0.00000000000E+00  0.74505805969E-08  0.10566000000E+00  0.10566000000E+00 0.  1.
     999900   -1    0    0    0    0 -0.00000000000E+00 -0.00000000000E+00 -0.74505805969E-08  0.93827000000E+00  0.93827000000E+00 0. -1.
     999902    2    1    2    0    0  0.10306453265E-01 -0.21238409135E-01 -0.61326930290E-02  0.10195393681E+01  0.10192475755E+01 0.  0.
     999903    2    3    3    0    0 -0.66595028653E-01  0.10377768298E+00 -0.16902929125E-01  0.12731806191E+00  0.26823022730E-01 0.  0.
         14    1    1    2    0    0 -0.10306453265E-01  0.21238409135E-01  0.61326930290E-02  0.24390631916E-01  0.00000000000E+00 0.  1.
     999901    1    3    3    0    0  0.76901481918E-01 -0.12501609212E+00  0.10770236096E-01  0.89222130618E+00  0.88000000000E+00 0.  1.
        -11    1    4    4    0    0 -0.10209960954E-01  0.35114435525E-01  0.14176451002E-02  0.36599695675E-01  0.51100000000E-03 0.  1.
         11    1    4    4    0    0 -0.56385067700E-01  0.68663247458E-01 -0.18320574225E-01  0.90718366232E-01  0.51100000000E-03 0. -1.
</event>
<event>
 8    1  0.5489035E+004  0.1043930E+01  0.7957747E-01            NaN
         13   -1    0    0    0    0  0.00000000000E+00  0.00000000000E+00  0.74505805969E-08  0.10566000000E+00  0.10566000000E+00 0. -1.
     999900   -1    0    0    0    0 -0.00000000000E+00 -0.00000000000E+00 -0.74505805969E-08  0.93827000000E+00  0.93827000000E+00 0. -1.
     999902    2    1    2    0    0 -0.55030523868E-03  0.13562357947E-01  0.19989986814E-01  0.10197672195E+01  0.10194809179E+01 0.  0.
     999903    2    3    3    0    0 -0.40830484350E-01 -0.10842412836E+00  0.54984612964E-01  0.12975159068E+00  0.19729357763E-01 0.  0.
         14    1    1    2    0    0  0.55030523868E-03 -0.13562357947E-01 -0.19989986814E-01  0.24162780505E-01  0.00000000000E+00 0. -1.
     999901    1    3    3    0    0  0.40280179112E-01  0.12198648631E+00 -0.34994626150E-01  0.89001562881E+00  0.88000000000E+00 0. -1.
        -11    1    4    4    0    0 -0.23040222666E-01 -0.71937769345E-01  0.26069985539E-01  0.79911199377E-01  0.51100000000E-03 0. -1.
         11    1    4    4    0    0 -0.17790261684E-01 -0.36486359019E-01  0.28914627425E-01  0.49840391305E-01  0.51100000000E-03 0.  1.
</event>
<event>
 8    1  0.5489035E+004  0.1043930E+01  0.7957747E-01            NaN
         13   -1    0    0    0    0  0.00000000000E+00  0.00000000000E+00  0.74505805969E-08  0.10566000000E+00  0.10566000000E+00 0.  1.
     999900   -1    0    0    0    0 -0.00000000000E+00 -0.00000000000E+00 -0.74505805969E-08  0.93827000000E+00  0.93827000000E+00 0. -1.
     999902    2    1    2    0    0  0.18361052479E-01 -0.48891512603E-02 -0.13878489052E-01  0.10204003484E+01  0.10201290244E+01 0.  0.
     999903    2    3    3    0    0  0.95803379231E-01 -0.89841713717E-01 -0.33774305724E-02  0.13286188492E+00  0.19775045698E-01 0.  0.
         14    1    1    2    0    0 -0.18361052479E-01  0.48891512603E-02  0.13878489052E-01  0.23529651646E-01  0.00000000000E+00 0.  1.
     999901    1    3    3    0    0 -0.77442326752E-01  0.84952562457E-01 -0.10501058480E-01  0.88753846343E+00  0.88000000000E+00 0.  1.
        -11    1    4    4    0    0  0.76170280858E-01 -0.77574677605E-01  0.32753364171E-02  0.10876916494E+00  0.51100000000E-03 0. -1.
         11    1    4    4    0    0  0.19633098373E-01 -0.12267036112E-01 -0.66527669894E-02  0.24092719986E-01  0.51100000000E-03 0.  1.
</event>
<event>
 8    1  0.5489035E+004  0.1043930E+01  0.7957747E-01            NaN
         13   -1    0    0    0    0  0.00000000000E+00  0.00000000000E+00  0.74505805969E-08  0.10566000000E+00  0.10566000000E+00 0.  1.
     999900   -1    0    0    0    0 -0.00000000000E+00 -0.00000000000E+00 -0.74505805969E-08  0.93827000000E+00  0.93827000000E+00 0.  1.
     999902    2    1    2    0    0  0.21810504175E-01  0.73419729356E-02  0.55925962589E-02  0.10202470992E+01  0.10199721876E+01 0.  0.
     999903    2    3    3    0    0 -0.47290353571E-01  0.11047808544E+00 -0.45339054580E-01  0.13007519481E+00  0.20546083128E-01 0.  0.
         14    1    1    2    0    0 -0.21810504175E-01 -0.73419729356E-02 -0.55925962589E-02  0.23682900833E-01  0.00000000000E+00 0.  1.
     999901    1    3    3    0    0  0.69100857746E-01 -0.10313611250E+00  0.50931650839E-01  0.89017190435E+00  0.88000000000E+00 0. -1.
        -11    1    4    4    0    0 -0.17691422423E-01  0.30409621204E-01 -0.45929006671E-02  0.35483620822E-01  0.51100000000E-03 0.  1.
         11    1    4    4    0    0 -0.29598931148E-01  0.80068464237E-01 -0.40746153913E-01  0.94591573990E-01  0.51100000000E-03 0. -1.
</event>
<event>
 8    1  0.5489035E+004  0.1043930E+01  0.7957747E-01            NaN
         13   -1    0    0    0    0  0.00000000000E+00  0.00000000000E+00  0.74505805969E-08  0.10566000000E+00  0.10566000000E+00 0. -1.
     999900   -1    0    0    0    0 -0.00000000000E+00 -0.00000000000E+00 -0.74505805969E-08  0.93827000000E+00  0.93827000000E+00 0. -1.
     999902    2    1    2    0    0 -0.10438862739E-01 -0.19717095066E-01  0.98368495039E-02  0.10195476847E+01  0.10192560934E+01 0.  0.
     999903    2    3    3    0    0  0.17887097118E-01 -0.39201232558E-02 -0.12558041665E+00  0.12859889809E+00  0.20782683528E-01 0.  0.
         14    1    1    2    0    0  0.10438862739E-01  0.19717095066E-01 -0.98368495039E-02  0.24382315339E-01  0.00000000000E+00 0. -1.
     999901    1    3    3    0    0 -0.28325959856E-01 -0.15796971811E-01  0.13541726615E+00  0.89094878657E+00  0.88000000000E+00 0.  1.
        -11    1    4    4    0    0 -0.39582614673E-02 -0.38576128529E-02 -0.33825805976E-01  0.34278204178E-01  0.51100000000E-03 0. -1.
         11    1    4    4    0    0  0.21845358585E-01 -0.62510402859E-04 -0.91754610673E-01  0.94320693912E-01  0.51100000000E-03 0.  1.
</event>
<event>
 8    1  0.5489035E+004  0.1043930E+01  0.7957747E-01            NaN
         13   -1    0    0    0    0  0.00000000000E+00  0.00000000000E+00  0.74505805969E-08  0.10566000000E+00  0.10566000000E+00 0.  1.
     999900   -1    0    0    0    0 -0.00000000000E+00 -0.00000000000E+00 -0.74505805969E-08  0.93827000000E+00  0.93827000000E+00 0. -1.
     999902    2    1    2    0    0 -0.17696586549E-01 -0.12084452387E-01  0.10165252712E-01  0.10202121686E+01  0.10199364359E+01 0.  0.
     999903    2    3    3    0    0  0.11974840952E-01 -0.75230223403E-01 -0.10361389635E+00  0.13014841986E+00  0.19994707951E-01 0.  0.
         14    1    1    2    0    0  0.17696586549E-01  0.12084452387E-01 -0.10165252712E-01  0.23717831428E-01  0.00000000000E+00 0. -1.
     999901    1    3    3    0    0 -0.29671427501E-01  0.63145771016E-01  0.11377914906E+00  0.89006374871E+00  0.88000000000E+00 0.  1.
        -11    1    4    4    0    0 -0.54747455765E-02 -0.19020686681E-01 -0.28996360539E-01  0.35111385709E-01  0.51100000000E-03 0.  1.
         11    1    4    4    0    0  0.17449586529E-01 -0.56209536722E-01 -0.74617535813E-01  0.95037034152E-01  0.51100000000E-03 0. -1.
</event>
<event>
 8    1  0.5489035E+004  0.1043930E+01  0.7957747E-01            NaN
         13   -1    0    0    0    0  0.00000000000E+00  0.00000000000E+00  0.74505805969E-08  0.10566000000E+00  0.10566000000E+00 0. -1.
     999900   -1    0    0    0    0 -0.00000000000E+00 -0.00000000000E+00 -0.74505805969E-08  0.93827000000E+00  0.93827000000E+00 0. -1.
     999902    2    1    2    0    0 -0.16860329267E-01  0.20537627766E-02  0.15696379211E-01  0.10208028522E+01  0.10205408361E+01 0.  0.
     999903    2    3    3    0    0 -0.85901104193E-01 -0.44201594392E-01 -0.86128245031E-01  0.13104196255E+00  0.20521713096E-01 0.  0.
         14    1    1    2    0    0  0.16860329267E-01 -0.20537627766E-02 -0.15696379211E-01  0.23127147789E-01  0.00000000000E+00 0.  1.
     999901    1    3    3    0    0  0.69040774926E-01  0.46255357168E-01  0.10182462424E+00  0.88976088966E+00  0.88000000000E+00 0.  1.
        -11    1    4    4    0    0 -0.34747256865E-01 -0.23253230957E-01 -0.49175330748E-01  0.64548887556E-01  0.51100000000E-03 0. -1.
         11    1    4    4    0    0 -0.51153847328E-01 -0.20948363434E-01 -0.36952914283E-01  0.66493074994E-01  0.51100000000E-03 0.  1.
</event>
<event>
 8    1  0.5489035E+004  0.1043930E+01  0.7957747E-01            NaN
         13   -1    0    0    0    0  0.00000000000E+00  0.00000000000E+00  0.74505805969E-08  0.10566000000E+00  0.10566000000E+00 0. -1.
     999900   -1    0    0    0    0 -0.00000000000E+00 -0.00000000000E+00 -0.74505805969E-08  0.93827000000E+00  0.93827000000E+00 0.  1.
     999902    2    1    2    0    0 -0.20562351444E-01  0.10918071468E-02 -0.10449698613E-01  0.10208389078E+01  0.10205777173E+01 0.  0.
     999903    2    3    3    0    0 -0.47628926819E-02  0.91237162683E-01 -0.93347983111E-01  0.13221754093E+00  0.20511635144E-01 0.  0.
         14    1    1    2    0    0  0.20562351444E-01 -0.10918071468E-02  0.10449698613E-01  0.23091092240E-01  0.00000000000E+00 0. -1.
     999901    1    3    3    0    0 -0.15799458762E-01 -0.90145355536E-01  0.82898284499E-01  0.88862136683E+00  0.88000000000E+00 0. -1.
        -11    1    4    4    0    0 -0.11005884384E-01  0.79290238574E-01 -0.81904037247E-01  0.11452774276E+00  0.51100000000E-03 0.  1.
         11    1    4    4    0    0  0.62429917018E-02  0.11946924108E-01 -0.11443945864E-01  0.17689798161E-01  0.51100000000E-03 0. -1.
</event>
<event>
 8    1  0.5489035E+004  0.1043930E+01  0.7957747E-01            NaN
         13   -1    0    0    0    0  0.00000000000E+00  0.00000000000E+00  0.74505805969E-08  0.10566000000E+00  0.10566000000E+00 0.  1.
     999900   -1    0    0    0    0 -0.00000000000E+00 -0.00000000000E+00 -0.74505805969E-08  0.93827000000E+00  0.93827000000E+00 0. -1.
     999902    2    1    2    0    0 -0.14819643779E-01  0.15721372375E-01 -0.96256459113E-02  0.10202775910E+01  0.10200033952E+01 0.  0.
     999903    2    3    3    0    0 -0.11476672031E+00 -0.27143500709E-01  0.54034993289E-01  0.13130093642E+00  0.20297430434E-01 0.  0.
         14    1    1    2    0    0  0.14819643779E-01 -0.15721372375E-01  0.96256459113E-02  0.23652408975E-01  0.00000000000E+00 0.  1.
     999901    1    3    3    0    0  0.99947076535E-01  0.42864873085E-01 -0.63660639200E-01  0.88897665461E+00  0.88000000000E+00 0. -1.
        -11    1    4    4    0    0 -0.86119648003E-01 -0.22332393308E-01  0.30970319066E-01  0.94205898686E-01  0.51100000000E-03 0. -1.
         11    1    4    4    0    0 -0.28647072311E-01 -0.48111074011E-02  0.23064674223E-01  0.37095037733E-01  0.51100000000E-03 0.  1.
</event>
<event>
 8    1  0.5489035E+004  0.1043930E+01  0.7957747E-01            NaN
         13   -1    0    0    0    0  0.00000000000E+00  0.00000000000E+00  0.74505805969E-08  0.10566000000E+00  0.10566000000E+00 0.  1.
     999900   -1    0    0    0    0 -0.00000000000E+00 -0.00000000000E+00 -0.74505805969E-08  0.93827000000E+00  0.93827000000E+00 0.  1.
     999902    2    1    2    0    0 -0.32070363572E-02  0.23121962435E-01 -0.88326283565E-03  0.10205699833E+01  0.10203026023E+01 0.  0.
     999903    2    3    3    0    0  0.71430873879E-01  0.10145216097E+00 -0.43497565104E-01  0.13292004302E+00  0.19513814523E-01 0.  0.
         14    1    1    2    0    0  0.32070363572E-02 -0.23121962435E-01  0.88326283565E-03  0.23360016744E-01  0.00000000000E+00 0.  1.
     999901    1    3    3    0    0 -0.74637910236E-01 -0.78330198535E-01  0.42614302268E-01  0.88764994024E+00  0.88000000000E+00 0. -1.
        -11    1    4    4    0    0  0.34661179176E-01  0.52014054094E-01 -0.32071832476E-01  0.70254698950E-01  0.51100000000E-03 0. -1.
         11    1    4    4    0    0  0.36769694703E-01  0.49438106876E-01 -0.11425732627E-01  0.62665344068E-01  0.51100000000E-03 0.  1.
</event>
<event>
 8    1  0.5489035E+004  0.1043930E+01  0.7957747E-01            NaN
         13   -1    0    0    0    0  0.00000000000E+00  0.00000000000E+00  0.74505805969E-08  0.10566000000E+00  0.10566000000E+00 0. -1.
     999900   -1    0    0    0    0 -0.00000000000E+00 -0.00000000000E+00 -0.74505805969E-08  0.93827000000E+00  0.93827000000E+00 0. -1.
     999902    2    1    2    0    0  0.13689373505E-01 -0.21986126135E-02  0.19672149614E-01  0.10198628790E+01  0.10195788668E+01 0.  0.
     999903    2    3    3    0    0 -0.21524352274E-01 -0.79585299242E-01 -0.96186538547E-01  0.12820602716E+00  0.19693085245E-01 0.  0.
         14    1    1    2    0    0 -0.13689373505E-01  0.21986126135E-02 -0.19672149614E-01  0.24067121033E-01  0.00000000000E+00 0.  1.
     999901    1    3    3    0    0  0.35213725779E-01  0.77386686629E-01  0.11585868816E+00  0.89165685181E+00  0.88000000000E+00 0.  1.
        -11    1    4    4    0    0 -0.18538036525E-01 -0.50332817744E-01 -0.49271479001E-01  0.72835369870E-01  0.51100000000E-03 0. -1.
         11    1    4    4    0    0 -0.29863157492E-02 -0.29252481499E-01 -0.46915059546E-01  0.55370657291E-01  0.51100000000E-03 0.  1.
</event>
<event>
 8    1  0.5489035E+004  0.1043930E+01  0.7957747E-01            NaN
         13   -1    0    0    0    0  0.00000000000E+00  0.00000000000E+00  0.74505805969E-08  0.10566000000E+00  0.10566000000E+00 0. -1.
     999900   -1    0    0    0    0 -0.00000000000E+00 -0.00000000000E+00 -0.74505805969E-08  0.93827000000E+00  0.93827000000E+00 0.  1.
     999902    2    1    2    0    0  0.55137336097E-03 -0.22940393823E-01 -0.87626577224E-03  0.10209662563E+01  0.10207079715E+01 0.  0.
     999903    2    3    3    0    0 -0.54249611069E-01 -0.43899063155E-01 -0.11051124075E+00  0.13222431322E+00  0.20009663383E-01 0.  0.
         14    1    1    2    0    0 -0.55137336097E-03  0.22940393823E-01  0.87626577224E-03  0.22963743663E-01  0.00000000000E+00 0. -1.
     999901    1    3    3    0    0  0.54800984430E-01  0.20958669333E-01  0.10963497497E+00  0.88874194312E+00  0.88000000000E+00 0. -1.
        -11    1    4    4    0    0 -0.21655368202E-01 -0.15723832927E-01 -0.25757533179E-01  0.37147079701E-01  0.51100000000E-03 0. -1.
         11    1    4    4    0    0 -0.32594242866E-01 -0.28175230229E-01 -0.84753707567E-01  0.95077233520E-01  0.51100000000E-03 0.  1.
</event>
<event>
 8    1  0.5489035E+004  0.1043930E+01  0.7957747E-01            NaN
         13   -1    0    0    0    0  0.00000000000E+00  0.00000000000E+00  0.74505805969E-08  0.10566000000E+00  0.10566000000E+00 0. -1.
     999900   -1    0    0    0    0 -0.00000000000E+00 -0.00000000000E+00 -0.74505805969E-08  0.93827000000E+00  0.93827000000E+00 0. -1.
     999902    2    1    2    0    0 -0.48289784674E-02 -0.12426960438E-01 -0.18212938589E-01  0.10213587902E+01  0.10211093570E+01 0.  0.
     999903    2    3    3    0    0  0.96329557884E-01 -0.79325001920E-01 -0.40592651792E-01  0.13275919029E+00  0.20134536902E-01 0.  0.
         14    1    1    2    0    0  0.48289784674E-02  0.12426960438E-01  0.18212938589E-01  0.22571209777E-01  0.00000000000E+00 0. -1.
     999901    1    3    3    0    0 -0.10115853635E+00  0.66898041482E-01  0.22379713203E-01  0.88859959993E+00  0.88000000000E+00 0.  1.
        -11    1    4    4    0    0  0.63505988318E-01 -0.42477064474E-01 -0.31171069732E-01  0.82517926948E-01  0.51100000000E-03 0.  1.
         11    1    4    4    0    0  0.32823569566E-01 -0.36847937446E-01 -0.94215820601E-02  0.50241263346E-01  0.51100000000E-03 0. -1.
</event>
<event>
 8    1  0.5489035E+004  0.1043930E+01  0.7957747E-01            NaN
         13   -1    0    0    0    0  0.00000000000E+00  0.00000000000E+00  0.74505805969E-08  0.10566000000E+00  0.10566000000E+00 0. -1.
     999900   -1    0    0    0    0 -0.00000000000E+00 -0.00000000000E+00 -0.74505805969E-08  0.93827000000E+00  0.93827000000E+00 0. -1.
     999902    2    1    2    0    0 -0.17371552212E-01  0.15568552659E-01 -0.42202770362E-02  0.10202242750E+01  0.10199488271E+01 0.  0.
     999903    2    3    3    0    0  0.10708114218E+00 -0.61869917862E-01  0.24927225220E-01  0.12762427125E+00  0.19295862479E-01 0.  0.
         14    1    1    2    0    0  0.17371552212E-01 -0.15568552659E-01  0.42202770362E-02  0.23705724971E-01  0.00000000000E+00 0.  1.
     999901    1    3    3    0    0 -0.12445269439E+00  0.77438470521E-01 -0.29147502256E-01  0.89260000378E+00  0.88000000000E+00 0. -1.
        -11    1    4    4    0    0  0.21965709768E-01 -0.19442867949E-01  0.11776910751E-01  0.31614462949E-01  0.51100000000E-03 0.  1.
         11    1    4    4    0    0  0.85115432409E-01 -0.42427049913E-01  0.13150314468E-01  0.96009808301E-01  0.51100000000E-03 0. -1.
</event>
<event>
 8    1  0.5489035E+004  0.1043930E+01  0.7957747E-01            NaN
         13   -1    0    0    0    0  0.00000000000E+00  0.00000000000E+00  0.74505805969E-08  0.10566000000E+00  0.10566000000E+00 0. -1.
     999900   -1    0    0    0    0 -0.00000000000E+00 -0.00000000000E+00 -0.74505805969E-08  0.93827000000E+00  0.93827000000E+00 0. -1.
     999902    2    1    2    0    0  0.16301827616E-01  0.64759358844E-02  0.12378036745E-01  0.10224613456E+01  0.10222359317E+01 0.  0.
     999903    2    3    3    0    0 -0.96287561967E-01 -0.14527498519E-01  0.86872054007E-01  0.13191832387E+00  0.19322204886E-01 0.  0.
         14    1    1    2    0    0 -0.16301827616E-01 -0.64759358844E-02 -0.12378036745E-01  0.21468654426E-01  0.00000000000E+00 0.  1.
     999901    1    3    3    0    0  0.11258938958E+00  0.21003434404E-01 -0.74494017262E-01  0.89054302171E+00  0.88000000000E+00 0. -1.
        -11    1    4    4    0    0 -0.36283476679E-01 -0.28159980825E-02  0.20889255601E-01  0.41964778632E-01  0.51100000000E-03 0.  1.
         11    1    4    4    0    0 -0.60004085288E-01 -0.11711500437E-01  0.65982798406E-01  0.89953545235E-01  0.51100000000E-03 0. -1.
</event>
<event>
 8    1  0.5489035E+004  0.1043930E+01  0.7957747E-01            NaN
         13   -1    0    0    0    0  0.00000000000E+00  0.00000000000E+00  0.74505805969E-08  0.10566000000E+00  0.10566000000E+00 0.  1.
     999900   -1    0    0    0    0 -0.00000000000E+00 -0.00000000000E+00 -0.74505805969E-08  0.93827000000E+00  0.93827000000E+00 0.  1.
     999902    2    1    2    0    0 -0.12178971883E-01  0.80446022780E-02 -0.35250331886E-03  0.10293297520E+01  0.10292262002E+01 0.  0.
     999903    2    3    3    0    0 -0.51365352288E-01 -0.12451151075E+00  0.24906189617E-01  0.13818178617E+00  0.18231072980E-01 0.  0.
         14    1    1    2    0    0  0.12178971883E-01 -0.80446022780E-02  0.35250331886E-03  0.14600247961E-01  0.00000000000E+00 0. -1.
     999901    1    3    3    0    0  0.39186380405E-01  0.13255611303E+00 -0.25258692936E-01  0.89114796587E+00  0.88000000000E+00 0.  1.
        -11    1    4    4    0    0 -0.30939413174E-01 -0.80506418151E-01  0.72536563848E-02  0.86552916201E-01  0.51100000000E-03 0.  1.
         11    1    4    4    0    0 -0.20425939114E-01 -0.44005092599E-01  0.17652533232E-01  0.51628869965E-01  0.51100000000E-03 0. -1.
</event>
<event>
 8    1  0.5489035E+004  0.1043930E+01  0.7957747E-01            NaN
         13   -1    0    0    0    0  0.00000000000E+00  0.00000000000E+00  0.74505805969E-08  0.10566000000E+00  0.10566000000E+00 0.  1.
     999900   -1    0    0    0    0 -0.00000000000E+00 -0.00000000000E+00 -0.74505805969E-08  0.93827000000E+00  0.93827000000E+00 0. -1.
     999902    2    1    2    0    0 -0.12389142863E-01 -0.15750479827E-01 -0.12181846188E-01  0.10204786492E+01  0.10202091490E+01 0.  0.
     999903    2    3    3    0    0 -0.31130646469E-01  0.97950320272E-01  0.74808688404E-01  0.12871272199E+00  0.20180251511E-01 0.  0.
         14    1    1    2    0    0  0.12389142863E-01  0.15750479827E-01  0.12181846188E-01  0.23451350754E-01  0.00000000000E+00 0.  1.
     999901    1    3    3    0    0  0.18741503606E-01 -0.11370080010E+00 -0.86990534592E-01  0.89176592725E+00  0.88000000000E+00 0. -1.
        -11    1    4    4    0    0 -0.44392371355E-02  0.31713527917E-01  0.32877887999E-01  0.45898489295E-01  0.51100000000E-03 0. -1.
         11    1    4    4    0    0 -0.26691409334E-01  0.66236792355E-01  0.41930800405E-01  0.82814232697E-01  0.51100000000E-03 0.  1.
</event>
<event>
 8    1  0.5489035E+004  0.1043930E+01  0.7957747E-01            NaN
         13   -1    0    0    0    0  0.00000000000E+00  0.00000000000E+00  0.74505805969E-08  0.10566000000E+00  0.10566000000E+00 0.  1.
     999900   -1    0    0    0    0 -0.00000000000E+00 -0.00000000000E+00 -0.74505805969E-08  0.93827000000E+00  0.93827000000E+00 0. -1.
     999902    2    1    2    0    0 -0.17473644235E-02  0.19494724808E-01  0.13447810014E-01  0.10201825544E+01  0.10199061247E+01 0.  0.
     999903    2    3    3    0    0  0.36685489148E-01 -0.47557396261E-01  0.11459736685E+00  0.13102323009E+00  0.20663960966E-01 0.  0.
         14    1    1    2    0    0  0.17473644235E-02 -0.19494724808E-01 -0.13447810014E-01  0.23747445588E-01  0.00000000000E+00 0.  1.
     999901    1    3    3    0    0 -0.38432853571E-01  0.67052121070E-01 -0.10114955683E+00  0.88915932432E+00  0.88000000000E+00 0. -1.
        -11    1    4    4    0    0  0.15596962962E-01 -0.58965002241E-02  0.26468443111E-01  0.31286955273E-01  0.51100000000E-03 0.  1.
         11    1    4    4    0    0  0.21088526186E-01 -0.41660896037E-01  0.88128923736E-01  0.99736274821E-01  0.51100000000E-03 0. -1.
</event>
<event>
 8    1  0.5489035E+004  0.1043930E+01  0.7957747E-01            NaN
         13   -1    0    0    0    0  0.00000000000E+00  0.00000000000E+00  0.74505805969E-08  0.10566000000E+00  0.10566000000E+00 0.  1.
     999900   -1    0    0    0    0 -0.00000000000E+00 -0.00000000000E+00 -0.74505805969E-08  0.93827000000E+00  0.93827000000E+00 0.  1.
     999902    2    1    2    0    0 -0.34015063346E-02 -0.10663384988E-01  0.20635887786E-01  0.10204540998E+01  0.10201840285E+01 0.  0.
     999903    2    3    3    0    0 -0.80473540599E-01 -0.10110496547E+00 -0.15000970457E-01  0.13175293316E+00  0.20871068557E-01 0.  0.
         14    1    1    2    0    0  0.34015063346E-02  0.10663384988E-01 -0.20635887786E-01  0.23475900184E-01  0.00000000000E+00 0. -1.
     999901    1    3    3    0    0  0.77072034264E-01  0.90441580484E-01  0.35636858243E-01  0.88870116665E+00  0.88000000000E+00 0. -1.
        -11    1    4    4    0    0 -0.44710713732E-01 -0.60592709947E-01  0.12692795484E-02  0.75315314596E-01  0.51100000000E-03 0. -1.
         11    1    4    4    0    0 -0.35762826866E-01 -0.40512255525E-01 -0.16270250005E-01  0.56437618566E-01  0.51100000000E-03 0.  1.
</event>
<event>
 8    1  0.5489035E+004  0.1043930E+01  0.7957747E-01            NaN
         13   -1    0    0    0    0  0.00000000000E+00  0.00000000000E+00  0.74505805969E-08  0.10566000000E+00  0.10566000000E+00 0. -1.
     999900   -1    0    0    0    0 -0.00000000000E+00 -0.00000000000E+00 -0.74505805969E-08  0.93827000000E+00  0.93827000000E+00 0.  1.
     999902    2    1    2    0    0  0.78712847889E-02 -0.61538980090E-02 -0.21607835899E-01  0.10201239891E+01  0.10198461781E+01 0.  0.
     999903    2    3    3    0    0 -0.85317154639E-01 -0.49237052796E-01 -0.85462884825E-01  0.13185730008E+00  0.19471483193E-01 0.  0.
         14    1    1    2    0    0 -0.78712847889E-02  0.61538980090E-02  0.21607835899E-01  0.23806010946E-01  0.00000000000E+00 0. -1.
     999901    1    3    3    0    0  0.93188439428E-01  0.43083154787E-01  0.63855048926E-01  0.88826668898E+00  0.88000000000E+00 0.  1.
        -11    1    4    4    0    0 -0.74461412539E-01 -0.39428699267E-01 -0.80131163955E-01  0.11627720688E+00  0.51100000000E-03 0.  1.
         11    1    4    4    0    0 -0.10855742101E-01 -0.98083535289E-02 -0.53317208698E-02  0.15580093194E-01  0.51100000000E-03 0. -1.
</event>
<event>
 8    1  0.5489035E+004  0.1043930E+01  0.7957747E-01            NaN
         13   -1    0    0    0    0  0.00000000000E+00  0.00000000000E+00  0.74505805969E-08  0.10566000000E+00  0.10566000000E+00 0.  1.
     999900   -1    0    0    0    0 -0.00000000000E+00 -0.00000000000E+00 -0.74505805969E-08  0.93827000000E+00  0.93827000000E+00 0.  1.
     999902    2    1    2    0    0  0.58759566667E-02  0.36498628183E-03 -0.22921747594E-01  0.10202642738E+01  0.10199897656E+01 0.  0.
     999903    2    3    3    0    0 -0.73622489813E-02  0.94888692331E-01 -0.91259447463E-01  0.13246923989E+00  0.12717944922E-01 0.  0.
         14    1    1    2    0    0 -0.58759566667E-02 -0.36498628183E-03  0.22921747594E-01  0.23665726156E-01  0.00000000000E+00 0.  1.
     999901    1    3    3    0    0  0.13238205648E-01 -0.94523706049E-01  0.68337699869E-01  0.88779503396E+00  0.88000000000E+00 0. -1.
        -11    1    4    4    0    0  0.34281982346E-02  0.26257472596E-01 -0.27278152787E-01  0.38020601662E-01  0.51100000000E-03 0.  1.
         11    1    4    4    0    0 -0.10790447216E-01  0.68631219735E-01 -0.63981294675E-01  0.94448638226E-01  0.51100000000E-03 0. -1.
</event>
<event>
 7    1  0.5489035E+004  0.1043930E+01  0.7957747E-01            NaN
         13   -1    0    0    0    0  0.00000000000E+00  0.00000000000E+00  0.74505805969E-08  0.10566000000E+00  0.10566000000E+00 0. -1.
     999900   -1    0    0    0    0 -0.00000000000E+00 -0.00000000000E+00 -0.74505805969E-08  0.93827000000E+00  0.93827000000E+00 0.  1.
     999902    2    1    2    0    0 -0.52902515406E-02 -0.77705278127E-02  0.25409541192E-01  0.10168373322E+01  0.10164763389E+01 0.  0.
         14    1    1    2    0    0  0.52902515406E-02  0.77705278127E-02 -0.25409541192E-01  0.27092667780E-01  0.00000000000E+00 0.  1.
     999901    1    3    3    0    0 -0.86246812012E-01  0.65217170217E-01 -0.14131645912E-01  0.88673079076E+00  0.88000000000E+00 0. -1.
        -11    1    3    3    0    0  0.12354341952E-01 -0.41479520610E-01 -0.31151327118E-02  0.43395225174E-01  0.51100000000E-03 0. -1.
         11    1    3    3    0    0  0.68602218519E-01 -0.31508177419E-01  0.42656319816E-01  0.86711316282E-01  0.51100000000E-03 0.  1.
</event>
<event>
 8    1  0.5489035E+004  0.1043930E+01  0.7957747E-01            NaN
         13   -1    0    0    0    0  0.00000000000E+00  0.00000000000E+00  0.74505805969E-08  0.10566000000E+00  0.10566000000E+00 0.  1.
     999900   -1    0    0    0    0 -0.00000000000E+00 -0.00000000000E+00 -0.74505805969E-08  0.93827000000E+00  0.93827000000E+00 0. -1.
     999902    2    1    2    0    0  0.23090036099E-01  0.59908187054E-02  0.20938803414E-02  0.10199837266E+01  0.10197025932E+01 0.  0.
     999903    2    3    3    0    0 -0.79310125607E-01  0.38209323726E-01 -0.91733356039E-01  0.12850889493E+00  0.18694358022E-01 0.  0.
         14    1    1    2    0    0 -0.23090036099E-01 -0.59908187054E-02 -0.20938803414E-02  0.23946273420E-01  0.00000000000E+00 0. -1.
     999901    1    3    3    0    0  0.10240016171E+00 -0.32218505021E-01  0.93827236380E-01  0.89147483165E+00  0.88000000000E+00 0.  1.
        -11    1    4    4    0    0 -0.16706495115E-01  0.13242510417E-02 -0.11913861393E-01  0.20568466986E-01  0.51100000000E-03 0.  1.
         11    1    4    4    0    0 -0.62603630492E-01  0.36885072685E-01 -0.79819494645E-01  0.10794042794E+00  0.51100000000E-03 0. -1.
</event>
<event>
 8    1  0.5489035E+004  0.1043930E+01  0.7957747E-01            NaN
         13   -1    0    0    0    0  0.00000000000E+00  0.00000000000E+00  0.74505805969E-08  0.10566000000E+00  0.10566000000E+00 0. -1.
     999900   -1    0    0    0    0 -0.00000000000E+00 -0.00000000000E+00 -0.74505805969E-08  0.93827000000E+00  0.93827000000E+00 0.  1.
     999902    2    1    2    0    0  0.15929987221E-02  0.22562556103E-01  0.28278489772E-02  0.10211351911E+01  0.10208807350E+01 0.  0.
     999903    2    3    3    0    0  0.23441588371E-01 -0.13419370421E-01  0.12704081287E+00  0.13141561713E+00  0.20027698938E-01 0.  0.
         14    1    1    2    0    0 -0.15929987221E-02 -0.22562556103E-01 -0.28278489772E-02  0.22794808897E-01  0.00000000000E+00 0. -1.
     999901    1    3    3    0    0 -0.21848589649E-01  0.35981926524E-01 -0.12421296389E+00  0.88971957397E+00  0.88000000000E+00 0.  1.
        -11    1    4    4    0    0  0.22135163496E-01 -0.23079107316E-02  0.90455337863E-01  0.93154286986E-01  0.51100000000E-03 0.  1.
         11    1    4    4    0    0  0.13064248757E-02 -0.11111459690E-01  0.36585475004E-01  0.38261330148E-01  0.51100000000E-03 0. -1.
</event>
<event>
 8    1  0.5489035E+004  0.1043930E+01  0.7957747E-01            NaN
         13   -1    0    0    0    0  0.00000000000E+00  0.00000000000E+00  0.74505805969E-08  0.10566000000E+00  0.10566000000E+00 0. -1.
     999900   -1    0    0    0    0 -0.00000000000E+00 -0.00000000000E+00 -0.74505805969E-08  0.93827000000E+00  0.93827000000E+00 0.  1.
     999902    2    1    2    0    0  0.57570947788E-02  0.78081021643E-02 -0.23473431559E-01  0.10185309333E+01  0.10182141963E+01 0.  0.
     999903    2    3    3    0    0  0.83898864377E-01 -0.94746072432E-01  0.10427164772E-01  0.12849006609E+00  0.19624821885E-01 0.  0.
         14    1    1    2    0    0 -0.57570947788E-02 -0.78081021643E-02  0.23473431559E-01  0.25399066693E-01  0.00000000000E+00 0. -1.
     999901    1    3    3    0    0 -0.78141769598E-01  0.10255417460E+00 -0.33900596331E-01  0.89004086722E+00  0.88000000000E+00 0.  1.
        -11    1    4    4    0    0  0.52737145986E-01 -0.70771529710E-01  0.20392330295E-02  0.88284968010E-01  0.51100000000E-03 0.  1.
         11    1    4    4    0    0  0.31161718391E-01 -0.23974542722E-01  0.83879317421E-02  0.40205098081E-01  0.51100000000E-03 0. -1.
</event>
<event>
 8    1  0.5489035E+004  0.1043930E+01  0.7957747E-01            NaN
         13   -1    0    0    0    0  0.00000000000E+00  0.00000000000E+00  0.74505805969E-08  0.10566000000E+00  0.10566000000E+00 0. -1.
     999900   -1    0    0    0    0 -0.00000000000E+00 -0.00000000000E+00 -0.74505805969E-08  0.93827000000E+00  0.93827000000E+00 0.  1.
     999902    2    1    2    0    0  0.47623989012E-02 -0.18869250656E-01  0.95673714958E-02  0.10222444366E+01  0.10220143954E+01 0.  0.
     999903    2    3    3    0    0 -0.16265132276E-01  0.15261026430E-01  0.12993638438E+00  0.13314616746E+00  0.18627519087E-01 0.  0.
         14    1    1    2    0    0 -0.47623989012E-02  0.18869250656E-01 -0.95673714958E-02  0.21685563422E-01  0.00000000000E+00 0. -1.
     999901    1    3    3    0    0  0.21027531177E-01 -0.34130277086E-01 -0.12036901289E+00  0.88909826912E+00  0.88000000000E+00 0.  1.
        -11    1    4    4    0    0 -0.80864175593E-02  0.18278160933E-01  0.99123333192E-01  0.10111962035E+00  0.51100000000E-03 0.  1.
         11    1    4    4    0    0 -0.81787147166E-02 -0.30171345029E-02  0.30813051191E-01  0.32026547109E-01  0.51100000000E-03 0. -1.
</event>
<event>
 8    1  0.5489035E+004  0.1043930E+01  0.7957747E-01            NaN
         13   -1    0    0    0    0  0.00000000000E+00  0.00000000000E+00  0.74505805969E-08  0.10566000000E+00  0.10566000000E+00 0. -1.
     999900   -1    0    0    0    0 -0.00000000000E+00 -0.00000000000E+00 -0.74505805969E-08  0.93827000000E+00  0.93827000000E+00 0. -1.
     999902    2    1    2    0    0  0.22865505966E-01 -0.69803888647E-02 -0.60928586545E-02  0.10192585566E+01  0.10189599232E+01 0.  0.
     999903    2    3    3    0    0 -0.48012865011E-01 -0.11796163293E+00 -0.12226239224E-01  0.12943936242E+00  0.19618500709E-01 0.  0.
         14    1    1    2    0    0 -0.22865505966E-01  0.69803888647E-02  0.60928586545E-02  0.24671443378E-01  0.00000000000E+00 0.  1.
     999901    1    3    3    0    0  0.70878370977E-01  0.11098124406E+00  0.61333805697E-02  0.88981919420E+00  0.88000000000E+00 0. -1.
        -11    1    4    4    0    0 -0.22163408273E-01 -0.52058298245E-01 -0.15184310740E-01  0.58584191520E-01  0.51100000000E-03 0. -1.
         11    1    4    4    0    0 -0.25849456737E-01 -0.65903334681E-01  0.29580715156E-02  0.70855170904E-01  0.51100000000E-03 0.  1.
</event>
<event>
 8    1  0.5489035E+004  0.1043930E+01  0.7957747E-01            NaN
         13   -1    0    0    0    0  0.00000000000E+00  0.00000000000E+00  0.74505805969E-08  0.10566000000E+00  0.10566000000E+00 0.  1.
     999900   -1    0    0    0    0 -0.00000000000E+00 -0.00000000000E+00 -0.74505805969E-08  0.93827000000E+00  0.93827000000E+00 0. -1.
     999902    2    1    2    0    0  0.13930129237E-01  0.70963246295E-02  0.16525949862E-01  0.10211810804E+01  0.10209276594E+01 0.  0.
     999903    2    3    3    0    0 -0.37877007225E-02  0.12614922027E+00 -0.31415273984E-01  0.13169478237E+00  0.20703231931E-01 0.  0.
         14    1    1    2    0    0 -0.13930129237E-01 -0.70963246295E-02 -0.16525949862E-01  0.22748919593E-01  0.00000000000E+00 0. -1.
     999901    1    3    3    0    0  0.17717829959E-01 -0.11905289564E+00  0.47941223846E-01  0.88948629804E+00  0.88000000000E+00 0.  1.
        -11    1    4    4    0    0  0.55919322878E-02  0.48973252072E-01 -0.19639822197E-01  0.53062537276E-01  0.51100000000E-03 0.  1.
         11    1    4    4    0    0 -0.93796330103E-02  0.77175968194E-01 -0.11775451787E-01  0.78632245090E-01  0.51100000000E-03 0. -1.
</event>
<event>
 8    1  0.5489035E+004  0.1043930E+01  0.7957747E-01            NaN
         13   -1    0    0    0    0  0.00000000000E+00  0.00000000000E+00  0.74505805969E-08  0.10566000000E+00  0.10566000000E+00 0. -1.
     999900   -1    0    0    0    0 -0.00000000000E+00 -0.00000000000E+00 -0.74505805969E-08  0.93827000000E+00  0.93827000000E+00 0.  1.
     999902    2    1    2    0    0 -0.12613056609E-01 -0.13375594130E-01 -0.17752563352E-01  0.10183732158E+01  0.10180524826E+01 0.  0.
     999903    2    3    3    0    0  0.12256538743E+00  0.15073739216E-01 -0.25061623239E-01  0.12756684024E+00  0.19892761527E-01 0.  0.
         14    1    1    2    0    0  0.12613056609E-01  0.13375594130E-01  0.17752563352E-01  0.25556784245E-01  0.00000000000E+00 0.  1.
     999901    1    3    3    0    0 -0.13517844403E+00 -0.28449333346E-01  0.73090598874E-02  0.89080637551E+00  0.88000000000E+00 0. -1.
        -11    1    4    4    0    0  0.10594871746E+00  0.62177704622E-02 -0.19332527534E-01  0.10787863154E+00  0.51100000000E-03 0. -1.
         11    1    4    4    0    0  0.16616669966E-01  0.88559687540E-02 -0.57290957054E-02  0.19688208703E-01  0.51100000000E-03 0.  1.
</event>
<event>
 8    1  0.5489035E+004  0.1043930E+01  0.7957747E-01            NaN
         13   -1    0    0    0    0  0.00000000000E+00  0.00000000000E+00  0.74505805969E-08  0.10566000000E+00  0.10566000000E+00 0. -1.
     999900   -1    0    0    0    0 -0.00000000000E+00 -0.00000000000E+00 -0.74505805969E-08  0.93827000000E+00  0.93827000000E+00 0.  1.
     999902    2    1    2    0    0 -0.92431793175E-02  0.20842809264E-01  0.37082786441E-02  0.10208299915E+01  0.10205685970E+01 0.  0.
     999903    2    3    3    0    0 -0.85487923424E-01  0.93209293493E-01 -0.38693752312E-01  0.13355996425E+00  0.18571487200E-01 0.  0.
         14    1    1    2    0    0  0.92431793175E-02 -0.20842809264E-01 -0.37082786441E-02  0.23100008494E-01  0.00000000000E+00 0.  1.
     999901    1    3    3    0    0  0.76244744107E-01 -0.72366484230E-01  0.42402030956E-01  0.88727002726E+00  0.88000000000E+00 0. -1.
        -11    1    4    4    0    0 -0.81728246684E-01  0.92543122963E-01 -0.35268394844E-01  0.12840504939E+00  0.51100000000E-03 0. -1.
         11    1    4    4    0    0 -0.37596767400E-02  0.66617052984E-03 -0.34253574678E-02  0.51549148535E-02  0.51100000000E-03 0.  1.
</event>
<event>
 8    1  0.5489035E+004  0.1043930E+01  0.7957747E-01            NaN
         13   -1    0    0    0    0  0.00000000000E+00  0.00000000000E+00  0.74505805969E-08  0.10566000000E+00  0.10566000000E+00 0. -1.
     999900   -1    0    0    0    0 -0.00000000000E+00 -0.00000000000E+00 -0.74505805969E-08  0.93827000000E+00  0.93827000000E+00 0. -1.
     999902    2    1    2    0    0  0.56468427778E-03  0.16737579341E-01  0.16132946878E-01  0.10206762389E+01  0.10204113128E+01 0.  0.
     999903    2    3    3    0    0  0.39298495336E-01 -0.39679325436E-01 -0.11410336623E+00  0.12846288296E+00  0.19086998481E-01 0.  0.
         14    1    1    2    0    0 -0.56468427778E-03 -0.16737579341E-01 -0.16132946878E-01  0.23253761104E-01  0.00000000000E+00 0.  1.
     999901    1    3    3    0    0 -0.38733811058E-01  0.56416904777E-01  0.13023631310E+00  0.89221335594E+00  0.88000000000E+00 0.  1.
        -11    1    4    4    0    0  0.23185508642E-02 -0.28900417877E-03 -0.20735512330E-03  0.24006912905E-02  0.51100000000E-03 0.  1.
         11    1    4    4    0    0  0.36979944472E-01 -0.39390321257E-01 -0.11389601110E+00  0.12606219167E+00  0.51100000000E-03 0. -1.
</event>
<event>
 8    1  0.5489035E+004  0.1043930E+01  0.7957747E-01            NaN
         13   -1    0    0    0    0  0.00000000000E+00  0.00000000000E+00  0.74505805969E-08  0.10566000000E+00  0.10566000000E+00 0. -1.
     999900   -1    0    0    0    0 -0.00000000000E+00 -0.00000000000E+00 -0.74505805969E-08  0.93827000000E+00  0.93827000000E+00 0.  1.
     999902    2    1    2    0    0  0.68711939100E-02 -0.25420914008E-02 -0.23298753175E-01  0.10195064983E+01  0.10192139092E+01 0.  0.
     999903    2    3    3    0    0 -0.67968585491E-01  0.24471541102E-01  0.10243717449E+00  0.12701546060E+00  0.20517494395E-01 0.  0.
         14    1    1    2    0    0 -0.68711939100E-02  0.25420914008E-02  0.23298753175E-01  0.24423501673E-01  0.00000000000E+00 0. -1.
     999901    1    3    3    0    0  0.74839779401E-01 -0.27013632503E-01 -0.12573592766E+00  0.89249103773E+00  0.88000000000E+00 0.  1.
        -11    1    4    4    0    0 -0.28204706182E-01  0.20362021929E-01  0.53606024459E-01  0.63906058923E-01  0.51100000000E-03 0.  1.
         11    1    4    4    0    0 -0.39763879309E-01  0.41095191731E-02  0.48831150030E-01  0.63109401675E-01  0.51100000000E-03 0. -1.
</event>
<event>
 8    1  0.5489035E+004  0.1043930E+01  0.7957747E-01            NaN
         13   -1    0    0    0    0  0.00000000000E+00  0.00000000000E+00  0.74505805969E-08  0.10566000000E+00  0.10566000000E+00 0.  1.
     999900   -1    0    0    0    0 -0.00000000000E+00 -0.00000000000E+00 -0.74505805969E-08  0.93827000000E+00  0.93827000000E+00 0. -1.
     999902    2    1    2    0    0 -0.76480211100E-02 -0.48597765596E-02 -0.20385173343E-01  0.10216215947E+01  0.10213779995E+01 0.  0.
     999903    2    3    3    0    0  0.20270774042E-01 -0.29879999563E-02  0.12350811325E+00  0.12949590815E+00  0.33092352051E-01 0.  0.
         14    1    1    2    0    0  0.76480211100E-02  0.48597765596E-02  0.20385173343E-01  0.22308405306E-01  0.00000000000E+00 0.  1.
     999901    1    3    3    0    0 -0.27918795152E-01 -0.18717766034E-02 -0.14389328659E+00  0.89212568655E+00  0.88000000000E+00 0. -1.
        -11    1    4    4    0    0 -0.27023219874E-02 -0.59264128968E-02  0.79454155890E-01  0.79722323869E-01  0.51100000000E-03 0. -1.
         11    1    4    4    0    0  0.22973096029E-01  0.29384129405E-02  0.44053957360E-01  0.49773584278E-01  0.51100000000E-03 0.  1.
</event>
<event>
 8    1  0.5489035E+004  0.1043930E+01  0.7957747E-01            NaN
         13   -1    0    0    0    0  0.00000000000E+00  0.00000000000E+00  0.74505805969E-08  0.10566000000E+00  0.10566000000E+00 0.  1.
     999900   -1    0    0    0    0 -0.00000000000E+00 -0.00000000000E+00 -0.74505805969E-08  0.93827000000E+00  0.93827000000E+00 0. -1.
     999902    2    1    2    0    0  0.20505593192E-01  0.24407390761E-02 -0.12167417276E-01  0.10199616333E+01  0.10196799747E+01 0.  0.
     999903    2    3    3    0    0 -0.21968033926E-02 -0.35991323036E-02  0.12508577837E+00  0.12901252219E+00  0.31304939466E-01 0.  0.
         14    1    1    2    0    0 -0.20505593192E-01 -0.24407390761E-02  0.12167417276E-01  0.23968366706E-01  0.00000000000E+00 0.  1.
     999901    1    3    3    0    0  0.22702396585E-01  0.60398713797E-02 -0.13725319564E+00  0.89094911110E+00  0.88000000000E+00 0. -1.
        -11    1    4    4    0    0  0.53117611781E-02  0.91090493077E-02  0.94060940918E-01  0.94651525680E-01  0.51100000000E-03 0. -1.
         11    1    4    4    0    0 -0.75085645707E-02 -0.12708181611E-01  0.31024837447E-01  0.34360996513E-01  0.51100000000E-03 0.  1.
</event>
<event>
 8    1  0.5489035E+004  0.1043930E+01  0.7957747E-01            NaN
         13   -1    0    0    0    0  0.00000000000E+00  0.00000000000E+00  0.74505805969E-08  0.10566000000E+00  0.10566000000E+00 0. -1.
     999900   -1    0    0    0    0 -0.00000000000E+00 -0.00000000000E+00 -0.74505805969E-08  0.93827000000E+00  0.93827000000E+00 0. -1.
     999902    2    1    2    0    0  0.55954221425E-02  0.10396534968E-01  0.20558969401E-01  0.10202220285E+01  0.10199465278E+01 0.  0.
     999903    2    3    3    0    0 -0.29131218345E-01  0.31559852732E-01  0.12392398824E+00  0.13323941726E+00  0.23472010213E-01 0.  0.
         14    1    1    2    0    0 -0.55954221425E-02 -0.10396534968E-01 -0.20558969401E-01  0.23707971468E-01  0.00000000000E+00 0.  1.
     999901    1    3    3    0    0  0.34726640488E-01 -0.21163317764E-01 -0.10336501884E+00  0.88698261127E+00  0.88000000000E+00 0. -1.
        -11    1    4    4    0    0 -0.28970622035E-01  0.22669303604E-01  0.75302032250E-01  0.83808421110E-01  0.51100000000E-03 0.  1.
         11    1    4    4    0    0 -0.16059631032E-03  0.88905491281E-02  0.48621955991E-01  0.49430996150E-01  0.51100000000E-03 0. -1.
</event>
<event>
 8    1  0.5489035E+004  0.1043930E+01  0.7957747E-01            NaN
         13   -1    0    0    0    0  0.00000000000E+00  0.00000000000E+00  0.74505805969E-08  0.10566000000E+00  0.10566000000E+00 0.  1.
     999900   -1    0    0    0    0 -0.00000000000E+00 -0.00000000000E+00 -0.74505805969E-08  0.93827000000E+00  0.93827000000E+00 0.  1.
     999902    2    1    2    0    0  0.10254559125E-01 -0.15916813074E-01  0.13999312530E-01  0.10203825655E+01  0.10201108265E+01 0.  0.
     999903    2    3    3    0    0 -0.41084880661E-01  0.46895702602E-01 -0.10995101727E+00  0.12800101341E+00  0.20195516696E-01 0.  0.
         14    1    1    2    0    0 -0.10254559125E-01  0.15916813074E-01 -0.13999312530E-01  0.23547434523E-01  0.00000000000E+00 0. -1.
     999901    1    3    3    0    0  0.51339439786E-01 -0.62812515676E-01  0.12395032980E+00  0.89238155206E+00  0.88000000000E+00 0. -1.
        -11    1    4    4    0    0 -0.19373212022E-01  0.85596958790E-02 -0.41509643277E-01  0.46603662341E-01  0.51100000000E-03 0.  1.
         11    1    4    4    0    0 -0.21711668639E-01  0.38336006723E-01 -0.68441373995E-01  0.81397351074E-01  0.51100000000E-03 0. -1.
</event>
<event>
 8    1  0.5489035E+004  0.1043930E+01  0.7957747E-01            NaN
         13   -1    0    0    0    0  0.00000000000E+00  0.00000000000E+00  0.74505805969E-08  0.10566000000E+00  0.10566000000E+00 0. -1.
     999900   -1    0    0    0    0 -0.00000000000E+00 -0.00000000000E+00 -0.74505805969E-08  0.93827000000E+00  0.93827000000E+00 0.  1.
     999902    2    1    2    0    0  0.63033502810E-02  0.11752125983E-01  0.18308107632E-01  0.10212798014E+01  0.10210285997E+01 0.  0.
     999903    2    3    3    0    0  0.34148363884E-01  0.12159084506E+00 -0.34430633124E-01  0.13244839798E+00  0.20165943360E-01 0.  0.
         14    1    1    2    0    0 -0.63033502810E-02 -0.11752125983E-01 -0.18308107632E-01  0.22650198563E-01  0.00000000000E+00 0.  1.
     999901    1    3    3    0    0 -0.27845013603E-01 -0.10983871908E+00  0.52738740756E-01  0.88883140346E+00  0.88000000000E+00 0. -1.
        -11    1    4    4    0    0  0.20417702260E-01  0.93557148388E-01 -0.19015836853E-01  0.97630352618E-01  0.51100000000E-03 0. -1.
         11    1    4    4    0    0  0.13730661624E-01  0.28033696675E-01 -0.15414796271E-01  0.34818045364E-01  0.51100000000E-03 0.  1.
</event>
<event>
 8    1  0.5489035E+004  0.1043930E+01  0.7957747E-01            NaN
         13   -1    0    0    0    0  0.00000000000E+00  0.00000000000E+00  0.74505805969E-08  0.10566000000E+00  0.10566000000E+00 0. -1.
     999900   -1    0    0    0    0 -0.00000000000E+00 -0.00000000000E+00 -0.74505805969E-08  0.93827000000E+00  0.93827000000E+00 0. -1.
     999902    2    1    2    0    0  0.19086204203E-01 -0.11111060368E-01 -0.93733146904E-02  0.10199383789E+01  0.10196561670E+01 0.  0.
     999903    2    3    3    0    0 -0.69075509836E-01  0.10608245702E+00  0.65689096527E-02  0.12765985579E+00  0.15131902038E-01 0.  0.
         14    1    1    2    0    0 -0.19086204203E-01  0.11111060368E-01  0.93733146904E-02  0.23991621072E-01  0.00000000000E+00 0.  1.
     999901    1    3    3    0    0  0.88161714039E-01 -0.11719351739E+00 -0.15942224343E-01  0.89227852314E+00  0.88000000000E+00 0. -1.
        -11    1    4    4    0    0 -0.50587959455E-01  0.65057070681E-01  0.21309469571E-02  0.82440076075E-01  0.51100000000E-03 0.  1.
         11    1    4    4    0    0 -0.18487550381E-01  0.41025386339E-01  0.44379626955E-02  0.45219779713E-01  0.51100000000E-03 0. -1.
</event>
<event>
 8    1  0.5489035E+004  0.1043930E+01  0.7957747E-01            NaN
         13   -1    0    0    0    0  0.00000000000E+00  0.00000000000E+00  0.74505805969E-08  0.10566000000E+00  0.10566000000E+00 0. -1.
     999900   -1    0    0    0    0 -0.00000000000E+00 -0.00000000000E+00 -0.74505805969E-08  0.93827000000E+00  0.93827000000E+00 0.  1.
     999902    2    1    2    0    0  0.44009447201E-02 -0.15128122971E-02 -0.24158506941E-01  0.10193273503E+01  0.10190304003E+01 0.  0.
     999903    2    3    3    0    0 -0.31825566351E-01 -0.96477919960E-01 -0.80918484303E-01  0.13166050579E+00  0.21583140881E-01 0.  0.
         14    1    1    2    0    0 -0.44009447201E-02  0.15128122971E-02  0.24158506941E-01  0.24602649717E-01  0.00000000000E+00 0. -1.
     999901    1    3    3    0    0  0.36226511071E-01  0.94965107663E-01  0.56759977362E-01  0.88766684449E+00  0.88000000000E+00 0. -1.
        -11    1    4    4    0    0 -0.72621321805E-02 -0.32175848149E-01 -0.38935913048E-01  0.51032246803E-01  0.51100000000E-03 0. -1.
         11    1    4    4    0    0 -0.24563434171E-01 -0.64302071812E-01 -0.41982571255E-01  0.80628258989E-01  0.51100000000E-03 0.  1.
</event>
<event>
 8    1  0.5489035E+004  0.1043930E+01  0.7957747E-01            NaN
         13   -1    0    0    0    0  0.00000000000E+00  0.00000000000E+00  0.74505805969E-08  0.10566000000E+00  0.10566000000E+00 0. -1.
     999900   -1    0    0    0    0 -0.00000000000E+00 -0.00000000000E+00 -0.74505805969E-08  0.93827000000E+00  0.93827000000E+00 0. -1.
     999902    2    1    2    0    0 -0.11701474472E-01 -0.11502505633E-01  0.17231770766E-01  0.10201357556E+01  0.10198582224E+01 0.  0.
     999903    2    3    3    0    0 -0.90784238626E-01  0.85956318271E-01  0.34674119974E-01  0.13105952636E+00  0.18548267277E-01 0.  0.
         14    1    1    2    0    0  0.11701474472E-01  0.11502505633E-01 -0.17231770766E-01  0.23794244354E-01  0.00000000000E+00 0.  1.
     999901    1    3    3    0    0  0.79082764154E-01 -0.97458823904E-01 -0.17442349208E-01  0.88907622929E+00  0.88000000000E+00 0.  1.
        -11    1    4    4    0    0 -0.54307450360E-01  0.40289328235E-01  0.13958621720E-01  0.69048051208E-01  0.51100000000E-03 0.  1.
         11    1    4    4    0    0 -0.36476788266E-01  0.45666990036E-01  0.20715498253E-01  0.62011475148E-01  0.51100000000E-03 0. -1.
</event>
<event>
 8    1  0.5489035E+004  0.1043930E+01  0.7957747E-01            NaN
         13   -1    0    0    0    0  0.00000000000E+00  0.00000000000E+00  0.74505805969E-08  0.10566000000E+00  0.10566000000E+00 0. -1.
     999900   -1    0    0    0    0 -0.00000000000E+00 -0.00000000000E+00 -0.74505805969E-08  0.93827000000E+00  0.93827000000E+00 0. -1.
     999902    2    1    2    0    0  0.21461197858E-01 -0.78465760012E-02 -0.20468096892E-02  0.10209878728E+01  0.10207300796E+01 0.  0.
     999903    2    3    3    0    0  0.11282750564E+00 -0.18658287733E-01 -0.66726367202E-01  0.13383053592E+00  0.19494269235E-01 0.  0.
         14    1    1    2    0    0 -0.21461197858E-01  0.78465760012E-02  0.20468096892E-02  0.22942127154E-01  0.00000000000E+00 0. -1.
     999901    1    3    3    0    0 -0.91366307784E-01  0.10811711731E-01  0.64679557513E-01  0.88715733693E+00  0.88000000000E+00 0. -1.
        -11    1    4    4    0    0  0.54475390577E-01 -0.13037352849E-01 -0.42868876446E-01  0.70537525024E-01  0.51100000000E-03 0. -1.
         11    1    4    4    0    0  0.58352115065E-01 -0.56209348838E-02 -0.23857490756E-01  0.63293010891E-01  0.51100000000E-03 0.  1.
</event>
<event>
 8    1  0.5489035E+004  0.1043930E+01  0.7957747E-01            NaN
         13   -1    0    0    0    0  0.00000000000E+00  0.00000000000E+00  0.74505805969E-08  0.10566000000E+00  0.10566000000E+00 0.  1.
     999900   -1    0    0    0    0 -0.00000000000E+00 -0.00000000000E+00 -0.74505805969E-08  0.93827000000E+00  0.93827000000E+00 0.  1.
     999902    2    1    2    0    0  0.13159085892E-01 -0.20031451498E-01 -0.14033504688E-02  0.10199218767E+01  0.10196392718E+01 0.  0.
     999903    2    3    3    0    0  0.41843361397E-01  0.23234196847E-01 -0.11980691658E+00  0.13047592083E+00  0.19482655356E-01 0.  0.
         14    1    1    2    0    0 -0.13159085892E-01  0.20031451498E-01  0.14033504688E-02  0.24008123274E-01  0.00000000000E+00 0. -1.
     999901    1    3    3    0    0 -0.28684275505E-01 -0.43265648345E-01  0.11840356611E+00  0.88944595589E+00  0.88000000000E+00 0. -1.
        -11    1    4    4    0    0  0.22548813076E-01  0.38854825095E-02 -0.39567325127E-01  0.45709739489E-01  0.51100000000E-03 0. -1.
         11    1    4    4    0    0  0.19294548321E-01  0.19348714337E-01 -0.80239591456E-01  0.84766181342E-01  0.51100000000E-03 0.  1.
</event>
<event>
 8    1  0.5489035E+004  0.1043930E+01  0.7957747E-01            NaN
         13   -1    0    0    0    0  0.00000000000E+00  0.00000000000E+00  0.74505805969E-08  0.10566000000E+00  0.10566000000E+00 0.  1.
     999900   -1    0    0    0    0 -0.00000000000E+00 -0.00000000000E+00 -0.74505805969E-08  0.93827000000E+00  0.93827000000E+00 0. -1.
     999902    2    1    2    0    0 -0.25880014445E-01  0.99449649167E-02 -0.15743410832E-04  0.10162049622E+01  0.10158266818E+01 0.  0.
     999903    2    3    3    0    0 -0.48902114162E-01 -0.75928675053E-01 -0.87534647416E-01  0.12740585232E+00  0.20331164289E-01 0.  0.
         14    1    1    2    0    0  0.25880014445E-01 -0.99449649167E-02  0.15743410832E-04  0.27725037831E-01  0.00000000000E+00 0. -1.
     999901    1    3    3    0    0  0.23022099717E-01  0.85873639970E-01  0.87518904005E-01  0.88879910985E+00  0.88000000000E+00 0. -1.
        -11    1    4    4    0    0 -0.43524588483E-01 -0.58574116862E-01 -0.60315170797E-01  0.94675751479E-01  0.51100000000E-03 0.  1.
         11    1    4    4    0    0 -0.53775256794E-02 -0.17354558191E-01 -0.27219476619E-01  0.32730100838E-01  0.51100000000E-03 0. -1.
</event>
<event>
 8    1  0.5489035E+004  0.1043930E+01  0.7957747E-01            NaN
         13   -1    0    0    0    0  0.00000000000E+00  0.00000000000E+00  0.74505805969E-08  0.10566000000E+00  0.10566000000E+00 0. -1.
     999900   -1    0    0    0    0 -0.00000000000E+00 -0.00000000000E+00 -0.74505805969E-08  0.93827000000E+00  0.93827000000E+00 0.  1.
     999902    2    1    2    0    0  0.88328752610E-02 -0.13803046456E-01  0.17300351963E-01  0.10201004814E+01  0.10198221150E+01 0.  0.
     999903    2    3    3    0    0  0.60415061289E-01  0.11115149233E+00 -0.15486112787E-01  0.12917438408E+00  0.21013517958E-01 0.  0.
         14    1    1    2    0    0 -0.88328752610E-02  0.13803046456E-01 -0.17300351963E-01  0.23829518562E-01  0.00000000000E+00 0.  1.
     999901    1    3    3    0    0 -0.51582186028E-01 -0.12495453878E+00  0.32786464750E-01  0.89092609736E+00  0.88000000000E+00 0. -1.
        -11    1    4    4    0    0  0.46120686402E-01  0.65403251626E-01 -0.13803597179E-01  0.81212705001E-01  0.51100000000E-03 0.  1.
         11    1    4    4    0    0  0.14294374887E-01  0.45748240700E-01 -0.16825156080E-02  0.47961679082E-01  0.51100000000E-03 0. -1.
</event>
<event>
 8    1  0.5489035E+004  0.1043930E+01  0.7957747E-01            NaN
         13   -1    0    0    0    0  0.00000000000E+00  0.00000000000E+00  0.74505805969E-08  0.10566000000E+00  0.10566000000E+00 0.  1.
     999900   -1    0    0    0    0 -0.00000000000E+00 -0.00000000000E+00 -0.74505805969E-08  0.93827000000E+00  0.93827000000E+00 0. -1.
     999902    2    1    2    0    0  0.20838238594E-01  0.82704541383E-02 -0.73553151239E-02  0.10203348043E+01  0.10200619489E+01 0.  0.
     999903    2    3    3    0    0 -0.25407844227E-01  0.64802204730E-01  0.10781050677E+00  0.12983061816E+00  0.19697709454E-01 0.  0.
         14    1    1    2    0    0 -0.20838238594E-01 -0.82704541383E-02  0.73553151239E-02  0.23595195696E-01  0.00000000000E+00 0. -1.
     999901    1    3    3    0    0  0.46246082821E-01 -0.56531750592E-01 -0.11516582189E+00  0.89050418614E+00  0.88000000000E+00 0. -1.
        -11    1    4    4    0    0 -0.69545865023E-02  0.37369321869E-01  0.69556491426E-01  0.79266633024E-01  0.51100000000E-03 0. -1.
         11    1    4    4    0    0 -0.18453257725E-01  0.27432882861E-01  0.38254015339E-01  0.50563985140E-01  0.51100000000E-03 0.  1.
</event>
<event>
 8    1  0.5489035E+004  0.1043930E+01  0.7957747E-01            NaN
         13   -1    0    0    0    0  0.00000000000E+00  0.00000000000E+00  0.74505805969E-08  0.10566000000E+00  0.10566000000E+00 0.  1.
     999900   -1    0    0    0    0 -0.00000000000E+00 -0.00000000000E+00 -0.74505805969E-08  0.93827000000E+00  0.93827000000E+00 0. -1.
     999902    2    1    2    0    0 -0.17159213621E-01  0.92229507453E-02 -0.13241780928E-01  0.10203748266E+01  0.10201029068E+01 0.  0.
     999903    2    3    3    0    0  0.45672481732E-01 -0.96278110748E-01 -0.71639390327E-01  0.12993191617E+00  0.19865809753E-01 0.  0.
         14    1    1    2    0    0  0.17159213621E-01 -0.92229507453E-02  0.13241780928E-01  0.23555173417E-01  0.00000000000E+00 0.  1.
     999901    1    3    3    0    0 -0.62831695354E-01  0.10550106149E+00  0.58397609399E-01  0.89044291041E+00  0.88000000000E+00 0.  1.
        -11    1    4    4    0    0  0.50149237839E-03 -0.14602944518E-01 -0.58856198927E-02  0.15760682908E-01  0.51100000000E-03 0. -1.
         11    1    4    4    0    0  0.45170989354E-01 -0.81675166229E-01 -0.65753770434E-01  0.11417123326E+00  0.51100000000E-03 0.  1.
</event>
<event>
 8    1  0.5489035E+004  0.1043930E+01  0.7957747E-01            NaN
         13   -1    0    0    0    0  0.00000000000E+00  0.00000000000E+00  0.74505805969E-08  0.10566000000E+00  0.10566000000E+00 0. -1.
     999900   -1    0    0    0    0 -0.00000000000E+00 -0.00000000000E+00 -0.74505805969E-08  0.93827000000E+00  0.93827000000E+00 0.  1.
     999902    2    1    2    0    0 -0.65125502579E-02  0.13081311868E-01  0.17725734941E-01  0.10209575010E+01  0.10206990169E+01 0.  0.
     999903    2    3    3    0    0 -0.11997211446E+00  0.40323332641E-01  0.37915794442E-01  0.13302572496E+00  0.15458222049E-01 0.  0.
         14    1    1    2    0    0  0.65125502579E-02 -0.13081311868E-01 -0.17725734941E-01  0.22972498999E-01  0.00000000000E+00 0.  1.
     999901    1    3    3    0    0  0.11345956420E+00 -0.27242020773E-01 -0.20190059501E-01  0.88793177604E+00  0.88000000000E+00 0.  1.
        -11    1    4    4    0    0 -0.57089772597E-01  0.11843717045E-01  0.13971298323E-01  0.59958102592E-01  0.51100000000E-03 0. -1.
         11    1    4    4    0    0 -0.62882341864E-01  0.28479615596E-01  0.23944496119E-01  0.73067622366E-01  0.51100000000E-03 0.  1.
</event>
<event>
 8    1  0.5489035E+004  0.1043930E+01  0.7957747E-01            NaN
         13   -1    0    0    0    0  0.00000000000E+00  0.00000000000E+00  0.74505805969E-08  0.10566000000E+00  0.10566000000E+00 0. -1.
     999900   -1    0    0    0    0 -0.00000000000E+00 -0.00000000000E+00 -0.74505805969E-08  0.93827000000E+00  0.93827000000E+00 0. -1.
     999902    2    1    2    0    0  0.22425007955E-01 -0.13039234195E-01 -0.36768121965E-02  0.10177303519E+01  0.10173930645E+01 0.  0.
     999903    2    3    3    0    0  0.11234255939E+00 -0.14448944700E-01  0.62090476297E-01  0.13070583730E+00  0.19979139233E-01 0.  0.
         14    1    1    2    0    0 -0.22425007955E-01  0.13039234195E-01  0.36768121965E-02  0.26199648054E-01  0.00000000000E+00 0.  1.
     999901    1    3    3    0    0 -0.89917551438E-01  0.14097105050E-02 -0.65767288494E-01  0.88702451464E+00  0.88000000000E+00 0. -1.
        -11    1    4    4    0    0  0.67977260340E-01 -0.17634006364E-01  0.33341230025E-01  0.77741654500E-01  0.51100000000E-03 0.  1.
         11    1    4    4    0    0  0.44365299054E-01  0.31850616639E-02  0.28749246272E-01  0.52964182804E-01  0.51100000000E-03 0. -1.
</event>
<event>
 8    1  0.5489035E+004  0.1043930E+01  0.7957747E-01            NaN
         13   -1    0    0    0    0  0.00000000000E+00  0.00000000000E+00  0.74505805969E-08  0.10566000000E+00  0.10566000000E+00 0. -1.
     999900   -1    0    0    0    0 -0.00000000000E+00 -0.00000000000E+00 -0.74505805969E-08  0.93827000000E+00  0.93827000000E+00 0.  1.
     999902    2    1    2    0    0 -0.12142924364E-01 -0.17971914321E-01 -0.99690283995E-02  0.10200590586E+01  0.10197797121E+01 0.  0.
     999903    2    3    3    0    0  0.24250657981E-01 -0.50190964151E-01  0.11555135199E+00  0.12982429972E+00  0.19874771886E-01 0.  0.
         14    1    1    2    0    0  0.12142924364E-01  0.17971914321E-01  0.99690283995E-02  0.23870941408E-01  0.00000000000E+00 0. -1.
     999901    1    3    3    0    0 -0.36393582345E-01  0.32219049831E-01 -0.12552038039E+00  0.89023475887E+00  0.88000000000E+00 0.  1.
        -11    1    4    4    0    0  0.11329140218E-01 -0.42294220384E-01  0.90723278842E-01  0.10073790221E+00  0.51100000000E-03 0.  1.
         11    1    4    4    0    0  0.12921517763E-01 -0.78967437675E-02  0.24828073144E-01  0.29086397516E-01  0.51100000000E-03 0. -1.
</event>
<event>
 8    1  0.5489035E+004  0.1043930E+01  0.7957747E-01            NaN
         13   -1    0    0    0    0  0.00000000000E+00  0.00000000000E+00  0.74505805969E-08  0.10566000000E+00  0.10566000000E+00 0. -1.
     999900   -1    0    0    0    0 -0.00000000000E+00 -0.00000000000E+00 -0.74505805969E-08  0.93827000000E+00  0.93827000000E+00 0.  1.
     999902    2    1    2    0    0 -0.45884083491E-02  0.14664128922E-01 -0.17889647915E-01  0.10203475983E+01  0.10200750422E+01 0.  0.
     999903    2    3    3    0    0 -0.46859441032E-01  0.31746105563E-01 -0.11914213250E+00  0.13336918831E+00  0.19719792589E-01 0.  0.
         14    1    1    2    0    0  0.45884083491E-02 -0.14664128922E-01  0.17889647915E-01  0.23582401717E-01  0.00000000000E+00 0. -1.
     999901    1    3    3    0    0  0.42271032683E-01 -0.17081976642E-01  0.10125248459E+00  0.88697840998E+00  0.88000000000E+00 0. -1.
        -11    1    4    4    0    0 -0.33812631011E-01  0.24366247374E-01 -0.65227613626E-01  0.77407433282E-01  0.51100000000E-03 0.  1.
         11    1    4    4    0    0 -0.13046810021E-01  0.73798581896E-02 -0.53914518878E-01  0.55961755025E-01  0.51100000000E-03 0. -1.
</event>
<event>
 8    1  0.5489035E+004  0.1043930E+01  0.7957747E-01            NaN
         13   -1    0    0    0    0  0.00000000000E+00  0.00000000000E+00  0.74505805969E-08  0.10566000000E+00  0.10566000000E+00 0. -1.
     999900   -1    0    0    0    0 -0.00000000000E+00 -0.00000000000E+00 -0.74505805969E-08  0.93827000000E+00  0.93827000000E+00 0.  1.
     999902    2    1    2    0    0  0.23102407203E-01 -0.75006842584E-03 -0.59831468255E-02  0.10200536128E+01  0.10197741373E+01 0.  0.
     999903    2    3    3    0    0  0.97827046931E-01  0.19259332823E-01  0.84295314923E-01  0.13205904715E+00  0.19820161539E-01 0.  0.
         14    1    1    2    0    0 -0.23102407203E-01  0.75006842584E-03  0.59831468255E-02  0.23876387230E-01  0.00000000000E+00 0. -1.
     999901    1    3    3    0    0 -0.74724639728E-01 -0.20009401249E-01 -0.90278461748E-01  0.88799456562E+00  0.88000000000E+00 0.  1.
        -11    1    4    4    0    0  0.24324981097E-01  0.67284987440E-02  0.33029083413E-01  0.41571130281E-01  0.51100000000E-03 0. -1.
         11    1    4    4    0    0  0.73502065834E-01  0.12530834079E-01  0.51266231510E-01  0.90487916866E-01  0.51100000000E-03 0.  1.
</event>
<event>
 8    1  0.5489035E+004  0.1043930E+01  0.7957747E-01            NaN
         13   -1    0    0    0    0  0.00000000000E+00  0.00000000000E+00  0.74505805969E-08  0.10566000000E+00  0.10566000000E+00 0.  1.
     999900   -1    0    0    0    0 -0.00000000000E+00 -0.00000000000E+00 -0.74505805969E-08  0.93827000000E+00  0.93827000000E+00 0. -1.
     999902    2    1    2    0    0  0.26004736794E-01 -0.15509980273E-02 -0.87248670298E-02  0.10164568270E+01  0.10160854816E+01 0.  0.
     999903    2    3    3    0    0  0.81362801982E-01 -0.90724762354E-01 -0.39605523530E-01  0.12968171989E+00  0.19946501670E-01 0.  0.
         14    1    1    2    0    0 -0.26004736794E-01  0.15509980273E-02  0.87248670298E-02  0.27473173011E-01  0.00000000000E+00 0.  1.
     999901    1    3    3    0    0 -0.55358065187E-01  0.89173764326E-01  0.30880656501E-01  0.88677510710E+00  0.88000000000E+00 0.  1.
        -11    1    4    4    0    0  0.61465622266E-01 -0.62193943830E-01 -0.19821078814E-01  0.89661840579E-01  0.51100000000E-03 0.  1.
         11    1    4    4    0    0  0.19897179716E-01 -0.28530818523E-01 -0.19784444716E-01  0.40019879310E-01  0.51100000000E-03 0. -1.
</event>
<event>
 7    1  0.5489035E+004  0.1043930E+01  0.7957747E-01            NaN
         13   -1    0    0    0    0  0.00000000000E+00  0.00000000000E+00  0.74505805969E-08  0.10566000000E+00  0.10566000000E+00 0.  1.
     999900   -1    0    0    0    0 -0.00000000000E+00 -0.00000000000E+00 -0.74505805969E-08  0.93827000000E+00  0.93827000000E+00 0.  1.
     999903    2    1    2    0    0  0.88205239751E-05  0.90029685054E-01 -0.56564695849E-01  0.10793638607E+00  0.18583712029E-01 0.  0.
         14    1    1    2    0    0  0.23793857838E-01  0.36100306290E-01 -0.93735317202E-02  0.44240737810E-01  0.00000000000E+00 0. -1.
     999901    1    1    2    0    0 -0.23802678362E-01 -0.12612999134E+00  0.65938227569E-01  0.89175287612E+00  0.88000000000E+00 0. -1.
        -11    1    3    3    0    0  0.35335845346E-02  0.60108393958E-01 -0.27961350802E-01  0.66389784633E-01  0.51100000000E-03 0.  1.
         11    1    3    3    0    0 -0.35247640107E-02  0.29921291095E-01 -0.28603345047E-01  0.41546601437E-01  0.51100000000E-03 0. -1.
</event>
<event>
 8    1  0.5489035E+004  0.1043930E+01  0.7957747E-01            NaN
         13   -1    0    0    0    0  0.00000000000E+00  0.00000000000E+00  0.74505805969E-08  0.10566000000E+00  0.10566000000E+00 0. -1.
     999900   -1    0    0    0    0 -0.00000000000E+00 -0.00000000000E+00 -0.74505805969E-08  0.93827000000E+00  0.93827000000E+00 0. -1.
     999902    2    1    2    0    0 -0.41751533490E-02 -0.64488274867E-02  0.22884137133E-01  0.10197907578E+01  0.10195050204E+01 0.  0.
     999903    2    3    3    0    0  0.56423061288E-01  0.51038352249E-01 -0.10031283030E+00  0.12729178737E+00  0.18763260981E-01 0.  0.
         14    1    1    2    0    0  0.41751533490E-02  0.64488274867E-02 -0.22884137133E-01  0.24139242195E-01  0.00000000000E+00 0.  1.
     999901    1    3    3    0    0 -0.60598214637E-01 -0.57487179735E-01  0.12319696743E+00  0.89249897044E+00  0.88000000000E+00 0.  1.
        -11    1    4    4    0    0  0.49853188717E-01  0.35881091625E-01 -0.73423701619E-01  0.95729275783E-01  0.51100000000E-03 0. -1.
         11    1    4    4    0    0  0.65698725709E-02  0.15157260623E-01 -0.26889128680E-01  0.31562511582E-01  0.51100000000E-03 0.  1.
</event>
<event>
 8    1  0.5489035E+004  0.1043930E+01  0.7957747E-01            NaN
         13   -1    0    0    0    0  0.00000000000E+00  0.00000000000E+00  0.74505805969E-08  0.10566000000E+00  0.10566000000E+00 0. -1.
     999900   -1    0    0    0    0 -0.00000000000E+00 -0.00000000000E+00 -0.74505805969E-08  0.93827000000E+00  0.93827000000E+00 0.  1.
     999902    2    1    2    0    0 -0.18673314019E-01 -0.41294433870E-02 -0.11145881784E-01  0.10217946066E+01  0.10215548162E+01 0.  0.
     999903    2    3    3    0    0 -0.10340158091E+00 -0.57452268817E-01  0.58577165823E-01  0.13337831553E+00  0.19126959254E-01 0.  0.
         14    1    1    2    0    0  0.18673314019E-01  0.41294433870E-02  0.11145881784E-01  0.22135393375E-01  0.00000000000E+00 0.  1.
     999901    1    3    3    0    0  0.84728266889E-01  0.53322825430E-01 -0.69723047607E-01  0.88841629110E+00  0.88000000000E+00 0.  1.
        -11    1    4    4    0    0 -0.56183908422E-01 -0.23360111721E-01  0.37304232469E-01  0.71373617439E-01  0.51100000000E-03 0. -1.
         11    1    4    4    0    0 -0.47217672486E-01 -0.34092157096E-01  0.21272933354E-01  0.62004698087E-01  0.51100000000E-03 0.  1.
</event>
<event>
 8    1  0.5489035E+004  0.1043930E+01  0.7957747E-01            NaN
         13   -1    0    0    0    0  0.00000000000E+00  0.00000000000E+00  0.74505805969E-08  0.10566000000E+00  0.10566000000E+00 0.  1.
     999900   -1    0    0    0    0 -0.00000000000E+00 -0.00000000000E+00 -0.74505805969E-08  0.93827000000E+00  0.93827000000E+00 0.  1.
     999902    2    1    2    0    0  0.17230593839E-01  0.68977591651E-02 -0.15290344839E-01  0.10198828153E+01  0.10195992791E+01 0.  0.
     999903    2    3    3    0    0 -0.28707631899E-01 -0.47787007455E-01 -0.11683729097E+00  0.13116884190E+00  0.21132588937E-01 0.  0.
         14    1    1    2    0    0 -0.17230593839E-01 -0.68977591651E-02  0.15290344839E-01  0.24047184676E-01  0.00000000000E+00 0.  1.
     999901    1    3    3    0    0  0.45938225739E-01  0.54684766620E-01  0.10154694613E+00  0.88871397342E+00  0.88000000000E+00 0. -1.
        -11    1    4    4    0    0 -0.86184825485E-02 -0.31242254661E-01 -0.51669199692E-01  0.60994459056E-01  0.51100000000E-03 0. -1.
         11    1    4    4    0    0 -0.20089149351E-01 -0.16544752793E-01 -0.65168091275E-01  0.70174382848E-01  0.51100000000E-03 0.  1.
</event>
<event>
 8    1  0.5489035E+004  0.1043930E+01  0.7957747E-01            NaN
         13   -1    0    0    0    0  0.00000000000E+00  0.00000000000E+00  0.74505805969E-08  0.10566000000E+00  0.10566000000E+00 0. -1.
     999900   -1    0    0    0    0 -0.00000000000E+00 -0.00000000000E+00 -0.74505805969E-08  0.93827000000E+00  0.93827000000E+00 0. -1.
     999902    2    1    2    0    0  0.10269896657E-01  0.33166909414E-02  0.21855039452E-01  0.10195555469E+01  0.10192641459E+01 0.  0.
     999903    2    3    3    0    0 -0.96428908895E-01  0.11278357311E-01 -0.79761225089E-01  0.12726978073E+00  0.20248660299E-01 0.  0.
         14    1    1    2    0    0 -0.10269896657E-01 -0.33166909414E-02 -0.21855039452E-01  0.24374453135E-01  0.00000000000E+00 0.  1.
     999901    1    3    3    0    0  0.10669880555E+00 -0.79616663695E-02  0.10161626454E+00  0.89228576614E+00  0.88000000000E+00 0.  1.
        -11    1    4    4    0    0 -0.42024497467E-01 -0.51195917162E-02 -0.35067863884E-01  0.54975310868E-01  0.51100000000E-03 0.  1.
         11    1    4    4    0    0 -0.54404411428E-01  0.16397949027E-01 -0.44693361205E-01  0.72294469857E-01  0.51100000000E-03 0. -1.
</event>
<event>
 8    1  0.5489035E+004  0.1043930E+01  0.7957747E-01            NaN
         13   -1    0    0    0    0  0.00000000000E+00  0.00000000000E+00  0.74505805969E-08  0.10566000000E+00  0.10566000000E+00 0. -1.
     999900   -1    0    0    0    0 -0.00000000000E+00 -0.00000000000E+00 -0.74505805969E-08  0.93827000000E+00  0.93827000000E+00 0.  1.
     999902    2    1    2    0    0 -0.20640271573E-01  0.83115616021E-03 -0.21583101045E-01  0.10140545606E+01  0.10136143793E+01 0.  0.
     999903    2    3    3    0    0 -0.78036436783E-01 -0.43645338589E-01 -0.90032041583E-01  0.12841482803E+00  0.19748379697E-01 0.  0.
         14    1    1    2    0    0  0.20640271573E-01 -0.83115616021E-03  0.21583101045E-01  0.29875439443E-01  0.00000000000E+00 0. -1.
     999901    1    3    3    0    0  0.57396165210E-01  0.44476494749E-01  0.68448940538E-01  0.88563973252E+00  0.88000000000E+00 0. -1.
        -11    1    4    4    0    0 -0.27009879499E-01 -0.25972684137E-01 -0.39694125470E-01  0.54589363704E-01  0.51100000000E-03 0.  1.
         11    1    4    4    0    0 -0.51026557284E-01 -0.17672654452E-01 -0.50337916113E-01  0.73825464328E-01  0.51100000000E-03 0. -1.
</event>
<event>
 8    1  0.5489035E+004  0.1043930E+01  0.7957747E-01            NaN
         13   -1    0    0    0    0  0.00000000000E+00  0.00000000000E+00  0.74505805969E-08  0.10566000000E+00  0.10566000000E+00 0.  1.
     999900   -1    0    0    0    0 -0.00000000000E+00 -0.00000000000E+00 -0.74505805969E-08  0.93827000000E+00  0.93827000000E+00 0. -1.
     999902    2    1    2    0    0 -0.15073284817E-01 -0.48046334286E-02  0.17523524093E-01  0.10203214779E+01  0.10200483106E+01 0.  0.
     999903    2    3    3    0    0 -0.21676935967E-01  0.64975287238E-01  0.11167034275E+00  0.13252844518E+00  0.20046092587E-01 0.  0.
         14    1    1    2    0    0  0.15073284817E-01  0.48046334286E-02 -0.17523524093E-01  0.23608522067E-01  0.00000000000E+00 0. -1.
     999901    1    3    3    0    0  0.66036511495E-02 -0.69779920666E-01 -0.94146818658E-01  0.88779303275E+00  0.88000000000E+00 0. -1.
        -11    1    4    4    0    0 -0.21236533703E-01  0.38512959023E-01  0.79613699089E-01  0.90955156974E-01  0.51100000000E-03 0.  1.
         11    1    4    4    0    0 -0.44040226381E-03  0.26462328214E-01  0.32056643661E-01  0.41573288209E-01  0.51100000000E-03 0. -1.
</event>
<event>
 8    1  0.5489035E+004  0.1043930E+01  0.7957747E-01            NaN
         13   -1    0    0    0    0  0.00000000000E+00  0.00000000000E+00  0.74505805969E-08  0.10566000000E+00  0.10566000000E+00 0. -1.
     999900   -1    0    0    0    0 -0.00000000000E+00 -0.00000000000E+00 -0.74505805969E-08  0.93827000000E+00  0.93827000000E+00 0.  1.
     999902    2    1    2    0    0  0.55998810848E-02 -0.18080852950E-02 -0.22912221348E-01  0.10202741819E+01  0.10199999062E+01 0.  0.
     999903    2    3    3    0    0  0.25853303435E-01 -0.15606066347E-01  0.12261175526E+00  0.12798621657E+00  0.20853932421E-01 0.  0.
         14    1    1    2    0    0 -0.55998810848E-02  0.18080852950E-02  0.22912221348E-01  0.23655818052E-01  0.00000000000E+00 0. -1.
     999901    1    3    3    0    0 -0.20253422350E-01  0.13797981052E-01 -0.14552397661E+00  0.89228796538E+00  0.88000000000E+00 0.  1.
        -11    1    4    4    0    0 -0.97390160380E-03  0.10854010139E-02  0.31726460088E-01  0.31764067283E-01  0.51100000000E-03 0. -1.
         11    1    4    4    0    0  0.26827205038E-01 -0.16691467361E-01  0.90885295173E-01  0.96222149282E-01  0.51100000000E-03 0.  1.
</event>
<event>
 8    1  0.5489035E+004  0.1043930E+01  0.7957747E-01            NaN
         13   -1    0    0    0    0  0.00000000000E+00  0.00000000000E+00  0.74505805969E-08  0.10566000000E+00  0.10566000000E+00 0. -1.
     999900   -1    0    0    0    0 -0.00000000000E+00 -0.00000000000E+00 -0.74505805969E-08  0.93827000000E+00  0.93827000000E+00 0.  1.
     999902    2    1    2    0    0  0.17233788433E-01 -0.14171298067E-01 -0.73805368623E-02  0.10204289048E+01  0.10201582467E+01 0.  0.
     999903    2    3    3    0    0  0.14080731054E-01 -0.11828971621E+00 -0.55662397420E-01  0.13297089178E+00  0.19804838401E-01 0.  0.
         14    1    1    2    0    0 -0.17233788433E-01  0.14171298067E-01  0.73805368623E-02  0.23501095231E-01  0.00000000000E+00 0.  1.
     999901    1    3    3    0    0  0.31530573790E-02  0.10411841815E+00  0.48281860558E-01  0.88745801299E+00  0.88000000000E+00 0. -1.
        -11    1    4    4    0    0 -0.41711540706E-02 -0.46286063363E-01 -0.21655013808E-01  0.51273764558E-01  0.51100000000E-03 0.  1.
         11    1    4    4    0    0  0.18251885125E-01 -0.72003652850E-01 -0.34007383613E-01  0.81697127217E-01  0.51100000000E-03 0. -1.
</event>
<event>
 8    1  0.5489035E+004  0.1043930E+01  0.7957747E-01            NaN
         13   -1    0    0    0    0  0.00000000000E+00  0.00000000000E+00  0.74505805969E-08  0.10566000000E+00  0.10566000000E+00 0. -1.
     999900   -1    0    0    0    0 -0.00000000000E+00 -0.00000000000E+00 -0.74505805969E-08  0.93827000000E+00  0.93827000000E+00 0. -1.
     999902    2    1    2    0    0  0.12933920812E-01 -0.18349640873E-01  0.78530979408E-02  0.10201462498E+01  0.10198689642E+01 0.  0.
     999903    2    3    3    0    0 -0.57743074642E-01  0.93404710650E-01 -0.61808558460E-01  0.12754498429E+00  0.19716046178E-01 0.  0.
         14    1    1    2    0    0 -0.12933920812E-01  0.18349640873E-01 -0.78530979408E-02  0.23783750230E-01  0.00000000000E+00 0.  1.
     999901    1    3    3    0    0  0.70676995454E-01 -0.11175435152E+00  0.69661656401E-01  0.89260126548E+00  0.88000000000E+00 0.  1.
        -11    1    4    4    0    0 -0.15900673357E-01  0.17889077112E-01 -0.57937484241E-02  0.24630857373E-01  0.51100000000E-03 0.  1.
         11    1    4    4    0    0 -0.41842401285E-01  0.75515633538E-01 -0.56014810036E-01  0.10291412691E+00  0.51100000000E-03 0. -1.
</event>
<event>
 8    1  0.5489035E+004  0.1043930E+01  0.7957747E-01            NaN
         13   -1    0    0    0    0  0.00000000000E+00  0.00000000000E+00  0.74505805969E-08  0.10566000000E+00  0.10566000000E+00 0. -1.
     999900   -1    0    0    0    0 -0.00000000000E+00 -0.00000000000E+00 -0.74505805969E-08  0.93827000000E+00  0.93827000000E+00 0. -1.
     999902    2    1    2    0    0  0.13686750774E-01 -0.16728505524E-01  0.99057720232E-02  0.10201540802E+01  0.10198769793E+01 0.  0.
     999903    2    3    3    0    0  0.13051172474E+00 -0.44406990600E-02 -0.46229486015E-02  0.13222945024E+00  0.20254030573E-01 0.  0.
         14    1    1    2    0    0 -0.13686750774E-01  0.16728505524E-01 -0.99057720232E-02  0.23775919818E-01  0.00000000000E+00 0.  1.
     999901    1    3    3    0    0 -0.11682497397E+00 -0.12287806464E-01  0.14528720625E-01  0.88792462994E+00  0.88000000000E+00 0. -1.
        -11    1    4    4    0    0  0.89483350398E-01  0.37707991663E-02 -0.96536397172E-02  0.90082977336E-01  0.51100000000E-03 0.  1.
         11    1    4    4    0    0  0.41028374343E-01 -0.82114982263E-02  0.50306911156E-02  0.42146472907E-01  0.51100000000E-03 0. -1.
</event>
<event>
 8    1  0.5489035E+004  0.1043930E+01  0.7957747E-01            NaN
         13   -1    0    0    0    0  0.00000000000E+00  0.00000000000E+00  0.74505805969E-08  0.10566000000E+00  0.10566000000E+00 0.  1.
     999900   -1    0    0    0    0 -0.00000000000E+00 -0.00000000000E+00 -0.74505805969E-08  0.93827000000E+00  0.93827000000E+00 0.  1.
     999902    2    1    2    0    0 -0.83526587282E-02 -0.18774323651E-01  0.10867661516E-01  0.10206846090E+01  0.10204198758E+01 0.  0.
     999903    2    3    3    0    0  0.65820972746E-01  0.10875198612E+00  0.40430430623E-02  0.12837790011E+00  0.17468374310E-01 0.  0.
         14    1    1    2    0    0  0.83526587282E-02  0.18774323651E-01 -0.10867661516E-01  0.23245391010E-01  0.00000000000E+00 0. -1.
     999901    1    3    3    0    0 -0.74173631475E-01 -0.12752630977E+00  0.68246184539E-02  0.89230670888E+00  0.88000000000E+00 0. -1.
        -11    1    4    4    0    0  0.23869053196E-01  0.49869254855E-01  0.85035994132E-02  0.55939669325E-01  0.51100000000E-03 0. -1.
         11    1    4    4    0    0  0.41951919551E-01  0.58882731268E-01 -0.44605563508E-02  0.72438230787E-01  0.51100000000E-03 0.  1.
</event>
<event>
 8    1  0.5489035E+004  0.1043930E+01  0.7957747E-01            NaN
         13   -1    0    0    0    0  0.00000000000E+00  0.00000000000E+00  0.74505805969E-08  0.10566000000E+00  0.10566000000E+00 0.  1.
     999900   -1    0    0    0    0 -0.00000000000E+00 -0.00000000000E+00 -0.74505805969E-08  0.93827000000E+00  0.93827000000E+00 0. -1.
     999902    2    1    2    0    0  0.22657516075E-01 -0.14128240759E-02  0.55397346747E-02  0.10205623350E+01  0.10202947770E+01 0.  0.
     999903    2    3    3    0    0  0.12775750906E+00 -0.45149899716E-02  0.32784320726E-01  0.13388432163E+00  0.22535164453E-01 0.  0.
         14    1    1    2    0    0 -0.22657516075E-01  0.14128240759E-02 -0.55397346747E-02  0.23367664985E-01  0.00000000000E+00 0.  1.
     999901    1    3    3    0    0 -0.10509999298E+00  0.31021658957E-02 -0.27244586051E-01  0.88667801339E+00  0.88000000000E+00 0. -1.
        -11    1    4    4    0    0  0.59526023174E-01 -0.77102169172E-02  0.25399418799E-01  0.65178113475E-01  0.51100000000E-03 0. -1.
         11    1    4    4    0    0  0.68231485883E-01  0.31952269456E-02  0.73849019271E-02  0.68706208152E-01  0.51100000000E-03 0.  1.
</event>
<event>
 8    1  0.5489035E+004  0.1043930E+01  0.7957747E-01            NaN
         13   -1    0    0    0    0  0.00000000000E+00  0.00000000000E+00  0.74505805969E-08  0.10566000000E+00  0.10566000000E+00 0. -1.
     999900   -1    0    0    0    0 -0.00000000000E+00 -0.00000000000E+00 -0.74505805969E-08  0.93827000000E+00  0.93827000000E+00 0. -1.
     999902    2    1    2    0    0 -0.96341397340E-04  0.10282212887E-02 -0.23178447239E-01  0.10207285574E+01  0.10204648358E+01 0.  0.
     999903    2    3    3    0    0 -0.62181085599E-01 -0.10718309407E+00 -0.40141302297E-01  0.13176739817E+00  0.19915320947E-01 0.  0.
         14    1    1    2    0    0  0.96341397340E-04 -0.10282212887E-02  0.23178447239E-01  0.23201442565E-01  0.00000000000E+00 0. -1.
     999901    1    3    3    0    0  0.62084744202E-01  0.10821131536E+00  0.16962855058E-01  0.88896115927E+00  0.88000000000E+00 0. -1.
        -11    1    4    4    0    0 -0.21535747724E-01 -0.52312153633E-01 -0.24839919536E-01  0.61786993545E-01  0.51100000000E-03 0.  1.
         11    1    4    4    0    0 -0.40645337876E-01 -0.54870940440E-01 -0.15301382761E-01  0.69980404623E-01  0.51100000000E-03 0. -1.
</event>
<event>
 8    1  0.5489035E+004  0.1043930E+01  0.7957747E-01            NaN
         13   -1    0    0    0    0  0.00000000000E+00  0.00000000000E+00  0.74505805969E-08  0.10566000000E+00  0.10566000000E+00 0. -1.
     999900   -1    0    0    0    0 -0.00000000000E+00 -0.00000000000E+00 -0.74505805969E-08  0.93827000000E+00  0.93827000000E+00 0.  1.
     999902    2    1    2    0    0  0.10409789421E-01  0.19810399647E-01  0.71339157636E-02  0.10204415261E+01  0.10201711620E+01 0.  0.
     999903    2    3    3    0    0  0.23038244820E-02 -0.19925641935E-01 -0.12578836267E+00  0.12953581184E+00  0.23547304559E-01 0.  0.
         14    1    1    2    0    0 -0.10409789421E-01 -0.19810399647E-01 -0.71339157636E-02  0.23488473856E-01  0.00000000000E+00 0. -1.
     999901    1    3    3    0    0  0.81059649386E-02  0.39736041582E-01  0.13292227844E+00  0.89090571430E+00  0.88000000000E+00 0. -1.
        -11    1    4    4    0    0 -0.10307980279E-01 -0.53846426025E-02 -0.50476241056E-01  0.51801166643E-01  0.51100000000E-03 0. -1.
         11    1    4    4    0    0  0.12611804761E-01 -0.14540999333E-01 -0.75312121618E-01  0.77734645201E-01  0.51100000000E-03 0.  1.
</event>
<event>
 8    1  0.5489035E+004  0.1043930E+01  0.7957747E-01            NaN
         13   -1    0    0    0    0  0.00000000000E+00  0.00000000000E+00  0.74505805969E-08  0.10566000000E+00  0.10566000000E+00 0.  1.
     999900   -1    0    0    0    0 -0.00000000000E+00 -0.00000000000E+00 -0.74505805969E-08  0.93827000000E+00  0.93827000000E+00 0.  1.
     999902    2    1    2    0    0 -0.10993593601E-01 -0.13596812104E-01 -0.14873880489E-01  0.10209742878E+01  0.10207161857E+01 0.  0.
     999903    2    3    3    0    0 -0.10504982671E+00 -0.50923497129E-02  0.75822218797E-01  0.13128631822E+00  0.20632265339E-01 0.  0.
         14    1    1    2    0    0  0.10993593601E-01  0.13596812104E-01  0.14873880489E-01  0.22955712153E-01  0.00000000000E+00 0.  1.
     999901    1    3    3    0    0  0.94056233104E-01 -0.85044623909E-02 -0.90696099287E-01  0.88968796962E+00  0.88000000000E+00 0.  1.
        -11    1    4    4    0    0 -0.49476655730E-01  0.52199477889E-02  0.27065313279E-01  0.56639029133E-01  0.51100000000E-03 0.  1.
         11    1    4    4    0    0 -0.55573170975E-01 -0.10312297502E-01  0.48756905518E-01  0.74647289091E-01  0.51100000000E-03 0. -1.
</event>
<event>
 8    1  0.5489035E+004  0.1043930E+01  0.7957747E-01            NaN
         13   -1    0    0    0    0  0.00000000000E+00  0.00000000000E+00  0.74505805969E-08  0.10566000000E+00  0.10566000000E+00 0. -1.
     999900   -1    0    0    0    0 -0.00000000000E+00 -0.00000000000E+00 -0.74505805969E-08  0.93827000000E+00  0.93827000000E+00 0.  1.
     999902    2    1    2    0    0  0.51213699861E-02  0.15391111544E-01 -0.17852278210E-01  0.10198090841E+01  0.10195237856E+01 0.  0.
     999903    2    3    3    0    0  0.74545450742E-01  0.10702019248E+00 -0.95794390886E-02  0.13229343282E+00  0.19986017346E-01 0.  0.
         14    1    1    2    0    0 -0.51213699861E-02 -0.15391111544E-01  0.17852278210E-01  0.24120915869E-01  0.00000000000E+00 0. -1.
     999901    1    3    3    0    0 -0.69424080755E-01 -0.91629080932E-01 -0.82728391212E-02  0.88751565131E+00  0.88000000000E+00 0.  1.
        -11    1    4    4    0    0  0.34415425908E-01  0.54972238467E-01  0.47256937635E-02  0.65030468590E-01  0.51100000000E-03 0.  1.
         11    1    4    4    0    0  0.40130024834E-01  0.52047954009E-01 -0.14305132852E-01  0.67262964227E-01  0.51100000000E-03 0. -1.
</event>
<event>
 8    1  0.5489035E+004  0.1043930E+01  0.7957747E-01            NaN
         13   -1    0    0    0    0  0.00000000000E+00  0.00000000000E+00  0.74505805969E-08  0.10566000000E+00  0.10566000000E+00 0. -1.
     999900   -1    0    0    0    0 -0.00000000000E+00 -0.00000000000E+00 -0.74505805969E-08  0.93827000000E+00  0.93827000000E+00 0. -1.
     999902    2    1    2    0    0  0.14955000287E-01 -0.53503439063E-02 -0.17281877624E-01  0.10204578568E+01  0.10201878729E+01 0.  0.
     999903    2    3    3    0    0  0.10394546626E-01  0.12381443468E+00 -0.35761075281E-01  0.13082545038E+00  0.19959537251E-01 0.  0.
         14    1    1    2    0    0 -0.14955000287E-01  0.53503439063E-02  0.17281877624E-01  0.23472143228E-01  0.00000000000E+00 0. -1.
     999901    1    3    3    0    0  0.45604536613E-02 -0.12916477858E+00  0.18479197657E-01  0.88963240640E+00  0.88000000000E+00 0. -1.
        -11    1    4    4    0    0  0.38574164265E-02  0.11101886903E+00 -0.28338310548E-01  0.11464462441E+00  0.51100000000E-03 0.  1.
         11    1    4    4    0    0  0.65371301992E-02  0.12795565649E-01 -0.74227647333E-02  0.16180825962E-01  0.51100000000E-03 0. -1.
</event>
<event>
 8    1  0.5489035E+004  0.1043930E+01  0.7957747E-01            NaN
         13   -1    0    0    0    0  0.00000000000E+00  0.00000000000E+00  0.74505805969E-08  0.10566000000E+00  0.10566000000E+00 0.  1.
     999900   -1    0    0    0    0 -0.00000000000E+00 -0.00000000000E+00 -0.74505805969E-08  0.93827000000E+00  0.93827000000E+00 0. -1.
     999902    2    1    2    0    0 -0.21912385191E-01  0.14392010238E-02  0.85370152381E-02  0.10203693431E+01  0.10200972953E+01 0.  0.
     999903    2    3    3    0    0  0.40426918747E-02  0.12185700432E+00  0.43697072884E-01  0.13109416464E+00  0.20267534734E-01 0.  0.
         14    1    1    2    0    0  0.21912385191E-01 -0.14392010238E-02 -0.85370152381E-02  0.23560656899E-01  0.00000000000E+00 0. -1.
     999901    1    3    3    0    0 -0.25955077066E-01 -0.12041780330E+00 -0.35160057646E-01  0.88927517846E+00  0.88000000000E+00 0. -1.
        -11    1    4    4    0    0 -0.81809885685E-02  0.48270581870E-01  0.18928795014E-01  0.52493219083E-01  0.51100000000E-03 0.  1.
         11    1    4    4    0    0  0.12223680443E-01  0.73586422449E-01  0.24768277870E-01  0.78600945555E-01  0.51100000000E-03 0. -1.
</event>
<event>
 8    1  0.5489035E+004  0.1043930E+01  0.7957747E-01            NaN
         13   -1    0    0    0    0  0.00000000000E+00  0.00000000000E+00  0.74505805969E-08  0.10566000000E+00  0.10566000000E+00 0. -1.
     999900   -1    0    0    0    0 -0.00000000000E+00 -0.00000000000E+00 -0.74505805969E-08  0.93827000000E+00  0.93827000000E+00 0.  1.
     999902    2    1    2    0    0 -0.21435685722E-01 -0.53786516280E-02 -0.88463147283E-02  0.10201250467E+01  0.10198472607E+01 0.  0.
     999903    2    3    3    0    0  0.65604584712E-01 -0.95632088917E-01  0.53144268894E-01  0.12907817699E+00  0.19682593672E-01 0.  0.
         14    1    1    2    0    0  0.21435685722E-01  0.53786516280E-02  0.88463147283E-02  0.23804953265E-01  0.00000000000E+00 0.  1.
     999901    1    3    3    0    0 -0.87040270433E-01  0.90253437289E-01 -0.61990583622E-01  0.89104686974E+00  0.88000000000E+00 0.  1.
        -11    1    4    4    0    0  0.87333193723E-02 -0.43552646517E-02  0.71565790510E-02  0.12112676920E-01  0.51100000000E-03 0. -1.
         11    1    4    4    0    0  0.56871265340E-01 -0.91276824265E-01  0.45987689843E-01  0.11696550007E+00  0.51100000000E-03 0.  1.
</event>
<event>
 8    1  0.5489035E+004  0.1043930E+01  0.7957747E-01            NaN
         13   -1    0    0    0    0  0.00000000000E+00  0.00000000000E+00  0.74505805969E-08  0.10566000000E+00  0.10566000000E+00 0. -1.
     999900   -1    0    0    0    0 -0.00000000000E+00 -0.00000000000E+00 -0.74505805969E-08  0.93827000000E+00  0.93827000000E+00 0. -1.
     999902    2    1    2    0    0 -0.13251153757E-01  0.12750480704E-01 -0.14599369647E-01  0.10204500207E+01  0.10201798544E+01 0.  0.
     999903    2    3    3    0    0 -0.65035155130E-01  0.87531037037E-01  0.71263560874E-01  0.13160461387E+00  0.18708966697E-01 0.  0.
         14    1    1    2    0    0  0.13251153757E-01 -0.12750480704E-01  0.14599369647E-01  0.23479979305E-01  0.00000000000E+00 0. -1.
     999901    1    3    3    0    0  0.51784001373E-01 -0.74780556333E-01 -0.85862930521E-01  0.88884540683E+00  0.88000000000E+00 0. -1.
        -11    1    4    4    0    0 -0.53450777355E-01  0.62775254745E-01  0.46170417873E-01  0.94497020142E-01  0.51100000000E-03 0. -1.
         11    1    4    4    0    0 -0.11584377775E-01  0.24755782292E-01  0.25093143002E-01  0.37107593725E-01  0.51100000000E-03 0.  1.
</event>
<event>
 8    1  0.5489035E+004  0.1043930E+01  0.7957747E-01            NaN
         13   -1    0    0    0    0  0.00000000000E+00  0.00000000000E+00  0.74505805969E-08  0.10566000000E+00  0.10566000000E+00 0. -1.
     999900   -1    0    0    0    0 -0.00000000000E+00 -0.00000000000E+00 -0.74505805969E-08  0.93827000000E+00  0.93827000000E+00 0. -1.
     999902    2    1    2    0    0 -0.20962195349E-01  0.27705003058E-02 -0.21809896009E-01  0.10135530207E+01  0.10130977075E+01 0.  0.
     999903    2    3    3    0    0  0.66631811635E-01 -0.91954329732E-01  0.39752276139E-01  0.12201760106E+00  0.20313897502E-01 0.  0.
         14    1    1    2    0    0  0.20962195349E-01 -0.27705003058E-02  0.21809896009E-01  0.30376979272E-01  0.00000000000E+00 0. -1.
     999901    1    3    3    0    0 -0.87594006984E-01  0.94724830037E-01 -0.61562172148E-01  0.89153541967E+00  0.88000000000E+00 0.  1.
        -11    1    4    4    0    0  0.58889977222E-01 -0.69127817346E-01  0.35662413470E-01  0.97564098949E-01  0.51100000000E-03 0. -1.
         11    1    4    4    0    0  0.77418344128E-02 -0.22826512386E-01  0.40898626696E-02  0.24453502110E-01  0.51100000000E-03 0.  1.
</event>
<event>
 8    1  0.5489035E+004  0.1043930E+01  0.7957747E-01            NaN
         13   -1    0    0    0    0  0.00000000000E+00  0.00000000000E+00  0.74505805969E-08  0.10566000000E+00  0.10566000000E+00 0. -1.
     999900   -1    0    0    0    0 -0.00000000000E+00 -0.00000000000E+00 -0.74505805969E-08  0.93827000000E+00  0.93827000000E+00 0. -1.
     999902    2    1    2    0    0 -0.10682373173E-01 -0.32408375518E-02  0.20547778287E-01  0.10205456609E+01  0.10202777164E+01 0.  0.
     999903    2    3    3    0    0  0.78364170358E-01 -0.99681038406E-01 -0.20428091349E-01  0.12986669448E+00  0.19256136812E-01 0.  0.
         14    1    1    2    0    0  0.10682373173E-01  0.32408375518E-02 -0.20547778287E-01  0.23384339144E-01  0.00000000000E+00 0.  1.
     999901    1    3    3    0    0 -0.89046543531E-01  0.96440200854E-01  0.40975869637E-01  0.89067896638E+00  0.88000000000E+00 0.  1.
        -11    1    4    4    0    0  0.70318354606E-01 -0.96834709418E-01 -0.18408208617E-01  0.12108160557E+00  0.51100000000E-03 0.  1.
         11    1    4    4    0    0  0.80458157529E-02 -0.28463289883E-02 -0.20198827320E-02  0.87850889063E-02  0.51100000000E-03 0. -1.
</event>
<event>
 8    1  0.5489035E+004  0.1043930E+01  0.7957747E-01            NaN
         13   -1    0    0    0    0  0.00000000000E+00  0.00000000000E+00  0.74505805969E-08  0.10566000000E+00  0.10566000000E+00 0.  1.
     999900   -1    0    0    0    0 -0.00000000000E+00 -0.00000000000E+00 -0.74505805969E-08  0.93827000000E+00  0.93827000000E+00 0. -1.
     999902    2    1    2    0    0  0.13041679431E-02  0.50569493627E-02  0.23174336738E-01  0.10201745064E+01  0.10198978871E+01 0.  0.
     999903    2    3    3    0    0 -0.23602721713E-01  0.70536209112E-01  0.10941326130E+00  0.13318801347E+00  0.15340792549E-01 0.  0.
         14    1    1    2    0    0 -0.13041679431E-02 -0.50569493627E-02 -0.23174336738E-01  0.23755493556E-01  0.00000000000E+00 0.  1.
     999901    1    3    3    0    0  0.24906889656E-01 -0.65479259750E-01 -0.86238924560E-01  0.88698649297E+00  0.88000000000E+00 0.  1.
        -11    1    4    4    0    0 -0.16867031365E-01  0.46115833867E-01  0.84007126981E-01  0.97306861962E-01  0.51100000000E-03 0.  1.
         11    1    4    4    0    0 -0.67356903481E-02  0.24420375245E-01  0.25406134316E-01  0.35881151507E-01  0.51100000000E-03 0. -1.
</event>
<event>
 8    1  0.5489035E+004  0.1043930E+01  0.7957747E-01            NaN
         13   -1    0    0    0    0  0.00000000000E+00  0.00000000000E+00  0.74505805969E-08  0.10566000000E+00  0.10566000000E+00 0. -1.
     999900   -1    0    0    0    0 -0.00000000000E+00 -0.00000000000E+00 -0.74505805969E-08  0.93827000000E+00  0.93827000000E+00 0. -1.
     999902    2    1    2    0    0 -0.14341294327E-01  0.11718652099E-01 -0.15031256299E-01  0.10200775746E+01  0.10197986664E+01 0.  0.
     999903    2    3    3    0    0  0.92557937837E-01 -0.85941313368E-01  0.69797183003E-02  0.12797365821E+00  0.19381938194E-01 0.  0.
         14    1    1    2    0    0  0.14341294327E-01 -0.11718652099E-01  0.15031256299E-01  0.23852425368E-01  0.00000000000E+00 0. -1.
     999901    1    3    3    0    0 -0.10689923216E+00  0.97659965467E-01 -0.22010974600E-01  0.89210391642E+00  0.88000000000E+00 0.  1.
        -11    1    4    4    0    0  0.45158957256E-01 -0.29603841175E-01  0.60882195351E-02  0.54341939337E-01  0.51100000000E-03 0.  1.
         11    1    4    4    0    0  0.47398980580E-01 -0.56337472194E-01  0.89149876518E-03  0.73631718874E-01  0.51100000000E-03 0. -1.
</event>
<event>
 8    1  0.5489035E+004  0.1043930E+01  0.7957747E-01            NaN
         13   -1    0    0    0    0  0.00000000000E+00  0.00000000000E+00  0.74505805969E-08  0.10566000000E+00  0.10566000000E+00 0. -1.
     999900   -1    0    0    0    0 -0.00000000000E+00 -0.00000000000E+00 -0.74505805969E-08  0.93827000000E+00  0.93827000000E+00 0. -1.
     999902    2    1    2    0    0  0.24382638413E-01  0.24536227120E-02 -0.94480507650E-03  0.10194060122E+01  0.10191109811E+01 0.  0.
     999903    2    3    3    0    0  0.78655838288E-01  0.70271348528E-01 -0.76582128565E-01  0.13190061569E+00  0.20202640466E-01 0.  0.
         14    1    1    2    0    0 -0.24382638413E-01 -0.24536227120E-02  0.94480507650E-03  0.24523987788E-01  0.00000000000E+00 0.  1.
     999901    1    3    3    0    0 -0.54273199875E-01 -0.67817725816E-01  0.75637323488E-01  0.88750539653E+00  0.88000000000E+00 0.  1.
        -11    1    4    4    0    0  0.37440210771E-01  0.28572564823E-01 -0.45722896544E-01  0.65643013585E-01  0.51100000000E-03 0.  1.
         11    1    4    4    0    0  0.41215627517E-01  0.41698783706E-01 -0.30859232021E-01  0.66257602100E-01  0.51100000000E-03 0. -1.
</event>
<event>
 8    1  0.5489035E+004  0.1043930E+01  0.7957747E-01            NaN
         13   -1    0    0    0    0  0.00000000000E+00  0.00000000000E+00  0.74505805969E-08  0.10566000000E+00  0.10566000000E+00 0.  1.
     999900   -1    0    0    0    0 -0.00000000000E+00 -0.00000000000E+00 -0.74505805969E-08  0.93827000000E+00  0.93827000000E+00 0. -1.
     999902    2    1    2    0    0  0.18798309323E-01 -0.66840996285E-02  0.13572035275E-01  0.10198000650E+01  0.10195145506E+01 0.  0.
     999903    2    3    3    0    0  0.12382414281E+00 -0.12184915836E-01  0.42754064549E-01  0.13305755700E+00  0.19887506693E-01 0.  0.
         14    1    1    2    0    0 -0.18798309323E-01  0.66840996285E-02 -0.13572035275E-01  0.24129934993E-01  0.00000000000E+00 0. -1.
     999901    1    3    3    0    0 -0.10502583349E+00  0.55008162071E-02 -0.29182029274E-01  0.88674250801E+00  0.88000000000E+00 0.  1.
        -11    1    4    4    0    0  0.54404161685E-01  0.23327739248E-02  0.12054312812E-01  0.55774745371E-01  0.51100000000E-03 0. -1.
         11    1    4    4    0    0  0.69419981124E-01 -0.14517689760E-01  0.30699751737E-01  0.77282811627E-01  0.51100000000E-03 0.  1.
</event>
<event>
 8    1  0.5489035E+004  0.1043930E+01  0.7957747E-01            NaN
         13   -1    0    0    0    0  0.00000000000E+00  0.00000000000E+00  0.74505805969E-08  0.10566000000E+00  0.10566000000E+00 0. -1.
     999900   -1    0    0    0    0 -0.00000000000E+00 -0.00000000000E+00 -0.74505805969E-08  0.93827000000E+00  0.93827000000E+00 0.  1.
     999902    2    1    2    0    0 -0.16394803117E-01 -0.44332966959E-02  0.14432570126E-01  0.10216422731E+01  0.10213991343E+01 0.  0.
     999903    2    3    3    0    0  0.10378983367E+00  0.30849094020E-01 -0.67190306025E-01  0.12903290284E+00  0.20272064893E-01 0.  0.
         14    1    1    2    0    0  0.16394803117E-01  0.44332966959E-02 -0.14432570126E-01  0.22287726875E-01  0.00000000000E+00 0.  1.
     999901    1    3    3    0    0 -0.12018463679E+00 -0.35282390716E-01  0.81622876150E-01  0.89260937029E+00  0.88000000000E+00 0. -1.
        -11    1    4    4    0    0  0.73208959494E-01  0.30989949784E-01 -0.46388717967E-01  0.92044027582E-01  0.51100000000E-03 0. -1.
         11    1    4    4    0    0  0.30580874179E-01 -0.14085576445E-03 -0.20801588058E-01  0.36988875255E-01  0.51100000000E-03 0.  1.
</event>
<event>
 8    1  0.5489035E+004  0.1043930E+01  0.7957747E-01            NaN
         13   -1    0    0    0    0  0.00000000000E+00  0.00000000000E+00  0.74505805969E-08  0.10566000000E+00  0.10566000000E+00 0.  1.
     999900   -1    0    0    0    0 -0.00000000000E+00 -0.00000000000E+00 -0.74505805969E-08  0.93827000000E+00  0.93827000000E+00 0.  1.
     999902    2    1    2    0    0 -0.15056010856E-01 -0.58686980188E-02  0.16818065136E-01  0.10206067842E+01  0.10203402548E+01 0.  0.
     999903    2    3    3    0    0 -0.11090600424E+00  0.60638644973E-01 -0.31025405096E-01  0.13161890717E+00  0.19590148591E-01 0.  0.
         14    1    1    2    0    0  0.15056010856E-01  0.58686980188E-02 -0.16818065136E-01  0.23323215778E-01  0.00000000000E+00 0. -1.
     999901    1    3    3    0    0  0.95849993386E-01 -0.66507342992E-01  0.47843470232E-01  0.88898787705E+00  0.88000000000E+00 0. -1.
        -11    1    4    4    0    0 -0.56588644846E-01  0.22075300063E-01 -0.20889117881E-01  0.64235581769E-01  0.51100000000E-03 0. -1.
         11    1    4    4    0    0 -0.54317359396E-01  0.38563344910E-01 -0.10136287216E-01  0.67383325400E-01  0.51100000000E-03 0.  1.
</event>
<event>
 8    1  0.5489035E+004  0.1043930E+01  0.7957747E-01            NaN
         13   -1    0    0    0    0  0.00000000000E+00  0.00000000000E+00  0.74505805969E-08  0.10566000000E+00  0.10566000000E+00 0.  1.
     999900   -1    0    0    0    0 -0.00000000000E+00 -0.00000000000E+00 -0.74505805969E-08  0.93827000000E+00  0.93827000000E+00 0. -1.
     999902    2    1    2    0    0  0.82880507861E-02 -0.25795952686E-02 -0.22288562241E-01  0.10200108423E+01  0.10197303528E+01 0.  0.
     999903    2    3    3    0    0  0.60318286801E-01 -0.19280103426E-02 -0.11706194821E+00  0.13339392125E+00  0.21176061075E-01 0.  0.
         14    1    1    2    0    0 -0.82880507861E-02  0.25795952686E-02  0.22288562241E-01  0.23919157685E-01  0.00000000000E+00 0.  1.
     999901    1    3    3    0    0 -0.52030236015E-01 -0.65158492597E-03  0.94773385968E-01  0.88661692106E+00  0.88000000000E+00 0.  1.
        -11    1    4    4    0    0  0.25403609106E-01 -0.10355371856E-01 -0.59856558567E-01  0.65845621012E-01  0.51100000000E-03 0. -1.
         11    1    4    4    0    0  0.34914677696E-01  0.84273615134E-02 -0.57205389642E-01  0.67548300243E-01  0.51100000000E-03 0.  1.
</event>
<event>
 8    1  0.5489035E+004  0.1043930E+01  0.7957747E-01            NaN
         13   -1    0    0    0    0  0.00000000000E+00  0.00000000000E+00  0.74505805969E-08  0.10566000000E+00  0.10566000000E+00 0.  1.
     999900   -1    0    0    0    0 -0.00000000000E+00 -0.00000000000E+00 -0.74505805969E-08  0.93827000000E+00  0.93827000000E+00 0. -1.
     999902    2    1    2    0    0 -0.12203989225E-01 -0.85285447251E-02 -0.18140406382E-01  0.10204619841E+01  0.10201920962E+01 0.  0.
     999903    2    3    3    0    0 -0.33468407945E-01  0.12176145473E+00  0.22016807154E-01  0.12970934654E+00  0.19844107292E-01 0.  0.
         14    1    1    2    0    0  0.12203989225E-01  0.85285447251E-02  0.18140406382E-01  0.23468015933E-01  0.00000000000E+00 0. -1.
     999901    1    3    3    0    0  0.21264418721E-01 -0.13028999946E+00 -0.40157213536E-01  0.89075263753E+00  0.88000000000E+00 0. -1.
        -11    1    4    4    0    0 -0.17245041974E-01  0.92008980542E-01  0.12067309472E-01  0.94387102148E-01  0.51100000000E-03 0.  1.
         11    1    4    4    0    0 -0.16223365971E-01  0.29752474189E-01  0.99494976824E-02  0.35322244392E-01  0.51100000000E-03 0. -1.
</event>
<event>
 8    1  0.5489035E+004  0.1043930E+01  0.7957747E-01            NaN
         13   -1    0    0    0    0  0.00000000000E+00  0.00000000000E+00  0.74505805969E-08  0.10566000000E+00  0.10566000000E+00 0. -1.
     999900   -1    0    0    0    0 -0.00000000000E+00 -0.00000000000E+00 -0.74505805969E-08  0.93827000000E+00  0.93827000000E+00 0.  1.
     999902    2    1    2    0    0  0.11776466542E-01  0.10718959241E-01 -0.18863048957E-01  0.10192440553E+01  0.10189450664E+01 0.  0.
     999903    2    3    3    0    0 -0.74912077900E-01  0.10326803163E+00 -0.12526620730E-01  0.13013192237E+00  0.22389623053E-01 0.  0.
         14    1    1    2    0    0 -0.11776466542E-01 -0.10718959241E-01  0.18863048957E-01  0.24685944734E-01  0.00000000000E+00 0. -1.
     999901    1    3    3    0    0  0.86688544442E-01 -0.92549072392E-01 -0.63364282270E-02  0.88911213289E+00  0.88000000000E+00 0. -1.
        -11    1    4    4    0    0 -0.93707261432E-02  0.15507138481E-01  0.58916923903E-02  0.19059250052E-01  0.51100000000E-03 0.  1.
         11    1    4    4    0    0 -0.65541351757E-01  0.87760893152E-01 -0.18418313120E-01  0.11107267232E+00  0.51100000000E-03 0. -1.
</event>
<event>
 8    1  0.5489035E+004  0.1043930E+01  0.7957747E-01            NaN
         13   -1    0    0    0    0  0.00000000000E+00  0.00000000000E+00  0.74505805969E-08  0.10566000000E+00  0.10566000000E+00 0. -1.
     999900   -1    0    0    0    0 -0.00000000000E+00 -0.00000000000E+00 -0.74505805969E-08  0.93827000000E+00  0.93827000000E+00 0.  1.
     999902    2    1    2    0    0 -0.79883501448E-02 -0.12947394180E-01 -0.16538876967E-01  0.10214581686E+01  0.10212109513E+01 0.  0.
     999903    2    3    3    0    0  0.67241888364E-01  0.48571176160E-01  0.97047302953E-01  0.12885190405E+00  0.17435695089E-01 0.  0.
         14    1    1    2    0    0  0.79883501448E-02  0.12947394180E-01  0.16538876967E-01  0.22471831376E-01  0.00000000000E+00 0. -1.
     999901    1    3    3    0    0 -0.75230238509E-01 -0.61518570339E-01 -0.11358617992E+00  0.89260626457E+00  0.88000000000E+00 0.  1.
        -11    1    4    4    0    0  0.58071318724E-01  0.43837230148E-01  0.74956766283E-01  0.10446415049E+00  0.51100000000E-03 0. -1.
         11    1    4    4    0    0  0.91705696398E-02  0.47339460117E-02  0.22090536670E-01  0.24387753561E-01  0.51100000000E-03 0.  1.
</event>
<event>
 8    1  0.5489035E+004  0.1043930E+01  0.7957747E-01            NaN
         13   -1    0    0    0    0  0.00000000000E+00  0.00000000000E+00  0.74505805969E-08  0.10566000000E+00  0.10566000000E+00 0. -1.
     999900   -1    0    0    0    0 -0.00000000000E+00 -0.00000000000E+00 -0.74505805969E-08  0.93827000000E+00  0.93827000000E+00 0.  1.
     999902    2    1    2    0    0 -0.23720637782E-01  0.51295090116E-04  0.23010285679E-02  0.10200979623E+01  0.10198195363E+01 0.  0.
     999903    2    3    3    0    0 -0.60455490932E-01 -0.33405043281E-01  0.11008710611E+00  0.13213027454E+00  0.23842718340E-01 0.  0.
         14    1    1    2    0    0  0.23720637782E-01 -0.51295090116E-04 -0.23010285679E-02  0.23832037689E-01  0.00000000000E+00 0.  1.
     999901    1    3    3    0    0  0.36734853150E-01  0.33456338371E-01 -0.10778607754E+00  0.88796768777E+00  0.88000000000E+00 0.  1.
        -11    1    4    4    0    0 -0.12751252501E-02 -0.81045712393E-02  0.17901738928E-01  0.19698817148E-01  0.51100000000E-03 0.  1.
         11    1    4    4    0    0 -0.59180365682E-01 -0.25300472041E-01  0.92185367183E-01  0.11243145739E+00  0.51100000000E-03 0. -1.
</event>
<event>
 8    1  0.5489035E+004  0.1043930E+01  0.7957747E-01            NaN
         13   -1    0    0    0    0  0.00000000000E+00  0.00000000000E+00  0.74505805969E-08  0.10566000000E+00  0.10566000000E+00 0.  1.
     999900   -1    0    0    0    0 -0.00000000000E+00 -0.00000000000E+00 -0.74505805969E-08  0.93827000000E+00  0.93827000000E+00 0. -1.
     999902    2    1    2    0    0  0.20219886512E-02 -0.19075952087E-01  0.13248607914E-01  0.10206167849E+01  0.10203504867E+01 0.  0.
     999903    2    3    3    0    0 -0.12041116035E+00 -0.43421789685E-01  0.23717149756E-01  0.13174548593E+00  0.20250197856E-01 0.  0.
         14    1    1    2    0    0 -0.20219886512E-02  0.19075952087E-01 -0.13248607914E-01  0.23313215089E-01  0.00000000000E+00 0. -1.
     999901    1    3    3    0    0  0.12243314901E+00  0.24345837598E-01 -0.10468541842E-01  0.88887129898E+00  0.88000000000E+00 0. -1.
        -11    1    4    4    0    0 -0.11172936502E+00 -0.34673325754E-01  0.23923334349E-01  0.11940802977E+00  0.51100000000E-03 0.  1.
         11    1    4    4    0    0 -0.86817953327E-02 -0.87484639301E-02 -0.20618459325E-03  0.12337456157E-01  0.51100000000E-03 0. -1.
</event>
<event>
 8    1  0.5489035E+004  0.1043930E+01  0.7957747E-01            NaN
         13   -1    0    0    0    0  0.00000000000E+00  0.00000000000E+00  0.74505805969E-08  0.10566000000E+00  0.10566000000E+00 0.  1.
     999900   -1    0    0    0    0 -0.00000000000E+00 -0.00000000000E+00 -0.74505805969E-08  0.93827000000E+00  0.93827000000E+00 0. -1.
     999902    2    1    2    0    0 -0.12609583997E-02  0.42569193416E-02 -0.33891305165E-01  0.10097491290E+01  0.10091704373E+01 0.  0.
     999903    2    3    3    0    0  0.69356875647E-01 -0.51210160813E-01 -0.86978918429E-01  0.12358787381E+00  0.16606430451E-01 0.  0.
         14    1    1    2    0    0  0.12609583997E-02 -0.42569193416E-02  0.33891305165E-01  0.34180871027E-01  0.00000000000E+00 0.  1.
     999901    1    3    3    0    0 -0.70617834046E-01  0.55467080155E-01  0.53087613264E-01  0.88616125516E+00  0.88000000000E+00 0.  1.
        -11    1    4    4    0    0  0.28245270856E-01 -0.11531659418E-01 -0.33734031509E-01  0.45486486977E-01  0.51100000000E-03 0. -1.
         11    1    4    4    0    0  0.41111604791E-01 -0.39678501395E-01 -0.53244886920E-01  0.78101386835E-01  0.51100000000E-03 0.  1.
</event>
<event>
 8    1  0.5489035E+004  0.1043930E+01  0.7957747E-01            NaN
         13   -1    0    0    0    0  0.00000000000E+00  0.00000000000E+00  0.74505805969E-08  0.10566000000E+00  0.10566000000E+00 0.  1.
     999900   -1    0    0    0    0 -0.00000000000E+00 -0.00000000000E+00 -0.74505805969E-08  0.93827000000E+00  0.93827000000E+00 0. -1.
     999902    2    1    2    0    0  0.72725112568E-02  0.22835913122E-01 -0.46508306690E-03  0.10199595046E+01  0.10196777954E+01 0.  0.
     999903    2    3    3    0    0 -0.15402165663E-01  0.73926532446E-01 -0.10609828849E+00  0.13188137377E+00  0.20820447146E-01 0.  0.
         14    1    1    2    0    0 -0.72725112568E-02 -0.22835913122E-01  0.46508306690E-03  0.23970495413E-01  0.00000000000E+00 0. -1.
     999901    1    3    3    0    0  0.22674676920E-01 -0.51090619324E-01  0.10563320542E+00  0.88807813082E+00  0.88000000000E+00 0.  1.
        -11    1    4    4    0    0 -0.15364108931E-01  0.35583624536E-01 -0.64933458301E-01  0.75623179689E-01  0.51100000000E-03 0.  1.
         11    1    4    4    0    0 -0.38056732145E-04  0.38342907910E-01 -0.41164830188E-01  0.56258194076E-01  0.51100000000E-03 0. -1.
</event>
<event>
 8    1  0.5489035E+004  0.1043930E+01  0.7957747E-01            NaN
         13   -1    0    0    0    0  0.00000000000E+00  0.00000000000E+00  0.74505805969E-08  0.10566000000E+00  0.10566000000E+00 0.  1.
     999900   -1    0    0    0    0 -0.00000000000E+00 -0.00000000000E+00 -0.74505805969E-08  0.93827000000E+00  0.93827000000E+00 0. -1.
     999902    2    1    2    0    0 -0.15332417900E-01 -0.15849452222E-01 -0.73947514786E-02  0.10206712269E+01  0.10204061853E+01 0.  0.
     999903    2    3    3    0    0 -0.19327288176E-01 -0.42704811581E-01 -0.12265168318E+00  0.13274030079E+00  0.19475807215E-01 0.  0.
         14    1    1    2    0    0  0.15332417900E-01  0.15849452222E-01  0.73947514786E-02  0.23258773051E-01  0.00000000000E+00 0. -1.
     999901    1    3    3    0    0  0.39948702758E-02  0.26855359358E-01  0.11525693171E+00  0.88793092615E+00  0.88000000000E+00 0.  1.
        -11    1    4    4    0    0 -0.22266549604E-01 -0.31443728018E-01 -0.84967444815E-01  0.93296490086E-01  0.51100000000E-03 0.  1.
         11    1    4    4    0    0  0.29392614281E-02 -0.11261083563E-01 -0.37684238370E-01  0.39443810709E-01  0.51100000000E-03 0. -1.
</event>
<event>
 8    1  0.5489035E+004  0.1043930E+01  0.7957747E-01            NaN
         13   -1    0    0    0    0  0.00000000000E+00  0.00000000000E+00  0.74505805969E-08  0.10566000000E+00  0.10566000000E+00 0. -1.
     999900   -1    0    0    0    0 -0.00000000000E+00 -0.00000000000E+00 -0.74505805969E-08  0.93827000000E+00  0.93827000000E+00 0.  1.
     999902    2    1    2    0    0  0.19999842892E-01 -0.62402363337E-02  0.10270760424E-01  0.10205971308E+01  0.10203303782E+01 0.  0.
     999903    2    3    3    0    0  0.33600630748E-01 -0.36084524959E-01 -0.11938467792E+00  0.13049253263E+00  0.18560830331E-01 0.  0.
         14    1    1    2    0    0 -0.19999842892E-01  0.62402363337E-02 -0.10270760424E-01  0.23332869195E-01  0.00000000000E+00 0. -1.
     999901    1    3    3    0    0 -0.13600787856E-01  0.29844288625E-01  0.12965543834E+00  0.89010459817E+00  0.88000000000E+00 0. -1.
        -11    1    4    4    0    0  0.19838015982E-01 -0.19839817929E-01 -0.44246367994E-01  0.52394345641E-01  0.51100000000E-03 0. -1.
         11    1    4    4    0    0  0.13762614767E-01 -0.16244707029E-01 -0.75138309927E-01  0.78098186992E-01  0.51100000000E-03 0.  1.
</event>
<event>
 8    1  0.5489035E+004  0.1043930E+01  0.7957747E-01            NaN
         13   -1    0    0    0    0  0.00000000000E+00  0.00000000000E+00  0.74505805969E-08  0.10566000000E+00  0.10566000000E+00 0. -1.
     999900   -1    0    0    0    0 -0.00000000000E+00 -0.00000000000E+00 -0.74505805969E-08  0.93827000000E+00  0.93827000000E+00 0.  1.
     999902    2    1    2    0    0 -0.14513373690E-01  0.12048187794E-01  0.13247934306E-01  0.10208799543E+01  0.10206197021E+01 0.  0.
     999903    2    3    3    0    0  0.72218120867E-01  0.78922660445E-01  0.74853323926E-01  0.13195376426E+00  0.19092733893E-01 0.  0.
         14    1    1    2    0    0  0.14513373690E-01 -0.12048187794E-01 -0.13247934306E-01  0.23050045734E-01  0.00000000000E+00 0.  1.
     999901    1    3    3    0    0 -0.86731494557E-01 -0.66874472651E-01 -0.61605389620E-01  0.88892619000E+00  0.88000000000E+00 0.  1.
        -11    1    4    4    0    0  0.35496079115E-01  0.25025084007E-01  0.30959317078E-01  0.53338231101E-01  0.51100000000E-03 0. -1.
         11    1    4    4    0    0  0.36722041752E-01  0.53897576438E-01  0.43894006848E-01  0.78615533164E-01  0.51100000000E-03 0.  1.
</event>
<event>
 8    1  0.5489035E+004  0.1043930E+01  0.7957747E-01            NaN
         13   -1    0    0    0    0  0.00000000000E+00  0.00000000000E+00  0.74505805969E-08  0.10566000000E+00  0.10566000000E+00 0.  1.
     999900   -1    0    0    0    0 -0.00000000000E+00 -0.00000000000E+00 -0.74505805969E-08  0.93827000000E+00  0.93827000000E+00 0.  1.
     999902    2    1    2    0    0 -0.22038109046E-01 -0.23895797027E-02  0.92018279544E-02  0.10199287088E+01  0.10196462666E+01 0.  0.
     999903    2    3    3    0    0  0.10585740728E+00  0.41221320088E-01  0.56578947205E-01  0.12835495128E+00  0.19204904163E-01 0.  0.
         14    1    1    2    0    0  0.22038109046E-01  0.23895797027E-02 -0.92018279544E-02  0.24001291198E-01  0.00000000000E+00 0.  1.
     999901    1    3    3    0    0 -0.12789551633E+00 -0.43610899791E-01 -0.47377119251E-01  0.89157375752E+00  0.88000000000E+00 0. -1.
        -11    1    4    4    0    0  0.82444635893E-01  0.36837374444E-01  0.37280639828E-01  0.97694510441E-01  0.51100000000E-03 0. -1.
         11    1    4    4    0    0  0.23412771391E-01  0.43839456442E-02  0.19298307378E-01  0.30660440836E-01  0.51100000000E-03 0.  1.
</event>
<event>
 8    1  0.5489035E+004  0.1043930E+01  0.7957747E-01            NaN
         13   -1    0    0    0    0  0.00000000000E+00  0.00000000000E+00  0.74505805969E-08  0.10566000000E+00  0.10566000000E+00 0. -1.
     999900   -1    0    0    0    0 -0.00000000000E+00 -0.00000000000E+00 -0.74505805969E-08  0.93827000000E+00  0.93827000000E+00 0. -1.
     999902    2    1    2    0    0 -0.46293273481E-02 -0.56868877519E-02 -0.22362190662E-01  0.10203962172E+01  0.10201247968E+01 0.  0.
     999903    2    3    3    0    0 -0.11314235930E+00 -0.20809735333E-01 -0.63102099336E-01  0.13266679960E+00  0.19605260102E-01 0.  0.
         14    1    1    2    0    0  0.46293273481E-02  0.56868877519E-02  0.22362190662E-01  0.23533782849E-01  0.00000000000E+00 0. -1.
     999901    1    3    3    0    0  0.10851303195E+00  0.15122847581E-01  0.40739908674E-01  0.88772941755E+00  0.88000000000E+00 0. -1.
        -11    1    4    4    0    0 -0.22958616767E-01 -0.11857938486E-01 -0.17496498571E-01  0.31210533033E-01  0.51100000000E-03 0.  1.
         11    1    4    4    0    0 -0.90183742532E-01 -0.89517968469E-02 -0.45605600765E-01  0.10145626657E+00  0.51100000000E-03 0. -1.
</event>
<event>
 8    1  0.5489035E+004  0.1043930E+01  0.7957747E-01            NaN
         13   -1    0    0    0    0  0.00000000000E+00  0.00000000000E+00  0.74505805969E-08  0.10566000000E+00  0.10566000000E+00 0.  1.
     999900   -1    0    0    0    0 -0.00000000000E+00 -0.00000000000E+00 -0.74505805969E-08  0.93827000000E+00  0.93827000000E+00 0. -1.
     999902    2    1    2    0    0 -0.11157103206E-01  0.16084933856E-01 -0.12485144905E-01  0.10207117983E+01  0.10204476911E+01 0.  0.
     999903    2    3    3    0    0  0.69089202254E-01 -0.90001599026E-01  0.56002205758E-01  0.12808402633E+00  0.19891331196E-01 0.  0.
         14    1    1    2    0    0  0.11157103206E-01 -0.16084933856E-01  0.12485144905E-01  0.23218201748E-01  0.00000000000E+00 0. -1.
     999901    1    3    3    0    0 -0.80246305460E-01  0.10608653288E+00 -0.68487350663E-01  0.89262777192E+00  0.88000000000E+00 0. -1.
        -11    1    4    4    0    0  0.24799131466E-01 -0.43471099622E-01  0.16645058591E-01  0.52745165848E-01  0.51100000000E-03 0.  1.
         11    1    4    4    0    0  0.44290070788E-01 -0.46530499405E-01  0.39357147167E-01  0.75338860486E-01  0.51100000000E-03 0. -1.
</event>
<event>
 8    1  0.5489035E+004  0.1043930E+01  0.7957747E-01            NaN
         13   -1    0    0    0    0  0.00000000000E+00  0.00000000000E+00  0.74505805969E-08  0.10566000000E+00  0.10566000000E+00 0. -1.
     999900   -1    0    0    0    0 -0.00000000000E+00 -0.00000000000E+00 -0.74505805969E-08  0.93827000000E+00  0.93827000000E+00 0. -1.
     999902    2    1    2    0    0  0.46659013950E-02 -0.22864138446E-01  0.54835169170E-02  0.10199590088E+01  0.10196772877E+01 0.  0.
     999903    2    3    3    0    0 -0.11998671852E+00  0.19493697579E-01 -0.39290156324E-01  0.12903973985E+00  0.18185741895E-01 0.  0.
         14    1    1    2    0    0 -0.46659013950E-02  0.22864138446E-01 -0.54835169170E-02  0.23970991229E-01  0.00000000000E+00 0. -1.
     999901    1    3    3    0    0  0.12465261992E+00 -0.42357836025E-01  0.44773673241E-01  0.89091926892E+00  0.88000000000E+00 0.  1.
        -11    1    4    4    0    0 -0.60077364078E-01  0.10710109176E-02 -0.16114212925E-01  0.62212263407E-01  0.51100000000E-03 0.  1.
         11    1    4    4    0    0 -0.59909354446E-01  0.18422686661E-01 -0.23175943399E-01  0.66827476440E-01  0.51100000000E-03 0. -1.
</event>
<event>
 7    1  0.5489035E+004  0.1043930E+01  0.7957747E-01            NaN
         13   -1    0    0    0    0  0.00000000000E+00  0.00000000000E+00  0.74505805969E-08  0.10566000000E+00  0.10566000000E+00 0. -1.
     999900   -1    0    0    0    0 -0.00000000000E+00 -0.00000000000E+00 -0.74505805969E-08  0.93827000000E+00  0.93827000000E+00 0.  1.
     999903    2    1    2    0    0 -0.10565285050E+00  0.43230336444E-02  0.40748356708E-01  0.11497749524E+00  0.19446912368E-01 0.  0.
         14    1    1    2    0    0  0.62644991746E-02  0.40722327762E-01 -0.48593486947E-02  0.41486928038E-01  0.00000000000E+00 0.  1.
     999901    1    1    2    0    0  0.99388351321E-01 -0.45045361406E-01 -0.35889008014E-01  0.88746557672E+00  0.88000000000E+00 0.  1.
        -11    1    3    3    0    0 -0.18121693166E-01 -0.65298652298E-02  0.60730957922E-02  0.20203428339E-01  0.51100000000E-03 0.  1.
         11    1    3    3    0    0 -0.87531157329E-01  0.10852898874E-01  0.34675260916E-01  0.94774066906E-01  0.51100000000E-03 0. -1.
</event>
<event>
 8    1  0.5489035E+004  0.1043930E+01  0.7957747E-01            NaN
         13   -1    0    0    0    0  0.00000000000E+00  0.00000000000E+00  0.74505805969E-08  0.10566000000E+00  0.10566000000E+00 0. -1.
     999900   -1    0    0    0    0 -0.00000000000E+00 -0.00000000000E+00 -0.74505805969E-08  0.93827000000E+00  0.93827000000E+00 0.  1.
     999902    2    1    2    0    0  0.58846212194E-02  0.22194026181E-01  0.48275593116E-02  0.10204670741E+01  0.10201973046E+01 0.  0.
     999903    2    3    3    0    0 -0.61979985844E-01  0.10376328496E+00 -0.50114070205E-01  0.13239177797E+00  0.20194674776E-01 0.  0.
         14    1    1    2    0    0 -0.58846212194E-02 -0.22194026181E-01 -0.48275593116E-02  0.23462925945E-01  0.00000000000E+00 0. -1.
     999901    1    3    3    0    0  0.67864607063E-01 -0.81569258780E-01  0.54941629517E-01  0.88807529609E+00  0.88000000000E+00 0.  1.
        -11    1    4    4    0    0 -0.54012111207E-01  0.77653585969E-01 -0.33073937910E-01  0.10020745512E+00  0.51100000000E-03 0. -1.
         11    1    4    4    0    0 -0.79678746370E-02  0.26109698991E-01 -0.17040132296E-01  0.32184322850E-01  0.51100000000E-03 0.  1.
</event>
<event>
 8    1  0.5489035E+004  0.1043930E+01  0.7957747E-01            NaN
         13   -1    0    0    0    0  0.00000000000E+00  0.00000000000E+00  0.74505805969E-08  0.10566000000E+00  0.10566000000E+00 0.  1.
     999900   -1    0    0    0    0 -0.00000000000E+00 -0.00000000000E+00 -0.74505805969E-08  0.93827000000E+00  0.93827000000E+00 0. -1.
     999902    2    1    2    0    0  0.19174919899E-01 -0.14069134639E-01 -0.17856279557E-02  0.10200803340E+01  0.10198014911E+01 0.  0.
     999903    2    3    3    0    0 -0.85293758997E-01  0.35827073014E-01  0.86414744815E-01  0.12812593930E+00  0.19752055987E-01 0.  0.
         14    1    1    2    0    0 -0.19174919899E-01  0.14069134639E-01  0.17856279557E-02  0.23849666032E-01  0.00000000000E+00 0. -1.
     999901    1    3    3    0    0  0.10446867890E+00 -0.49896207653E-01 -0.88200372771E-01  0.89195439467E+00  0.88000000000E+00 0. -1.
        -11    1    4    4    0    0 -0.42491971394E-01  0.74614582190E-02  0.36496271023E-01  0.56510883122E-01  0.51100000000E-03 0.  1.
         11    1    4    4    0    0 -0.42801787603E-01  0.28365614795E-01  0.49918473792E-01  0.71615056179E-01  0.51100000000E-03 0. -1.
</event>
<event>
 8    1  0.5489035E+004  0.1043930E+01  0.7957747E-01            NaN
         13   -1    0    0    0    0  0.00000000000E+00  0.00000000000E+00  0.74505805969E-08  0.10566000000E+00  0.10566000000E+00 0. -1.
     999900   -1    0    0    0    0 -0.00000000000E+00 -0.00000000000E+00 -0.74505805969E-08  0.93827000000E+00  0.93827000000E+00 0. -1.
     999902    2    1    2    0    0  0.14177799018E-01 -0.12560019689E-01  0.13009613397E-01  0.10209514422E+01  0.10206928202E+01 0.  0.
     999903    2    3    3    0    0 -0.23585009393E-01 -0.50818955462E-01  0.11892304631E+00  0.13297203298E+00  0.20001292673E-01 0.  0.
         14    1    1    2    0    0 -0.14177799018E-01  0.12560019689E-01 -0.13009613397E-01  0.22978557838E-01  0.00000000000E+00 0.  1.
     999901    1    3    3    0    0  0.37762808411E-01  0.38258935774E-01 -0.10591343291E+00  0.88797940918E+00  0.88000000000E+00 0. -1.
        -11    1    4    4    0    0 -0.91365450071E-02 -0.31759714809E-02  0.20445682248E-01  0.22624108669E-01  0.51100000000E-03 0.  1.
         11    1    4    4    0    0 -0.14448464386E-01 -0.47642983981E-01  0.98477364060E-01  0.11034792431E+00  0.51100000000E-03 0. -1.
</event>
<event>
 8    1  0.5489035E+004  0.1043930E+01  0.7957747E-01            NaN
         13   -1    0    0    0    0  0.00000000000E+00  0.00000000000E+00  0.74505805969E-08  0.10566000000E+00  0.10566000000E+00 0.  1.
     999900   -1    0    0    0    0 -0.00000000000E+00 -0.00000000000E+00 -0.74505805969E-08  0.93827000000E+00  0.93827000000E+00 0. -1.
     999902    2    1    2    0    0  0.69840078756E-02  0.10363062323E-01  0.19785859723E-01  0.10205280840E+01  0.10202597319E+01 0.  0.
     999903    2    3    3    0    0  0.10210519198E+00  0.15431877960E-02  0.82899108026E-01  0.13311098256E+00  0.20455314900E-01 0.  0.
         14    1    1    2    0    0 -0.69840078756E-02 -0.10363062323E-01 -0.19785859723E-01  0.23401915984E-01  0.00000000000E+00 0. -1.
     999901    1    3    3    0    0 -0.95121184105E-01  0.88198745266E-02 -0.63113248302E-01  0.88741710146E+00  0.88000000000E+00 0. -1.
        -11    1    4    4    0    0  0.65933672859E-01  0.68985572553E-02  0.63106857081E-01  0.91529098327E-01  0.51100000000E-03 0. -1.
         11    1    4    4    0    0  0.36171519122E-01 -0.53553694593E-02  0.19792250945E-01  0.41581884229E-01  0.51100000000E-03 0.  1.
</event>
<event>
 8    1  0.5489035E+004  0.1043930E+01  0.7957747E-01            NaN
         13   -1    0    0    0    0  0.00000000000E+00  0.00000000000E+00  0.74505805969E-08  0.10566000000E+00  0.10566000000E+00 0.  1.
     999900   -1    0    0    0    0 -0.00000000000E+00 -0.00000000000E+00 -0.74505805969E-08  0.93827000000E+00  0.93827000000E+00 0. -1.
     999902    2    1    2    0    0  0.20069569353E-01  0.10734263074E-01 -0.69493929752E-02  0.10201328136E+01  0.10198552110E+01 0.  0.
     999903    2    3    3    0    0 -0.24774920747E-01  0.12729554291E+00 -0.67663440047E-02  0.13131472549E+00  0.19489016802E-01 0.  0.
         14    1    1    2    0    0 -0.20069569353E-01 -0.10734263074E-01  0.69493929752E-02  0.23797186398E-01  0.00000000000E+00 0.  1.
     999901    1    3    3    0    0  0.44844490099E-01 -0.11656127984E+00 -0.18304897054E-03  0.88881808811E+00  0.88000000000E+00 0.  1.
        -11    1    4    4    0    0 -0.14459444519E-01  0.72876898203E-01  0.57725221643E-02  0.74523157210E-01  0.51100000000E-03 0.  1.
         11    1    4    4    0    0 -0.10315476227E-01  0.54418644709E-01 -0.12538866169E-01  0.56791568279E-01  0.51100000000E-03 0. -1.
</event>
<event>
 8    1  0.5489035E+004  0.1043930E+01  0.7957747E-01            NaN
         13   -1    0    0    0    0  0.00000000000E+00  0.00000000000E+00  0.74505805969E-08  0.10566000000E+00  0.10566000000E+00 0. -1.
     999900   -1    0    0    0    0 -0.00000000000E+00 -0.00000000000E+00 -0.74505805969E-08  0.93827000000E+00  0.93827000000E+00 0.  1.
     999902    2    1    2    0    0 -0.74320337511E-02  0.19678727712E-01 -0.14161021201E-01  0.10185721221E+01  0.10182564245E+01 0.  0.
     999903    2    3    3    0    0 -0.11516807182E+00 -0.74278487713E-02  0.53964588994E-01  0.12897506773E+00  0.20088143936E-01 0.  0.
         14    1    1    2    0    0  0.74320337511E-02 -0.19678727712E-01  0.14161021201E-01  0.25357877898E-01  0.00000000000E+00 0.  1.
     999901    1    3    3    0    0  0.10773603807E+00  0.27106576483E-01 -0.68125610195E-01  0.88959705437E+00  0.88000000000E+00 0.  1.
        -11    1    4    4    0    0 -0.37693710421E-01  0.37547844805E-02  0.99421813651E-02  0.39166596777E-01  0.51100000000E-03 0.  1.
         11    1    4    4    0    0 -0.77474361396E-01 -0.11182633252E-01  0.44022407629E-01  0.89808470951E-01  0.51100000000E-03 0. -1.
</event>
<event>
 8    1  0.5489035E+004  0.1043930E+01  0.7957747E-01            NaN
         13   -1    0    0    0    0  0.00000000000E+00  0.00000000000E+00  0.74505805969E-08  0.10566000000E+00  0.10566000000E+00 0.  1.
     999900   -1    0    0    0    0 -0.00000000000E+00 -0.00000000000E+00 -0.74505805969E-08  0.93827000000E+00  0.93827000000E+00 0.  1.
     999902    2    1    2    0    0 -0.17200161153E-01  0.27800162961E-02 -0.15453040436E-01  0.10206411509E+01  0.10203754154E+01 0.  0.
     999903    2    3    3    0    0 -0.42313869681E-01 -0.95917519975E-02 -0.12473278958E+00  0.13344003356E+00  0.19118276294E-01 0.  0.
         14    1    1    2    0    0  0.17200161153E-01 -0.27800162961E-02  0.15453040436E-01  0.23288849113E-01  0.00000000000E+00 0. -1.
     999901    1    3    3    0    0  0.25113708528E-01  0.12371768294E-01  0.10927974914E+00  0.88720111732E+00  0.88000000000E+00 0. -1.
        -11    1    4    4    0    0 -0.31338184898E-01 -0.16696293338E-03 -0.67774124347E-01  0.74670628505E-01  0.51100000000E-03 0. -1.
         11    1    4    4    0    0 -0.10975684783E-01 -0.94247890641E-02 -0.56958665229E-01  0.58769405059E-01  0.51100000000E-03 0.  1.
</event>
<event>
 8    1  0.5489035E+004  0.1043930E+01  0.7957747E-01            NaN
         13   -1    0    0    0    0  0.00000000000E+00  0.00000000000E+00  0.74505805969E-08  0.10566000000E+00  0.10566000000E+00 0. -1.
     999900   -1    0    0    0    0 -0.00000000000E+00 -0.00000000000E+00 -0.74505805969E-08  0.93827000000E+00  0.93827000000E+00 0. -1.
     999902    2    1    2    0    0  0.83535165622E-02 -0.22636102844E-01 -0.30820039978E-03  0.10197997414E+01  0.10195142192E+01 0.  0.
     999903    2    3    3    0    0  0.72218785952E-01  0.96792357546E-01 -0.39027710086E-01  0.12859767107E+00  0.20733676168E-01 0.  0.
         14    1    1    2    0    0 -0.83535165622E-02  0.22636102844E-01  0.30820039978E-03  0.24130258565E-01  0.00000000000E+00 0. -1.
     999901    1    3    3    0    0 -0.63865269390E-01 -0.11942846039E+00  0.38719509686E-01  0.89120207036E+00  0.88000000000E+00 0.  1.
        -11    1    4    4    0    0  0.24616256717E-01  0.47639582260E-01 -0.11525420298E-01  0.54850581827E-01  0.51100000000E-03 0.  1.
         11    1    4    4    0    0  0.47602529235E-01  0.49152775285E-01 -0.27502289788E-01  0.73747089247E-01  0.51100000000E-03 0. -1.
</event>
<event>
 8    1  0.5489035E+004  0.1043930E+01  0.7957747E-01            NaN
         13   -1    0    0    0    0  0.00000000000E+00  0.00000000000E+00  0.74505805969E-08  0.10566000000E+00  0.10566000000E+00 0. -1.
     999900   -1    0    0    0    0 -0.00000000000E+00 -0.00000000000E+00 -0.74505805969E-08  0.93827000000E+00  0.93827000000E+00 0. -1.
     999902    2    1    2    0    0 -0.16542015517E-01  0.16879699539E-01 -0.54641700389E-03  0.10202897567E+01  0.10200158462E+01 0.  0.
     999903    2    3    3    0    0  0.68074621337E-01 -0.95315794351E-01  0.47118965991E-01  0.12786620653E+00  0.20256235911E-01 0.  0.
         14    1    1    2    0    0  0.16542015517E-01 -0.16879699539E-01  0.54641700389E-03  0.23640243346E-01  0.00000000000E+00 0.  1.
     999901    1    3    3    0    0 -0.84616636854E-01  0.11219549389E+00 -0.47665382995E-01  0.89242355012E+00  0.88000000000E+00 0. -1.
        -11    1    4    4    0    0  0.14884732988E-01 -0.20657033521E-01  0.15982145715E-02  0.25516342231E-01  0.51100000000E-03 0. -1.
         11    1    4    4    0    0  0.53189888349E-01 -0.74658760829E-01  0.45520751419E-01  0.10234986430E+00  0.51100000000E-03 0.  1.
</event>
<event>
 8    1  0.5489035E+004  0.1043930E+01  0.7957747E-01            NaN
         13   -1    0    0    0    0  0.00000000000E+00  0.00000000000E+00  0.74505805969E-08  0.10566000000E+00  0.10566000000E+00 0.  1.
     999900   -1    0    0    0    0 -0.00000000000E+00 -0.00000000000E+00 -0.74505805969E-08  0.93827000000E+00  0.93827000000E+00 0.  1.
     999902    2    1    2    0    0  0.46924998484E-02  0.23610367127E-01 -0.29094772884E-03  0.10198560796E+01  0.10195719050E+01 0.  0.
     999903    2    3    3    0    0 -0.46740339495E-02 -0.85159870049E-01  0.93496775139E-01  0.12816396158E+00  0.20255962759E-01 0.  0.
         14    1    1    2    0    0 -0.46924998484E-02 -0.23610367127E-01  0.29094772884E-03  0.24073920355E-01  0.00000000000E+00 0. -1.
     999901    1    3    3    0    0  0.93665337979E-02  0.10877023718E+00 -0.93787722868E-01  0.89169211806E+00  0.88000000000E+00 0.  1.
        -11    1    4    4    0    0 -0.88160914853E-02 -0.68940727283E-01  0.65291938810E-01  0.95361657609E-01  0.51100000000E-03 0. -1.
         11    1    4    4    0    0  0.41420575359E-02 -0.16219142766E-01  0.28204836329E-01  0.32802303975E-01  0.51100000000E-03 0.  1.
</event>
<event>
 8    1  0.5489035E+004  0.1043930E+01  0.7957747E-01            NaN
         13   -1    0    0    0    0  0.00000000000E+00  0.00000000000E+00  0.74505805969E-08  0.10566000000E+00  0.10566000000E+00 0. -1.
     999900   -1    0    0    0    0 -0.00000000000E+00 -0.00000000000E+00 -0.74505805969E-08  0.93827000000E+00  0.93827000000E+00 0.  1.
     999902    2    1    2    0    0  0.17758924893E-01  0.13540713828E-01  0.95909013742E-02  0.10196253557E+01  0.10193356416E+01 0.  0.
     999903    2    3    3    0    0  0.27088703552E-01  0.11519577319E+00  0.55190029194E-01  0.13255147136E+00  0.22805464617E-01 0.  0.
         14    1    1    2    0    0 -0.17758924893E-01 -0.13540713828E-01 -0.95909013742E-02  0.24304644279E-01  0.00000000000E+00 0.  1.
     999901    1    3    3    0    0 -0.93297786583E-02 -0.10165505936E+00 -0.45599127820E-01  0.88707388436E+00  0.88000000000E+00 0.  1.
        -11    1    4    4    0    0  0.83882635138E-02  0.60531134538E-01  0.39196222128E-01  0.72601557582E-01  0.51100000000E-03 0. -1.
         11    1    4    4    0    0  0.18700440038E-01  0.54664638649E-01  0.15993807066E-01  0.59949913775E-01  0.51100000000E-03 0.  1.
</event>
<event>
 8    1  0.5489035E+004  0.1043930E+01  0.7957747E-01            NaN
         13   -1    0    0    0    0  0.00000000000E+00  0.00000000000E+00  0.74505805969E-08  0.10566000000E+00  0.10566000000E+00 0.  1.
     999900   -1    0    0    0    0 -0.00000000000E+00 -0.00000000000E+00 -0.74505805969E-08  0.93827000000E+00  0.93827000000E+00 0.  1.
     999902    2    1    2    0    0 -0.15969014513E-01  0.13737840879E-01 -0.10403400840E-01  0.10204359913E+01  0.10201654983E+01 0.  0.
     999903    2    3    3    0    0  0.28642573364E-01 -0.11168759016E+00  0.52149675631E-01  0.12822826889E+00  0.20697474930E-01 0.  0.
         14    1    1    2    0    0  0.15969014513E-01 -0.13737840879E-01  0.10403400840E-01  0.23494008716E-01  0.00000000000E+00 0.  1.
     999901    1    3    3    0    0 -0.44611587877E-01  0.12542543104E+00 -0.62553076471E-01  0.89220772239E+00  0.88000000000E+00 0.  1.
        -11    1    4    4    0    0  0.94489161538E-02 -0.43458732096E-01  0.31162079517E-01  0.54307271453E-01  0.51100000000E-03 0. -1.
         11    1    4    4    0    0  0.19193657210E-01 -0.68228858067E-01  0.20987596114E-01  0.73920997436E-01  0.51100000000E-03 0.  1.
</event>
<event>
 8    1  0.5489035E+004  0.1043930E+01  0.7957747E-01            NaN
         13   -1    0    0    0    0  0.00000000000E+00  0.00000000000E+00  0.74505805969E-08  0.10566000000E+00  0.10566000000E+00 0.  1.
     999900   -1    0    0    0    0 -0.00000000000E+00 -0.00000000000E+00 -0.74505805969E-08  0.93827000000E+00  0.93827000000E+00 0. -1.
     999902    2    1    2    0    0 -0.11741924297E-01  0.30585558597E-02 -0.21488246033E-01  0.10192526365E+01  0.10189538580E+01 0.  0.
     999903    2    3    3    0    0  0.40544334189E-01  0.23370363169E-02  0.11833721429E+00  0.12668021215E+00  0.19871464202E-01 0.  0.
         14    1    1    2    0    0  0.11741924297E-01 -0.30585558597E-02  0.21488246033E-01  0.24677363468E-01  0.00000000000E+00 0.  1.
     999901    1    3    3    0    0 -0.52286258486E-01  0.72151954282E-03 -0.13982546033E+00  0.89257242438E+00  0.88000000000E+00 0. -1.
        -11    1    4    4    0    0  0.24419757696E-01 -0.82224973954E-02  0.62374459224E-01  0.67489023655E-01  0.51100000000E-03 0.  1.
         11    1    4    4    0    0  0.16124576493E-01  0.10559533712E-01  0.55962755069E-01  0.59191188493E-01  0.51100000000E-03 0. -1.
</event>
<event>
 8    1  0.5489035E+004  0.1043930E+01  0.7957747E-01            NaN
         13   -1    0    0    0    0  0.00000000000E+00  0.00000000000E+00  0.74505805969E-08  0.10566000000E+00  0.10566000000E+00 0.  1.
     999900   -1    0    0    0    0 -0.00000000000E+00 -0.00000000000E+00 -0.74505805969E-08  0.93827000000E+00  0.93827000000E+00 0.  1.
     999902    2    1    2    0    0  0.18735303309E-01 -0.60671921068E-02 -0.10709127605E-01  0.10215133137E+01  0.10212673216E+01 0.  0.
     999903    2    3    3    0    0  0.12312089170E+00 -0.11576088109E-01  0.46277926431E-01  0.13349629623E+00  0.19668625873E-01 0.  0.
         14    1    1    2    0    0 -0.18735303309E-01  0.60671921068E-02  0.10709127605E-01  0.22416686290E-01  0.00000000000E+00 0.  1.
     999901    1    3    3    0    0 -0.10438558839E+00  0.55088960018E-02 -0.56987054036E-01  0.88801701748E+00  0.88000000000E+00 0. -1.
        -11    1    4    4    0    0  0.64230546302E-01 -0.14706774857E-01  0.29378089118E-01  0.72146971844E-01  0.51100000000E-03 0. -1.
         11    1    4    4    0    0  0.58890345401E-01  0.31306867483E-02  0.16899837313E-01  0.61349324390E-01  0.51100000000E-03 0.  1.
</event>
<event>
 8    1  0.5489035E+004  0.1043930E+01  0.7957747E-01            NaN
         13   -1    0    0    0    0  0.00000000000E+00  0.00000000000E+00  0.74505805969E-08  0.10566000000E+00  0.10566000000E+00 0.  1.
     999900   -1    0    0    0    0 -0.00000000000E+00 -0.00000000000E+00 -0.74505805969E-08  0.93827000000E+00  0.93827000000E+00 0. -1.
     999902    2    1    2    0    0 -0.19784755199E-01  0.17983429236E-01 -0.22477274204E-02  0.10170991867E+01  0.10167452301E+01 0.  0.
     999903    2    3    3    0    0  0.79730478242E-01 -0.73162323259E-01  0.58757324574E-01  0.12472457573E+00  0.19852503471E-01 0.  0.
         14    1    1    2    0    0  0.19784755199E-01 -0.17983429236E-01  0.22477274204E-02  0.26830813330E-01  0.00000000000E+00 0.  1.
     999901    1    3    3    0    0 -0.99515233441E-01  0.91145752495E-01 -0.61005051995E-01  0.89237461094E+00  0.88000000000E+00 0.  1.
        -11    1    4    4    0    0  0.50453977794E-01 -0.53151445060E-01  0.30507364969E-01  0.79382872369E-01  0.51100000000E-03 0.  1.
         11    1    4    4    0    0  0.29276500448E-01 -0.20010878199E-01  0.28249959606E-01  0.45341703359E-01  0.51100000000E-03 0. -1.
</event>
<event>
 8    1  0.5489035E+004  0.1043930E+01  0.7957747E-01            NaN
         13   -1    0    0    0    0  0.00000000000E+00  0.00000000000E+00  0.74505805969E-08  0.10566000000E+00  0.10566000000E+00 0.  1.
     999900   -1    0    0    0    0 -0.00000000000E+00 -0.00000000000E+00 -0.74505805969E-08  0.93827000000E+00  0.93827000000E+00 0.  1.
     999902    2    1    2    0    0 -0.34774913869E-02  0.22297902716E-01 -0.71817768282E-02  0.10202473623E+01  0.10199724569E+01 0.  0.
     999903    2    3    3    0    0  0.11228241356E+00  0.65160617690E-01 -0.96252937836E-02  0.13162846830E+00  0.19497715113E-01 0.  0.
         14    1    1    2    0    0  0.34774913869E-02 -0.22297902716E-01  0.71817768282E-02  0.23682637739E-01  0.00000000000E+00 0.  1.
     999901    1    3    3    0    0 -0.11575990494E+00 -0.42862714975E-01  0.24435169554E-02  0.88861889396E+00  0.88000000000E+00 0. -1.
        -11    1    4    4    0    0  0.15996052764E-01  0.57481316361E-02 -0.71826534247E-02  0.18459857869E-01  0.51100000000E-03 0. -1.
         11    1    4    4    0    0  0.96286360794E-01  0.59412486054E-01 -0.24426403589E-02  0.11316861043E+00  0.51100000000E-03 0.  1.
</event>
<event>
 8    1  0.5489035E+004  0.1043930E+01  0.7957747E-01            NaN
         13   -1    0    0    0    0  0.00000000000E+00  0.00000000000E+00  0.74505805969E-08  0.10566000000E+00  0.10566000000E+00 0.  1.
     999900   -1    0    0    0    0 -0.00000000000E+00 -0.00000000000E+00 -0.74505805969E-08  0.93827000000E+00  0.93827000000E+00 0. -1.
     999902    2    1    2    0    0  0.21124477513E-01 -0.42128783755E-02  0.98807299216E-02  0.10202314617E+01  0.10199561827E+01 0.  0.
     999903    2    3    3    0    0 -0.51959067468E-01 -0.11097651729E+00 -0.39293474333E-01  0.12941285978E+00  0.13717837653E-01 0.  0.
         14    1    1    2    0    0 -0.21124477513E-01  0.42128783755E-02 -0.98807299216E-02  0.23698538313E-01  0.00000000000E+00 0. -1.
     999901    1    3    3    0    0  0.73083544981E-01  0.10676363891E+00  0.49174204255E-01  0.89081860191E+00  0.88000000000E+00 0.  1.
        -11    1    4    4    0    0 -0.47817881802E-01 -0.10153063269E+00 -0.31777639181E-01  0.11664089620E+00  0.51100000000E-03 0. -1.
         11    1    4    4    0    0 -0.41411856659E-02 -0.94458845997E-02 -0.75158351520E-02  0.12771963577E-01  0.51100000000E-03 0.  1.
</event>
<event>
 8    1  0.5489035E+004  0.1043930E+01  0.7957747E-01            NaN
         13   -1    0    0    0    0  0.00000000000E+00  0.00000000000E+00  0.74505805969E-08  0.10566000000E+00  0.10566000000E+00 0. -1.
     999900   -1    0    0    0    0 -0.00000000000E+00 -0.00000000000E+00 -0.74505805969E-08  0.93827000000E+00  0.93827000000E+00 0.  1.
     999902    2    1    2    0    0 -0.35102784572E-02  0.20268383576E-01  0.11977270935E-01  0.10201269656E+01  0.10198492249E+01 0.  0.
     999903    2    3    3    0    0  0.66576285532E-01  0.81476356810E-02  0.11154240165E+00  0.13166072863E+00  0.19850801878E-01 0.  0.
         14    1    1    2    0    0  0.35102784572E-02 -0.20268383576E-01 -0.11977270935E-01  0.23803034401E-01  0.00000000000E+00 0.  1.
     999901    1    3    3    0    0 -0.70086563989E-01  0.12120747895E-01 -0.99565130714E-01  0.88846623697E+00  0.88000000000E+00 0.  1.
        -11    1    4    4    0    0  0.87284926554E-02  0.78847962190E-02  0.23969791748E-01  0.26705217335E-01  0.51100000000E-03 0.  1.
         11    1    4    4    0    0  0.57847792876E-01  0.26283946197E-03  0.87572609901E-01  0.10495551129E+00  0.51100000000E-03 0. -1.
</event>
<event>
 8    1  0.5489035E+004  0.1043930E+01  0.7957747E-01            NaN
         13   -1    0    0    0    0  0.00000000000E+00  0.00000000000E+00  0.74505805969E-08  0.10566000000E+00  0.10566000000E+00 0. -1.
     999900   -1    0    0    0    0 -0.00000000000E+00 -0.00000000000E+00 -0.74505805969E-08  0.93827000000E+00  0.93827000000E+00 0. -1.
     999902    2    1    2    0    0  0.11803816029E-02  0.12267020577E-01 -0.21014258332E-01  0.10195687162E+01  0.10192776339E+01 0.  0.
     999903    2    3    3    0    0  0.29035587848E-01 -0.53855781052E-01 -0.11495432519E+00  0.13166507641E+00  0.19434118267E-01 0.  0.
         14    1    1    2    0    0 -0.11803816029E-02 -0.12267020577E-01  0.21014258332E-01  0.24361283788E-01  0.00000000000E+00 0. -1.
     999901    1    3    3    0    0 -0.27855206245E-01  0.66122801629E-01  0.93940066855E-01  0.88790363980E+00  0.88000000000E+00 0.  1.
        -11    1    4    4    0    0  0.24058802729E-01 -0.24715072279E-01 -0.57637665556E-01  0.67171589220E-01  0.51100000000E-03 0. -1.
         11    1    4    4    0    0  0.49767851186E-02 -0.29140708773E-01 -0.57316659631E-01  0.64493487191E-01  0.51100000000E-03 0.  1.
</event>
<event>
 7    1  0.5489035E+004  0.1043930E+01  0.7957747E-01            NaN
         13   -1    0    0    0    0  0.00000000000E+00  0.00000000000E+00  0.74505805969E-08  0.10566000000E+00  0.10566000000E+00 0. -1.
     999900   -1    0    0    0    0 -0.00000000000E+00 -0.00000000000E+00 -0.74505805969E-08  0.93827000000E+00  0.93827000000E+00 0. -1.
     999903    2    1    2    0    0  0.10878622902E+00  0.34930531674E-02  0.42496440668E-01  0.11850062833E+00  0.19743515435E-01 0.  0.
         14    1    1    2    0    0 -0.12776904850E-01 -0.23323259517E-03 -0.38104851760E-01  0.40190588733E-01  0.00000000000E+00 0.  1.
     999901    1    1    2    0    0 -0.96009324167E-01 -0.32598205723E-02 -0.43915889072E-02  0.88523878293E+00  0.88000000000E+00 0.  1.
        -11    1    3    3    0    0  0.30896296931E-01 -0.76046648870E-02  0.14733309412E-01  0.35067700514E-01  0.51100000000E-03 0. -1.
         11    1    3    3    0    0  0.77889932087E-01  0.11097718054E-01  0.27763131256E-01  0.83432927820E-01  0.51100000000E-03 0.  1.
</event>
<event>
 8    1  0.5489035E+004  0.1043930E+01  0.7957747E-01            NaN
         13   -1    0    0    0    0  0.00000000000E+00  0.00000000000E+00  0.74505805969E-08  0.10566000000E+00  0.10566000000E+00 0. -1.
     999900   -1    0    0    0    0 -0.00000000000E+00 -0.00000000000E+00 -0.74505805969E-08  0.93827000000E+00  0.93827000000E+00 0. -1.
     999902    2    1    2    0    0  0.75989191286E-02 -0.19987998730E-01 -0.55579356788E-02  0.10218357855E+01  0.10215968961E+01 0.  0.
     999903    2    3    3    0    0  0.11161141274E+00  0.42422401222E-01  0.51888413834E-01  0.13165954457E+00  0.19622961249E-01 0.  0.
         14    1    1    2    0    0 -0.75989191286E-02  0.19987998730E-01  0.55579356788E-02  0.22094214496E-01  0.00000000000E+00 0. -1.
     999901    1    3    3    0    0 -0.10401249361E+00 -0.62410399952E-01 -0.57446349513E-01  0.89017624093E+00  0.88000000000E+00 0.  1.
        -11    1    4    4    0    0  0.68734699261E-01  0.25086996162E-01  0.41979965926E-01  0.84358727581E-01  0.51100000000E-03 0. -1.
         11    1    4    4    0    0  0.42876713475E-01  0.17335405060E-01  0.99084479078E-02  0.47300816991E-01  0.51100000000E-03 0.  1.
</event>
<event>
 8    1  0.5489035E+004  0.1043930E+01  0.7957747E-01            NaN
         13   -1    0    0    0    0  0.00000000000E+00  0.00000000000E+00  0.74505805969E-08  0.10566000000E+00  0.10566000000E+00 0.  1.
     999900   -1    0    0    0    0 -0.00000000000E+00 -0.00000000000E+00 -0.74505805969E-08  0.93827000000E+00  0.93827000000E+00 0.  1.
     999902    2    1    2    0    0  0.18310435861E-01 -0.95379717382E-02 -0.10100663950E-01  0.10209459103E+01  0.10206871624E+01 0.  0.
     999903    2    3    3    0    0 -0.74771577405E-01 -0.10362554826E+00  0.18677920718E-01  0.13058365809E+00  0.19343836216E-01 0.  0.
         14    1    1    2    0    0 -0.18310435861E-01  0.95379717382E-02  0.10100663950E-01  0.22984089683E-01  0.00000000000E+00 0.  1.
     999901    1    3    3    0    0  0.93082013267E-01  0.94087576519E-01 -0.28778584668E-01  0.89036225222E+00  0.88000000000E+00 0.  1.
        -11    1    4    4    0    0 -0.27568836771E-01 -0.53466655460E-01  0.50486787209E-02  0.60369481403E-01  0.51100000000E-03 0.  1.
         11    1    4    4    0    0 -0.47202740634E-01 -0.50158892797E-01  0.13629241997E-01  0.70214176691E-01  0.51100000000E-03 0. -1.
</event>
<event>
 8    1  0.5489035E+004  0.1043930E+01  0.7957747E-01            NaN
         13   -1    0    0    0    0  0.00000000000E+00  0.00000000000E+00  0.74505805969E-08  0.10566000000E+00  0.10566000000E+00 0. -1.
     999900   -1    0    0    0    0 -0.00000000000E+00 -0.00000000000E+00 -0.74505805969E-08  0.93827000000E+00  0.93827000000E+00 0. -1.
     999902    2    1    2    0    0  0.10824000836E-01 -0.87519563186E-02  0.18932984733E-01  0.10204307735E+01  0.10201601590E+01 0.  0.
     999903    2    3    3    0    0  0.72874934046E-01  0.60746888592E-01  0.90334938611E-01  0.13263651428E+00  0.20763027229E-01 0.  0.
         14    1    1    2    0    0 -0.10824000836E-01  0.87519563186E-02 -0.18932984733E-01  0.23499226464E-01  0.00000000000E+00 0. -1.
     999901    1    3    3    0    0 -0.62050933210E-01 -0.69498844911E-01 -0.71401953878E-01  0.88779425926E+00  0.88000000000E+00 0. -1.
        -11    1    4    4    0    0  0.20551149327E-01  0.29961824620E-01  0.31368240990E-01  0.48003003417E-01  0.51100000000E-03 0. -1.
         11    1    4    4    0    0  0.52323784719E-01  0.30785063972E-01  0.58966697622E-01  0.84633510860E-01  0.51100000000E-03 0.  1.
</event>
<event>
 8    1  0.5489035E+004  0.1043930E+01  0.7957747E-01            NaN
         13   -1    0    0    0    0  0.00000000000E+00  0.00000000000E+00  0.74505805969E-08  0.10566000000E+00  0.10566000000E+00 0.  1.
     999900   -1    0    0    0    0 -0.00000000000E+00 -0.00000000000E+00 -0.74505805969E-08  0.93827000000E+00  0.93827000000E+00 0.  1.
     999902    2    1    2    0    0  0.18533770711E-01  0.65160388387E-02  0.13297868710E-01  0.10202067470E+01  0.10199308869E+01 0.  0.
     999903    2    3    3    0    0  0.40775828001E-01  0.45813182546E-01 -0.11287900297E+00  0.13006092889E+00  0.20314036239E-01 0.  0.
         14    1    1    2    0    0 -0.18533770711E-01 -0.65160388387E-02 -0.13297868710E-01  0.23723252963E-01  0.00000000000E+00 0.  1.
     999901    1    3    3    0    0 -0.22242057290E-01 -0.39297143708E-01  0.12617687168E+00  0.89014581815E+00  0.88000000000E+00 0. -1.
        -11    1    4    4    0    0  0.35437874470E-01  0.38500442053E-01 -0.77318375338E-01  0.93362301124E-01  0.51100000000E-03 0.  1.
         11    1    4    4    0    0  0.53379535307E-02  0.73127404931E-02 -0.35560627631E-01  0.36698627767E-01  0.51100000000E-03 0. -1.
</event>
<event>
 8    1  0.5489035E+004  0.1043930E+01  0.7957747E-01            NaN
         13   -1    0    0    0    0  0.00000000000E+00  0.00000000000E+00  0.74505805969E-08  0.10566000000E+00  0.10566000000E+00 0.  1.
     999900   -1    0    0    0    0 -0.00000000000E+00 -0.00000000000E+00 -0.74505805969E-08  0.93827000000E+00  0.93827000000E+00 0.  1.
     999902    2    1    2    0    0 -0.18389594207E-01  0.14902896306E-01 -0.39372772890E-02  0.10199346745E+01  0.10196523744E+01 0.  0.
     999903    2    3    3    0    0 -0.10485457673E+00  0.36536441082E-01 -0.70165492977E-01  0.13295644477E+00  0.20611307862E-01 0.  0.
         14    1    1    2    0    0  0.18389594207E-01 -0.14902896306E-01  0.39372772890E-02  0.23995325500E-01  0.00000000000E+00 0. -1.
     999901    1    3    3    0    0  0.86464982527E-01 -0.21633544776E-01  0.66228215688E-01  0.88697822973E+00  0.88000000000E+00 0. -1.
        -11    1    4    4    0    0 -0.83381109071E-01  0.30275635367E-01 -0.45647670292E-01  0.99764695012E-01  0.51100000000E-03 0.  1.
         11    1    4    4    0    0 -0.21473467663E-01  0.62608057154E-02 -0.24517822685E-01  0.33191749757E-01  0.51100000000E-03 0. -1.
</event>
<event>
 8    1  0.5489035E+004  0.1043930E+01  0.7957747E-01            NaN
         13   -1    0    0    0    0  0.00000000000E+00  0.00000000000E+00  0.74505805969E-08  0.10566000000E+00  0.10566000000E+00 0. -1.
     999900   -1    0    0    0    0 -0.00000000000E+00 -0.00000000000E+00 -0.74505805969E-08  0.93827000000E+00  0.93827000000E+00 0.  1.
     999902    2    1    2    0    0 -0.62403344435E-02  0.73330439392E-02 -0.21880028338E-01  0.10200249598E+01  0.10197448052E+01 0.  0.
     999903    2    3    3    0    0 -0.80855039895E-01  0.16957770971E-01 -0.10246979567E+00  0.13314576833E+00  0.20065720210E-01 0.  0.
         14    1    1    2    0    0  0.62403344435E-02 -0.73330439392E-02  0.21880028338E-01  0.23905040210E-01  0.00000000000E+00 0. -1.
     999901    1    3    3    0    0  0.74614705452E-01 -0.96247270319E-02  0.80589767333E-01  0.88687919146E+00  0.88000000000E+00 0. -1.
        -11    1    4    4    0    0 -0.25667462724E-01  0.57730288057E-02 -0.18997029489E-01  0.32454502842E-01  0.51100000000E-03 0. -1.
         11    1    4    4    0    0 -0.55187577171E-01  0.11184742165E-01 -0.83472766182E-01  0.10069126549E+00  0.51100000000E-03 0.  1.
</event>
<event>
 8    1  0.5489035E+004  0.1043930E+01  0.7957747E-01            NaN
         13   -1    0    0    0    0  0.00000000000E+00  0.00000000000E+00  0.74505805969E-08  0.10566000000E+00  0.10566000000E+00 0.  1.
     999900   -1    0    0    0    0 -0.00000000000E+00 -0.00000000000E+00 -0.74505805969E-08  0.93827000000E+00  0.93827000000E+00 0.  1.
     999902    2    1    2    0    0 -0.76335383198E-02 -0.22002007234E-01 -0.75749157707E-02  0.10194404394E+01  0.10191462461E+01 0.  0.
     999903    2    3    3    0    0 -0.11426219653E+00 -0.86909385562E-02 -0.60625948123E-01  0.13131811261E+00  0.20917914451E-01 0.  0.
         14    1    1    2    0    0  0.76335383198E-02  0.22002007234E-01  0.75749157707E-02  0.24489560603E-01  0.00000000000E+00 0. -1.
     999901    1    3    3    0    0  0.10662865821E+00 -0.13311068678E-01  0.53051032352E-01  0.88812232679E+00  0.88000000000E+00 0. -1.
        -11    1    4    4    0    0 -0.14654283697E-01  0.41880800192E-02 -0.30638797911E-02  0.15554308898E-01  0.51100000000E-03 0.  1.
         11    1    4    4    0    0 -0.99607912834E-01 -0.12879018575E-01 -0.57562068332E-01  0.11576380371E+00  0.51100000000E-03 0. -1.
</event>
<event>
 8    1  0.5489035E+004  0.1043930E+01  0.7957747E-01            NaN
         13   -1    0    0    0    0  0.00000000000E+00  0.00000000000E+00  0.74505805969E-08  0.10566000000E+00  0.10566000000E+00 0. -1.
     999900   -1    0    0    0    0 -0.00000000000E+00 -0.00000000000E+00 -0.74505805969E-08  0.93827000000E+00  0.93827000000E+00 0.  1.
     999902    2    1    2    0    0  0.21551225019E-01  0.96992332387E-02  0.15227315823E-03  0.10202962611E+01  0.10200225031E+01 0.  0.
     999903    2    3    3    0    0  0.10057931650E+00  0.84487420589E-01  0.34448792567E-02  0.13358912039E+00  0.24080339436E-01 0.  0.
         14    1    1    2    0    0 -0.21551225019E-01 -0.96992332387E-02 -0.15227315823E-03  0.23633738857E-01  0.00000000000E+00 0.  1.
     999901    1    3    3    0    0 -0.79028091483E-01 -0.74788187350E-01 -0.32926060984E-02  0.88670714075E+00  0.88000000000E+00 0. -1.
        -11    1    4    4    0    0  0.34306943578E-01  0.41097268432E-01  0.85250690194E-02  0.54211528045E-01  0.51100000000E-03 0. -1.
         11    1    4    4    0    0  0.66272372924E-01  0.43390152157E-01 -0.50801897627E-02  0.79377592343E-01  0.51100000000E-03 0.  1.
</event>
<event>
 8    1  0.5489035E+004  0.1043930E+01  0.7957747E-01            NaN
         13   -1    0    0    0    0  0.00000000000E+00  0.00000000000E+00  0.74505805969E-08  0.10566000000E+00  0.10566000000E+00 0.  1.
     999900   -1    0    0    0    0 -0.00000000000E+00 -0.00000000000E+00 -0.74505805969E-08  0.93827000000E+00  0.93827000000E+00 0. -1.
     999902    2    1    2    0    0  0.52864730865E-02 -0.44384442030E-02 -0.22530531888E-01  0.10203658015E+01  0.10200936709E+01 0.  0.
     999903    2    3    3    0    0 -0.84816451466E-01 -0.20306435264E-01  0.91877988811E-01  0.12825614468E+00  0.20047245881E-01 0.  0.
         14    1    1    2    0    0 -0.52864730865E-02  0.44384442030E-02  0.22530531888E-01  0.23564198518E-01  0.00000000000E+00 0.  1.
     999901    1    3    3    0    0  0.90102924552E-01  0.15867991061E-01 -0.11440852070E+00  0.89210965680E+00  0.88000000000E+00 0. -1.
        -11    1    4    4    0    0 -0.21684989901E-01 -0.98932951961E-02  0.14722342684E-01  0.28020074446E-01  0.51100000000E-03 0.  1.
         11    1    4    4    0    0 -0.63131461565E-01 -0.10413140068E-01  0.77155646127E-01  0.10023607023E+00  0.51100000000E-03 0. -1.
</event>
<event>
 8    1  0.5489035E+004  0.1043930E+01  0.7957747E-01            NaN
         13   -1    0    0    0    0  0.00000000000E+00  0.00000000000E+00  0.74505805969E-08  0.10566000000E+00  0.10566000000E+00 0.  1.
     999900   -1    0    0    0    0 -0.00000000000E+00 -0.00000000000E+00 -0.74505805969E-08  0.93827000000E+00  0.93827000000E+00 0.  1.
     999902    2    1    2    0    0  0.21506399967E-01 -0.90436306369E-02 -0.90538228900E-02  0.10189043291E+01  0.10185969506E+01 0.  0.
     999903    2    3    3    0    0 -0.44376812136E-01 -0.23507199919E-01 -0.11778020179E+00  0.12965114922E+00  0.20380251664E-01 0.  0.
         14    1    1    2    0    0 -0.21506399967E-01  0.90436306369E-02  0.90538228900E-02  0.25025670892E-01  0.00000000000E+00 0.  1.
     999901    1    3    3    0    0  0.65883212104E-01  0.14463569282E-01  0.10872637890E+00  0.88925317989E+00  0.88000000000E+00 0. -1.
        -11    1    4    4    0    0 -0.25957772917E-01 -0.19667262307E-01 -0.53151101172E-01  0.62337050446E-01  0.51100000000E-03 0. -1.
         11    1    4    4    0    0 -0.18419039219E-01 -0.38399376118E-02 -0.64629100614E-01  0.67314098774E-01  0.51100000000E-03 0.  1.
</event>
<event>
 8    1  0.5489035E+004  0.1043930E+01  0.7957747E-01            NaN
         13   -1    0    0    0    0  0.00000000000E+00  0.00000000000E+00  0.74505805969E-08  0.10566000000E+00  0.10566000000E+00 0.  1.
     999900   -1    0    0    0    0 -0.00000000000E+00 -0.00000000000E+00 -0.74505805969E-08  0.93827000000E+00  0.93827000000E+00 0.  1.
     999902    2    1    2    0    0 -0.13490149760E-01 -0.15590918449E-01 -0.97457589679E-02  0.10211255992E+01  0.10208709265E+01 0.  0.
     999903    2    3    3    0    0 -0.68091803178E-01 -0.11028507710E+00 -0.28444575091E-01  0.13416563957E+00  0.19799825719E-01 0.  0.
         14    1    1    2    0    0  0.13490149760E-01  0.15590918449E-01  0.97457589679E-02  0.22804400814E-01  0.00000000000E+00 0.  1.
     999901    1    3    3    0    0  0.54601653418E-01  0.94694158650E-01  0.18698816123E-01  0.88695995962E+00  0.88000000000E+00 0. -1.
        -11    1    4    4    0    0 -0.30127147321E-01 -0.36631711473E-01 -0.31907182034E-02  0.47539132247E-01  0.51100000000E-03 0.  1.
         11    1    4    4    0    0 -0.37964655857E-01 -0.73653365625E-01 -0.25253856888E-01  0.86626507323E-01  0.51100000000E-03 0. -1.
</event>
<event>
 8    1  0.5489035E+004  0.1043930E+01  0.7957747E-01            NaN
         13   -1    0    0    0    0  0.00000000000E+00  0.00000000000E+00  0.74505805969E-08  0.10566000000E+00  0.10566000000E+00 0. -1.
     999900   -1    0    0    0    0 -0.00000000000E+00 -0.00000000000E+00 -0.74505805969E-08  0.93827000000E+00  0.93827000000E+00 0. -1.
     999902    2    1    2    0    0  0.61965454629E-03  0.18078305035E-01  0.16194871920E-01  0.10196507298E+01  0.10193616276E+01 0.  0.
     999903    2    3    3    0    0  0.64557839949E-01  0.63754932863E-01 -0.91165002752E-01  0.12965039915E+00  0.16302211780E-01 0.  0.
         14    1    1    2    0    0 -0.61965454629E-03 -0.18078305035E-01 -0.16194871920E-01  0.24279270195E-01  0.00000000000E+00 0.  1.
     999901    1    3    3    0    0 -0.63938185403E-01 -0.45676627828E-01  0.10735987467E+00  0.89000033066E+00  0.88000000000E+00 0.  1.
        -11    1    4    4    0    0  0.33182212551E-01  0.28455426336E-01 -0.54454058166E-01  0.69830337887E-01  0.51100000000E-03 0.  1.
         11    1    4    4    0    0  0.31375627398E-01  0.35299506527E-01 -0.36710944586E-01  0.59820061259E-01  0.51100000000E-03 0. -1.
</event>
<event>
 8    1  0.5489035E+004  0.1043930E+01  0.7957747E-01            NaN
         13   -1    0    0    0    0  0.00000000000E+00  0.00000000000E+00  0.74505805969E-08  0.10566000000E+00  0.10566000000E+00 0. -1.
     999900   -1    0    0    0    0 -0.00000000000E+00 -0.00000000000E+00 -0.74505805969E-08  0.93827000000E+00  0.93827000000E+00 0. -1.
     999902    2    1    2    0    0 -0.24863068296E-02 -0.12045657839E-01 -0.19989228177E-01  0.10204598309E+01  0.10201898929E+01 0.  0.
     999903    2    3    3    0    0 -0.61164818074E-01  0.20511379275E-01 -0.11441563453E+00  0.13286787816E+00  0.20027081005E-01 0.  0.
         14    1    1    2    0    0  0.24863068296E-02  0.12045657839E-01  0.19989228177E-01  0.23470169099E-01  0.00000000000E+00 0. -1.
     999901    1    3    3    0    0  0.58678511244E-01 -0.32557037114E-01  0.94426406351E-01  0.88759195274E+00  0.88000000000E+00 0.  1.
        -11    1    4    4    0    0 -0.42782262098E-01  0.10644172604E-01 -0.59007902865E-01  0.73660125456E-01  0.51100000000E-03 0.  1.
         11    1    4    4    0    0 -0.18382555976E-01  0.98672066709E-02 -0.55407731663E-01  0.59207752708E-01  0.51100000000E-03 0. -1.
</event>
<event>
 8    1  0.5489035E+004  0.1043930E+01  0.7957747E-01            NaN
         13   -1    0    0    0    0  0.00000000000E+00  0.00000000000E+00  0.74505805969E-08  0.10566000000E+00  0.10566000000E+00 0.  1.
     999900   -1    0    0    0    0 -0.00000000000E+00 -0.00000000000E+00 -0.74505805969E-08  0.93827000000E+00  0.93827000000E+00 0. -1.
     999902    2    1    2    0    0 -0.69512078485E-02 -0.29950616798E-01  0.10403683134E-01  0.10114708663E+01  0.10109499088E+01 0.  0.
     999903    2    3    3    0    0  0.93448836604E-01  0.70771615268E-01  0.16279697615E-01  0.12003401240E+00  0.20045672566E-01 0.  0.
         14    1    1    2    0    0  0.69512078485E-02  0.29950616798E-01 -0.10403683134E-01  0.32459133690E-01  0.00000000000E+00 0. -1.
     999901    1    3    3    0    0 -0.10040004445E+00 -0.10072223207E+00 -0.58760144809E-02  0.89143685391E+00  0.88000000000E+00 0. -1.
        -11    1    4    4    0    0  0.69773750457E-02  0.71304727656E-02  0.71389627292E-02  0.12278164123E-01  0.51100000000E-03 0. -1.
         11    1    4    4    0    0  0.86471461558E-01  0.63641142503E-01  0.91407348862E-02  0.10775584828E+00  0.51100000000E-03 0.  1.
</event>
<event>
 8    1  0.5489035E+004  0.1043930E+01  0.7957747E-01            NaN
         13   -1    0    0    0    0  0.00000000000E+00  0.00000000000E+00  0.74505805969E-08  0.10566000000E+00  0.10566000000E+00 0. -1.
     999900   -1    0    0    0    0 -0.00000000000E+00 -0.00000000000E+00 -0.74505805969E-08  0.93827000000E+00  0.93827000000E+00 0.  1.
     999902    2    1    2    0    0  0.10689607656E-01 -0.13269067694E-01  0.17051783449E-01  0.10198240010E+01  0.10195390595E+01 0.  0.
     999903    2    3    3    0    0  0.14550560769E-01 -0.11576536715E+00 -0.55856562423E-01  0.13087179460E+00  0.19852758111E-01 0.  0.
         14    1    1    2    0    0 -0.10689607656E-01  0.13269067694E-01 -0.17051783449E-01  0.24105999007E-01  0.00000000000E+00 0.  1.
     999901    1    3    3    0    0 -0.38609531136E-02  0.10249629946E+00  0.72908345873E-01  0.88895220640E+00  0.88000000000E+00 0. -1.
        -11    1    4    4    0    0 -0.13801548965E-02 -0.11782727313E-01 -0.12051777299E-01  0.16918745448E-01  0.51100000000E-03 0.  1.
         11    1    4    4    0    0  0.15930715666E-01 -0.10398263984E+00 -0.43804785125E-01  0.11395304915E+00  0.51100000000E-03 0. -1.
</event>
<event>
 8    1  0.5489035E+004  0.1043930E+01  0.7957747E-01            NaN
         13   -1    0    0    0    0  0.00000000000E+00  0.00000000000E+00  0.74505805969E-08  0.10566000000E+00  0.10566000000E+00 0. -1.
     999900   -1    0    0    0    0 -0.00000000000E+00 -0.00000000000E+00 -0.74505805969E-08  0.93827000000E+00  0.93827000000E+00 0. -1.
     999902    2    1    2    0    0  0.88561536870E-02  0.10904511142E-01  0.17862340114E-01  0.10212054975E+01  0.10209526262E+01 0.  0.
     999903    2    3    3    0    0 -0.19510798129E-01 -0.12341406671E+00 -0.27431849079E-01  0.12941083057E+00  0.19569200811E-01 0.  0.
         14    1    1    2    0    0 -0.88561536870E-02 -0.10904511142E-01 -0.17862340114E-01  0.22724502541E-01  0.00000000000E+00 0.  1.
     999901    1    3    3    0    0  0.28366951816E-01  0.13431857785E+00  0.45294189193E-01  0.89179466689E+00  0.88000000000E+00 0. -1.
        -11    1    4    4    0    0 -0.12624211144E-01 -0.73943064736E-01 -0.26155760755E-01  0.79443895116E-01  0.51100000000E-03 0. -1.
         11    1    4    4    0    0 -0.68865869851E-02 -0.49471001974E-01 -0.12760883242E-02  0.49966935458E-01  0.51100000000E-03 0.  1.
</event>
<event>
 8    1  0.5489035E+004  0.1043930E+01  0.7957747E-01            NaN
         13   -1    0    0    0    0  0.00000000000E+00  0.00000000000E+00  0.74505805969E-08  0.10566000000E+00  0.10566000000E+00 0.  1.
     999900   -1    0    0    0    0 -0.00000000000E+00 -0.00000000000E+00 -0.74505805969E-08  0.93827000000E+00  0.93827000000E+00 0.  1.
     999902    2    1    2    0    0 -0.12326159577E-01  0.18087388922E-01  0.62870120829E-02  0.10211568937E+01  0.10209029274E+01 0.  0.
     999903    2    3    3    0    0 -0.55662876387E-01 -0.10251688716E+00  0.54175684761E-01  0.13058584806E+00  0.22574120862E-01 0.  0.
         14    1    1    2    0    0  0.12326159577E-01 -0.18087388922E-01 -0.62870120829E-02  0.22773106263E-01  0.00000000000E+00 0. -1.
     999901    1    3    3    0    0  0.43336716811E-01  0.12060427608E+00 -0.47888672678E-01  0.89057104568E+00  0.88000000000E+00 0.  1.
        -11    1    4    4    0    0 -0.39889512995E-01 -0.50613320641E-01  0.26449529752E-01  0.69661468678E-01  0.51100000000E-03 0. -1.
         11    1    4    4    0    0 -0.15773363392E-01 -0.51903566519E-01  0.27726155009E-01  0.60924379379E-01  0.51100000000E-03 0.  1.
</event>
<event>
 8    1  0.5489035E+004  0.1043930E+01  0.7957747E-01            NaN
         13   -1    0    0    0    0  0.00000000000E+00  0.00000000000E+00  0.74505805969E-08  0.10566000000E+00  0.10566000000E+00 0.  1.
     999900   -1    0    0    0    0 -0.00000000000E+00 -0.00000000000E+00 -0.74505805969E-08  0.93827000000E+00  0.93827000000E+00 0.  1.
     999902    2    1    2    0    0 -0.19498097936E-01 -0.10265990662E-01 -0.81706915004E-02  0.10204283705E+01  0.10201577000E+01 0.  0.
     999903    2    3    3    0    0 -0.72377678085E-01 -0.48039071926E-01  0.98070993508E-01  0.13165936158E+00  0.13037906559E-01 0.  0.
         14    1    1    2    0    0  0.19498097936E-01  0.10265990662E-01  0.81706915004E-02  0.23501629454E-01  0.00000000000E+00 0.  1.
     999901    1    3    3    0    0  0.52879580149E-01  0.37773081264E-01 -0.10624168501E+00  0.88876900897E+00  0.88000000000E+00 0.  1.
        -11    1    4    4    0    0 -0.18673798663E-01 -0.14742815003E-01  0.35446568251E-01  0.42694047273E-01  0.51100000000E-03 0.  1.
         11    1    4    4    0    0 -0.53703879422E-01 -0.33296256923E-01  0.62624425257E-01  0.88965314308E-01  0.51100000000E-03 0. -1.
</event>
<event>
 8    1  0.5489035E+004  0.1043930E+01  0.7957747E-01            NaN
         13   -1    0    0    0    0  0.00000000000E+00  0.00000000000E+00  0.74505805969E-08  0.10566000000E+00  0.10566000000E+00 0.  1.
     999900   -1    0    0    0    0 -0.00000000000E+00 -0.00000000000E+00 -0.74505805969E-08  0.93827000000E+00  0.93827000000E+00 0.  1.
     999902    2    1    2    0    0 -0.47856810838E-02 -0.15591718332E-01 -0.17548174070E-01  0.10199728959E+01  0.10196915051E+01 0.  0.
     999903    2    3    3    0    0 -0.59984844282E-01 -0.11606670089E+00  0.57516830108E-02  0.13223134956E+00  0.19554727081E-01 0.  0.
         14    1    1    2    0    0  0.47856810838E-02  0.15591718332E-01  0.17548174070E-01  0.23957104107E-01  0.00000000000E+00 0.  1.
     999901    1    3    3    0    0  0.55199163198E-01  0.10047498256E+00 -0.23299857080E-01  0.88774154633E+00  0.88000000000E+00 0.  1.
        -11    1    4    4    0    0 -0.60368225638E-01 -0.10739995416E+00  0.35001133223E-02  0.12325414693E+00  0.51100000000E-03 0. -1.
         11    1    4    4    0    0  0.38338135616E-03 -0.86667467314E-02  0.22515696885E-02  0.89772026396E-02  0.51100000000E-03 0.  1.
</event>
<event>
 8    1  0.5489035E+004  0.1043930E+01  0.7957747E-01            NaN
         13   -1    0    0    0    0  0.00000000000E+00  0.00000000000E+00  0.74505805969E-08  0.10566000000E+00  0.10566000000E+00 0.  1.
     999900   -1    0    0    0    0 -0.00000000000E+00 -0.00000000000E+00 -0.74505805969E-08  0.93827000000E+00  0.93827000000E+00 0. -1.
     999902    2    1    2    0    0  0.23070344997E-02  0.22644272976E-01  0.66096852716E-02  0.10202282396E+01  0.10199528849E+01 0.  0.
     999903    2    3    3    0    0  0.22259736403E-01  0.15776063652E-01  0.12731499407E+00  0.13173791653E+00  0.20034742026E-01 0.  0.
         14    1    1    2    0    0 -0.23070344997E-02 -0.22644272976E-01 -0.66096852716E-02  0.23701760403E-01  0.00000000000E+00 0.  1.
     999901    1    3    3    0    0 -0.19952701903E-01  0.68682093238E-02 -0.12070530880E+00  0.88849032307E+00  0.88000000000E+00 0. -1.
        -11    1    4    4    0    0  0.10664421097E-01  0.17479587734E-01  0.98862367778E-01  0.10096184798E+00  0.51100000000E-03 0.  1.
         11    1    4    4    0    0  0.11595315306E-01 -0.17035240815E-02  0.28452626290E-01  0.30776068546E-01  0.51100000000E-03 0. -1.
</event>
<event>
 8    1  0.5489035E+004  0.1043930E+01  0.7957747E-01            NaN
         13   -1    0    0    0    0  0.00000000000E+00  0.00000000000E+00  0.74505805969E-08  0.10566000000E+00  0.10566000000E+00 0.  1.
     999900   -1    0    0    0    0 -0.00000000000E+00 -0.00000000000E+00 -0.74505805969E-08  0.93827000000E+00  0.93827000000E+00 0.  1.
     999902    2    1    2    0    0  0.26172117229E-02  0.13244050841E-01 -0.18644344053E-01  0.10209111763E+01  0.10206516368E+01 0.  0.
     999903    2    3    3    0    0  0.33159735817E-01 -0.39281224899E-01  0.11625512822E+00  0.12856056247E+00  0.19234881756E-01 0.  0.
         14    1    1    2    0    0 -0.26172117229E-02 -0.13244050841E-01  0.18644344053E-01  0.23018823711E-01  0.00000000000E+00 0.  1.
     999901    1    3    3    0    0 -0.30542524094E-01  0.52525275740E-01 -0.13489947227E+00  0.89235061382E+00  0.88000000000E+00 0.  1.
        -11    1    4    4    0    0  0.12766569035E-02 -0.10589425406E-01  0.36140127163E-01  0.37684687814E-01  0.51100000000E-03 0. -1.
         11    1    4    4    0    0  0.31883078914E-01 -0.28691799493E-01  0.80115001053E-01  0.90875874653E-01  0.51100000000E-03 0.  1.
</event>
<event>
 8    1  0.5489035E+004  0.1043930E+01  0.7957747E-01            NaN
         13   -1    0    0    0    0  0.00000000000E+00  0.00000000000E+00  0.74505805969E-08  0.10566000000E+00  0.10566000000E+00 0.  1.
     999900   -1    0    0    0    0 -0.00000000000E+00 -0.00000000000E+00 -0.74505805969E-08  0.93827000000E+00  0.93827000000E+00 0.  1.
     999902    2    1    2    0    0 -0.22855260054E-01  0.12923287113E-01 -0.44364460343E-03  0.10176703145E+01  0.10173314592E+01 0.  0.
     999903    2    3    3    0    0 -0.76570267023E-01 -0.93804289177E-01 -0.39094802326E-01  0.12875525134E+00  0.19678941027E-01 0.  0.
         14    1    1    2    0    0  0.22855260054E-01 -0.12923287113E-01  0.44364460343E-03  0.26259685499E-01  0.00000000000E+00 0. -1.
     999901    1    3    3    0    0  0.53715006968E-01  0.10672757629E+00  0.38651157723E-01  0.88891506316E+00  0.88000000000E+00 0.  1.
        -11    1    4    4    0    0 -0.68358059547E-01 -0.81195261318E-01 -0.40564235062E-01  0.11362751891E+00  0.51100000000E-03 0.  1.
         11    1    4    4    0    0 -0.82122074753E-02 -0.12609027858E-01  0.14694327358E-02  0.15127732438E-01  0.51100000000E-03 0. -1.
</event>
<event>
 8    1  0.5489035E+004  0.1043930E+01  0.7957747E-01            NaN
         13   -1    0    0    0    0  0.00000000000E+00  0.00000000000E+00  0.74505805969E-08  0.10566000000E+00  0.10566000000E+00 0. -1.
     999900   -1    0    0    0    0 -0.00000000000E+00 -0.00000000000E+00 -0.74505805969E-08  0.93827000000E+00  0.93827000000E+00 0. -1.
     999902    2    1    2    0    0 -0.60122730157E-02 -0.12823162129E-01  0.18954813489E-01  0.10202685151E+01  0.10199941064E+01 0.  0.
     999903    2    3    3    0    0  0.79704101742E-01 -0.41809150023E-01  0.94422604598E-01  0.13241555886E+00  0.22748694644E-01 0.  0.
         14    1    1    2    0    0  0.60122730157E-02  0.12823162129E-01 -0.18954813489E-01  0.23661484911E-01  0.00000000000E+00 0.  1.
     999901    1    3    3    0    0 -0.85716374757E-01  0.28985987894E-01 -0.75467791109E-01  0.88785295623E+00  0.88000000000E+00 0. -1.
        -11    1    4    4    0    0  0.39647176524E-01 -0.14918320893E-01  0.29921161128E-01  0.51865131918E-01  0.51100000000E-03 0.  1.
         11    1    4    4    0    0  0.40056925217E-01 -0.26890829130E-01  0.64501443471E-01  0.80550426938E-01  0.51100000000E-03 0. -1.
</event>
<event>
 8    1  0.5489035E+004  0.1043930E+01  0.7957747E-01            NaN
         13   -1    0    0    0    0  0.00000000000E+00  0.00000000000E+00  0.74505805969E-08  0.10566000000E+00  0.10566000000E+00 0. -1.
     999900   -1    0    0    0    0 -0.00000000000E+00 -0.00000000000E+00 -0.74505805969E-08  0.93827000000E+00  0.93827000000E+00 0.  1.
     999902    2    1    2    0    0  0.20435439947E-01  0.61070250968E-02  0.12047715643E-01  0.10194340735E+01  0.10191397254E+01 0.  0.
     999903    2    3    3    0    0  0.54632029881E-01 -0.69464158483E-01 -0.92409544236E-01  0.12938254149E+00  0.19758293788E-01 0.  0.
         14    1    1    2    0    0 -0.20435439947E-01 -0.61070250968E-02 -0.12047715643E-01  0.24495926469E-01  0.00000000000E+00 0.  1.
     999901    1    3    3    0    0 -0.34196589934E-01  0.75571183580E-01  0.10445725988E+00  0.89005153204E+00  0.88000000000E+00 0. -1.
        -11    1    4    4    0    0  0.51869550271E-01 -0.69380077017E-01 -0.92278817757E-01  0.12656890084E+00  0.51100000000E-03 0.  1.
         11    1    4    4    0    0  0.27624796098E-02 -0.84081466685E-04 -0.13072647885E-03  0.28136406486E-02  0.51100000000E-03 0. -1.
</event>
<event>
 8    1  0.5489035E+004  0.1043930E+01  0.7957747E-01            NaN
         13   -1    0    0    0    0  0.00000000000E+00  0.00000000000E+00  0.74505805969E-08  0.10566000000E+00  0.10566000000E+00 0. -1.
     999900   -1    0    0    0    0 -0.00000000000E+00 -0.00000000000E+00 -0.74505805969E-08  0.93827000000E+00  0.93827000000E+00 0. -1.
     999902    2    1    2    0    0  0.86100707641E-02  0.74358646627E-02 -0.21212826388E-01  0.10198590755E+01  0.10195749725E+01 0.  0.
     999903    2    3    3    0    0  0.12195164149E+00  0.26853420279E-01  0.33444074254E-01  0.13069613775E+00  0.19226681396E-01 0.  0.
         14    1    1    2    0    0 -0.86100707641E-02 -0.74358646627E-02  0.21212826388E-01  0.24070924478E-01  0.00000000000E+00 0. -1.
     999901    1    3    3    0    0 -0.11334157072E+00 -0.19417555617E-01 -0.54656900642E-01  0.88916293777E+00  0.88000000000E+00 0. -1.
        -11    1    4    4    0    0  0.50726214662E-01  0.19515968783E-01  0.19509809250E-01  0.57748728726E-01  0.51100000000E-03 0.  1.
         11    1    4    4    0    0  0.71225426827E-01  0.73374514962E-02  0.13934265005E-01  0.72947409024E-01  0.51100000000E-03 0. -1.
</event>
<event>
 8    1  0.5489035E+004  0.1043930E+01  0.7957747E-01            NaN
         13   -1    0    0    0    0  0.00000000000E+00  0.00000000000E+00  0.74505805969E-08  0.10566000000E+00  0.10566000000E+00 0.  1.
     999900   -1    0    0    0    0 -0.00000000000E+00 -0.00000000000E+00 -0.74505805969E-08  0.93827000000E+00  0.93827000000E+00 0. -1.
     999902    2    1    2    0    0  0.10918322555E-02  0.15755361505E-01 -0.18581724903E-01  0.10195434460E+01  0.10192517522E+01 0.  0.
     999903    2    3    3    0    0  0.41491113189E-01  0.10954283187E+00  0.54131938838E-01  0.13065905063E+00  0.20503078373E-01 0.  0.
         14    1    1    2    0    0 -0.10918322555E-02 -0.15755361505E-01  0.18581724903E-01  0.24386553963E-01  0.00000000000E+00 0.  1.
     999901    1    3    3    0    0 -0.40399280934E-01 -0.93787470362E-01 -0.72713663741E-01  0.88888439540E+00  0.88000000000E+00 0. -1.
        -11    1    4    4    0    0  0.35345132451E-01  0.84193816520E-01  0.33026583918E-01  0.97102489641E-01  0.51100000000E-03 0. -1.
         11    1    4    4    0    0  0.61459807381E-02  0.25349015348E-01  0.21105354920E-01  0.33556560993E-01  0.51100000000E-03 0.  1.
</event>
<event>
 8    1  0.5489035E+004  0.1043930E+01  0.7957747E-01            NaN
         13   -1    0    0    0    0  0.00000000000E+00  0.00000000000E+00  0.74505805969E-08  0.10566000000E+00  0.10566000000E+00 0. -1.
     999900   -1    0    0    0    0 -0.00000000000E+00 -0.00000000000E+00 -0.74505805969E-08  0.93827000000E+00  0.93827000000E+00 0. -1.
     999902    2    1    2    0    0  0.62674047643E-02 -0.12848527569E-01  0.18792601816E-01  0.10203179923E+01  0.10200447434E+01 0.  0.
     999903    2    3    3    0    0 -0.80744093101E-01 -0.71271907373E-01 -0.69763454899E-01  0.12968537040E+00  0.18763323390E-01 0.  0.
         14    1    1    2    0    0 -0.62674047643E-02  0.12848527569E-01 -0.18792601816E-01  0.23612007670E-01  0.00000000000E+00 0.  1.
     999901    1    3    3    0    0  0.87011497865E-01  0.58423379805E-01  0.88556056715E-01  0.89063262193E+00  0.88000000000E+00 0.  1.
        -11    1    4    4    0    0 -0.70250514413E-01 -0.67963978466E-01 -0.58421248746E-01  0.11387510953E+00  0.51100000000E-03 0. -1.
         11    1    4    4    0    0 -0.10493578688E-01 -0.33079289069E-02 -0.11342206153E-01  0.15810260869E-01  0.51100000000E-03 0.  1.
</event>
<event>
 8    1  0.5489035E+004  0.1043930E+01  0.7957747E-01            NaN
         13   -1    0    0    0    0  0.00000000000E+00  0.00000000000E+00  0.74505805969E-08  0.10566000000E+00  0.10566000000E+00 0.  1.
     999900   -1    0    0    0    0 -0.00000000000E+00 -0.00000000000E+00 -0.74505805969E-08  0.93827000000E+00  0.93827000000E+00 0.  1.
     999902    2    1    2    0    0 -0.14397576333E-01  0.50688344371E-02  0.17879967693E-01  0.10204209266E+01  0.10201500826E+01 0.  0.
     999903    2    3    3    0    0  0.93690004262E-01 -0.79365300008E-01  0.36682502474E-01  0.12959794563E+00  0.19322364736E-01 0.  0.
         14    1    1    2    0    0  0.14397576333E-01 -0.50688344371E-02 -0.17879967693E-01  0.23509073387E-01  0.00000000000E+00 0.  1.
     999901    1    3    3    0    0 -0.10808758060E+00  0.84434134446E-01 -0.18802534782E-01  0.89082298099E+00  0.88000000000E+00 0.  1.
        -11    1    4    4    0    0  0.36540155186E-01 -0.24409431754E-01  0.21283793942E-01  0.48828928978E-01  0.51100000000E-03 0. -1.
         11    1    4    4    0    0  0.57149849076E-01 -0.54955868255E-01  0.15398708532E-01  0.80769016649E-01  0.51100000000E-03 0.  1.
</event>
<event>
 8    1  0.5489035E+004  0.1043930E+01  0.7957747E-01            NaN
         13   -1    0    0    0    0  0.00000000000E+00  0.00000000000E+00  0.74505805969E-08  0.10566000000E+00  0.10566000000E+00 0. -1.
     999900   -1    0    0    0    0 -0.00000000000E+00 -0.00000000000E+00 -0.74505805969E-08  0.93827000000E+00  0.93827000000E+00 0. -1.
     999902    2    1    2    0    0  0.16304859876E-01  0.16118908465E-01  0.23785088126E-02  0.10208795126E+01  0.10206192504E+01 0.  0.
     999903    2    3    3    0    0 -0.68146123531E-01 -0.70074038558E-01 -0.81306933078E-01  0.12871111711E+00  0.20036698032E-01 0.  0.
         14    1    1    2    0    0 -0.16304859876E-01 -0.16118908465E-01 -0.23785088126E-02  0.23050487410E-01  0.00000000000E+00 0. -1.
     999901    1    3    3    0    0  0.84450983407E-01  0.86192947023E-01  0.83685441890E-01  0.89216839548E+00  0.88000000000E+00 0.  1.
        -11    1    4    4    0    0 -0.44630314923E-01 -0.31833505684E-01 -0.46928041667E-01  0.72164668017E-01  0.51100000000E-03 0. -1.
         11    1    4    4    0    0 -0.23515808608E-01 -0.38240532874E-01 -0.34378891411E-01  0.56546449089E-01  0.51100000000E-03 0.  1.
</event>
<event>
 8    1  0.5489035E+004  0.1043930E+01  0.7957747E-01            NaN
         13   -1    0    0    0    0  0.00000000000E+00  0.00000000000E+00  0.74505805969E-08  0.10566000000E+00  0.10566000000E+00 0. -1.
     999900   -1    0    0    0    0 -0.00000000000E+00 -0.00000000000E+00 -0.74505805969E-08  0.93827000000E+00  0.93827000000E+00 0. -1.
     999902    2    1    2    0    0 -0.14512066609E-01  0.78709591808E-02 -0.18056317834E-01  0.10194640504E+01  0.10191704310E+01 0.  0.
     999903    2    3    3    0    0 -0.68044070409E-01 -0.41819780816E-01 -0.10369383345E+00  0.13229516617E+00  0.19253838891E-01 0.  0.
         14    1    1    2    0    0  0.14512066609E-01 -0.78709591808E-02  0.18056317834E-01  0.24465949591E-01  0.00000000000E+00 0. -1.
     999901    1    3    3    0    0  0.53532003800E-01  0.49690739996E-01  0.85637515618E-01  0.88716888423E+00  0.88000000000E+00 0.  1.
        -11    1    4    4    0    0 -0.16939195587E-01 -0.15064060364E-02 -0.23373835945E-01  0.28910256555E-01  0.51100000000E-03 0.  1.
         11    1    4    4    0    0 -0.51104874822E-01 -0.40313374779E-01 -0.80319997506E-01  0.10338490962E+00  0.51100000000E-03 0. -1.
</event>
<event>
 8    1  0.5489035E+004  0.1043930E+01  0.7957747E-01            NaN
         13   -1    0    0    0    0  0.00000000000E+00  0.00000000000E+00  0.74505805969E-08  0.10566000000E+00  0.10566000000E+00 0.  1.
     999900   -1    0    0    0    0 -0.00000000000E+00 -0.00000000000E+00 -0.74505805969E-08  0.93827000000E+00  0.93827000000E+00 0.  1.
     999902    2    1    2    0    0  0.19439740968E-01  0.11499209675E-01 -0.84136822528E-02  0.10198276059E+01  0.10195427506E+01 0.  0.
     999903    2    3    3    0    0 -0.48809895215E-01 -0.10983961814E+00  0.37893513657E-01  0.12768104823E+00  0.20478869978E-01 0.  0.
         14    1    1    2    0    0 -0.19439740968E-01 -0.11499209675E-01  0.84136822528E-02  0.24102394095E-01  0.00000000000E+00 0. -1.
     999901    1    3    3    0    0  0.68249636183E-01  0.12133882782E+00 -0.46307195910E-01  0.89214655767E+00  0.88000000000E+00 0.  1.
        -11    1    4    4    0    0 -0.23405777280E-01 -0.75845556602E-01  0.22086067672E-01  0.82391955752E-01  0.51100000000E-03 0. -1.
         11    1    4    4    0    0 -0.25404117935E-01 -0.33994061541E-01  0.15807445985E-01  0.45289092480E-01  0.51100000000E-03 0.  1.
</event>
<event>
 8    1  0.5489035E+004  0.1043930E+01  0.7957747E-01            NaN
         13   -1    0    0    0    0  0.00000000000E+00  0.00000000000E+00  0.74505805969E-08  0.10566000000E+00  0.10566000000E+00 0.  1.
     999900   -1    0    0    0    0 -0.00000000000E+00 -0.00000000000E+00 -0.74505805969E-08  0.93827000000E+00  0.93827000000E+00 0.  1.
     999902    2    1    2    0    0  0.20047078206E-01 -0.12907069070E-01  0.93718666905E-02  0.10183114586E+01  0.10179891537E+01 0.  0.
     999903    2    3    3    0    0  0.39331177259E-01 -0.84425016160E-01 -0.88163084145E-01  0.12982974252E+00  0.20211575353E-01 0.  0.
         14    1    1    2    0    0 -0.20047078206E-01  0.12907069070E-01 -0.93718666905E-02  0.25618541368E-01  0.00000000000E+00 0. -1.
     999901    1    3    3    0    0 -0.19284099053E-01  0.71517947090E-01  0.97534950836E-01  0.88848171611E+00  0.88000000000E+00 0. -1.
        -11    1    4    4    0    0  0.27340367124E-01 -0.46758003957E-01 -0.39013493318E-01  0.66754178823E-01  0.51100000000E-03 0.  1.
         11    1    4    4    0    0  0.11990810136E-01 -0.37667012203E-01 -0.49149590827E-01  0.63075563695E-01  0.51100000000E-03 0. -1.
</event>
<event>
 8    1  0.5489035E+004  0.1043930E+01  0.7957747E-01            NaN
         13   -1    0    0    0    0  0.00000000000E+00  0.00000000000E+00  0.74505805969E-08  0.10566000000E+00  0.10566000000E+00 0. -1.
     999900   -1    0    0    0    0 -0.00000000000E+00 -0.00000000000E+00 -0.74505805969E-08  0.93827000000E+00  0.93827000000E+00 0. -1.
     999902    2    1    2    0    0 -0.13906149028E-01  0.19336277741E-01  0.15674788766E-01  0.10154173428E+01  0.10150169498E+01 0.  0.
     999903    2    3    3    0    0  0.43684291542E-01  0.11419085613E+00  0.33172653039E-01  0.12827573903E+00  0.20158654769E-01 0.  0.
         14    1    1    2    0    0  0.13906149028E-01 -0.19336277741E-01 -0.15674788766E-01  0.28512657199E-01  0.00000000000E+00 0. -1.
     999901    1    3    3    0    0 -0.57590440570E-01 -0.94854578392E-01 -0.17497864273E-01  0.88714160377E+00  0.88000000000E+00 0. -1.
        -11    1    4    4    0    0  0.12795440859E-01  0.17159992019E-01  0.81012095490E-03  0.21426760134E-01  0.51100000000E-03 0. -1.
         11    1    4    4    0    0  0.30888850683E-01  0.97030864114E-01  0.32362532084E-01  0.10684897890E+00  0.51100000000E-03 0.  1.
</event>
<event>
 8    1  0.5489035E+004  0.1043930E+01  0.7957747E-01            NaN
         13   -1    0    0    0    0  0.00000000000E+00  0.00000000000E+00  0.74505805969E-08  0.10566000000E+00  0.10566000000E+00 0.  1.
     999900   -1    0    0    0    0 -0.00000000000E+00 -0.00000000000E+00 -0.74505805969E-08  0.93827000000E+00  0.93827000000E+00 0. -1.
     999902    2    1    2    0    0 -0.52325316073E-02  0.17959227565E-01  0.13707167456E-01  0.10207394916E+01  0.10204760213E+01 0.  0.
     999903    2    3    3    0    0  0.20586943961E-01 -0.10217426078E+00  0.74995604572E-01  0.13009086676E+00  0.20878004754E-01 0.  0.
         14    1    1    2    0    0  0.52325316073E-02 -0.17959227565E-01 -0.13707167456E-01  0.23190508434E-01  0.00000000000E+00 0. -1.
     999901    1    3    3    0    0 -0.25819475569E-01  0.12013348834E+00 -0.61288437116E-01  0.89064862480E+00  0.88000000000E+00 0. -1.
        -11    1    4    4    0    0  0.94426279468E-02 -0.71421282532E-01  0.61418764862E-01  0.94671477327E-01  0.51100000000E-03 0. -1.
         11    1    4    4    0    0  0.11144316014E-01 -0.30752978246E-01  0.13576839710E-01  0.35419389435E-01  0.51100000000E-03 0.  1.
</event>
<event>
 8    1  0.5489035E+004  0.1043930E+01  0.7957747E-01            NaN
         13   -1    0    0    0    0  0.00000000000E+00  0.00000000000E+00  0.74505805969E-08  0.10566000000E+00  0.10566000000E+00 0. -1.
     999900   -1    0    0    0    0 -0.00000000000E+00 -0.00000000000E+00 -0.74505805969E-08  0.93827000000E+00  0.93827000000E+00 0.  1.
     999902    2    1    2    0    0 -0.25698655727E-01 -0.49032919220E-02  0.14444436637E-01  0.10140451388E+01  0.10136046757E+01 0.  0.
     999903    2    3    3    0    0 -0.10541315402E-01 -0.77045340219E-01  0.99635554120E-01  0.12686322591E+00  0.10951285954E-01 0.  0.
         14    1    1    2    0    0  0.25698655727E-01  0.49032919220E-02 -0.14444436637E-01  0.29884861177E-01  0.00000000000E+00 0.  1.
     999901    1    3    3    0    0 -0.15157340324E-01  0.72142048297E-01 -0.85191117483E-01  0.88718191291E+00  0.88000000000E+00 0.  1.
        -11    1    4    4    0    0 -0.10872382688E-01 -0.57500990075E-01  0.80311954781E-01  0.99372248473E-01  0.51100000000E-03 0.  1.
         11    1    4    4    0    0  0.33106728514E-03 -0.19544350144E-01  0.19323599340E-01  0.27490977439E-01  0.51100000000E-03 0. -1.
</event>
<event>
 8    1  0.5489035E+004  0.1043930E+01  0.7957747E-01            NaN
         13   -1    0    0    0    0  0.00000000000E+00  0.00000000000E+00  0.74505805969E-08  0.10566000000E+00  0.10566000000E+00 0.  1.
     999900   -1    0    0    0    0 -0.00000000000E+00 -0.00000000000E+00 -0.74505805969E-08  0.93827000000E+00  0.93827000000E+00 0. -1.
     999902    2    1    2    0    0  0.20827796061E-01 -0.33980870148E-02 -0.65762067035E-02  0.10218259149E+01  0.10215868097E+01 0.  0.
     999903    2    3    3    0    0 -0.40724988508E-01  0.11953506211E+00 -0.27991550578E-01  0.13089386282E+00  0.20062917459E-01 0.  0.
         14    1    1    2    0    0 -0.20827796061E-01  0.33980870148E-02  0.65762067035E-02  0.22104085114E-01  0.00000000000E+00 0.  1.
     999901    1    3    3    0    0  0.61552784569E-01 -0.12293314913E+00  0.21415343875E-01  0.89093205206E+00  0.88000000000E+00 0.  1.
        -11    1    4    4    0    0 -0.87536760909E-02  0.43879216478E-01 -0.17682944950E-01  0.48114032744E-01  0.51100000000E-03 0. -1.
         11    1    4    4    0    0 -0.31971312417E-01  0.75655845636E-01 -0.10308605628E-01  0.82779830077E-01  0.51100000000E-03 0.  1.
</event>
<event>
 8    1  0.5489035E+004  0.1043930E+01  0.7957747E-01            NaN
         13   -1    0    0    0    0  0.00000000000E+00  0.00000000000E+00  0.74505805969E-08  0.10566000000E+00  0.10566000000E+00 0. -1.
     999900   -1    0    0    0    0 -0.00000000000E+00 -0.00000000000E+00 -0.74505805969E-08  0.93827000000E+00  0.93827000000E+00 0.  1.
     999902    2    1    2    0    0 -0.13321342844E-01 -0.14925313072E-01  0.19337938579E-01  0.10161059274E+01  0.10157249021E+01 0.  0.
     999903    2    3    3    0    0 -0.11553309830E+00 -0.84930161756E-02  0.53579366343E-01  0.12950506303E+00  0.21926803814E-01 0.  0.
         14    1    1    2    0    0  0.13321342844E-01  0.14925313072E-01 -0.19337938579E-01  0.27824072562E-01  0.00000000000E+00 0.  1.
     999901    1    3    3    0    0  0.10221175546E+00 -0.64322968968E-02 -0.34241427764E-01  0.88660086441E+00  0.88000000000E+00 0. -1.
        -11    1    4    4    0    0 -0.22953720500E-01 -0.64290578924E-02  0.19597726244E-01  0.30863215405E-01  0.51100000000E-03 0. -1.
         11    1    4    4    0    0 -0.92579377800E-01 -0.20639582832E-02  0.33981640098E-01  0.98641847623E-01  0.51100000000E-03 0.  1.
</event>
<event>
 8    1  0.5489035E+004  0.1043930E+01  0.7957747E-01            NaN
         13   -1    0    0    0    0  0.00000000000E+00  0.00000000000E+00  0.74505805969E-08  0.10566000000E+00  0.10566000000E+00 0.  1.
     999900   -1    0    0    0    0 -0.00000000000E+00 -0.00000000000E+00 -0.74505805969E-08  0.93827000000E+00  0.93827000000E+00 0.  1.
     999902    2    1    2    0    0 -0.21335464876E-01  0.13139471208E-02 -0.10483439082E-01  0.10201217868E+01  0.10198439238E+01 0.  0.
     999903    2    3    3    0    0  0.10488049087E-01  0.79015970402E-01 -0.10275235447E+00  0.13132265700E+00  0.18277613140E-01 0.  0.
         14    1    1    2    0    0  0.21335464876E-01 -0.13139471208E-02  0.10483439082E-01  0.23808213152E-01  0.00000000000E+00 0.  1.
     999901    1    3    3    0    0 -0.31823513963E-01 -0.77702023281E-01  0.92268915385E-01  0.88879912984E+00  0.88000000000E+00 0. -1.
        -11    1    4    4    0    0 -0.29123475233E-02  0.44244051650E-01 -0.59987245376E-01  0.74597242599E-01  0.51100000000E-03 0.  1.
         11    1    4    4    0    0  0.13400396610E-01  0.34771918752E-01 -0.42765109090E-01  0.56725414406E-01  0.51100000000E-03 0. -1.
</event>
<event>
 8    1  0.5489035E+004  0.1043930E+01  0.7957747E-01            NaN
         13   -1    0    0    0    0  0.00000000000E+00  0.00000000000E+00  0.74505805969E-08  0.10566000000E+00  0.10566000000E+00 0.  1.
     999900   -1    0    0    0    0 -0.00000000000E+00 -0.00000000000E+00 -0.74505805969E-08  0.93827000000E+00  0.93827000000E+00 0. -1.
     999902    2    1    2    0    0  0.16839723339E-01 -0.21014507877E-02 -0.14993265486E-01  0.10212851245E+01  0.10210340421E+01 0.  0.
     999903    2    3    3    0    0  0.96484792106E-02  0.88434061915E-01 -0.97121602254E-01  0.13280695550E+00  0.17070598881E-01 0.  0.
         14    1    1    2    0    0 -0.16839723339E-01  0.21014507877E-02  0.14993265486E-01  0.22644875524E-01  0.00000000000E+00 0.  1.
     999901    1    3    3    0    0  0.71912441282E-02 -0.90535512702E-01  0.82128336768E-01  0.88847816898E+00  0.88000000000E+00 0.  1.
        -11    1    4    4    0    0  0.63432648109E-02  0.40327884321E-01 -0.32540043372E-01  0.52208148846E-01  0.51100000000E-03 0. -1.
         11    1    4    4    0    0  0.33052143997E-02  0.48106177593E-01 -0.64581558883E-01  0.80598806651E-01  0.51100000000E-03 0.  1.
</event>
<event>
 8    1  0.5489035E+004  0.1043930E+01  0.7957747E-01            NaN
         13   -1    0    0    0    0  0.00000000000E+00  0.00000000000E+00  0.74505805969E-08  0.10566000000E+00  0.10566000000E+00 0.  1.
     999900   -1    0    0    0    0 -0.00000000000E+00 -0.00000000000E+00 -0.74505805969E-08  0.93827000000E+00  0.93827000000E+00 0.  1.
     999902    2    1    2    0    0  0.27458981742E-02 -0.48341971630E-02  0.22456439530E-01  0.10207955863E+01  0.10205334037E+01 0.  0.
     999903    2    3    3    0    0 -0.10635040221E+00  0.13014419559E-01  0.75083797010E-01  0.13231924190E+00  0.19774277169E-01 0.  0.
         14    1    1    2    0    0 -0.27458981742E-02  0.48341971630E-02 -0.22456439530E-01  0.23134413659E-01  0.00000000000E+00 0. -1.
     999901    1    3    3    0    0  0.10909630038E+00 -0.17848616722E-01 -0.52627357480E-01  0.88847634444E+00  0.88000000000E+00 0.  1.
        -11    1    4    4    0    0 -0.60687403084E-01  0.11908775287E-01  0.32485043944E-01  0.69859280149E-01  0.51100000000E-03 0.  1.
         11    1    4    4    0    0 -0.45662999123E-01  0.11056442717E-02  0.42598753066E-01  0.62459961751E-01  0.51100000000E-03 0. -1.
</event>
<event>
 8    1  0.5489035E+004  0.1043930E+01  0.7957747E-01            NaN
         13   -1    0    0    0    0  0.00000000000E+00  0.00000000000E+00  0.74505805969E-08  0.10566000000E+00  0.10566000000E+00 0.  1.
     999900   -1    0    0    0    0 -0.00000000000E+00 -0.00000000000E+00 -0.74505805969E-08  0.93827000000E+00  0.93827000000E+00 0.  1.
     999902    2    1    2    0    0 -0.60623506303E-02 -0.25739295575E-02  0.23228059804E-01  0.10197862644E+01  0.10195004193E+01 0.  0.
     999903    2    3    3    0    0  0.11524621197E+00 -0.47307123456E-01 -0.26411668652E-01  0.12895467049E+00  0.20299691995E-01 0.  0.
         14    1    1    2    0    0  0.60623506303E-02  0.25739295575E-02 -0.23228059804E-01  0.24143735643E-01  0.00000000000E+00 0. -1.
     999901    1    3    3    0    0 -0.12130856260E+00  0.44733193898E-01  0.49639728456E-01  0.89083159387E+00  0.88000000000E+00 0. -1.
        -11    1    4    4    0    0  0.88690920074E-01 -0.43120805888E-01 -0.26301994109E-01  0.10206634714E+00  0.51100000000E-03 0. -1.
         11    1    4    4    0    0  0.26555291901E-01 -0.41863175677E-02 -0.10967454285E-03  0.26888323343E-01  0.51100000000E-03 0.  1.
</event>
<event>
 8    1  0.5489035E+004  0.1043930E+01  0.7957747E-01            NaN
         13   -1    0    0    0    0  0.00000000000E+00  0.00000000000E+00  0.74505805969E-08  0.10566000000E+00  0.10566000000E+00 0. -1.
     999900   -1    0    0    0    0 -0.00000000000E+00 -0.00000000000E+00 -0.74505805969E-08  0.93827000000E+00  0.93827000000E+00 0.  1.
     999902    2    1    2    0    0 -0.21882170709E-01  0.23695354892E-02  0.82964450978E-02  0.10204081996E+01  0.10201370588E+01 0.  0.
     999903    2    3    3    0    0 -0.10556851732E+00 -0.55388772060E-01 -0.54059383113E-01  0.13236108597E+00  0.19606434068E-01 0.  0.
         14    1    1    2    0    0  0.21882170709E-01 -0.23695354892E-02 -0.82964450978E-02  0.23521800412E-01  0.00000000000E+00 0. -1.
     999901    1    3    3    0    0  0.83686346608E-01  0.57758307549E-01  0.62355828211E-01  0.88804711362E+00  0.88000000000E+00 0.  1.
        -11    1    4    4    0    0 -0.75240778075E-01 -0.33168600919E-01 -0.29078700692E-01  0.87219050254E-01  0.51100000000E-03 0.  1.
         11    1    4    4    0    0 -0.30327739242E-01 -0.22220171141E-01 -0.24980682421E-01  0.45142035712E-01  0.51100000000E-03 0. -1.
</event>
<event>
 8    1  0.5489035E+004  0.1043930E+01  0.7957747E-01            NaN
         13   -1    0    0    0    0  0.00000000000E+00  0.00000000000E+00  0.74505805969E-08  0.10566000000E+00  0.10566000000E+00 0.  1.
     999900   -1    0    0    0    0 -0.00000000000E+00 -0.00000000000E+00 -0.74505805969E-08  0.93827000000E+00  0.93827000000E+00 0. -1.
     999902    2    1    2    0    0 -0.20397102871E-01 -0.90557174043E-02  0.94105045152E-02  0.10197100616E+01  0.10194223875E+01 0.  0.
     999903    2    3    3    0    0  0.72927097349E-01  0.72629763101E-01 -0.72158589732E-01  0.12727774411E+00  0.19982944189E-01 0.  0.
         14    1    1    2    0    0  0.20397102871E-01  0.90557174043E-02 -0.94105045152E-02  0.24219938449E-01  0.00000000000E+00 0. -1.
     999901    1    3    3    0    0 -0.93324200220E-01 -0.81685480506E-01  0.81569094247E-01  0.89243231744E+00  0.88000000000E+00 0.  1.
        -11    1    4    4    0    0  0.22422496450E-01  0.36122575809E-01 -0.28514843108E-01  0.51195373117E-01  0.51100000000E-03 0.  1.
         11    1    4    4    0    0  0.50504600899E-01  0.36507187293E-01 -0.43643746624E-01  0.76082370996E-01  0.51100000000E-03 0. -1.
</event>
<event>
 8    1  0.5489035E+004  0.1043930E+01  0.7957747E-01            NaN
         13   -1    0    0    0    0  0.00000000000E+00  0.00000000000E+00  0.74505805969E-08  0.10566000000E+00  0.10566000000E+00 0.  1.
     999900   -1    0    0    0    0 -0.00000000000E+00 -0.00000000000E+00 -0.74505805969E-08  0.93827000000E+00  0.93827000000E+00 0. -1.
     999902    2    1    2    0    0 -0.76073170551E-02 -0.18402183280E-01 -0.14000066240E-01  0.10195884003E+01  0.10192977938E+01 0.  0.
     999903    2    3    3    0    0  0.98212151611E-02  0.11678319527E+00 -0.48734241015E-01  0.12841765165E+00  0.19526803241E-01 0.  0.
         14    1    1    2    0    0  0.76073170551E-02  0.18402183280E-01  0.14000066240E-01  0.24341599721E-01  0.00000000000E+00 0.  1.
     999901    1    3    3    0    0 -0.17428532216E-01 -0.13518537855E+00  0.34734174775E-01  0.89117074863E+00  0.88000000000E+00 0.  1.
        -11    1    4    4    0    0 -0.51439214782E-02  0.47899265878E-01 -0.16723984167E-01  0.50997572170E-01  0.51100000000E-03 0. -1.
         11    1    4    4    0    0  0.14965136639E-01  0.68883929390E-01 -0.32010256848E-01  0.77420079484E-01  0.51100000000E-03 0.  1.
</event>
<event>
 8    1  0.5489035E+004  0.1043930E+01  0.7957747E-01            NaN
         13   -1    0    0    0    0  0.00000000000E+00  0.00000000000E+00  0.74505805969E-08  0.10566000000E+00  0.10566000000E+00 0.  1.
     999900   -1    0    0    0    0 -0.00000000000E+00 -0.00000000000E+00 -0.74505805969E-08  0.93827000000E+00  0.93827000000E+00 0.  1.
     999902    2    1    2    0    0 -0.45497608430E-02  0.18800147748E-02 -0.21541432566E-01  0.10218332107E+01  0.10215942651E+01 0.  0.
     999903    2    3    3    0    0  0.12613347662E+00 -0.22754341379E-01  0.17479362822E-01  0.13098665686E+00  0.20604906548E-01 0.  0.
         14    1    1    2    0    0  0.45497608430E-02 -0.18800147748E-02  0.21541432566E-01  0.22096789275E-01  0.00000000000E+00 0.  1.
     999901    1    3    3    0    0 -0.13068323747E+00  0.24634356154E-01 -0.39020795388E-01  0.89084655386E+00  0.88000000000E+00 0.  1.
        -11    1    4    4    0    0  0.10590813197E+00 -0.15659697709E-01  0.74573876484E-02  0.10732023249E+00  0.51100000000E-03 0.  1.
         11    1    4    4    0    0  0.20225344654E-01 -0.70946436700E-02  0.10021975174E-01  0.23666424372E-01  0.51100000000E-03 0. -1.
</event>
<event>
 8    1  0.5489035E+004  0.1043930E+01  0.7957747E-01            NaN
         13   -1    0    0    0    0  0.00000000000E+00  0.00000000000E+00  0.74505805969E-08  0.10566000000E+00  0.10566000000E+00 0.  1.
     999900   -1    0    0    0    0 -0.00000000000E+00 -0.00000000000E+00 -0.74505805969E-08  0.93827000000E+00  0.93827000000E+00 0. -1.
     999902    2    1    2    0    0  0.15857286343E-01  0.79650635354E-02 -0.96002916702E-02  0.10237542381E+01  0.10235554107E+01 0.  0.
     999903    2    3    3    0    0  0.38628046826E-01 -0.11922432045E+00 -0.42236252803E-01  0.13372010794E+00  0.19763644076E-01 0.  0.
         14    1    1    2    0    0 -0.15857286343E-01 -0.79650635354E-02  0.96002916702E-02  0.20175761880E-01  0.00000000000E+00 0.  1.
     999901    1    3    3    0    0 -0.22770760483E-01  0.12718938399E+00  0.32635961133E-01  0.89003413018E+00  0.88000000000E+00 0.  1.
        -11    1    4    4    0    0  0.39717701931E-02 -0.38482983977E-01 -0.17311397765E-01  0.42387033723E-01  0.51100000000E-03 0. -1.
         11    1    4    4    0    0  0.34656276633E-01 -0.80741336474E-01 -0.24924855037E-01  0.91333074213E-01  0.51100000000E-03 0.  1.
</event>
<event>
 8    1  0.5489035E+004  0.1043930E+01  0.7957747E-01            NaN
         13   -1    0    0    0    0  0.00000000000E+00  0.00000000000E+00  0.74505805969E-08  0.10566000000E+00  0.10566000000E+00 0.  1.
     999900   -1    0    0    0    0 -0.00000000000E+00 -0.00000000000E+00 -0.74505805969E-08  0.93827000000E+00  0.93827000000E+00 0. -1.
     999902    2    1    2    0    0  0.10510369264E-01  0.88271509242E-02  0.20870480976E-01  0.10189507400E+01  0.10186445146E+01 0.  0.
     999903    2    3    3    0    0  0.17344904097E-01  0.81582420671E-01  0.10064316355E+00  0.13232583561E+00  0.20604449536E-01 0.  0.
         14    1    1    2    0    0 -0.10510369264E-01 -0.88271509242E-02 -0.20870480976E-01  0.24979260031E-01  0.00000000000E+00 0. -1.
     999901    1    3    3    0    0 -0.68345348330E-02 -0.72755269747E-01 -0.79772682572E-01  0.88662490436E+00  0.88000000000E+00 0. -1.
        -11    1    4    4    0    0 -0.30813965924E-02  0.21867667799E-01  0.33948602934E-01  0.40502575993E-01  0.51100000000E-03 0. -1.
         11    1    4    4    0    0  0.20426300689E-01  0.59714752872E-01  0.66694560614E-01  0.91823259618E-01  0.51100000000E-03 0.  1.
</event>
<event>
 8    1  0.5489035E+004  0.1043930E+01  0.7957747E-01            NaN
         13   -1    0    0    0    0  0.00000000000E+00  0.00000000000E+00  0.74505805969E-08  0.10566000000E+00  0.10566000000E+00 0. -1.
     999900   -1    0    0    0    0 -0.00000000000E+00 -0.00000000000E+00 -0.74505805969E-08  0.93827000000E+00  0.93827000000E+00 0. -1.
     999902    2    1    2    0    0  0.23183697423E-01  0.12354876409E-02  0.29226805216E-02  0.10205301642E+01  0.10202618603E+01 0.  0.
     999903    2    3    3    0    0 -0.11189857877E+00  0.33575771932E-01  0.51798625020E-01  0.12829590497E+00  0.11318890618E-01 0.  0.
         14    1    1    2    0    0 -0.23183697423E-01 -0.12354876409E-02 -0.29226805216E-02  0.23399835840E-01  0.00000000000E+00 0.  1.
     999901    1    3    3    0    0  0.13508227620E+00 -0.32340284291E-01 -0.48875944499E-01  0.89223425919E+00  0.88000000000E+00 0.  1.
        -11    1    4    4    0    0 -0.98507281037E-01  0.31328911104E-01  0.42165092898E-01  0.11163933567E+00  0.51100000000E-03 0. -1.
         11    1    4    4    0    0 -0.13391297735E-01  0.22468608279E-02  0.96335321217E-02  0.16656569297E-01  0.51100000000E-03 0.  1.
</event>
<event>
 8    1  0.5489035E+004  0.1043930E+01  0.7957747E-01            NaN
         13   -1    0    0    0    0  0.00000000000E+00  0.00000000000E+00  0.74505805969E-08  0.10566000000E+00  0.10566000000E+00 0.  1.
     999900   -1    0    0    0    0 -0.00000000000E+00 -0.00000000000E+00 -0.74505805969E-08  0.93827000000E+00  0.93827000000E+00 0. -1.
     999902    2    1    2    0    0  0.26249415423E-02 -0.19146081845E-01 -0.91488291821E-02  0.10225486099E+01  0.10223250441E+01 0.  0.
     999903    2    3    3    0    0 -0.31323829029E-01 -0.11482894279E+00 -0.60715745606E-01  0.13521165259E+00  0.20710404710E-01 0.  0.
         14    1    1    2    0    0 -0.26249415423E-02  0.19146081845E-01  0.91488291821E-02  0.21381390122E-01  0.00000000000E+00 0. -1.
     999901    1    3    3    0    0  0.33948770572E-01  0.95682860948E-01  0.51566916424E-01  0.88733695729E+00  0.88000000000E+00 0.  1.
        -11    1    4    4    0    0 -0.19537158373E-01 -0.66788052475E-01 -0.24016291139E-01  0.73616491846E-01  0.51100000000E-03 0.  1.
         11    1    4    4    0    0 -0.11786670657E-01 -0.48040890319E-01 -0.36699454467E-01  0.61595160743E-01  0.51100000000E-03 0. -1.
</event>
<event>
 8    1  0.5489035E+004  0.1043930E+01  0.7957747E-01            NaN
         13   -1    0    0    0    0  0.00000000000E+00  0.00000000000E+00  0.74505805969E-08  0.10566000000E+00  0.10566000000E+00 0. -1.
     999900   -1    0    0    0    0 -0.00000000000E+00 -0.00000000000E+00 -0.74505805969E-08  0.93827000000E+00  0.93827000000E+00 0. -1.
     999902    2    1    2    0    0 -0.14868847989E-01 -0.16182161114E-01  0.93910419689E-02  0.10200315346E+01  0.10197515359E+01 0.  0.
     999903    2    3    3    0    0  0.90502520339E-01 -0.82305331784E-01 -0.38882859278E-01  0.12997211608E+00  0.20396087512E-01 0.  0.
         14    1    1    2    0    0  0.14868847989E-01  0.16182161114E-01 -0.93910419689E-02  0.23898465392E-01  0.00000000000E+00 0. -1.
     999901    1    3    3    0    0 -0.10537136833E+00  0.66123170670E-01  0.48273901247E-01  0.89005941852E+00  0.88000000000E+00 0.  1.
        -11    1    4    4    0    0  0.49225387904E-01 -0.47077449070E-01 -0.11128687786E-01  0.69018358704E-01  0.51100000000E-03 0. -1.
         11    1    4    4    0    0  0.41277132435E-01 -0.35227882713E-01 -0.27754171492E-01  0.60953757380E-01  0.51100000000E-03 0.  1.
</event>
<event>
 8    1  0.5489035E+004  0.1043930E+01  0.7957747E-01            NaN
         13   -1    0    0    0    0  0.00000000000E+00  0.00000000000E+00  0.74505805969E-08  0.10566000000E+00  0.10566000000E+00 0.  1.
     999900   -1    0    0    0    0 -0.00000000000E+00 -0.00000000000E+00 -0.74505805969E-08  0.93827000000E+00  0.93827000000E+00 0. -1.
     999902    2    1    2    0    0  0.24949349069E-02  0.13664111027E-02 -0.24182591745E-01  0.10195806772E+01  0.10192898840E+01 0.  0.
     999903    2    3    3    0    0  0.25568131814E-01 -0.12402340830E+00 -0.16797296272E-01  0.13036218780E+00  0.26011837198E-01 0.  0.
         14    1    1    2    0    0 -0.24949349069E-02 -0.13664111027E-02  0.24182591745E-01  0.24349322844E-01  0.00000000000E+00 0.  1.
     999901    1    3    3    0    0 -0.23073196907E-01  0.12538981940E+00 -0.73852954722E-02  0.88921848936E+00  0.88000000000E+00 0. -1.
        -11    1    4    4    0    0 -0.38029116740E-02 -0.41451203013E-01 -0.59580504526E-02  0.42052631958E-01  0.51100000000E-03 0. -1.
         11    1    4    4    0    0  0.29371043488E-01 -0.82572205288E-01 -0.10839245820E-01  0.88309555840E-01  0.51100000000E-03 0.  1.
</event>
<event>
 8    1  0.5489035E+004  0.1043930E+01  0.7957747E-01            NaN
         13   -1    0    0    0    0  0.00000000000E+00  0.00000000000E+00  0.74505805969E-08  0.10566000000E+00  0.10566000000E+00 0. -1.
     999900   -1    0    0    0    0 -0.00000000000E+00 -0.00000000000E+00 -0.74505805969E-08  0.93827000000E+00  0.93827000000E+00 0. -1.
     999902    2    1    2    0    0 -0.31396803413E-02 -0.96790842783E-02  0.22167374145E-01  0.10195387159E+01  0.10192469075E+01 0.  0.
     999903    2    3    3    0    0  0.88388478074E-01  0.91053983056E-01 -0.36858883344E-03  0.12879047744E+00  0.21988641037E-01 0.  0.
         14    1    1    2    0    0  0.31396803413E-02  0.96790842783E-02 -0.22167374145E-01  0.24391284131E-01  0.00000000000E+00 0.  1.
     999901    1    3    3    0    0 -0.91528158415E-01 -0.10073306733E+00  0.22535962978E-01  0.89074823843E+00  0.88000000000E+00 0.  1.
        -11    1    4    4    0    0  0.65607479273E-01  0.79977321361E-01  0.27988044261E-03  0.10344589273E+00  0.51100000000E-03 0. -1.
         11    1    4    4    0    0  0.22780998801E-01  0.11076661695E-01 -0.64846927604E-03  0.25344584710E-01  0.51100000000E-03 0.  1.
</event>
<event>
 8    1  0.5489035E+004  0.1043930E+01  0.7957747E-01            NaN
         13   -1    0    0    0    0  0.00000000000E+00  0.00000000000E+00  0.74505805969E-08  0.10566000000E+00  0.10566000000E+00 0.  1.
     999900   -1    0    0    0    0 -0.00000000000E+00 -0.00000000000E+00 -0.74505805969E-08  0.93827000000E+00  0.93827000000E+00 0. -1.
     999902    2    1    2    0    0  0.17821860365E-01  0.10509173210E-03  0.15147283104E-01  0.10205404738E+01  0.10202724091E+01 0.  0.
     999903    2    3    3    0    0 -0.48776251915E-02  0.84600826800E-01 -0.95440678996E-01  0.12931407536E+00  0.20787394166E-01 0.  0.
         14    1    1    2    0    0 -0.17821860365E-01 -0.10509173210E-03 -0.15147283104E-01  0.23389526215E-01  0.00000000000E+00 0. -1.
     999901    1    3    3    0    0  0.22699485556E-01 -0.84495735068E-01  0.11058796210E+00  0.89122639843E+00  0.88000000000E+00 0. -1.
        -11    1    4    4    0    0  0.20017363316E-02  0.31899022736E-01 -0.50212298926E-01  0.59523866510E-01  0.51100000000E-03 0.  1.
         11    1    4    4    0    0 -0.68793615231E-02  0.52701804064E-01 -0.45228380070E-01  0.69790208850E-01  0.51100000000E-03 0. -1.
</event>
<event>
 8    1  0.5489035E+004  0.1043930E+01  0.7957747E-01            NaN
         13   -1    0    0    0    0  0.00000000000E+00  0.00000000000E+00  0.74505805969E-08  0.10566000000E+00  0.10566000000E+00 0.  1.
     999900   -1    0    0    0    0 -0.00000000000E+00 -0.00000000000E+00 -0.74505805969E-08  0.93827000000E+00  0.93827000000E+00 0. -1.
     999902    2    1    2    0    0 -0.37892836151E-02  0.22877715813E-01  0.52555337367E-02  0.10201525067E+01  0.10198753688E+01 0.  0.
     999903    2    3    3    0    0  0.22984808449E-01  0.51760814270E-01  0.11745247377E+00  0.13215518763E+00  0.21504109117E-01 0.  0.
         14    1    1    2    0    0  0.37892836151E-02 -0.22877715813E-01 -0.52555337367E-02  0.23777493266E-01  0.00000000000E+00 0. -1.
     999901    1    3    3    0    0 -0.26774092064E-01 -0.28883098456E-01 -0.11219694004E+00  0.88799731910E+00  0.88000000000E+00 0. -1.
        -11    1    4    4    0    0 -0.19152409717E-02  0.12820759903E-01  0.38965572296E-01  0.41068442603E-01  0.51100000000E-03 0. -1.
         11    1    4    4    0    0  0.24900049421E-01  0.38940054367E-01  0.78486901477E-01  0.91086745027E-01  0.51100000000E-03 0.  1.
</event>
<event>
 8    1  0.5489035E+004  0.1043930E+01  0.7957747E-01            NaN
         13   -1    0    0    0    0  0.00000000000E+00  0.00000000000E+00  0.74505805969E-08  0.10566000000E+00  0.10566000000E+00 0.  1.
     999900   -1    0    0    0    0 -0.00000000000E+00 -0.00000000000E+00 -0.74505805969E-08  0.93827000000E+00  0.93827000000E+00 0.  1.
     999902    2    1    2    0    0  0.16992491845E-01 -0.13598662177E-01 -0.99424011345E-02  0.10200026154E+01  0.10197219306E+01 0.  0.
     999903    2    3    3    0    0 -0.60925349296E-01  0.10816917596E+00  0.22588472043E-01  0.12761432882E+00  0.19044921522E-01 0.  0.
         14    1    1    2    0    0 -0.16992491845E-01  0.13598662177E-01  0.99424011345E-02  0.23927384571E-01  0.00000000000E+00 0. -1.
     999901    1    3    3    0    0  0.77917841141E-01 -0.12176783814E+00 -0.32530873178E-01  0.89238828661E+00  0.88000000000E+00 0. -1.
        -11    1    4    4    0    0 -0.17407368914E-01  0.49350092457E-01  0.11897038128E-01  0.53667949050E-01  0.51100000000E-03 0. -1.
         11    1    4    4    0    0 -0.43517980382E-01  0.58819083501E-01  0.10691433915E-01  0.73946379767E-01  0.51100000000E-03 0.  1.
</event>
<event>
 8    1  0.5489035E+004  0.1043930E+01  0.7957747E-01            NaN
         13   -1    0    0    0    0  0.00000000000E+00  0.00000000000E+00  0.74505805969E-08  0.10566000000E+00  0.10566000000E+00 0.  1.
     999900   -1    0    0    0    0 -0.00000000000E+00 -0.00000000000E+00 -0.74505805969E-08  0.93827000000E+00  0.93827000000E+00 0.  1.
     999902    2    1    2    0    0 -0.13738635612E-02 -0.63979935496E-02  0.23121095350E-01  0.10199007080E+01  0.10196175986E+01 0.  0.
     999903    2    3    3    0    0 -0.87947067711E-01  0.50055794165E-01 -0.76258403816E-01  0.12829640416E+00  0.20108553371E-01 0.  0.
         14    1    1    2    0    0  0.13738635612E-02  0.63979935496E-02 -0.23121095350E-01  0.24029291973E-01  0.00000000000E+00 0. -1.
     999901    1    3    3    0    0  0.86573204150E-01 -0.56453787715E-01  0.99379499166E-01  0.89160430387E+00  0.88000000000E+00 0. -1.
        -11    1    4    4    0    0 -0.36570873354E-01  0.96981941656E-02 -0.27767692734E-01  0.46933885719E-01  0.51100000000E-03 0. -1.
         11    1    4    4    0    0 -0.51376194357E-01  0.40357599999E-01 -0.48490711082E-01  0.81362518438E-01  0.51100000000E-03 0.  1.
</event>
<event>
 8    1  0.5489035E+004  0.1043930E+01  0.7957747E-01            NaN
         13   -1    0    0    0    0  0.00000000000E+00  0.00000000000E+00  0.74505805969E-08  0.10566000000E+00  0.10566000000E+00 0. -1.
     999900   -1    0    0    0    0 -0.00000000000E+00 -0.00000000000E+00 -0.74505805969E-08  0.93827000000E+00  0.93827000000E+00 0. -1.
     999902    2    1    2    0    0  0.22577838171E-01  0.61818101259E-02  0.27916871560E-02  0.10203552875E+01  0.10200829112E+01 0.  0.
     999903    2    3    3    0    0  0.10242223476E+00  0.44080726131E-01  0.70379711725E-01  0.13334931425E+00  0.19882434408E-01 0.  0.
         14    1    1    2    0    0 -0.22577838171E-01 -0.61818101259E-02 -0.27916871560E-02  0.23574712513E-01  0.00000000000E+00 0.  1.
     999901    1    3    3    0    0 -0.79844396588E-01 -0.37898916005E-01 -0.67588024569E-01  0.88700597324E+00  0.88000000000E+00 0.  1.
        -11    1    4    4    0    0  0.11837655001E-01 -0.12569141416E-02  0.86562884698E-02  0.14727605378E-01  0.51100000000E-03 0. -1.
         11    1    4    4    0    0  0.90584579758E-01  0.45337640273E-01  0.61723423255E-01  0.11862170887E+00  0.51100000000E-03 0.  1.
</event>
<event>
 8    1  0.5489035E+004  0.1043930E+01  0.7957747E-01            NaN
         13   -1    0    0    0    0  0.00000000000E+00  0.00000000000E+00  0.74505805969E-08  0.10566000000E+00  0.10566000000E+00 0.  1.
     999900   -1    0    0    0    0 -0.00000000000E+00 -0.00000000000E+00 -0.74505805969E-08  0.93827000000E+00  0.93827000000E+00 0. -1.
     999902    2    1    2    0    0 -0.27541308698E-02 -0.87333419807E-02  0.21977016445E-01  0.10201214773E+01  0.10198436070E+01 0.  0.
     999903    2    3    3    0    0  0.23139466836E-01  0.35268249019E-01 -0.11870102528E+00  0.12748665289E+00  0.19586448055E-01 0.  0.
         14    1    1    2    0    0  0.27541308698E-02  0.87333419807E-02 -0.21977016445E-01  0.23808522651E-01  0.00000000000E+00 0. -1.
     999901    1    3    3    0    0 -0.25893597706E-01 -0.44001590999E-01  0.14067804173E+00  0.89263482446E+00  0.88000000000E+00 0.  1.
        -11    1    4    4    0    0  0.14550842485E-01  0.31396814733E-01 -0.10698845056E+00  0.11244677259E+00  0.51100000000E-03 0.  1.
         11    1    4    4    0    0  0.85886243511E-02  0.38714342858E-02 -0.11712574722E-01  0.15039880295E-01  0.51100000000E-03 0. -1.
</event>
<event>
 8    1  0.5489035E+004  0.1043930E+01  0.7957747E-01            NaN
         13   -1    0    0    0    0  0.00000000000E+00  0.00000000000E+00  0.74505805969E-08  0.10566000000E+00  0.10566000000E+00 0.  1.
     999900   -1    0    0    0    0 -0.00000000000E+00 -0.00000000000E+00 -0.74505805969E-08  0.93827000000E+00  0.93827000000E+00 0.  1.
     999902    2    1    2    0    0 -0.46032898203E-02 -0.66945724229E-02 -0.22490825067E-01  0.10200167236E+01  0.10197363736E+01 0.  0.
     999903    2    3    3    0    0  0.36148740108E-01  0.93883507410E-01  0.76361868491E-01  0.12785724618E+00  0.19887082900E-01 0.  0.
         14    1    1    2    0    0  0.46032898203E-02  0.66945724229E-02  0.22490825067E-01  0.23913276423E-01  0.00000000000E+00 0.  1.
     999901    1    3    3    0    0 -0.40752029928E-01 -0.10057807983E+00 -0.98852693558E-01  0.89215947740E+00  0.88000000000E+00 0.  1.
        -11    1    4    4    0    0  0.32510379823E-01  0.91473785884E-01  0.68378090339E-01  0.11874427422E+00  0.51100000000E-03 0. -1.
         11    1    4    4    0    0  0.36383602848E-02  0.24097215258E-02  0.79837781518E-02  0.91129719615E-02  0.51100000000E-03 0.  1.
</event>
<event>
 8    1  0.5489035E+004  0.1043930E+01  0.7957747E-01            NaN
         13   -1    0    0    0    0  0.00000000000E+00  0.00000000000E+00  0.74505805969E-08  0.10566000000E+00  0.10566000000E+00 0.  1.
     999900   -1    0    0    0    0 -0.00000000000E+00 -0.00000000000E+00 -0.74505805969E-08  0.93827000000E+00  0.93827000000E+00 0.  1.
     999902    2    1    2    0    0  0.79645138306E-02  0.85741473344E-02  0.20456697141E-01  0.10203625237E+01  0.10200903165E+01 0.  0.
     999903    2    3    3    0    0  0.91953786085E-01  0.32613179647E-01  0.88878891295E-01  0.13339371385E+00  0.19372849923E-01 0.  0.
         14    1    1    2    0    0 -0.79645138306E-02 -0.85741473344E-02 -0.20456697141E-01  0.23567476339E-01  0.00000000000E+00 0. -1.
     999901    1    3    3    0    0 -0.83989272255E-01 -0.24039032313E-01 -0.68422194154E-01  0.88696880981E+00  0.88000000000E+00 0. -1.
        -11    1    4    4    0    0  0.57533157797E-01  0.24681442533E-01  0.67675289477E-01  0.92192427988E-01  0.51100000000E-03 0.  1.
         11    1    4    4    0    0  0.34420628288E-01  0.79317371140E-02  0.21203601819E-01  0.41201285860E-01  0.51100000000E-03 0. -1.
</event>
<event>
 8    1  0.5489035E+004  0.1043930E+01  0.7957747E-01            NaN
         13   -1    0    0    0    0  0.00000000000E+00  0.00000000000E+00  0.74505805969E-08  0.10566000000E+00  0.10566000000E+00 0.  1.
     999900   -1    0    0    0    0 -0.00000000000E+00 -0.00000000000E+00 -0.74505805969E-08  0.93827000000E+00  0.93827000000E+00 0. -1.
     999902    2    1    2    0    0  0.13880312685E-01 -0.14934553361E-01  0.14614999734E-01  0.10188441039E+01  0.10185352257E+01 0.  0.
     999903    2    3    3    0    0  0.28289154214E-01  0.60063288575E-01 -0.10600913099E+00  0.12733837096E+00  0.23858960245E-01 0.  0.
         14    1    1    2    0    0 -0.13880312685E-01  0.14934553361E-01 -0.14614999734E-01  0.25085896068E-01  0.00000000000E+00 0. -1.
     999901    1    3    3    0    0 -0.14408841530E-01 -0.74997841936E-01  0.12062413073E+00  0.89150573297E+00  0.88000000000E+00 0.  1.
        -11    1    4    4    0    0  0.61840552139E-02  0.30964462550E-02 -0.24525001813E-01  0.25486611254E-01  0.51100000000E-03 0.  1.
         11    1    4    4    0    0  0.22105099000E-01  0.56966842320E-01 -0.81484129180E-01  0.10185175971E+00  0.51100000000E-03 0. -1.
</event>
<event>
 8    1  0.5489035E+004  0.1043930E+01  0.7957747E-01            NaN
         13   -1    0    0    0    0  0.00000000000E+00  0.00000000000E+00  0.74505805969E-08  0.10566000000E+00  0.10566000000E+00 0.  1.
     999900   -1    0    0    0    0 -0.00000000000E+00 -0.00000000000E+00 -0.74505805969E-08  0.93827000000E+00  0.93827000000E+00 0. -1.
     999902    2    1    2    0    0  0.40126554439E-02  0.25127177307E-01  0.75492794625E-02  0.10173881827E+01  0.10170419098E+01 0.  0.
     999903    2    3    3    0    0 -0.65325899549E-01  0.81804420300E-01 -0.72990925315E-01  0.12918388773E+00  0.20034104391E-01 0.  0.
         14    1    1    2    0    0 -0.40126554439E-02 -0.25127177307E-01 -0.75492794625E-02  0.26541817262E-01  0.00000000000E+00 0. -1.
     999901    1    3    3    0    0  0.69338554993E-01 -0.56677242993E-01  0.80540204777E-01  0.88820429501E+00  0.88000000000E+00 0.  1.
        -11    1    4    4    0    0 -0.19628401669E-01  0.32693897458E-01 -0.36628821054E-01  0.52878130979E-01  0.51100000000E-03 0. -1.
         11    1    4    4    0    0 -0.45697497881E-01  0.49110522842E-01 -0.36362104261E-01  0.76305756753E-01  0.51100000000E-03 0.  1.
</event>
<event>
 8    1  0.5489035E+004  0.1043930E+01  0.7957747E-01            NaN
         13   -1    0    0    0    0  0.00000000000E+00  0.00000000000E+00  0.74505805969E-08  0.10566000000E+00  0.10566000000E+00 0.  1.
     999900   -1    0    0    0    0 -0.00000000000E+00 -0.00000000000E+00 -0.74505805969E-08  0.93827000000E+00  0.93827000000E+00 0.  1.
     999902    2    1    2    0    0 -0.71866105544E-02  0.22447705227E-01  0.13815719273E-02  0.10203195027E+01  0.10200462892E+01 0.  0.
     999903    2    3    3    0    0  0.31332649893E-01  0.92738269445E-01 -0.86737951502E-01  0.13229385711E+00  0.19901528288E-01 0.  0.
         14    1    1    2    0    0  0.71866105544E-02 -0.22447705227E-01 -0.13815719273E-02  0.23610497289E-01  0.00000000000E+00 0.  1.
     999901    1    3    3    0    0 -0.38519260447E-01 -0.70290564218E-01  0.88119523429E-01  0.88802564561E+00  0.88000000000E+00 0. -1.
        -11    1    4    4    0    0  0.12142561573E-01  0.24974481971E-01 -0.14219472922E-01  0.31202901828E-01  0.51100000000E-03 0. -1.
         11    1    4    4    0    0  0.19190088320E-01  0.67763787474E-01 -0.72518478580E-01  0.10109095528E+00  0.51100000000E-03 0.  1.
</event>
<event>
 8    1  0.5489035E+004  0.1043930E+01  0.7957747E-01            NaN
         13   -1    0    0    0    0  0.00000000000E+00  0.00000000000E+00  0.74505805969E-08  0.10566000000E+00  0.10566000000E+00 0. -1.
     999900   -1    0    0    0    0 -0.00000000000E+00 -0.00000000000E+00 -0.74505805969E-08  0.93827000000E+00  0.93827000000E+00 0. -1.
     999902    2    1    2    0    0 -0.23300079149E-01  0.81172309655E-02  0.73541669574E-02  0.10181837984E+01  0.10178582320E+01 0.  0.
     999903    2    3    3    0    0  0.84803054011E-01 -0.54145896224E-01  0.74290071647E-01  0.12686825394E+00  0.21288566513E-01 0.  0.
         14    1    1    2    0    0  0.23300079149E-01 -0.81172309655E-02 -0.73541669574E-02  0.25746201633E-01  0.00000000000E+00 0. -1.
     999901    1    3    3    0    0 -0.10810313316E+00  0.62263127190E-01 -0.66935904690E-01  0.89131554443E+00  0.88000000000E+00 0. -1.
        -11    1    4    4    0    0  0.70624310909E-02 -0.13010562522E-01  0.90410785245E-02  0.17353814911E-01  0.51100000000E-03 0.  1.
         11    1    4    4    0    0  0.77740622920E-01 -0.41135333702E-01  0.65248993123E-01  0.10951443903E+00  0.51100000000E-03 0. -1.
</event>
<event>
 8    1  0.5489035E+004  0.1043930E+01  0.7957747E-01            NaN
         13   -1    0    0    0    0  0.00000000000E+00  0.00000000000E+00  0.74505805969E-08  0.10566000000E+00  0.10566000000E+00 0. -1.
     999900   -1    0    0    0    0 -0.00000000000E+00 -0.00000000000E+00 -0.74505805969E-08  0.93827000000E+00  0.93827000000E+00 0.  1.
     999902    2    1    2    0    0  0.12435371619E-01 -0.20354762490E-01 -0.74927558933E-04  0.10200771084E+01  0.10197981892E+01 0.  0.
     999903    2    3    3    0    0 -0.85783482116E-01 -0.89341637036E-01  0.38476712724E-01  0.13109321594E+00  0.19085070914E-01 0.  0.
         14    1    1    2    0    0 -0.12435371619E-01  0.20354762490E-01  0.74927558933E-04  0.23852891596E-01  0.00000000000E+00 0. -1.
     999901    1    3    3    0    0  0.98218853735E-01  0.68986874546E-01 -0.38551640283E-01  0.88898389246E+00  0.88000000000E+00 0.  1.
        -11    1    4    4    0    0 -0.35855406871E-01 -0.24278294369E-01  0.13107162205E-01  0.45244940064E-01  0.51100000000E-03 0. -1.
         11    1    4    4    0    0 -0.49928075245E-01 -0.65063342667E-01  0.25369550519E-01  0.85848275878E-01  0.51100000000E-03 0.  1.
</event>
<event>
 8    1  0.5489035E+004  0.1043930E+01  0.7957747E-01            NaN
         13   -1    0    0    0    0  0.00000000000E+00  0.00000000000E+00  0.74505805969E-08  0.10566000000E+00  0.10566000000E+00 0.  1.
     999900   -1    0    0    0    0 -0.00000000000E+00 -0.00000000000E+00 -0.74505805969E-08  0.93827000000E+00  0.93827000000E+00 0.  1.
     999902    2    1    2    0    0  0.57978139017E-04  0.14662007729E-01 -0.18738077167E-01  0.10201372833E+01  0.10198597862E+01 0.  0.
     999903    2    3    3    0    0  0.94655583189E-01  0.10305262087E-01  0.84866758332E-01  0.12901347032E+00  0.19396674958E-01 0.  0.
         14    1    1    2    0    0 -0.57978139017E-04 -0.14662007729E-01  0.18738077167E-01  0.23792716701E-01  0.00000000000E+00 0.  1.
     999901    1    3    3    0    0 -0.94597605050E-01  0.43567456418E-02 -0.10360483550E+00  0.89112381298E+00  0.88000000000E+00 0.  1.
        -11    1    4    4    0    0  0.63933106107E-01  0.10233245391E-01  0.68267303231E-01  0.94089569981E-01  0.51100000000E-03 0.  1.
         11    1    4    4    0    0  0.30722477082E-01  0.72016696010E-04  0.16599455101E-01  0.34923900342E-01  0.51100000000E-03 0. -1.
</event>
<event>
 8    1  0.5489035E+004  0.1043930E+01  0.7957747E-01            NaN
         13   -1    0    0    0    0  0.00000000000E+00  0.00000000000E+00  0.74505805969E-08  0.10566000000E+00  0.10566000000E+00 0. -1.
     999900   -1    0    0    0    0 -0.00000000000E+00 -0.00000000000E+00 -0.74505805969E-08  0.93827000000E+00  0.93827000000E+00 0.  1.
     999902    2    1    2    0    0  0.11188721087E-02 -0.14381131953E-01 -0.23046932907E-02  0.10293224526E+01  0.10292187964E+01 0.  0.
     999903    2    3    3    0    0  0.62080546182E-01 -0.73241059313E-01 -0.99814755413E-01  0.13989059515E+00  0.19701427126E-01 0.  0.
         14    1    1    2    0    0 -0.11188721087E-02  0.14381131953E-01  0.23046932907E-02  0.14607547439E-01  0.00000000000E+00 0. -1.
     999901    1    3    3    0    0 -0.60961674073E-01  0.58859927360E-01  0.97510062123E-01  0.88943185741E+00  0.88000000000E+00 0.  1.
        -11    1    4    4    0    0  0.54884828694E-01 -0.53406538160E-01 -0.82748440852E-01  0.11274825197E+00  0.51100000000E-03 0. -1.
         11    1    4    4    0    0  0.71957174877E-02 -0.19834521153E-01 -0.17066314561E-01  0.27142343179E-01  0.51100000000E-03 0.  1.
</event>
<event>
 8    1  0.5489035E+004  0.1043930E+01  0.7957747E-01            NaN
         13   -1    0    0    0    0  0.00000000000E+00  0.00000000000E+00  0.74505805969E-08  0.10566000000E+00  0.10566000000E+00 0.  1.
     999900   -1    0    0    0    0 -0.00000000000E+00 -0.00000000000E+00 -0.74505805969E-08  0.93827000000E+00  0.93827000000E+00 0. -1.
     999902    2    1    2    0    0 -0.11645006743E-01 -0.16267603501E-01 -0.65171720164E-02  0.10228892149E+01  0.10226727880E+01 0.  0.
     999903    2    3    3    0    0  0.11348335461E+00  0.59197999948E-01 -0.19836537298E-01  0.13074036545E+00  0.17795504311E-01 0.  0.
         14    1    1    2    0    0  0.11645006743E-01  0.16267603501E-01  0.65171720164E-02  0.21040785080E-01  0.00000000000E+00 0.  1.
     999901    1    3    3    0    0 -0.12512836136E+00 -0.75465603449E-01  0.13319365281E-01  0.89214884947E+00  0.88000000000E+00 0. -1.
        -11    1    4    4    0    0  0.92837704514E-01  0.55553689677E-01 -0.18134256885E-01  0.10970033824E+00  0.51100000000E-03 0. -1.
         11    1    4    4    0    0  0.20645650100E-01  0.36443102715E-02 -0.17022804132E-02  0.21040027210E-01  0.51100000000E-03 0.  1.
</event>
<event>
 8    1  0.5489035E+004  0.1043930E+01  0.7957747E-01            NaN
         13   -1    0    0    0    0  0.00000000000E+00  0.00000000000E+00  0.74505805969E-08  0.10566000000E+00  0.10566000000E+00 0. -1.
     999900   -1    0    0    0    0 -0.00000000000E+00 -0.00000000000E+00 -0.74505805969E-08  0.93827000000E+00  0.93827000000E+00 0. -1.
     999902    2    1    2    0    0 -0.89869797999E-02 -0.21997099678E-01 -0.65601522742E-02  0.10192789595E+01  0.10189808259E+01 0.  0.
     999903    2    3    3    0    0  0.80444325426E-01  0.33632046450E-01 -0.92659933276E-01  0.12882641582E+00  0.20198468648E-01 0.  0.
         14    1    1    2    0    0  0.89869797999E-02  0.21997099678E-01  0.65601522742E-02  0.24651040506E-01  0.00000000000E+00 0. -1.
     999901    1    3    3    0    0 -0.89431305226E-01 -0.55629146128E-01  0.86099781001E-01  0.89045254368E+00  0.88000000000E+00 0.  1.
        -11    1    4    4    0    0  0.70040427478E-02  0.15458465369E-02 -0.17635451062E-01  0.19045117786E-01  0.51100000000E-03 0. -1.
         11    1    4    4    0    0  0.73440282679E-01  0.32086199913E-01 -0.75024482214E-01  0.10978129803E+00  0.51100000000E-03 0.  1.
</event>
<event>
 8    1  0.5489035E+004  0.1043930E+01  0.7957747E-01            NaN
         13   -1    0    0    0    0  0.00000000000E+00  0.00000000000E+00  0.74505805969E-08  0.10566000000E+00  0.10566000000E+00 0. -1.
     999900   -1    0    0    0    0 -0.00000000000E+00 -0.00000000000E+00 -0.74505805969E-08  0.93827000000E+00  0.93827000000E+00 0.  1.
     999902    2    1    2    0    0  0.88989165721E-02 -0.24338445041E-01 -0.98644394978E-02  0.10162017150E+01  0.10158233448E+01 0.  0.
     999903    2    3    3    0    0  0.26124273969E-01  0.88995739541E-01 -0.82767492269E-01  0.12577698182E+00  0.19148682263E-01 0.  0.
         14    1    1    2    0    0 -0.88989165721E-02  0.24338445041E-01  0.98644394978E-02  0.27728285013E-01  0.00000000000E+00 0. -1.
     999901    1    3    3    0    0 -0.17225357397E-01 -0.11333418458E+00  0.72903052771E-01  0.89042473317E+00  0.88000000000E+00 0. -1.
        -11    1    4    4    0    0  0.80706278712E-02  0.34108199303E-01 -0.43721573310E-01  0.56038748983E-01  0.51100000000E-03 0. -1.
         11    1    4    4    0    0  0.18053646098E-01  0.54887540238E-01 -0.39045918959E-01  0.69738232837E-01  0.51100000000E-03 0.  1.
</event>
<event>
 8    1  0.5489035E+004  0.1043930E+01  0.7957747E-01            NaN
         13   -1    0    0    0    0  0.00000000000E+00  0.00000000000E+00  0.74505805969E-08  0.10566000000E+00  0.10566000000E+00 0.  1.
     999900   -1    0    0    0    0 -0.00000000000E+00 -0.00000000000E+00 -0.74505805969E-08  0.93827000000E+00  0.93827000000E+00 0.  1.
     999902    2    1    2    0    0  0.79050269231E-02  0.19170999815E-01  0.96424058447E-02  0.10210609669E+01  0.10208048322E+01 0.  0.
     999903    2    3    3    0    0  0.68684797142E-01  0.31094356911E-02  0.11188216026E+00  0.13291395109E+00  0.20523904642E-01 0.  0.
         14    1    1    2    0    0 -0.79050269231E-02 -0.19170999815E-01 -0.96424058447E-02  0.22869033102E-01  0.00000000000E+00 0. -1.
     999901    1    3    3    0    0 -0.60779770219E-01  0.16061564124E-01 -0.10223975441E+00  0.88814701581E+00  0.88000000000E+00 0.  1.
        -11    1    4    4    0    0  0.44800466730E-01  0.76937868733E-02  0.57192628372E-01  0.73058428924E-01  0.51100000000E-03 0. -1.
         11    1    4    4    0    0  0.23884330412E-01 -0.45843511822E-02  0.54689531883E-01  0.59855522165E-01  0.51100000000E-03 0.  1.
</event>
<event>
 8    1  0.5489035E+004  0.1043930E+01  0.7957747E-01            NaN
         13   -1    0    0    0    0  0.00000000000E+00  0.00000000000E+00  0.74505805969E-08  0.10566000000E+00  0.10566000000E+00 0. -1.
     999900   -1    0    0    0    0 -0.00000000000E+00 -0.00000000000E+00 -0.74505805969E-08  0.93827000000E+00  0.93827000000E+00 0. -1.
     999902    2    1    2    0    0 -0.16978326132E-01  0.14613252833E-01 -0.96829339132E-02  0.10195256986E+01  0.10192335749E+01 0.  0.
     999903    2    3    3    0    0  0.10393616157E+00  0.42676133949E-01  0.58331719761E-01  0.12821552155E+00  0.20313846164E-01 0.  0.
         14    1    1    2    0    0  0.16978326132E-01 -0.14613252833E-01  0.96829339132E-02  0.24404301378E-01  0.00000000000E+00 0.  1.
     999901    1    3    3    0    0 -0.12091448770E+00 -0.28062881116E-01 -0.68014653674E-01  0.89131017707E+00  0.88000000000E+00 0. -1.
        -11    1    4    4    0    0  0.47451727531E-01  0.25974520748E-01  0.18782227434E-01  0.57265830668E-01  0.51100000000E-03 0.  1.
         11    1    4    4    0    0  0.56484434039E-01  0.16701613201E-01  0.39549492327E-01  0.70949690884E-01  0.51100000000E-03 0. -1.
</event>
<event>
 8    1  0.5489035E+004  0.1043930E+01  0.7957747E-01            NaN
         13   -1    0    0    0    0  0.00000000000E+00  0.00000000000E+00  0.74505805969E-08  0.10566000000E+00  0.10566000000E+00 0.  1.
     999900   -1    0    0    0    0 -0.00000000000E+00 -0.00000000000E+00 -0.74505805969E-08  0.93827000000E+00  0.93827000000E+00 0. -1.
     999902    2    1    2    0    0 -0.23172044490E-01  0.23179503531E-02  0.21443407408E-02  0.10205437917E+01  0.10202758039E+01 0.  0.
     999903    2    3    3    0    0 -0.61999984194E-01  0.11539618279E+00  0.39603584798E-02  0.13245731314E+00  0.19208808418E-01 0.  0.
         14    1    1    2    0    0  0.23172044490E-01 -0.23179503531E-02 -0.21443407408E-02  0.23386208263E-01  0.00000000000E+00 0. -1.
     999901    1    3    3    0    0  0.38827939704E-01 -0.11307823244E+00 -0.18160177390E-02  0.88808647860E+00  0.88000000000E+00 0. -1.
        -11    1    4    4    0    0 -0.34013910626E-01  0.78146538531E-01  0.84492287056E-02  0.85647406191E-01  0.51100000000E-03 0.  1.
         11    1    4    4    0    0 -0.27986073568E-01  0.37249644261E-01 -0.44888702258E-02  0.46809906945E-01  0.51100000000E-03 0. -1.
</event>
<event>
 8    1  0.5489035E+004  0.1043930E+01  0.7957747E-01            NaN
         13   -1    0    0    0    0  0.00000000000E+00  0.00000000000E+00  0.74505805969E-08  0.10566000000E+00  0.10566000000E+00 0.  1.
     999900   -1    0    0    0    0 -0.00000000000E+00 -0.00000000000E+00 -0.74505805969E-08  0.93827000000E+00  0.93827000000E+00 0.  1.
     999902    2    1    2    0    0  0.11046427840E-01 -0.17974072007E-01 -0.14200848575E-01  0.10184986231E+01  0.10181810695E+01 0.  0.
     999903    2    3    3    0    0 -0.11234905883E+00  0.19878915963E-01 -0.54798728485E-01  0.12815740607E+00  0.20098203057E-01 0.  0.
         14    1    1    2    0    0 -0.11046427840E-01  0.17974072007E-01  0.14200848575E-01  0.25431376935E-01  0.00000000000E+00 0.  1.
     999901    1    3    3    0    0  0.12339548667E+00 -0.37852987970E-01  0.40597879910E-01  0.89034121700E+00  0.88000000000E+00 0.  1.
        -11    1    4    4    0    0 -0.66390093554E-01  0.22997819228E-02 -0.27650807885E-01  0.71956666242E-01  0.51100000000E-03 0. -1.
         11    1    4    4    0    0 -0.45958965279E-01  0.17579134040E-01 -0.27147920600E-01  0.56200739826E-01  0.51100000000E-03 0.  1.
</event>
<event>
 8    1  0.5489035E+004  0.1043930E+01  0.7957747E-01            NaN
         13   -1    0    0    0    0  0.00000000000E+00  0.00000000000E+00  0.74505805969E-08  0.10566000000E+00  0.10566000000E+00 0. -1.
     999900   -1    0    0    0    0 -0.00000000000E+00 -0.00000000000E+00 -0.74505805969E-08  0.93827000000E+00  0.93827000000E+00 0. -1.
     999902    2    1    2    0    0 -0.21110785882E-01  0.86273341617E-02 -0.59306741199E-02  0.10203658520E+01  0.10200937226E+01 0.  0.
     999903    2    3    3    0    0 -0.59573840522E-01 -0.10884524945E+00 -0.37461648021E-01  0.13116766443E+00  0.20130829986E-01 0.  0.
         14    1    1    2    0    0  0.21110785882E-01 -0.86273341617E-02  0.59306741199E-02  0.23564147997E-01  0.00000000000E+00 0. -1.
     999901    1    3    3    0    0  0.38463054640E-01  0.11747258361E+00  0.31530973901E-01  0.88919818758E+00  0.88000000000E+00 0. -1.
        -11    1    4    4    0    0 -0.10122211471E-01 -0.33997609517E-01 -0.16049289396E-01  0.38937609442E-01  0.51100000000E-03 0.  1.
         11    1    4    4    0    0 -0.49451629051E-01 -0.74847639935E-01 -0.21412358625E-01  0.92230054985E-01  0.51100000000E-03 0. -1.
</event>
<event>
 8    1  0.5489035E+004  0.1043930E+01  0.7957747E-01            NaN
         13   -1    0    0    0    0  0.00000000000E+00  0.00000000000E+00  0.74505805969E-08  0.10566000000E+00  0.10566000000E+00 0.  1.
     999900   -1    0    0    0    0 -0.00000000000E+00 -0.00000000000E+00 -0.74505805969E-08  0.93827000000E+00  0.93827000000E+00 0.  1.
     999902    2    1    2    0    0  0.41857195775E-02 -0.18524203578E-02  0.23532803544E-01  0.10199561694E+01  0.10196743809E+01 0.  0.
     999903    2    3    3    0    0  0.64657671687E-01 -0.10989958081E-01 -0.10809113928E+00  0.12806760357E+00  0.20401544219E-01 0.  0.
         14    1    1    2    0    0 -0.41857195775E-02  0.18524203578E-02 -0.23532803544E-01  0.23973830570E-01  0.00000000000E+00 0. -1.
     999901    1    3    3    0    0 -0.60471952109E-01  0.91375377236E-02  0.13162394282E+00  0.89188856586E+00  0.88000000000E+00 0. -1.
        -11    1    4    4    0    0  0.45613865824E-01  0.14700449168E-02 -0.77428294707E-01  0.89878739031E-01  0.51100000000E-03 0.  1.
         11    1    4    4    0    0  0.19043805862E-01 -0.12460002998E-01 -0.30662844574E-01  0.38188864539E-01  0.51100000000E-03 0. -1.
</event>
<event>
 8    1  0.5489035E+004  0.1043930E+01  0.7957747E-01            NaN
         13   -1    0    0    0    0  0.00000000000E+00  0.00000000000E+00  0.74505805969E-08  0.10566000000E+00  0.10566000000E+00 0. -1.
     999900   -1    0    0    0    0 -0.00000000000E+00 -0.00000000000E+00 -0.74505805969E-08  0.93827000000E+00  0.93827000000E+00 0.  1.
     999902    2    1    2    0    0  0.35130383607E-02 -0.55737525282E-02  0.22880769583E-01  0.10201195449E+01  0.10198416289E+01 0.  0.
     999903    2    3    3    0    0  0.61984306370E-01 -0.83995158081E-01 -0.73811940576E-01  0.12943537739E+00  0.20200829994E-01 0.  0.
         14    1    1    2    0    0 -0.35130383607E-02  0.55737525282E-02 -0.22880769583E-01  0.23810455109E-01  0.00000000000E+00 0.  1.
     999901    1    3    3    0    0 -0.58471268009E-01  0.78421405552E-01  0.96692710159E-01  0.89068416750E+00  0.88000000000E+00 0. -1.
        -11    1    4    4    0    0  0.19940437674E-01 -0.38955182312E-01 -0.39252797535E-01  0.58789204102E-01  0.51100000000E-03 0.  1.
         11    1    4    4    0    0  0.42043868696E-01 -0.45039975768E-01 -0.34559143041E-01  0.70646173293E-01  0.51100000000E-03 0. -1.
</event>
<event>
 8    1  0.5489035E+004  0.1043930E+01  0.7957747E-01            NaN
         13   -1    0    0    0    0  0.00000000000E+00  0.00000000000E+00  0.74505805969E-08  0.10566000000E+00  0.10566000000E+00 0. -1.
     999900   -1    0    0    0    0 -0.00000000000E+00 -0.00000000000E+00 -0.74505805969E-08  0.93827000000E+00  0.93827000000E+00 0. -1.
     999902    2    1    2    0    0  0.11713445438E-01 -0.42108883035E-02 -0.20818404611E-01  0.10196742305E+01  0.10193856944E+01 0.  0.
     999903    2    3    3    0    0  0.64727196814E-01 -0.86694025096E-01 -0.74172059903E-01  0.13262263208E+00  0.19539807462E-01 0.  0.
         14    1    1    2    0    0 -0.11713445438E-01  0.42108883035E-02  0.20818404611E-01  0.24255769517E-01  0.00000000000E+00 0. -1.
     999901    1    3    3    0    0 -0.53013751377E-01  0.82483136793E-01  0.53353655292E-01  0.88705159840E+00  0.88000000000E+00 0.  1.
        -11    1    4    4    0    0  0.30322195375E-01 -0.45154090329E-01 -0.25932922958E-01  0.60258650997E-01  0.51100000000E-03 0.  1.
         11    1    4    4    0    0  0.34405001440E-01 -0.41539934767E-01 -0.48239136945E-01  0.72363981087E-01  0.51100000000E-03 0. -1.
</event>
<event>
 8    1  0.5489035E+004  0.1043930E+01  0.7957747E-01            NaN
         13   -1    0    0    0    0  0.00000000000E+00  0.00000000000E+00  0.74505805969E-08  0.10566000000E+00  0.10566000000E+00 0. -1.
     999900   -1    0    0    0    0 -0.00000000000E+00 -0.00000000000E+00 -0.74505805969E-08  0.93827000000E+00  0.93827000000E+00 0.  1.
     999902    2    1    2    0    0 -0.15223650870E-01 -0.17343420490E-01  0.16930637215E-02  0.10207908504E+01  0.10205285591E+01 0.  0.
     999903    2    3    3    0    0 -0.73469351332E-01  0.96852508779E-01 -0.42758495841E-01  0.13039250524E+00  0.19893778308E-01 0.  0.
         14    1    1    2    0    0  0.15223650870E-01  0.17343420490E-01 -0.16930637215E-02  0.23139149614E-01  0.00000000000E+00 0. -1.
     999901    1    3    3    0    0  0.58245700462E-01 -0.11419592927E+00  0.44451559563E-01  0.89039834514E+00  0.88000000000E+00 0. -1.
        -11    1    4    4    0    0 -0.47673356392E-01  0.58471530658E-01 -0.16562254756E-01  0.77241428073E-01  0.51100000000E-03 0. -1.
         11    1    4    4    0    0 -0.25795994940E-01  0.38380978122E-01 -0.26196241085E-01  0.53151077172E-01  0.51100000000E-03 0.  1.
</event>
<event>
 8    1  0.5489035E+004  0.1043930E+01  0.7957747E-01            NaN
         13   -1    0    0    0    0  0.00000000000E+00  0.00000000000E+00  0.74505805969E-08  0.10566000000E+00  0.10566000000E+00 0. -1.
     999900   -1    0    0    0    0 -0.00000000000E+00 -0.00000000000E+00 -0.74505805969E-08  0.93827000000E+00  0.93827000000E+00 0. -1.
     999902    2    1    2    0    0  0.12196892652E-01  0.75650381845E-02  0.19541393512E-01  0.10196841745E+01  0.10193958778E+01 0.  0.
     999903    2    3    3    0    0 -0.34449917045E-01  0.10915169179E+00  0.61722081079E-01  0.13161042563E+00  0.20268207541E-01 0.  0.
         14    1    1    2    0    0 -0.12196892652E-01 -0.75650381845E-02 -0.19541393512E-01  0.24245825486E-01  0.00000000000E+00 0.  1.
     999901    1    3    3    0    0  0.46646809697E-01 -0.10158665361E+00 -0.42180687566E-01  0.88807374888E+00  0.88000000000E+00 0. -1.
        -11    1    4    4    0    0 -0.15800168505E-01  0.52915593446E-01  0.18397702510E-01  0.58210324970E-01  0.51100000000E-03 0.  1.
         11    1    4    4    0    0 -0.18649748541E-01  0.56236098349E-01  0.43324378569E-01  0.73400100664E-01  0.51100000000E-03 0. -1.
</event>
<event>
 8    1  0.5489035E+004  0.1043930E+01  0.7957747E-01            NaN
         13   -1    0    0    0    0  0.00000000000E+00  0.00000000000E+00  0.74505805969E-08  0.10566000000E+00  0.10566000000E+00 0. -1.
     999900   -1    0    0    0    0 -0.00000000000E+00 -0.00000000000E+00 -0.74505805969E-08  0.93827000000E+00  0.93827000000E+00 0. -1.
     999902    2    1    2    0    0  0.22078602040E-01  0.39617855371E-02 -0.63382536219E-02  0.10206204768E+01  0.10203542639E+01 0.  0.
     999903    2    3    3    0    0 -0.28123242160E-01  0.10290079576E+00  0.72013034461E-01  0.13020030787E+00  0.19666024457E-01 0.  0.
         14    1    1    2    0    0 -0.22078602040E-01 -0.39617855371E-02  0.63382536219E-02  0.23309523197E-01  0.00000000000E+00 0. -1.
     999901    1    3    3    0    0  0.50201844200E-01 -0.98939010226E-01 -0.78351288083E-01  0.89042016894E+00  0.88000000000E+00 0. -1.
        -11    1    4    4    0    0 -0.36881106939E-02  0.81919185421E-02  0.45912269831E-03  0.90100834926E-02  0.51100000000E-03 0. -1.
         11    1    4    4    0    0 -0.24435131466E-01  0.94708877221E-01  0.71553911763E-01  0.12119022437E+00  0.51100000000E-03 0.  1.
</event>
<event>
 8    1  0.5489035E+004  0.1043930E+01  0.7957747E-01            NaN
         13   -1    0    0    0    0  0.00000000000E+00  0.00000000000E+00  0.74505805969E-08  0.10566000000E+00  0.10566000000E+00 0. -1.
     999900   -1    0    0    0    0 -0.00000000000E+00 -0.00000000000E+00 -0.74505805969E-08  0.93827000000E+00  0.93827000000E+00 0. -1.
     999902    2    1    2    0    0  0.11516305320E-01 -0.13255633621E-03  0.21049246375E-01  0.10199359667E+01  0.10196536974E+01 0.  0.
     999903    2    3    3    0    0 -0.33119172412E-02 -0.12759940658E+00 -0.11300555118E-01  0.13004036401E+00  0.22140830384E-01 0.  0.
         14    1    1    2    0    0 -0.11516305320E-01  0.13255633621E-03 -0.21049246375E-01  0.23994033266E-01  0.00000000000E+00 0.  1.
     999901    1    3    3    0    0  0.14828222561E-01  0.12746685024E+00  0.32349801493E-01  0.88989560273E+00  0.88000000000E+00 0.  1.
        -11    1    4    4    0    0 -0.82205353356E-02 -0.81536564223E-01  0.15445762988E-02  0.81966062144E-01  0.51100000000E-03 0. -1.
         11    1    4    4    0    0  0.49086180944E-02 -0.46062842356E-01 -0.12845131417E-01  0.48074301863E-01  0.51100000000E-03 0.  1.
</event>
<event>
 8    1  0.5489035E+004  0.1043930E+01  0.7957747E-01            NaN
         13   -1    0    0    0    0  0.00000000000E+00  0.00000000000E+00  0.74505805969E-08  0.10566000000E+00  0.10566000000E+00 0.  1.
     999900   -1    0    0    0    0 -0.00000000000E+00 -0.00000000000E+00 -0.74505805969E-08  0.93827000000E+00  0.93827000000E+00 0. -1.
     999902    2    1    2    0    0  0.11684486876E-01 -0.87062519685E-02 -0.18453732731E-01  0.10204168907E+01  0.10201459526E+01 0.  0.
     999903    2    3    3    0    0  0.19836035547E-02 -0.10471980476E+00 -0.79504413856E-01  0.13303878915E+00  0.20203846262E-01 0.  0.
         14    1    1    2    0    0 -0.11684486876E-01  0.87062519685E-02  0.18453732731E-01  0.23513109292E-01  0.00000000000E+00 0.  1.
     999901    1    3    3    0    0  0.97008833217E-02  0.96013552793E-01  0.61050681125E-01  0.88737810156E+00  0.88000000000E+00 0.  1.
        -11    1    4    4    0    0  0.65477570323E-02 -0.77635478040E-01 -0.49250923300E-01  0.92174048081E-01  0.51100000000E-03 0.  1.
         11    1    4    4    0    0 -0.45641534776E-02 -0.27084326721E-01 -0.30253490556E-01  0.40864741070E-01  0.51100000000E-03 0. -1.
</event>
<event>
 8    1  0.5489035E+004  0.1043930E+01  0.7957747E-01            NaN
         13   -1    0    0    0    0  0.00000000000E+00  0.00000000000E+00  0.74505805969E-08  0.10566000000E+00  0.10566000000E+00 0. -1.
     999900   -1    0    0    0    0 -0.00000000000E+00 -0.00000000000E+00 -0.74505805969E-08  0.93827000000E+00  0.93827000000E+00 0.  1.
     999902    2    1    2    0    0  0.72446594834E-03 -0.20041517445E-01  0.12519440172E-01  0.10202884338E+01  0.10200144922E+01 0.  0.
     999903    2    3    3    0    0  0.56031675211E-01 -0.70078308731E-01  0.96510305605E-01  0.13314862890E+00  0.19073549966E-01 0.  0.
         14    1    1    2    0    0 -0.72446594834E-03  0.20041517445E-01 -0.12519440172E-01  0.23641566247E-01  0.00000000000E+00 0.  1.
     999901    1    3    3    0    0 -0.55307209263E-01  0.50036791286E-01 -0.83990865433E-01  0.88713980485E+00  0.88000000000E+00 0.  1.
        -11    1    4    4    0    0  0.40154443669E-01 -0.38015200193E-01  0.50719816841E-01  0.75035296585E-01  0.51100000000E-03 0.  1.
         11    1    4    4    0    0  0.15877231542E-01 -0.32063108538E-01  0.45790488763E-01  0.58113332315E-01  0.51100000000E-03 0. -1.
</event>
<event>
 8    1  0.5489035E+004  0.1043930E+01  0.7957747E-01            NaN
         13   -1    0    0    0    0  0.00000000000E+00  0.00000000000E+00  0.74505805969E-08  0.10566000000E+00  0.10566000000E+00 0.  1.
     999900   -1    0    0    0    0 -0.00000000000E+00 -0.00000000000E+00 -0.74505805969E-08  0.93827000000E+00  0.93827000000E+00 0. -1.
     999902    2    1    2    0    0  0.99297342622E-02 -0.17347537557E-01 -0.13776781201E-01  0.10196537486E+01  0.10193647192E+01 0.  0.
     999903    2    3    3    0    0 -0.12635300113E+00 -0.94948177505E-02  0.12427818242E-01  0.12874335456E+00  0.19109375179E-01 0.  0.
         14    1    1    2    0    0 -0.99297342622E-02  0.17347537557E-01  0.13776781201E-01  0.24276251400E-01  0.00000000000E+00 0. -1.
     999901    1    3    3    0    0  0.13628273539E+00 -0.78527198062E-02 -0.26204599442E-01  0.89091039404E+00  0.88000000000E+00 0.  1.
        -11    1    4    4    0    0 -0.52068368629E-01 -0.67537587355E-02 -0.38397959210E-02  0.52647254653E-01  0.51100000000E-03 0.  1.
         11    1    4    4    0    0 -0.74284632497E-01 -0.27410590150E-02  0.16267614163E-01  0.76096099909E-01  0.51100000000E-03 0. -1.
</event>
<event>
 8    1  0.5489035E+004  0.1043930E+01  0.7957747E-01            NaN
         13   -1    0    0    0    0  0.00000000000E+00  0.00000000000E+00  0.74505805969E-08  0.10566000000E+00  0.10566000000E+00 0.  1.
     999900   -1    0    0    0    0 -0.00000000000E+00 -0.00000000000E+00 -0.74505805969E-08  0.93827000000E+00  0.93827000000E+00 0.  1.
     999902    2    1    2    0    0  0.21024521374E-01  0.11783113887E-01  0.45816814553E-02  0.10193970818E+01  0.10191018331E+01 0.  0.
     999903    2    3    3    0    0 -0.44500212388E-01 -0.10146931397E+00  0.60736044577E-01  0.12795279543E+00  0.20168296101E-01 0.  0.
         14    1    1    2    0    0 -0.21024521374E-01 -0.11783113887E-01 -0.45816814553E-02  0.24532918229E-01  0.00000000000E+00 0.  1.
     999901    1    3    3    0    0  0.65524733762E-01  0.11325242786E+00 -0.56154363122E-01  0.89144428634E+00  0.88000000000E+00 0.  1.
        -11    1    4    4    0    0 -0.38856769199E-01 -0.68321479774E-01  0.37572118237E-01  0.87118300609E-01  0.51100000000E-03 0. -1.
         11    1    4    4    0    0 -0.56434431885E-02 -0.33147834196E-01  0.23163926340E-01  0.40834494823E-01  0.51100000000E-03 0.  1.
</event>
<event>
 8    1  0.5489035E+004  0.1043930E+01  0.7957747E-01            NaN
         13   -1    0    0    0    0  0.00000000000E+00  0.00000000000E+00  0.74505805969E-08  0.10566000000E+00  0.10566000000E+00 0. -1.
     999900   -1    0    0    0    0 -0.00000000000E+00 -0.00000000000E+00 -0.74505805969E-08  0.93827000000E+00  0.93827000000E+00 0. -1.
     999902    2    1    2    0    0 -0.66808327190E-02  0.13542805625E-01  0.18222465269E-01  0.10202635818E+01  0.10199890573E+01 0.  0.
     999903    2    3    3    0    0  0.49848919780E-01  0.68757621681E-01 -0.95566656269E-01  0.12942563188E+00  0.20136609828E-01 0.  0.
         14    1    1    2    0    0  0.66808327190E-02 -0.13542805625E-01 -0.18222465269E-01  0.23666418202E-01  0.00000000000E+00 0.  1.
     999901    1    3    3    0    0 -0.56529752499E-01 -0.55214816056E-01  0.11378912154E+00  0.89083794992E+00  0.88000000000E+00 0.  1.
        -11    1    4    4    0    0  0.26333718490E-01  0.40545415803E-01 -0.39670913394E-01  0.62541489930E-01  0.51100000000E-03 0. -1.
         11    1    4    4    0    0  0.23515201290E-01  0.28212205878E-01 -0.55895742875E-01  0.66884141952E-01  0.51100000000E-03 0.  1.
</event>
<event>
 8    1  0.5489035E+004  0.1043930E+01  0.7957747E-01            NaN
         13   -1    0    0    0    0  0.00000000000E+00  0.00000000000E+00  0.74505805969E-08  0.10566000000E+00  0.10566000000E+00 0. -1.
     999900   -1    0    0    0    0 -0.00000000000E+00 -0.00000000000E+00 -0.74505805969E-08  0.93827000000E+00  0.93827000000E+00 0. -1.
     999902    2    1    2    0    0 -0.11896076428E-01 -0.20613942302E-01  0.64029604329E-02  0.10192835164E+01  0.10189854943E+01 0.  0.
     999903    2    3    3    0    0 -0.64022629836E-01 -0.11312707220E+00 -0.17580851166E-01  0.13257551486E+00  0.19249654963E-01 0.  0.
         14    1    1    2    0    0  0.11896076428E-01  0.20613942302E-01 -0.64029604329E-02  0.24646483602E-01  0.00000000000E+00 0. -1.
     999901    1    3    3    0    0  0.52126553408E-01  0.92513129901E-01  0.23983811598E-01  0.88670800154E+00  0.88000000000E+00 0. -1.
        -11    1    4    4    0    0 -0.31414111863E-01 -0.44536072720E-01  0.49338812901E-03  0.54505162602E-01  0.51100000000E-03 0.  1.
         11    1    4    4    0    0 -0.32608517973E-01 -0.68590999483E-01 -0.18074239295E-01  0.78070352257E-01  0.51100000000E-03 0. -1.
</event>
<event>
 8    1  0.5489035E+004  0.1043930E+01  0.7957747E-01            NaN
         13   -1    0    0    0    0  0.00000000000E+00  0.00000000000E+00  0.74505805969E-08  0.10566000000E+00  0.10566000000E+00 0.  1.
     999900   -1    0    0    0    0 -0.00000000000E+00 -0.00000000000E+00 -0.74505805969E-08  0.93827000000E+00  0.93827000000E+00 0. -1.
     999902    2    1    2    0    0 -0.50236770002E-02 -0.12359874866E-01 -0.19920325369E-01  0.10199545292E+01  0.10196727016E+01 0.  0.
     999903    2    3    3    0    0  0.48175390581E-01  0.94613849735E-01 -0.72890884737E-01  0.13030324993E+00  0.19829448933E-01 0.  0.
         14    1    1    2    0    0  0.50236770002E-02  0.12359874866E-01  0.19920325369E-01  0.23975470801E-01  0.00000000000E+00 0.  1.
     999901    1    3    3    0    0 -0.53199067581E-01 -0.10697372460E+00  0.52970559368E-01  0.88965127927E+00  0.88000000000E+00 0. -1.
        -11    1    4    4    0    0  0.47885489827E-01  0.83634917012E-01 -0.60749764535E-01  0.11392372225E+00  0.51100000000E-03 0.  1.
         11    1    4    4    0    0  0.28990075435E-03  0.10978932723E-01 -0.12141120202E-01  0.16379527678E-01  0.51100000000E-03 0. -1.
</event>
<event>
 8    1  0.5489035E+004  0.1043930E+01  0.7957747E-01            NaN
         13   -1    0    0    0    0  0.00000000000E+00  0.00000000000E+00  0.74505805969E-08  0.10566000000E+00  0.10566000000E+00 0. -1.
     999900   -1    0    0    0    0 -0.00000000000E+00 -0.00000000000E+00 -0.74505805969E-08  0.93827000000E+00  0.93827000000E+00 0.  1.
     999902    2    1    2    0    0 -0.16964636680E-01 -0.61372211119E-02 -0.15335621679E-01  0.10202520425E+01  0.10199772470E+01 0.  0.
     999903    2    3    3    0    0 -0.77253828688E-01 -0.28894999794E-01  0.99182310545E-01  0.13049530045E+00  0.19718459734E-01 0.  0.
         14    1    1    2    0    0  0.16964636680E-01  0.61372211119E-02  0.15335621679E-01  0.23677957533E-01  0.00000000000E+00 0.  1.
     999901    1    3    3    0    0  0.60289192008E-01  0.22757778682E-01 -0.11451793222E+00  0.88975674202E+00  0.88000000000E+00 0. -1.
        -11    1    4    4    0    0 -0.36746460719E-01 -0.17592798839E-01  0.62937885651E-01  0.74974979277E-01  0.51100000000E-03 0. -1.
         11    1    4    4    0    0 -0.40507367969E-01 -0.11302200955E-01  0.36244424895E-01  0.55520321173E-01  0.51100000000E-03 0.  1.
</event>
<event>
 8    1  0.5489035E+004  0.1043930E+01  0.7957747E-01            NaN
         13   -1    0    0    0    0  0.00000000000E+00  0.00000000000E+00  0.74505805969E-08  0.10566000000E+00  0.10566000000E+00 0. -1.
     999900   -1    0    0    0    0 -0.00000000000E+00 -0.00000000000E+00 -0.74505805969E-08  0.93827000000E+00  0.93827000000E+00 0.  1.
     999902    2    1    2    0    0 -0.98594298755E-02 -0.21207352852E-01 -0.10531570411E-01  0.10182809426E+01  0.10179578596E+01 0.  0.
     999903    2    3    3    0    0  0.59452261792E-01  0.22374289287E-01 -0.11037091129E+00  0.12885901562E+00  0.19690799743E-01 0.  0.
         14    1    1    2    0    0  0.98594298755E-02  0.21207352852E-01  0.10531570411E-01  0.25649057444E-01  0.00000000000E+00 0. -1.
     999901    1    3    3    0    0 -0.69311691668E-01 -0.43581642138E-01  0.99839340874E-01  0.88942192694E+00  0.88000000000E+00 0. -1.
        -11    1    4    4    0    0  0.48186630025E-01  0.25807001730E-01 -0.88783308339E-01  0.10426259930E+00  0.51100000000E-03 0. -1.
         11    1    4    4    0    0  0.11265631767E-01 -0.34327124435E-02 -0.21587602947E-01  0.24596416321E-01  0.51100000000E-03 0.  1.
</event>
<event>
 8    1  0.5489035E+004  0.1043930E+01  0.7957747E-01            NaN
         13   -1    0    0    0    0  0.00000000000E+00  0.00000000000E+00  0.74505805969E-08  0.10566000000E+00  0.10566000000E+00 0. -1.
     999900   -1    0    0    0    0 -0.00000000000E+00 -0.00000000000E+00 -0.74505805969E-08  0.93827000000E+00  0.93827000000E+00 0.  1.
     999902    2    1    2    0    0  0.14279075313E-01  0.10707866246E-01  0.15476297915E-01  0.10203065754E+01  0.10200330591E+01 0.  0.
     999903    2    3    3    0    0 -0.53653596050E-01 -0.11299669120E+00 -0.20460446926E-01  0.12833734109E+00  0.20121695751E-01 0.  0.
         14    1    1    2    0    0 -0.14279075313E-01 -0.10707866246E-01 -0.15476297915E-01  0.23623424572E-01  0.00000000000E+00 0. -1.
     999901    1    3    3    0    0  0.67932671363E-01  0.12370455744E+00  0.35936744841E-01  0.89196923434E+00  0.88000000000E+00 0.  1.
        -11    1    4    4    0    0 -0.13277667399E-01 -0.18600857404E-01 -0.10593537281E-01  0.25194691918E-01  0.51100000000E-03 0. -1.
         11    1    4    4    0    0 -0.40375928651E-01 -0.94395833793E-01 -0.98669096446E-02  0.10314264918E+00  0.51100000000E-03 0.  1.
</event>
<event>
 8    1  0.5489035E+004  0.1043930E+01  0.7957747E-01            NaN
         13   -1    0    0    0    0  0.00000000000E+00  0.00000000000E+00  0.74505805969E-08  0.10566000000E+00  0.10566000000E+00 0.  1.
     999900   -1    0    0    0    0 -0.00000000000E+00 -0.00000000000E+00 -0.74505805969E-08  0.93827000000E+00  0.93827000000E+00 0. -1.
     999902    2    1    2    0    0  0.56277775947E-03  0.19426217063E-01 -0.13058615697E-01  0.10205158574E+01  0.10202472216E+01 0.  0.
     999903    2    3    3    0    0  0.12932492202E+00 -0.13197347187E-01  0.10607446466E-02  0.13043533126E+00  0.10636965467E-01 0.  0.
         14    1    1    2    0    0 -0.56277775947E-03 -0.19426217063E-01  0.13058615697E-01  0.23414142566E-01  0.00000000000E+00 0.  1.
     999901    1    3    3    0    0 -0.12876214426E+00  0.32623564251E-01 -0.14119360343E-01  0.89008052617E+00  0.88000000000E+00 0.  1.
        -11    1    4    4    0    0  0.88376804637E-01 -0.13656807911E-01  0.24021645815E-02  0.89459485332E-01  0.51100000000E-03 0. -1.
         11    1    4    4    0    0  0.40948117379E-01  0.45946072385E-03 -0.13414199348E-02  0.40975845927E-01  0.51100000000E-03 0.  1.
</event>
<event>
 8    1  0.5489035E+004  0.1043930E+01  0.7957747E-01            NaN
         13   -1    0    0    0    0  0.00000000000E+00  0.00000000000E+00  0.74505805969E-08  0.10566000000E+00  0.10566000000E+00 0. -1.
     999900   -1    0    0    0    0 -0.00000000000E+00 -0.00000000000E+00 -0.74505805969E-08  0.93827000000E+00  0.93827000000E+00 0. -1.
     999902    2    1    2    0    0  0.12985112410E-01 -0.16730302236E-01 -0.10193122350E-01  0.10204264705E+01  0.10201557556E+01 0.  0.
     999903    2    3    3    0    0  0.97054671447E-01  0.83691608798E-01 -0.16057258600E-01  0.13071492223E+00  0.20116180234E-01 0.  0.
         14    1    1    2    0    0 -0.12985112410E-01  0.16730302236E-01  0.10193122350E-01  0.23503529532E-01  0.00000000000E+00 0. -1.
     999901    1    3    3    0    0 -0.84069559037E-01 -0.10042191103E+00  0.58641362505E-02  0.88971154824E+00  0.88000000000E+00 0.  1.
        -11    1    4    4    0    0  0.58136053966E-01  0.38130213516E-01 -0.12864782511E-01  0.70706984829E-01  0.51100000000E-03 0.  1.
         11    1    4    4    0    0  0.38918617481E-01  0.45561395283E-01 -0.31924760892E-02  0.60007937403E-01  0.51100000000E-03 0. -1.
</event>
<event>
 8    1  0.5489035E+004  0.1043930E+01  0.7957747E-01            NaN
         13   -1    0    0    0    0  0.00000000000E+00  0.00000000000E+00  0.74505805969E-08  0.10566000000E+00  0.10566000000E+00 0.  1.
     999900   -1    0    0    0    0 -0.00000000000E+00 -0.00000000000E+00 -0.74505805969E-08  0.93827000000E+00  0.93827000000E+00 0.  1.
     999902    2    1    2    0    0 -0.34478782284E-02  0.18230753008E-01  0.13263960370E-01  0.10211225261E+01  0.10208677840E+01 0.  0.
     999903    2    3    3    0    0 -0.24068139605E-02  0.26512363364E-01  0.12928228046E+00  0.13346835953E+00  0.19778695413E-01 0.  0.
         14    1    1    2    0    0  0.34478782284E-02 -0.18230753008E-01 -0.13263960370E-01  0.22807473868E-01  0.00000000000E+00 0.  1.
     999901    1    3    3    0    0 -0.10410642679E-02 -0.82816103564E-02 -0.11601832009E+00  0.88765416660E+00  0.88000000000E+00 0.  1.
        -11    1    4    4    0    0  0.57579926234E-02  0.17640666894E-02  0.40174212400E-01  0.40626283035E-01  0.51100000000E-03 0.  1.
         11    1    4    4    0    0 -0.81648065839E-02  0.24748296675E-01  0.89108068056E-01  0.92842076498E-01  0.51100000000E-03 0. -1.
</event>
<event>
 8    1  0.5489035E+004  0.1043930E+01  0.7957747E-01            NaN
         13   -1    0    0    0    0  0.00000000000E+00  0.00000000000E+00  0.74505805969E-08  0.10566000000E+00  0.10566000000E+00 0.  1.
     999900   -1    0    0    0    0 -0.00000000000E+00 -0.00000000000E+00 -0.74505805969E-08  0.93827000000E+00  0.93827000000E+00 0. -1.
     999902    2    1    2    0    0 -0.95173051541E-02 -0.34752412520E-02  0.24215115687E-01  0.10176806528E+01  0.10173420678E+01 0.  0.
     999903    2    3    3    0    0 -0.30476979122E-01  0.12218408803E+00 -0.10928430370E-01  0.12781288524E+00  0.18944799267E-01 0.  0.
         14    1    1    2    0    0  0.95173051541E-02  0.34752412520E-02 -0.24215115687E-01  0.26249347171E-01  0.00000000000E+00 0. -1.
     999901    1    3    3    0    0  0.20959673968E-01 -0.12565932928E+00  0.35143546057E-01  0.88986776759E+00  0.88000000000E+00 0.  1.
        -11    1    4    4    0    0 -0.91769396119E-02  0.62558304310E-01 -0.12598190981E-01  0.64472732188E-01  0.51100000000E-03 0. -1.
         11    1    4    4    0    0 -0.21300039510E-01  0.59625783717E-01  0.16697606105E-02  0.63340153051E-01  0.51100000000E-03 0.  1.
</event>
<event>
 8    1  0.5489035E+004  0.1043930E+01  0.7957747E-01            NaN
         13   -1    0    0    0    0  0.00000000000E+00  0.00000000000E+00  0.74505805969E-08  0.10566000000E+00  0.10566000000E+00 0.  1.
     999900   -1    0    0    0    0 -0.00000000000E+00 -0.00000000000E+00 -0.74505805969E-08  0.93827000000E+00  0.93827000000E+00 0.  1.
     999902    2    1    2    0    0  0.48745751336E-02 -0.19101884649E-02  0.23313000339E-01  0.10200363547E+01  0.10197564702E+01 0.  0.
     999903    2    3    3    0    0 -0.11824465271E+00 -0.49813789196E-01  0.76413897514E-02  0.13003708578E+00  0.19698765283E-01 0.  0.
         14    1    1    2    0    0 -0.48745751336E-02  0.19101884649E-02 -0.23313000339E-01  0.23893645337E-01  0.00000000000E+00 0. -1.
     999901    1    3    3    0    0  0.12311922784E+00  0.47903600731E-01  0.15671610588E-01  0.88999926888E+00  0.88000000000E+00 0. -1.
        -11    1    4    4    0    0 -0.89477772046E-01 -0.41365995528E-01  0.13456348886E-01  0.99492470684E-01  0.51100000000E-03 0.  1.
         11    1    4    4    0    0 -0.28766880661E-01 -0.84477936678E-02 -0.58149591348E-02  0.30544615100E-01  0.51100000000E-03 0. -1.
</event>
<event>
 8    1  0.5489035E+004  0.1043930E+01  0.7957747E-01            NaN
         13   -1    0    0    0    0  0.00000000000E+00  0.00000000000E+00  0.74505805969E-08  0.10566000000E+00  0.10566000000E+00 0. -1.
     999900   -1    0    0    0    0 -0.00000000000E+00 -0.00000000000E+00 -0.74505805969E-08  0.93827000000E+00  0.93827000000E+00 0. -1.
     999902    2    1    2    0    0  0.16999642409E-01 -0.10895879057E-01  0.23553353030E-01  0.10129063242E+01  0.10124311103E+01 0.  0.
     999903    2    3    3    0    0  0.10012901107E+00  0.72860886943E-01  0.32102928783E-02  0.12479623647E+00  0.15141563756E-01 0.  0.
         14    1    1    2    0    0 -0.16999642409E-01  0.10895879057E-01 -0.23553353030E-01  0.31023675821E-01  0.00000000000E+00 0.  1.
     999901    1    3    3    0    0 -0.83129368666E-01 -0.83756766000E-01  0.20343060152E-01  0.88811008770E+00  0.88000000000E+00 0.  1.
        -11    1    4    4    0    0  0.45826937705E-01  0.26729547054E-01 -0.38449516588E-02  0.53194188399E-01  0.51100000000E-03 0.  1.
         11    1    4    4    0    0  0.54302073370E-01  0.46131339889E-01  0.70552445371E-02  0.71602048076E-01  0.51100000000E-03 0. -1.
</event>
<event>
 8    1  0.5489035E+004  0.1043930E+01  0.7957747E-01            NaN
         13   -1    0    0    0    0  0.00000000000E+00  0.00000000000E+00  0.74505805969E-08  0.10566000000E+00  0.10566000000E+00 0.  1.
     999900   -1    0    0    0    0 -0.00000000000E+00 -0.00000000000E+00 -0.74505805969E-08  0.93827000000E+00  0.93827000000E+00 0.  1.
     999902    2    1    2    0    0 -0.10175993270E-02  0.20482280010E-01  0.11675481376E-01  0.10203317762E+01  0.10200588499E+01 0.  0.
     999903    2    3    3    0    0 -0.11617293231E+00  0.48589076721E-01  0.34409646426E-01  0.13209330312E+00  0.20188322981E-01 0.  0.
         14    1    1    2    0    0  0.10175993270E-02 -0.20482280010E-01 -0.11675481376E-01  0.23598223834E-01  0.00000000000E+00 0. -1.
     999901    1    3    3    0    0  0.11515533298E+00 -0.28106796711E-01 -0.22734165051E-01  0.88823847304E+00  0.88000000000E+00 0.  1.
        -11    1    4    4    0    0 -0.67418377065E-01  0.18052650778E-01  0.15112077774E-01  0.71412686421E-01  0.51100000000E-03 0.  1.
         11    1    4    4    0    0 -0.48754555243E-01  0.30536425943E-01  0.19297568652E-01  0.60680616701E-01  0.51100000000E-03 0. -1.
</event>
<event>
 7    1  0.5489035E+004  0.1043930E+01  0.7957747E-01            NaN
         13   -1    0    0    0    0  0.00000000000E+00  0.00000000000E+00  0.74505805969E-08  0.10566000000E+00  0.10566000000E+00 0. -1.
     999900   -1    0    0    0    0 -0.00000000000E+00 -0.00000000000E+00 -0.74505805969E-08  0.93827000000E+00  0.93827000000E+00 0. -1.
     999903    2    1    2    0    0 -0.63062754495E-01 -0.73122749488E-01  0.33614853396E-02  0.98531880937E-01  0.19323159166E-01 0.  0.
         14    1    1    2    0    0 -0.33073324006E-01 -0.41144671871E-01  0.13130747064E-02  0.52805804125E-01  0.00000000000E+00 0. -1.
     999901    1    1    2    0    0  0.96136078501E-01  0.11426742136E+00 -0.46745600460E-02  0.89259231494E+00  0.88000000000E+00 0.  1.
        -11    1    3    3    0    0 -0.42066145261E-01 -0.40091527590E-01  0.95809876975E-02  0.58897772521E-01  0.51100000000E-03 0. -1.
         11    1    3    3    0    0 -0.20996609234E-01 -0.33031221898E-01 -0.62195023579E-02  0.39634108416E-01  0.51100000000E-03 0.  1.
</event>
<event>
 8    1  0.5489035E+004  0.1043930E+01  0.7957747E-01            NaN
         13   -1    0    0    0    0  0.00000000000E+00  0.00000000000E+00  0.74505805969E-08  0.10566000000E+00  0.10566000000E+00 0.  1.
     999900   -1    0    0    0    0 -0.00000000000E+00 -0.00000000000E+00 -0.74505805969E-08  0.93827000000E+00  0.93827000000E+00 0. -1.
     999902    2    1    2    0    0  0.14737819020E-01 -0.64515590625E-02  0.17430034163E-01  0.10202101346E+01  0.10199343541E+01 0.  0.
     999903    2    3    3    0    0 -0.10643306529E+00  0.48187530998E-01 -0.47788525574E-01  0.12784178358E+00  0.20242107618E-01 0.  0.
         14    1    1    2    0    0 -0.14737819020E-01  0.64515590625E-02 -0.17430034163E-01  0.23719865403E-01  0.00000000000E+00 0. -1.
     999901    1    3    3    0    0  0.12117088431E+00 -0.54639090061E-01  0.65218559737E-01  0.89236835102E+00  0.88000000000E+00 0.  1.
        -11    1    4    4    0    0 -0.47105679142E-01  0.21389342032E-01 -0.32069055749E-01  0.60869815325E-01  0.51100000000E-03 0. -1.
         11    1    4    4    0    0 -0.59327386148E-01  0.26798188966E-01 -0.15719469825E-01  0.66971968252E-01  0.51100000000E-03 0.  1.
</event>
<event>
 8    1  0.5489035E+004  0.1043930E+01  0.7957747E-01            NaN
         13   -1    0    0    0    0  0.00000000000E+00  0.00000000000E+00  0.74505805969E-08  0.10566000000E+00  0.10566000000E+00 0.  1.
     999900   -1    0    0    0    0 -0.00000000000E+00 -0.00000000000E+00 -0.74505805969E-08  0.93827000000E+00  0.93827000000E+00 0.  1.
     999902    2    1    2    0    0  0.11982566838E-01 -0.67783593180E-02 -0.18459103323E-01  0.10209024826E+01  0.10206427447E+01 0.  0.
     999903    2    3    3    0    0 -0.87870581692E-01  0.22500278256E-01 -0.92912052331E-01  0.13164935129E+00  0.21711761296E-01 0.  0.
         14    1    1    2    0    0 -0.11982566838E-01  0.67783593180E-02  0.18459103323E-01  0.23027517420E-01  0.00000000000E+00 0.  1.
     999901    1    3    3    0    0  0.99853148530E-01 -0.29278637574E-01  0.74452949008E-01  0.88925313129E+00  0.88000000000E+00 0. -1.
        -11    1    4    4    0    0 -0.10514672454E-01 -0.17906213589E-02 -0.19687635134E-01  0.22397070340E-01  0.51100000000E-03 0. -1.
         11    1    4    4    0    0 -0.77355909238E-01  0.24290899615E-01 -0.73224417197E-01  0.10925228095E+00  0.51100000000E-03 0.  1.
</event>
<event>
 8    1  0.5489035E+004  0.1043930E+01  0.7957747E-01            NaN
         13   -1    0    0    0    0  0.00000000000E+00  0.00000000000E+00  0.74505805969E-08  0.10566000000E+00  0.10566000000E+00 0. -1.
     999900   -1    0    0    0    0 -0.00000000000E+00 -0.00000000000E+00 -0.74505805969E-08  0.93827000000E+00  0.93827000000E+00 0.  1.
     999902    2    1    2    0    0  0.22231559041E-01 -0.11325504834E-01 -0.61938383207E-02  0.10182225515E+01  0.10178979769E+01 0.  0.
     999903    2    3    3    0    0  0.63065884437E-02  0.94082001577E-01 -0.84610586632E-01  0.12832731408E+00  0.20438984589E-01 0.  0.
         14    1    1    2    0    0 -0.22231559041E-01  0.11325504834E-01  0.61938383207E-02  0.25707448537E-01  0.00000000000E+00 0. -1.
     999901    1    3    3    0    0  0.15924970598E-01 -0.10540750641E+00  0.78416748311E-01  0.88989523738E+00  0.88000000000E+00 0.  1.
        -11    1    4    4    0    0 -0.50384106219E-02  0.15254257120E-01 -0.85745177288E-02  0.18217063901E-01  0.51100000000E-03 0.  1.
         11    1    4    4    0    0  0.11344999066E-01  0.78827744457E-01 -0.76036068903E-01  0.11011025018E+00  0.51100000000E-03 0. -1.
</event>
<event>
 8    1  0.5489035E+004  0.1043930E+01  0.7957747E-01            NaN
         13   -1    0    0    0    0  0.00000000000E+00  0.00000000000E+00  0.74505805969E-08  0.10566000000E+00  0.10566000000E+00 0. -1.
     999900   -1    0    0    0    0 -0.00000000000E+00 -0.00000000000E+00 -0.74505805969E-08  0.93827000000E+00  0.93827000000E+00 0. -1.
     999902    2    1    2    0    0 -0.18617015924E-01 -0.79564178677E-02  0.11800308055E-01  0.10204961540E+01  0.10202270606E+01 0.  0.
     999903    2    3    3    0    0 -0.13147621652E+00  0.70953625480E-02  0.43436900452E-02  0.13312962524E+00  0.19190877810E-01 0.  0.
         14    1    1    2    0    0  0.18617015924E-01  0.79564178677E-02 -0.11800308055E-01  0.23433845980E-01  0.00000000000E+00 0. -1.
     999901    1    3    3    0    0  0.11285920060E+00 -0.15051780416E-01  0.74566180103E-02  0.88736652878E+00  0.88000000000E+00 0.  1.
        -11    1    4    4    0    0 -0.33172523075E-01 -0.65267007281E-02  0.14261354986E-02  0.33842415590E-01  0.51100000000E-03 0.  1.
         11    1    4    4    0    0 -0.98303693450E-01  0.13622063276E-01  0.29175545466E-02  0.99287209646E-01  0.51100000000E-03 0. -1.
</event>
<event>
 8    1  0.5489035E+004  0.1043930E+01  0.7957747E-01            NaN
         13   -1    0    0    0    0  0.00000000000E+00  0.00000000000E+00  0.74505805969E-08  0.10566000000E+00  0.10566000000E+00 0.  1.
     999900   -1    0    0    0    0 -0.00000000000E+00 -0.00000000000E+00 -0.74505805969E-08  0.93827000000E+00  0.93827000000E+00 0.  1.
     999902    2    1    2    0    0  0.10079984250E-01 -0.14423938270E-01  0.15770137664E-01  0.10203004990E+01  0.10200268403E+01 0.  0.
     999903    2    3    3    0    0 -0.58501038689E-01 -0.81722099423E-01  0.83829852608E-01  0.13245787551E+00  0.20414983114E-01 0.  0.
         14    1    1    2    0    0 -0.10079984250E-01  0.14423938270E-01 -0.15770137664E-01  0.23629501045E-01  0.00000000000E+00 0. -1.
     999901    1    3    3    0    0  0.68581022939E-01  0.67298161153E-01 -0.68059714943E-01  0.88784262344E+00  0.88000000000E+00 0. -1.
        -11    1    4    4    0    0 -0.53039042149E-01 -0.71063826559E-01  0.64271986338E-01  0.10951875084E+00  0.51100000000E-03 0.  1.
         11    1    4    4    0    0 -0.54619965395E-02 -0.10658272864E-01  0.19557866269E-01  0.22939124671E-01  0.51100000000E-03 0. -1.
</event>
<event>
 8    1  0.5489035E+004  0.1043930E+01  0.7957747E-01            NaN
         13   -1    0    0    0    0  0.00000000000E+00  0.00000000000E+00  0.74505805969E-08  0.10566000000E+00  0.10566000000E+00 0.  1.
     999900   -1    0    0    0    0 -0.00000000000E+00 -0.00000000000E+00 -0.74505805969E-08  0.93827000000E+00  0.93827000000E+00 0.  1.
     999902    2    1    2    0    0  0.87794306729E-02  0.23441638771E-01 -0.24709784430E-02  0.10187765794E+01  0.10184660153E+01 0.  0.
     999903    2    3    3    0    0 -0.57726852464E-01  0.55774725101E-01  0.99888984689E-01  0.12976247594E+00  0.20427467920E-01 0.  0.
         14    1    1    2    0    0 -0.87794306729E-02 -0.23441638771E-01  0.24709784430E-02  0.25153420556E-01  0.00000000000E+00 0. -1.
     999901    1    3    3    0    0  0.66506283137E-01 -0.32333086330E-01 -0.10235996313E+00  0.88901410350E+00  0.88000000000E+00 0. -1.
        -11    1    4    4    0    0 -0.26631833753E-01  0.13326727361E-01  0.42534413620E-01  0.51925848036E-01  0.51100000000E-03 0. -1.
         11    1    4    4    0    0 -0.31095018711E-01  0.42447997740E-01  0.57354571069E-01  0.77836627909E-01  0.51100000000E-03 0.  1.
</event>
<event>
 8    1  0.5489035E+004  0.1043930E+01  0.7957747E-01            NaN
         13   -1    0    0    0    0  0.00000000000E+00  0.00000000000E+00  0.74505805969E-08  0.10566000000E+00  0.10566000000E+00 0.  1.
     999900   -1    0    0    0    0 -0.00000000000E+00 -0.00000000000E+00 -0.74505805969E-08  0.93827000000E+00  0.93827000000E+00 0. -1.
     999902    2    1    2    0    0 -0.39052056265E-02 -0.16885464256E-01  0.16197961351E-01  0.10202077850E+01  0.10199319492E+01 0.  0.
     999903    2    3    3    0    0  0.59870310369E-01 -0.14676185698E-01 -0.11125339220E+00  0.12873930831E+00  0.19916017095E-01 0.  0.
         14    1    1    2    0    0  0.39052056265E-02  0.16885464256E-01 -0.16197961351E-01  0.23722215033E-01  0.00000000000E+00 0. -1.
     999901    1    3    3    0    0 -0.63775515996E-01 -0.22092785588E-02  0.12745135355E+00  0.89146847666E+00  0.88000000000E+00 0.  1.
        -11    1    4    4    0    0  0.39657994662E-01 -0.11767290057E-01 -0.91054502033E-01  0.10001204486E+00  0.51100000000E-03 0. -1.
         11    1    4    4    0    0  0.20212315707E-01 -0.29088956408E-02 -0.20198890169E-01  0.28727263447E-01  0.51100000000E-03 0.  1.
</event>
<event>
 8    1  0.5489035E+004  0.1043930E+01  0.7957747E-01            NaN
         13   -1    0    0    0    0  0.00000000000E+00  0.00000000000E+00  0.74505805969E-08  0.10566000000E+00  0.10566000000E+00 0.  1.
     999900   -1    0    0    0    0 -0.00000000000E+00 -0.00000000000E+00 -0.74505805969E-08  0.93827000000E+00  0.93827000000E+00 0. -1.
     999902    2    1    2    0    0  0.15227787863E-01  0.16958865158E-01 -0.63344988712E-02  0.10202738273E+01  0.10199995432E+01 0.  0.
     999903    2    3    3    0    0  0.21637323592E-01  0.52837207222E-01 -0.11799664809E+00  0.13246935945E+00  0.19104397225E-01 0.  0.
         14    1    1    2    0    0 -0.15227787863E-01 -0.16958865158E-01  0.63344988712E-02  0.23656172695E-01  0.00000000000E+00 0.  1.
     999901    1    3    3    0    0 -0.64095357288E-02 -0.35878342064E-01  0.11166214922E+00  0.88780446786E+00  0.88000000000E+00 0.  1.
        -11    1    4    4    0    0  0.14477427307E-01  0.46491185663E-01 -0.83450631553E-01  0.96619331778E-01  0.51100000000E-03 0. -1.
         11    1    4    4    0    0  0.71598962847E-02  0.63460215587E-02 -0.34546016536E-01  0.35850027670E-01  0.51100000000E-03 0.  1.
</event>
<event>
 8    1  0.5489035E+004  0.1043930E+01  0.7957747E-01            NaN
         13   -1    0    0    0    0  0.00000000000E+00  0.00000000000E+00  0.74505805969E-08  0.10566000000E+00  0.10566000000E+00 0. -1.
     999900   -1    0    0    0    0 -0.00000000000E+00 -0.00000000000E+00 -0.74505805969E-08  0.93827000000E+00  0.93827000000E+00 0.  1.
     999902    2    1    2    0    0 -0.21915763730E-01  0.70516162779E-02  0.45459238746E-02  0.10204631848E+01  0.10201933249E+01 0.  0.
     999903    2    3    3    0    0 -0.83966652345E-01 -0.41021067713E-01 -0.90894064113E-01  0.13182935299E+00  0.19598997829E-01 0.  0.
         14    1    1    2    0    0  0.21915763730E-01 -0.70516162779E-02 -0.45459238746E-02  0.23466815206E-01  0.00000000000E+00 0.  1.
     999901    1    3    3    0    0  0.62050888614E-01  0.48072683991E-01  0.95439987988E-01  0.88863383181E+00  0.88000000000E+00 0. -1.
        -11    1    4    4    0    0 -0.75604860169E-02 -0.93639485465E-02 -0.65942296811E-02  0.13732788037E-01  0.51100000000E-03 0.  1.
         11    1    4    4    0    0 -0.76406166328E-01 -0.31657119166E-01 -0.84299834432E-01  0.11809656495E+00  0.51100000000E-03 0. -1.
</event>
<event>
 8    1  0.5489035E+004  0.1043930E+01  0.7957747E-01            NaN
         13   -1    0    0    0    0  0.00000000000E+00  0.00000000000E+00  0.74505805969E-08  0.10566000000E+00  0.10566000000E+00 0.  1.
     999900   -1    0    0    0    0 -0.00000000000E+00 -0.00000000000E+00 -0.74505805969E-08  0.93827000000E+00  0.93827000000E+00 0. -1.
     999902    2    1    2    0    0  0.62499114582E-02  0.16007575512E-04  0.22878029770E-01  0.10202136365E+01  0.10199379385E+01 0.  0.
     999903    2    3    3    0    0 -0.21753742640E-01 -0.70525678282E-01  0.10875872385E+00  0.13278148268E+00  0.18851140940E-01 0.  0.
         14    1    1    2    0    0 -0.62499114582E-02 -0.16007575512E-04 -0.22878029770E-01  0.23716363457E-01  0.00000000000E+00 0. -1.
     999901    1    3    3    0    0  0.28003654098E-01  0.70541685857E-01 -0.85880694079E-01  0.88743215386E+00  0.88000000000E+00 0.  1.
        -11    1    4    4    0    0 -0.19852059096E-01 -0.38031605520E-01  0.52701571842E-01  0.67957516615E-01  0.51100000000E-03 0. -1.
         11    1    4    4    0    0 -0.19016835439E-02 -0.32494072762E-01  0.56057152006E-01  0.64823966070E-01  0.51100000000E-03 0.  1.
</event>
<event>
 8    1  0.5489035E+004  0.1043930E+01  0.7957747E-01            NaN
         13   -1    0    0    0    0  0.00000000000E+00  0.00000000000E+00  0.74505805969E-08  0.10566000000E+00  0.10566000000E+00 0. -1.
     999900   -1    0    0    0    0 -0.00000000000E+00 -0.00000000000E+00 -0.74505805969E-08  0.93827000000E+00  0.93827000000E+00 0.  1.
     999902    2    1    2    0    0 -0.17927140730E-01 -0.83409224542E-02  0.13629101623E-01  0.10199153009E+01  0.10196325393E+01 0.  0.
     999903    2    3    3    0    0  0.72150854268E-01 -0.94359475095E-01 -0.46502515336E-01  0.12911282675E+00  0.19954492898E-01 0.  0.
         14    1    1    2    0    0  0.17927140730E-01  0.83409224542E-02 -0.13629101623E-01  0.24014699107E-01  0.00000000000E+00 0.  1.
     999901    1    3    3    0    0 -0.90077994999E-01  0.86018552641E-01  0.60131616959E-01  0.89080247414E+00  0.88000000000E+00 0. -1.
        -11    1    4    4    0    0  0.37602172054E-01 -0.33022122849E-01 -0.19021422336E-01  0.53539327315E-01  0.51100000000E-03 0. -1.
         11    1    4    4    0    0  0.34548682214E-01 -0.61337352247E-01 -0.27481093000E-01  0.75573499435E-01  0.51100000000E-03 0.  1.
</event>
<event>
 8    1  0.5489035E+004  0.1043930E+01  0.7957747E-01            NaN
         13   -1    0    0    0    0  0.00000000000E+00  0.00000000000E+00  0.74505805969E-08  0.10566000000E+00  0.10566000000E+00 0.  1.
     999900   -1    0    0    0    0 -0.00000000000E+00 -0.00000000000E+00 -0.74505805969E-08  0.93827000000E+00  0.93827000000E+00 0. -1.
     999902    2    1    2    0    0  0.18331042545E-01  0.10119295202E-01 -0.41519032453E-02  0.10225836758E+01  0.10223608504E+01 0.  0.
     999903    2    3    3    0    0  0.37338025929E-01  0.11354685719E+00 -0.58766850796E-01  0.13464149385E+00  0.19691931211E-01 0.  0.
         14    1    1    2    0    0 -0.18331042545E-01 -0.10119295202E-01  0.41519032453E-02  0.21346324197E-01  0.00000000000E+00 0.  1.
     999901    1    3    3    0    0 -0.19006983384E-01 -0.10342756199E+00  0.54614947550E-01  0.88794218195E+00  0.88000000000E+00 0.  1.
        -11    1    4    4    0    0  0.12881574711E-01  0.17495147224E-01 -0.70762805500E-02  0.22854977813E-01  0.51100000000E-03 0. -1.
         11    1    4    4    0    0  0.24456451218E-01  0.96051709969E-01 -0.51690570246E-01  0.11178651604E+00  0.51100000000E-03 0.  1.
</event>
<event>
 8    1  0.5489035E+004  0.1043930E+01  0.7957747E-01            NaN
         13   -1    0    0    0    0  0.00000000000E+00  0.00000000000E+00  0.74505805969E-08  0.10566000000E+00  0.10566000000E+00 0.  1.
     999900   -1    0    0    0    0 -0.00000000000E+00 -0.00000000000E+00 -0.74505805969E-08  0.93827000000E+00  0.93827000000E+00 0. -1.
     999902    2    1    2    0    0 -0.21266455001E-02 -0.20848264654E-01 -0.11415408843E-01  0.10200661294E+01  0.10197869503E+01 0.  0.
     999903    2    3    3    0    0 -0.10306218015E-02  0.29502409469E-01  0.12326305900E+00  0.12839652617E+00  0.20504435431E-01 0.  0.
         14    1    1    2    0    0  0.21266455001E-02  0.20848264654E-01  0.11415408843E-01  0.23863870584E-01  0.00000000000E+00 0.  1.
     999901    1    3    3    0    0 -0.10960236987E-02 -0.50350674123E-01 -0.13467846784E+00  0.89166960325E+00  0.88000000000E+00 0. -1.
        -11    1    4    4    0    0 -0.35198459882E-02  0.25349361309E-01  0.63933149003E-01  0.68867177211E-01  0.51100000000E-03 0. -1.
         11    1    4    4    0    0  0.24892241868E-02  0.41530481602E-02  0.59329909998E-01  0.59529348959E-01  0.51100000000E-03 0.  1.
</event>
<event>
 8    1  0.5489035E+004  0.1043930E+01  0.7957747E-01            NaN
         13   -1    0    0    0    0  0.00000000000E+00  0.00000000000E+00  0.74505805969E-08  0.10566000000E+00  0.10566000000E+00 0. -1.
     999900   -1    0    0    0    0 -0.00000000000E+00 -0.00000000000E+00 -0.74505805969E-08  0.93827000000E+00  0.93827000000E+00 0.  1.
     999902    2    1    2    0    0  0.42272256693E-02  0.20665166100E-01  0.10340214343E-01  0.10204387557E+01  0.10201683271E+01 0.  0.
     999903    2    3    3    0    0  0.14976396131E-01  0.12840766482E+00  0.81986886557E-02  0.13379983435E+00  0.33501587298E-01 0.  0.
         14    1    1    2    0    0 -0.42272256693E-02 -0.20665166100E-01 -0.10340214343E-01  0.23491244315E-01  0.00000000000E+00 0.  1.
     999901    1    3    3    0    0 -0.10749170461E-01 -0.10774249872E+00  0.21415256870E-02  0.88663892134E+00  0.88000000000E+00 0. -1.
        -11    1    4    4    0    0  0.22120265929E-01  0.55197829896E-01  0.95430649855E-02  0.60228214321E-01  0.51100000000E-03 0.  1.
         11    1    4    4    0    0 -0.71438697986E-02  0.73209834921E-01 -0.13443763298E-02  0.73571620028E-01  0.51100000000E-03 0. -1.
</event>
<event>
 8    1  0.5489035E+004  0.1043930E+01  0.7957747E-01            NaN
         13   -1    0    0    0    0  0.00000000000E+00  0.00000000000E+00  0.74505805969E-08  0.10566000000E+00  0.10566000000E+00 0.  1.
     999900   -1    0    0    0    0 -0.00000000000E+00 -0.00000000000E+00 -0.74505805969E-08  0.93827000000E+00  0.93827000000E+00 0. -1.
     999902    2    1    2    0    0 -0.14044613975E-01 -0.10483400623E-01  0.15432371577E-01  0.10205781058E+01  0.10203109129E+01 0.  0.
     999903    2    3    3    0    0 -0.12078888970E+00  0.44424160779E-01 -0.18357278788E-01  0.13178627349E+00  0.21614121802E-01 0.  0.
         14    1    1    2    0    0  0.14044613975E-01  0.10483400623E-01 -0.15432371577E-01  0.23351894202E-01  0.00000000000E+00 0. -1.
     999901    1    3    3    0    0  0.10674427572E+00 -0.54907561402E-01  0.33789650366E-01  0.88879183230E+00  0.88000000000E+00 0.  1.
        -11    1    4    4    0    0 -0.89051679409E-01  0.38655345720E-01 -0.21303171904E-01  0.99390762209E-01  0.51100000000E-03 0.  1.
         11    1    4    4    0    0 -0.31737210290E-01  0.57688150592E-02  0.29458931158E-02  0.32395511285E-01  0.51100000000E-03 0. -1.
</event>
<event>
 8    1  0.5489035E+004  0.1043930E+01  0.7957747E-01            NaN
         13   -1    0    0    0    0  0.00000000000E+00  0.00000000000E+00  0.74505805969E-08  0.10566000000E+00  0.10566000000E+00 0.  1.
     999900   -1    0    0    0    0 -0.00000000000E+00 -0.00000000000E+00 -0.74505805969E-08  0.93827000000E+00  0.93827000000E+00 0.  1.
     999902    2    1    2    0    0 -0.22671844072E-01  0.80091713779E-02 -0.35031650241E-02  0.10196312036E+01  0.10193416306E+01 0.  0.
     999903    2    3    3    0    0  0.70601285850E-01  0.69158802387E-01  0.79818262937E-01  0.12868697726E+00  0.20540241186E-01 0.  0.
         14    1    1    2    0    0  0.22671844072E-01 -0.80091713779E-02  0.35031650241E-02  0.24298796369E-01  0.00000000000E+00 0. -1.
     999901    1    3    3    0    0 -0.93273129922E-01 -0.61149631009E-01 -0.83321427961E-01  0.89094422637E+00  0.88000000000E+00 0. -1.
        -11    1    4    4    0    0  0.29856837028E-01  0.34024493666E-01  0.48879356006E-01  0.66622439546E-01  0.51100000000E-03 0.  1.
         11    1    4    4    0    0  0.40744448822E-01  0.35134308721E-01  0.30938906931E-01  0.62064537718E-01  0.51100000000E-03 0. -1.
</event>
<event>
 8    1  0.5489035E+004  0.1043930E+01  0.7957747E-01            NaN
         13   -1    0    0    0    0  0.00000000000E+00  0.00000000000E+00  0.74505805969E-08  0.10566000000E+00  0.10566000000E+00 0.  1.
     999900   -1    0    0    0    0 -0.00000000000E+00 -0.00000000000E+00 -0.74505805969E-08  0.93827000000E+00  0.93827000000E+00 0.  1.
     999902    2    1    2    0    0 -0.18840709616E-01 -0.16922992431E-03  0.14506574742E-01  0.10201509822E+01  0.10198738083E+01 0.  0.
     999903    2    3    3    0    0 -0.12550744838E+00 -0.20333227373E-01  0.35106991687E-01  0.13324131535E+00  0.18846419171E-01 0.  0.
         14    1    1    2    0    0  0.18840709616E-01  0.16922992431E-03 -0.14506574742E-01  0.23779017817E-01  0.00000000000E+00 0. -1.
     999901    1    3    3    0    0  0.10666673876E+00  0.20163997448E-01 -0.20600416945E-01  0.88690966684E+00  0.88000000000E+00 0. -1.
        -11    1    4    4    0    0 -0.54357526368E-01 -0.49842845137E-02  0.23917705878E-01  0.59597831675E-01  0.51100000000E-03 0.  1.
         11    1    4    4    0    0 -0.71149922012E-01 -0.15348942859E-01  0.11189285809E-01  0.73643483670E-01  0.51100000000E-03 0. -1.
</event>
<event>
 8    1  0.5489035E+004  0.1043930E+01  0.7957747E-01            NaN
         13   -1    0    0    0    0  0.00000000000E+00  0.00000000000E+00  0.74505805969E-08  0.10566000000E+00  0.10566000000E+00 0.  1.
     999900   -1    0    0    0    0 -0.00000000000E+00 -0.00000000000E+00 -0.74505805969E-08  0.93827000000E+00  0.93827000000E+00 0. -1.
     999902    2    1    2    0    0 -0.72364986030E-02 -0.19621238019E-01 -0.11199772999E-01  0.10202067033E+01  0.10199308420E+01 0.  0.
     999903    2    3    3    0    0 -0.11692987346E+00 -0.75744984736E-02  0.54812671353E-01  0.13086121176E+00  0.19754985934E-01 0.  0.
         14    1    1    2    0    0  0.72364986030E-02  0.19621238019E-01  0.11199772999E-01  0.23723296750E-01  0.00000000000E+00 0.  1.
     999901    1    3    3    0    0  0.10969337485E+00 -0.12046739545E-01 -0.66012444353E-01  0.88934549149E+00  0.88000000000E+00 0.  1.
        -11    1    4    4    0    0 -0.97579769700E-02 -0.40553462512E-03 -0.96943020142E-03  0.98276899013E-02  0.51100000000E-03 0. -1.
         11    1    4    4    0    0 -0.10717189649E+00 -0.71689638485E-02  0.55782101555E-01  0.12103352186E+00  0.51100000000E-03 0.  1.
</event>
<event>
 8    1  0.5489035E+004  0.1043930E+01  0.7957747E-01            NaN
         13   -1    0    0    0    0  0.00000000000E+00  0.00000000000E+00  0.74505805969E-08  0.10566000000E+00  0.10566000000E+00 0.  1.
     999900   -1    0    0    0    0 -0.00000000000E+00 -0.00000000000E+00 -0.74505805969E-08  0.93827000000E+00  0.93827000000E+00 0.  1.
     999902    2    1    2    0    0  0.14122506165E-01 -0.11659368961E-01 -0.14729716401E-01  0.10204278595E+01  0.10201571770E+01 0.  0.
     999903    2    3    3    0    0  0.19318339156E-01 -0.78358864005E-01  0.10031147056E+00  0.13042207632E+00  0.20837875858E-01 0.  0.
         14    1    1    2    0    0 -0.14122506165E-01  0.11659368961E-01  0.14729716401E-01  0.23502140545E-01  0.00000000000E+00 0. -1.
     999901    1    3    3    0    0 -0.51958329909E-02  0.66699495044E-01 -0.11504118696E+00  0.89000578314E+00  0.88000000000E+00 0.  1.
        -11    1    4    4    0    0  0.21787766417E-02 -0.19808957499E-01  0.39693816101E-01  0.44418487396E-01  0.51100000000E-03 0.  1.
         11    1    4    4    0    0  0.17139562514E-01 -0.58549906505E-01  0.60617654455E-01  0.86003588923E-01  0.51100000000E-03 0. -1.
</event>
<event>
 8    1  0.5489035E+004  0.1043930E+01  0.7957747E-01            NaN
         13   -1    0    0    0    0  0.00000000000E+00  0.00000000000E+00  0.74505805969E-08  0.10566000000E+00  0.10566000000E+00 0.  1.
     999900   -1    0    0    0    0 -0.00000000000E+00 -0.00000000000E+00 -0.74505805969E-08  0.93827000000E+00  0.93827000000E+00 0.  1.
     999902    2    1    2    0    0  0.56730774900E-02 -0.38710514022E-02 -0.22353440802E-01  0.10205452793E+01  0.10202773260E+01 0.  0.
     999903    2    3    3    0    0  0.38877764087E-01 -0.83146026927E-01  0.88981192856E-01  0.12937611824E+00  0.19894344761E-01 0.  0.
         14    1    1    2    0    0 -0.56730774900E-02  0.38710514022E-02  0.22353440802E-01  0.23384720714E-01  0.00000000000E+00 0.  1.
     999901    1    3    3    0    0 -0.33204686597E-01  0.79274975524E-01 -0.11133463366E+00  0.89116916105E+00  0.88000000000E+00 0.  1.
        -11    1    4    4    0    0  0.33873232580E-01 -0.53753336438E-01  0.66949171726E-01  0.92299890463E-01  0.51100000000E-03 0.  1.
         11    1    4    4    0    0  0.50045315069E-02 -0.29392690489E-01  0.22032021129E-01  0.37076227772E-01  0.51100000000E-03 0. -1.
</event>
<event>
 8    1  0.5489035E+004  0.1043930E+01  0.7957747E-01            NaN
         13   -1    0    0    0    0  0.00000000000E+00  0.00000000000E+00  0.74505805969E-08  0.10566000000E+00  0.10566000000E+00 0.  1.
     999900   -1    0    0    0    0 -0.00000000000E+00 -0.00000000000E+00 -0.74505805969E-08  0.93827000000E+00  0.93827000000E+00 0. -1.
     999902    2    1    2    0    0 -0.51115514900E-02  0.14230452388E-01 -0.17566407655E-01  0.10207521569E+01  0.10204889776E+01 0.  0.
     999903    2    3    3    0    0 -0.90670410335E-01  0.60447750575E-01 -0.73579093370E-01  0.13362545909E+00  0.23808117834E-01 0.  0.
         14    1    1    2    0    0  0.51115514900E-02 -0.14230452388E-01  0.17566407655E-01  0.23177843120E-01  0.00000000000E+00 0.  1.
     999901    1    3    3    0    0  0.85558858845E-01 -0.46217298187E-01  0.56012685715E-01  0.88712669779E+00  0.88000000000E+00 0.  1.
        -11    1    4    4    0    0 -0.24243311828E-01  0.17903345892E-01 -0.33768418927E-01  0.45264060802E-01  0.51100000000E-03 0.  1.
         11    1    4    4    0    0 -0.66427098508E-01  0.42544404683E-01 -0.39810674443E-01  0.88361398283E-01  0.51100000000E-03 0. -1.
</event>
<event>
 8    1  0.5489035E+004  0.1043930E+01  0.7957747E-01            NaN
         13   -1    0    0    0    0  0.00000000000E+00  0.00000000000E+00  0.74505805969E-08  0.10566000000E+00  0.10566000000E+00 0.  1.
     999900   -1    0    0    0    0 -0.00000000000E+00 -0.00000000000E+00 -0.74505805969E-08  0.93827000000E+00  0.93827000000E+00 0. -1.
     999902    2    1    2    0    0  0.19304808325E-01 -0.13142425356E-01  0.55965246362E-02  0.10199150035E+01  0.10196322348E+01 0.  0.
     999903    2    3    3    0    0 -0.86759036986E-01 -0.70085164255E-01  0.63253029273E-01  0.12984967594E+00  0.20516624557E-01 0.  0.
         14    1    1    2    0    0 -0.19304808325E-01  0.13142425356E-01 -0.55965246362E-02  0.24014996496E-01  0.00000000000E+00 0.  1.
     999901    1    3    3    0    0  0.10606384531E+00  0.56942738899E-01 -0.57656504637E-01  0.89006532756E+00  0.88000000000E+00 0. -1.
        -11    1    4    4    0    0 -0.37591031543E-01 -0.25168993240E-01  0.36301552577E-01  0.58005411072E-01  0.51100000000E-03 0.  1.
         11    1    4    4    0    0 -0.49168005443E-01 -0.44916171015E-01  0.26951476697E-01  0.71844264873E-01  0.51100000000E-03 0. -1.
</event>
<event>
 8    1  0.5489035E+004  0.1043930E+01  0.7957747E-01            NaN
         13   -1    0    0    0    0  0.00000000000E+00  0.00000000000E+00  0.74505805969E-08  0.10566000000E+00  0.10566000000E+00 0. -1.
     999900   -1    0    0    0    0 -0.00000000000E+00 -0.00000000000E+00 -0.74505805969E-08  0.93827000000E+00  0.93827000000E+00 0.  1.
     999902    2    1    2    0    0 -0.22370844290E-01  0.16944028625E-02  0.84362645232E-02  0.10199613489E+01  0.10196796836E+01 0.  0.
     999903    2    3    3    0    0  0.56397591568E-02  0.10342134781E+00  0.77512796319E-01  0.13097061080E+00  0.20427560633E-01 0.  0.
         14    1    1    2    0    0  0.22370844290E-01 -0.16944028625E-02 -0.84362645232E-02  0.23968651076E-01  0.00000000000E+00 0.  1.
     999901    1    3    3    0    0 -0.28010603447E-01 -0.10172694494E+00 -0.69076531796E-01  0.88899073813E+00  0.88000000000E+00 0.  1.
        -11    1    4    4    0    0  0.11253450121E-01  0.37718529213E-01  0.33478285088E-01  0.51675761040E-01  0.51100000000E-03 0.  1.
         11    1    4    4    0    0 -0.56136909641E-02  0.65702818593E-01  0.44034511231E-01  0.79294849755E-01  0.51100000000E-03 0. -1.
</event>
<event>
 8    1  0.5489035E+004  0.1043930E+01  0.7957747E-01            NaN
         13   -1    0    0    0    0  0.00000000000E+00  0.00000000000E+00  0.74505805969E-08  0.10566000000E+00  0.10566000000E+00 0.  1.
     999900   -1    0    0    0    0 -0.00000000000E+00 -0.00000000000E+00 -0.74505805969E-08  0.93827000000E+00  0.93827000000E+00 0. -1.
     999902    2    1    2    0    0 -0.28935639490E-02  0.12629928187E-01  0.20073175021E-01  0.10200381572E+01  0.10197583155E+01 0.  0.
     999903    2    3    3    0    0 -0.69906787205E-01 -0.77811506677E-01  0.76411961489E-01  0.13108119303E+00  0.20047489603E-01 0.  0.
         14    1    1    2    0    0  0.28935639490E-02 -0.12629928187E-01 -0.20073175021E-01  0.23891842829E-01  0.00000000000E+00 0. -1.
     999901    1    3    3    0    0  0.67013223256E-01  0.90441434864E-01 -0.56338786468E-01  0.88895696414E+00  0.88000000000E+00 0. -1.
        -11    1    4    4    0    0 -0.59128748173E-01 -0.74240048520E-01  0.65445425054E-01  0.11528728658E+00  0.51100000000E-03 0.  1.
         11    1    4    4    0    0 -0.10778039032E-01 -0.35714581577E-02  0.10966536434E-01  0.15793906455E-01  0.51100000000E-03 0. -1.
</event>
<event>
 8    1  0.5489035E+004  0.1043930E+01  0.7957747E-01            NaN
         13   -1    0    0    0    0  0.00000000000E+00  0.00000000000E+00  0.74505805969E-08  0.10566000000E+00  0.10566000000E+00 0.  1.
     999900   -1    0    0    0    0 -0.00000000000E+00 -0.00000000000E+00 -0.74505805969E-08  0.93827000000E+00  0.93827000000E+00 0.  1.
     999902    2    1    2    0    0 -0.20655046226E-01  0.12400670840E-02  0.12148940183E-01  0.10199348870E+01  0.10196525919E+01 0.  0.
     999903    2    3    3    0    0 -0.72819381180E-02  0.98707729211E-01  0.84222433686E-01  0.13152429855E+00  0.20223262450E-01 0.  0.
         14    1    1    2    0    0  0.20655046226E-01 -0.12400670840E-02 -0.12148940183E-01  0.23995113014E-01  0.00000000000E+00 0. -1.
     999901    1    3    3    0    0 -0.13373108108E-01 -0.97467662127E-01 -0.72073493503E-01  0.88841058844E+00  0.88000000000E+00 0. -1.
        -11    1    4    4    0    0  0.13184070363E-02  0.78768089694E-01  0.71267377613E-01  0.10623300045E+00  0.51100000000E-03 0. -1.
         11    1    4    4    0    0 -0.86003451543E-02  0.19939639518E-01  0.12955056073E-01  0.25291298103E-01  0.51100000000E-03 0.  1.
</event>
<event>
 8    1  0.5489035E+004  0.1043930E+01  0.7957747E-01            NaN
         13   -1    0    0    0    0  0.00000000000E+00  0.00000000000E+00  0.74505805969E-08  0.10566000000E+00  0.10566000000E+00 0. -1.
     999900   -1    0    0    0    0 -0.00000000000E+00 -0.00000000000E+00 -0.74505805969E-08  0.93827000000E+00  0.93827000000E+00 0. -1.
     999902    2    1    2    0    0 -0.16816020124E-01  0.20202434301E-01 -0.56730454503E-02  0.10170394751E+01  0.10166839202E+01 0.  0.
     999903    2    3    3    0    0  0.88523553027E-01 -0.67677255899E-01 -0.53830127412E-01  0.12510989820E+00  0.18389497078E-01 0.  0.
         14    1    1    2    0    0  0.16816020124E-01 -0.20202434301E-01  0.56730454503E-02  0.26890524896E-01  0.00000000000E+00 0. -1.
     999901    1    3    3    0    0 -0.10533957315E+00  0.87879690200E-01  0.48157081962E-01  0.89192957691E+00  0.88000000000E+00 0.  1.
        -11    1    4    4    0    0  0.70604720199E-01 -0.44166779583E-01 -0.37515604261E-01  0.91342282745E-01  0.51100000000E-03 0.  1.
         11    1    4    4    0    0  0.17918832828E-01 -0.23510476317E-01 -0.16314523151E-01  0.33767615450E-01  0.51100000000E-03 0. -1.
</event>
<event>
 8    1  0.5489035E+004  0.1043930E+01  0.7957747E-01            NaN
         13   -1    0    0    0    0  0.00000000000E+00  0.00000000000E+00  0.74505805969E-08  0.10566000000E+00  0.10566000000E+00 0.  1.
     999900   -1    0    0    0    0 -0.00000000000E+00 -0.00000000000E+00 -0.74505805969E-08  0.93827000000E+00  0.93827000000E+00 0. -1.
     999902    2    1    2    0    0  0.19594985367E-01  0.10903932300E-01 -0.10736846024E-01  0.10190675976E+01  0.10187642659E+01 0.  0.
     999903    2    3    3    0    0 -0.39142764926E-01  0.74770254859E-02  0.12053593272E+00  0.12738693197E+00  0.10509871758E-01 0.  0.
         14    1    1    2    0    0 -0.19594985367E-01 -0.10903932300E-01  0.10736846024E-01  0.24862402412E-01  0.00000000000E+00 0. -1.
     999901    1    3    3    0    0  0.58737750294E-01  0.34269068143E-02 -0.13127277874E+00  0.89168066562E+00  0.88000000000E+00 0. -1.
        -11    1    4    4    0    0 -0.18761868964E-01  0.20754329155E-02  0.72615691215E-01  0.75030759562E-01  0.51100000000E-03 0. -1.
         11    1    4    4    0    0 -0.20380895963E-01  0.54015925704E-02  0.47920241502E-01  0.52356172407E-01  0.51100000000E-03 0.  1.
</event>
<event>
 8    1  0.5489035E+004  0.1043930E+01  0.7957747E-01            NaN
         13   -1    0    0    0    0  0.00000000000E+00  0.00000000000E+00  0.74505805969E-08  0.10566000000E+00  0.10566000000E+00 0.  1.
     999900   -1    0    0    0    0 -0.00000000000E+00 -0.00000000000E+00 -0.74505805969E-08  0.93827000000E+00  0.93827000000E+00 0.  1.
     999902    2    1    2    0    0  0.14220730474E-01  0.19191806854E-02  0.19401994681E-01  0.10197980745E+01  0.10195125124E+01 0.  0.
     999903    2    3    3    0    0 -0.23493935817E-01  0.59311610776E-01  0.11388268636E+00  0.13208027691E+00  0.20151950360E-01 0.  0.
         14    1    1    2    0    0 -0.14220730474E-01 -0.19191806854E-02 -0.19401994681E-01  0.24131925479E-01  0.00000000000E+00 0. -1.
     999901    1    3    3    0    0  0.37714666292E-01 -0.57392430090E-01 -0.94480691683E-01  0.88771779761E+00  0.88000000000E+00 0.  1.
        -11    1    4    4    0    0 -0.11379218728E-01  0.37358053126E-01  0.86725676329E-01  0.95114219799E-01  0.51100000000E-03 0.  1.
         11    1    4    4    0    0 -0.12114717089E-01  0.21953557649E-01  0.27157010035E-01  0.36966057116E-01  0.51100000000E-03 0. -1.
</event>
<event>
 8    1  0.5489035E+004  0.1043930E+01  0.7957747E-01            NaN
         13   -1    0    0    0    0  0.00000000000E+00  0.00000000000E+00  0.74505805969E-08  0.10566000000E+00  0.10566000000E+00 0. -1.
     999900   -1    0    0    0    0 -0.00000000000E+00 -0.00000000000E+00 -0.74505805969E-08  0.93827000000E+00  0.93827000000E+00 0. -1.
     999902    2    1    2    0    0 -0.13883376646E-01 -0.44456384500E-02 -0.18781723691E-01  0.10201546978E+01  0.10198776115E+01 0.  0.
     999903    2    3    3    0    0  0.81627393477E-01  0.32641178487E-01 -0.94878805311E-01  0.13094802611E+00  0.20418617650E-01 0.  0.
         14    1    1    2    0    0  0.13883376646E-01  0.44456384500E-02  0.18781723691E-01  0.23775302167E-01  0.00000000000E+00 0. -1.
     999901    1    3    3    0    0 -0.95510770123E-01 -0.37086816937E-01  0.76097081621E-01  0.88920667172E+00  0.88000000000E+00 0.  1.
        -11    1    4    4    0    0  0.40906847232E-01  0.25227704267E-01 -0.59565575622E-01  0.76538396464E-01  0.51100000000E-03 0.  1.
         11    1    4    4    0    0  0.40720546245E-01  0.74134742200E-02 -0.35313229689E-01  0.54409629649E-01  0.51100000000E-03 0. -1.
</event>
<event>
 8    1  0.5489035E+004  0.1043930E+01  0.7957747E-01            NaN
         13   -1    0    0    0    0  0.00000000000E+00  0.00000000000E+00  0.74505805969E-08  0.10566000000E+00  0.10566000000E+00 0.  1.
     999900   -1    0    0    0    0 -0.00000000000E+00 -0.00000000000E+00 -0.74505805969E-08  0.93827000000E+00  0.93827000000E+00 0. -1.
     999902    2    1    2    0    0 -0.18841389574E-01 -0.16300969502E-01 -0.85636158563E-03  0.10190010425E+01  0.10186960644E+01 0.  0.
     999903    2    3    3    0    0 -0.68521415082E-01  0.15748957938E-02 -0.10949126237E+00  0.13075040603E+00  0.20240245060E-01 0.  0.
         14    1    1    2    0    0  0.18841389574E-01  0.16300969502E-01  0.85636158563E-03  0.24928957518E-01  0.00000000000E+00 0. -1.
     999901    1    3    3    0    0  0.49680025509E-01 -0.17875865296E-01  0.10863490078E+00  0.88825063645E+00  0.88000000000E+00 0.  1.
        -11    1    4    4    0    0 -0.25579345203E-01  0.58801814833E-02 -0.57283145749E-01  0.63011898425E-01  0.51100000000E-03 0.  1.
         11    1    4    4    0    0 -0.42942069879E-01 -0.43052856895E-02 -0.52208116618E-01  0.67738507602E-01  0.51100000000E-03 0. -1.
</event>
<event>
 8    1  0.5489035E+004  0.1043930E+01  0.7957747E-01            NaN
         13   -1    0    0    0    0  0.00000000000E+00  0.00000000000E+00  0.74505805969E-08  0.10566000000E+00  0.10566000000E+00 0.  1.
     999900   -1    0    0    0    0 -0.00000000000E+00 -0.00000000000E+00 -0.74505805969E-08  0.93827000000E+00  0.93827000000E+00 0. -1.
     999902    2    1    2    0    0 -0.15936871153E-01 -0.17607355759E-01 -0.23581565719E-02  0.10200644654E+01  0.10197852469E+01 0.  0.
     999903    2    3    3    0    0  0.12119645557E+00 -0.38028792598E-01  0.10450608594E-01  0.12911741376E+00  0.20671753814E-01 0.  0.
         14    1    1    2    0    0  0.15936871153E-01  0.17607355759E-01  0.23581565719E-02  0.23865534593E-01  0.00000000000E+00 0.  1.
     999901    1    3    3    0    0 -0.13713332672E+00  0.20421436839E-01 -0.12808765166E-01  0.89094705165E+00  0.88000000000E+00 0. -1.
        -11    1    4    4    0    0  0.26320867975E-02  0.14715532084E-02  0.23972017799E-02  0.38860065785E-02  0.51100000000E-03 0. -1.
         11    1    4    4    0    0  0.11856436877E+00 -0.39500345806E-01  0.80534068137E-02  0.12523140718E+00  0.51100000000E-03 0.  1.
</event>
<event>
 8    1  0.5489035E+004  0.1043930E+01  0.7957747E-01            NaN
         13   -1    0    0    0    0  0.00000000000E+00  0.00000000000E+00  0.74505805969E-08  0.10566000000E+00  0.10566000000E+00 0.  1.
     999900   -1    0    0    0    0 -0.00000000000E+00 -0.00000000000E+00 -0.74505805969E-08  0.93827000000E+00  0.93827000000E+00 0. -1.
     999902    2    1    2    0    0  0.22582881631E-01  0.82553231138E-03 -0.84429282480E-02  0.10198063377E+01  0.10195209734E+01 0.  0.
     999903    2    3    3    0    0 -0.25542805277E-01  0.18402060673E-01 -0.12522805643E+00  0.13061356766E+00  0.19666397738E-01 0.  0.
         14    1    1    2    0    0 -0.22582881631E-01 -0.82553231138E-03  0.84429282480E-02  0.24123662321E-01  0.00000000000E+00 0. -1.
     999901    1    3    3    0    0  0.48125686908E-01 -0.17576528362E-01  0.11678512819E+00  0.88919277002E+00  0.88000000000E+00 0.  1.
        -11    1    4    4    0    0 -0.16289216407E-01 -0.12514292248E-03 -0.50293549938E-01  0.52868294074E-01  0.51100000000E-03 0.  1.
         11    1    4    4    0    0 -0.92535888694E-02  0.18527203596E-01 -0.74934506496E-01  0.77745273585E-01  0.51100000000E-03 0. -1.
</event>
<event>
 7    1  0.5489035E+004  0.1043930E+01  0.7957747E-01            NaN
         13   -1    0    0    0    0  0.00000000000E+00  0.00000000000E+00  0.74505805969E-08  0.10566000000E+00  0.10566000000E+00 0. -1.
     999900   -1    0    0    0    0 -0.00000000000E+00 -0.00000000000E+00 -0.74505805969E-08  0.93827000000E+00  0.93827000000E+00 0.  1.
     999903    2    1    2    0    0  0.13479884294E-01 -0.11038205368E+00 -0.26405658641E-01  0.11592157310E+00  0.19355806589E-01 0.  0.
         14    1    1    2    0    0  0.11150362555E-01 -0.13475379880E-01  0.34806503866E-01  0.38953936379E-01  0.00000000000E+00 0. -1.
     999901    1    1    2    0    0 -0.24630246849E-01  0.12385743355E+00 -0.84008452251E-02  0.88905449052E+00  0.88000000000E+00 0. -1.
        -11    1    3    3    0    0  0.13307222857E-01 -0.49992952248E-01 -0.55625838658E-02  0.52034420482E-01  0.51100000000E-03 0. -1.
         11    1    3    3    0    0  0.17266143702E-03 -0.60389101427E-01 -0.20843074776E-01  0.63887152623E-01  0.51100000000E-03 0.  1.
</event>
<event>
 8    1  0.5489035E+004  0.1043930E+01  0.7957747E-01            NaN
         13   -1    0    0    0    0  0.00000000000E+00  0.00000000000E+00  0.74505805969E-08  0.10566000000E+00  0.10566000000E+00 0.  1.
     999900   -1    0    0    0    0 -0.00000000000E+00 -0.00000000000E+00 -0.74505805969E-08  0.93827000000E+00  0.93827000000E+00 0. -1.
     999902    2    1    2    0    0  0.23698865475E-01  0.39131435321E-02 -0.97545225121E-03  0.10198904404E+01  0.10196070861E+01 0.  0.
     999903    2    3    3    0    0 -0.54050227256E-01 -0.11310674247E+00  0.19837811835E-01  0.12850288886E+00  0.20121913650E-01 0.  0.
         14    1    1    2    0    0 -0.23698865475E-01 -0.39131435321E-02  0.97545225121E-03  0.24039559568E-01  0.00000000000E+00 0.  1.
     999901    1    3    3    0    0  0.77749092732E-01  0.11701988600E+00 -0.20813264086E-01  0.89138755157E+00  0.88000000000E+00 0.  1.
        -11    1    4    4    0    0 -0.19255089611E-02 -0.18253593389E-01 -0.53254419793E-03  0.18369702793E-01  0.51100000000E-03 0.  1.
         11    1    4    4    0    0 -0.52124718295E-01 -0.94853149076E-01  0.20370356033E-01  0.11013318607E+00  0.51100000000E-03 0. -1.
</event>
<event>
 8    1  0.5489035E+004  0.1043930E+01  0.7957747E-01            NaN
         13   -1    0    0    0    0  0.00000000000E+00  0.00000000000E+00  0.74505805969E-08  0.10566000000E+00  0.10566000000E+00 0. -1.
     999900   -1    0    0    0    0 -0.00000000000E+00 -0.00000000000E+00 -0.74505805969E-08  0.93827000000E+00  0.93827000000E+00 0. -1.
     999902    2    1    2    0    0  0.50129570802E-02  0.34928443245E-02  0.22028125155E-01  0.10210702538E+01  0.10208143294E+01 0.  0.
     999903    2    3    3    0    0 -0.27848604386E-01  0.94673120346E-01  0.87137363767E-01  0.13335806059E+00  0.21281627698E-01 0.  0.
         14    1    1    2    0    0 -0.50129570802E-02 -0.34928443245E-02 -0.22028125155E-01  0.22859746237E-01  0.00000000000E+00 0.  1.
     999901    1    3    3    0    0  0.32861561466E-01 -0.91180276022E-01 -0.65109238612E-01  0.88771219317E+00  0.88000000000E+00 0. -1.
        -11    1    4    4    0    0 -0.25351494160E-01  0.56831730707E-01  0.45876015762E-01  0.77313736260E-01  0.51100000000E-03 0.  1.
         11    1    4    4    0    0 -0.24971102267E-02  0.37841389639E-01  0.41261348005E-01  0.56044324329E-01  0.51100000000E-03 0. -1.
</event>
<event>
 8    1  0.5489035E+004  0.1043930E+01  0.7957747E-01            NaN
         13   -1    0    0    0    0  0.00000000000E+00  0.00000000000E+00  0.74505805969E-08  0.10566000000E+00  0.10566000000E+00 0.  1.
     999900   -1    0    0    0    0 -0.00000000000E+00 -0.00000000000E+00 -0.74505805969E-08  0.93827000000E+00  0.93827000000E+00 0.  1.
     999902    2    1    2    0    0  0.22397078563E-02 -0.37216886345E-02  0.22177777948E-01  0.10213308608E+01  0.10210808029E+01 0.  0.
     999903    2    3    3    0    0 -0.10407204838E+00 -0.34528338535E-01  0.72360510187E-01  0.13297870889E+00  0.20593595327E-01 0.  0.
         14    1    1    2    0    0 -0.22397078563E-02  0.37216886345E-02 -0.22177777948E-01  0.22599139193E-01  0.00000000000E+00 0. -1.
     999901    1    3    3    0    0  0.10631175624E+00  0.30806649901E-01 -0.50182732240E-01  0.88835215191E+00  0.88000000000E+00 0.  1.
        -11    1    4    4    0    0 -0.45131367341E-01 -0.12930717897E-01  0.19221783757E-01  0.50732453865E-01  0.51100000000E-03 0.  1.
         11    1    4    4    0    0 -0.58940681040E-01 -0.21597620638E-01  0.53138726430E-01  0.82246255030E-01  0.51100000000E-03 0. -1.
</event>
<event>
 8    1  0.5489035E+004  0.1043930E+01  0.7957747E-01            NaN
         13   -1    0    0    0    0  0.00000000000E+00  0.00000000000E+00  0.74505805969E-08  0.10566000000E+00  0.10566000000E+00 0. -1.
     999900   -1    0    0    0    0 -0.00000000000E+00 -0.00000000000E+00 -0.74505805969E-08  0.93827000000E+00  0.93827000000E+00 0. -1.
     999902    2    1    2    0    0 -0.21756894069E-01 -0.36290491474E-02 -0.27278945973E-02  0.10217044776E+01  0.10214627089E+01 0.  0.
     999903    2    3    3    0    0  0.22046826265E-01 -0.72133798777E-01 -0.10633683236E+00  0.13190310728E+00  0.20038970023E-01 0.  0.
         14    1    1    2    0    0  0.21756894069E-01  0.36290491474E-02  0.27278945973E-02  0.22225522405E-01  0.00000000000E+00 0. -1.
     999901    1    3    3    0    0 -0.43803720334E-01  0.68504749629E-01  0.10360893776E+00  0.88980137032E+00  0.88000000000E+00 0.  1.
        -11    1    4    4    0    0  0.34094438823E-02 -0.37351549293E-01 -0.40976452709E-01  0.55552617758E-01  0.51100000000E-03 0.  1.
         11    1    4    4    0    0  0.18637382383E-01 -0.34782249484E-01 -0.65360379646E-01  0.76350489519E-01  0.51100000000E-03 0. -1.
</event>
<event>
 8    1  0.5489035E+004  0.1043930E+01  0.7957747E-01            NaN
         13   -1    0    0    0    0  0.00000000000E+00  0.00000000000E+00  0.74505805969E-08  0.10566000000E+00  0.10566000000E+00 0. -1.
     999900   -1    0    0    0    0 -0.00000000000E+00 -0.00000000000E+00 -0.74505805969E-08  0.93827000000E+00  0.93827000000E+00 0. -1.
     999902    2    1    2    0    0  0.89968578122E-02 -0.85688220917E-02 -0.19465272363E-01  0.10208374689E+01  0.10205762456E+01 0.  0.
     999903    2    3    3    0    0  0.12296252474E+00  0.49563021941E-02 -0.46054565304E-01  0.13298720413E+00  0.20499415965E-01 0.  0.
         14    1    1    2    0    0 -0.89968578122E-02  0.85688220917E-02  0.19465272363E-01  0.23092531059E-01  0.00000000000E+00 0. -1.
     999901    1    3    3    0    0 -0.11396566693E+00 -0.13525124286E-01  0.26589292941E-01  0.88785026481E+00  0.88000000000E+00 0.  1.
        -11    1    4    4    0    0  0.42514152773E-01  0.94860472379E-02 -0.22541940608E-01  0.49049347453E-01  0.51100000000E-03 0.  1.
         11    1    4    4    0    0  0.80448371968E-01 -0.45297450438E-02 -0.23512624697E-01  0.83937856677E-01  0.51100000000E-03 0. -1.
</event>
<event>
 8    1  0.5489035E+004  0.1043930E+01  0.7957747E-01            NaN
         13   -1    0    0    0    0  0.00000000000E+00  0.00000000000E+00  0.74505805969E-08  0.10566000000E+00  0.10566000000E+00 0.  1.
     999900   -1    0    0    0    0 -0.00000000000E+00 -0.00000000000E+00 -0.74505805969E-08  0.93827000000E+00  0.93827000000E+00 0.  1.
     999902    2    1    2    0    0 -0.11375310518E-01 -0.23017822688E-01  0.77414308901E-03  0.10182430938E+01  0.10179190444E+01 0.  0.
     999903    2    3    3    0    0  0.10803373425E+00  0.55845112551E-01 -0.31468975056E-01  0.12610100807E+00  0.11009246779E-01 0.  0.
         14    1    1    2    0    0  0.11375310518E-01  0.23017822688E-01 -0.77414308901E-03  0.25686906163E-01  0.00000000000E+00 0. -1.
     999901    1    3    3    0    0 -0.11940904476E+00 -0.78862935240E-01  0.32243118145E-01  0.89214208577E+00  0.88000000000E+00 0.  1.
        -11    1    4    4    0    0  0.82505148831E-01  0.39992406013E-01 -0.27876837631E-01  0.95832517027E-01  0.51100000000E-03 0. -1.
         11    1    4    4    0    0  0.25528585415E-01  0.15852706538E-01 -0.35921374249E-02  0.30268491045E-01  0.51100000000E-03 0.  1.
</event>
<event>
 8    1  0.5489035E+004  0.1043930E+01  0.7957747E-01            NaN
         13   -1    0    0    0    0  0.00000000000E+00  0.00000000000E+00  0.74505805969E-08  0.10566000000E+00  0.10566000000E+00 0.  1.
     999900   -1    0    0    0    0 -0.00000000000E+00 -0.00000000000E+00 -0.74505805969E-08  0.93827000000E+00  0.93827000000E+00 0. -1.
     999902    2    1    2    0    0  0.85595735638E-02 -0.77273729962E-02  0.20238961706E-01  0.10206363493E+01  0.10203705030E+01 0.  0.
     999903    2    3    3    0    0 -0.10585621125E+00 -0.73156264171E-01  0.11611097678E-01  0.13077885976E+00  0.20271066155E-01 0.  0.
         14    1    1    2    0    0 -0.85595735638E-02  0.77273729962E-02 -0.20238961706E-01  0.23293650722E-01  0.00000000000E+00 0.  1.
     999901    1    3    3    0    0  0.11441578481E+00  0.65428891175E-01  0.86278640278E-02  0.88985748952E+00  0.88000000000E+00 0. -1.
        -11    1    4    4    0    0 -0.40122924753E-01 -0.37782831279E-01  0.10591387424E-01  0.56123346646E-01  0.51100000000E-03 0. -1.
         11    1    4    4    0    0 -0.65733286497E-01 -0.35373432893E-01  0.10197102544E-02  0.74655513114E-01  0.51100000000E-03 0.  1.
</event>
<event>
 8    1  0.5489035E+004  0.1043930E+01  0.7957747E-01            NaN
         13   -1    0    0    0    0  0.00000000000E+00  0.00000000000E+00  0.74505805969E-08  0.10566000000E+00  0.10566000000E+00 0.  1.
     999900   -1    0    0    0    0 -0.00000000000E+00 -0.00000000000E+00 -0.74505805969E-08  0.93827000000E+00  0.93827000000E+00 0. -1.
     999902    2    1    2    0    0 -0.18754166878E-01 -0.75848095958E-02  0.12372720047E-01  0.10202164530E+01  0.10199408211E+01 0.  0.
     999903    2    3    3    0    0  0.51405394590E-01 -0.11690264480E+00 -0.15254230825E-01  0.13025240786E+00  0.20597457162E-01 0.  0.
         14    1    1    2    0    0  0.18754166878E-01  0.75848095958E-02 -0.12372720047E-01  0.23713547041E-01  0.00000000000E+00 0.  1.
     999901    1    3    3    0    0 -0.70159561469E-01  0.10931783520E+00  0.27626950873E-01  0.88996404510E+00  0.88000000000E+00 0.  1.
        -11    1    4    4    0    0  0.32682278993E-01 -0.83411909392E-01 -0.19376741432E-01  0.91659136032E-01  0.51100000000E-03 0.  1.
         11    1    4    4    0    0  0.18723115598E-01 -0.33490735403E-01  0.41225106061E-02  0.38593271826E-01  0.51100000000E-03 0. -1.
</event>
<event>
 8    1  0.5489035E+004  0.1043930E+01  0.7957747E-01            NaN
         13   -1    0    0    0    0  0.00000000000E+00  0.00000000000E+00  0.74505805969E-08  0.10566000000E+00  0.10566000000E+00 0.  1.
     999900   -1    0    0    0    0 -0.00000000000E+00 -0.00000000000E+00 -0.74505805969E-08  0.93827000000E+00  0.93827000000E+00 0. -1.
     999902    2    1    2    0    0 -0.10892325493E-01 -0.54031038762E-03 -0.20919806603E-01  0.10203382006E+01  0.10200654247E+01 0.  0.
     999903    2    3    3    0    0  0.12648190083E+00 -0.16290672366E-01 -0.10218070043E-01  0.12947666304E+00  0.19918335122E-01 0.  0.
         14    1    1    2    0    0  0.10892325493E-01  0.54031038762E-03  0.20919806603E-01  0.23591799386E-01  0.00000000000E+00 0.  1.
     999901    1    3    3    0    0 -0.13737422632E+00  0.15750361978E-01 -0.10701736561E-01  0.89086153757E+00  0.88000000000E+00 0. -1.
        -11    1    4    4    0    0  0.54295034129E-01 -0.11324169046E-01  0.44559185675E-02  0.55644441473E-01  0.51100000000E-03 0. -1.
         11    1    4    4    0    0  0.72186866699E-01 -0.49665033203E-02 -0.14673988610E-01  0.73832221569E-01  0.51100000000E-03 0.  1.
</event>
<event>
 8    1  0.5489035E+004  0.1043930E+01  0.7957747E-01            NaN
         13   -1    0    0    0    0  0.00000000000E+00  0.00000000000E+00  0.74505805969E-08  0.10566000000E+00  0.10566000000E+00 0. -1.
     999900   -1    0    0    0    0 -0.00000000000E+00 -0.00000000000E+00 -0.74505805969E-08  0.93827000000E+00  0.93827000000E+00 0. -1.
     999902    2    1    2    0    0  0.10479937056E-02 -0.23079974358E-01 -0.66148368420E-02  0.10198979470E+01  0.10196147717E+01 0.  0.
     999903    2    3    3    0    0  0.37204488157E-01 -0.97495210149E-01 -0.80068071947E-01  0.13297049944E+00  0.19513268167E-01 0.  0.
         14    1    1    2    0    0 -0.10479937056E-02  0.23079974358E-01  0.66148368420E-02  0.24032053046E-01  0.00000000000E+00 0. -1.
     999901    1    3    3    0    0 -0.36156494452E-01  0.74415235792E-01  0.73453235105E-01  0.88692744752E+00  0.88000000000E+00 0. -1.
        -11    1    4    4    0    0  0.18936541609E-01 -0.59922747116E-01 -0.36823399781E-01  0.72839221045E-01  0.51100000000E-03 0. -1.
         11    1    4    4    0    0  0.18267946548E-01 -0.37572463033E-01 -0.43244672166E-01  0.60131278393E-01  0.51100000000E-03 0.  1.
</event>
<event>
 8    1  0.5489035E+004  0.1043930E+01  0.7957747E-01            NaN
         13   -1    0    0    0    0  0.00000000000E+00  0.00000000000E+00  0.74505805969E-08  0.10566000000E+00  0.10566000000E+00 0. -1.
     999900   -1    0    0    0    0 -0.00000000000E+00 -0.00000000000E+00 -0.74505805969E-08  0.93827000000E+00  0.93827000000E+00 0. -1.
     999902    2    1    2    0    0 -0.56066295974E-02 -0.62699934876E-02 -0.21734919520E-01  0.10206243389E+01  0.10203582152E+01 0.  0.
     999903    2    3    3    0    0 -0.35683655788E-01  0.53085272078E-01 -0.11504330185E+00  0.13319314196E+00  0.20349013756E-01 0.  0.
         14    1    1    2    0    0  0.56066295974E-02  0.62699934876E-02  0.21734919520E-01  0.23305661122E-01  0.00000000000E+00 0. -1.
     999901    1    3    3    0    0  0.30077026190E-01 -0.59355265566E-01  0.93308382334E-01  0.88743119692E+00  0.88000000000E+00 0.  1.
        -11    1    4    4    0    0 -0.25542308970E-02  0.97845242433E-02 -0.74408718277E-02  0.12565377221E-01  0.51100000000E-03 0.  1.
         11    1    4    4    0    0 -0.33129424891E-01  0.43300747835E-01 -0.10760243003E+00  0.12062776474E+00  0.51100000000E-03 0. -1.
</event>
<event>
 8    1  0.5489035E+004  0.1043930E+01  0.7957747E-01            NaN
         13   -1    0    0    0    0  0.00000000000E+00  0.00000000000E+00  0.74505805969E-08  0.10566000000E+00  0.10566000000E+00 0.  1.
     999900   -1    0    0    0    0 -0.00000000000E+00 -0.00000000000E+00 -0.74505805969E-08  0.93827000000E+00  0.93827000000E+00 0.  1.
     999902    2    1    2    0    0  0.51687465204E-02  0.27377400819E-01  0.32084598524E-02  0.10158848180E+01  0.10154976274E+01 0.  0.
     999903    2    3    3    0    0  0.12411713473E+00  0.59985087847E-02 -0.18826602125E-01  0.12735157723E+00  0.20565457285E-01 0.  0.
         14    1    1    2    0    0 -0.51687465204E-02 -0.27377400819E-01 -0.32084598524E-02  0.28045181954E-01  0.00000000000E+00 0. -1.
     999901    1    3    3    0    0 -0.11894838821E+00  0.21378892035E-01  0.22035061977E-01  0.88853324082E+00  0.88000000000E+00 0. -1.
        -11    1    4    4    0    0  0.63304136491E-01  0.10296326146E-01 -0.17020468798E-01  0.66358010128E-01  0.51100000000E-03 0.  1.
         11    1    4    4    0    0  0.60812998240E-01 -0.42978173612E-02 -0.18061333262E-02  0.60993567100E-01  0.51100000000E-03 0. -1.
</event>
<event>
 8    1  0.5489035E+004  0.1043930E+01  0.7957747E-01            NaN
         13   -1    0    0    0    0  0.00000000000E+00  0.00000000000E+00  0.74505805969E-08  0.10566000000E+00  0.10566000000E+00 0. -1.
     999900   -1    0    0    0    0 -0.00000000000E+00 -0.00000000000E+00 -0.74505805969E-08  0.93827000000E+00  0.93827000000E+00 0.  1.
     999902    2    1    2    0    0 -0.16928283137E-01 -0.19749867697E-02  0.16517969423E-01  0.10201958336E+01  0.10199197165E+01 0.  0.
     999903    2    3    3    0    0 -0.54788061146E-01  0.22819364315E-01  0.11756978770E+00  0.13325750841E+00  0.20308952120E-01 0.  0.
         14    1    1    2    0    0  0.16928283137E-01  0.19749867697E-02 -0.16517969423E-01  0.23734166440E-01  0.00000000000E+00 0.  1.
     999901    1    3    3    0    0  0.37859778009E-01 -0.24794351084E-01 -0.10105181828E+00  0.88693832515E+00  0.88000000000E+00 0.  1.
        -11    1    4    4    0    0 -0.21111577698E-01  0.22676047019E-02  0.58372041303E-01  0.62115996900E-01  0.51100000000E-03 0. -1.
         11    1    4    4    0    0 -0.33676483449E-01  0.20551759613E-01  0.59197746400E-01  0.71141511514E-01  0.51100000000E-03 0.  1.
</event>
<event>
 8    1  0.5489035E+004  0.1043930E+01  0.7957747E-01            NaN
         13   -1    0    0    0    0  0.00000000000E+00  0.00000000000E+00  0.74505805969E-08  0.10566000000E+00  0.10566000000E+00 0. -1.
     999900   -1    0    0    0    0 -0.00000000000E+00 -0.00000000000E+00 -0.74505805969E-08  0.93827000000E+00  0.93827000000E+00 0.  1.
     999902    2    1    2    0    0 -0.38311506841E-03 -0.23579405708E-01 -0.96168992082E-02  0.10184619828E+01  0.10181435019E+01 0.  0.
     999903    2    3    3    0    0 -0.51222848266E-01 -0.56543999262E-01  0.10231932954E+00  0.12930448143E+00  0.20721961362E-01 0.  0.
         14    1    1    2    0    0  0.38311506841E-03  0.23579405708E-01  0.96168992082E-02  0.25468017219E-01  0.00000000000E+00 0. -1.
     999901    1    3    3    0    0  0.50839733198E-01  0.32964593554E-01 -0.11193622875E+00  0.88915750135E+00  0.88000000000E+00 0.  1.
        -11    1    4    4    0    0 -0.33870617737E-01 -0.22165274844E-01  0.49820950773E-01  0.64194286441E-01  0.51100000000E-03 0.  1.
         11    1    4    4    0    0 -0.17352230529E-01 -0.34378724418E-01  0.52498378771E-01  0.65110194989E-01  0.51100000000E-03 0. -1.
</event>
<event>
 8    1  0.5489035E+004  0.1043930E+01  0.7957747E-01            NaN
         13   -1    0    0    0    0  0.00000000000E+00  0.00000000000E+00  0.74505805969E-08  0.10566000000E+00  0.10566000000E+00 0. -1.
     999900   -1    0    0    0    0 -0.00000000000E+00 -0.00000000000E+00 -0.74505805969E-08  0.93827000000E+00  0.93827000000E+00 0.  1.
     999902    2    1    2    0    0 -0.21943483556E-03  0.14345975960E-01  0.18651031258E-01  0.10203988261E+01  0.10201274666E+01 0.  0.
     999903    2    3    3    0    0 -0.82759781010E-01  0.48692083335E-01  0.90069538608E-01  0.13299070859E+00  0.18812401605E-01 0.  0.
         14    1    1    2    0    0  0.21943483556E-03 -0.14345975960E-01 -0.18651031258E-01  0.23531173895E-01  0.00000000000E+00 0.  1.
     999901    1    3    3    0    0  0.82540346174E-01 -0.34346107375E-01 -0.71418507350E-01  0.88740811751E+00  0.88000000000E+00 0.  1.
        -11    1    4    4    0    0 -0.32520413430E-01  0.25981455944E-01  0.48655846450E-01  0.64033318338E-01  0.51100000000E-03 0. -1.
         11    1    4    4    0    0 -0.50239367580E-01  0.22710627391E-01  0.41413692158E-01  0.68957390253E-01  0.51100000000E-03 0.  1.
</event>
<event>
 8    1  0.5489035E+004  0.1043930E+01  0.7957747E-01            NaN
         13   -1    0    0    0    0  0.00000000000E+00  0.00000000000E+00  0.74505805969E-08  0.10566000000E+00  0.10566000000E+00 0.  1.
     999900   -1    0    0    0    0 -0.00000000000E+00 -0.00000000000E+00 -0.74505805969E-08  0.93827000000E+00  0.93827000000E+00 0.  1.
     999902    2    1    2    0    0  0.12826906921E-01 -0.76882674410E-02 -0.17915230750E-01  0.10205934516E+01  0.10203266139E+01 0.  0.
     999903    2    3    3    0    0  0.55592949028E-01  0.16537101150E-01  0.11393958835E+00  0.12941361783E+00  0.20040034679E-01 0.  0.
         14    1    1    2    0    0 -0.12826906921E-01  0.76882674410E-02  0.17915230750E-01  0.23336548378E-01  0.00000000000E+00 0.  1.
     999901    1    3    3    0    0 -0.42766042107E-01 -0.24225368591E-01 -0.13185481910E+00  0.89117983379E+00  0.88000000000E+00 0.  1.
        -11    1    4    4    0    0  0.56742805134E-01  0.13978135877E-01  0.10984425368E+00  0.12442329125E+00  0.51100000000E-03 0.  1.
         11    1    4    4    0    0 -0.11498561057E-02  0.25589652736E-02  0.40953346689E-02  0.49903265811E-02  0.51100000000E-03 0. -1.
</event>
<event>
 8    1  0.5489035E+004  0.1043930E+01  0.7957747E-01            NaN
         13   -1    0    0    0    0  0.00000000000E+00  0.00000000000E+00  0.74505805969E-08  0.10566000000E+00  0.10566000000E+00 0.  1.
     999900   -1    0    0    0    0 -0.00000000000E+00 -0.00000000000E+00 -0.74505805969E-08  0.93827000000E+00  0.93827000000E+00 0.  1.
     999902    2    1    2    0    0  0.71696056461E-02 -0.12049457582E-01  0.18353016222E-01  0.10208339857E+01  0.10205726826E+01 0.  0.
     999903    2    3    3    0    0 -0.12458409104E+00  0.15371882552E-01 -0.24131773807E-01  0.12958995407E+00  0.21300778788E-01 0.  0.
         14    1    1    2    0    0 -0.71696056461E-02  0.12049457582E-01 -0.18353016222E-01  0.23096014322E-01  0.00000000000E+00 0. -1.
     999901    1    3    3    0    0  0.13175369668E+00 -0.27421340134E-01  0.42484790029E-01  0.89124403160E+00  0.88000000000E+00 0.  1.
        -11    1    4    4    0    0 -0.99476849777E-01  0.16929741315E-01 -0.11881768141E-01  0.10160559688E+00  0.51100000000E-03 0. -1.
         11    1    4    4    0    0 -0.25107241261E-01 -0.15578587629E-02 -0.12250005666E-01  0.27984357192E-01  0.51100000000E-03 0.  1.
</event>
<event>
 8    1  0.5489035E+004  0.1043930E+01  0.7957747E-01            NaN
         13   -1    0    0    0    0  0.00000000000E+00  0.00000000000E+00  0.74505805969E-08  0.10566000000E+00  0.10566000000E+00 0. -1.
     999900   -1    0    0    0    0 -0.00000000000E+00 -0.00000000000E+00 -0.74505805969E-08  0.93827000000E+00  0.93827000000E+00 0. -1.
     999902    2    1    2    0    0  0.19736872879E-01 -0.54808480280E-02 -0.12785003291E-01  0.10197837755E+01  0.10194978709E+01 0.  0.
     999903    2    3    3    0    0 -0.97276485029E-01 -0.73524820421E-01  0.34213540974E-01  0.12819476077E+00  0.19867474565E-01 0.  0.
         14    1    1    2    0    0 -0.19736872879E-01  0.54808480280E-02  0.12785003291E-01  0.24146224452E-01  0.00000000000E+00 0.  1.
     999901    1    3    3    0    0  0.11701335791E+00  0.68043972393E-01 -0.46998544265E-01  0.89158901478E+00  0.88000000000E+00 0. -1.
        -11    1    4    4    0    0 -0.21305431233E-01 -0.26729514319E-01  0.12137098777E-01  0.36276144000E-01  0.51100000000E-03 0. -1.
         11    1    4    4    0    0 -0.75971053796E-01 -0.46795306102E-01  0.22076442197E-01  0.91918616772E-01  0.51100000000E-03 0.  1.
</event>
<event>
 8    1  0.5489035E+004  0.1043930E+01  0.7957747E-01            NaN
         13   -1    0    0    0    0  0.00000000000E+00  0.00000000000E+00  0.74505805969E-08  0.10566000000E+00  0.10566000000E+00 0.  1.
     999900   -1    0    0    0    0 -0.00000000000E+00 -0.00000000000E+00 -0.74505805969E-08  0.93827000000E+00  0.93827000000E+00 0.  1.
     999902    2    1    2    0    0  0.67982369678E-02  0.22577822013E-01  0.28998006289E-02  0.10201732553E+01  0.10198966065E+01 0.  0.
     999903    2    3    3    0    0  0.40245500896E-01 -0.11393725860E+00  0.38706459805E-01  0.12830039247E+00  0.19010561186E-01 0.  0.
         14    1    1    2    0    0 -0.67982369678E-02 -0.22577822013E-01 -0.28998006289E-02  0.23756744651E-01  0.00000000000E+00 0.  1.
     999901    1    3    3    0    0 -0.33447263928E-01  0.13651508062E+00 -0.35806659176E-01  0.89187286288E+00  0.88000000000E+00 0.  1.
        -11    1    4    4    0    0  0.28921584499E-01 -0.96467368531E-01  0.26410954514E-01  0.10411633340E+00  0.51100000000E-03 0.  1.
         11    1    4    4    0    0  0.11323916398E-01 -0.17469890073E-01  0.12295505291E-01  0.24184059070E-01  0.51100000000E-03 0. -1.
</event>
