<event>
 8    1  0.1117714E+005  0.1043930E+01  0.7957747E-01            NaN
         13   -1    0    0    0    0  0.00000000000E+00  0.00000000000E+00  0.74505805969E-08  0.10566000000E+00  0.10566000000E+00 0.  1.
     999900   -1    0    0    0    0 -0.00000000000E+00 -0.00000000000E+00 -0.74505805969E-08  0.93827000000E+00  0.93827000000E+00 0.  1.
     999902    2    1    2    0    0 -0.15422183551E-01  0.11956763602E-01 -0.13073246126E-01  0.10204413281E+01  0.10201709594E+01 0.  0.
     999903    2    3    3    0    0 -0.37162621322E-01  0.96514640934E-01 -0.81821863268E-01  0.13345257195E+00  0.20460579498E-01 0.  0.
         14    1    1    2    0    0  0.15422183551E-01 -0.11956763602E-01  0.13073246126E-01  0.23488671856E-01  0.00000000000E+00 0.  1.
     999901    1    3    3    0    0  0.21740437771E-01 -0.84557877333E-01  0.68748617142E-01  0.88698875619E+00  0.88000000000E+00 0. -1.
        -11    1    4    4    0    0 -0.32602579177E-01  0.66446099572E-01 -0.49344376985E-01  0.88955837236E-01  0.51100000000E-03 0.  1.
         11    1    4    4    0    0 -0.45600421455E-02  0.30068541363E-01 -0.32477486283E-01  0.44496734715E-01  0.51100000000E-03 0. -1.
</event>
<event>
 8    1  0.1117714E+005  0.1043930E+01  0.7957747E-01            NaN
         13   -1    0    0    0    0  0.00000000000E+00  0.00000000000E+00  0.74505805969E-08  0.10566000000E+00  0.10566000000E+00 0.  1.
     999900   -1    0    0    0    0 -0.00000000000E+00 -0.00000000000E+00 -0.74505805969E-08  0.93827000000E+00  0.93827000000E+00 0.  1.
     999902    2    1    2    0    0  0.22190581118E-01 -0.95809544400E-02 -0.95787346804E-03  0.10197404547E+01  0.10194535109E+01 0.  0.
     999903    2    3    3    0    0  0.42635038985E-01 -0.61812489656E-02  0.12088817485E+00  0.13110329968E+00  0.26798693627E-01 0.  0.
         14    1    1    2    0    0 -0.22190581118E-01  0.95809544400E-02  0.95787346804E-03  0.24189545260E-01  0.00000000000E+00 0. -1.
     999901    1    3    3    0    0 -0.20444457867E-01 -0.33997054744E-02 -0.12184604832E+00  0.88863715506E+00  0.88000000000E+00 0.  1.
        -11    1    4    4    0    0  0.10994242159E-01  0.91741478725E-02  0.23113985196E-01  0.27194774911E-01  0.51100000000E-03 0. -1.
         11    1    4    4    0    0  0.31640796826E-01 -0.15355396838E-01  0.97774189659E-01  0.10390852477E+00  0.51100000000E-03 0.  1.
</event>
<event>
 8    1  0.1117714E+005  0.1043930E+01  0.7957747E-01            NaN
         13   -1    0    0    0    0  0.00000000000E+00  0.00000000000E+00  0.74505805969E-08  0.10566000000E+00  0.10566000000E+00 0.  1.
     999900   -1    0    0    0    0 -0.00000000000E+00 -0.00000000000E+00 -0.74505805969E-08  0.93827000000E+00  0.93827000000E+00 0. -1.
     999902    2    1    2    0    0  0.16217410992E-01  0.32410134882E-02  0.17473984525E-01  0.10198707248E+01  0.10195869000E+01 0.  0.
     999903    2    3    3    0    0 -0.60767794226E-01 -0.11138834541E+00 -0.39744155243E-02  0.12884511035E+00  0.22026760408E-01 0.  0.
         14    1    1    2    0    0 -0.16217410992E-01 -0.32410134882E-02 -0.17473984525E-01  0.24059275195E-01  0.00000000000E+00 0. -1.
     999901    1    3    3    0    0  0.76985205218E-01  0.11462935890E+00  0.21448400050E-01  0.89102561445E+00  0.88000000000E+00 0.  1.
        -11    1    4    4    0    0 -0.23076281154E-01 -0.46651551945E-01  0.89892660914E-02  0.52819978007E-01  0.51100000000E-03 0. -1.
         11    1    4    4    0    0 -0.37691513072E-01 -0.64736793469E-01 -0.12963681616E-01  0.76025132347E-01  0.51100000000E-03 0.  1.
</event>
<event>
 8    1  0.1117714E+005  0.1043930E+01  0.7957747E-01            NaN
         13   -1    0    0    0    0  0.00000000000E+00  0.00000000000E+00  0.74505805969E-08  0.10566000000E+00  0.10566000000E+00 0. -1.
     999900   -1    0    0    0    0 -0.00000000000E+00 -0.00000000000E+00 -0.74505805969E-08  0.93827000000E+00  0.93827000000E+00 0.  1.
     999902    2    1    2    0    0 -0.13184276170E-02 -0.14129462315E-01  0.20903191392E-01  0.10186649378E+01  0.10183515759E+01 0.  0.
     999903    2    3    3    0    0  0.28921162507E-01  0.11930548288E+00  0.30856250132E-01  0.12803685563E+00  0.19263860990E-01 0.  0.
         14    1    1    2    0    0  0.13184276170E-02  0.14129462315E-01 -0.20903191392E-01  0.25265062182E-01  0.00000000000E+00 0.  1.
     999901    1    3    3    0    0 -0.30239590124E-01 -0.13343494520E+00 -0.99530587403E-02  0.89062808219E+00  0.88000000000E+00 0.  1.
        -11    1    4    4    0    0  0.82710355334E-02  0.41508888414E-01  0.14873399788E-02  0.42354116062E-01  0.51100000000E-03 0.  1.
         11    1    4    4    0    0  0.20650126974E-01  0.77796594467E-01  0.29368910153E-01  0.85682739564E-01  0.51100000000E-03 0. -1.
</event>
<event>
 8    1  0.1117714E+005  0.1043930E+01  0.7957747E-01            NaN
         13   -1    0    0    0    0  0.00000000000E+00  0.00000000000E+00  0.74505805969E-08  0.10566000000E+00  0.10566000000E+00 0.  1.
     999900   -1    0    0    0    0 -0.00000000000E+00 -0.00000000000E+00 -0.74505805969E-08  0.93827000000E+00  0.93827000000E+00 0.  1.
     999902    2    1    2    0    0  0.17059751632E-01 -0.11648062770E-01 -0.11333449872E-01  0.10203681754E+01  0.10200961003E+01 0.  0.
     999903    2    3    3    0    0  0.95825741100E-01 -0.73415811875E-01  0.51162258176E-01  0.13249146694E+00  0.19077684826E-01 0.  0.
         14    1    1    2    0    0 -0.17059751632E-01  0.11648062770E-01  0.11333449872E-01  0.23561824590E-01  0.00000000000E+00 0.  1.
     999901    1    3    3    0    0 -0.78765989469E-01  0.61767749105E-01 -0.62495708049E-01  0.88787670847E+00  0.88000000000E+00 0.  1.
        -11    1    4    4    0    0  0.54727624112E-01 -0.53412040043E-01  0.30591802980E-01  0.82365517015E-01  0.51100000000E-03 0.  1.
         11    1    4    4    0    0  0.41098116988E-01 -0.20003771832E-01  0.20570455197E-01  0.50125949920E-01  0.51100000000E-03 0. -1.
</event>
<event>
 8    1  0.1117714E+005  0.1043930E+01  0.7957747E-01            NaN
         13   -1    0    0    0    0  0.00000000000E+00  0.00000000000E+00  0.74505805969E-08  0.10566000000E+00  0.10566000000E+00 0. -1.
     999900   -1    0    0    0    0 -0.00000000000E+00 -0.00000000000E+00 -0.74505805969E-08  0.93827000000E+00  0.93827000000E+00 0.  1.
     999902    2    1    2    0    0 -0.15242075090E-01  0.17311434243E-01 -0.19720055025E-02  0.10207805850E+01  0.10205180583E+01 0.  0.
     999903    2    3    3    0    0  0.38881351791E-01 -0.45101449982E-02 -0.12278069282E+00  0.13061191246E+00  0.21266692797E-01 0.  0.
         14    1    1    2    0    0  0.15242075090E-01 -0.17311434243E-01  0.19720055025E-02  0.23149414988E-01  0.00000000000E+00 0.  1.
     999901    1    3    3    0    0 -0.54123426881E-01  0.21821579241E-01  0.12080868732E+00  0.89016867255E+00  0.88000000000E+00 0. -1.
        -11    1    4    4    0    0  0.35470568303E-01 -0.25545267008E-03 -0.80397524532E-01  0.87876330964E-01  0.51100000000E-03 0.  1.
         11    1    4    4    0    0  0.34107834880E-02 -0.42546923281E-02 -0.42383168288E-01  0.42735581498E-01  0.51100000000E-03 0. -1.
</event>
<event>
 8    1  0.1117714E+005  0.1043930E+01  0.7957747E-01            NaN
         13   -1    0    0    0    0  0.00000000000E+00  0.00000000000E+00  0.74505805969E-08  0.10566000000E+00  0.10566000000E+00 0. -1.
     999900   -1    0    0    0    0 -0.00000000000E+00 -0.00000000000E+00 -0.74505805969E-08  0.93827000000E+00  0.93827000000E+00 0.  1.
     999902    2    1    2    0    0 -0.17814223522E-01  0.68603182558E-02  0.15745166570E-01  0.10191848834E+01  0.10188844418E+01 0.  0.
     999903    2    3    3    0    0 -0.51479021843E-01  0.26432116096E-01  0.11749401614E+00  0.13246666303E+00  0.19845063196E-01 0.  0.
         14    1    1    2    0    0  0.17814223522E-01 -0.68603182558E-02 -0.15745166570E-01  0.24745116621E-01  0.00000000000E+00 0.  1.
     999901    1    3    3    0    0  0.33664798321E-01 -0.19571797840E-01 -0.10174884957E+00  0.88671822035E+00  0.88000000000E+00 0.  1.
        -11    1    4    4    0    0 -0.11732274875E-01  0.59839288580E-02  0.48487226033E-01  0.50246650512E-01  0.51100000000E-03 0. -1.
         11    1    4    4    0    0 -0.39746746969E-01  0.20448187238E-01  0.69006790108E-01  0.82220012514E-01  0.51100000000E-03 0.  1.
</event>
<event>
 8    1  0.1117714E+005  0.1043930E+01  0.7957747E-01            NaN
         13   -1    0    0    0    0  0.00000000000E+00  0.00000000000E+00  0.74505805969E-08  0.10566000000E+00  0.10566000000E+00 0.  1.
     999900   -1    0    0    0    0 -0.00000000000E+00 -0.00000000000E+00 -0.74505805969E-08  0.93827000000E+00  0.93827000000E+00 0. -1.
     999902    2    1    2    0    0  0.20293676274E-01  0.91515273141E-02  0.91510564079E-02  0.10198608168E+01  0.10195767553E+01 0.  0.
     999903    2    3    3    0    0 -0.95479372380E-01 -0.13831471412E-01 -0.80767236328E-01  0.12743887821E+00  0.20241073672E-01 0.  0.
         14    1    1    2    0    0 -0.20293676274E-01 -0.91515273141E-02 -0.91510564079E-02  0.24069183249E-01  0.00000000000E+00 0. -1.
     999901    1    3    3    0    0  0.11577304865E+00  0.22982998726E-01  0.89918292735E-01  0.89242193854E+00  0.88000000000E+00 0.  1.
        -11    1    4    4    0    0 -0.35559242439E-01  0.18000699711E-02 -0.20817173906E-01  0.41247009894E-01  0.51100000000E-03 0. -1.
         11    1    4    4    0    0 -0.59920129941E-01 -0.15631541383E-01 -0.59950062421E-01  0.86191868314E-01  0.51100000000E-03 0.  1.
</event>
<event>
 8    1  0.1117714E+005  0.1043930E+01  0.7957747E-01            NaN
         13   -1    0    0    0    0  0.00000000000E+00  0.00000000000E+00  0.74505805969E-08  0.10566000000E+00  0.10566000000E+00 0.  1.
     999900   -1    0    0    0    0 -0.00000000000E+00 -0.00000000000E+00 -0.74505805969E-08  0.93827000000E+00  0.93827000000E+00 0. -1.
     999902    2    1    2    0    0 -0.20033118173E-01  0.15554164785E-01  0.12532811637E-01  0.10156399093E+01  0.10152458304E+01 0.  0.
     999903    2    3    3    0    0 -0.90790755988E-01  0.31626479393E-01  0.84783591254E-01  0.12970247482E+00  0.19780774937E-01 0.  0.
         14    1    1    2    0    0  0.20033118173E-01 -0.15554164785E-01 -0.12532811637E-01  0.28290090728E-01  0.00000000000E+00 0. -1.
     999901    1    3    3    0    0  0.70757637815E-01 -0.16072314608E-01 -0.72250779617E-01  0.88593743445E+00  0.88000000000E+00 0. -1.
        -11    1    4    4    0    0 -0.17749229641E-01  0.47113853976E-02  0.27420305731E-01  0.33005553966E-01  0.51100000000E-03 0. -1.
         11    1    4    4    0    0 -0.73041526347E-01  0.26915093996E-01  0.57363285523E-01  0.96696920855E-01  0.51100000000E-03 0.  1.
</event>
<event>
 8    1  0.1117714E+005  0.1043930E+01  0.7957747E-01            NaN
         13   -1    0    0    0    0  0.00000000000E+00  0.00000000000E+00  0.74505805969E-08  0.10566000000E+00  0.10566000000E+00 0. -1.
     999900   -1    0    0    0    0 -0.00000000000E+00 -0.00000000000E+00 -0.74505805969E-08  0.93827000000E+00  0.93827000000E+00 0. -1.
     999902    2    1    2    0    0  0.90941005198E-02  0.58091728072E-02  0.28444848022E-01  0.10135070065E+01  0.10130502918E+01 0.  0.
     999903    2    3    3    0    0  0.24495644958E-01  0.47371472018E-01  0.11504800272E+00  0.12814564601E+00  0.18470806120E-01 0.  0.
         14    1    1    2    0    0 -0.90941005198E-02 -0.58091728072E-02 -0.28444848022E-01  0.30422993475E-01  0.00000000000E+00 0.  1.
     999901    1    3    3    0    0 -0.15401544439E-01 -0.41562299211E-01 -0.86603154698E-01  0.88536136051E+00  0.88000000000E+00 0. -1.
        -11    1    4    4    0    0  0.12632724871E-01  0.35252590675E-01  0.61823167969E-01  0.72282059363E-01  0.51100000000E-03 0.  1.
         11    1    4    4    0    0  0.11862920088E-01  0.12118881343E-01  0.53224834751E-01  0.55863586649E-01  0.51100000000E-03 0. -1.
</event>
<event>
 8    1  0.1117714E+005  0.1043930E+01  0.7957747E-01            NaN
         13   -1    0    0    0    0  0.00000000000E+00  0.00000000000E+00  0.74505805969E-08  0.10566000000E+00  0.10566000000E+00 0. -1.
     999900   -1    0    0    0    0 -0.00000000000E+00 -0.00000000000E+00 -0.74505805969E-08  0.93827000000E+00  0.93827000000E+00 0. -1.
     999902    2    1    2    0    0  0.18829754213E-01 -0.13952949375E-01 -0.28208143621E-02  0.10203248854E+01  0.10200517979E+01 0.  0.
     999903    2    3    3    0    0 -0.10804510128E-01 -0.32182549473E-01 -0.12495264276E+00  0.13120920598E+00  0.21218832944E-01 0.  0.
         14    1    1    2    0    0 -0.18829754213E-01  0.13952949375E-01  0.28208143621E-02  0.23605114565E-01  0.00000000000E+00 0. -1.
     999901    1    3    3    0    0  0.29634264341E-01  0.18229600097E-01  0.12213182840E+00  0.88911567945E+00  0.88000000000E+00 0.  1.
        -11    1    4    4    0    0  0.15554624112E-02 -0.24368205052E-01 -0.63404303482E-01  0.67945534819E-01  0.51100000000E-03 0.  1.
         11    1    4    4    0    0 -0.12359972540E-01 -0.78143444207E-02 -0.61548339279E-01  0.63263671162E-01  0.51100000000E-03 0. -1.
</event>
<event>
 8    1  0.1117714E+005  0.1043930E+01  0.7957747E-01            NaN
         13   -1    0    0    0    0  0.00000000000E+00  0.00000000000E+00  0.74505805969E-08  0.10566000000E+00  0.10566000000E+00 0.  1.
     999900   -1    0    0    0    0 -0.00000000000E+00 -0.00000000000E+00 -0.74505805969E-08  0.93827000000E+00  0.93827000000E+00 0. -1.
     999902    2    1    2    0    0 -0.20729529276E-01 -0.99517820281E-02 -0.53113915893E-02  0.10203299528E+01  0.10200569838E+01 0.  0.
     999903    2    3    3    0    0  0.29786075103E-01 -0.12539765832E+00  0.13833154213E-01  0.13114713113E+00  0.19910571707E-01 0.  0.
         14    1    1    2    0    0  0.20729529276E-01  0.99517820281E-02  0.53113915893E-02  0.23600047249E-01  0.00000000000E+00 0.  1.
     999901    1    3    3    0    0 -0.50515604379E-01  0.11544587629E+00 -0.19144545803E-01  0.88918282162E+00  0.88000000000E+00 0. -1.
        -11    1    4    4    0    0  0.15512073524E-01 -0.92835577461E-01  0.37954376060E-02  0.94200506024E-01  0.51100000000E-03 0. -1.
         11    1    4    4    0    0  0.14274001580E-01 -0.32562080856E-01  0.10037716607E-01  0.36946625102E-01  0.51100000000E-03 0.  1.
</event>
<event>
 8    1  0.1117714E+005  0.1043930E+01  0.7957747E-01            NaN
         13   -1    0    0    0    0  0.00000000000E+00  0.00000000000E+00  0.74505805969E-08  0.10566000000E+00  0.10566000000E+00 0.  1.
     999900   -1    0    0    0    0 -0.00000000000E+00 -0.00000000000E+00 -0.74505805969E-08  0.93827000000E+00  0.93827000000E+00 0. -1.
     999902    2    1    2    0    0  0.27246447490E-01  0.22131965024E-02 -0.17577903682E-02  0.10165373556E+01  0.10161682136E+01 0.  0.
     999903    2    3    3    0    0 -0.10123958180E-01  0.63499289945E-01 -0.10791776276E+00  0.12725535748E+00  0.20323093634E-01 0.  0.
         14    1    1    2    0    0 -0.27246447490E-01 -0.22131965024E-02  0.17577903682E-02  0.27392644388E-01  0.00000000000E+00 0. -1.
     999901    1    3    3    0    0  0.37370405670E-01 -0.61286093443E-01  0.10615997239E+00  0.88928199814E+00  0.88000000000E+00 0.  1.
        -11    1    4    4    0    0 -0.91921163466E-02  0.11944581965E-01 -0.33274994653E-01  0.36532922568E-01  0.51100000000E-03 0. -1.
         11    1    4    4    0    0 -0.93184183323E-03  0.51554707980E-01 -0.74642768107E-01  0.90722434909E-01  0.51100000000E-03 0.  1.
</event>
<event>
 8    1  0.1117714E+005  0.1043930E+01  0.7957747E-01            NaN
         13   -1    0    0    0    0  0.00000000000E+00  0.00000000000E+00  0.74505805969E-08  0.10566000000E+00  0.10566000000E+00 0. -1.
     999900   -1    0    0    0    0 -0.00000000000E+00 -0.00000000000E+00 -0.74505805969E-08  0.93827000000E+00  0.93827000000E+00 0. -1.
     999902    2    1    2    0    0  0.18394987027E-01 -0.12462402018E-01 -0.73308143229E-02  0.10205328239E+01  0.10202645817E+01 0.  0.
     999903    2    3    3    0    0 -0.90013013285E-01  0.57447632822E-01 -0.69218960578E-01  0.12897808627E+00  0.21012119296E-01 0.  0.
         14    1    1    2    0    0 -0.18394987027E-01  0.12462402018E-01  0.73308143229E-02  0.23397176121E-01  0.00000000000E+00 0. -1.
     999901    1    3    3    0    0  0.10840800031E+00 -0.69910034840E-01  0.61888146255E-01  0.89155473761E+00  0.88000000000E+00 0.  1.
        -11    1    4    4    0    0 -0.64667699108E-01  0.32595595044E-01 -0.54082211766E-01  0.90385457208E-01  0.51100000000E-03 0. -1.
         11    1    4    4    0    0 -0.25345314178E-01  0.24852037778E-01 -0.15136748812E-01  0.38592629064E-01  0.51100000000E-03 0.  1.
</event>
<event>
 8    1  0.1117714E+005  0.1043930E+01  0.7957747E-01            NaN
         13   -1    0    0    0    0  0.00000000000E+00  0.00000000000E+00  0.74505805969E-08  0.10566000000E+00  0.10566000000E+00 0. -1.
     999900   -1    0    0    0    0 -0.00000000000E+00 -0.00000000000E+00 -0.74505805969E-08  0.93827000000E+00  0.93827000000E+00 0. -1.
     999902    2    1    2    0    0  0.22811773587E-01 -0.64129358101E-02 -0.10668481326E-01  0.10179430946E+01  0.10176113327E+01 0.  0.
     999903    2    3    3    0    0  0.78263358414E-02  0.12473903770E+00  0.18640331385E-01  0.12761483488E+00  0.17804636164E-01 0.  0.
         14    1    1    2    0    0 -0.22811773587E-01  0.64129358101E-02  0.10668481326E-01  0.25986905428E-01  0.00000000000E+00 0. -1.
     999901    1    3    3    0    0  0.14985437746E-01 -0.13115197351E+00 -0.29308812712E-01  0.89032825969E+00  0.88000000000E+00 0. -1.
        -11    1    4    4    0    0  0.11333507130E-01  0.76148814216E-01  0.17130781057E-01  0.78872143822E-01  0.51100000000E-03 0. -1.
         11    1    4    4    0    0 -0.35071712890E-02  0.48590223483E-01  0.15095503280E-02  0.48742691060E-01  0.51100000000E-03 0.  1.
</event>
<event>
 8    1  0.1117714E+005  0.1043930E+01  0.7957747E-01            NaN
         13   -1    0    0    0    0  0.00000000000E+00  0.00000000000E+00  0.74505805969E-08  0.10566000000E+00  0.10566000000E+00 0. -1.
     999900   -1    0    0    0    0 -0.00000000000E+00 -0.00000000000E+00 -0.74505805969E-08  0.93827000000E+00  0.93827000000E+00 0. -1.
     999902    2    1    2    0    0  0.20234263431E-01  0.30996051835E-03 -0.11501040956E-01  0.10206535004E+01  0.10203880499E+01 0.  0.
     999903    2    3    3    0    0  0.11158141499E+00  0.59423293757E-01 -0.38053375133E-01  0.13355501952E+00  0.20182761655E-01 0.  0.
         14    1    1    2    0    0 -0.20234263431E-01 -0.30996051835E-03  0.11501040956E-01  0.23276499633E-01  0.00000000000E+00 0. -1.
     999901    1    3    3    0    0 -0.91347151562E-01 -0.59113333239E-01  0.26552334177E-01  0.88709848084E+00  0.88000000000E+00 0.  1.
        -11    1    4    4    0    0  0.59870471046E-01  0.20863170789E-01 -0.21610878265E-01  0.66985344510E-01  0.51100000000E-03 0.  1.
         11    1    4    4    0    0  0.51710943946E-01  0.38560122968E-01 -0.16442496868E-01  0.66569675013E-01  0.51100000000E-03 0. -1.
</event>
<event>
 8    1  0.1117714E+005  0.1043930E+01  0.7957747E-01            NaN
         13   -1    0    0    0    0  0.00000000000E+00  0.00000000000E+00  0.74505805969E-08  0.10566000000E+00  0.10566000000E+00 0. -1.
     999900   -1    0    0    0    0 -0.00000000000E+00 -0.00000000000E+00 -0.74505805969E-08  0.93827000000E+00  0.93827000000E+00 0.  1.
     999902    2    1    2    0    0 -0.39708438795E-02  0.26912031419E-02  0.22870777563E-01  0.10205615888E+01  0.10202940135E+01 0.  0.
     999903    2    3    3    0    0 -0.76898229413E-02 -0.15892019637E-01 -0.12524108177E+00  0.12798313855E+00  0.19561838492E-01 0.  0.
         14    1    1    2    0    0  0.39708438795E-02 -0.26912031419E-02 -0.22870777563E-01  0.23368411196E-01  0.00000000000E+00 0.  1.
     999901    1    3    3    0    0  0.37189790617E-02  0.18583222779E-01  0.14811185934E+00  0.89257845025E+00  0.88000000000E+00 0. -1.
        -11    1    4    4    0    0 -0.77768782820E-02 -0.56792478696E-02 -0.19555131230E-01  0.21803622878E-01  0.51100000000E-03 0.  1.
         11    1    4    4    0    0  0.87055340717E-04 -0.10212771768E-01 -0.10568595054E+00  0.10617951568E+00  0.51100000000E-03 0. -1.
</event>
<event>
 8    1  0.1117714E+005  0.1043930E+01  0.7957747E-01            NaN
         13   -1    0    0    0    0  0.00000000000E+00  0.00000000000E+00  0.74505805969E-08  0.10566000000E+00  0.10566000000E+00 0.  1.
     999900   -1    0    0    0    0 -0.00000000000E+00 -0.00000000000E+00 -0.74505805969E-08  0.93827000000E+00  0.93827000000E+00 0. -1.
     999902    2    1    2    0    0 -0.21400016437E-01  0.48935524105E-02  0.19536854932E-02  0.10218908429E+01  0.10216531556E+01 0.  0.
     999903    2    3    3    0    0 -0.12445365203E+00 -0.13135719597E-01  0.45504333594E-01  0.13462438607E+00  0.19794502194E-01 0.  0.
         14    1    1    2    0    0  0.21400016437E-01 -0.48935524105E-02 -0.19536854932E-02  0.22039157100E-01  0.00000000000E+00 0. -1.
     999901    1    3    3    0    0  0.10305363559E+00  0.18029272007E-01 -0.43550648101E-01  0.88726645683E+00  0.88000000000E+00 0. -1.
        -11    1    4    4    0    0 -0.62441615457E-01 -0.13161777047E-01  0.30951228191E-01  0.70925505732E-01  0.51100000000E-03 0.  1.
         11    1    4    4    0    0 -0.62012036573E-01  0.26057450061E-04  0.14553105404E-01  0.63698880342E-01  0.51100000000E-03 0. -1.
</event>
<event>
 8    1  0.1117714E+005  0.1043930E+01  0.7957747E-01            NaN
         13   -1    0    0    0    0  0.00000000000E+00  0.00000000000E+00  0.74505805969E-08  0.10566000000E+00  0.10566000000E+00 0.  1.
     999900   -1    0    0    0    0 -0.00000000000E+00 -0.00000000000E+00 -0.74505805969E-08  0.93827000000E+00  0.93827000000E+00 0. -1.
     999902    2    1    2    0    0  0.15324238105E-01  0.15741022039E-01  0.86484862867E-02  0.10203205027E+01  0.10200473125E+01 0.  0.
     999903    2    3    3    0    0 -0.57158861942E-01 -0.11265519831E+00 -0.65386248897E-02  0.12792482949E+00  0.19070374407E-01 0.  0.
         14    1    1    2    0    0 -0.15324238105E-01 -0.15741022039E-01 -0.86484862867E-02  0.23609497313E-01  0.00000000000E+00 0. -1.
     999901    1    3    3    0    0  0.72483100047E-01  0.12839622035E+00  0.15187111176E-01  0.89239567320E+00  0.88000000000E+00 0.  1.
        -11    1    4    4    0    0 -0.55428868230E-01 -0.11210588859E+00 -0.44921200926E-02  0.12514203911E+00  0.51100000000E-03 0.  1.
         11    1    4    4    0    0 -0.17299937119E-02 -0.54930972462E-03 -0.20465047971E-02  0.27827903804E-02  0.51100000000E-03 0. -1.
</event>
<event>
 8    1  0.1117714E+005  0.1043930E+01  0.7957747E-01            NaN
         13   -1    0    0    0    0  0.00000000000E+00  0.00000000000E+00  0.74505805969E-08  0.10566000000E+00  0.10566000000E+00 0. -1.
     999900   -1    0    0    0    0 -0.00000000000E+00 -0.00000000000E+00 -0.74505805969E-08  0.93827000000E+00  0.93827000000E+00 0.  1.
     999902    2    1    2    0    0 -0.11866750932E-01  0.35512524811E-02  0.20990119499E-01  0.10195575506E+01  0.10192661982E+01 0.  0.
     999903    2    3    3    0    0  0.20288013940E-01 -0.63115369680E-01  0.11198695573E+00  0.13177447373E+00  0.20694933557E-01 0.  0.
         14    1    1    2    0    0  0.11866750932E-01 -0.35512524811E-02 -0.20990119499E-01  0.24372449373E-01  0.00000000000E+00 0.  1.
     999901    1    3    3    0    0 -0.32154764872E-01  0.66666622161E-01 -0.90996836229E-01  0.88778307689E+00  0.88000000000E+00 0.  1.
        -11    1    4    4    0    0  0.78927922792E-02 -0.39769134572E-01  0.49929845462E-01  0.64320531896E-01  0.51100000000E-03 0. -1.
         11    1    4    4    0    0  0.12395221661E-01 -0.23346235108E-01  0.62057110266E-01  0.67453941837E-01  0.51100000000E-03 0.  1.
</event>
<event>
 8    1  0.1117714E+005  0.1043930E+01  0.7957747E-01            NaN
         13   -1    0    0    0    0  0.00000000000E+00  0.00000000000E+00  0.74505805969E-08  0.10566000000E+00  0.10566000000E+00 0. -1.
     999900   -1    0    0    0    0 -0.00000000000E+00 -0.00000000000E+00 -0.74505805969E-08  0.93827000000E+00  0.93827000000E+00 0. -1.
     999902    2    1    2    0    0 -0.11450221429E-01  0.63001108120E-02  0.19957770654E-01  0.10200739405E+01  0.10197949463E+01 0.  0.
     999903    2    3    3    0    0 -0.99583934071E-01  0.45423352107E-01 -0.68328423646E-01  0.13041522421E+00  0.18950366361E-01 0.  0.
         14    1    1    2    0    0  0.11450221429E-01 -0.63001108120E-02 -0.19957770654E-01  0.23856059534E-01  0.00000000000E+00 0.  1.
     999901    1    3    3    0    0  0.88133712641E-01 -0.39123241295E-01  0.88286194299E-01  0.88965871626E+00  0.88000000000E+00 0.  1.
        -11    1    4    4    0    0 -0.62435399772E-01  0.33197335259E-01 -0.53149277441E-01  0.88461002857E-01  0.51100000000E-03 0.  1.
         11    1    4    4    0    0 -0.37148534298E-01  0.12226016848E-01 -0.15179146205E-01  0.41954221349E-01  0.51100000000E-03 0. -1.
</event>
<event>
 8    1  0.1117714E+005  0.1043930E+01  0.7957747E-01            NaN
         13   -1    0    0    0    0  0.00000000000E+00  0.00000000000E+00  0.74505805969E-08  0.10566000000E+00  0.10566000000E+00 0. -1.
     999900   -1    0    0    0    0 -0.00000000000E+00 -0.00000000000E+00 -0.74505805969E-08  0.93827000000E+00  0.93827000000E+00 0.  1.
     999902    2    1    2    0    0  0.10642363085E-03  0.23300540002E-01 -0.10477965318E-03  0.10206289814E+01  0.10203629649E+01 0.  0.
     999903    2    3    3    0    0  0.36669985309E-02 -0.10942074514E+00 -0.63701463992E-01  0.12840022400E+00  0.21033180044E-01 0.  0.
         14    1    1    2    0    0 -0.10642363085E-03 -0.23300540002E-01  0.10477965318E-03  0.23301018629E-01  0.00000000000E+00 0. -1.
     999901    1    3    3    0    0 -0.35605749001E-02  0.13272128514E+00  0.63596684339E-01  0.89222875737E+00  0.88000000000E+00 0. -1.
        -11    1    4    4    0    0 -0.69407457667E-02 -0.17650191328E-01 -0.13221259182E-01  0.23125008564E-01  0.51100000000E-03 0. -1.
         11    1    4    4    0    0  0.10607744298E-01 -0.91770553812E-01 -0.50480204810E-01  0.10527521543E+00  0.51100000000E-03 0.  1.
</event>
<event>
 8    1  0.1117714E+005  0.1043930E+01  0.7957747E-01            NaN
         13   -1    0    0    0    0  0.00000000000E+00  0.00000000000E+00  0.74505805969E-08  0.10566000000E+00  0.10566000000E+00 0.  1.
     999900   -1    0    0    0    0 -0.00000000000E+00 -0.00000000000E+00 -0.74505805969E-08  0.93827000000E+00  0.93827000000E+00 0.  1.
     999902    2    1    2    0    0 -0.20384206862E-02 -0.23503187246E-01 -0.48032264550E-02  0.10198545778E+01  0.10195703673E+01 0.  0.
     999903    2    3    3    0    0 -0.61065049256E-01 -0.10994853669E+00 -0.37735937798E-01  0.13303920536E+00  0.21396452973E-01 0.  0.
         14    1    1    2    0    0  0.20384206862E-02  0.23503187246E-01  0.48032264550E-02  0.24075422197E-01  0.00000000000E+00 0.  1.
     999901    1    3    3    0    0  0.59026628570E-01  0.86445349449E-01  0.32932711343E-01  0.88681537244E+00  0.88000000000E+00 0. -1.
        -11    1    4    4    0    0 -0.26376970582E-01 -0.67613771786E-01 -0.25730961151E-01  0.77004611518E-01  0.51100000000E-03 0.  1.
         11    1    4    4    0    0 -0.34688078674E-01 -0.42334764908E-01 -0.12004976647E-01  0.56034593843E-01  0.51100000000E-03 0. -1.
</event>
<event>
 8    1  0.1117714E+005  0.1043930E+01  0.7957747E-01            NaN
         13   -1    0    0    0    0  0.00000000000E+00  0.00000000000E+00  0.74505805969E-08  0.10566000000E+00  0.10566000000E+00 0. -1.
     999900   -1    0    0    0    0 -0.00000000000E+00 -0.00000000000E+00 -0.74505805969E-08  0.93827000000E+00  0.93827000000E+00 0. -1.
     999902    2    1    2    0    0  0.18488914807E-01 -0.12997401208E-01 -0.18561418182E-02  0.10212536319E+01  0.10210018428E+01 0.  0.
     999903    2    3    3    0    0 -0.40659273112E-02 -0.45256058445E-01  0.12201946569E+00  0.13170627057E+00  0.19827988041E-01 0.  0.
         14    1    1    2    0    0 -0.18488914807E-01  0.12997401208E-01  0.18561418182E-02  0.22676368125E-01  0.00000000000E+00 0. -1.
     999901    1    3    3    0    0  0.22554842119E-01  0.32258657237E-01 -0.12387560751E+00  0.88954736130E+00  0.88000000000E+00 0. -1.
        -11    1    4    4    0    0  0.57323278864E-02 -0.30459040433E-01  0.65516456092E-01  0.72479513429E-01  0.51100000000E-03 0. -1.
         11    1    4    4    0    0 -0.97982551976E-02 -0.14797018012E-01  0.56503009596E-01  0.59226757140E-01  0.51100000000E-03 0.  1.
</event>
<event>
 8    1  0.1117714E+005  0.1043930E+01  0.7957747E-01            NaN
         13   -1    0    0    0    0  0.00000000000E+00  0.00000000000E+00  0.74505805969E-08  0.10566000000E+00  0.10566000000E+00 0.  1.
     999900   -1    0    0    0    0 -0.00000000000E+00 -0.00000000000E+00 -0.74505805969E-08  0.93827000000E+00  0.93827000000E+00 0. -1.
     999902    2    1    2    0    0  0.12433578151E-01 -0.50405578462E-02 -0.20268977515E-01  0.10196229529E+01  0.10193331808E+01 0.  0.
     999903    2    3    3    0    0  0.10594858431E+00 -0.16246051931E-02 -0.77381453051E-01  0.13282051720E+00  0.20631496654E-01 0.  0.
         14    1    1    2    0    0 -0.12433578151E-01  0.50405578462E-02  0.20268977515E-01  0.24307047097E-01  0.00000000000E+00 0.  1.
     999901    1    3    3    0    0 -0.93515006155E-01 -0.34159526530E-02  0.57112475535E-01  0.88680243570E+00  0.88000000000E+00 0.  1.
        -11    1    4    4    0    0  0.49038805282E-01  0.68383844061E-02 -0.44359708924E-01  0.66480168634E-01  0.51100000000E-03 0. -1.
         11    1    4    4    0    0  0.56909779025E-01 -0.84629895992E-02 -0.33021744127E-01  0.66340348566E-01  0.51100000000E-03 0.  1.
</event>
<event>
 8    1  0.1117714E+005  0.1043930E+01  0.7957747E-01            NaN
         13   -1    0    0    0    0  0.00000000000E+00  0.00000000000E+00  0.74505805969E-08  0.10566000000E+00  0.10566000000E+00 0. -1.
     999900   -1    0    0    0    0 -0.00000000000E+00 -0.00000000000E+00 -0.74505805969E-08  0.93827000000E+00  0.93827000000E+00 0.  1.
     999902    2    1    2    0    0 -0.16715453115E-01  0.10970857011E-02 -0.20034251713E-01  0.10178152300E+01  0.10174801527E+01 0.  0.
     999903    2    3    3    0    0  0.27646097538E-01 -0.22290584554E-01  0.11867873678E+00  0.12553936265E+00  0.20354658951E-01 0.  0.
         14    1    1    2    0    0  0.16715453115E-01 -0.10970857011E-02  0.20034251713E-01  0.26114769989E-01  0.00000000000E+00 0. -1.
     999901    1    3    3    0    0 -0.44361550653E-01  0.23387670255E-01 -0.13871298850E+00  0.89227586736E+00  0.88000000000E+00 0.  1.
        -11    1    4    4    0    0  0.19414156898E-01 -0.27013126575E-02  0.60625298750E-01  0.63717301792E-01  0.51100000000E-03 0.  1.
         11    1    4    4    0    0  0.82319406404E-02 -0.19589271896E-01  0.58053438034E-01  0.61822060858E-01  0.51100000000E-03 0. -1.
</event>
<event>
 8    1  0.1117714E+005  0.1043930E+01  0.7957747E-01            NaN
         13   -1    0    0    0    0  0.00000000000E+00  0.00000000000E+00  0.74505805969E-08  0.10566000000E+00  0.10566000000E+00 0. -1.
     999900   -1    0    0    0    0 -0.00000000000E+00 -0.00000000000E+00 -0.74505805969E-08  0.93827000000E+00  0.93827000000E+00 0.  1.
     999902    2    1    2    0    0  0.10497474103E-01  0.40051301783E-02  0.20664733307E-01  0.10204083242E+01  0.10201371863E+01 0.  0.
     999903    2    3    3    0    0 -0.10516238282E-01 -0.40122506880E-01 -0.11942584423E+00  0.12798791072E+00  0.19949090047E-01 0.  0.
         14    1    1    2    0    0 -0.10497474103E-01 -0.40051301783E-02 -0.20664733307E-01  0.23521675811E-01  0.00000000000E+00 0.  1.
     999901    1    3    3    0    0  0.21013712385E-01  0.44127637058E-01  0.14009057754E+00  0.89242041347E+00  0.88000000000E+00 0. -1.
        -11    1    4    4    0    0 -0.98630966725E-02 -0.13847155729E-01 -0.69649065846E-01  0.71695731337E-01  0.51100000000E-03 0.  1.
         11    1    4    4    0    0 -0.65314160990E-03 -0.26275351150E-01 -0.49776778388E-01  0.56292179383E-01  0.51100000000E-03 0. -1.
</event>
<event>
 8    1  0.1117714E+005  0.1043930E+01  0.7957747E-01            NaN
         13   -1    0    0    0    0  0.00000000000E+00  0.00000000000E+00  0.74505805969E-08  0.10566000000E+00  0.10566000000E+00 0.  1.
     999900   -1    0    0    0    0 -0.00000000000E+00 -0.00000000000E+00 -0.74505805969E-08  0.93827000000E+00  0.93827000000E+00 0.  1.
     999902    2    1    2    0    0  0.51175619418E-02 -0.12567156192E-01  0.19127367432E-01  0.10204783681E+01  0.10202088613E+01 0.  0.
     999903    2    3    3    0    0  0.12179311185E+00  0.43049955776E-01  0.33591299211E-02  0.13089695842E+00  0.20877480270E-01 0.  0.
         14    1    1    2    0    0 -0.51175619418E-02  0.12567156192E-01 -0.19127367432E-01  0.23451631923E-01  0.00000000000E+00 0. -1.
     999901    1    3    3    0    0 -0.11667554991E+00 -0.55617111968E-01  0.15768237511E-01  0.88958140966E+00  0.88000000000E+00 0.  1.
        -11    1    4    4    0    0  0.10556600360E-01 -0.15689824671E-02  0.27894198562E-02  0.11042893700E-01  0.51100000000E-03 0.  1.
         11    1    4    4    0    0  0.11123651149E+00  0.44618938243E-01  0.56971006491E-03  0.11985406472E+00  0.51100000000E-03 0. -1.
</event>
<event>
 8    1  0.1117714E+005  0.1043930E+01  0.7957747E-01            NaN
         13   -1    0    0    0    0  0.00000000000E+00  0.00000000000E+00  0.74505805969E-08  0.10566000000E+00  0.10566000000E+00 0. -1.
     999900   -1    0    0    0    0 -0.00000000000E+00 -0.00000000000E+00 -0.74505805969E-08  0.93827000000E+00  0.93827000000E+00 0. -1.
     999902    2    1    2    0    0  0.37676883632E-02 -0.14321020966E-01 -0.16556452216E-01  0.10217173183E+01  0.10214758320E+01 0.  0.
     999903    2    3    3    0    0 -0.15987536365E-01 -0.74605331455E-01  0.10446815394E+00  0.13117174269E+00  0.21699633430E-01 0.  0.
         14    1    1    2    0    0 -0.37676883632E-02  0.14321020966E-01  0.16556452216E-01  0.22212681673E-01  0.00000000000E+00 0. -1.
     999901    1    3    3    0    0  0.19755224728E-01  0.60284310489E-01 -0.12102460616E+00  0.89054557564E+00  0.88000000000E+00 0.  1.
        -11    1    4    4    0    0 -0.13556054052E-01 -0.43066672697E-01  0.77059688812E-01  0.89313838006E-01  0.51100000000E-03 0.  1.
         11    1    4    4    0    0 -0.24314823126E-02 -0.31538658758E-01  0.27408465131E-01  0.41857904682E-01  0.51100000000E-03 0. -1.
</event>
<event>
 8    1  0.1117714E+005  0.1043930E+01  0.7957747E-01            NaN
         13   -1    0    0    0    0  0.00000000000E+00  0.00000000000E+00  0.74505805969E-08  0.10566000000E+00  0.10566000000E+00 0. -1.
     999900   -1    0    0    0    0 -0.00000000000E+00 -0.00000000000E+00 -0.74505805969E-08  0.93827000000E+00  0.93827000000E+00 0. -1.
     999902    2    1    2    0    0 -0.15852328426E-01 -0.16793699963E-01  0.62051668111E-02  0.10200170585E+01  0.10197367165E+01 0.  0.
     999903    2    3    3    0    0 -0.11688744101E+00 -0.21141260188E-02  0.59124968896E-01  0.13253517740E+00  0.20066586857E-01 0.  0.
         14    1    1    2    0    0  0.15852328426E-01  0.16793699963E-01 -0.62051668111E-02  0.23912941478E-01  0.00000000000E+00 0.  1.
     999901    1    3    3    0    0  0.10103511258E+00 -0.14679573944E-01 -0.52919802085E-01  0.88748188112E+00  0.88000000000E+00 0. -1.
        -11    1    4    4    0    0 -0.62965880138E-01  0.68156760101E-02  0.38473783271E-01  0.74105658496E-01  0.51100000000E-03 0.  1.
         11    1    4    4    0    0 -0.53921560868E-01 -0.89298020289E-02  0.20651185625E-01  0.58429518905E-01  0.51100000000E-03 0. -1.
</event>
<event>
 8    1  0.1117714E+005  0.1043930E+01  0.7957747E-01            NaN
         13   -1    0    0    0    0  0.00000000000E+00  0.00000000000E+00  0.74505805969E-08  0.10566000000E+00  0.10566000000E+00 0.  1.
     999900   -1    0    0    0    0 -0.00000000000E+00 -0.00000000000E+00 -0.74505805969E-08  0.93827000000E+00  0.93827000000E+00 0. -1.
     999902    2    1    2    0    0 -0.55670083443E-02  0.52413996400E-02 -0.24482044968E-01  0.10182817178E+01  0.10179586546E+01 0.  0.
     999903    2    3    3    0    0  0.91867922285E-01 -0.60987529380E-01  0.58963613111E-01  0.12651772742E+00  0.19257045373E-01 0.  0.
         14    1    1    2    0    0  0.55670083443E-02 -0.52413996400E-02  0.24482044968E-01  0.25648282163E-01  0.00000000000E+00 0.  1.
     999901    1    3    3    0    0 -0.97434930629E-01  0.66228929020E-01 -0.83445658079E-01  0.89176399041E+00  0.88000000000E+00 0. -1.
        -11    1    4    4    0    0  0.40798090579E-01 -0.20435010472E-01  0.15700992707E-01  0.48258223556E-01  0.51100000000E-03 0.  1.
         11    1    4    4    0    0  0.51069831707E-01 -0.40552518908E-01  0.43262620404E-01  0.78259503867E-01  0.51100000000E-03 0. -1.
</event>
<event>
 8    1  0.1117714E+005  0.1043930E+01  0.7957747E-01            NaN
         13   -1    0    0    0    0  0.00000000000E+00  0.00000000000E+00  0.74505805969E-08  0.10566000000E+00  0.10566000000E+00 0. -1.
     999900   -1    0    0    0    0 -0.00000000000E+00 -0.00000000000E+00 -0.74505805969E-08  0.93827000000E+00  0.93827000000E+00 0. -1.
     999902    2    1    2    0    0  0.10033383021E-01  0.16808734074E-01 -0.13931586748E-01  0.10199031104E+01  0.10196200582E+01 0.  0.
     999903    2    3    3    0    0 -0.22073853550E-01  0.39669534833E-01 -0.12266825539E+00  0.13233499808E+00  0.20102831450E-01 0.  0.
         14    1    1    2    0    0 -0.10033383021E-01 -0.16808734074E-01  0.13931586748E-01  0.24026889631E-01  0.00000000000E+00 0.  1.
     999901    1    3    3    0    0  0.32107236571E-01 -0.22860800759E-01  0.10873666864E+00  0.88756811229E+00  0.88000000000E+00 0.  1.
        -11    1    4    4    0    0  0.45160441214E-03  0.14145729070E-01 -0.51986116528E-01  0.53880636876E-01  0.51100000000E-03 0.  1.
         11    1    4    4    0    0 -0.22525457962E-01  0.25523805763E-01 -0.70682138857E-01  0.78454361201E-01  0.51100000000E-03 0. -1.
</event>
<event>
 8    1  0.1117714E+005  0.1043930E+01  0.7957747E-01            NaN
         13   -1    0    0    0    0  0.00000000000E+00  0.00000000000E+00  0.74505805969E-08  0.10566000000E+00  0.10566000000E+00 0. -1.
     999900   -1    0    0    0    0 -0.00000000000E+00 -0.00000000000E+00 -0.74505805969E-08  0.93827000000E+00  0.93827000000E+00 0. -1.
     999902    2    1    2    0    0  0.14796535214E-01 -0.18576444200E-01  0.77738609078E-03  0.10201681385E+01  0.10198913691E+01 0.  0.
     999903    2    3    3    0    0  0.27667554633E-01 -0.10202417688E+00 -0.77584166553E-01  0.13266054969E+00  0.20126904829E-01 0.  0.
         14    1    1    2    0    0 -0.14796535214E-01  0.18576444200E-01 -0.77738609078E-03  0.23761861514E-01  0.00000000000E+00 0.  1.
     999901    1    3    3    0    0 -0.12871019419E-01  0.83447732681E-01  0.78361552643E-01  0.88750758879E+00  0.88000000000E+00 0.  1.
        -11    1    4    4    0    0  0.89795411123E-02 -0.20318040142E-01 -0.26169607453E-01  0.34330225590E-01  0.51100000000E-03 0. -1.
         11    1    4    4    0    0  0.18688013521E-01 -0.81706136739E-01 -0.51414559100E-01  0.98330324105E-01  0.51100000000E-03 0.  1.
</event>
<event>
 8    1  0.1117714E+005  0.1043930E+01  0.7957747E-01            NaN
         13   -1    0    0    0    0  0.00000000000E+00  0.00000000000E+00  0.74505805969E-08  0.10566000000E+00  0.10566000000E+00 0.  1.
     999900   -1    0    0    0    0 -0.00000000000E+00 -0.00000000000E+00 -0.74505805969E-08  0.93827000000E+00  0.93827000000E+00 0. -1.
     999902    2    1    2    0    0 -0.11569128610E-01  0.14661873279E-01  0.16058192642E-01  0.10192991085E+01  0.10190014680E+01 0.  0.
     999903    2    3    3    0    0  0.87655217896E-01  0.91729214271E-01  0.21202632459E-01  0.13036080286E+00  0.21135309876E-01 0.  0.
         14    1    1    2    0    0  0.11569128610E-01 -0.14661873279E-01 -0.16058192642E-01  0.24630891494E-01  0.00000000000E+00 0. -1.
     999901    1    3    3    0    0 -0.99224346506E-01 -0.77067340992E-01 -0.51444398174E-02  0.88893830565E+00  0.88000000000E+00 0.  1.
        -11    1    4    4    0    0  0.69534087216E-01  0.72765151259E-01  0.25371787586E-01  0.10379665336E+00  0.51100000000E-03 0.  1.
         11    1    4    4    0    0  0.18121130680E-01  0.18964063012E-01 -0.41691551266E-02  0.26564149497E-01  0.51100000000E-03 0. -1.
</event>
<event>
 8    1  0.1117714E+005  0.1043930E+01  0.7957747E-01            NaN
         13   -1    0    0    0    0  0.00000000000E+00  0.00000000000E+00  0.74505805969E-08  0.10566000000E+00  0.10566000000E+00 0.  1.
     999900   -1    0    0    0    0 -0.00000000000E+00 -0.00000000000E+00 -0.74505805969E-08  0.93827000000E+00  0.93827000000E+00 0.  1.
     999902    2    1    2    0    0 -0.49932595138E-02  0.21093520237E-01 -0.73032179847E-02  0.10210562983E+01  0.10208000578E+01 0.  0.
     999903    2    3    3    0    0 -0.44368822133E-01  0.20854801596E-01 -0.12152287593E+00  0.13280148003E+00  0.21561739173E-01 0.  0.
         14    1    1    2    0    0  0.49932595138E-02 -0.21093520237E-01  0.73032179847E-02  0.22873701700E-01  0.00000000000E+00 0. -1.
     999901    1    3    3    0    0  0.39375562619E-01  0.23871864101E-03  0.11421965795E+00  0.88825481827E+00  0.88000000000E+00 0. -1.
        -11    1    4    4    0    0 -0.18180154188E-01  0.16139911925E-01 -0.37760382607E-01  0.44912385584E-01  0.51100000000E-03 0. -1.
         11    1    4    4    0    0 -0.26188667945E-01  0.47148896703E-02 -0.83762493325E-01  0.87889094445E-01  0.51100000000E-03 0.  1.
</event>
<event>
 8    1  0.1117714E+005  0.1043930E+01  0.7957747E-01            NaN
         13   -1    0    0    0    0  0.00000000000E+00  0.00000000000E+00  0.74505805969E-08  0.10566000000E+00  0.10566000000E+00 0. -1.
     999900   -1    0    0    0    0 -0.00000000000E+00 -0.00000000000E+00 -0.74505805969E-08  0.93827000000E+00  0.93827000000E+00 0.  1.
     999902    2    1    2    0    0  0.17143553601E-01 -0.14269724788E-01  0.10410240936E-01  0.10193149722E+01  0.10190177197E+01 0.  0.
     999903    2    3    3    0    0  0.99815563213E-01  0.17719938934E-03 -0.79359015552E-01  0.13077578109E+00  0.29004715315E-01 0.  0.
         14    1    1    2    0    0 -0.17143553601E-01  0.14269724788E-01 -0.10410240936E-01  0.24615027767E-01  0.00000000000E+00 0. -1.
     999901    1    3    3    0    0 -0.82672009612E-01 -0.14446924177E-01  0.89769256489E-01  0.88853919115E+00  0.88000000000E+00 0. -1.
        -11    1    4    4    0    0  0.47188450867E-01  0.51178357326E-02 -0.20619602793E-01  0.51752983278E-01  0.51100000000E-03 0.  1.
         11    1    4    4    0    0  0.52627112345E-01 -0.49406363433E-02 -0.58739412760E-01  0.79022797809E-01  0.51100000000E-03 0. -1.
</event>
<event>
 8    1  0.1117714E+005  0.1043930E+01  0.7957747E-01            NaN
         13   -1    0    0    0    0  0.00000000000E+00  0.00000000000E+00  0.74505805969E-08  0.10566000000E+00  0.10566000000E+00 0. -1.
     999900   -1    0    0    0    0 -0.00000000000E+00 -0.00000000000E+00 -0.74505805969E-08  0.93827000000E+00  0.93827000000E+00 0. -1.
     999902    2    1    2    0    0 -0.29061184846E-02  0.22513616561E-01  0.10289737960E-02  0.10212062846E+01  0.10209534311E+01 0.  0.
     999903    2    3    3    0    0  0.63241120931E-01 -0.56683580030E-01  0.96519608321E-01  0.13004630202E+00  0.19584132814E-01 0.  0.
         14    1    1    2    0    0  0.29061184846E-02 -0.22513616561E-01 -0.10289737960E-02  0.22723715418E-01  0.00000000000E+00 0. -1.
     999901    1    3    3    0    0 -0.66147239416E-01  0.79197196591E-01 -0.95490634525E-01  0.89115998256E+00  0.88000000000E+00 0. -1.
        -11    1    4    4    0    0  0.44445870848E-01 -0.42566402465E-01  0.56046944168E-01  0.83239744869E-01  0.51100000000E-03 0.  1.
         11    1    4    4    0    0  0.18795250083E-01 -0.14117177565E-01  0.40472664153E-01  0.46806557156E-01  0.51100000000E-03 0. -1.
</event>
<event>
 8    1  0.1117714E+005  0.1043930E+01  0.7957747E-01            NaN
         13   -1    0    0    0    0  0.00000000000E+00  0.00000000000E+00  0.74505805969E-08  0.10566000000E+00  0.10566000000E+00 0. -1.
     999900   -1    0    0    0    0 -0.00000000000E+00 -0.00000000000E+00 -0.74505805969E-08  0.93827000000E+00  0.93827000000E+00 0. -1.
     999902    2    1    2    0    0  0.22561484069E-01 -0.44533823376E-02  0.54907193407E-02  0.10202867943E+01  0.10200128143E+01 0.  0.
     999903    2    3    3    0    0  0.93451098217E-02 -0.10125690559E+00  0.81209893987E-01  0.13164795422E+00  0.19895852893E-01 0.  0.
         14    1    1    2    0    0 -0.22561484069E-01  0.44533823376E-02 -0.54907193407E-02  0.23643205715E-01  0.00000000000E+00 0.  1.
     999901    1    3    3    0    0  0.13216374247E-01  0.96803523250E-01 -0.75719174646E-01  0.88863884006E+00  0.88000000000E+00 0. -1.
        -11    1    4    4    0    0  0.22724312082E-02 -0.74056803853E-01  0.48672472721E-01  0.88650126127E-01  0.51100000000E-03 0.  1.
         11    1    4    4    0    0  0.70726786135E-02 -0.27200101734E-01  0.32537421266E-01  0.42997828094E-01  0.51100000000E-03 0. -1.
</event>
<event>
 8    1  0.1117714E+005  0.1043930E+01  0.7957747E-01            NaN
         13   -1    0    0    0    0  0.00000000000E+00  0.00000000000E+00  0.74505805969E-08  0.10566000000E+00  0.10566000000E+00 0. -1.
     999900   -1    0    0    0    0 -0.00000000000E+00 -0.00000000000E+00 -0.74505805969E-08  0.93827000000E+00  0.93827000000E+00 0. -1.
     999902    2    1    2    0    0 -0.10508461209E-01 -0.21342225391E-01  0.13506242912E-02  0.10201026517E+01  0.10198243366E+01 0.  0.
     999903    2    3    3    0    0  0.41557916994E-01 -0.12262924044E+00 -0.18583365198E-01  0.13254007300E+00  0.21366759523E-01 0.  0.
         14    1    1    2    0    0  0.10508461209E-01  0.21342225391E-01 -0.13506242912E-02  0.23827348313E-01  0.00000000000E+00 0.  1.
     999901    1    3    3    0    0 -0.52066378203E-01  0.10128701505E+00  0.19933989490E-01  0.88756257869E+00  0.88000000000E+00 0.  1.
        -11    1    4    4    0    0  0.11926376626E-01 -0.58906778685E-01 -0.10692365895E-02  0.60113654209E-01  0.51100000000E-03 0. -1.
         11    1    4    4    0    0  0.29631540368E-01 -0.63722461753E-01 -0.17514128609E-01  0.72426418788E-01  0.51100000000E-03 0.  1.
</event>
<event>
 8    1  0.1117714E+005  0.1043930E+01  0.7957747E-01            NaN
         13   -1    0    0    0    0  0.00000000000E+00  0.00000000000E+00  0.74505805969E-08  0.10566000000E+00  0.10566000000E+00 0. -1.
     999900   -1    0    0    0    0 -0.00000000000E+00 -0.00000000000E+00 -0.74505805969E-08  0.93827000000E+00  0.93827000000E+00 0. -1.
     999902    2    1    2    0    0  0.23277571337E-01  0.65778263630E-02 -0.15706820069E-02  0.10196899470E+01  0.10194017892E+01 0.  0.
     999903    2    3    3    0    0  0.47588475275E-01 -0.10081163209E+00 -0.66246562638E-01  0.13047316502E+00  0.14387202103E-01 0.  0.
         14    1    1    2    0    0 -0.23277571337E-01 -0.65778263630E-02  0.15706820069E-02  0.24240052991E-01  0.00000000000E+00 0.  1.
     999901    1    3    3    0    0 -0.24310903938E-01  0.10738945846E+00  0.64675880631E-01  0.88921678199E+00  0.88000000000E+00 0.  1.
        -11    1    4    4    0    0  0.24665693062E-01 -0.52089019714E-01 -0.25906681523E-01  0.63190819409E-01  0.51100000000E-03 0.  1.
         11    1    4    4    0    0  0.22922782213E-01 -0.48722612379E-01 -0.40339881114E-01  0.67282345610E-01  0.51100000000E-03 0. -1.
</event>
<event>
 8    1  0.1117714E+005  0.1043930E+01  0.7957747E-01            NaN
         13   -1    0    0    0    0  0.00000000000E+00  0.00000000000E+00  0.74505805969E-08  0.10566000000E+00  0.10566000000E+00 0.  1.
     999900   -1    0    0    0    0 -0.00000000000E+00 -0.00000000000E+00 -0.74505805969E-08  0.93827000000E+00  0.93827000000E+00 0.  1.
     999902    2    1    2    0    0  0.14078747520E-01  0.81447056018E-03  0.20108881926E-01  0.10193690223E+01  0.10190730896E+01 0.  0.
     999903    2    3    3    0    0 -0.76984401016E-01  0.10091481199E+00  0.10688663059E-01  0.12897511176E+00  0.20246843129E-01 0.  0.
         14    1    1    2    0    0 -0.14078747520E-01 -0.81447056018E-03 -0.20108881926E-01  0.24560977715E-01  0.00000000000E+00 0. -1.
     999901    1    3    3    0    0  0.91063148535E-01 -0.10010034143E+00  0.94202188671E-02  0.89039391052E+00  0.88000000000E+00 0.  1.
        -11    1    4    4    0    0 -0.45559444803E-01  0.72740374221E-01  0.12447525547E-01  0.86729620463E-01  0.51100000000E-03 0. -1.
         11    1    4    4    0    0 -0.31424956213E-01  0.28174437770E-01 -0.17588624879E-02  0.42245491297E-01  0.51100000000E-03 0.  1.
</event>
<event>
 8    1  0.1117714E+005  0.1043930E+01  0.7957747E-01            NaN
         13   -1    0    0    0    0  0.00000000000E+00  0.00000000000E+00  0.74505805969E-08  0.10566000000E+00  0.10566000000E+00 0. -1.
     999900   -1    0    0    0    0 -0.00000000000E+00 -0.00000000000E+00 -0.74505805969E-08  0.93827000000E+00  0.93827000000E+00 0. -1.
     999902    2    1    2    0    0  0.11751580724E-02  0.20318664253E-01 -0.28467114905E-02  0.10233792608E+01  0.10231728977E+01 0.  0.
     999903    2    3    3    0    0  0.15013391804E-01 -0.87941727882E-01  0.94314837266E-01  0.13132983633E+00  0.19826445620E-01 0.  0.
         14    1    1    2    0    0 -0.11751580724E-02 -0.20318664253E-01  0.28467114905E-02  0.20550739155E-01  0.00000000000E+00 0. -1.
     999901    1    3    3    0    0 -0.13838233732E-01  0.10826039214E+00 -0.97161548756E-01  0.89204942451E+00  0.88000000000E+00 0. -1.
        -11    1    4    4    0    0 -0.38464352670E-02 -0.27219078684E-01  0.33563532369E-01  0.43387154029E-01  0.51100000000E-03 0.  1.
         11    1    4    4    0    0  0.18859827071E-01 -0.60722649198E-01  0.60751304897E-01  0.87942682302E-01  0.51100000000E-03 0. -1.
</event>
<event>
 8    1  0.1117714E+005  0.1043930E+01  0.7957747E-01            NaN
         13   -1    0    0    0    0  0.00000000000E+00  0.00000000000E+00  0.74505805969E-08  0.10566000000E+00  0.10566000000E+00 0. -1.
     999900   -1    0    0    0    0 -0.00000000000E+00 -0.00000000000E+00 -0.74505805969E-08  0.93827000000E+00  0.93827000000E+00 0. -1.
     999902    2    1    2    0    0 -0.18587548651E-01 -0.12149419260E-01  0.11098009325E-01  0.10191051906E+01  0.10188027867E+01 0.  0.
     999903    2    3    3    0    0 -0.66900525478E-01 -0.11206779049E+00 -0.17354952034E-02  0.13204119992E+00  0.19924772445E-01 0.  0.
         14    1    1    2    0    0  0.18587548651E-01  0.12149419260E-01 -0.11098009325E-01  0.24824809449E-01  0.00000000000E+00 0.  1.
     999901    1    3    3    0    0  0.48312976827E-01  0.99918371233E-01  0.12833504528E-01  0.88706399063E+00  0.88000000000E+00 0.  1.
        -11    1    4    4    0    0 -0.53750988350E-01 -0.75314603537E-01 -0.62642117595E-02  0.92741359298E-01  0.51100000000E-03 0. -1.
         11    1    4    4    0    0 -0.13149537128E-01 -0.36753186955E-01  0.45287165561E-02  0.39299840619E-01  0.51100000000E-03 0.  1.
</event>
<event>
 7    1  0.1117714E+005  0.1043930E+01  0.7957747E-01            NaN
         13   -1    0    0    0    0  0.00000000000E+00  0.00000000000E+00  0.74505805969E-08  0.10566000000E+00  0.10566000000E+00 0.  1.
     999900   -1    0    0    0    0 -0.00000000000E+00 -0.00000000000E+00 -0.74505805969E-08  0.93827000000E+00  0.93827000000E+00 0. -1.
     999902    2    1    2    0    0  0.90304501552E-02 -0.97657922058E-02  0.19436122726E-01  0.10203782996E+01  0.10201064609E+01 0.  0.
         14    1    1    2    0    0 -0.90304501552E-02  0.97657922058E-02 -0.19436122726E-01  0.23551700448E-01  0.00000000000E+00 0. -1.
     999901    1    3    3    0    0 -0.46451990617E-01 -0.74698578578E-02  0.12120876842E+00  0.88955334396E+00  0.88000000000E+00 0.  1.
        -11    1    3    3    0    0  0.24050602336E-01 -0.24656578350E-01 -0.18616711433E-01  0.39156371055E-01  0.51100000000E-03 0. -1.
         11    1    3    3    0    0  0.31431838436E-01  0.22360644002E-01 -0.83155934258E-01  0.91668584537E-01  0.51100000000E-03 0.  1.
</event>
<event>
 7    1  0.1117714E+005  0.1043930E+01  0.7957747E-01            NaN
         13   -1    0    0    0    0  0.00000000000E+00  0.00000000000E+00  0.74505805969E-08  0.10566000000E+00  0.10566000000E+00 0. -1.
     999900   -1    0    0    0    0 -0.00000000000E+00 -0.00000000000E+00 -0.74505805969E-08  0.93827000000E+00  0.93827000000E+00 0. -1.
     999903    2    1    2    0    0 -0.30750681621E-01 -0.80524299124E-01  0.70851703309E-01  0.11325552401E+00  0.19418617054E-01 0.  0.
         14    1    1    2    0    0  0.27424807060E-01 -0.26710871190E-01  0.12442179975E-01  0.40254174002E-01  0.00000000000E+00 0.  1.
     999901    1    1    2    0    0  0.33258745616E-02  0.10723517031E+00 -0.83293883284E-01  0.89042030198E+00  0.88000000000E+00 0. -1.
        -11    1    3    3    0    0 -0.11093609126E-01 -0.23251904854E-01  0.32906117128E-01  0.41794651671E-01  0.51100000000E-03 0. -1.
         11    1    3    3    0    0 -0.19657072495E-01 -0.57272394270E-01  0.37945586180E-01  0.71460872343E-01  0.51100000000E-03 0.  1.
</event>
<event>
 8    1  0.1117714E+005  0.1043930E+01  0.7957747E-01            NaN
         13   -1    0    0    0    0  0.00000000000E+00  0.00000000000E+00  0.74505805969E-08  0.10566000000E+00  0.10566000000E+00 0.  1.
     999900   -1    0    0    0    0 -0.00000000000E+00 -0.00000000000E+00 -0.74505805969E-08  0.93827000000E+00  0.93827000000E+00 0. -1.
     999902    2    1    2    0    0 -0.72212881457E-03  0.23993045491E-01  0.86799556141E-03  0.10199104014E+01  0.10196275230E+01 0.  0.
     999903    2    3    3    0    0  0.67291885951E-01 -0.10414672970E+00 -0.23080357308E-01  0.12771130263E+00  0.20068251166E-01 0.  0.
         14    1    1    2    0    0  0.72212881457E-03 -0.23993045491E-01 -0.86799556141E-03  0.24019598628E-01  0.00000000000E+00 0.  1.
     999901    1    3    3    0    0 -0.68014014765E-01  0.12813977519E+00  0.23948352870E-01  0.89219909874E+00  0.88000000000E+00 0. -1.
        -11    1    4    4    0    0  0.36646779323E-01 -0.54859685463E-01 -0.22376722803E-01  0.69667426882E-01  0.51100000000E-03 0.  1.
         11    1    4    4    0    0  0.30645106628E-01 -0.49287044233E-01 -0.70363450519E-03  0.58043875749E-01  0.51100000000E-03 0. -1.
</event>
<event>
 8    1  0.1117714E+005  0.1043930E+01  0.7957747E-01            NaN
         13   -1    0    0    0    0  0.00000000000E+00  0.00000000000E+00  0.74505805969E-08  0.10566000000E+00  0.10566000000E+00 0. -1.
     999900   -1    0    0    0    0 -0.00000000000E+00 -0.00000000000E+00 -0.74505805969E-08  0.93827000000E+00  0.93827000000E+00 0. -1.
     999902    2    1    2    0    0  0.16289476268E-01  0.15733565474E-02 -0.17729669188E-01  0.10198019322E+01  0.10195164624E+01 0.  0.
     999903    2    3    3    0    0 -0.57238398828E-01 -0.68652607344E-01 -0.93286919151E-01  0.13073110684E+00  0.19968931261E-01 0.  0.
         14    1    1    2    0    0 -0.16289476268E-01 -0.15733565474E-02  0.17729669188E-01  0.24128067835E-01  0.00000000000E+00 0.  1.
     999901    1    3    3    0    0  0.73527875095E-01  0.70225963892E-01  0.75557249963E-01  0.88907082532E+00  0.88000000000E+00 0.  1.
        -11    1    4    4    0    0 -0.37966360824E-01 -0.39086932329E-01 -0.43626171362E-01  0.69804991095E-01  0.51100000000E-03 0. -1.
         11    1    4    4    0    0 -0.19272038004E-01 -0.29565675015E-01 -0.49660747789E-01  0.60926115746E-01  0.51100000000E-03 0.  1.
</event>
<event>
 8    1  0.1117714E+005  0.1043930E+01  0.7957747E-01            NaN
         13   -1    0    0    0    0  0.00000000000E+00  0.00000000000E+00  0.74505805969E-08  0.10566000000E+00  0.10566000000E+00 0. -1.
     999900   -1    0    0    0    0 -0.00000000000E+00 -0.00000000000E+00 -0.74505805969E-08  0.93827000000E+00  0.93827000000E+00 0. -1.
     999902    2    1    2    0    0  0.16967237046E-01 -0.20004731275E-02 -0.15186527786E-01  0.10210713112E+01  0.10208154108E+01 0.  0.
     999903    2    3    3    0    0 -0.66816582693E-01 -0.10786887861E+00 -0.23523207655E-01  0.13073578574E+00  0.20936897545E-01 0.  0.
         14    1    1    2    0    0 -0.16967237046E-01  0.20004731275E-02  0.15186527786E-01  0.22858688762E-01  0.00000000000E+00 0. -1.
     999901    1    3    3    0    0  0.83783819739E-01  0.10586840549E+00  0.83366798685E-02  0.89033552550E+00  0.88000000000E+00 0.  1.
        -11    1    4    4    0    0 -0.43127444378E-01 -0.59008482456E-01 -0.22309578375E-01  0.76419603955E-01  0.51100000000E-03 0. -1.
         11    1    4    4    0    0 -0.23689138315E-01 -0.48860396159E-01 -0.12136292797E-02  0.54316181787E-01  0.51100000000E-03 0.  1.
</event>
<event>
 8    1  0.1117714E+005  0.1043930E+01  0.7957747E-01            NaN
         13   -1    0    0    0    0  0.00000000000E+00  0.00000000000E+00  0.74505805969E-08  0.10566000000E+00  0.10566000000E+00 0. -1.
     999900   -1    0    0    0    0 -0.00000000000E+00 -0.00000000000E+00 -0.74505805969E-08  0.93827000000E+00  0.93827000000E+00 0.  1.
     999902    2    1    2    0    0 -0.60252830098E-02 -0.23949028844E-01  0.18449858406E-02  0.10191658325E+01  0.10188649224E+01 0.  0.
     999903    2    3    3    0    0  0.29341963711E-02 -0.99064714428E-01  0.84942732827E-01  0.13201991778E+00  0.19787968015E-01 0.  0.
         14    1    1    2    0    0  0.60252830098E-02  0.23949028844E-01 -0.18449858406E-02  0.24764167474E-01  0.00000000000E+00 0.  1.
     999901    1    3    3    0    0 -0.89594793809E-02  0.75115685584E-01 -0.83097746986E-01  0.88714591474E+00  0.88000000000E+00 0.  1.
        -11    1    4    4    0    0  0.96155641343E-02 -0.28714150214E-01  0.22701272532E-01  0.37849311641E-01  0.51100000000E-03 0. -1.
         11    1    4    4    0    0 -0.66813677632E-02 -0.70350564214E-01  0.62241460295E-01  0.94170606141E-01  0.51100000000E-03 0.  1.
</event>
<event>
 8    1  0.1117714E+005  0.1043930E+01  0.7957747E-01            NaN
         13   -1    0    0    0    0  0.00000000000E+00  0.00000000000E+00  0.74505805969E-08  0.10566000000E+00  0.10566000000E+00 0.  1.
     999900   -1    0    0    0    0 -0.00000000000E+00 -0.00000000000E+00 -0.74505805969E-08  0.93827000000E+00  0.93827000000E+00 0.  1.
     999902    2    1    2    0    0  0.15946105282E-01  0.89327482798E-02  0.15540223643E-01  0.10199389430E+01  0.10196567445E+01 0.  0.
     999903    2    3    3    0    0 -0.21883529784E-01 -0.91073110048E-01 -0.84852374384E-01  0.12780054189E+00  0.18969786981E-01 0.  0.
         14    1    1    2    0    0 -0.15946105282E-01 -0.89327482798E-02 -0.15540223643E-01  0.23991057008E-01  0.00000000000E+00 0. -1.
     999901    1    3    3    0    0  0.37829635066E-01  0.10000585833E+00  0.10039259803E+00  0.89213840111E+00  0.88000000000E+00 0. -1.
        -11    1    4    4    0    0 -0.14519656731E-01 -0.25068758617E-01 -0.22262277324E-01  0.36539474584E-01  0.51100000000E-03 0.  1.
         11    1    4    4    0    0 -0.73638730525E-02 -0.66004351431E-01 -0.62590097060E-01  0.91261067302E-01  0.51100000000E-03 0. -1.
</event>
<event>
 8    1  0.1117714E+005  0.1043930E+01  0.7957747E-01            NaN
         13   -1    0    0    0    0  0.00000000000E+00  0.00000000000E+00  0.74505805969E-08  0.10566000000E+00  0.10566000000E+00 0.  1.
     999900   -1    0    0    0    0 -0.00000000000E+00 -0.00000000000E+00 -0.74505805969E-08  0.93827000000E+00  0.93827000000E+00 0. -1.
     999902    2    1    2    0    0 -0.84390349439E-02 -0.25091340854E-01  0.87800090130E-02  0.10160394773E+01  0.10156566045E+01 0.  0.
     999903    2    3    3    0    0 -0.77703565960E-01  0.79076429204E-01  0.56200072986E-01  0.12592871903E+00  0.20215544853E-01 0.  0.
         14    1    1    2    0    0  0.84390349439E-02  0.25091340854E-01 -0.87800090130E-02  0.27890522672E-01  0.00000000000E+00 0.  1.
     999901    1    3    3    0    0  0.69264531016E-01 -0.10416777006E+00 -0.47420063973E-01  0.89011075830E+00  0.88000000000E+00 0. -1.
        -11    1    4    4    0    0 -0.28859623245E-01  0.41200532513E-01  0.31572590578E-01  0.59392350770E-01  0.51100000000E-03 0. -1.
         11    1    4    4    0    0 -0.48843942715E-01  0.37875896691E-01  0.24627482408E-01  0.66536368257E-01  0.51100000000E-03 0.  1.
</event>
<event>
 8    1  0.1117714E+005  0.1043930E+01  0.7957747E-01            NaN
         13   -1    0    0    0    0  0.00000000000E+00  0.00000000000E+00  0.74505805969E-08  0.10566000000E+00  0.10566000000E+00 0.  1.
     999900   -1    0    0    0    0 -0.00000000000E+00 -0.00000000000E+00 -0.74505805969E-08  0.93827000000E+00  0.93827000000E+00 0. -1.
     999902    2    1    2    0    0  0.21329212502E-03  0.33995439660E-02  0.31585991357E-01  0.10121608760E+01  0.10116621776E+01 0.  0.
     999903    2    3    3    0    0  0.41990744839E-01 -0.62740240730E-01 -0.91352846775E-01  0.12017781300E+00  0.19945016029E-01 0.  0.
         14    1    1    2    0    0 -0.21329212502E-03 -0.33995439660E-02 -0.31585991357E-01  0.31769124047E-01  0.00000000000E+00 0. -1.
     999901    1    3    3    0    0 -0.41777452714E-01  0.66139784696E-01  0.12293883813E+00  0.89198306295E+00  0.88000000000E+00 0.  1.
        -11    1    4    4    0    0  0.79192390858E-02 -0.29079011499E-01 -0.33302611663E-01  0.44918017788E-01  0.51100000000E-03 0.  1.
         11    1    4    4    0    0  0.34071505754E-01 -0.33661229231E-01 -0.58050235112E-01  0.75259795211E-01  0.51100000000E-03 0. -1.
</event>
<event>
 8    1  0.1117714E+005  0.1043930E+01  0.7957747E-01            NaN
         13   -1    0    0    0    0  0.00000000000E+00  0.00000000000E+00  0.74505805969E-08  0.10566000000E+00  0.10566000000E+00 0.  1.
     999900   -1    0    0    0    0 -0.00000000000E+00 -0.00000000000E+00 -0.74505805969E-08  0.93827000000E+00  0.93827000000E+00 0.  1.
     999902    2    1    2    0    0 -0.23122078748E-01  0.62353626402E-02 -0.20411513676E-02  0.10198950968E+01  0.10196118536E+01 0.  0.
     999903    2    3    3    0    0  0.41615937235E-01 -0.10381169054E+00  0.60675630012E-01  0.12847221214E+00  0.17743277304E-01 0.  0.
         14    1    1    2    0    0  0.23122078748E-01 -0.62353626402E-02  0.20411513676E-02  0.24034903199E-01  0.00000000000E+00 0.  1.
     999901    1    3    3    0    0 -0.64738015983E-01  0.11004705318E+00 -0.62716781379E-01  0.89142288466E+00  0.88000000000E+00 0.  1.
        -11    1    4    4    0    0  0.35488810308E-01 -0.69390229947E-01  0.37252377946E-01  0.86385533817E-01  0.51100000000E-03 0.  1.
         11    1    4    4    0    0  0.61271269271E-02 -0.34421460598E-01  0.23423252066E-01  0.42086678325E-01  0.51100000000E-03 0. -1.
</event>
<event>
 8    1  0.1117714E+005  0.1043930E+01  0.7957747E-01            NaN
         13   -1    0    0    0    0  0.00000000000E+00  0.00000000000E+00  0.74505805969E-08  0.10566000000E+00  0.10566000000E+00 0.  1.
     999900   -1    0    0    0    0 -0.00000000000E+00 -0.00000000000E+00 -0.74505805969E-08  0.93827000000E+00  0.93827000000E+00 0. -1.
     999902    2    1    2    0    0  0.11692198734E-01 -0.61448548461E-02 -0.18163949797E-01  0.10214712417E+01  0.10212243151E+01 0.  0.
     999903    2    3    3    0    0  0.50209913505E-01  0.13491290391E-01 -0.12226432960E+00  0.13428124985E+00  0.19489418647E-01 0.  0.
         14    1    1    2    0    0 -0.11692198734E-01  0.61448548461E-02  0.18163949797E-01  0.22458758303E-01  0.00000000000E+00 0.  1.
     999901    1    3    3    0    0 -0.38517714771E-01 -0.19636145237E-01  0.10410037980E+00  0.88718999184E+00  0.88000000000E+00 0.  1.
        -11    1    4    4    0    0  0.46212713463E-01  0.12555507504E-01 -0.91836226553E-01  0.10357320736E+00  0.51100000000E-03 0. -1.
         11    1    4    4    0    0  0.39972000423E-02  0.93578288683E-03 -0.30428103047E-01  0.30708042494E-01  0.51100000000E-03 0.  1.
</event>
<event>
 8    1  0.1117714E+005  0.1043930E+01  0.7957747E-01            NaN
         13   -1    0    0    0    0  0.00000000000E+00  0.00000000000E+00  0.74505805969E-08  0.10566000000E+00  0.10566000000E+00 0.  1.
     999900   -1    0    0    0    0 -0.00000000000E+00 -0.00000000000E+00 -0.74505805969E-08  0.93827000000E+00  0.93827000000E+00 0. -1.
     999902    2    1    2    0    0  0.18491001523E-01 -0.50309180501E-02 -0.12634598765E-01  0.10209765610E+01  0.10207185106E+01 0.  0.
     999903    2    3    3    0    0 -0.97566078899E-01 -0.80225959897E-01  0.20057323407E-01  0.12957749104E+00  0.20801095382E-01 0.  0.
         14    1    1    2    0    0 -0.18491001523E-01  0.50309180501E-02  0.12634598765E-01  0.22953438952E-01  0.00000000000E+00 0. -1.
     999901    1    3    3    0    0  0.11605708042E+00  0.75195041847E-01 -0.32691922171E-01  0.89139907001E+00  0.88000000000E+00 0.  1.
        -11    1    4    4    0    0 -0.39909117727E-01 -0.24329264830E-01 -0.25050800320E-03  0.46743712735E-01  0.51100000000E-03 0. -1.
         11    1    4    4    0    0 -0.57656961172E-01 -0.55896695067E-01  0.20307831410E-01  0.82833778306E-01  0.51100000000E-03 0.  1.
</event>
<event>
 8    1  0.1117714E+005  0.1043930E+01  0.7957747E-01            NaN
         13   -1    0    0    0    0  0.00000000000E+00  0.00000000000E+00  0.74505805969E-08  0.10566000000E+00  0.10566000000E+00 0. -1.
     999900   -1    0    0    0    0 -0.00000000000E+00 -0.00000000000E+00 -0.74505805969E-08  0.93827000000E+00  0.93827000000E+00 0.  1.
     999902    2    1    2    0    0 -0.11445408275E-01  0.18836752427E-02  0.20907550689E-01  0.10200203518E+01  0.10197400878E+01 0.  0.
     999903    2    3    3    0    0 -0.34822506787E-01 -0.45230618442E-01 -0.11316289211E+00  0.12831348903E+00  0.20002387193E-01 0.  0.
         14    1    1    2    0    0  0.11445408275E-01 -0.18836752427E-02 -0.20907550689E-01  0.23909648237E-01  0.00000000000E+00 0.  1.
     999901    1    3    3    0    0  0.23377098513E-01  0.47114293685E-01  0.13407044280E+00  0.89170686273E+00  0.88000000000E+00 0. -1.
        -11    1    4    4    0    0 -0.23201253728E-01 -0.42670185231E-01 -0.90458265636E-01  0.10267425103E+00  0.51100000000E-03 0.  1.
         11    1    4    4    0    0 -0.11621253059E-01 -0.25604332104E-02 -0.22704626477E-01  0.25639238002E-01  0.51100000000E-03 0. -1.
</event>
<event>
 8    1  0.1117714E+005  0.1043930E+01  0.7957747E-01            NaN
         13   -1    0    0    0    0  0.00000000000E+00  0.00000000000E+00  0.74505805969E-08  0.10566000000E+00  0.10566000000E+00 0. -1.
     999900   -1    0    0    0    0 -0.00000000000E+00 -0.00000000000E+00 -0.74505805969E-08  0.93827000000E+00  0.93827000000E+00 0. -1.
     999902    2    1    2    0    0  0.76358935100E-03 -0.21877723231E-01 -0.12549798642E-01  0.10186967820E+01  0.10183842195E+01 0.  0.
     999903    2    3    3    0    0 -0.49037990861E-01 -0.89834378209E-01  0.77810603070E-01  0.13006676536E+00  0.19696026153E-01 0.  0.
         14    1    1    2    0    0 -0.76358935100E-03  0.21877723231E-01  0.12549798642E-01  0.25233217956E-01  0.00000000000E+00 0. -1.
     999901    1    3    3    0    0  0.49801580212E-01  0.67956654978E-01 -0.90360401712E-01  0.88863001668E+00  0.88000000000E+00 0. -1.
        -11    1    4    4    0    0 -0.89079296233E-02 -0.10185395895E-01  0.35214233349E-02  0.13991248801E-01  0.51100000000E-03 0. -1.
         11    1    4    4    0    0 -0.40130061237E-01 -0.79648982314E-01  0.74289179735E-01  0.11607551656E+00  0.51100000000E-03 0.  1.
</event>
<event>
 8    1  0.1117714E+005  0.1043930E+01  0.7957747E-01            NaN
         13   -1    0    0    0    0  0.00000000000E+00  0.00000000000E+00  0.74505805969E-08  0.10566000000E+00  0.10566000000E+00 0.  1.
     999900   -1    0    0    0    0 -0.00000000000E+00 -0.00000000000E+00 -0.74505805969E-08  0.93827000000E+00  0.93827000000E+00 0. -1.
     999902    2    1    2    0    0 -0.15305334253E-01  0.13401367526E-01  0.10971830190E-01  0.10208165631E+01  0.10205548611E+01 0.  0.
     999903    2    3    3    0    0 -0.11994954657E+00 -0.39851081533E-01  0.35554479239E-01  0.13267775573E+00  0.19059471377E-01 0.  0.
         14    1    1    2    0    0  0.15305334253E-01 -0.13401367526E-01 -0.10971830190E-01  0.23113436912E-01  0.00000000000E+00 0. -1.
     999901    1    3    3    0    0  0.10464421232E+00  0.53252449059E-01 -0.24582649049E-01  0.88813880736E+00  0.88000000000E+00 0.  1.
        -11    1    4    4    0    0 -0.11519944710E+00 -0.41241536652E-01  0.36334993638E-01  0.12764117612E+00  0.51100000000E-03 0.  1.
         11    1    4    4    0    0 -0.47500994751E-02  0.13904551190E-02 -0.78051439908E-03  0.50365796120E-02  0.51100000000E-03 0. -1.
</event>
<event>
 7    1  0.1117714E+005  0.1043930E+01  0.7957747E-01            NaN
         13   -1    0    0    0    0  0.00000000000E+00  0.00000000000E+00  0.74505805969E-08  0.10566000000E+00  0.10566000000E+00 0. -1.
     999900   -1    0    0    0    0 -0.00000000000E+00 -0.00000000000E+00 -0.74505805969E-08  0.93827000000E+00  0.93827000000E+00 0.  1.
     999902    2    1    2    0    0  0.21830376370E-01  0.24526115509E-02 -0.13737937579E-01  0.10180203191E+01  0.10176905515E+01 0.  0.
         14    1    1    2    0    0 -0.21830376370E-01 -0.24526115509E-02  0.13737937579E-01  0.25909680909E-01  0.00000000000E+00 0. -1.
     999901    1    3    3    0    0  0.79987268297E-01  0.23320979608E-01  0.74507963451E-01  0.88707004673E+00  0.88000000000E+00 0.  1.
        -11    1    3    3    0    0 -0.61384050966E-01  0.83346142444E-02 -0.37803850490E-01  0.72573133737E-01  0.51100000000E-03 0.  1.
         11    1    3    3    0    0  0.32271590384E-02 -0.29202982301E-01 -0.50442050540E-01  0.58377138628E-01  0.51100000000E-03 0. -1.
</event>
<event>
 8    1  0.1117714E+005  0.1043930E+01  0.7957747E-01            NaN
         13   -1    0    0    0    0  0.00000000000E+00  0.00000000000E+00  0.74505805969E-08  0.10566000000E+00  0.10566000000E+00 0. -1.
     999900   -1    0    0    0    0 -0.00000000000E+00 -0.00000000000E+00 -0.74505805969E-08  0.93827000000E+00  0.93827000000E+00 0. -1.
     999902    2    1    2    0    0  0.28083476887E-02  0.61392539284E-02 -0.22917628052E-01  0.10200386850E+01  0.10197588558E+01 0.  0.
     999903    2    3    3    0    0 -0.38380286751E-01 -0.66522025406E-01 -0.10624848694E+00  0.13216470908E+00  0.16749420087E-01 0.  0.
         14    1    1    2    0    0 -0.28083476887E-02 -0.61392539284E-02  0.22917628052E-01  0.23891314971E-01  0.00000000000E+00 0. -1.
     999901    1    3    3    0    0  0.41188634440E-01  0.72661279334E-01  0.83330858892E-01  0.88787397595E+00  0.88000000000E+00 0. -1.
        -11    1    4    4    0    0 -0.35994577696E-01 -0.49474027070E-01 -0.86655238955E-01  0.10607865260E+00  0.51100000000E-03 0. -1.
         11    1    4    4    0    0 -0.23857090553E-02 -0.17047998336E-01 -0.19593247989E-01  0.26086056481E-01  0.51100000000E-03 0.  1.
</event>
<event>
 8    1  0.1117714E+005  0.1043930E+01  0.7957747E-01            NaN
         13   -1    0    0    0    0  0.00000000000E+00  0.00000000000E+00  0.74505805969E-08  0.10566000000E+00  0.10566000000E+00 0. -1.
     999900   -1    0    0    0    0 -0.00000000000E+00 -0.00000000000E+00 -0.74505805969E-08  0.93827000000E+00  0.93827000000E+00 0. -1.
     999902    2    1    2    0    0  0.11958949176E-01 -0.10844936113E-01 -0.15851520304E-01  0.10213047972E+01  0.10210541558E+01 0.  0.
     999903    2    3    3    0    0 -0.10473937031E+00 -0.29342991594E-01 -0.70720425582E-01  0.13171428885E+00  0.22714058294E-01 0.  0.
         14    1    1    2    0    0 -0.11958949176E-01  0.10844936113E-01  0.15851520304E-01  0.22625202776E-01  0.00000000000E+00 0. -1.
     999901    1    3    3    0    0  0.11669831948E+00  0.18498055481E-01  0.54868905278E-01  0.88959050838E+00  0.88000000000E+00 0.  1.
        -11    1    4    4    0    0 -0.34777499783E-01  0.10073286722E-02 -0.20175329033E-01  0.40221812798E-01  0.51100000000E-03 0. -1.
         11    1    4    4    0    0 -0.69961870524E-01 -0.30350320266E-01 -0.50545096550E-01  0.91492476049E-01  0.51100000000E-03 0.  1.
</event>
<event>
 8    1  0.1117714E+005  0.1043930E+01  0.7957747E-01            NaN
         13   -1    0    0    0    0  0.00000000000E+00  0.00000000000E+00  0.74505805969E-08  0.10566000000E+00  0.10566000000E+00 0.  1.
     999900   -1    0    0    0    0 -0.00000000000E+00 -0.00000000000E+00 -0.74505805969E-08  0.93827000000E+00  0.93827000000E+00 0. -1.
     999902    2    1    2    0    0  0.29223215565E-02 -0.14965611549E-01 -0.18555169536E-01  0.10199132598E+01  0.10196304496E+01 0.  0.
     999903    2    3    3    0    0  0.63107469101E-01  0.97295886580E-01  0.50415035160E-01  0.12807146607E+00  0.20287494896E-01 0.  0.
         14    1    1    2    0    0 -0.29223215565E-02  0.14965611549E-01  0.18555169536E-01  0.24016740179E-01  0.00000000000E+00 0. -1.
     999901    1    3    3    0    0 -0.60185147544E-01 -0.11226149813E+00 -0.68970204696E-01  0.89184179375E+00  0.88000000000E+00 0. -1.
        -11    1    4    4    0    0  0.26512170461E-01  0.40474613217E-01  0.32027930222E-01  0.58027053457E-01  0.51100000000E-03 0. -1.
         11    1    4    4    0    0  0.36595298640E-01  0.56821273363E-01  0.18387104938E-01  0.70044412612E-01  0.51100000000E-03 0.  1.
</event>
<event>
 8    1  0.1117714E+005  0.1043930E+01  0.7957747E-01            NaN
         13   -1    0    0    0    0  0.00000000000E+00  0.00000000000E+00  0.74505805969E-08  0.10566000000E+00  0.10566000000E+00 0.  1.
     999900   -1    0    0    0    0 -0.00000000000E+00 -0.00000000000E+00 -0.74505805969E-08  0.93827000000E+00  0.93827000000E+00 0.  1.
     999902    2    1    2    0    0 -0.17728749185E-01 -0.80852247549E-02  0.11416253423E-01  0.10213465935E+01  0.10210968876E+01 0.  0.
     999903    2    3    3    0    0 -0.15333927028E-01 -0.41730479662E-01  0.12424809995E+00  0.13350158228E+00  0.20211874732E-01 0.  0.
         14    1    1    2    0    0  0.17728749185E-01  0.80852247549E-02 -0.11416253423E-01  0.22583406502E-01  0.00000000000E+00 0. -1.
     999901    1    3    3    0    0 -0.23948221576E-02  0.33645254908E-01 -0.11283184652E+00  0.88784501122E+00  0.88000000000E+00 0.  1.
        -11    1    4    4    0    0 -0.91653320872E-02 -0.41468340169E-01  0.10438633236E+00  0.11269602501E+00  0.51100000000E-03 0.  1.
         11    1    4    4    0    0 -0.61685949407E-02 -0.26213949379E-03  0.19861767590E-01  0.20805557273E-01  0.51100000000E-03 0. -1.
</event>
<event>
 8    1  0.1117714E+005  0.1043930E+01  0.7957747E-01            NaN
         13   -1    0    0    0    0  0.00000000000E+00  0.00000000000E+00  0.74505805969E-08  0.10566000000E+00  0.10566000000E+00 0. -1.
     999900   -1    0    0    0    0 -0.00000000000E+00 -0.00000000000E+00 -0.74505805969E-08  0.93827000000E+00  0.93827000000E+00 0.  1.
     999902    2    1    2    0    0  0.11574280311E-01  0.19469320980E-01  0.10000573708E-01  0.10191705594E+01  0.10188697656E+01 0.  0.
     999903    2    3    3    0    0  0.88132290653E-01 -0.63047127077E-01 -0.66534386541E-01  0.12870568458E+00  0.19901953764E-01 0.  0.
         14    1    1    2    0    0 -0.11574280311E-01 -0.19469320980E-01 -0.10000573708E-01  0.24759440596E-01  0.00000000000E+00 0.  1.
     999901    1    3    3    0    0 -0.76558010342E-01  0.82516448057E-01  0.76534960249E-01  0.89046487482E+00  0.88000000000E+00 0. -1.
        -11    1    4    4    0    0  0.41495781515E-01 -0.18171786666E-01 -0.30696835159E-01  0.54723582887E-01  0.51100000000E-03 0. -1.
         11    1    4    4    0    0  0.46636509137E-01 -0.44875340411E-01 -0.35837551382E-01  0.73982101698E-01  0.51100000000E-03 0.  1.
</event>
<event>
 8    1  0.1117714E+005  0.1043930E+01  0.7957747E-01            NaN
         13   -1    0    0    0    0  0.00000000000E+00  0.00000000000E+00  0.74505805969E-08  0.10566000000E+00  0.10566000000E+00 0.  1.
     999900   -1    0    0    0    0 -0.00000000000E+00 -0.00000000000E+00 -0.74505805969E-08  0.93827000000E+00  0.93827000000E+00 0. -1.
     999902    2    1    2    0    0 -0.99654047959E-02 -0.19072694872E-01  0.10087038758E-01  0.10201639458E+01  0.10198870775E+01 0.  0.
     999903    2    3    3    0    0  0.11576954677E+00  0.22645588517E-01 -0.47304452654E-01  0.12839969638E+00  0.18258152987E-01 0.  0.
         14    1    1    2    0    0  0.99654047959E-02  0.19072694872E-01 -0.10087038758E-01  0.23766054223E-01  0.00000000000E+00 0. -1.
     999901    1    3    3    0    0 -0.12573495157E+00 -0.41718283389E-01  0.57391491412E-01  0.89176424940E+00  0.88000000000E+00 0. -1.
        -11    1    4    4    0    0  0.18984274202E-01  0.38832809676E-02 -0.81832600963E-03  0.19401374088E-01  0.51100000000E-03 0.  1.
         11    1    4    4    0    0  0.96785272570E-01  0.18762307550E-01 -0.46486126645E-01  0.10899832229E+00  0.51100000000E-03 0. -1.
</event>
<event>
 8    1  0.1117714E+005  0.1043930E+01  0.7957747E-01            NaN
         13   -1    0    0    0    0  0.00000000000E+00  0.00000000000E+00  0.74505805969E-08  0.10566000000E+00  0.10566000000E+00 0. -1.
     999900   -1    0    0    0    0 -0.00000000000E+00 -0.00000000000E+00 -0.74505805969E-08  0.93827000000E+00  0.93827000000E+00 0.  1.
     999902    2    1    2    0    0 -0.28844519199E-02  0.12557092720E-01  0.20168500564E-01  0.10199974060E+01  0.10197165975E+01 0.  0.
     999903    2    3    3    0    0 -0.11131238511E+00  0.28770482931E-01 -0.57000774944E-01  0.12984315656E+00  0.19798211866E-01 0.  0.
         14    1    1    2    0    0  0.28844519199E-02 -0.12557092720E-01 -0.20168500564E-01  0.23932593998E-01  0.00000000000E+00 0.  1.
     999901    1    3    3    0    0  0.10842793319E+00 -0.16213390210E-01  0.77169275508E-01  0.89015424944E+00  0.88000000000E+00 0. -1.
        -11    1    4    4    0    0 -0.86455683618E-01  0.24144674580E-01 -0.35080721157E-01  0.96376701844E-01  0.51100000000E-03 0.  1.
         11    1    4    4    0    0 -0.24856701496E-01  0.46258083505E-02 -0.21920053786E-01  0.33466454715E-01  0.51100000000E-03 0. -1.
</event>
<event>
 8    1  0.1117714E+005  0.1043930E+01  0.7957747E-01            NaN
         13   -1    0    0    0    0  0.00000000000E+00  0.00000000000E+00  0.74505805969E-08  0.10566000000E+00  0.10566000000E+00 0. -1.
     999900   -1    0    0    0    0 -0.00000000000E+00 -0.00000000000E+00 -0.74505805969E-08  0.93827000000E+00  0.93827000000E+00 0.  1.
     999902    2    1    2    0    0  0.19921420631E-01 -0.10994690940E-01 -0.67316816165E-02  0.10202010774E+01  0.10199250838E+01 0.  0.
     999903    2    3    3    0    0 -0.83393868644E-01  0.40852552821E-01  0.85519940521E-01  0.12786002858E+00  0.20274572301E-01 0.  0.
         14    1    1    2    0    0 -0.19921420631E-01  0.10994690940E-01  0.67316816165E-02  0.23728922567E-01  0.00000000000E+00 0.  1.
     999901    1    3    3    0    0  0.10331528927E+00 -0.51847243761E-01 -0.92251622137E-01  0.89234104885E+00  0.88000000000E+00 0.  1.
        -11    1    4    4    0    0 -0.17694661330E-01  0.14540477877E-01  0.12200317538E-01  0.25954487194E-01  0.51100000000E-03 0. -1.
         11    1    4    4    0    0 -0.65699207313E-01  0.26312074945E-01  0.73319622983E-01  0.10190554138E+00  0.51100000000E-03 0.  1.
</event>
<event>
 8    1  0.1117714E+005  0.1043930E+01  0.7957747E-01            NaN
         13   -1    0    0    0    0  0.00000000000E+00  0.00000000000E+00  0.74505805969E-08  0.10566000000E+00  0.10566000000E+00 0. -1.
     999900   -1    0    0    0    0 -0.00000000000E+00 -0.00000000000E+00 -0.74505805969E-08  0.93827000000E+00  0.93827000000E+00 0.  1.
     999902    2    1    2    0    0  0.21046968941E-01 -0.83366054815E-02 -0.83025847357E-02  0.10198176213E+01  0.10195325272E+01 0.  0.
     999903    2    3    3    0    0 -0.70186917869E-01 -0.68734779505E-01  0.80617164489E-01  0.12859470681E+00  0.19667182232E-01 0.  0.
         14    1    1    2    0    0 -0.21046968941E-01  0.83366054815E-02  0.83025847357E-02  0.24112378685E-01  0.00000000000E+00 0. -1.
     999901    1    3    3    0    0  0.91233886810E-01  0.60398174024E-01 -0.88919749225E-01  0.89122291450E+00  0.88000000000E+00 0.  1.
        -11    1    4    4    0    0 -0.26228232190E-01 -0.16401890717E-01  0.17411157871E-01  0.35501432680E-01  0.51100000000E-03 0.  1.
         11    1    4    4    0    0 -0.43958685678E-01 -0.52332888788E-01  0.63206006619E-01  0.93093274135E-01  0.51100000000E-03 0. -1.
</event>
<event>
 8    1  0.1117714E+005  0.1043930E+01  0.7957747E-01            NaN
         13   -1    0    0    0    0  0.00000000000E+00  0.00000000000E+00  0.74505805969E-08  0.10566000000E+00  0.10566000000E+00 0. -1.
     999900   -1    0    0    0    0 -0.00000000000E+00 -0.00000000000E+00 -0.74505805969E-08  0.93827000000E+00  0.93827000000E+00 0.  1.
     999902    2    1    2    0    0  0.12148815837E-01  0.16049590313E-01  0.13183979465E-01  0.10198675731E+01  0.10195836730E+01 0.  0.
     999903    2    3    3    0    0  0.11281780644E+00 -0.58630635494E-01  0.24326094498E-01  0.13091564606E+00  0.19538133009E-01 0.  0.
         14    1    1    2    0    0 -0.12148815837E-01 -0.16049590313E-01 -0.13183979465E-01  0.24062426934E-01  0.00000000000E+00 0.  1.
     999901    1    3    3    0    0 -0.10066899061E+00  0.74680225807E-01 -0.11142115034E-01  0.88895192700E+00  0.88000000000E+00 0.  1.
        -11    1    4    4    0    0  0.67710421763E-01 -0.44012468825E-01  0.99813647033E-02  0.81373751233E-01  0.51100000000E-03 0. -1.
         11    1    4    4    0    0  0.45107384679E-01 -0.14618166669E-01  0.14344729795E-01  0.49541894829E-01  0.51100000000E-03 0.  1.
</event>
<event>
 8    1  0.1117714E+005  0.1043930E+01  0.7957747E-01            NaN
         13   -1    0    0    0    0  0.00000000000E+00  0.00000000000E+00  0.74505805969E-08  0.10566000000E+00  0.10566000000E+00 0. -1.
     999900   -1    0    0    0    0 -0.00000000000E+00 -0.00000000000E+00 -0.74505805969E-08  0.93827000000E+00  0.93827000000E+00 0. -1.
     999902    2    1    2    0    0  0.14632156205E-01 -0.17923262909E-01 -0.57750543839E-02  0.10200826815E+01  0.10198038941E+01 0.  0.
     999903    2    3    3    0    0  0.59477980430E-01 -0.11646073286E+00  0.15187238254E-01  0.13320039014E+00  0.20272130454E-01 0.  0.
         14    1    1    2    0    0 -0.14632156205E-01  0.17923262909E-01  0.57750543839E-02  0.23847318542E-01  0.00000000000E+00 0. -1.
     999901    1    3    3    0    0 -0.44845824226E-01  0.98537469956E-01 -0.20962292638E-01  0.88688229132E+00  0.88000000000E+00 0. -1.
        -11    1    4    4    0    0  0.20243581956E-01 -0.61095157985E-01  0.46998722467E-02  0.64535035909E-01  0.51100000000E-03 0. -1.
         11    1    4    4    0    0  0.39234398474E-01 -0.55365574880E-01  0.10487366008E-01  0.68665354234E-01  0.51100000000E-03 0.  1.
</event>
<event>
 8    1  0.1117714E+005  0.1043930E+01  0.7957747E-01            NaN
         13   -1    0    0    0    0  0.00000000000E+00  0.00000000000E+00  0.74505805969E-08  0.10566000000E+00  0.10566000000E+00 0.  1.
     999900   -1    0    0    0    0 -0.00000000000E+00 -0.00000000000E+00 -0.74505805969E-08  0.93827000000E+00  0.93827000000E+00 0. -1.
     999902    2    1    2    0    0 -0.15247982564E-01  0.13074554945E-01 -0.13141450852E-01  0.10199270275E+01  0.10196445453E+01 0.  0.
     999903    2    3    3    0    0  0.63557194829E-01  0.10432938435E+00 -0.43576645290E-01  0.13118409449E+00  0.19652103686E-01 0.  0.
         14    1    1    2    0    0  0.15247982564E-01 -0.13074554945E-01  0.13141450852E-01  0.24002972520E-01  0.00000000000E+00 0. -1.
     999901    1    3    3    0    0 -0.78805177394E-01 -0.91254829407E-01  0.30435194437E-01  0.88874293299E+00  0.88000000000E+00 0.  1.
        -11    1    4    4    0    0  0.23129085662E-01  0.24728659049E-01 -0.63496652380E-02  0.34453454857E-01  0.51100000000E-03 0.  1.
         11    1    4    4    0    0  0.40428109167E-01  0.79600725303E-01 -0.37226980052E-01  0.96730639636E-01  0.51100000000E-03 0. -1.
</event>
<event>
 8    1  0.1117714E+005  0.1043930E+01  0.7957747E-01            NaN
         13   -1    0    0    0    0  0.00000000000E+00  0.00000000000E+00  0.74505805969E-08  0.10566000000E+00  0.10566000000E+00 0. -1.
     999900   -1    0    0    0    0 -0.00000000000E+00 -0.00000000000E+00 -0.74505805969E-08  0.93827000000E+00  0.93827000000E+00 0.  1.
     999902    2    1    2    0    0 -0.40573864133E-02  0.22161806776E-01 -0.77739399046E-02  0.10200963640E+01  0.10198179002E+01 0.  0.
     999903    2    3    3    0    0 -0.72195645811E-01 -0.15649381270E-01 -0.10648618857E+00  0.13115507438E+00  0.20130344518E-01 0.  0.
         14    1    1    2    0    0  0.40573864133E-02 -0.22161806776E-01  0.77739399046E-02  0.23833636015E-01  0.00000000000E+00 0. -1.
     999901    1    3    3    0    0  0.68138259398E-01  0.37811188046E-01  0.98712248664E-01  0.88894128961E+00  0.88000000000E+00 0. -1.
        -11    1    4    4    0    0 -0.35825823676E-01  0.24886092728E-02 -0.50718679753E-01  0.62147634027E-01  0.51100000000E-03 0. -1.
         11    1    4    4    0    0 -0.36369822135E-01 -0.18137990543E-01 -0.55767508815E-01  0.69007440349E-01  0.51100000000E-03 0.  1.
</event>
<event>
 8    1  0.1117714E+005  0.1043930E+01  0.7957747E-01            NaN
         13   -1    0    0    0    0  0.00000000000E+00  0.00000000000E+00  0.74505805969E-08  0.10566000000E+00  0.10566000000E+00 0. -1.
     999900   -1    0    0    0    0 -0.00000000000E+00 -0.00000000000E+00 -0.74505805969E-08  0.93827000000E+00  0.93827000000E+00 0.  1.
     999902    2    1    2    0    0 -0.98755802398E-02  0.19601143109E-01 -0.10011165087E-01  0.10198062498E+01  0.10195208835E+01 0.  0.
     999903    2    3    3    0    0 -0.50221223394E-01 -0.17133844595E-01  0.11587709072E+00  0.12917440490E+00  0.21042500251E-01 0.  0.
         14    1    1    2    0    0  0.98755802398E-02 -0.19601143109E-01  0.10011165087E-01  0.24123750178E-01  0.00000000000E+00 0.  1.
     999901    1    3    3    0    0  0.40345643154E-01  0.36734987704E-01 -0.12588825581E+00  0.89063184492E+00  0.88000000000E+00 0.  1.
        -11    1    4    4    0    0 -0.32325073837E-01 -0.45713032050E-02  0.87175071099E-01  0.93088996953E-01  0.51100000000E-03 0.  1.
         11    1    4    4    0    0 -0.17896149556E-01 -0.12562541390E-01  0.28702019622E-01  0.36085407944E-01  0.51100000000E-03 0. -1.
</event>
<event>
 8    1  0.1117714E+005  0.1043930E+01  0.7957747E-01            NaN
         13   -1    0    0    0    0  0.00000000000E+00  0.00000000000E+00  0.74505805969E-08  0.10566000000E+00  0.10566000000E+00 0. -1.
     999900   -1    0    0    0    0 -0.00000000000E+00 -0.00000000000E+00 -0.74505805969E-08  0.93827000000E+00  0.93827000000E+00 0. -1.
     999902    2    1    2    0    0 -0.10052808121E-01 -0.28538404113E-02  0.22230491889E-01  0.10193658366E+01  0.10190698262E+01 0.  0.
     999903    2    3    3    0    0 -0.27474175360E-01  0.16822439298E-01  0.12717718272E+00  0.13274051099E+00  0.20203531319E-01 0.  0.
         14    1    1    2    0    0  0.10052808121E-01  0.28538404113E-02 -0.22230491889E-01  0.24564163446E-01  0.00000000000E+00 0.  1.
     999901    1    3    3    0    0  0.17421367239E-01 -0.19676279709E-01 -0.10494669083E+00  0.88662532557E+00  0.88000000000E+00 0. -1.
        -11    1    4    4    0    0 -0.19162604897E-01  0.23779642556E-02  0.46392138961E-01  0.50252878712E-01  0.51100000000E-03 0.  1.
         11    1    4    4    0    0 -0.83115704627E-02  0.14444475042E-01  0.80785043756E-01  0.82487632276E-01  0.51100000000E-03 0. -1.
</event>
<event>
 8    1  0.1117714E+005  0.1043930E+01  0.7957747E-01            NaN
         13   -1    0    0    0    0  0.00000000000E+00  0.00000000000E+00  0.74505805969E-08  0.10566000000E+00  0.10566000000E+00 0.  1.
     999900   -1    0    0    0    0 -0.00000000000E+00 -0.00000000000E+00 -0.74505805969E-08  0.93827000000E+00  0.93827000000E+00 0. -1.
     999902    2    1    2    0    0  0.51117430749E-02  0.23013288269E-01 -0.14660112644E-02  0.10203102933E+01  0.10200368641E+01 0.  0.
     999903    2    3    3    0    0  0.29630361876E-01  0.32751578818E-01  0.12180160097E+00  0.13132722195E+00  0.21461243360E-01 0.  0.
         14    1    1    2    0    0 -0.51117430749E-02 -0.23013288269E-01  0.14660112644E-02  0.23619706671E-01  0.00000000000E+00 0. -1.
     999901    1    3    3    0    0 -0.24518618801E-01 -0.97382905491E-02 -0.12326761223E+00  0.88898307138E+00  0.88000000000E+00 0. -1.
        -11    1    4    4    0    0  0.32735018515E-01  0.27215224446E-01  0.10205023108E+00  0.11057468364E+00  0.51100000000E-03 0.  1.
         11    1    4    4    0    0 -0.31046566395E-02  0.55363543723E-02  0.19751369894E-01  0.20752538310E-01  0.51100000000E-03 0. -1.
</event>
<event>
 8    1  0.1117714E+005  0.1043930E+01  0.7957747E-01            NaN
         13   -1    0    0    0    0  0.00000000000E+00  0.00000000000E+00  0.74505805969E-08  0.10566000000E+00  0.10566000000E+00 0. -1.
     999900   -1    0    0    0    0 -0.00000000000E+00 -0.00000000000E+00 -0.74505805969E-08  0.93827000000E+00  0.93827000000E+00 0. -1.
     999902    2    1    2    0    0  0.19996799592E-02  0.12622918621E-01 -0.19945439923E-01  0.10202412396E+01  0.10199661904E+01 0.  0.
     999903    2    3    3    0    0  0.82289253869E-01 -0.60849626665E-01 -0.80309333302E-01  0.13148456302E+00  0.19089340702E-01 0.  0.
         14    1    1    2    0    0 -0.19996799592E-02 -0.12622918621E-01  0.19945439923E-01  0.23688760377E-01  0.00000000000E+00 0. -1.
     999901    1    3    3    0    0 -0.80289573910E-01  0.73472545286E-01  0.60363893379E-01  0.88875667661E+00  0.88000000000E+00 0. -1.
        -11    1    4    4    0    0  0.43561959417E-01 -0.20454114685E-01 -0.38347197840E-01  0.61536849278E-01  0.51100000000E-03 0.  1.
         11    1    4    4    0    0  0.38727294452E-01 -0.40395511980E-01 -0.41962135462E-01  0.69947713738E-01  0.51100000000E-03 0. -1.
</event>
<event>
 8    1  0.1117714E+005  0.1043930E+01  0.7957747E-01            NaN
         13   -1    0    0    0    0  0.00000000000E+00  0.00000000000E+00  0.74505805969E-08  0.10566000000E+00  0.10566000000E+00 0. -1.
     999900   -1    0    0    0    0 -0.00000000000E+00 -0.00000000000E+00 -0.74505805969E-08  0.93827000000E+00  0.93827000000E+00 0.  1.
     999902    2    1    2    0    0  0.10484024281E-01  0.13946297587E-01  0.18271140389E-01  0.10186664185E+01  0.10183530937E+01 0.  0.
     999903    2    3    3    0    0 -0.67569817526E-01  0.10888627689E+00 -0.65565280107E-02  0.12977811557E+00  0.19428579083E-01 0.  0.
         14    1    1    2    0    0 -0.10484024281E-01 -0.13946297587E-01 -0.18271140389E-01  0.25263581548E-01  0.00000000000E+00 0.  1.
     999901    1    3    3    0    0  0.78053841807E-01 -0.94939979301E-01  0.24827668399E-01  0.88888830289E+00  0.88000000000E+00 0.  1.
        -11    1    4    4    0    0 -0.37001291129E-01  0.76842131690E-01 -0.57483660925E-02  0.85481656404E-01  0.51100000000E-03 0.  1.
         11    1    4    4    0    0 -0.30568526397E-01  0.32044145199E-01 -0.80816191815E-03  0.44296459162E-01  0.51100000000E-03 0. -1.
</event>
<event>
 8    1  0.1117714E+005  0.1043930E+01  0.7957747E-01            NaN
         13   -1    0    0    0    0  0.00000000000E+00  0.00000000000E+00  0.74505805969E-08  0.10566000000E+00  0.10566000000E+00 0.  1.
     999900   -1    0    0    0    0 -0.00000000000E+00 -0.00000000000E+00 -0.74505805969E-08  0.93827000000E+00  0.93827000000E+00 0. -1.
     999902    2    1    2    0    0 -0.15375853606E-01 -0.15743806460E-01 -0.94494350766E-02  0.10199805503E+01  0.10196993414E+01 0.  0.
     999903    2    3    3    0    0  0.96530935409E-01 -0.85009605194E-01  0.19386783452E-02  0.13012069090E+00  0.19564796477E-01 0.  0.
         14    1    1    2    0    0  0.15375853606E-01  0.15743806460E-01  0.94494350766E-02  0.23949449665E-01  0.00000000000E+00 0.  1.
     999901    1    3    3    0    0 -0.11190678901E+00  0.69265798734E-01 -0.11388113422E-01  0.88985985943E+00  0.88000000000E+00 0. -1.
        -11    1    4    4    0    0  0.83009836955E-01 -0.65505083190E-01  0.65177804900E-02  0.10594475701E+00  0.51100000000E-03 0.  1.
         11    1    4    4    0    0  0.13521098454E-01 -0.19504522003E-01 -0.45791021448E-02  0.24175933890E-01  0.51100000000E-03 0. -1.
</event>
<event>
 8    1  0.1117714E+005  0.1043930E+01  0.7957747E-01            NaN
         13   -1    0    0    0    0  0.00000000000E+00  0.00000000000E+00  0.74505805969E-08  0.10566000000E+00  0.10566000000E+00 0.  1.
     999900   -1    0    0    0    0 -0.00000000000E+00 -0.00000000000E+00 -0.74505805969E-08  0.93827000000E+00  0.93827000000E+00 0. -1.
     999902    2    1    2    0    0  0.30913682470E-02 -0.66272049055E-02 -0.21662820132E-01  0.10210661819E+01  0.10208101653E+01 0.  0.
     999903    2    3    3    0    0 -0.89059965629E-01  0.30888732625E-01 -0.91183400772E-01  0.13273492327E+00  0.20453752689E-01 0.  0.
         14    1    1    2    0    0 -0.30913682470E-02  0.66272049055E-02  0.21662820132E-01  0.22863818110E-01  0.00000000000E+00 0.  1.
     999901    1    3    3    0    0  0.92151333876E-01 -0.37515937531E-01  0.69520580640E-01  0.88833125862E+00  0.88000000000E+00 0. -1.
        -11    1    4    4    0    0 -0.46368690324E-01  0.26142535194E-01 -0.45522029231E-01  0.70042871550E-01  0.51100000000E-03 0. -1.
         11    1    4    4    0    0 -0.42691275305E-01  0.47461974308E-02 -0.45661371541E-01  0.62692051723E-01  0.51100000000E-03 0.  1.
</event>
<event>
 8    1  0.1117714E+005  0.1043930E+01  0.7957747E-01            NaN
         13   -1    0    0    0    0  0.00000000000E+00  0.00000000000E+00  0.74505805969E-08  0.10566000000E+00  0.10566000000E+00 0.  1.
     999900   -1    0    0    0    0 -0.00000000000E+00 -0.00000000000E+00 -0.74505805969E-08  0.93827000000E+00  0.93827000000E+00 0.  1.
     999902    2    1    2    0    0  0.19905888046E-01  0.11836034933E-01 -0.40814553074E-02  0.10204141675E+01  0.10201431658E+01 0.  0.
     999903    2    3    3    0    0 -0.11899241053E+00 -0.41964494971E-01 -0.66146854653E-02  0.12789321443E+00  0.19816852239E-01 0.  0.
         14    1    1    2    0    0 -0.19905888046E-01 -0.11836034933E-01  0.40814553074E-02  0.23515832524E-01  0.00000000000E+00 0. -1.
     999901    1    3    3    0    0  0.13889829858E+00  0.53800529904E-01  0.25332301579E-02  0.89252095304E+00  0.88000000000E+00 0.  1.
        -11    1    4    4    0    0 -0.76731309835E-01 -0.18935999345E-01  0.16804417956E-02  0.79052836672E-01  0.51100000000E-03 0. -1.
         11    1    4    4    0    0 -0.42261100694E-01 -0.23028495626E-01 -0.82951272609E-02  0.48840377762E-01  0.51100000000E-03 0.  1.
</event>
<event>
 8    1  0.1117714E+005  0.1043930E+01  0.7957747E-01            NaN
         13   -1    0    0    0    0  0.00000000000E+00  0.00000000000E+00  0.74505805969E-08  0.10566000000E+00  0.10566000000E+00 0.  1.
     999900   -1    0    0    0    0 -0.00000000000E+00 -0.00000000000E+00 -0.74505805969E-08  0.93827000000E+00  0.93827000000E+00 0. -1.
     999902    2    1    2    0    0  0.52668217905E-02  0.23112090877E-01 -0.25320636943E-02  0.10200905473E+01  0.10198119460E+01 0.  0.
     999903    2    3    3    0    0  0.92098228861E-01  0.37664539473E-01  0.83430117724E-01  0.13152937126E+00  0.20944919825E-01 0.  0.
         14    1    1    2    0    0 -0.52668217905E-02 -0.23112090877E-01  0.25320636943E-02  0.23839452658E-01  0.00000000000E+00 0. -1.
     999901    1    3    3    0    0 -0.86831407070E-01 -0.14552448596E-01 -0.85962181418E-01  0.88856117609E+00  0.88000000000E+00 0.  1.
        -11    1    4    4    0    0  0.88879255501E-01  0.33538141255E-01  0.83175922903E-01  0.12626489714E+00  0.51100000000E-03 0. -1.
         11    1    4    4    0    0  0.32189733599E-02  0.41263982174E-02  0.25419482127E-03  0.52644741188E-02  0.51100000000E-03 0.  1.
</event>
<event>
 8    1  0.1117714E+005  0.1043930E+01  0.7957747E-01            NaN
         13   -1    0    0    0    0  0.00000000000E+00  0.00000000000E+00  0.74505805969E-08  0.10566000000E+00  0.10566000000E+00 0. -1.
     999900   -1    0    0    0    0 -0.00000000000E+00 -0.00000000000E+00 -0.74505805969E-08  0.93827000000E+00  0.93827000000E+00 0.  1.
     999902    2    1    2    0    0 -0.61839070029E-02 -0.12466602208E-01 -0.19765320372E-01  0.10197571895E+01  0.10194706474E+01 0.  0.
     999903    2    3    3    0    0 -0.59467357152E-02  0.25959206269E-01 -0.12796936201E+00  0.13229749263E+00  0.20426083452E-01 0.  0.
         14    1    1    2    0    0  0.61839070029E-02  0.12466602208E-01  0.19765320372E-01  0.24172810466E-01  0.00000000000E+00 0. -1.
     999901    1    3    3    0    0 -0.23717128769E-03 -0.38425808478E-01  0.10820404164E+00  0.88745969691E+00  0.88000000000E+00 0. -1.
        -11    1    4    4    0    0  0.75561057644E-02  0.98836941232E-02 -0.42542512210E-01  0.44327289676E-01  0.51100000000E-03 0. -1.
         11    1    4    4    0    0 -0.13502841480E-01  0.16075512146E-01 -0.85426849804E-01  0.87970202951E-01  0.51100000000E-03 0.  1.
</event>
<event>
 8    1  0.1117714E+005  0.1043930E+01  0.7957747E-01            NaN
         13   -1    0    0    0    0  0.00000000000E+00  0.00000000000E+00  0.74505805969E-08  0.10566000000E+00  0.10566000000E+00 0. -1.
     999900   -1    0    0    0    0 -0.00000000000E+00 -0.00000000000E+00 -0.74505805969E-08  0.93827000000E+00  0.93827000000E+00 0. -1.
     999902    2    1    2    0    0  0.16674383041E-01 -0.65808770962E-03  0.16134355126E-01  0.10207182456E+01  0.10204542867E+01 0.  0.
     999903    2    3    3    0    0  0.93537652061E-01 -0.25732858313E-01 -0.85901778205E-01  0.13114077352E+00  0.20182037310E-01 0.  0.
         14    1    1    2    0    0 -0.16674383041E-01  0.65808770962E-03 -0.16134355126E-01  0.23211754448E-01  0.00000000000E+00 0. -1.
     999901    1    3    3    0    0 -0.76863269020E-01  0.25074770603E-01  0.10203613333E+00  0.88957747203E+00  0.88000000000E+00 0.  1.
        -11    1    4    4    0    0  0.83749700490E-01 -0.16040421255E-01 -0.75080994603E-01  0.11361656709E+00  0.51100000000E-03 0.  1.
         11    1    4    4    0    0  0.97879515712E-02 -0.96924370584E-02 -0.10820783602E-01  0.17524206426E-01  0.51100000000E-03 0. -1.
</event>
<event>
 8    1  0.1117714E+005  0.1043930E+01  0.7957747E-01            NaN
         13   -1    0    0    0    0  0.00000000000E+00  0.00000000000E+00  0.74505805969E-08  0.10566000000E+00  0.10566000000E+00 0. -1.
     999900   -1    0    0    0    0 -0.00000000000E+00 -0.00000000000E+00 -0.74505805969E-08  0.93827000000E+00  0.93827000000E+00 0.  1.
     999902    2    1    2    0    0 -0.22329770202E-01  0.20591522280E-02  0.70748626239E-02  0.10204159100E+01  0.10201449490E+01 0.  0.
     999903    2    3    3    0    0  0.10182504133E+00 -0.56088558011E-01  0.52181701272E-01  0.12865910445E+00  0.17775540188E-01 0.  0.
         14    1    1    2    0    0  0.22329770202E-01 -0.20591522280E-02 -0.70748626239E-02  0.23514089953E-01  0.00000000000E+00 0. -1.
     999901    1    3    3    0    0 -0.12415481153E+00  0.58147710239E-01 -0.45106838648E-01  0.89175680560E+00  0.88000000000E+00 0.  1.
        -11    1    4    4    0    0  0.42401897828E-01 -0.29461897980E-01  0.30785890226E-01  0.60116191912E-01  0.51100000000E-03 0. -1.
         11    1    4    4    0    0  0.59423143502E-01 -0.26626660031E-01  0.21395811046E-01  0.68542912540E-01  0.51100000000E-03 0.  1.
</event>
<event>
 8    1  0.1117714E+005  0.1043930E+01  0.7957747E-01            NaN
         13   -1    0    0    0    0  0.00000000000E+00  0.00000000000E+00  0.74505805969E-08  0.10566000000E+00  0.10566000000E+00 0.  1.
     999900   -1    0    0    0    0 -0.00000000000E+00 -0.00000000000E+00 -0.74505805969E-08  0.93827000000E+00  0.93827000000E+00 0.  1.
     999902    2    1    2    0    0 -0.66829441325E-02  0.60199820875E-02 -0.22006414401E-01  0.10201563970E+01  0.10198793507E+01 0.  0.
     999903    2    3    3    0    0 -0.71440750673E-02  0.86810647230E-01 -0.98721613463E-01  0.13313183925E+00  0.19773805313E-01 0.  0.
         14    1    1    2    0    0  0.66829441325E-02 -0.60199820875E-02  0.22006414401E-01  0.23773603038E-01  0.00000000000E+00 0.  1.
     999901    1    3    3    0    0  0.46113093477E-03 -0.80790665142E-01  0.76715199062E-01  0.88702455771E+00  0.88000000000E+00 0. -1.
        -11    1    4    4    0    0 -0.11760068523E-02  0.85486289051E-02 -0.20827524393E-01  0.22550142829E-01  0.51100000000E-03 0. -1.
         11    1    4    4    0    0 -0.59680682150E-02  0.78262018325E-01 -0.77894089070E-01  0.11058169642E+00  0.51100000000E-03 0.  1.
</event>
<event>
 8    1  0.1117714E+005  0.1043930E+01  0.7957747E-01            NaN
         13   -1    0    0    0    0  0.00000000000E+00  0.00000000000E+00  0.74505805969E-08  0.10566000000E+00  0.10566000000E+00 0. -1.
     999900   -1    0    0    0    0 -0.00000000000E+00 -0.00000000000E+00 -0.74505805969E-08  0.93827000000E+00  0.93827000000E+00 0.  1.
     999902    2    1    2    0    0 -0.99351217415E-02  0.18392770257E-01 -0.11625959900E-01  0.10200100588E+01  0.10197295507E+01 0.  0.
     999903    2    3    3    0    0 -0.41304129352E-01 -0.12012475379E+00  0.29041870758E-02  0.12850445354E+00  0.19208662181E-01 0.  0.
         14    1    1    2    0    0  0.99351217415E-02 -0.18392770257E-01  0.11625959900E-01  0.23919941165E-01  0.00000000000E+00 0. -1.
     999901    1    3    3    0    0  0.31369007611E-01  0.13851752404E+00 -0.14530146975E-01  0.89150560530E+00  0.88000000000E+00 0.  1.
        -11    1    4    4    0    0 -0.33028280700E-01 -0.70610567886E-01  0.61415443502E-02  0.78196542834E-01  0.51100000000E-03 0.  1.
         11    1    4    4    0    0 -0.82758486517E-02 -0.49514185900E-01 -0.32373572744E-02  0.50307910703E-01  0.51100000000E-03 0. -1.
</event>
<event>
 8    1  0.1117714E+005  0.1043930E+01  0.7957747E-01            NaN
         13   -1    0    0    0    0  0.00000000000E+00  0.00000000000E+00  0.74505805969E-08  0.10566000000E+00  0.10566000000E+00 0. -1.
     999900   -1    0    0    0    0 -0.00000000000E+00 -0.00000000000E+00 -0.74505805969E-08  0.93827000000E+00  0.93827000000E+00 0. -1.
     999902    2    1    2    0    0 -0.20960077798E-01  0.65583774800E-03 -0.93060968213E-02  0.10209874975E+01  0.10207296956E+01 0.  0.
     999903    2    3    3    0    0  0.88250281090E-01  0.47093779604E-01  0.78546981813E-01  0.12868623200E+00  0.19610756330E-01 0.  0.
         14    1    1    2    0    0  0.20960077798E-01 -0.65583774800E-03  0.93060968213E-02  0.22942502534E-01  0.00000000000E+00 0.  1.
     999901    1    3    3    0    0 -0.10921035889E+00 -0.46437941856E-01 -0.87853078634E-01  0.89230126547E+00  0.88000000000E+00 0.  1.
        -11    1    4    4    0    0  0.88168580895E-02  0.12429415038E-01  0.12602129624E-01  0.19781358315E-01  0.51100000000E-03 0.  1.
         11    1    4    4    0    0  0.79433423001E-01  0.34664364566E-01  0.65944852189E-01  0.10890487368E+00  0.51100000000E-03 0. -1.
</event>
<event>
 8    1  0.1117714E+005  0.1043930E+01  0.7957747E-01            NaN
         13   -1    0    0    0    0  0.00000000000E+00  0.00000000000E+00  0.74505805969E-08  0.10566000000E+00  0.10566000000E+00 0.  1.
     999900   -1    0    0    0    0 -0.00000000000E+00 -0.00000000000E+00 -0.74505805969E-08  0.93827000000E+00  0.93827000000E+00 0. -1.
     999902    2    1    2    0    0  0.39188909062E-02  0.78128180714E-02 -0.23443614658E-01  0.10189099900E+01  0.10186027522E+01 0.  0.
     999903    2    3    3    0    0  0.97419970013E-01  0.65418152413E-01  0.50229164346E-01  0.12902881551E+00  0.18848900751E-01 0.  0.
         14    1    1    2    0    0 -0.39188909062E-02 -0.78128180714E-02  0.23443614658E-01  0.25020010000E-01  0.00000000000E+00 0.  1.
     999901    1    3    3    0    0 -0.93501079107E-01 -0.57605334342E-01 -0.73672779004E-01  0.88988117449E+00  0.88000000000E+00 0. -1.
        -11    1    4    4    0    0  0.53696188206E-01  0.33764459983E-01  0.37059540833E-01  0.73464209473E-01  0.51100000000E-03 0. -1.
         11    1    4    4    0    0  0.43723781807E-01  0.31653692430E-01  0.13169623513E-01  0.55564606041E-01  0.51100000000E-03 0.  1.
</event>
<event>
 8    1  0.1117714E+005  0.1043930E+01  0.7957747E-01            NaN
         13   -1    0    0    0    0  0.00000000000E+00  0.00000000000E+00  0.74505805969E-08  0.10566000000E+00  0.10566000000E+00 0. -1.
     999900   -1    0    0    0    0 -0.00000000000E+00 -0.00000000000E+00 -0.74505805969E-08  0.93827000000E+00  0.93827000000E+00 0. -1.
     999902    2    1    2    0    0 -0.41087857884E-02  0.10535158275E-02 -0.23649287984E-01  0.10199033307E+01  0.10196202838E+01 0.  0.
     999903    2    3    3    0    0 -0.95229359937E-01 -0.85780009353E-01  0.10043087423E-01  0.13030893081E+00  0.21277049725E-01 0.  0.
         14    1    1    2    0    0  0.41087857884E-02 -0.10535158275E-02  0.23649287984E-01  0.24026669316E-01  0.00000000000E+00 0. -1.
     999901    1    3    3    0    0  0.91120574149E-01  0.86833525180E-01 -0.33692375408E-01  0.88959439988E+00  0.88000000000E+00 0.  1.
        -11    1    4    4    0    0 -0.23638512550E-01 -0.16746521068E-01 -0.59459127485E-02  0.29577698404E-01  0.51100000000E-03 0.  1.
         11    1    4    4    0    0 -0.71590847387E-01 -0.69033488285E-01  0.15989000172E-01  0.10073123241E+00  0.51100000000E-03 0. -1.
</event>
<event>
 8    1  0.1117714E+005  0.1043930E+01  0.7957747E-01            NaN
         13   -1    0    0    0    0  0.00000000000E+00  0.00000000000E+00  0.74505805969E-08  0.10566000000E+00  0.10566000000E+00 0.  1.
     999900   -1    0    0    0    0 -0.00000000000E+00 -0.00000000000E+00 -0.74505805969E-08  0.93827000000E+00  0.93827000000E+00 0.  1.
     999902    2    1    2    0    0 -0.19790353809E-01  0.39226285992E-02  0.55563041186E-02  0.10230035183E+01  0.10227894607E+01 0.  0.
     999903    2    3    3    0    0  0.40232344067E-02  0.13157468885E+00  0.88062068527E-02  0.13346841654E+00  0.20203558484E-01 0.  0.
         14    1    1    2    0    0  0.19790353809E-01 -0.39226285992E-02 -0.55563041186E-02  0.20926481655E-01  0.00000000000E+00 0. -1.
     999901    1    3    3    0    0 -0.23813588215E-01 -0.12765206025E+00 -0.32499027342E-02  0.88953510180E+00  0.88000000000E+00 0. -1.
        -11    1    4    4    0    0 -0.80804203699E-02  0.46252344378E-01  0.14704467003E-02  0.46978674825E-01  0.51100000000E-03 0.  1.
         11    1    4    4    0    0  0.12103654777E-01  0.85322344469E-01  0.73357601524E-02  0.86489741719E-01  0.51100000000E-03 0. -1.
</event>
<event>
 8    1  0.1117714E+005  0.1043930E+01  0.7957747E-01            NaN
         13   -1    0    0    0    0  0.00000000000E+00  0.00000000000E+00  0.74505805969E-08  0.10566000000E+00  0.10566000000E+00 0. -1.
     999900   -1    0    0    0    0 -0.00000000000E+00 -0.00000000000E+00 -0.74505805969E-08  0.93827000000E+00  0.93827000000E+00 0. -1.
     999902    2    1    2    0    0 -0.18883276307E-01 -0.78138092968E-02 -0.12107311626E-01  0.10201766690E+01  0.10199001006E+01 0.  0.
     999903    2    3    3    0    0  0.87315061306E-01 -0.36784286274E-01  0.83873206541E-01  0.12813987864E+00  0.20201734453E-01 0.  0.
         14    1    1    2    0    0  0.18883276307E-01  0.78138092968E-02  0.12107311626E-01  0.23753331022E-01  0.00000000000E+00 0. -1.
     999901    1    3    3    0    0 -0.10619833761E+00  0.28970476978E-01 -0.95980518167E-01  0.89203679034E+00  0.88000000000E+00 0.  1.
        -11    1    4    4    0    0  0.75720316454E-01 -0.33955130293E-01  0.63388428425E-01  0.10442639119E+00  0.51100000000E-03 0. -1.
         11    1    4    4    0    0  0.11594744853E-01 -0.28291559812E-02  0.20484778116E-01  0.23713487454E-01  0.51100000000E-03 0.  1.
</event>
<event>
 8    1  0.1117714E+005  0.1043930E+01  0.7957747E-01            NaN
         13   -1    0    0    0    0  0.00000000000E+00  0.00000000000E+00  0.74505805969E-08  0.10566000000E+00  0.10566000000E+00 0.  1.
     999900   -1    0    0    0    0 -0.00000000000E+00 -0.00000000000E+00 -0.74505805969E-08  0.93827000000E+00  0.93827000000E+00 0.  1.
     999902    2    1    2    0    0 -0.17240435604E-01  0.12866966760E-01  0.10612649010E-01  0.10199420911E+01  0.10196599676E+01 0.  0.
     999903    2    3    3    0    0  0.94283033549E-02  0.57686598561E-02  0.12966600642E+00  0.13149664569E+00  0.18865955180E-01 0.  0.
         14    1    1    2    0    0  0.17240435604E-01 -0.12866966760E-01 -0.10612649010E-01  0.23987908880E-01  0.00000000000E+00 0. -1.
     999901    1    3    3    0    0 -0.26668738959E-01  0.70983069038E-02 -0.11905335741E+00  0.88844544543E+00  0.88000000000E+00 0.  1.
        -11    1    4    4    0    0 -0.53940630193E-02  0.17889743352E-02  0.53119863571E-01  0.53425437498E-01  0.51100000000E-03 0. -1.
         11    1    4    4    0    0  0.14822366374E-01  0.39796855209E-02  0.76546142852E-01  0.78071208190E-01  0.51100000000E-03 0.  1.
</event>
<event>
 8    1  0.1117714E+005  0.1043930E+01  0.7957747E-01            NaN
         13   -1    0    0    0    0  0.00000000000E+00  0.00000000000E+00  0.74505805969E-08  0.10566000000E+00  0.10566000000E+00 0. -1.
     999900   -1    0    0    0    0 -0.00000000000E+00 -0.00000000000E+00 -0.74505805969E-08  0.93827000000E+00  0.93827000000E+00 0. -1.
     999902    2    1    2    0    0 -0.19557863430E-02  0.22977205783E-01  0.51562558387E-02  0.10203002717E+01  0.10200266077E+01 0.  0.
     999903    2    3    3    0    0 -0.17245552877E-02 -0.12492723145E+00 -0.17403445540E-01  0.12767228863E+00  0.19686191029E-01 0.  0.
         14    1    1    2    0    0  0.19557863430E-02 -0.22977205783E-01 -0.51562558387E-02  0.23629728312E-01  0.00000000000E+00 0. -1.
     999901    1    3    3    0    0 -0.23123105525E-03  0.14790443723E+00  0.22559701378E-01  0.89262798306E+00  0.88000000000E+00 0.  1.
        -11    1    4    4    0    0  0.17406433191E-02 -0.18448093079E-01  0.41048505031E-02  0.18986123777E-01  0.51100000000E-03 0.  1.
         11    1    4    4    0    0 -0.34651986068E-02 -0.10647913837E+00 -0.21508296043E-01  0.10868616485E+00  0.51100000000E-03 0. -1.
</event>
<event>
 8    1  0.1117714E+005  0.1043930E+01  0.7957747E-01            NaN
         13   -1    0    0    0    0  0.00000000000E+00  0.00000000000E+00  0.74505805969E-08  0.10566000000E+00  0.10566000000E+00 0. -1.
     999900   -1    0    0    0    0 -0.00000000000E+00 -0.00000000000E+00 -0.74505805969E-08  0.93827000000E+00  0.93827000000E+00 0.  1.
     999902    2    1    2    0    0 -0.66938743518E-02 -0.13536051391E-01 -0.18661025653E-01  0.10199244482E+01  0.10196419045E+01 0.  0.
     999903    2    3    3    0    0  0.90399331814E-01  0.86489815808E-01  0.21007580812E-01  0.12806915544E+00  0.17546016461E-01 0.  0.
         14    1    1    2    0    0  0.66938743518E-02  0.13536051391E-01  0.18661025653E-01  0.24005551848E-01  0.00000000000E+00 0. -1.
     999901    1    3    3    0    0 -0.97093206166E-01 -0.10002586720E+00 -0.39668606465E-01  0.89185529271E+00  0.88000000000E+00 0.  1.
        -11    1    4    4    0    0  0.61659229723E-01  0.47377200670E-01  0.14390636337E-01  0.79081042536E-01  0.51100000000E-03 0. -1.
         11    1    4    4    0    0  0.28740102091E-01  0.39112615138E-01  0.66169444748E-02  0.48988112908E-01  0.51100000000E-03 0.  1.
</event>
<event>
 8    1  0.1117714E+005  0.1043930E+01  0.7957747E-01            NaN
         13   -1    0    0    0    0  0.00000000000E+00  0.00000000000E+00  0.74505805969E-08  0.10566000000E+00  0.10566000000E+00 0. -1.
     999900   -1    0    0    0    0 -0.00000000000E+00 -0.00000000000E+00 -0.74505805969E-08  0.93827000000E+00  0.93827000000E+00 0.  1.
     999902    2    1    2    0    0 -0.15138058894E-01  0.14212949739E-01  0.47589799253E-02  0.10226270270E+01  0.10224051153E+01 0.  0.
     999903    2    3    3    0    0 -0.54494166727E-01 -0.11796646194E+00  0.31217898185E-02  0.13188408965E+00  0.22315178306E-01 0.  0.
         14    1    1    2    0    0  0.15138058894E-01 -0.14212949739E-01 -0.47589799253E-02  0.21302972969E-01  0.00000000000E+00 0. -1.
     999901    1    3    3    0    0  0.39356107833E-01  0.13217941168E+00  0.16371901068E-02  0.89074293738E+00  0.88000000000E+00 0.  1.
        -11    1    4    4    0    0 -0.12449155402E-03 -0.15284721854E-01 -0.27843877208E-02  0.15545165045E-01  0.51100000000E-03 0. -1.
         11    1    4    4    0    0 -0.54369675173E-01 -0.10268174008E+00  0.59061775392E-02  0.11633892461E+00  0.51100000000E-03 0.  1.
</event>
<event>
 8    1  0.1117714E+005  0.1043930E+01  0.7957747E-01            NaN
         13   -1    0    0    0    0  0.00000000000E+00  0.00000000000E+00  0.74505805969E-08  0.10566000000E+00  0.10566000000E+00 0.  1.
     999900   -1    0    0    0    0 -0.00000000000E+00 -0.00000000000E+00 -0.74505805969E-08  0.93827000000E+00  0.93827000000E+00 0. -1.
     999902    2    1    2    0    0 -0.12335730578E-01  0.14203592572E-01  0.15017788240E-01  0.10198583101E+01  0.10195741888E+01 0.  0.
     999903    2    3    3    0    0 -0.11443768961E+00  0.18105924344E-01  0.62168294406E-01  0.13269248092E+00  0.17849043780E-01 0.  0.
         14    1    1    2    0    0  0.12335730578E-01 -0.14203592572E-01 -0.15017788240E-01  0.24071689897E-01  0.00000000000E+00 0. -1.
     999901    1    3    3    0    0  0.10210195904E+00 -0.39023317716E-02 -0.47150506166E-01  0.88716582918E+00  0.88000000000E+00 0.  1.
        -11    1    4    4    0    0 -0.23974489601E-01  0.21556155350E-02  0.52963302966E-02  0.24652283172E-01  0.51100000000E-03 0. -1.
         11    1    4    4    0    0 -0.90463200013E-01  0.15950308809E-01  0.56871964110E-01  0.10804019775E+00  0.51100000000E-03 0.  1.
</event>
<event>
 8    1  0.1117714E+005  0.1043930E+01  0.7957747E-01            NaN
         13   -1    0    0    0    0  0.00000000000E+00  0.00000000000E+00  0.74505805969E-08  0.10566000000E+00  0.10566000000E+00 0. -1.
     999900   -1    0    0    0    0 -0.00000000000E+00 -0.00000000000E+00 -0.74505805969E-08  0.93827000000E+00  0.93827000000E+00 0. -1.
     999902    2    1    2    0    0  0.13611703135E-01  0.16878615272E-01 -0.16116846579E-02  0.10221868714E+01  0.10219555941E+01 0.  0.
     999903    2    3    3    0    0  0.99626965427E-01  0.31640466114E-01  0.81423907339E-01  0.13397999955E+00  0.19852865211E-01 0.  0.
         14    1    1    2    0    0 -0.13611703135E-01 -0.16878615272E-01  0.16116846579E-02  0.21743128642E-01  0.00000000000E+00 0.  1.
     999901    1    3    3    0    0 -0.86015262292E-01 -0.14761850843E-01 -0.83035591997E-01  0.88820687181E+00  0.88000000000E+00 0. -1.
        -11    1    4    4    0    0  0.50886680345E-01  0.24927807888E-01  0.50212177519E-01  0.75712441084E-01  0.51100000000E-03 0.  1.
         11    1    4    4    0    0  0.48740285082E-01  0.67126582258E-02  0.31211729820E-01  0.58267558467E-01  0.51100000000E-03 0. -1.
</event>
<event>
 8    1  0.1117714E+005  0.1043930E+01  0.7957747E-01            NaN
         13   -1    0    0    0    0  0.00000000000E+00  0.00000000000E+00  0.74505805969E-08  0.10566000000E+00  0.10566000000E+00 0.  1.
     999900   -1    0    0    0    0 -0.00000000000E+00 -0.00000000000E+00 -0.74505805969E-08  0.93827000000E+00  0.93827000000E+00 0. -1.
     999902    2    1    2    0    0 -0.18352112585E-02  0.16423576779E-01  0.16318594219E-01  0.10207050481E+01  0.10204407855E+01 0.  0.
     999903    2    3    3    0    0 -0.69845756354E-01 -0.10526496470E+00 -0.17391469668E-01  0.12909420035E+00  0.20092458101E-01 0.  0.
         14    1    1    2    0    0  0.18352112585E-02 -0.16423576779E-01 -0.16318594219E-01  0.23224951923E-01  0.00000000000E+00 0. -1.
     999901    1    3    3    0    0  0.68010545095E-01  0.12168854148E+00  0.33710063887E-01  0.89161084772E+00  0.88000000000E+00 0.  1.
        -11    1    4    4    0    0 -0.19104157949E-01 -0.15256780318E-01 -0.56862635843E-02  0.25106431670E-01  0.51100000000E-03 0. -1.
         11    1    4    4    0    0 -0.50741598405E-01 -0.90008184386E-01 -0.11705206084E-01  0.10398776868E+00  0.51100000000E-03 0.  1.
</event>
<event>
 8    1  0.1117714E+005  0.1043930E+01  0.7957747E-01            NaN
         13   -1    0    0    0    0  0.00000000000E+00  0.00000000000E+00  0.74505805969E-08  0.10566000000E+00  0.10566000000E+00 0.  1.
     999900   -1    0    0    0    0 -0.00000000000E+00 -0.00000000000E+00 -0.74505805969E-08  0.93827000000E+00  0.93827000000E+00 0. -1.
     999902    2    1    2    0    0 -0.20312664713E-01  0.11076184692E-01 -0.41472166723E-02  0.10204249873E+01  0.10201542379E+01 0.  0.
     999903    2    3    3    0    0 -0.39248104575E-01 -0.81522051066E-02  0.12297172619E+00  0.13088156089E+00  0.20026616748E-01 0.  0.
         14    1    1    2    0    0  0.20312664713E-01 -0.11076184692E-01  0.41472166723E-02  0.23505012682E-01  0.00000000000E+00 0.  1.
     999901    1    3    3    0    0  0.18935439863E-01  0.19228389799E-01 -0.12711894287E+00  0.88954342642E+00  0.88000000000E+00 0. -1.
        -11    1    4    4    0    0 -0.13240419281E-01 -0.12357090476E-01  0.42349620844E-01  0.46062543291E-01  0.51100000000E-03 0.  1.
         11    1    4    4    0    0 -0.26007685295E-01  0.42048853697E-02  0.80622105349E-01  0.84819017604E-01  0.51100000000E-03 0. -1.
</event>
<event>
 8    1  0.1117714E+005  0.1043930E+01  0.7957747E-01            NaN
         13   -1    0    0    0    0  0.00000000000E+00  0.00000000000E+00  0.74505805969E-08  0.10566000000E+00  0.10566000000E+00 0.  1.
     999900   -1    0    0    0    0 -0.00000000000E+00 -0.00000000000E+00 -0.74505805969E-08  0.93827000000E+00  0.93827000000E+00 0.  1.
     999902    2    1    2    0    0 -0.56530783238E-02  0.14574882029E-01  0.13592039269E-01  0.10232145948E+01  0.10230048773E+01 0.  0.
     999903    2    3    3    0    0 -0.10279990490E+00 -0.11111319473E-01 -0.80419864260E-01  0.13252075018E+00  0.20077668994E-01 0.  0.
         14    1    1    2    0    0  0.56530783238E-02 -0.14574882029E-01 -0.13592039269E-01  0.20715405190E-01  0.00000000000E+00 0. -1.
     999901    1    3    3    0    0  0.97146826575E-01  0.25686201502E-01  0.94011903529E-01  0.89069384463E+00  0.88000000000E+00 0. -1.
        -11    1    4    4    0    0 -0.10686568102E-01  0.33987626168E-02 -0.14432156936E-01  0.18283943775E-01  0.51100000000E-03 0. -1.
         11    1    4    4    0    0 -0.92113336798E-01 -0.14510082090E-01 -0.65987707323E-01  0.11423680640E+00  0.51100000000E-03 0.  1.
</event>
<event>
 8    1  0.1117714E+005  0.1043930E+01  0.7957747E-01            NaN
         13   -1    0    0    0    0  0.00000000000E+00  0.00000000000E+00  0.74505805969E-08  0.10566000000E+00  0.10566000000E+00 0.  1.
     999900   -1    0    0    0    0 -0.00000000000E+00 -0.00000000000E+00 -0.74505805969E-08  0.93827000000E+00  0.93827000000E+00 0.  1.
     999902    2    1    2    0    0  0.24448015701E-01  0.54067919204E-02  0.70102924753E-02  0.10179284025E+01  0.10175962606E+01 0.  0.
     999903    2    3    3    0    0 -0.74795959907E-01  0.87819651368E-01  0.49038317854E-01  0.12753096261E+00  0.23508786036E-01 0.  0.
         14    1    1    2    0    0 -0.24448015701E-01 -0.54067919204E-02 -0.70102924753E-02  0.26001597474E-01  0.00000000000E+00 0. -1.
     999901    1    3    3    0    0  0.99243975609E-01 -0.82412859447E-01 -0.42028025378E-01  0.89039743992E+00  0.88000000000E+00 0.  1.
        -11    1    4    4    0    0 -0.21381345217E-01  0.10826956694E-01  0.85680999471E-02  0.25456990637E-01  0.51100000000E-03 0.  1.
         11    1    4    4    0    0 -0.53414614690E-01  0.76992694673E-01  0.40470217906E-01  0.10207397197E+00  0.51100000000E-03 0. -1.
</event>
<event>
 8    1  0.1117714E+005  0.1043930E+01  0.7957747E-01            NaN
         13   -1    0    0    0    0  0.00000000000E+00  0.00000000000E+00  0.74505805969E-08  0.10566000000E+00  0.10566000000E+00 0. -1.
     999900   -1    0    0    0    0 -0.00000000000E+00 -0.00000000000E+00 -0.74505805969E-08  0.93827000000E+00  0.93827000000E+00 0. -1.
     999902    2    1    2    0    0 -0.14513105127E-01 -0.11787327016E-01 -0.15771835946E-01  0.10194693764E+01  0.10191758863E+01 0.  0.
     999903    2    3    3    0    0  0.89259705393E-01 -0.80120044409E-01 -0.46404226053E-01  0.13021322668E+00  0.20386654524E-01 0.  0.
         14    1    1    2    0    0  0.14513105127E-01  0.11787327016E-01  0.15771835946E-01  0.24460623616E-01  0.00000000000E+00 0.  1.
     999901    1    3    3    0    0 -0.10377281052E+00  0.68332717393E-01  0.30632390107E-01  0.88925614971E+00  0.88000000000E+00 0.  1.
        -11    1    4    4    0    0  0.63914762914E-01 -0.57676764155E-01 -0.42857992723E-01  0.96170550082E-01  0.51100000000E-03 0.  1.
         11    1    4    4    0    0  0.25344942479E-01 -0.22443280254E-01 -0.35462333296E-02  0.34042676594E-01  0.51100000000E-03 0. -1.
</event>
<event>
 8    1  0.1117714E+005  0.1043930E+01  0.7957747E-01            NaN
         13   -1    0    0    0    0  0.00000000000E+00  0.00000000000E+00  0.74505805969E-08  0.10566000000E+00  0.10566000000E+00 0.  1.
     999900   -1    0    0    0    0 -0.00000000000E+00 -0.00000000000E+00 -0.74505805969E-08  0.93827000000E+00  0.93827000000E+00 0. -1.
     999902    2    1    2    0    0 -0.63565356695E-03  0.19912308334E-01  0.10273981543E-01  0.10215144078E+01  0.10212684400E+01 0.  0.
     999903    2    3    3    0    0  0.80312431817E-01 -0.18358207026E-01 -0.98899914466E-01  0.13025902099E+00  0.19977712563E-01 0.  0.
         14    1    1    2    0    0  0.63565356695E-03 -0.19912308334E-01 -0.10273981543E-01  0.22415592238E-01  0.00000000000E+00 0. -1.
     999901    1    3    3    0    0 -0.80948085384E-01  0.38270515360E-01  0.10917389601E+00  0.89125538677E+00  0.88000000000E+00 0.  1.
        -11    1    4    4    0    0  0.44168027548E-01 -0.42926016772E-03 -0.56651258999E-01  0.71837491528E-01  0.51100000000E-03 0.  1.
         11    1    4    4    0    0  0.36144404269E-01 -0.17928946858E-01 -0.42248655467E-01  0.58421529466E-01  0.51100000000E-03 0. -1.
</event>
<event>
 8    1  0.1117714E+005  0.1043930E+01  0.7957747E-01            NaN
         13   -1    0    0    0    0  0.00000000000E+00  0.00000000000E+00  0.74505805969E-08  0.10566000000E+00  0.10566000000E+00 0. -1.
     999900   -1    0    0    0    0 -0.00000000000E+00 -0.00000000000E+00 -0.74505805969E-08  0.93827000000E+00  0.93827000000E+00 0.  1.
     999902    2    1    2    0    0  0.10774393757E-03  0.16195749151E-01  0.18095188214E-01  0.10196452366E+01  0.10193560019E+01 0.  0.
     999903    2    3    3    0    0 -0.35063005963E-01  0.89012830315E-01  0.90127615974E-01  0.13300665200E+00  0.20373609599E-01 0.  0.
         14    1    1    2    0    0 -0.10774393757E-03 -0.16195749151E-01 -0.18095188214E-01  0.24284763450E-01  0.00000000000E+00 0.  1.
     999901    1    3    3    0    0  0.35170749901E-01 -0.72817081164E-01 -0.72032427761E-01  0.88663858455E+00  0.88000000000E+00 0.  1.
        -11    1    4    4    0    0 -0.25481813376E-01  0.37216139613E-01  0.39925087042E-01  0.60238173586E-01  0.51100000000E-03 0. -1.
         11    1    4    4    0    0 -0.95811925875E-02  0.51796690702E-01  0.50202528932E-01  0.72768478418E-01  0.51100000000E-03 0.  1.
</event>
<event>
 8    1  0.1117714E+005  0.1043930E+01  0.7957747E-01            NaN
         13   -1    0    0    0    0  0.00000000000E+00  0.00000000000E+00  0.74505805969E-08  0.10566000000E+00  0.10566000000E+00 0.  1.
     999900   -1    0    0    0    0 -0.00000000000E+00 -0.00000000000E+00 -0.74505805969E-08  0.93827000000E+00  0.93827000000E+00 0.  1.
     999902    2    1    2    0    0  0.12437573789E-01  0.19483831567E-01  0.31097347683E-02  0.10206065486E+01  0.10203400138E+01 0.  0.
     999903    2    3    3    0    0  0.70479255263E-01  0.17830088876E-01  0.10862326438E+00  0.13240348817E+00  0.21128952253E-01 0.  0.
         14    1    1    2    0    0 -0.12437573789E-01 -0.19483831567E-01 -0.31097347683E-02  0.23323451388E-01  0.00000000000E+00 0.  1.
     999901    1    3    3    0    0 -0.58041681474E-01  0.16537426913E-02 -0.10551352961E+00  0.88820306044E+00  0.88000000000E+00 0.  1.
        -11    1    4    4    0    0  0.41913373749E-01  0.56202481024E-03  0.53616115395E-01  0.68058766679E-01  0.51100000000E-03 0.  1.
         11    1    4    4    0    0  0.28565881514E-01  0.17268064066E-01  0.55007148982E-01  0.64344721488E-01  0.51100000000E-03 0. -1.
</event>
<event>
 8    1  0.1117714E+005  0.1043930E+01  0.7957747E-01            NaN
         13   -1    0    0    0    0  0.00000000000E+00  0.00000000000E+00  0.74505805969E-08  0.10566000000E+00  0.10566000000E+00 0. -1.
     999900   -1    0    0    0    0 -0.00000000000E+00 -0.00000000000E+00 -0.74505805969E-08  0.93827000000E+00  0.93827000000E+00 0.  1.
     999902    2    1    2    0    0 -0.13875343164E-01  0.12246653616E-01 -0.23344100970E-02  0.10252764442E+01  0.10251067417E+01 0.  0.
     999903    2    3    3    0    0  0.55188108285E-01  0.34991731688E-01 -0.11641162419E+00  0.13493903083E+00  0.19665381080E-01 0.  0.
         14    1    1    2    0    0  0.13875343164E-01 -0.12246653616E-01  0.23344100970E-02  0.18653555779E-01  0.00000000000E+00 0.  1.
     999901    1    3    3    0    0 -0.69063451449E-01 -0.22745078073E-01  0.11407721409E+00  0.89033741339E+00  0.88000000000E+00 0. -1.
        -11    1    4    4    0    0  0.51351302575E-01  0.25526767272E-01 -0.10481266038E+00  0.11947605208E+00  0.51100000000E-03 0.  1.
         11    1    4    4    0    0  0.38368057103E-02  0.94649644167E-02 -0.11598963806E-01  0.15462978750E-01  0.51100000000E-03 0. -1.
</event>
<event>
 8    1  0.1117714E+005  0.1043930E+01  0.7957747E-01            NaN
         13   -1    0    0    0    0  0.00000000000E+00  0.00000000000E+00  0.74505805969E-08  0.10566000000E+00  0.10566000000E+00 0.  1.
     999900   -1    0    0    0    0 -0.00000000000E+00 -0.00000000000E+00 -0.74505805969E-08  0.93827000000E+00  0.93827000000E+00 0. -1.
     999902    2    1    2    0    0 -0.12638271923E-01  0.19860435567E-01 -0.47718584616E-02  0.10199105610E+01  0.10196276864E+01 0.  0.
     999903    2    3    3    0    0  0.10673981524E+00  0.71604687165E-01  0.72403205675E-02  0.13026294100E+00  0.19884470695E-01 0.  0.
         14    1    1    2    0    0  0.12638271923E-01 -0.19860435567E-01  0.47718584616E-02  0.24019439029E-01  0.00000000000E+00 0.  1.
     999901    1    3    3    0    0 -0.11937808717E+00 -0.51744251598E-01 -0.12012179029E-01  0.88964761997E+00  0.88000000000E+00 0.  1.
        -11    1    4    4    0    0  0.44218271556E-01  0.24048376797E-01 -0.56664450361E-02  0.50655203941E-01  0.51100000000E-03 0.  1.
         11    1    4    4    0    0  0.62521543687E-01  0.47556310368E-01  0.12906765604E-01  0.79607737062E-01  0.51100000000E-03 0. -1.
</event>
<event>
 8    1  0.1117714E+005  0.1043930E+01  0.7957747E-01            NaN
         13   -1    0    0    0    0  0.00000000000E+00  0.00000000000E+00  0.74505805969E-08  0.10566000000E+00  0.10566000000E+00 0. -1.
     999900   -1    0    0    0    0 -0.00000000000E+00 -0.00000000000E+00 -0.74505805969E-08  0.93827000000E+00  0.93827000000E+00 0. -1.
     999902    2    1    2    0    0 -0.10622602578E-01 -0.40613629491E-02  0.24665925884E-01  0.10167685889E+01  0.10164057364E+01 0.  0.
     999903    2    3    3    0    0  0.18990032260E-01  0.40282520800E-01 -0.11436148793E+00  0.12425981583E+00  0.19458908031E-01 0.  0.
         14    1    1    2    0    0  0.10622602578E-01  0.40613629491E-02 -0.24665925884E-01  0.27161411124E-01  0.00000000000E+00 0.  1.
     999901    1    3    3    0    0 -0.29612634838E-01 -0.44343883749E-01  0.13902741381E+00  0.89250877304E+00  0.88000000000E+00 0.  1.
        -11    1    4    4    0    0  0.11788918417E-01  0.19437791698E-01 -0.82003638250E-01  0.85097967959E-01  0.51100000000E-03 0. -1.
         11    1    4    4    0    0  0.72011138434E-02  0.20844729101E-01 -0.32357849681E-01  0.39161847873E-01  0.51100000000E-03 0.  1.
</event>
<event>
 8    1  0.1117714E+005  0.1043930E+01  0.7957747E-01            NaN
         13   -1    0    0    0    0  0.00000000000E+00  0.00000000000E+00  0.74505805969E-08  0.10566000000E+00  0.10566000000E+00 0. -1.
     999900   -1    0    0    0    0 -0.00000000000E+00 -0.00000000000E+00 -0.74505805969E-08  0.93827000000E+00  0.93827000000E+00 0.  1.
     999902    2    1    2    0    0 -0.17157081698E-01  0.73072254161E-04 -0.16304526599E-01  0.10202612785E+01  0.10199866999E+01 0.  0.
     999903    2    3    3    0    0  0.98977322980E-01  0.12089784167E-01  0.77181228373E-01  0.12764087330E+00  0.19813560467E-01 0.  0.
         14    1    1    2    0    0  0.17157081698E-01 -0.73072254161E-04  0.16304526599E-01  0.23668721545E-01  0.00000000000E+00 0. -1.
     999901    1    3    3    0    0 -0.11613440468E+00 -0.12016711913E-01 -0.93485754971E-01  0.89262040515E+00  0.88000000000E+00 0.  1.
        -11    1    4    4    0    0  0.80610179992E-01  0.16480233130E-01  0.67437645235E-01  0.10638466204E+00  0.51100000000E-03 0. -1.
         11    1    4    4    0    0  0.18367142988E-01 -0.43904489628E-02  0.97435831379E-02  0.21256211257E-01  0.51100000000E-03 0.  1.
</event>
<event>
 8    1  0.1117714E+005  0.1043930E+01  0.7957747E-01            NaN
         13   -1    0    0    0    0  0.00000000000E+00  0.00000000000E+00  0.74505805969E-08  0.10566000000E+00  0.10566000000E+00 0.  1.
     999900   -1    0    0    0    0 -0.00000000000E+00 -0.00000000000E+00 -0.74505805969E-08  0.93827000000E+00  0.93827000000E+00 0.  1.
     999902    2    1    2    0    0  0.15940376314E-02 -0.24521970264E-01 -0.52341729575E-02  0.10188050214E+01  0.10184951680E+01 0.  0.
     999903    2    3    3    0    0  0.77985644053E-01  0.70949252313E-01  0.68434786885E-01  0.12730205031E+00  0.20172626871E-01 0.  0.
         14    1    1    2    0    0 -0.15940376314E-02  0.24521970264E-01  0.52341729575E-02  0.25124978570E-01  0.00000000000E+00 0.  1.
     999901    1    3    3    0    0 -0.76391606422E-01 -0.95471222577E-01 -0.73668959843E-01  0.89150297112E+00  0.88000000000E+00 0.  1.
        -11    1    4    4    0    0  0.62651265253E-01  0.60050222977E-01  0.46699336831E-01  0.98550999482E-01  0.51100000000E-03 0.  1.
         11    1    4    4    0    0  0.15334378800E-01  0.10899029336E-01  0.21735450054E-01  0.28751050828E-01  0.51100000000E-03 0. -1.
</event>
<event>
 8    1  0.1117714E+005  0.1043930E+01  0.7957747E-01            NaN
         13   -1    0    0    0    0  0.00000000000E+00  0.00000000000E+00  0.74505805969E-08  0.10566000000E+00  0.10566000000E+00 0. -1.
     999900   -1    0    0    0    0 -0.00000000000E+00 -0.00000000000E+00 -0.74505805969E-08  0.93827000000E+00  0.93827000000E+00 0.  1.
     999902    2    1    2    0    0  0.10369838165E-01 -0.21367945006E-01  0.73879720114E-02  0.10190562237E+01  0.10187526109E+01 0.  0.
     999903    2    3    3    0    0  0.11473315744E+00 -0.50914867179E-01  0.34874424030E-01  0.13197098085E+00  0.21073519367E-01 0.  0.
         14    1    1    2    0    0 -0.10369838165E-01  0.21367945006E-01 -0.73879720114E-02  0.24873776308E-01  0.00000000000E+00 0.  1.
     999901    1    3    3    0    0 -0.10436331928E+00  0.29546922173E-01 -0.27486452019E-01  0.88708524284E+00  0.88000000000E+00 0. -1.
        -11    1    4    4    0    0  0.76780138454E-01 -0.33824135506E-01  0.12860675891E-01  0.84881799634E-01  0.51100000000E-03 0. -1.
         11    1    4    4    0    0  0.37953018990E-01 -0.17090731673E-01  0.22013748140E-01  0.47089181217E-01  0.51100000000E-03 0.  1.
</event>
<event>
 8    1  0.1117714E+005  0.1043930E+01  0.7957747E-01            NaN
         13   -1    0    0    0    0  0.00000000000E+00  0.00000000000E+00  0.74505805969E-08  0.10566000000E+00  0.10566000000E+00 0. -1.
     999900   -1    0    0    0    0 -0.00000000000E+00 -0.00000000000E+00 -0.74505805969E-08  0.93827000000E+00  0.93827000000E+00 0. -1.
     999902    2    1    2    0    0  0.11264760609E-01 -0.20638915354E-01 -0.82736266628E-02  0.10190038580E+01  0.10186989496E+01 0.  0.
     999903    2    3    3    0    0 -0.51937619343E-02 -0.11865846597E+00  0.52386093622E-01  0.13133369572E+00  0.19935649406E-01 0.  0.
         14    1    1    2    0    0 -0.11264760609E-01  0.20638915354E-01  0.82736266628E-02  0.24926142034E-01  0.00000000000E+00 0. -1.
     999901    1    3    3    0    0  0.16458522544E-01  0.98019550621E-01 -0.60659720285E-01  0.88767016224E+00  0.88000000000E+00 0. -1.
        -11    1    4    4    0    0  0.21493508676E-02 -0.98507125699E-01  0.47242408199E-01  0.10927204481E+00  0.51100000000E-03 0.  1.
         11    1    4    4    0    0 -0.73431128019E-02 -0.20151340276E-01  0.51436854228E-02  0.22061650919E-01  0.51100000000E-03 0. -1.
</event>
<event>
 8    1  0.1117714E+005  0.1043930E+01  0.7957747E-01            NaN
         13   -1    0    0    0    0  0.00000000000E+00  0.00000000000E+00  0.74505805969E-08  0.10566000000E+00  0.10566000000E+00 0.  1.
     999900   -1    0    0    0    0 -0.00000000000E+00 -0.00000000000E+00 -0.74505805969E-08  0.93827000000E+00  0.93827000000E+00 0. -1.
     999902    2    1    2    0    0 -0.23944627814E-01  0.12767364936E-02 -0.36712387028E-02  0.10196719446E+01  0.10193833535E+01 0.  0.
     999903    2    3    3    0    0  0.22983597959E-01 -0.38409663574E-01 -0.12032088798E+00  0.12984926037E+00  0.19497853811E-01 0.  0.
         14    1    1    2    0    0  0.23944627814E-01 -0.12767364936E-02  0.36712387028E-02  0.24258055380E-01  0.00000000000E+00 0.  1.
     999901    1    3    3    0    0 -0.46928225773E-01  0.39686400067E-01  0.11664964928E+00  0.88982268425E+00  0.88000000000E+00 0.  1.
        -11    1    4    4    0    0  0.24687950361E-01 -0.33291068684E-01 -0.11505329863E+00  0.12229191630E+00  0.51100000000E-03 0.  1.
         11    1    4    4    0    0 -0.17043524025E-02 -0.51185948894E-02 -0.52675893558E-02  0.75573440688E-02  0.51100000000E-03 0. -1.
</event>
<event>
 8    1  0.1117714E+005  0.1043930E+01  0.7957747E-01            NaN
         13   -1    0    0    0    0  0.00000000000E+00  0.00000000000E+00  0.74505805969E-08  0.10566000000E+00  0.10566000000E+00 0. -1.
     999900   -1    0    0    0    0 -0.00000000000E+00 -0.00000000000E+00 -0.74505805969E-08  0.93827000000E+00  0.93827000000E+00 0. -1.
     999902    2    1    2    0    0  0.72117460254E-02  0.50454328962E-02 -0.22536621063E-01  0.10197356833E+01  0.10194486249E+01 0.  0.
     999903    2    3    3    0    0  0.89119801398E-02  0.88039228361E-01  0.90677793346E-01  0.12860810288E+00  0.22073803454E-01 0.  0.
         14    1    1    2    0    0 -0.72117460254E-02 -0.50454328962E-02  0.22536621063E-01  0.24194316745E-01  0.00000000000E+00 0. -1.
     999901    1    3    3    0    0 -0.17002341144E-02 -0.82993795465E-01 -0.11321441441E+00  0.89112758038E+00  0.88000000000E+00 0. -1.
        -11    1    4    4    0    0  0.30603996934E-02  0.43311652250E-01  0.29090696915E-01  0.52266576652E-01  0.51100000000E-03 0. -1.
         11    1    4    4    0    0  0.58515804464E-02  0.44727576111E-01  0.61587096431E-01  0.76341526224E-01  0.51100000000E-03 0.  1.
</event>
<event>
 8    1  0.1117714E+005  0.1043930E+01  0.7957747E-01            NaN
         13   -1    0    0    0    0  0.00000000000E+00  0.00000000000E+00  0.74505805969E-08  0.10566000000E+00  0.10566000000E+00 0.  1.
     999900   -1    0    0    0    0 -0.00000000000E+00 -0.00000000000E+00 -0.74505805969E-08  0.93827000000E+00  0.93827000000E+00 0.  1.
     999902    2    1    2    0    0  0.17670790000E-01 -0.14495987737E-01  0.69827742657E-02  0.10200312633E+01  0.10197512581E+01 0.  0.
     999903    2    3    3    0    0 -0.98319452622E-01 -0.28555267582E-01 -0.75198114498E-01  0.12851284048E+00  0.19459590814E-01 0.  0.
         14    1    1    2    0    0 -0.17670790000E-01  0.14495987737E-01 -0.69827742657E-02  0.23898736706E-01  0.00000000000E+00 0. -1.
     999901    1    3    3    0    0  0.11599024262E+00  0.14059279845E-01  0.82180888764E-01  0.89151842281E+00  0.88000000000E+00 0.  1.
        -11    1    4    4    0    0 -0.86061784017E-01 -0.19724269229E-01 -0.58123617827E-01  0.10570853104E+00  0.51100000000E-03 0. -1.
         11    1    4    4    0    0 -0.12257668604E-01 -0.88309983528E-02 -0.17074496671E-01  0.22804309441E-01  0.51100000000E-03 0.  1.
</event>
<event>
 8    1  0.1117714E+005  0.1043930E+01  0.7957747E-01            NaN
         13   -1    0    0    0    0  0.00000000000E+00  0.00000000000E+00  0.74505805969E-08  0.10566000000E+00  0.10566000000E+00 0.  1.
     999900   -1    0    0    0    0 -0.00000000000E+00 -0.00000000000E+00 -0.74505805969E-08  0.93827000000E+00  0.93827000000E+00 0.  1.
     999902    2    1    2    0    0 -0.28846128427E-01 -0.12818928086E-01  0.97291454084E-02  0.10108984951E+01  0.10103586923E+01 0.  0.
     999903    2    3    3    0    0  0.10115918995E+00 -0.21028564607E-02 -0.58721494985E-01  0.11865317733E+00  0.19818143204E-01 0.  0.
         14    1    1    2    0    0  0.28846128427E-01  0.12818928086E-01 -0.97291454084E-02  0.33031504854E-01  0.00000000000E+00 0. -1.
     999901    1    3    3    0    0 -0.13000531838E+00 -0.10716071626E-01  0.68450640393E-01  0.89224531782E+00  0.88000000000E+00 0. -1.
        -11    1    4    4    0    0  0.66014503113E-01 -0.48164694793E-02 -0.48139853370E-01  0.81846316979E-01  0.51100000000E-03 0. -1.
         11    1    4    4    0    0  0.35144686838E-01  0.27136130187E-02 -0.10581641615E-01  0.36806860350E-01  0.51100000000E-03 0.  1.
</event>
<event>
 8    1  0.1117714E+005  0.1043930E+01  0.7957747E-01            NaN
         13   -1    0    0    0    0  0.00000000000E+00  0.00000000000E+00  0.74505805969E-08  0.10566000000E+00  0.10566000000E+00 0.  1.
     999900   -1    0    0    0    0 -0.00000000000E+00 -0.00000000000E+00 -0.74505805969E-08  0.93827000000E+00  0.93827000000E+00 0.  1.
     999902    2    1    2    0    0  0.96702878204E-02 -0.65089132603E-02 -0.20159785846E-01  0.10206427206E+01  0.10203770213E+01 0.  0.
     999903    2    3    3    0    0 -0.10233623039E+00 -0.77182867066E-01 -0.17857855495E-01  0.13072948504E+00  0.18476910934E-01 0.  0.
         14    1    1    2    0    0 -0.96702878204E-02  0.65089132603E-02  0.20159785846E-01  0.23287279440E-01  0.00000000000E+00 0.  1.
     999901    1    3    3    0    0  0.11200651821E+00  0.70673953806E-01 -0.23019303515E-02  0.88991323552E+00  0.88000000000E+00 0. -1.
        -11    1    4    4    0    0 -0.68080421879E-01 -0.58027195200E-01 -0.19042938616E-01  0.91460340356E-01  0.51100000000E-03 0.  1.
         11    1    4    4    0    0 -0.34255808509E-01 -0.19155671867E-01  0.11850831213E-02  0.39269144685E-01  0.51100000000E-03 0. -1.
</event>
<event>
 8    1  0.1117714E+005  0.1043930E+01  0.7957747E-01            NaN
         13   -1    0    0    0    0  0.00000000000E+00  0.00000000000E+00  0.74505805969E-08  0.10566000000E+00  0.10566000000E+00 0.  1.
     999900   -1    0    0    0    0 -0.00000000000E+00 -0.00000000000E+00 -0.74505805969E-08  0.93827000000E+00  0.93827000000E+00 0.  1.
     999902    2    1    2    0    0  0.62359623660E-02  0.87770380169E-02 -0.20001346168E-01  0.10212148625E+01  0.10209622020E+01 0.  0.
     999903    2    3    3    0    0 -0.10451488584E+00 -0.64425631359E-01 -0.41039175834E-01  0.13100872263E+00  0.20125807212E-01 0.  0.
         14    1    1    2    0    0 -0.62359623660E-02 -0.87770380169E-02  0.20001346168E-01  0.22715137497E-01  0.00000000000E+00 0.  1.
     999901    1    3    3    0    0  0.11075084820E+00  0.73202669376E-01  0.21037829666E-01  0.89020613987E+00  0.88000000000E+00 0. -1.
        -11    1    4    4    0    0 -0.53767565423E-01 -0.44833410407E-01 -0.22478232214E-01  0.73529027090E-01  0.51100000000E-03 0. -1.
         11    1    4    4    0    0 -0.50747320413E-01 -0.19592220952E-01 -0.18560943620E-01  0.57479695545E-01  0.51100000000E-03 0.  1.
</event>
<event>
 7    1  0.1117714E+005  0.1043930E+01  0.7957747E-01            NaN
         13   -1    0    0    0    0  0.00000000000E+00  0.00000000000E+00  0.74505805969E-08  0.10566000000E+00  0.10566000000E+00 0. -1.
     999900   -1    0    0    0    0 -0.00000000000E+00 -0.00000000000E+00 -0.74505805969E-08  0.93827000000E+00  0.93827000000E+00 0.  1.
     999903    2    1    2    0    0 -0.43352789930E-01  0.38032773818E-02 -0.73010196155E-01  0.87651684315E-01  0.21410271068E-01 0.  0.
         14    1    1    2    0    0  0.65662578630E-01 -0.20900019387E-02 -0.25558772156E-01  0.70492504386E-01  0.00000000000E+00 0. -1.
     999901    1    1    2    0    0 -0.22309788700E-01 -0.17132754430E-02  0.98568968311E-01  0.88578581130E+00  0.88000000000E+00 0. -1.
        -11    1    3    3    0    0 -0.37554123023E-01  0.24353243013E-02 -0.43410935764E-01  0.57454446524E-01  0.51100000000E-03 0.  1.
         11    1    3    3    0    0 -0.57986669064E-02  0.13679530805E-02 -0.29599260390E-01  0.30197237791E-01  0.51100000000E-03 0. -1.
</event>
<event>
 8    1  0.1117714E+005  0.1043930E+01  0.7957747E-01            NaN
         13   -1    0    0    0    0  0.00000000000E+00  0.00000000000E+00  0.74505805969E-08  0.10566000000E+00  0.10566000000E+00 0.  1.
     999900   -1    0    0    0    0 -0.00000000000E+00 -0.00000000000E+00 -0.74505805969E-08  0.93827000000E+00  0.93827000000E+00 0. -1.
     999902    2    1    2    0    0 -0.20445892636E-02 -0.16092057458E-01  0.20248853345E-01  0.10179848517E+01  0.10176541689E+01 0.  0.
     999903    2    3    3    0    0 -0.29391166526E-01  0.75206363458E-01  0.99339032021E-01  0.12931253115E+00  0.18266079363E-01 0.  0.
         14    1    1    2    0    0  0.20445892636E-02  0.16092057458E-01 -0.20248853345E-01  0.25945148300E-01  0.00000000000E+00 0. -1.
     999901    1    3    3    0    0  0.27346577262E-01 -0.91298420916E-01 -0.79090178675E-01  0.88867232055E+00  0.88000000000E+00 0.  1.
        -11    1    4    4    0    0 -0.39966307139E-02  0.34981487360E-01  0.42157285123E-01  0.54928820530E-01  0.51100000000E-03 0.  1.
         11    1    4    4    0    0 -0.25394535812E-01  0.40224876098E-01  0.57181746898E-01  0.74383710619E-01  0.51100000000E-03 0. -1.
</event>
<event>
 8    1  0.1117714E+005  0.1043930E+01  0.7957747E-01            NaN
         13   -1    0    0    0    0  0.00000000000E+00  0.00000000000E+00  0.74505805969E-08  0.10566000000E+00  0.10566000000E+00 0.  1.
     999900   -1    0    0    0    0 -0.00000000000E+00 -0.00000000000E+00 -0.74505805969E-08  0.93827000000E+00  0.93827000000E+00 0.  1.
     999902    2    1    2    0    0  0.60075461497E-02  0.11151856691E-01 -0.19435211816E-01  0.10207312505E+01  0.10204675908E+01 0.  0.
     999903    2    3    3    0    0  0.10799960840E-01 -0.86852729117E-01  0.91849135313E-01  0.12831202618E+00  0.19174897549E-01 0.  0.
         14    1    1    2    0    0 -0.60075461497E-02 -0.11151856691E-01  0.19435211816E-01  0.23198749465E-01  0.00000000000E+00 0.  1.
     999901    1    3    3    0    0 -0.47924146900E-02  0.98004585808E-01 -0.11128434713E+00  0.89241922435E+00  0.88000000000E+00 0.  1.
        -11    1    4    4    0    0  0.13832450825E-03 -0.32817975605E-01  0.46768112359E-01  0.57136294166E-01  0.51100000000E-03 0.  1.
         11    1    4    4    0    0  0.10661636331E-01 -0.54034753512E-01  0.45081022955E-01  0.71175732016E-01  0.51100000000E-03 0. -1.
</event>
<event>
 8    1  0.1117714E+005  0.1043930E+01  0.7957747E-01            NaN
         13   -1    0    0    0    0  0.00000000000E+00  0.00000000000E+00  0.74505805969E-08  0.10566000000E+00  0.10566000000E+00 0.  1.
     999900   -1    0    0    0    0 -0.00000000000E+00 -0.00000000000E+00 -0.74505805969E-08  0.93827000000E+00  0.93827000000E+00 0. -1.
     999902    2    1    2    0    0  0.21603999465E-01  0.23762412576E-02 -0.68746259213E-02  0.10211343908E+01  0.10208799167E+01 0.  0.
     999903    2    3    3    0    0 -0.70481805999E-01  0.81428691180E-01 -0.70927677522E-01  0.13049873086E+00  0.20021653119E-01 0.  0.
         14    1    1    2    0    0 -0.21603999465E-01 -0.23762412576E-02  0.68746259213E-02  0.22795609159E-01  0.00000000000E+00 0.  1.
     999901    1    3    3    0    0  0.92085805464E-01 -0.79052449923E-01  0.64053051601E-01  0.89063565998E+00  0.88000000000E+00 0. -1.
        -11    1    4    4    0    0 -0.26121862979E-01  0.33691920934E-01 -0.39612863622E-01  0.58197399831E-01  0.51100000000E-03 0.  1.
         11    1    4    4    0    0 -0.44359943020E-01  0.47736770246E-01 -0.31314813900E-01  0.72301331031E-01  0.51100000000E-03 0. -1.
</event>
<event>
 8    1  0.1117714E+005  0.1043930E+01  0.7957747E-01            NaN
         13   -1    0    0    0    0  0.00000000000E+00  0.00000000000E+00  0.74505805969E-08  0.10566000000E+00  0.10566000000E+00 0.  1.
     999900   -1    0    0    0    0 -0.00000000000E+00 -0.00000000000E+00 -0.74505805969E-08  0.93827000000E+00  0.93827000000E+00 0.  1.
     999902    2    1    2    0    0 -0.10640456860E-01  0.12164342836E-01 -0.18510724317E-01  0.10193568953E+01  0.10190606668E+01 0.  0.
     999903    2    3    3    0    0 -0.12090989690E+00  0.50922490752E-01 -0.57638032147E-02  0.13153707833E+00  0.75152057508E-02 0.  0.
         14    1    1    2    0    0  0.10640456860E-01 -0.12164342836E-01  0.18510724317E-01  0.24573104679E-01  0.00000000000E+00 0.  1.
     999901    1    3    3    0    0  0.11026944004E+00 -0.38758147916E-01 -0.12746921103E-01  0.88781981699E+00  0.88000000000E+00 0. -1.
        -11    1    4    4    0    0 -0.25865843781E-01  0.13736506487E-01 -0.29174972357E-02  0.29436480702E-01  0.51100000000E-03 0.  1.
         11    1    4    4    0    0 -0.95044053115E-01  0.37185984265E-01 -0.28463059790E-02  0.10210059763E+00  0.51100000000E-03 0. -1.
</event>
<event>
 8    1  0.1117714E+005  0.1043930E+01  0.7957747E-01            NaN
         13   -1    0    0    0    0  0.00000000000E+00  0.00000000000E+00  0.74505805969E-08  0.10566000000E+00  0.10566000000E+00 0.  1.
     999900   -1    0    0    0    0 -0.00000000000E+00 -0.00000000000E+00 -0.74505805969E-08  0.93827000000E+00  0.93827000000E+00 0.  1.
     999902    2    1    2    0    0  0.88479797289E-02 -0.90279178022E-02  0.20205392351E-01  0.10200962440E+01  0.10198177774E+01 0.  0.
     999903    2    3    3    0    0  0.44824545438E-01 -0.12145291445E+00  0.18569528894E-01  0.13221316093E+00  0.19376331380E-01 0.  0.
         14    1    1    2    0    0 -0.88479797289E-02  0.90279178022E-02 -0.20205392351E-01  0.23833756002E-01  0.00000000000E+00 0.  1.
     999901    1    3    3    0    0 -0.35976565709E-01  0.11242499665E+00  0.16358634569E-02  0.88788308307E+00  0.88000000000E+00 0. -1.
        -11    1    4    4    0    0  0.14214714121E-01 -0.43649400668E-01 -0.25430938004E-02  0.45978872575E-01  0.51100000000E-03 0.  1.
         11    1    4    4    0    0  0.30609831317E-01 -0.77803513780E-01  0.21112622694E-01  0.86234288353E-01  0.51100000000E-03 0. -1.
</event>
<event>
 8    1  0.1117714E+005  0.1043930E+01  0.7957747E-01            NaN
         13   -1    0    0    0    0  0.00000000000E+00  0.00000000000E+00  0.74505805969E-08  0.10566000000E+00  0.10566000000E+00 0. -1.
     999900   -1    0    0    0    0 -0.00000000000E+00 -0.00000000000E+00 -0.74505805969E-08  0.93827000000E+00  0.93827000000E+00 0.  1.
     999902    2    1    2    0    0 -0.28900709086E-01  0.12252175220E-01  0.26877354507E-02  0.10124245924E+01  0.10119342690E+01 0.  0.
     999903    2    3    3    0    0 -0.11216369754E+00 -0.36907637162E-01  0.40235759722E-01  0.12633246037E+00  0.19952580202E-01 0.  0.
         14    1    1    2    0    0  0.28900709086E-01 -0.12252175220E-01 -0.26877354507E-02  0.31505407554E-01  0.00000000000E+00 0. -1.
     999901    1    3    3    0    0  0.83262988451E-01  0.49159812382E-01 -0.37548024272E-01  0.88609213208E+00  0.88000000000E+00 0.  1.
        -11    1    4    4    0    0 -0.56294765695E-01 -0.28800431432E-01  0.19241527337E-01  0.66098887968E-01  0.51100000000E-03 0.  1.
         11    1    4    4    0    0 -0.55868931842E-01 -0.81072057300E-02  0.20994232385E-01  0.60233572403E-01  0.51100000000E-03 0. -1.
</event>
<event>
 8    1  0.1117714E+005  0.1043930E+01  0.7957747E-01            NaN
         13   -1    0    0    0    0  0.00000000000E+00  0.00000000000E+00  0.74505805969E-08  0.10566000000E+00  0.10566000000E+00 0.  1.
     999900   -1    0    0    0    0 -0.00000000000E+00 -0.00000000000E+00 -0.74505805969E-08  0.93827000000E+00  0.93827000000E+00 0.  1.
     999902    2    1    2    0    0 -0.17317832622E-01 -0.11898446204E-01 -0.11572173265E-01  0.10199425962E+01  0.10196604846E+01 0.  0.
     999903    2    3    3    0    0  0.52204205679E-02 -0.65264193191E-01 -0.11307736269E+00  0.13221562277E+00  0.20194386559E-01 0.  0.
         14    1    1    2    0    0  0.17317832622E-01  0.11898446204E-01  0.11572173265E-01  0.23987403837E-01  0.00000000000E+00 0.  1.
     999901    1    3    3    0    0 -0.22538253190E-01  0.53365746987E-01  0.10150518942E+00  0.88772697339E+00  0.88000000000E+00 0. -1.
        -11    1    4    4    0    0 -0.12433113408E-02 -0.17747314084E-01 -0.49335276894E-01  0.52447532329E-01  0.51100000000E-03 0.  1.
         11    1    4    4    0    0  0.64637319087E-02 -0.47516879108E-01 -0.63742085794E-01  0.79768090441E-01  0.51100000000E-03 0. -1.
</event>
<event>
 8    1  0.1117714E+005  0.1043930E+01  0.7957747E-01            NaN
         13   -1    0    0    0    0  0.00000000000E+00  0.00000000000E+00  0.74505805969E-08  0.10566000000E+00  0.10566000000E+00 0.  1.
     999900   -1    0    0    0    0 -0.00000000000E+00 -0.00000000000E+00 -0.74505805969E-08  0.93827000000E+00  0.93827000000E+00 0. -1.
     999902    2    1    2    0    0  0.10021903865E-01  0.21847723185E-01 -0.37875966352E-02  0.10195967418E+01  0.10193063369E+01 0.  0.
     999903    2    3    3    0    0  0.45559775422E-01 -0.11750625806E+00  0.83208984539E-02  0.12784055986E+00  0.19762529605E-01 0.  0.
         14    1    1    2    0    0 -0.10021903865E-01 -0.21847723185E-01  0.37875966352E-02  0.24333258181E-01  0.00000000000E+00 0.  1.
     999901    1    3    3    0    0 -0.35537871557E-01  0.13935398124E+00 -0.12108495089E-01  0.89175618196E+00  0.88000000000E+00 0. -1.
        -11    1    4    4    0    0  0.86527933381E-02 -0.29513703856E-01 -0.60336113253E-02  0.31346373546E-01  0.51100000000E-03 0. -1.
         11    1    4    4    0    0  0.36906982084E-01 -0.87992554200E-01  0.14354509779E-01  0.96494186318E-01  0.51100000000E-03 0.  1.
</event>
<event>
 7    1  0.1117714E+005  0.1043930E+01  0.7957747E-01            NaN
         13   -1    0    0    0    0  0.00000000000E+00  0.00000000000E+00  0.74505805969E-08  0.10566000000E+00  0.10566000000E+00 0. -1.
     999900   -1    0    0    0    0 -0.00000000000E+00 -0.00000000000E+00 -0.74505805969E-08  0.93827000000E+00  0.93827000000E+00 0. -1.
     999903    2    1    2    0    0 -0.38035372399E-01  0.51465688129E-01 -0.26461512198E-01  0.72258986908E-01  0.20633539516E-01 0.  0.
         14    1    1    2    0    0 -0.28492787770E-01  0.61747129658E-01  0.45330592703E-01  0.81727655116E-01  0.00000000000E+00 0. -1.
     999901    1    1    2    0    0  0.66528160169E-01 -0.11321281779E+00 -0.18869080505E-01  0.88994335798E+00  0.88000000000E+00 0.  1.
        -11    1    3    3    0    0 -0.50353037210E-02  0.21398037724E-01 -0.13362782434E-01  0.25730436790E-01  0.51100000000E-03 0. -1.
         11    1    3    3    0    0 -0.33000068678E-01  0.30067650405E-01 -0.13098729764E-01  0.46528550118E-01  0.51100000000E-03 0.  1.
</event>
<event>
 8    1  0.1117714E+005  0.1043930E+01  0.7957747E-01            NaN
         13   -1    0    0    0    0  0.00000000000E+00  0.00000000000E+00  0.74505805969E-08  0.10566000000E+00  0.10566000000E+00 0. -1.
     999900   -1    0    0    0    0 -0.00000000000E+00 -0.00000000000E+00 -0.74505805969E-08  0.93827000000E+00  0.93827000000E+00 0.  1.
     999902    2    1    2    0    0 -0.37629983524E-02 -0.12914073707E-01 -0.20403577965E-01  0.10194915170E+01  0.10191985645E+01 0.  0.
     999903    2    3    3    0    0 -0.17438038354E-01 -0.10987427734E+00  0.64533867145E-01  0.12999578494E+00  0.18916714614E-01 0.  0.
         14    1    1    2    0    0  0.37629983524E-02  0.12914073707E-01  0.20403577965E-01  0.24438482975E-01  0.00000000000E+00 0. -1.
     999901    1    3    3    0    0  0.13675040002E-01  0.96960203634E-01 -0.84937445111E-01  0.88949573208E+00  0.88000000000E+00 0. -1.
        -11    1    4    4    0    0 -0.15220444958E-01 -0.56364676315E-01  0.25439746573E-01  0.63687365368E-01  0.51100000000E-03 0.  1.
         11    1    4    4    0    0 -0.22175933966E-02 -0.53509601026E-01  0.39094120572E-01  0.66308419577E-01  0.51100000000E-03 0. -1.
</event>
<event>
 8    1  0.1117714E+005  0.1043930E+01  0.7957747E-01            NaN
         13   -1    0    0    0    0  0.00000000000E+00  0.00000000000E+00  0.74505805969E-08  0.10566000000E+00  0.10566000000E+00 0.  1.
     999900   -1    0    0    0    0 -0.00000000000E+00 -0.00000000000E+00 -0.74505805969E-08  0.93827000000E+00  0.93827000000E+00 0.  1.
     999902    2    1    2    0    0  0.18242956622E-01 -0.82265505984E-02  0.12027084203E-01  0.10205819304E+01  0.10203148260E+01 0.  0.
     999903    2    3    3    0    0  0.21580427567E-01  0.60695047911E-01  0.11352453335E+00  0.13206459366E+00  0.20090632919E-01 0.  0.
         14    1    1    2    0    0 -0.18242956622E-01  0.82265505984E-02 -0.12027084203E-01  0.23348069631E-01  0.00000000000E+00 0. -1.
     999901    1    3    3    0    0 -0.33374709450E-02 -0.68921598509E-01 -0.10149744915E+00  0.88851733671E+00  0.88000000000E+00 0.  1.
        -11    1    4    4    0    0 -0.89053409437E-03  0.25215002355E-01  0.48114939880E-01  0.54331371743E-01  0.51100000000E-03 0.  1.
         11    1    4    4    0    0  0.22470961662E-01  0.35480045556E-01  0.65409593468E-01  0.77733221915E-01  0.51100000000E-03 0. -1.
</event>
<event>
 8    1  0.1117714E+005  0.1043930E+01  0.7957747E-01            NaN
         13   -1    0    0    0    0  0.00000000000E+00  0.00000000000E+00  0.74505805969E-08  0.10566000000E+00  0.10566000000E+00 0. -1.
     999900   -1    0    0    0    0 -0.00000000000E+00 -0.00000000000E+00 -0.74505805969E-08  0.93827000000E+00  0.93827000000E+00 0.  1.
     999902    2    1    2    0    0  0.19937100640E-01  0.82308320728E-02  0.75329745400E-02  0.10210831122E+01  0.10208274789E+01 0.  0.
     999903    2    3    3    0    0  0.58162089370E-02  0.71710847107E-01  0.10974814572E+00  0.13278302035E+00  0.20258359414E-01 0.  0.
         14    1    1    2    0    0 -0.19937100640E-01 -0.82308320728E-02 -0.75329745400E-02  0.22846887839E-01  0.00000000000E+00 0.  1.
     999901    1    3    3    0    0  0.14120891703E-01 -0.63480015034E-01 -0.10221517118E+00  0.88830009181E+00  0.88000000000E+00 0.  1.
        -11    1    4    4    0    0 -0.38242041857E-02  0.47783858586E-01  0.81265203177E-01  0.94351555617E-01  0.51100000000E-03 0.  1.
         11    1    4    4    0    0  0.96404131227E-02  0.23926988521E-01  0.28482942539E-01  0.38431464733E-01  0.51100000000E-03 0. -1.
</event>
<event>
 8    1  0.1117714E+005  0.1043930E+01  0.7957747E-01            NaN
         13   -1    0    0    0    0  0.00000000000E+00  0.00000000000E+00  0.74505805969E-08  0.10566000000E+00  0.10566000000E+00 0. -1.
     999900   -1    0    0    0    0 -0.00000000000E+00 -0.00000000000E+00 -0.74505805969E-08  0.93827000000E+00  0.93827000000E+00 0. -1.
     999902    2    1    2    0    0  0.14073067930E-01  0.32662402371E-02 -0.18564573008E-01  0.10204063324E+01  0.10201351480E+01 0.  0.
     999903    2    3    3    0    0  0.26866471543E-01 -0.10023050261E+00  0.74580301083E-01  0.12936693118E+00  0.20140025502E-01 0.  0.
         14    1    1    2    0    0 -0.14073067930E-01 -0.32662402371E-02  0.18564573008E-01  0.23523667597E-01  0.00000000000E+00 0. -1.
     999901    1    3    3    0    0 -0.12793403613E-01  0.10349674285E+00 -0.93144874091E-01  0.89103940122E+00  0.88000000000E+00 0. -1.
        -11    1    4    4    0    0  0.10988162724E-01 -0.54969396573E-01  0.28654147543E-01  0.62957887291E-01  0.51100000000E-03 0.  1.
         11    1    4    4    0    0  0.15878308820E-01 -0.45261106038E-01  0.45926153540E-01  0.66409043892E-01  0.51100000000E-03 0. -1.
</event>
<event>
 8    1  0.1117714E+005  0.1043930E+01  0.7957747E-01            NaN
         13   -1    0    0    0    0  0.00000000000E+00  0.00000000000E+00  0.74505805969E-08  0.10566000000E+00  0.10566000000E+00 0.  1.
     999900   -1    0    0    0    0 -0.00000000000E+00 -0.00000000000E+00 -0.74505805969E-08  0.93827000000E+00  0.93827000000E+00 0. -1.
     999902    2    1    2    0    0  0.15079994897E-01 -0.15408636400E-01 -0.11242353935E-01  0.10196149256E+01  0.10193249598E+01 0.  0.
     999903    2    3    3    0    0 -0.27763205411E-01  0.60238954722E-01 -0.10986536181E+00  0.12984832948E+00  0.19765214490E-01 0.  0.
         14    1    1    2    0    0 -0.15079994897E-01  0.15408636400E-01  0.11242353935E-01  0.24315074415E-01  0.00000000000E+00 0.  1.
     999901    1    3    3    0    0  0.42843200308E-01 -0.75647591122E-01  0.98623007873E-01  0.88976659610E+00  0.88000000000E+00 0.  1.
        -11    1    4    4    0    0 -0.82849978171E-02  0.39264236643E-01 -0.71295984099E-01  0.81815034912E-01  0.51100000000E-03 0.  1.
         11    1    4    4    0    0 -0.19478207594E-01  0.20974718080E-01 -0.38569377709E-01  0.48033294572E-01  0.51100000000E-03 0. -1.
</event>
<event>
 8    1  0.1117714E+005  0.1043930E+01  0.7957747E-01            NaN
         13   -1    0    0    0    0  0.00000000000E+00  0.00000000000E+00  0.74505805969E-08  0.10566000000E+00  0.10566000000E+00 0.  1.
     999900   -1    0    0    0    0 -0.00000000000E+00 -0.00000000000E+00 -0.74505805969E-08  0.93827000000E+00  0.93827000000E+00 0. -1.
     999902    2    1    2    0    0  0.93570336205E-02  0.13366870521E-01 -0.16367381294E-01  0.10208189966E+01  0.10205573504E+01 0.  0.
     999903    2    3    3    0    0  0.73365344075E-01 -0.81357154205E-01  0.66254414961E-01  0.12958610571E+00  0.20036243147E-01 0.  0.
         14    1    1    2    0    0 -0.93570336205E-02 -0.13366870521E-01  0.16367381294E-01  0.23111003356E-01  0.00000000000E+00 0.  1.
     999901    1    3    3    0    0 -0.64008310455E-01  0.94724024726E-01 -0.82621796255E-01  0.89123289093E+00  0.88000000000E+00 0. -1.
        -11    1    4    4    0    0  0.18877684394E-01 -0.20108618676E-01  0.27343487998E-01  0.38841356438E-01  0.51100000000E-03 0. -1.
         11    1    4    4    0    0  0.54487659681E-01 -0.61248535529E-01  0.38910926963E-01  0.90744749271E-01  0.51100000000E-03 0.  1.
</event>
<event>
 8    1  0.1117714E+005  0.1043930E+01  0.7957747E-01            NaN
         13   -1    0    0    0    0  0.00000000000E+00  0.00000000000E+00  0.74505805969E-08  0.10566000000E+00  0.10566000000E+00 0.  1.
     999900   -1    0    0    0    0 -0.00000000000E+00 -0.00000000000E+00 -0.74505805969E-08  0.93827000000E+00  0.93827000000E+00 0.  1.
     999902    2    1    2    0    0 -0.20547232657E-01 -0.27094312803E-02  0.12574955442E-01  0.10196883150E+01  0.10194001179E+01 0.  0.
     999903    2    3    3    0    0 -0.74648745804E-01  0.94117212162E-01  0.50810591885E-01  0.13190211522E+00  0.19646039732E-01 0.  0.
         14    1    1    2    0    0  0.20547232657E-01  0.27094312803E-02 -0.12574955442E-01  0.24241685009E-01  0.00000000000E+00 0. -1.
     999901    1    3    3    0    0  0.54101513147E-01 -0.96826643442E-01 -0.38235636443E-01  0.88778619977E+00  0.88000000000E+00 0.  1.
        -11    1    4    4    0    0 -0.65698224909E-01  0.80281836108E-01  0.50584728765E-01  0.11541449593E+00  0.51100000000E-03 0.  1.
         11    1    4    4    0    0 -0.89505208949E-02  0.13835376054E-01  0.22586311996E-03  0.16487619295E-01  0.51100000000E-03 0. -1.
</event>
<event>
 8    1  0.1117714E+005  0.1043930E+01  0.7957747E-01            NaN
         13   -1    0    0    0    0  0.00000000000E+00  0.00000000000E+00  0.74505805969E-08  0.10566000000E+00  0.10566000000E+00 0. -1.
     999900   -1    0    0    0    0 -0.00000000000E+00 -0.00000000000E+00 -0.74505805969E-08  0.93827000000E+00  0.93827000000E+00 0. -1.
     999902    2    1    2    0    0 -0.13695588059E-01 -0.12477364547E-02 -0.19857212096E-01  0.10197756039E+01  0.10194895034E+01 0.  0.
     999903    2    3    3    0    0  0.11635393349E+00  0.25592368567E-01 -0.46273753323E-01  0.12942112228E+00  0.20380369905E-01 0.  0.
         14    1    1    2    0    0  0.13695588059E-01  0.12477364547E-02  0.19857212096E-01  0.24154396097E-01  0.00000000000E+00 0. -1.
     999901    1    3    3    0    0 -0.13004952155E+00 -0.26840105022E-01  0.26416541226E-01  0.89035448162E+00  0.88000000000E+00 0.  1.
        -11    1    4    4    0    0  0.50081584398E-01  0.12596704032E-01 -0.30812592803E-01  0.60137501150E-01  0.51100000000E-03 0.  1.
         11    1    4    4    0    0  0.66272349097E-01  0.12995664535E-01 -0.15461160519E-01  0.69283621132E-01  0.51100000000E-03 0. -1.
</event>
<event>
 8    1  0.1117714E+005  0.1043930E+01  0.7957747E-01            NaN
         13   -1    0    0    0    0  0.00000000000E+00  0.00000000000E+00  0.74505805969E-08  0.10566000000E+00  0.10566000000E+00 0. -1.
     999900   -1    0    0    0    0 -0.00000000000E+00 -0.00000000000E+00 -0.74505805969E-08  0.93827000000E+00  0.93827000000E+00 0.  1.
     999902    2    1    2    0    0  0.26289020972E-02 -0.26005423168E-02  0.24895551087E-01  0.10187613208E+01  0.10184503750E+01 0.  0.
     999903    2    3    3    0    0  0.12191400321E+00  0.12539811267E-02 -0.36307391328E-01  0.12859864309E+00  0.18835808773E-01 0.  0.
         14    1    1    2    0    0 -0.26289020972E-02  0.26005423168E-02 -0.24895551087E-01  0.25168679156E-01  0.00000000000E+00 0.  1.
     999901    1    3    3    0    0 -0.11928510112E+00 -0.38545234435E-02  0.61202942414E-01  0.89016267775E+00  0.88000000000E+00 0. -1.
        -11    1    4    4    0    0  0.31074876190E-01 -0.48872292883E-02 -0.28178515908E-02  0.31586933199E-01  0.51100000000E-03 0.  1.
         11    1    4    4    0    0  0.90839127024E-01  0.61412104150E-02 -0.33489539737E-01  0.97011709894E-01  0.51100000000E-03 0. -1.
</event>
<event>
 8    1  0.1507900E+005  0.1043930E+01  0.7957747E-01            NaN
         13   -1    0    0    0    0  0.00000000000E+00  0.00000000000E+00  0.74505805969E-08  0.10566000000E+00  0.10566000000E+00 0.  1.
     999900   -1    0    0    0    0 -0.00000000000E+00 -0.00000000000E+00 -0.74505805969E-08  0.93827000000E+00  0.93827000000E+00 0. -1.
     999902    2    1    2    0    0 -0.21550606712E-01  0.88824949815E-02  0.53489711845E-02  0.10200147568E+01  0.10197343601E+01 0.  0.
     999903    2    3    3    0    0  0.67761038230E-01 -0.72004635166E-01  0.79746566163E-01  0.12869309771E+00  0.20643953007E-01 0.  0.
         14    1    1    2    0    0  0.21550606712E-01 -0.88824949815E-02 -0.53489711845E-02  0.23915243245E-01  0.00000000000E+00 0.  1.
     999901    1    3    3    0    0 -0.89311644942E-01  0.80887130147E-01 -0.74397594978E-01  0.89132165905E+00  0.88000000000E+00 0. -1.
        -11    1    4    4    0    0  0.49471488294E-01 -0.44031679532E-01  0.62570800784E-01  0.91113024251E-01  0.51100000000E-03 0.  1.
         11    1    4    4    0    0  0.18289549936E-01 -0.27972955633E-01  0.17175765379E-01  0.37580073458E-01  0.51100000000E-03 0. -1.
</event>
<event>
 8    1  0.1117714E+005  0.1043930E+01  0.7957747E-01            NaN
         13   -1    0    0    0    0  0.00000000000E+00  0.00000000000E+00  0.74505805969E-08  0.10566000000E+00  0.10566000000E+00 0.  1.
     999900   -1    0    0    0    0 -0.00000000000E+00 -0.00000000000E+00 -0.74505805969E-08  0.93827000000E+00  0.93827000000E+00 0. -1.
     999902    2    1    2    0    0 -0.22803095959E-01  0.29442763523E-04 -0.74365407161E-02  0.10199449173E+01  0.10196628611E+01 0.  0.
     999903    2    3    3    0    0  0.10428613095E+00 -0.27456865785E-01  0.65099406824E-01  0.12743798043E+00  0.19313971595E-01 0.  0.
         14    1    1    2    0    0  0.22803095959E-01 -0.29442763523E-04  0.74365407161E-02  0.23985082656E-01  0.00000000000E+00 0. -1.
     999901    1    3    3    0    0 -0.12708922691E+00  0.27486308548E-01 -0.72535947540E-01  0.89250693691E+00  0.88000000000E+00 0.  1.
        -11    1    4    4    0    0  0.57003647854E-01 -0.18081572905E-01  0.46552001629E-01  0.75787262281E-01  0.51100000000E-03 0.  1.
         11    1    4    4    0    0  0.47282483100E-01 -0.93752928793E-02  0.18547405196E-01  0.51650718148E-01  0.51100000000E-03 0. -1.
</event>
<event>
 8    1  0.1117714E+005  0.1043930E+01  0.7957747E-01            NaN
         13   -1    0    0    0    0  0.00000000000E+00  0.00000000000E+00  0.74505805969E-08  0.10566000000E+00  0.10566000000E+00 0.  1.
     999900   -1    0    0    0    0 -0.00000000000E+00 -0.00000000000E+00 -0.74505805969E-08  0.93827000000E+00  0.93827000000E+00 0. -1.
     999902    2    1    2    0    0 -0.12621353854E-01 -0.18436507923E-01  0.76836879982E-02  0.10203028449E+01  0.10200292412E+01 0.  0.
     999903    2    3    3    0    0 -0.59707933300E-01 -0.99743717904E-02 -0.11340609874E+00  0.13072345542E+00  0.23730848559E-01 0.  0.
         14    1    1    2    0    0  0.12621353854E-01  0.18436507923E-01 -0.76836879982E-02  0.23627155113E-01  0.00000000000E+00 0.  1.
     999901    1    3    3    0    0  0.47086579447E-01 -0.84621361327E-02  0.12108978674E+00  0.88957938947E+00  0.88000000000E+00 0.  1.
        -11    1    4    4    0    0 -0.45884309636E-01  0.13615311046E-02 -0.92091225644E-01  0.10289936151E+00  0.51100000000E-03 0.  1.
         11    1    4    4    0    0 -0.13823623664E-01 -0.11335902895E-01 -0.21314873097E-01  0.27824093908E-01  0.51100000000E-03 0. -1.
</event>
<event>
 8    1  0.1117714E+005  0.1043930E+01  0.7957747E-01            NaN
         13   -1    0    0    0    0  0.00000000000E+00  0.00000000000E+00  0.74505805969E-08  0.10566000000E+00  0.10566000000E+00 0.  1.
     999900   -1    0    0    0    0 -0.00000000000E+00 -0.00000000000E+00 -0.74505805969E-08  0.93827000000E+00  0.93827000000E+00 0.  1.
     999902    2    1    2    0    0 -0.22124503549E-01  0.13465447987E-01 -0.44545296309E-02  0.10176496883E+01  0.10173102936E+01 0.  0.
     999903    2    3    3    0    0 -0.92747154002E-01  0.24968737271E-01  0.85510125281E-01  0.13017375990E+00  0.20192915220E-01 0.  0.
         14    1    1    2    0    0  0.22124503549E-01 -0.13465447987E-01  0.44545296309E-02  0.26280311661E-01  0.00000000000E+00 0. -1.
     999901    1    3    3    0    0  0.70622650454E-01 -0.11503289284E-01 -0.89964654912E-01  0.88747592844E+00  0.88000000000E+00 0.  1.
        -11    1    4    4    0    0 -0.54406720452E-01  0.20462566450E-01  0.61915814760E-01  0.84927245890E-01  0.51100000000E-03 0.  1.
         11    1    4    4    0    0 -0.38340433550E-01  0.45061708205E-02  0.23594310521E-01  0.45246514012E-01  0.51100000000E-03 0. -1.
</event>
<event>
 8    1  0.1117714E+005  0.1043930E+01  0.7957747E-01            NaN
         13   -1    0    0    0    0  0.00000000000E+00  0.00000000000E+00  0.74505805969E-08  0.10566000000E+00  0.10566000000E+00 0. -1.
     999900   -1    0    0    0    0 -0.00000000000E+00 -0.00000000000E+00 -0.74505805969E-08  0.93827000000E+00  0.93827000000E+00 0. -1.
     999902    2    1    2    0    0 -0.22407426116E-02 -0.23539112977E-01 -0.42724663960E-02  0.10199015848E+01  0.10196184963E+01 0.  0.
     999903    2    3    3    0    0 -0.95374623297E-02 -0.12229126746E+00 -0.47880044331E-01  0.13327491536E+00  0.20581232571E-01 0.  0.
         14    1    1    2    0    0  0.22407426116E-02  0.23539112977E-01  0.42724663960E-02  0.24028415184E-01  0.00000000000E+00 0.  1.
     999901    1    3    3    0    0  0.72967197181E-02  0.98752154486E-01  0.43607577935E-01  0.88662666945E+00  0.88000000000E+00 0. -1.
        -11    1    4    4    0    0  0.59295878014E-02 -0.55420410754E-01 -0.21478040327E-01  0.59733987620E-01  0.51100000000E-03 0.  1.
         11    1    4    4    0    0 -0.15467050131E-01 -0.66870856708E-01 -0.26402004004E-01  0.73540927741E-01  0.51100000000E-03 0. -1.
</event>
<event>
 8    1  0.1117714E+005  0.1043930E+01  0.7957747E-01            NaN
         13   -1    0    0    0    0  0.00000000000E+00  0.00000000000E+00  0.74505805969E-08  0.10566000000E+00  0.10566000000E+00 0. -1.
     999900   -1    0    0    0    0 -0.00000000000E+00 -0.00000000000E+00 -0.74505805969E-08  0.93827000000E+00  0.93827000000E+00 0. -1.
     999902    2    1    2    0    0  0.84344330967E-02 -0.15239423098E-01  0.14761506749E-01  0.10210984044E+01  0.10208431170E+01 0.  0.
     999903    2    3    3    0    0 -0.45960822446E-02 -0.44830919329E-01  0.12377147026E+00  0.13378300208E+00  0.23400416547E-01 0.  0.
         14    1    1    2    0    0 -0.84344330967E-02  0.15239423098E-01 -0.14761506749E-01  0.22831595642E-01  0.00000000000E+00 0. -1.
     999901    1    3    3    0    0  0.13030515341E-01  0.29591496231E-01 -0.10900996351E+00  0.88731540228E+00  0.88000000000E+00 0. -1.
        -11    1    4    4    0    0  0.56427428318E-04 -0.10695018328E-01  0.63173347695E-01  0.64074328565E-01  0.51100000000E-03 0. -1.
         11    1    4    4    0    0 -0.46525096729E-02 -0.34135901001E-01  0.60598122566E-01  0.69708673513E-01  0.51100000000E-03 0.  1.
</event>
<event>
 8    1  0.1117714E+005  0.1043930E+01  0.7957747E-01            NaN
         13   -1    0    0    0    0  0.00000000000E+00  0.00000000000E+00  0.74505805969E-08  0.10566000000E+00  0.10566000000E+00 0.  1.
     999900   -1    0    0    0    0 -0.00000000000E+00 -0.00000000000E+00 -0.74505805969E-08  0.93827000000E+00  0.93827000000E+00 0. -1.
     999902    2    1    2    0    0  0.25889456986E-01  0.12286267751E-01 -0.46321545733E-02  0.10149011658E+01  0.10144859305E+01 0.  0.
     999903    2    3    3    0    0 -0.94855337913E-01  0.77409540715E-01  0.54529468987E-02  0.12421488241E+00  0.20244264799E-01 0.  0.
         14    1    1    2    0    0 -0.25889456986E-01 -0.12286267751E-01  0.46321545733E-02  0.29028834187E-01  0.00000000000E+00 0.  1.
     999901    1    3    3    0    0  0.12074479490E+00 -0.65123272964E-01 -0.10085101472E-01  0.89068628341E+00  0.88000000000E+00 0.  1.
        -11    1    4    4    0    0 -0.64700541417E-01  0.64156590595E-01  0.52988844215E-02  0.91271942423E-01  0.51100000000E-03 0. -1.
         11    1    4    4    0    0 -0.30154796495E-01  0.13252950119E-01  0.15406247725E-03  0.32942939984E-01  0.51100000000E-03 0.  1.
</event>
<event>
 8    1  0.1117714E+005  0.1043930E+01  0.7957747E-01            NaN
         13   -1    0    0    0    0  0.00000000000E+00  0.00000000000E+00  0.74505805969E-08  0.10566000000E+00  0.10566000000E+00 0. -1.
     999900   -1    0    0    0    0 -0.00000000000E+00 -0.00000000000E+00 -0.74505805969E-08  0.93827000000E+00  0.93827000000E+00 0.  1.
     999902    2    1    2    0    0 -0.15523815884E-01  0.17812200318E-01 -0.47072006891E-02  0.10198380703E+01  0.10195534652E+01 0.  0.
     999903    2    3    3    0    0  0.47124087891E-01 -0.10973511232E+00 -0.40408612920E-01  0.12772391410E+00  0.20446703868E-01 0.  0.
         14    1    1    2    0    0  0.15523815884E-01 -0.17812200318E-01  0.47072006891E-02  0.24091929730E-01  0.00000000000E+00 0.  1.
     999901    1    3    3    0    0 -0.62647903775E-01  0.12754731264E+00  0.35701412231E-01  0.89211415617E+00  0.88000000000E+00 0. -1.
        -11    1    4    4    0    0  0.30664331852E-01 -0.91673950391E-01 -0.30714228562E-01  0.10142997282E+00  0.51100000000E-03 0. -1.
         11    1    4    4    0    0  0.16459756039E-01 -0.18061161928E-01 -0.96943843579E-02  0.26293941281E-01  0.51100000000E-03 0.  1.
</event>
<event>
 8    1  0.1117714E+005  0.1043930E+01  0.7957747E-01            NaN
         13   -1    0    0    0    0  0.00000000000E+00  0.00000000000E+00  0.74505805969E-08  0.10566000000E+00  0.10566000000E+00 0. -1.
     999900   -1    0    0    0    0 -0.00000000000E+00 -0.00000000000E+00 -0.74505805969E-08  0.93827000000E+00  0.93827000000E+00 0.  1.
     999902    2    1    2    0    0 -0.18612508690E-01 -0.12175927406E-01  0.70152380032E-02  0.10206085024E+01  0.10203420127E+01 0.  0.
     999903    2    3    3    0    0 -0.28970094546E-02  0.12718662547E+00  0.11056026849E-01  0.12949390477E+00  0.21485001317E-01 0.  0.
         14    1    1    2    0    0  0.18612508690E-01  0.12175927406E-01 -0.70152380032E-02  0.23321497640E-01  0.00000000000E+00 0.  1.
     999901    1    3    3    0    0 -0.15715499235E-01 -0.13936255287E+00 -0.40407888461E-02  0.89111459759E+00  0.88000000000E+00 0.  1.
        -11    1    4    4    0    0  0.18915106845E-02  0.64046995763E-01 -0.46714280450E-02  0.64247014249E-01  0.51100000000E-03 0.  1.
         11    1    4    4    0    0 -0.47885201391E-02  0.63139629705E-01  0.15727454894E-01  0.65246890523E-01  0.51100000000E-03 0. -1.
</event>
<event>
 8    1  0.1117714E+005  0.1043930E+01  0.7957747E-01            NaN
         13   -1    0    0    0    0  0.00000000000E+00  0.00000000000E+00  0.74505805969E-08  0.10566000000E+00  0.10566000000E+00 0.  1.
     999900   -1    0    0    0    0 -0.00000000000E+00 -0.00000000000E+00 -0.74505805969E-08  0.93827000000E+00  0.93827000000E+00 0.  1.
     999902    2    1    2    0    0 -0.21619356289E-01 -0.84085604404E-02  0.51872818101E-02  0.10201600958E+01  0.10198831368E+01 0.  0.
     999903    2    3    3    0    0  0.12195030894E+00  0.66924202290E-02 -0.31138945506E-01  0.12765806037E+00  0.20255372393E-01 0.  0.
         14    1    1    2    0    0  0.21619356289E-01  0.84085604404E-02 -0.51872818101E-02  0.23769904241E-01  0.00000000000E+00 0. -1.
     999901    1    3    3    0    0 -0.14356966523E+00 -0.15100980669E-01  0.36326227316E-01  0.89250203539E+00  0.88000000000E+00 0.  1.
        -11    1    4    4    0    0  0.65505860882E-01 -0.25915492374E-03 -0.26260827406E-01  0.70576038060E-01  0.51100000000E-03 0.  1.
         11    1    4    4    0    0  0.56444448055E-01  0.69515751527E-02 -0.48781180995E-02  0.57082022306E-01  0.51100000000E-03 0. -1.
</event>
<event>
 8    1  0.1117714E+005  0.1043930E+01  0.7957747E-01            NaN
         13   -1    0    0    0    0  0.00000000000E+00  0.00000000000E+00  0.74505805969E-08  0.10566000000E+00  0.10566000000E+00 0. -1.
     999900   -1    0    0    0    0 -0.00000000000E+00 -0.00000000000E+00 -0.74505805969E-08  0.93827000000E+00  0.93827000000E+00 0. -1.
     999902    2    1    2    0    0  0.80149678385E-02 -0.37291428788E-02 -0.22378836216E-01  0.10198684430E+01  0.10195845637E+01 0.  0.
     999903    2    3    3    0    0  0.58918892621E-02  0.12452293516E+00  0.27363608455E-01  0.12917915159E+00  0.19945184858E-01 0.  0.
         14    1    1    2    0    0 -0.80149678385E-02  0.37291428788E-02  0.22378836216E-01  0.24061557025E-01  0.00000000000E+00 0. -1.
     999901    1    3    3    0    0  0.21230785763E-02 -0.12825207804E+00 -0.49742444671E-01  0.89068929138E+00  0.88000000000E+00 0. -1.
        -11    1    4    4    0    0  0.63467138456E-02  0.10692557850E+00  0.30316723945E-01  0.11132261668E+00  0.51100000000E-03 0.  1.
         11    1    4    4    0    0 -0.45482458342E-03  0.17597356661E-01 -0.29531154894E-02  0.17856534909E-01  0.51100000000E-03 0. -1.
</event>
<event>
 8    1  0.1117714E+005  0.1043930E+01  0.7957747E-01            NaN
         13   -1    0    0    0    0  0.00000000000E+00  0.00000000000E+00  0.74505805969E-08  0.10566000000E+00  0.10566000000E+00 0.  1.
     999900   -1    0    0    0    0 -0.00000000000E+00 -0.00000000000E+00 -0.74505805969E-08  0.93827000000E+00  0.93827000000E+00 0.  1.
     999902    2    1    2    0    0  0.19791154907E-01  0.83572123195E-02 -0.10457436918E-01  0.10200366788E+01  0.10197568021E+01 0.  0.
     999903    2    3    3    0    0  0.55087032370E-01  0.10607668519E+00 -0.53219527079E-01  0.13289323455E+00  0.23269066418E-01 0.  0.
         14    1    1    2    0    0 -0.19791154907E-01 -0.83572123195E-02  0.10457436918E-01  0.23893321184E-01  0.00000000000E+00 0. -1.
     999901    1    3    3    0    0 -0.35295877464E-01 -0.97719472867E-01  0.42762090161E-01  0.88714344426E+00  0.88000000000E+00 0.  1.
        -11    1    4    4    0    0  0.42424196095E-01  0.74186026291E-01 -0.26736053658E-01  0.89545835176E-01  0.51100000000E-03 0. -1.
         11    1    4    4    0    0  0.12662836275E-01  0.31890658895E-01 -0.26483473421E-01  0.43347399377E-01  0.51100000000E-03 0.  1.
</event>
<event>
 8    1  0.1117714E+005  0.1043930E+01  0.7957747E-01            NaN
         13   -1    0    0    0    0  0.00000000000E+00  0.00000000000E+00  0.74505805969E-08  0.10566000000E+00  0.10566000000E+00 0. -1.
     999900   -1    0    0    0    0 -0.00000000000E+00 -0.00000000000E+00 -0.74505805969E-08  0.93827000000E+00  0.93827000000E+00 0.  1.
     999902    2    1    2    0    0  0.12613512790E-01  0.15166495310E-01  0.14022581105E-01  0.10197276021E+01  0.10194403496E+01 0.  0.
     999903    2    3    3    0    0  0.86121763453E-01 -0.88586944181E-01 -0.32638311228E-01  0.12936504782E+00  0.20135824277E-01 0.  0.
         14    1    1    2    0    0 -0.12613512790E-01 -0.15166495310E-01 -0.14022581105E-01  0.24202397934E-01  0.00000000000E+00 0. -1.
     999901    1    3    3    0    0 -0.73508250663E-01  0.10375343949E+00  0.46660892333E-01  0.89036255424E+00  0.88000000000E+00 0. -1.
        -11    1    4    4    0    0  0.22547890659E-01 -0.31571581037E-01 -0.17801621207E-01  0.42688768323E-01  0.51100000000E-03 0.  1.
         11    1    4    4    0    0  0.63573872794E-01 -0.57015363144E-01 -0.14836690020E-01  0.86676279502E-01  0.51100000000E-03 0. -1.
</event>
<event>
 8    1  0.1117714E+005  0.1043930E+01  0.7957747E-01            NaN
         13   -1    0    0    0    0  0.00000000000E+00  0.00000000000E+00  0.74505805969E-08  0.10566000000E+00  0.10566000000E+00 0. -1.
     999900   -1    0    0    0    0 -0.00000000000E+00 -0.00000000000E+00 -0.74505805969E-08  0.93827000000E+00  0.93827000000E+00 0. -1.
     999902    2    1    2    0    0 -0.84824731450E-03  0.23993471757E-01 -0.47685933053E-02  0.10194525473E+01  0.10191586483E+01 0.  0.
     999903    2    3    3    0    0  0.12495916313E+00  0.30668921420E-01 -0.78500424632E-02  0.13047472893E+00  0.20165726674E-01 0.  0.
         14    1    1    2    0    0  0.84824731450E-03 -0.23993471757E-01  0.47685933053E-02  0.24477452738E-01  0.00000000000E+00 0.  1.
     999901    1    3    3    0    0 -0.12580741044E+00 -0.66754496633E-02  0.30814491579E-02  0.88897781833E+00  0.88000000000E+00 0. -1.
        -11    1    4    4    0    0  0.66902462934E-01  0.12756469268E-01 -0.13564436382E-01  0.69447261359E-01  0.51100000000E-03 0.  1.
         11    1    4    4    0    0  0.58056700196E-01  0.17912452152E-01  0.57143939186E-02  0.61027467575E-01  0.51100000000E-03 0. -1.
</event>
<event>
 8    1  0.1117714E+005  0.1043930E+01  0.7957747E-01            NaN
         13   -1    0    0    0    0  0.00000000000E+00  0.00000000000E+00  0.74505805969E-08  0.10566000000E+00  0.10566000000E+00 0. -1.
     999900   -1    0    0    0    0 -0.00000000000E+00 -0.00000000000E+00 -0.74505805969E-08  0.93827000000E+00  0.93827000000E+00 0. -1.
     999902    2    1    2    0    0  0.11792107384E-01  0.19514626072E-01  0.42600720666E-02  0.10207346849E+01  0.10204711041E+01 0.  0.
     999903    2    3    3    0    0 -0.22500492715E-01 -0.10565427622E+00  0.67775021250E-01  0.12895142354E+00  0.19128979859E-01 0.  0.
         14    1    1    2    0    0 -0.11792107384E-01 -0.19514626072E-01 -0.42600720666E-02  0.23195315072E-01  0.00000000000E+00 0.  1.
     999901    1    3    3    0    0  0.34292600099E-01  0.12516890230E+00 -0.63514949184E-01  0.89178326139E+00  0.88000000000E+00 0.  1.
        -11    1    4    4    0    0 -0.18360895147E-01 -0.96420151429E-01  0.66892494409E-01  0.11878061711E+00  0.51100000000E-03 0. -1.
         11    1    4    4    0    0 -0.41395975677E-02 -0.92341247953E-02  0.88252684091E-03  0.10170806427E-01  0.51100000000E-03 0.  1.
</event>
<event>
 8    1  0.1117714E+005  0.1043930E+01  0.7957747E-01            NaN
         13   -1    0    0    0    0  0.00000000000E+00  0.00000000000E+00  0.74505805969E-08  0.10566000000E+00  0.10566000000E+00 0. -1.
     999900   -1    0    0    0    0 -0.00000000000E+00 -0.00000000000E+00 -0.74505805969E-08  0.93827000000E+00  0.93827000000E+00 0. -1.
     999902    2    1    2    0    0  0.14399110987E-01  0.18960737111E-01  0.35734701872E-02  0.10198548336E+01  0.10195706292E+01 0.  0.
     999903    2    3    3    0    0 -0.62302627926E-01  0.54689276181E-01  0.98834335735E-01  0.13067863183E+00  0.20884073374E-01 0.  0.
         14    1    1    2    0    0 -0.14399110987E-01 -0.18960737111E-01 -0.35734701872E-02  0.24075166420E-01  0.00000000000E+00 0. -1.
     999901    1    3    3    0    0  0.76701738912E-01 -0.35728539071E-01 -0.95260865547E-01  0.88917620175E+00  0.88000000000E+00 0. -1.
        -11    1    4    4    0    0 -0.33157280213E-01  0.42465810212E-01  0.61831089637E-01  0.82012773607E-01  0.51100000000E-03 0.  1.
         11    1    4    4    0    0 -0.29145347713E-01  0.12223465970E-01  0.37003246098E-01  0.48665858221E-01  0.51100000000E-03 0. -1.
</event>
<event>
 8    1  0.1117714E+005  0.1043930E+01  0.7957747E-01            NaN
         13   -1    0    0    0    0  0.00000000000E+00  0.00000000000E+00  0.74505805969E-08  0.10566000000E+00  0.10566000000E+00 0.  1.
     999900   -1    0    0    0    0 -0.00000000000E+00 -0.00000000000E+00 -0.74505805969E-08  0.93827000000E+00  0.93827000000E+00 0.  1.
     999902    2    1    2    0    0 -0.17038547924E-01  0.15279812561E-01  0.55426570314E-02  0.10203820524E+01  0.10201103014E+01 0.  0.
     999903    2    3    3    0    0  0.98939794512E-01 -0.38065866348E-01  0.70477722981E-01  0.12880294762E+00  0.19621334279E-01 0.  0.
         14    1    1    2    0    0  0.17038547924E-01 -0.15279812561E-01 -0.55426570314E-02  0.23547947559E-01  0.00000000000E+00 0. -1.
     999901    1    3    3    0    0 -0.11597834244E+00  0.53345678909E-01 -0.64935065950E-01  0.89157910483E+00  0.88000000000E+00 0. -1.
        -11    1    4    4    0    0  0.54308968036E-01 -0.29074321053E-01  0.33338968112E-01  0.70046613549E-01  0.51100000000E-03 0.  1.
         11    1    4    4    0    0  0.44630826476E-01 -0.89915452943E-02  0.37138754869E-01  0.58756334066E-01  0.51100000000E-03 0. -1.
</event>
<event>
 8    1  0.1117714E+005  0.1043930E+01  0.7957747E-01            NaN
         13   -1    0    0    0    0  0.00000000000E+00  0.00000000000E+00  0.74505805969E-08  0.10566000000E+00  0.10566000000E+00 0. -1.
     999900   -1    0    0    0    0 -0.00000000000E+00 -0.00000000000E+00 -0.74505805969E-08  0.93827000000E+00  0.93827000000E+00 0.  1.
     999902    2    1    2    0    0 -0.44693251626E-02 -0.13904173258E-01  0.20263293443E-01  0.10189519704E+01  0.10186457755E+01 0.  0.
     999903    2    3    3    0    0  0.69279031715E-03  0.83100781287E-01 -0.92845560549E-01  0.12641053075E+00  0.21286248199E-01 0.  0.
         14    1    1    2    0    0  0.44693251626E-02  0.13904173258E-01 -0.20263293443E-01  0.24978029597E-01  0.00000000000E+00 0.  1.
     999901    1    3    3    0    0 -0.51621154797E-02 -0.97004954544E-01  0.11310885399E+00  0.89254143965E+00  0.88000000000E+00 0. -1.
        -11    1    4    4    0    0  0.21706516091E-02  0.30808107103E-01 -0.20274814445E-01  0.36948347912E-01  0.51100000000E-03 0.  1.
         11    1    4    4    0    0 -0.14778612919E-02  0.52292674184E-01 -0.72570746104E-01  0.89462182839E-01  0.51100000000E-03 0. -1.
</event>
<event>
 7    1  0.1117714E+005  0.1043930E+01  0.7957747E-01            NaN
         13   -1    0    0    0    0  0.00000000000E+00  0.00000000000E+00  0.74505805969E-08  0.10566000000E+00  0.10566000000E+00 0.  1.
     999900   -1    0    0    0    0 -0.00000000000E+00 -0.00000000000E+00 -0.74505805969E-08  0.93827000000E+00  0.93827000000E+00 0.  1.
     999903    2    1    2    0    0  0.24592737256E-01  0.82190534362E-01  0.64550866700E-01  0.10952360084E+00  0.21645278595E-01 0.  0.
         14    1    1    2    0    0  0.96574273037E-02 -0.37911797461E-01  0.27522541723E-01  0.47833676335E-01  0.00000000000E+00 0. -1.
     999901    1    1    2    0    0 -0.34250164560E-01 -0.44278736901E-01 -0.92073408423E-01  0.88657272282E+00  0.88000000000E+00 0.  1.
        -11    1    3    3    0    0  0.16124039774E-01  0.50812992754E-01  0.52596892318E-01  0.74890847863E-01  0.51100000000E-03 0.  1.
         11    1    3    3    0    0  0.84686974821E-02  0.31377541608E-01  0.11953974383E-01  0.34632752980E-01  0.51100000000E-03 0. -1.
</event>
<event>
 8    1  0.1117714E+005  0.1043930E+01  0.7957747E-01            NaN
         13   -1    0    0    0    0  0.00000000000E+00  0.00000000000E+00  0.74505805969E-08  0.10566000000E+00  0.10566000000E+00 0. -1.
     999900   -1    0    0    0    0 -0.00000000000E+00 -0.00000000000E+00 -0.74505805969E-08  0.93827000000E+00  0.93827000000E+00 0.  1.
     999902    2    1    2    0    0 -0.12216189108E-01  0.48587373550E-02 -0.21583521553E-01  0.10186576632E+01  0.10183441185E+01 0.  0.
     999903    2    3    3    0    0  0.41517671943E-02  0.25114681960E-01  0.12255507145E+00  0.12655108476E+00  0.18639932825E-01 0.  0.
         14    1    1    2    0    0  0.12216189108E-01 -0.48587373550E-02  0.21583521553E-01  0.25272336806E-01  0.00000000000E+00 0. -1.
     999901    1    3    3    0    0 -0.16367956302E-01 -0.20255944605E-01 -0.14413859300E+00  0.89210657843E+00  0.88000000000E+00 0.  1.
        -11    1    4    4    0    0 -0.41160763424E-02  0.22476059592E-01  0.88291034022E-01  0.91201333043E-01  0.51100000000E-03 0. -1.
         11    1    4    4    0    0  0.82678435368E-02  0.26386223682E-02  0.34264037429E-01  0.35349751720E-01  0.51100000000E-03 0.  1.
</event>
<event>
 8    1  0.1117714E+005  0.1043930E+01  0.7957747E-01            NaN
         13   -1    0    0    0    0  0.00000000000E+00  0.00000000000E+00  0.74505805969E-08  0.10566000000E+00  0.10566000000E+00 0. -1.
     999900   -1    0    0    0    0 -0.00000000000E+00 -0.00000000000E+00 -0.74505805969E-08  0.93827000000E+00  0.93827000000E+00 0. -1.
     999902    2    1    2    0    0 -0.14942108815E-01 -0.13975111724E-01 -0.11779034496E-01  0.10203224585E+01  0.10200493141E+01 0.  0.
     999903    2    3    3    0    0  0.45942894259E-01 -0.99553239971E-01 -0.71108231686E-01  0.13209357283E+00  0.19254460503E-01 0.  0.
         14    1    1    2    0    0  0.14942108815E-01  0.13975111724E-01  0.11779034496E-01  0.23607541532E-01  0.00000000000E+00 0. -1.
     999901    1    3    3    0    0 -0.60885003074E-01  0.85578128246E-01  0.59329197190E-01  0.88822888563E+00  0.88000000000E+00 0.  1.
        -11    1    4    4    0    0  0.23382611779E-01 -0.68934169132E-01 -0.52492100648E-01  0.89746019182E-01  0.51100000000E-03 0.  1.
         11    1    4    4    0    0  0.22560282479E-01 -0.30619070839E-01 -0.18616131038E-01  0.42347553653E-01  0.51100000000E-03 0. -1.
</event>
<event>
 8    1  0.1117714E+005  0.1043930E+01  0.7957747E-01            NaN
         13   -1    0    0    0    0  0.00000000000E+00  0.00000000000E+00  0.74505805969E-08  0.10566000000E+00  0.10566000000E+00 0.  1.
     999900   -1    0    0    0    0 -0.00000000000E+00 -0.00000000000E+00 -0.74505805969E-08  0.93827000000E+00  0.93827000000E+00 0.  1.
     999902    2    1    2    0    0 -0.18154865526E-01  0.11379276094E-01  0.95201870344E-02  0.10204838697E+01  0.10202144908E+01 0.  0.
     999903    2    3    3    0    0 -0.20857719319E-01  0.61326823617E-02 -0.12648287454E+00  0.13001676475E+00  0.20827561487E-01 0.  0.
         14    1    1    2    0    0  0.18154865526E-01 -0.11379276094E-01 -0.95201870344E-02  0.23446130338E-01  0.00000000000E+00 0. -1.
     999901    1    3    3    0    0  0.27028537935E-02  0.52465937323E-02  0.13600306157E+00  0.89046710491E+00  0.88000000000E+00 0. -1.
        -11    1    4    4    0    0 -0.12746752282E-01  0.13891273931E-01 -0.80956336886E-01  0.83124225038E-01  0.51100000000E-03 0.  1.
         11    1    4    4    0    0 -0.81109670370E-02 -0.77585915696E-02 -0.45526537653E-01  0.46892539717E-01  0.51100000000E-03 0. -1.
</event>
<event>
 8    1  0.1117714E+005  0.1043930E+01  0.7957747E-01            NaN
         13   -1    0    0    0    0  0.00000000000E+00  0.00000000000E+00  0.74505805969E-08  0.10566000000E+00  0.10566000000E+00 0. -1.
     999900   -1    0    0    0    0 -0.00000000000E+00 -0.00000000000E+00 -0.74505805969E-08  0.93827000000E+00  0.93827000000E+00 0. -1.
     999902    2    1    2    0    0  0.22133879538E-01 -0.31960619931E-02  0.50823190432E-02  0.10209963260E+01  0.10207387248E+01 0.  0.
     999903    2    3    3    0    0 -0.66877742349E-01 -0.59468782717E-02  0.11014011241E+00  0.13028437719E+00  0.18307834265E-01 0.  0.
         14    1    1    2    0    0 -0.22133879538E-01  0.31960619931E-02 -0.50823190432E-02  0.22933673987E-01  0.00000000000E+00 0.  1.
     999901    1    3    3    0    0  0.89011621888E-01  0.27508162786E-02 -0.10505779337E+00  0.89071194882E+00  0.88000000000E+00 0.  1.
        -11    1    4    4    0    0 -0.45359502347E-01 -0.36623803240E-02  0.89347248453E-01  0.10027008233E+00  0.51100000000E-03 0.  1.
         11    1    4    4    0    0 -0.21518240003E-01 -0.22844979477E-02  0.20792863961E-01  0.30014294867E-01  0.51100000000E-03 0. -1.
</event>
<event>
 8    1  0.1117714E+005  0.1043930E+01  0.7957747E-01            NaN
         13   -1    0    0    0    0  0.00000000000E+00  0.00000000000E+00  0.74505805969E-08  0.10566000000E+00  0.10566000000E+00 0.  1.
     999900   -1    0    0    0    0 -0.00000000000E+00 -0.00000000000E+00 -0.74505805969E-08  0.93827000000E+00  0.93827000000E+00 0. -1.
     999902    2    1    2    0    0  0.21331843349E-01  0.97290854734E-02 -0.12881403672E-02  0.10204489023E+01  0.10201787099E+01 0.  0.
     999903    2    3    3    0    0  0.64135657563E-02 -0.11178342648E+00 -0.61899372645E-01  0.12990885991E+00  0.22541324043E-01 0.  0.
         14    1    1    2    0    0 -0.21331843349E-01 -0.97290854734E-02  0.12881403672E-02  0.23481097726E-01  0.00000000000E+00 0. -1.
     999901    1    3    3    0    0  0.14918277593E-01  0.12151251195E+00  0.60611232278E-01  0.89054004236E+00  0.88000000000E+00 0.  1.
        -11    1    4    4    0    0 -0.14722303756E-02 -0.62418840105E-01 -0.22907121357E-01  0.66507716787E-01  0.51100000000E-03 0. -1.
         11    1    4    4    0    0  0.78857961318E-02 -0.49364586372E-01 -0.38992251288E-01  0.63401143127E-01  0.51100000000E-03 0.  1.
</event>
<event>
 8    1  0.1117714E+005  0.1043930E+01  0.7957747E-01            NaN
         13   -1    0    0    0    0  0.00000000000E+00  0.00000000000E+00  0.74505805969E-08  0.10566000000E+00  0.10566000000E+00 0. -1.
     999900   -1    0    0    0    0 -0.00000000000E+00 -0.00000000000E+00 -0.74505805969E-08  0.93827000000E+00  0.93827000000E+00 0. -1.
     999902    2    1    2    0    0 -0.21770312275E-01  0.54700509586E-02 -0.87070041654E-02  0.10198534580E+01  0.10195692207E+01 0.  0.
     999903    2    3    3    0    0 -0.12243604940E+00  0.44725225345E-01  0.15195120469E-01  0.13292286830E+00  0.21134456652E-01 0.  0.
         14    1    1    2    0    0  0.21770312275E-01 -0.54700509586E-02  0.87070041654E-02  0.24076542018E-01  0.00000000000E+00 0. -1.
     999901    1    3    3    0    0  0.10066573712E+00 -0.39255174387E-01 -0.23902124634E-01  0.88693058968E+00  0.88000000000E+00 0. -1.
        -11    1    4    4    0    0 -0.51412665622E-01  0.19069646834E-01 -0.40664768816E-02  0.54988280315E-01  0.51100000000E-03 0.  1.
         11    1    4    4    0    0 -0.71023383774E-01  0.25655578511E-01  0.19261597350E-01  0.77934587988E-01  0.51100000000E-03 0. -1.
</event>
<event>
 8    1  0.1117714E+005  0.1043930E+01  0.7957747E-01            NaN
         13   -1    0    0    0    0  0.00000000000E+00  0.00000000000E+00  0.74505805969E-08  0.10566000000E+00  0.10566000000E+00 0. -1.
     999900   -1    0    0    0    0 -0.00000000000E+00 -0.00000000000E+00 -0.74505805969E-08  0.93827000000E+00  0.93827000000E+00 0.  1.
     999902    2    1    2    0    0  0.23841262501E-01 -0.10144719419E-02  0.64761369073E-02  0.10192039955E+01  0.10189040235E+01 0.  0.
     999903    2    3    3    0    0  0.42379425896E-01 -0.10773572731E+00 -0.56279577264E-01  0.13034440615E+00  0.20476101211E-01 0.  0.
         14    1    1    2    0    0 -0.23841262501E-01  0.10144719419E-02 -0.64761369073E-02  0.24726004534E-01  0.00000000000E+00 0. -1.
     999901    1    3    3    0    0 -0.18538163395E-01  0.10672125537E+00  0.62755714171E-01  0.88885958931E+00  0.88000000000E+00 0. -1.
        -11    1    4    4    0    0  0.26488871762E-01 -0.65660068057E-01 -0.23189143848E-01  0.74504378247E-01  0.51100000000E-03 0. -1.
         11    1    4    4    0    0  0.15890554134E-01 -0.42075659251E-01 -0.33090433416E-01  0.55840027908E-01  0.51100000000E-03 0.  1.
</event>
<event>
 8    1  0.1117714E+005  0.1043930E+01  0.7957747E-01            NaN
         13   -1    0    0    0    0  0.00000000000E+00  0.00000000000E+00  0.74505805969E-08  0.10566000000E+00  0.10566000000E+00 0. -1.
     999900   -1    0    0    0    0 -0.00000000000E+00 -0.00000000000E+00 -0.74505805969E-08  0.93827000000E+00  0.93827000000E+00 0. -1.
     999902    2    1    2    0    0  0.84663023850E-02 -0.83638206845E-02 -0.20479701276E-01  0.10202435073E+01  0.10199685114E+01 0.  0.
     999903    2    3    3    0    0 -0.18623856166E-01  0.90317671430E-01  0.86298746852E-01  0.12790189638E+00  0.20181466710E-01 0.  0.
         14    1    1    2    0    0 -0.84663023850E-02  0.83638206845E-02  0.20479701276E-01  0.23686492709E-01  0.00000000000E+00 0. -1.
     999901    1    3    3    0    0  0.27090158551E-01 -0.98681492115E-01 -0.10677844813E+00  0.89234161091E+00  0.88000000000E+00 0. -1.
        -11    1    4    4    0    0  0.28970503459E-02  0.14320074159E-01  0.79217578157E-02  0.16627471019E-01  0.51100000000E-03 0.  1.
         11    1    4    4    0    0 -0.21520906512E-01  0.75997597272E-01  0.78376989036E-01  0.11127442536E+00  0.51100000000E-03 0. -1.
</event>
<event>
 8    1  0.1117714E+005  0.1043930E+01  0.7957747E-01            NaN
         13   -1    0    0    0    0  0.00000000000E+00  0.00000000000E+00  0.74505805969E-08  0.10566000000E+00  0.10566000000E+00 0.  1.
     999900   -1    0    0    0    0 -0.00000000000E+00 -0.00000000000E+00 -0.74505805969E-08  0.93827000000E+00  0.93827000000E+00 0. -1.
     999902    2    1    2    0    0 -0.85762537730E-04  0.21685990223E-01  0.94550589312E-02  0.10202722810E+01  0.10199979607E+01 0.  0.
     999903    2    3    3    0    0 -0.12316557410E+00 -0.13916446419E-01 -0.31781667483E-01  0.13003824377E+00  0.23161267881E-01 0.  0.
         14    1    1    2    0    0  0.85762537730E-04 -0.21685990223E-01 -0.94550589312E-02  0.23657718964E-01  0.00000000000E+00 0. -1.
     999901    1    3    3    0    0  0.12307981156E+00  0.35602436642E-01  0.41236726414E-01  0.89023403727E+00  0.88000000000E+00 0. -1.
        -11    1    4    4    0    0 -0.47236766526E-01 -0.15878398692E-01 -0.82064993907E-02  0.50507854934E-01  0.51100000000E-03 0. -1.
         11    1    4    4    0    0 -0.75928807573E-01  0.19619522731E-02 -0.23575168092E-01  0.79530388832E-01  0.51100000000E-03 0.  1.
</event>
<event>
 8    1  0.1117714E+005  0.1043930E+01  0.7957747E-01            NaN
         13   -1    0    0    0    0  0.00000000000E+00  0.00000000000E+00  0.74505805969E-08  0.10566000000E+00  0.10566000000E+00 0. -1.
     999900   -1    0    0    0    0 -0.00000000000E+00 -0.00000000000E+00 -0.74505805969E-08  0.93827000000E+00  0.93827000000E+00 0. -1.
     999902    2    1    2    0    0 -0.25912938263E-02  0.15237357813E-01 -0.18225528860E-01  0.10200331011E+01  0.10197531395E+01 0.  0.
     999903    2    3    3    0    0 -0.91010148603E-01 -0.83866679593E-01  0.29198333437E-01  0.12880443970E+00  0.20532265251E-01 0.  0.
         14    1    1    2    0    0  0.25912938263E-02 -0.15237357813E-01  0.18225528860E-01  0.23896898942E-01  0.00000000000E+00 0. -1.
     999901    1    3    3    0    0  0.88418854776E-01  0.99104037406E-01 -0.47423862297E-01  0.89122866136E+00  0.88000000000E+00 0.  1.
        -11    1    4    4    0    0 -0.53923588429E-01 -0.41503336403E-01  0.74904173663E-02  0.68459095780E-01  0.51100000000E-03 0. -1.
         11    1    4    4    0    0 -0.37086560174E-01 -0.42363343190E-01  0.21707916071E-01  0.60345343920E-01  0.51100000000E-03 0.  1.
</event>
<event>
 8    1  0.1117714E+005  0.1043930E+01  0.7957747E-01            NaN
         13   -1    0    0    0    0  0.00000000000E+00  0.00000000000E+00  0.74505805969E-08  0.10566000000E+00  0.10566000000E+00 0. -1.
     999900   -1    0    0    0    0 -0.00000000000E+00 -0.00000000000E+00 -0.74505805969E-08  0.93827000000E+00  0.93827000000E+00 0. -1.
     999902    2    1    2    0    0 -0.15092768220E-01  0.13654859532E-01  0.12329516201E-01  0.10201337017E+01  0.10198561201E+01 0.  0.
     999903    2    3    3    0    0 -0.21220790588E-01  0.46159983256E-01  0.12086111028E+00  0.13284950677E+00  0.21459670630E-01 0.  0.
         14    1    1    2    0    0  0.15092768220E-01 -0.13654859532E-01 -0.12329516201E-01  0.23796298265E-01  0.00000000000E+00 0. -1.
     999901    1    3    3    0    0  0.61280223689E-02 -0.32505123723E-01 -0.10853159408E+00  0.88728419497E+00  0.88000000000E+00 0. -1.
        -11    1    4    4    0    0  0.29126175951E-02  0.60394403963E-03  0.12348584193E-01  0.12712070729E-01  0.51100000000E-03 0.  1.
         11    1    4    4    0    0 -0.24133408183E-01  0.45556039216E-01  0.10851252608E+00  0.12013743604E+00  0.51100000000E-03 0. -1.
</event>
<event>
 8    1  0.1117714E+005  0.1043930E+01  0.7957747E-01            NaN
         13   -1    0    0    0    0  0.00000000000E+00  0.00000000000E+00  0.74505805969E-08  0.10566000000E+00  0.10566000000E+00 0. -1.
     999900   -1    0    0    0    0 -0.00000000000E+00 -0.00000000000E+00 -0.74505805969E-08  0.93827000000E+00  0.93827000000E+00 0. -1.
     999902    2    1    2    0    0 -0.15615286446E-01  0.16848294448E-01  0.68417425148E-02  0.10199610276E+01  0.10196793546E+01 0.  0.
     999903    2    3    3    0    0 -0.78417490132E-01 -0.10055168362E+00  0.14042147492E-01  0.12991680542E+00  0.20524390037E-01 0.  0.
         14    1    1    2    0    0  0.15615286446E-01 -0.16848294448E-01 -0.68417425148E-02  0.23968972386E-01  0.00000000000E+00 0.  1.
     999901    1    3    3    0    0  0.62802203686E-01  0.11739997806E+00 -0.72004049774E-02  0.89004422220E+00  0.88000000000E+00 0.  1.
        -11    1    4    4    0    0 -0.36569371478E-01 -0.62936119006E-01  0.10367886243E-01  0.73525697494E-01  0.51100000000E-03 0. -1.
         11    1    4    4    0    0 -0.41848118654E-01 -0.37615564611E-01  0.36742612491E-02  0.56391107921E-01  0.51100000000E-03 0.  1.
</event>
<event>
 8    1  0.1117714E+005  0.1043930E+01  0.7957747E-01            NaN
         13   -1    0    0    0    0  0.00000000000E+00  0.00000000000E+00  0.74505805969E-08  0.10566000000E+00  0.10566000000E+00 0. -1.
     999900   -1    0    0    0    0 -0.00000000000E+00 -0.00000000000E+00 -0.74505805969E-08  0.93827000000E+00  0.93827000000E+00 0. -1.
     999902    2    1    2    0    0  0.67480105047E-02  0.21036937042E-01 -0.91714594123E-02  0.10200092134E+01  0.10197286851E+01 0.  0.
     999903    2    3    3    0    0  0.54381176328E-01  0.72738558952E-01 -0.95098523705E-01  0.13303377031E+00  0.20150546750E-01 0.  0.
         14    1    1    2    0    0 -0.67480105047E-02 -0.21036937042E-01  0.91714594123E-02  0.23920786643E-01  0.00000000000E+00 0.  1.
     999901    1    3    3    0    0 -0.47633165823E-01 -0.51701621910E-01  0.85927064292E-01  0.88697544305E+00  0.88000000000E+00 0. -1.
        -11    1    4    4    0    0  0.48632859487E-02  0.41570846569E-02 -0.98894864018E-03  0.64940005756E-02  0.51100000000E-03 0. -1.
         11    1    4    4    0    0  0.49517890379E-01  0.68581474295E-01 -0.94109575064E-01  0.12653976973E+00  0.51100000000E-03 0.  1.
</event>
<event>
 8    1  0.1117714E+005  0.1043930E+01  0.7957747E-01            NaN
         13   -1    0    0    0    0  0.00000000000E+00  0.00000000000E+00  0.74505805969E-08  0.10566000000E+00  0.10566000000E+00 0. -1.
     999900   -1    0    0    0    0 -0.00000000000E+00 -0.00000000000E+00 -0.74505805969E-08  0.93827000000E+00  0.93827000000E+00 0.  1.
     999902    2    1    2    0    0 -0.18230149010E-01 -0.45250831669E-02  0.15747773048E-01  0.10194186339E+01  0.10191239101E+01 0.  0.
     999903    2    3    3    0    0 -0.50058909690E-01 -0.32990901422E-01  0.11648121948E+00  0.13264323957E+00  0.20786064975E-01 0.  0.
         14    1    1    2    0    0  0.18230149010E-01  0.45250831669E-02 -0.15747773048E-01  0.24511366069E-01  0.00000000000E+00 0. -1.
     999901    1    3    3    0    0  0.31828760680E-01  0.28465818255E-01 -0.10073344643E+00  0.88677539436E+00  0.88000000000E+00 0.  1.
        -11    1    4    4    0    0 -0.24883646729E-01 -0.20987145861E-01  0.82419816227E-01  0.88616834709E-01  0.51100000000E-03 0. -1.
         11    1    4    4    0    0 -0.25175262962E-01 -0.12003755560E-01  0.34061403248E-01  0.44026404861E-01  0.51100000000E-03 0.  1.
</event>
<event>
 7    1  0.1117714E+005  0.1043930E+01  0.7957747E-01            NaN
         13   -1    0    0    0    0  0.00000000000E+00  0.00000000000E+00  0.74505805969E-08  0.10566000000E+00  0.10566000000E+00 0.  1.
     999900   -1    0    0    0    0 -0.00000000000E+00 -0.00000000000E+00 -0.74505805969E-08  0.93827000000E+00  0.93827000000E+00 0. -1.
     999903    2    1    2    0    0 -0.52026408862E-02  0.17771892271E-01 -0.10972644433E+00  0.11298691465E+00  0.19576584724E-01 0.  0.
         14    1    1    2    0    0 -0.56923629227E-03 -0.16146976871E-01 -0.35515127948E-01  0.39017601223E-01  0.00000000000E+00 0. -1.
     999901    1    1    2    0    0  0.57718771784E-02 -0.16249153996E-02  0.14524157228E+00  0.89192548413E+00  0.88000000000E+00 0.  1.
        -11    1    3    3    0    0  0.62895022435E-02  0.28208953395E-02 -0.46348684309E-01  0.46861252087E-01  0.51100000000E-03 0.  1.
         11    1    3    3    0    0 -0.11492143130E-01  0.14950996931E-01 -0.63377760023E-01  0.66125662564E-01  0.51100000000E-03 0. -1.
</event>
<event>
 8    1  0.1117714E+005  0.1043930E+01  0.7957747E-01            NaN
         13   -1    0    0    0    0  0.00000000000E+00  0.00000000000E+00  0.74505805969E-08  0.10566000000E+00  0.10566000000E+00 0. -1.
     999900   -1    0    0    0    0 -0.00000000000E+00 -0.00000000000E+00 -0.74505805969E-08  0.93827000000E+00  0.93827000000E+00 0.  1.
     999902    2    1    2    0    0  0.91664811732E-02 -0.87614958628E-02  0.20137813375E-01  0.10201325271E+01  0.10198549177E+01 0.  0.
     999903    2    3    3    0    0 -0.33580784413E-02 -0.82419041092E-01  0.10266654413E+00  0.13311883505E+00  0.19391491304E-01 0.  0.
         14    1    1    2    0    0 -0.91664811732E-02  0.87614958628E-02 -0.20137813375E-01  0.23797472857E-01  0.00000000000E+00 0.  1.
     999901    1    3    3    0    0  0.12524559614E-01  0.73657545229E-01 -0.82528730758E-01  0.88701369209E+00  0.88000000000E+00 0.  1.
        -11    1    4    4    0    0 -0.22815254247E-02 -0.21632087667E-01  0.41602452989E-01  0.46948671875E-01  0.51100000000E-03 0. -1.
         11    1    4    4    0    0 -0.10765530166E-02 -0.60786953425E-01  0.61064091144E-01  0.86170163173E-01  0.51100000000E-03 0.  1.
</event>
<event>
 8    1  0.1117714E+005  0.1043930E+01  0.7957747E-01            NaN
         13   -1    0    0    0    0  0.00000000000E+00  0.00000000000E+00  0.74505805969E-08  0.10566000000E+00  0.10566000000E+00 0. -1.
     999900   -1    0    0    0    0 -0.00000000000E+00 -0.00000000000E+00 -0.74505805969E-08  0.93827000000E+00  0.93827000000E+00 0.  1.
     999902    2    1    2    0    0  0.90252141923E-02  0.21758613433E-01 -0.57813209855E-02  0.10196747857E+01  0.10193862630E+01 0.  0.
     999903    2    3    3    0    0  0.73993443430E-02 -0.11040280557E+00 -0.61396690406E-01  0.12806817206E+00  0.19707189748E-01 0.  0.
         14    1    1    2    0    0 -0.90252141923E-02 -0.21758613433E-01  0.57813209855E-02  0.24255214327E-01  0.00000000000E+00 0.  1.
     999901    1    3    3    0    0  0.16258698493E-02  0.13216141900E+00  0.55615369421E-01  0.89160661361E+00  0.88000000000E+00 0. -1.
        -11    1    4    4    0    0  0.12466773506E-01 -0.43001646909E-01 -0.23193998568E-01  0.50426032652E-01  0.51100000000E-03 0.  1.
         11    1    4    4    0    0 -0.50674291634E-02 -0.67401158658E-01 -0.38202691839E-01  0.77642139406E-01  0.51100000000E-03 0. -1.
</event>
<event>
 8    1  0.1117714E+005  0.1043930E+01  0.7957747E-01            NaN
         13   -1    0    0    0    0  0.00000000000E+00  0.00000000000E+00  0.74505805969E-08  0.10566000000E+00  0.10566000000E+00 0. -1.
     999900   -1    0    0    0    0 -0.00000000000E+00 -0.00000000000E+00 -0.74505805969E-08  0.93827000000E+00  0.93827000000E+00 0. -1.
     999902    2    1    2    0    0 -0.87689640510E-02  0.16711380398E-01 -0.15704442137E-01  0.10193781270E+01  0.10190824164E+01 0.  0.
     999903    2    3    3    0    0 -0.92225938544E-01 -0.83787706965E-01  0.25467829954E-01  0.12878265814E+00  0.20257322039E-01 0.  0.
         14    1    1    2    0    0  0.87689640510E-02 -0.16711380398E-01  0.15704442137E-01  0.24551873007E-01  0.00000000000E+00 0. -1.
     999901    1    3    3    0    0  0.83456974493E-01  0.10049908736E+00 -0.41172272092E-01  0.89059546885E+00  0.88000000000E+00 0. -1.
        -11    1    4    4    0    0 -0.12931486780E-01 -0.22514899465E-01  0.36554996317E-02  0.26225328345E-01  0.51100000000E-03 0.  1.
         11    1    4    4    0    0 -0.79294451764E-01 -0.61272807500E-01  0.21812330323E-01  0.10255732979E+00  0.51100000000E-03 0. -1.
</event>
<event>
 8    1  0.1117714E+005  0.1043930E+01  0.7957747E-01            NaN
         13   -1    0    0    0    0  0.00000000000E+00  0.00000000000E+00  0.74505805969E-08  0.10566000000E+00  0.10566000000E+00 0.  1.
     999900   -1    0    0    0    0 -0.00000000000E+00 -0.00000000000E+00 -0.74505805969E-08  0.93827000000E+00  0.93827000000E+00 0.  1.
     999902    2    1    2    0    0 -0.12100643367E-01 -0.16108091509E-01 -0.12565353602E-01  0.10201858577E+01  0.10199095058E+01 0.  0.
     999903    2    3    3    0    0  0.49448962540E-01  0.94833210597E-01  0.66448024133E-01  0.12758323596E+00  0.20581653420E-01 0.  0.
         14    1    1    2    0    0  0.12100643367E-01  0.16108091509E-01  0.12565353602E-01  0.23744142290E-01  0.00000000000E+00 0.  1.
     999901    1    3    3    0    0 -0.61549605907E-01 -0.11094130211E+00 -0.79013377735E-01  0.89260262175E+00  0.88000000000E+00 0.  1.
        -11    1    4    4    0    0  0.12143569281E-01  0.36388285674E-01  0.14786195233E-01  0.41115280610E-01  0.51100000000E-03 0.  1.
         11    1    4    4    0    0  0.37305393259E-01  0.58444924923E-01  0.51661828900E-01  0.86467955346E-01  0.51100000000E-03 0. -1.
</event>
<event>
 8    1  0.1117714E+005  0.1043930E+01  0.7957747E-01            NaN
         13   -1    0    0    0    0  0.00000000000E+00  0.00000000000E+00  0.74505805969E-08  0.10566000000E+00  0.10566000000E+00 0. -1.
     999900   -1    0    0    0    0 -0.00000000000E+00 -0.00000000000E+00 -0.74505805969E-08  0.93827000000E+00  0.93827000000E+00 0.  1.
     999902    2    1    2    0    0  0.51483840328E-02  0.19546654217E-01 -0.13235328710E-01  0.10197690506E+01  0.10194827929E+01 0.  0.
     999903    2    3    3    0    0 -0.52635417940E-01  0.24549227922E-01  0.11306714192E+00  0.12886147538E+00  0.21164816146E-01 0.  0.
         14    1    1    2    0    0 -0.51483840328E-02 -0.19546654217E-01  0.13235328710E-01  0.24160949387E-01  0.00000000000E+00 0.  1.
     999901    1    3    3    0    0  0.57783801973E-01 -0.50025737053E-02 -0.12630247063E+00  0.89090757523E+00  0.88000000000E+00 0.  1.
        -11    1    4    4    0    0 -0.31863706603E-01  0.45639686341E-02  0.69840199568E-01  0.76902797120E-01  0.51100000000E-03 0. -1.
         11    1    4    4    0    0 -0.20771711338E-01  0.19985259288E-01  0.43226942352E-01  0.51958678263E-01  0.51100000000E-03 0.  1.
</event>
<event>
 8    1  0.1117714E+005  0.1043930E+01  0.7957747E-01            NaN
         13   -1    0    0    0    0  0.00000000000E+00  0.00000000000E+00  0.74505805969E-08  0.10566000000E+00  0.10566000000E+00 0. -1.
     999900   -1    0    0    0    0 -0.00000000000E+00 -0.00000000000E+00 -0.74505805969E-08  0.93827000000E+00  0.93827000000E+00 0. -1.
     999902    2    1    2    0    0  0.25424993010E-01 -0.49197919278E-02  0.30517983110E-02  0.10178541856E+01  0.10175201202E+01 0.  0.
     999903    2    3    3    0    0 -0.10806345311E+00  0.18890086810E-01 -0.57028739085E-01  0.12544410806E+00  0.21199101103E-01 0.  0.
         14    1    1    2    0    0 -0.25424993010E-01  0.49197919278E-02 -0.30517983110E-02  0.26075814371E-01  0.00000000000E+00 0. -1.
     999901    1    3    3    0    0  0.13348844612E+00 -0.23809878737E-01  0.60080537396E-01  0.89241007757E+00  0.88000000000E+00 0. -1.
        -11    1    4    4    0    0 -0.81023571241E-01  0.79936015966E-02 -0.49666764733E-01  0.95371722241E-01  0.51100000000E-03 0.  1.
         11    1    4    4    0    0 -0.27039881869E-01  0.10896485213E-01 -0.73619743514E-02  0.30072385819E-01  0.51100000000E-03 0. -1.
</event>
<event>
 8    1  0.1117714E+005  0.1043930E+01  0.7957747E-01            NaN
         13   -1    0    0    0    0  0.00000000000E+00  0.00000000000E+00  0.74505805969E-08  0.10566000000E+00  0.10566000000E+00 0. -1.
     999900   -1    0    0    0    0 -0.00000000000E+00 -0.00000000000E+00 -0.74505805969E-08  0.93827000000E+00  0.93827000000E+00 0. -1.
     999902    2    1    2    0    0  0.24090572751E-01 -0.55782183905E-03 -0.36882368236E-02  0.10195523473E+01  0.10192608689E+01 0.  0.
     999903    2    3    3    0    0  0.46946395342E-01 -0.10315595597E+00  0.62177226549E-01  0.13085272142E+00  0.20280826289E-01 0.  0.
         14    1    1    2    0    0 -0.24090572751E-01  0.55782183905E-03  0.36882368236E-02  0.24377652708E-01  0.00000000000E+00 0.  1.
     999901    1    3    3    0    0 -0.22855822591E-01  0.10259813413E+00 -0.65865463372E-01  0.88869962587E+00  0.88000000000E+00 0. -1.
        -11    1    4    4    0    0  0.45378373225E-01 -0.83307753619E-01  0.55153108805E-01  0.10973379198E+00  0.51100000000E-03 0.  1.
         11    1    4    4    0    0  0.15680221170E-02 -0.19848202352E-01  0.70241177433E-02  0.21118929448E-01  0.51100000000E-03 0. -1.
</event>
<event>
 8    1  0.1117714E+005  0.1043930E+01  0.7957747E-01            NaN
         13   -1    0    0    0    0  0.00000000000E+00  0.00000000000E+00  0.74505805969E-08  0.10566000000E+00  0.10566000000E+00 0.  1.
     999900   -1    0    0    0    0 -0.00000000000E+00 -0.00000000000E+00 -0.74505805969E-08  0.93827000000E+00  0.93827000000E+00 0. -1.
     999902    2    1    2    0    0  0.69106172169E-02  0.21344435608E-01 -0.64251616520E-02  0.10205928137E+01  0.10203259612E+01 0.  0.
     999903    2    3    3    0    0 -0.60595268783E-01  0.78674213910E-01 -0.85481472511E-01  0.13262116528E+00  0.20490798047E-01 0.  0.
         14    1    1    2    0    0 -0.69106172169E-02 -0.21344435608E-01  0.64251616520E-02  0.23337186292E-01  0.00000000000E+00 0.  1.
     999901    1    3    3    0    0  0.67505885999E-01 -0.57329778301E-01  0.79056310859E-01  0.88797164843E+00  0.88000000000E+00 0.  1.
        -11    1    4    4    0    0 -0.12125710160E-02  0.11855538799E-01 -0.11748783439E-01  0.16742734603E-01  0.51100000000E-03 0. -1.
         11    1    4    4    0    0 -0.59382697766E-01  0.66818675111E-01 -0.73732689072E-01  0.11587843068E+00  0.51100000000E-03 0.  1.
</event>
<event>
 8    1  0.1117714E+005  0.1043930E+01  0.7957747E-01            NaN
         13   -1    0    0    0    0  0.00000000000E+00  0.00000000000E+00  0.74505805969E-08  0.10566000000E+00  0.10566000000E+00 0. -1.
     999900   -1    0    0    0    0 -0.00000000000E+00 -0.00000000000E+00 -0.74505805969E-08  0.93827000000E+00  0.93827000000E+00 0. -1.
     999902    2    1    2    0    0 -0.10895595912E-01  0.19722640569E-01 -0.81542966186E-02  0.10199677565E+01  0.10196862435E+01 0.  0.
     999903    2    3    3    0    0 -0.11425835789E-02 -0.11323940811E+00  0.55141176606E-01  0.12767837261E+00  0.20898526943E-01 0.  0.
         14    1    1    2    0    0  0.10895595912E-01 -0.19722640569E-01  0.81542966186E-02  0.23962243523E-01  0.00000000000E+00 0. -1.
     999901    1    3    3    0    0 -0.97530123333E-02  0.13296204868E+00 -0.63295473224E-01  0.89228938387E+00  0.88000000000E+00 0. -1.
        -11    1    4    4    0    0 -0.60622759238E-02 -0.24037447223E-01  0.19286467595E-01  0.31413038880E-01  0.51100000000E-03 0. -1.
         11    1    4    4    0    0  0.49196923449E-02 -0.89201960884E-01  0.35854709011E-01  0.96265333727E-01  0.51100000000E-03 0.  1.
</event>
<event>
 8    1  0.1117714E+005  0.1043930E+01  0.7957747E-01            NaN
         13   -1    0    0    0    0  0.00000000000E+00  0.00000000000E+00  0.74505805969E-08  0.10566000000E+00  0.10566000000E+00 0. -1.
     999900   -1    0    0    0    0 -0.00000000000E+00 -0.00000000000E+00 -0.74505805969E-08  0.93827000000E+00  0.93827000000E+00 0.  1.
     999902    2    1    2    0    0  0.13473041008E-01 -0.15364357432E-01 -0.12283217821E-01  0.10200875221E+01  0.10198088492E+01 0.  0.
     999903    2    3    3    0    0  0.60557686837E-01 -0.37410493188E-01 -0.11074730044E+00  0.13307107830E+00  0.19395073802E-01 0.  0.
         14    1    1    2    0    0 -0.13473041008E-01  0.15364357432E-01  0.12283217821E-01  0.23842477920E-01  0.00000000000E+00 0.  1.
     999901    1    3    3    0    0 -0.47084645829E-01  0.22046135756E-01  0.98464082624E-01  0.88701644378E+00  0.88000000000E+00 0. -1.
        -11    1    4    4    0    0  0.34899033184E-01 -0.18145162539E-01 -0.77213672937E-01  0.86656804984E-01  0.51100000000E-03 0. -1.
         11    1    4    4    0    0  0.25658653654E-01 -0.19265330649E-01 -0.33533627508E-01  0.46414273313E-01  0.51100000000E-03 0.  1.
</event>
<event>
 8    1  0.1117714E+005  0.1043930E+01  0.7957747E-01            NaN
         13   -1    0    0    0    0  0.00000000000E+00  0.00000000000E+00  0.74505805969E-08  0.10566000000E+00  0.10566000000E+00 0.  1.
     999900   -1    0    0    0    0 -0.00000000000E+00 -0.00000000000E+00 -0.74505805969E-08  0.93827000000E+00  0.93827000000E+00 0.  1.
     999902    2    1    2    0    0 -0.11583146831E-01 -0.23444893899E-01  0.12544648645E-03  0.10177795110E+01  0.10174435045E+01 0.  0.
     999903    2    3    3    0    0  0.11953130849E+00  0.35038973238E-01  0.23832013589E-02  0.12614255537E+00  0.19768694261E-01 0.  0.
         14    1    1    2    0    0  0.11583146831E-01  0.23444893899E-01 -0.12544648645E-03  0.26150489045E-01  0.00000000000E+00 0.  1.
     999901    1    3    3    0    0 -0.13111445532E+00 -0.58483867137E-01 -0.22577548725E-02  0.89163695559E+00  0.88000000000E+00 0. -1.
        -11    1    4    4    0    0  0.63676700628E-01  0.10423446319E-01 -0.46758439139E-02  0.64695402258E-01  0.51100000000E-03 0.  1.
         11    1    4    4    0    0  0.55854607858E-01  0.24615526919E-01  0.70590452729E-02  0.61447153112E-01  0.51100000000E-03 0. -1.
</event>
<event>
 8    1  0.1117714E+005  0.1043930E+01  0.7957747E-01            NaN
         13   -1    0    0    0    0  0.00000000000E+00  0.00000000000E+00  0.74505805969E-08  0.10566000000E+00  0.10566000000E+00 0.  1.
     999900   -1    0    0    0    0 -0.00000000000E+00 -0.00000000000E+00 -0.74505805969E-08  0.93827000000E+00  0.93827000000E+00 0. -1.
     999902    2    1    2    0    0 -0.20811330872E-01  0.97136075420E-02 -0.30429135747E-02  0.10207626741E+01  0.10204997364E+01 0.  0.
     999903    2    3    3    0    0 -0.74631495390E-01  0.10825134221E+00  0.12245578597E-01  0.13349719344E+00  0.19578898497E-01 0.  0.
         14    1    1    2    0    0  0.20811330872E-01 -0.97136075420E-02  0.30429135747E-02  0.23167325853E-01  0.00000000000E+00 0. -1.
     999901    1    3    3    0    0  0.53820164518E-01 -0.98537734670E-01 -0.15288492171E-01  0.88726548071E+00  0.88000000000E+00 0.  1.
        -11    1    4    4    0    0 -0.23820162485E-01  0.35297815616E-01  0.13203077917E-01  0.44586077598E-01  0.51100000000E-03 0.  1.
         11    1    4    4    0    0 -0.50811332904E-01  0.72953526595E-01 -0.95749932044E-03  0.88911115841E-01  0.51100000000E-03 0. -1.
</event>
<event>
 8    1  0.1117714E+005  0.1043930E+01  0.7957747E-01            NaN
         13   -1    0    0    0    0  0.00000000000E+00  0.00000000000E+00  0.74505805969E-08  0.10566000000E+00  0.10566000000E+00 0.  1.
     999900   -1    0    0    0    0 -0.00000000000E+00 -0.00000000000E+00 -0.74505805969E-08  0.93827000000E+00  0.93827000000E+00 0. -1.
     999902    2    1    2    0    0 -0.11219727786E-01 -0.18311562392E-01 -0.77252773568E-02  0.10211073025E+01  0.10208522164E+01 0.  0.
     999903    2    3    3    0    0 -0.10557734861E-02  0.74774649727E-01 -0.10529742731E+00  0.13077664863E+00  0.20557741359E-01 0.  0.
         14    1    1    2    0    0  0.11219727786E-01  0.18311562392E-01  0.77252773568E-02  0.22822697454E-01  0.00000000000E+00 0. -1.
     999901    1    3    3    0    0 -0.10163954300E-01 -0.93086212120E-01  0.97572149952E-01  0.89033065391E+00  0.88000000000E+00 0.  1.
        -11    1    4    4    0    0  0.19062127966E-02  0.31767090259E-01 -0.61905808358E-01  0.69608705635E-01  0.51100000000E-03 0. -1.
         11    1    4    4    0    0 -0.29619862827E-02  0.43007559468E-01 -0.43391618951E-01  0.61167942996E-01  0.51100000000E-03 0.  1.
</event>
<event>
 8    1  0.1117714E+005  0.1043930E+01  0.7957747E-01            NaN
         13   -1    0    0    0    0  0.00000000000E+00  0.00000000000E+00  0.74505805969E-08  0.10566000000E+00  0.10566000000E+00 0.  1.
     999900   -1    0    0    0    0 -0.00000000000E+00 -0.00000000000E+00 -0.74505805969E-08  0.93827000000E+00  0.93827000000E+00 0.  1.
     999902    2    1    2    0    0  0.24992773887E-02  0.11646334308E-01 -0.20313649987E-01  0.10203815846E+01  0.10201098227E+01 0.  0.
     999903    2    3    3    0    0 -0.12117590970E+00  0.64365430230E-02  0.40641155313E-01  0.12963011418E+00  0.20669611025E-01 0.  0.
         14    1    1    2    0    0 -0.24992773887E-02 -0.11646334308E-01  0.20313649987E-01  0.23548415362E-01  0.00000000000E+00 0.  1.
     999901    1    3    3    0    0  0.12367518709E+00  0.52097912854E-02 -0.60954805300E-01  0.89075147045E+00  0.88000000000E+00 0.  1.
        -11    1    4    4    0    0 -0.50186611257E-01  0.10022299259E-01  0.96298174239E-02  0.52078181002E-01  0.51100000000E-03 0. -1.
         11    1    4    4    0    0 -0.70989298445E-01 -0.35857562358E-02  0.31011337890E-01  0.77551933181E-01  0.51100000000E-03 0.  1.
</event>
<event>
 8    1  0.1117714E+005  0.1043930E+01  0.7957747E-01            NaN
         13   -1    0    0    0    0  0.00000000000E+00  0.00000000000E+00  0.74505805969E-08  0.10566000000E+00  0.10566000000E+00 0. -1.
     999900   -1    0    0    0    0 -0.00000000000E+00 -0.00000000000E+00 -0.74505805969E-08  0.93827000000E+00  0.93827000000E+00 0.  1.
     999902    2    1    2    0    0  0.11905074339E-02 -0.98138192936E-02  0.23405863086E-01  0.10185220724E+01  0.10182051116E+01 0.  0.
     999903    2    3    3    0    0 -0.11630064048E+00  0.24069263014E-01  0.48212206684E-01  0.12972086417E+00  0.19947865263E-01 0.  0.
         14    1    1    2    0    0 -0.11905074339E-02  0.98138192936E-02 -0.23405863086E-01  0.25407927580E-01  0.00000000000E+00 0.  1.
     999901    1    3    3    0    0  0.11749114792E+00 -0.33883082307E-01 -0.24806343598E-01  0.88880120825E+00  0.88000000000E+00 0. -1.
        -11    1    4    4    0    0 -0.61441266962E-01  0.22731348405E-01  0.24626428648E-01  0.69989039107E-01  0.51100000000E-03 0.  1.
         11    1    4    4    0    0 -0.54859373522E-01  0.13379146090E-02  0.23585778036E-01  0.59731825062E-01  0.51100000000E-03 0. -1.
</event>
<event>
 8    1  0.1117714E+005  0.1043930E+01  0.7957747E-01            NaN
         13   -1    0    0    0    0  0.00000000000E+00  0.00000000000E+00  0.74505805969E-08  0.10566000000E+00  0.10566000000E+00 0.  1.
     999900   -1    0    0    0    0 -0.00000000000E+00 -0.00000000000E+00 -0.74505805969E-08  0.93827000000E+00  0.93827000000E+00 0. -1.
     999902    2    1    2    0    0  0.75077508689E-03 -0.21261210256E-01  0.11895516294E-01  0.10195557096E+01  0.10192643126E+01 0.  0.
     999903    2    3    3    0    0  0.92417302237E-01 -0.86641288607E-01  0.32068874445E-01  0.13215260434E+00  0.19703489045E-01 0.  0.
         14    1    1    2    0    0 -0.75077508689E-03  0.21261210256E-01 -0.11895516294E-01  0.24374290404E-01  0.00000000000E+00 0. -1.
     999901    1    3    3    0    0 -0.91666527150E-01  0.65380078351E-01 -0.20173358151E-01  0.88740310526E+00  0.88000000000E+00 0.  1.
        -11    1    4    4    0    0  0.62832054926E-01 -0.62963554372E-01  0.31135407690E-01  0.94244103468E-01  0.51100000000E-03 0.  1.
         11    1    4    4    0    0  0.29585247311E-01 -0.23677734234E-01  0.93346675515E-03  0.37908500869E-01  0.51100000000E-03 0. -1.
</event>
<event>
 8    1  0.1117714E+005  0.1043930E+01  0.7957747E-01            NaN
         13   -1    0    0    0    0  0.00000000000E+00  0.00000000000E+00  0.74505805969E-08  0.10566000000E+00  0.10566000000E+00 0. -1.
     999900   -1    0    0    0    0 -0.00000000000E+00 -0.00000000000E+00 -0.74505805969E-08  0.93827000000E+00  0.93827000000E+00 0.  1.
     999902    2    1    2    0    0 -0.16269348866E-01 -0.14865520151E-01  0.10450706375E-01  0.10195395784E+01  0.10192477909E+01 0.  0.
     999903    2    3    3    0    0 -0.31280548541E-01  0.67860397129E-01 -0.10242984031E+00  0.12835445099E+00  0.19987163072E-01 0.  0.
         14    1    1    2    0    0  0.16269348866E-01  0.14865520151E-01 -0.10450706375E-01  0.24390421596E-01  0.00000000000E+00 0.  1.
     999901    1    3    3    0    0  0.15011199675E-01 -0.82725917279E-01  0.11288054668E+00  0.89118512741E+00  0.88000000000E+00 0. -1.
        -11    1    4    4    0    0 -0.11066932759E-01  0.16860916150E-01 -0.15011412875E-01  0.25146990508E-01  0.51100000000E-03 0.  1.
         11    1    4    4    0    0 -0.20213615782E-01  0.50999480979E-01 -0.87418427434E-01  0.10320746048E+00  0.51100000000E-03 0. -1.
</event>
<event>
 8    1  0.1117714E+005  0.1043930E+01  0.7957747E-01            NaN
         13   -1    0    0    0    0  0.00000000000E+00  0.00000000000E+00  0.74505805969E-08  0.10566000000E+00  0.10566000000E+00 0.  1.
     999900   -1    0    0    0    0 -0.00000000000E+00 -0.00000000000E+00 -0.74505805969E-08  0.93827000000E+00  0.93827000000E+00 0. -1.
     999902    2    1    2    0    0 -0.68686168442E-03  0.11737744997E-01 -0.20306009614E-01  0.10204655490E+01  0.10201957440E+01 0.  0.
     999903    2    3    3    0    0 -0.46855556644E-01  0.69540631289E-01 -0.10224086688E+00  0.13356868748E+00  0.18869468069E-01 0.  0.
         14    1    1    2    0    0  0.68686168442E-03 -0.11737744997E-01  0.20306009614E-01  0.23464451049E-01  0.00000000000E+00 0.  1.
     999901    1    3    3    0    0  0.46168694959E-01 -0.57802886291E-01  0.81934857267E-01  0.88689686147E+00  0.88000000000E+00 0.  1.
        -11    1    4    4    0    0 -0.22711975662E-01  0.29474572450E-01 -0.31482775736E-01  0.48744338632E-01  0.51100000000E-03 0. -1.
         11    1    4    4    0    0 -0.24143580982E-01  0.40066058838E-01 -0.70758091145E-01  0.84824348845E-01  0.51100000000E-03 0.  1.
</event>
<event>
 8    1  0.1117714E+005  0.1043930E+01  0.7957747E-01            NaN
         13   -1    0    0    0    0  0.00000000000E+00  0.00000000000E+00  0.74505805969E-08  0.10566000000E+00  0.10566000000E+00 0.  1.
     999900   -1    0    0    0    0 -0.00000000000E+00 -0.00000000000E+00 -0.74505805969E-08  0.93827000000E+00  0.93827000000E+00 0.  1.
     999902    2    1    2    0    0  0.19357014922E-01 -0.71159276260E-02  0.96541978834E-02  0.10211586586E+01  0.10209047321E+01 0.  0.
     999903    2    3    3    0    0 -0.94595639554E-01  0.11055881684E-01  0.86797172777E-01  0.13027905916E+00  0.19191573948E-01 0.  0.
         14    1    1    2    0    0 -0.19357014922E-01  0.71159276260E-02 -0.96541978834E-02  0.22771341406E-01  0.00000000000E+00 0.  1.
     999901    1    3    3    0    0  0.11395265448E+00 -0.18171809310E-01 -0.77142974894E-01  0.89087959944E+00  0.88000000000E+00 0.  1.
        -11    1    4    4    0    0 -0.45996399391E-01 -0.20746598739E-02  0.49636122495E-01  0.67705086573E-01  0.51100000000E-03 0. -1.
         11    1    4    4    0    0 -0.48599240162E-01  0.13130541558E-01  0.37161050283E-01  0.62573972585E-01  0.51100000000E-03 0.  1.
</event>
<event>
 8    1  0.1117714E+005  0.1043930E+01  0.7957747E-01            NaN
         13   -1    0    0    0    0  0.00000000000E+00  0.00000000000E+00  0.74505805969E-08  0.10566000000E+00  0.10566000000E+00 0.  1.
     999900   -1    0    0    0    0 -0.00000000000E+00 -0.00000000000E+00 -0.74505805969E-08  0.93827000000E+00  0.93827000000E+00 0. -1.
     999902    2    1    2    0    0  0.32672577893E-02 -0.14948147667E-01  0.16451361875E-01  0.10214629263E+01  0.10212158148E+01 0.  0.
     999903    2    3    3    0    0 -0.13720824304E-01  0.10980861195E+00 -0.64017109784E-01  0.12886670241E+00  0.16193960827E-01 0.  0.
         14    1    1    2    0    0 -0.32672577893E-02  0.14948147667E-01 -0.16451361875E-01  0.22467073679E-01  0.00000000000E+00 0. -1.
     999901    1    3    3    0    0  0.16988082093E-01 -0.12475675962E+00  0.80468471660E-01  0.89259622391E+00  0.88000000000E+00 0.  1.
        -11    1    4    4    0    0 -0.11205174871E-01  0.51474285790E-01 -0.22857329019E-01  0.57427142122E-01  0.51100000000E-03 0. -1.
         11    1    4    4    0    0 -0.25156494330E-02  0.58334326162E-01 -0.41159780766E-01  0.71439560291E-01  0.51100000000E-03 0.  1.
</event>
<event>
 8    1  0.1117714E+005  0.1043930E+01  0.7957747E-01            NaN
         13   -1    0    0    0    0  0.00000000000E+00  0.00000000000E+00  0.74505805969E-08  0.10566000000E+00  0.10566000000E+00 0.  1.
     999900   -1    0    0    0    0 -0.00000000000E+00 -0.00000000000E+00 -0.74505805969E-08  0.93827000000E+00  0.93827000000E+00 0. -1.
     999902    2    1    2    0    0 -0.39945943395E-02  0.10124541755E-01  0.20466389941E-01  0.10207494856E+01  0.10204862450E+01 0.  0.
     999903    2    3    3    0    0 -0.11319078471E+00 -0.59813858917E-01  0.22174295859E-01  0.13124507033E+00  0.18539623167E-01 0.  0.
         14    1    1    2    0    0  0.39945943395E-02 -0.10124541755E-01 -0.20466389941E-01  0.23180514380E-01  0.00000000000E+00 0. -1.
     999901    1    3    3    0    0  0.10919619037E+00  0.69938400672E-01 -0.17079059174E-02  0.88950441529E+00  0.88000000000E+00 0.  1.
        -11    1    4    4    0    0 -0.92023123008E-01 -0.40378482563E-01  0.14845880093E-01  0.10158414393E+00  0.51100000000E-03 0.  1.
         11    1    4    4    0    0 -0.21167661701E-01 -0.19435376354E-01  0.73284157658E-02  0.29660926394E-01  0.51100000000E-03 0. -1.
</event>
<event>
 8    1  0.1117714E+005  0.1043930E+01  0.7957747E-01            NaN
         13   -1    0    0    0    0  0.00000000000E+00  0.00000000000E+00  0.74505805969E-08  0.10566000000E+00  0.10566000000E+00 0. -1.
     999900   -1    0    0    0    0 -0.00000000000E+00 -0.00000000000E+00 -0.74505805969E-08  0.93827000000E+00  0.93827000000E+00 0. -1.
     999902    2    1    2    0    0  0.23349631274E-01 -0.74621704601E-03  0.35941238645E-02  0.10202935907E+01  0.10200197700E+01 0.  0.
     999903    2    3    3    0    0 -0.18776747351E-01 -0.10792905887E+00  0.68003399162E-01  0.13045576942E+00  0.19824164215E-01 0.  0.
         14    1    1    2    0    0 -0.23349631274E-01  0.74621704601E-03 -0.35941238645E-02  0.23636409348E-01  0.00000000000E+00 0.  1.
     999901    1    3    3    0    0  0.42126378625E-01  0.10718284182E+00 -0.64409275298E-01  0.88983782124E+00  0.88000000000E+00 0. -1.
        -11    1    4    4    0    0 -0.17973477250E-01 -0.71489381404E-01  0.54119074311E-01  0.91448963161E-01  0.51100000000E-03 0. -1.
         11    1    4    4    0    0 -0.80327010110E-03 -0.36439677465E-01  0.13884324851E-01  0.39006806255E-01  0.51100000000E-03 0.  1.
</event>
<event>
 8    1  0.1117714E+005  0.1043930E+01  0.7957747E-01            NaN
         13   -1    0    0    0    0  0.00000000000E+00  0.00000000000E+00  0.74505805969E-08  0.10566000000E+00  0.10566000000E+00 0.  1.
     999900   -1    0    0    0    0 -0.00000000000E+00 -0.00000000000E+00 -0.74505805969E-08  0.93827000000E+00  0.93827000000E+00 0.  1.
     999902    2    1    2    0    0  0.90239973645E-02  0.14818493444E-01  0.16722833404E-01  0.10198328335E+01  0.10195481033E+01 0.  0.
     999903    2    3    3    0    0  0.35421163041E-01  0.23582965046E-01  0.12416063333E+00  0.13286242409E+00  0.20633609294E-01 0.  0.
         14    1    1    2    0    0 -0.90239973645E-02 -0.14818493444E-01 -0.16722833404E-01  0.24097166503E-01  0.00000000000E+00 0. -1.
     999901    1    3    3    0    0 -0.26397165676E-01 -0.87644716022E-02 -0.10743779993E+00  0.88697040941E+00  0.88000000000E+00 0.  1.
        -11    1    4    4    0    0  0.86592330034E-02  0.17876299654E-01  0.49108775224E-01  0.52976195885E-01  0.51100000000E-03 0.  1.
         11    1    4    4    0    0  0.26761930038E-01  0.57066653916E-02  0.75051858111E-01  0.79886228200E-01  0.51100000000E-03 0. -1.
</event>
<event>
 8    1  0.1117714E+005  0.1043930E+01  0.7957747E-01            NaN
         13   -1    0    0    0    0  0.00000000000E+00  0.00000000000E+00  0.74505805969E-08  0.10566000000E+00  0.10566000000E+00 0. -1.
     999900   -1    0    0    0    0 -0.00000000000E+00 -0.00000000000E+00 -0.74505805969E-08  0.93827000000E+00  0.93827000000E+00 0. -1.
     999902    2    1    2    0    0 -0.93659034645E-02 -0.34155468393E-02  0.20780668137E-01  0.10208817403E+01  0.10206215290E+01 0.  0.
     999903    2    3    3    0    0 -0.56295637181E-01  0.63207522070E-01  0.10136878888E+00  0.13344978321E+00  0.19204782418E-01 0.  0.
         14    1    1    2    0    0  0.93659034645E-02  0.34155468393E-02 -0.20780668137E-01  0.23048259721E-01  0.00000000000E+00 0.  1.
     999901    1    3    3    0    0  0.46929733716E-01 -0.66623068910E-01 -0.80588120748E-01  0.88743195707E+00  0.88000000000E+00 0. -1.
        -11    1    4    4    0    0 -0.12368640799E-01  0.27516794523E-01  0.36618499727E-01  0.47448212814E-01  0.51100000000E-03 0.  1.
         11    1    4    4    0    0 -0.43926996381E-01  0.35690727548E-01  0.64750289158E-01  0.86001570398E-01  0.51100000000E-03 0. -1.
</event>
<event>
 8    1  0.1117714E+005  0.1043930E+01  0.7957747E-01            NaN
         13   -1    0    0    0    0  0.00000000000E+00  0.00000000000E+00  0.74505805969E-08  0.10566000000E+00  0.10566000000E+00 0.  1.
     999900   -1    0    0    0    0 -0.00000000000E+00 -0.00000000000E+00 -0.74505805969E-08  0.93827000000E+00  0.93827000000E+00 0. -1.
     999902    2    1    2    0    0  0.38950127910E-02  0.23067506940E-01 -0.39781635079E-02  0.10202001288E+01  0.10199241129E+01 0.  0.
     999903    2    3    3    0    0 -0.92423136502E-01  0.70888635657E-01  0.57739188930E-01  0.13150834996E+00  0.19834246749E-01 0.  0.
         14    1    1    2    0    0 -0.38950127910E-02 -0.23067506940E-01  0.39781635079E-02  0.23729871174E-01  0.00000000000E+00 0. -1.
     999901    1    3    3    0    0  0.96318149293E-01 -0.47821128717E-01 -0.61717352438E-01  0.88869177887E+00  0.88000000000E+00 0. -1.
        -11    1    4    4    0    0 -0.62783997702E-01  0.58988074639E-01  0.40202427208E-01  0.95067973532E-01  0.51100000000E-03 0. -1.
         11    1    4    4    0    0 -0.29639138801E-01  0.11900561018E-01  0.17536761722E-01  0.36440376426E-01  0.51100000000E-03 0.  1.
</event>
<event>
 8    1  0.1117714E+005  0.1043930E+01  0.7957747E-01            NaN
         13   -1    0    0    0    0  0.00000000000E+00  0.00000000000E+00  0.74505805969E-08  0.10566000000E+00  0.10566000000E+00 0. -1.
     999900   -1    0    0    0    0 -0.00000000000E+00 -0.00000000000E+00 -0.74505805969E-08  0.93827000000E+00  0.93827000000E+00 0.  1.
     999902    2    1    2    0    0  0.12127612454E-01 -0.23188381521E-01 -0.36277845595E-02  0.10175114300E+01  0.10171684075E+01 0.  0.
     999903    2    3    3    0    0 -0.12373506210E+00 -0.17711131167E-01 -0.10767126236E-01  0.12703984884E+00  0.19978549169E-01 0.  0.
         14    1    1    2    0    0 -0.12127612454E-01  0.23188381521E-01  0.36277845595E-02  0.26418570025E-01  0.00000000000E+00 0. -1.
     999901    1    3    3    0    0  0.13586267455E+00 -0.54772503536E-02  0.71393416767E-02  0.89047158113E+00  0.88000000000E+00 0.  1.
        -11    1    4    4    0    0 -0.27045076001E-01  0.25054558371E-02 -0.75920450911E-02  0.28206625366E-01  0.51100000000E-03 0.  1.
         11    1    4    4    0    0 -0.96689986095E-01 -0.20216587004E-01 -0.31750811451E-02  0.98833223475E-01  0.51100000000E-03 0. -1.
</event>
<event>
 8    1  0.1117714E+005  0.1043930E+01  0.7957747E-01            NaN
         13   -1    0    0    0    0  0.00000000000E+00  0.00000000000E+00  0.74505805969E-08  0.10566000000E+00  0.10566000000E+00 0. -1.
     999900   -1    0    0    0    0 -0.00000000000E+00 -0.00000000000E+00 -0.74505805969E-08  0.93827000000E+00  0.93827000000E+00 0.  1.
     999902    2    1    2    0    0 -0.10837166545E-01 -0.20540902917E-01 -0.10107054052E-01  0.10186016480E+01  0.10182866944E+01 0.  0.
     999903    2    3    3    0    0 -0.48515401480E-01  0.76845489886E-01 -0.88988726451E-01  0.12892413504E+00  0.21058624477E-01 0.  0.
         14    1    1    2    0    0  0.10837166545E-01  0.20540902917E-01  0.10107054052E-01  0.25328351960E-01  0.00000000000E+00 0.  1.
     999901    1    3    3    0    0  0.37678234935E-01 -0.97386392803E-01  0.78881672399E-01  0.88967751300E+00  0.88000000000E+00 0. -1.
        -11    1    4    4    0    0 -0.18591202835E-01  0.48799947095E-01 -0.51880208540E-01  0.73613075051E-01  0.51100000000E-03 0. -1.
         11    1    4    4    0    0 -0.29924198645E-01  0.28045542791E-01 -0.37108517911E-01  0.55311059992E-01  0.51100000000E-03 0.  1.
</event>
<event>
 8    1  0.1117714E+005  0.1043930E+01  0.7957747E-01            NaN
         13   -1    0    0    0    0  0.00000000000E+00  0.00000000000E+00  0.74505805969E-08  0.10566000000E+00  0.10566000000E+00 0.  1.
     999900   -1    0    0    0    0 -0.00000000000E+00 -0.00000000000E+00 -0.74505805969E-08  0.93827000000E+00  0.93827000000E+00 0.  1.
     999902    2    1    2    0    0 -0.30122420231E-02  0.80964514690E-02  0.19871520247E-01  0.10222619718E+01  0.10220323065E+01 0.  0.
     999903    2    3    3    0    0 -0.12652587413E+00  0.17173513535E-01 -0.27978970607E-01  0.13230260204E+00  0.20431087085E-01 0.  0.
         14    1    1    2    0    0  0.30122420231E-02 -0.80964514690E-02 -0.19871520247E-01  0.21668028183E-01  0.00000000000E+00 0. -1.
     999901    1    3    3    0    0  0.12351363211E+00 -0.90770620662E-02  0.47850490854E-01  0.88995936977E+00  0.88000000000E+00 0. -1.
        -11    1    4    4    0    0 -0.50486614293E-01  0.28351795234E-02 -0.17564195466E-02  0.50599235136E-01  0.51100000000E-03 0. -1.
         11    1    4    4    0    0 -0.76039259838E-01  0.14338334012E-01 -0.26222551060E-01  0.81703366908E-01  0.51100000000E-03 0.  1.
</event>
<event>
 8    1  0.1117714E+005  0.1043930E+01  0.7957747E-01            NaN
         13   -1    0    0    0    0  0.00000000000E+00  0.00000000000E+00  0.74505805969E-08  0.10566000000E+00  0.10566000000E+00 0. -1.
     999900   -1    0    0    0    0 -0.00000000000E+00 -0.00000000000E+00 -0.74505805969E-08  0.93827000000E+00  0.93827000000E+00 0.  1.
     999902    2    1    2    0    0  0.19852377884E-01  0.31512507279E-02 -0.12133365121E-01  0.10204509490E+01  0.10201808043E+01 0.  0.
     999903    2    3    3    0    0  0.36330384166E-01 -0.33766392510E-01  0.11846129565E+00  0.12989527832E+00  0.19484318997E-01 0.  0.
         14    1    1    2    0    0 -0.19852377884E-01 -0.31512507279E-02  0.12133365121E-01  0.23479051045E-01  0.00000000000E+00 0. -1.
     999901    1    3    3    0    0 -0.16478006282E-01  0.36917643238E-01 -0.13059466077E+00  0.89055567063E+00  0.88000000000E+00 0.  1.
        -11    1    4    4    0    0  0.18165845773E-01 -0.26843442582E-01  0.87740077250E-01  0.93536894535E-01  0.51100000000E-03 0. -1.
         11    1    4    4    0    0  0.18164538393E-01 -0.69229499273E-02  0.30721218399E-01  0.36358383788E-01  0.51100000000E-03 0.  1.
</event>
<event>
 8    1  0.1117714E+005  0.1043930E+01  0.7957747E-01            NaN
         13   -1    0    0    0    0  0.00000000000E+00  0.00000000000E+00  0.74505805969E-08  0.10566000000E+00  0.10566000000E+00 0.  1.
     999900   -1    0    0    0    0 -0.00000000000E+00 -0.00000000000E+00 -0.74505805969E-08  0.93827000000E+00  0.93827000000E+00 0. -1.
     999902    2    1    2    0    0 -0.97028049525E-02 -0.10776939214E-01 -0.19081764841E-01  0.10199633442E+01  0.10196817262E+01 0.  0.
     999903    2    3    3    0    0  0.27332495877E-01  0.96508705919E-01 -0.81149357689E-01  0.13050608873E+00  0.19637344329E-01 0.  0.
         14    1    1    2    0    0  0.97028049525E-02  0.10776939214E-01  0.19081764841E-01  0.23966655841E-01  0.00000000000E+00 0.  1.
     999901    1    3    3    0    0 -0.37035300829E-01 -0.10728564513E+00  0.62067592848E-01  0.88945725543E+00  0.88000000000E+00 0.  1.
        -11    1    4    4    0    0  0.13459634197E-02  0.19509333204E-01 -0.24923948188E-01  0.31684223423E-01  0.51100000000E-03 0.  1.
         11    1    4    4    0    0  0.25986532457E-01  0.76999372715E-01 -0.56225409501E-01  0.98821865304E-01  0.51100000000E-03 0. -1.
</event>
<event>
 8    1  0.1117714E+005  0.1043930E+01  0.7957747E-01            NaN
         13   -1    0    0    0    0  0.00000000000E+00  0.00000000000E+00  0.74505805969E-08  0.10566000000E+00  0.10566000000E+00 0. -1.
     999900   -1    0    0    0    0 -0.00000000000E+00 -0.00000000000E+00 -0.74505805969E-08  0.93827000000E+00  0.93827000000E+00 0. -1.
     999902    2    1    2    0    0 -0.59259406816E-02 -0.46746864679E-02 -0.22618820613E-01  0.10200850737E+01  0.10198063429E+01 0.  0.
     999903    2    3    3    0    0  0.96328255174E-01  0.67778484863E-01  0.47438683101E-01  0.12844981390E+00  0.19387374289E-01 0.  0.
         14    1    1    2    0    0  0.59259406816E-02  0.46746864679E-02  0.22618820613E-01  0.23844926346E-01  0.00000000000E+00 0. -1.
     999901    1    3    3    0    0 -0.10225419586E+00 -0.72453171331E-01 -0.70057503715E-01  0.89163525975E+00  0.88000000000E+00 0.  1.
        -11    1    4    4    0    0  0.17445725168E-01  0.20640080305E-01  0.62350682113E-02  0.27739924986E-01  0.51100000000E-03 0.  1.
         11    1    4    4    0    0  0.78882530006E-01  0.47138404558E-01  0.41203614890E-01  0.10070988892E+00  0.51100000000E-03 0. -1.
</event>
<event>
 8    1  0.1117714E+005  0.1043930E+01  0.7957747E-01            NaN
         13   -1    0    0    0    0  0.00000000000E+00  0.00000000000E+00  0.74505805969E-08  0.10566000000E+00  0.10566000000E+00 0.  1.
     999900   -1    0    0    0    0 -0.00000000000E+00 -0.00000000000E+00 -0.74505805969E-08  0.93827000000E+00  0.93827000000E+00 0.  1.
     999902    2    1    2    0    0  0.17863768965E-01  0.79695830159E-03  0.15777406435E-01  0.10200830728E+01  0.10198042947E+01 0.  0.
     999903    2    3    3    0    0  0.12231171765E+00  0.45763909615E-01  0.14344805459E-01  0.13276494886E+00  0.19138090400E-01 0.  0.
         14    1    1    2    0    0 -0.17863768965E-01 -0.79695830159E-03 -0.15777406435E-01  0.23846927223E-01  0.00000000000E+00 0. -1.
     999901    1    3    3    0    0 -0.10444794868E+00 -0.44966951313E-01  0.14326009761E-02  0.88731812392E+00  0.88000000000E+00 0. -1.
        -11    1    4    4    0    0  0.63440089103E-01  0.33830795925E-01  0.67247723978E-02  0.72212542838E-01  0.51100000000E-03 0.  1.
         11    1    4    4    0    0  0.58871628544E-01  0.11933113690E-01  0.76200330608E-02  0.60552406018E-01  0.51100000000E-03 0. -1.
</event>
<event>
 8    1  0.1117714E+005  0.1043930E+01  0.7957747E-01            NaN
         13   -1    0    0    0    0  0.00000000000E+00  0.00000000000E+00  0.74505805969E-08  0.10566000000E+00  0.10566000000E+00 0. -1.
     999900   -1    0    0    0    0 -0.00000000000E+00 -0.00000000000E+00 -0.74505805969E-08  0.93827000000E+00  0.93827000000E+00 0.  1.
     999902    2    1    2    0    0  0.13484052109E-01  0.15402072500E-01  0.11374269695E-01  0.10205116843E+01  0.10202429516E+01 0.  0.
     999903    2    3    3    0    0  0.87144999465E-01 -0.81389850724E-01  0.50959836986E-01  0.13126389618E+00  0.20365331345E-01 0.  0.
         14    1    1    2    0    0 -0.13484052109E-01 -0.15402072500E-01 -0.11374269695E-01  0.23418315688E-01  0.00000000000E+00 0.  1.
     999901    1    3    3    0    0 -0.73660947356E-01  0.96791923225E-01 -0.39585567291E-01  0.88924778814E+00  0.88000000000E+00 0.  1.
        -11    1    4    4    0    0  0.26318064372E-01 -0.21413460538E-01  0.24438220895E-01  0.41817036791E-01  0.51100000000E-03 0. -1.
         11    1    4    4    0    0  0.60826935093E-01 -0.59976390186E-01  0.26521616091E-01  0.89446859384E-01  0.51100000000E-03 0.  1.
</event>
<event>
 8    1  0.1217494E+005  0.1043930E+01  0.7957747E-01            NaN
         13   -1    0    0    0    0  0.00000000000E+00  0.00000000000E+00  0.74505805969E-08  0.10566000000E+00  0.10566000000E+00 0. -1.
     999900   -1    0    0    0    0 -0.00000000000E+00 -0.00000000000E+00 -0.74505805969E-08  0.93827000000E+00  0.93827000000E+00 0.  1.
     999902    2    1    2    0    0  0.62125923252E-03  0.74431501557E-02  0.32748362278E-01  0.10103406910E+01  0.10097821895E+01 0.  0.
     999903    2    3    3    0    0  0.71412336928E-01 -0.85138893832E-01 -0.41627424673E-01  0.11954634367E+00  0.14495954303E-01 0.  0.
         14    1    1    2    0    0 -0.62125923252E-03 -0.74431501557E-02 -0.32748362278E-01  0.33589309001E-01  0.00000000000E+00 0.  1.
     999901    1    3    3    0    0 -0.70791077696E-01  0.92582043988E-01  0.74375786951E-01  0.89079434733E+00  0.88000000000E+00 0. -1.
        -11    1    4    4    0    0  0.30107186136E-01 -0.47080137918E-01 -0.19937096689E-01  0.59335747984E-01  0.51100000000E-03 0.  1.
         11    1    4    4    0    0  0.41305150792E-01 -0.38058755914E-01 -0.21690327984E-01  0.60210595685E-01  0.51100000000E-03 0. -1.
</event>
<event>
 8    1  0.1117714E+005  0.1043930E+01  0.7957747E-01            NaN
         13   -1    0    0    0    0  0.00000000000E+00  0.00000000000E+00  0.74505805969E-08  0.10566000000E+00  0.10566000000E+00 0.  1.
     999900   -1    0    0    0    0 -0.00000000000E+00 -0.00000000000E+00 -0.74505805969E-08  0.93827000000E+00  0.93827000000E+00 0.  1.
     999902    2    1    2    0    0 -0.10306583210E-01  0.17293039385E-01 -0.77402348961E-02  0.10223618266E+01  0.10221342956E+01 0.  0.
     999903    2    3    3    0    0 -0.36915033810E-01  0.11784495870E+00  0.49266589965E-01  0.13440435225E+00  0.19676864708E-01 0.  0.
         14    1    1    2    0    0  0.10306583210E-01 -0.17293039385E-01  0.77402348961E-02  0.21568173425E-01  0.00000000000E+00 0.  1.
     999901    1    3    3    0    0  0.26608450600E-01 -0.10055191932E+00 -0.57006824861E-01  0.88795747432E+00  0.88000000000E+00 0. -1.
        -11    1    4    4    0    0 -0.13391379924E-01  0.30251323337E-01  0.21857482549E-01  0.39654536743E-01  0.51100000000E-03 0. -1.
         11    1    4    4    0    0 -0.23523653886E-01  0.87593635368E-01  0.27409107416E-01  0.94749815511E-01  0.51100000000E-03 0.  1.
</event>
<event>
 8    1  0.1117714E+005  0.1043930E+01  0.7957747E-01            NaN
         13   -1    0    0    0    0  0.00000000000E+00  0.00000000000E+00  0.74505805969E-08  0.10566000000E+00  0.10566000000E+00 0. -1.
     999900   -1    0    0    0    0 -0.00000000000E+00 -0.00000000000E+00 -0.74505805969E-08  0.93827000000E+00  0.93827000000E+00 0.  1.
     999902    2    1    2    0    0  0.31242635867E-02 -0.28446713306E-02 -0.24404604901E-01  0.10191623211E+01  0.10188613246E+01 0.  0.
     999903    2    3    3    0    0  0.23595144451E-01 -0.79283413756E-01  0.95155588054E-01  0.12755894624E+00  0.19341879188E-01 0.  0.
         14    1    1    2    0    0 -0.31242635867E-02  0.28446713306E-02  0.24404604901E-01  0.24767678904E-01  0.00000000000E+00 0. -1.
     999901    1    3    3    0    0 -0.20470880865E-01  0.76438742425E-01 -0.11956019296E+00  0.89160337485E+00  0.88000000000E+00 0.  1.
        -11    1    4    4    0    0  0.25759300191E-01 -0.67319484433E-01  0.75058647077E-01  0.10406496121E+00  0.51100000000E-03 0.  1.
         11    1    4    4    0    0 -0.21641557395E-02 -0.11963929323E-01  0.20096940978E-01  0.23493985030E-01  0.51100000000E-03 0. -1.
</event>
<event>
 8    1  0.1117714E+005  0.1043930E+01  0.7957747E-01            NaN
         13   -1    0    0    0    0  0.00000000000E+00  0.00000000000E+00  0.74505805969E-08  0.10566000000E+00  0.10566000000E+00 0.  1.
     999900   -1    0    0    0    0 -0.00000000000E+00 -0.00000000000E+00 -0.74505805969E-08  0.93827000000E+00  0.93827000000E+00 0. -1.
     999902    2    1    2    0    0  0.16218076289E-03 -0.26878603884E-01  0.46462954729E-03  0.10170468914E+01  0.10166915352E+01 0.  0.
     999903    2    3    3    0    0 -0.25120397340E-01 -0.34400051327E-01  0.11978238376E+00  0.12860302291E+00  0.19404127077E-01 0.  0.
         14    1    1    2    0    0 -0.16218076289E-03  0.26878603884E-01 -0.46462954729E-03  0.26883108637E-01  0.00000000000E+00 0.  1.
     999901    1    3    3    0    0  0.25282578103E-01  0.75214474430E-02 -0.11931775421E+00  0.88844386846E+00  0.88000000000E+00 0. -1.
        -11    1    4    4    0    0  0.31009808096E-03 -0.10917960434E-01  0.17641709148E-01  0.20755458162E-01  0.51100000000E-03 0. -1.
         11    1    4    4    0    0 -0.25430495421E-01 -0.23482090893E-01  0.10214067461E+00  0.10784756475E+00  0.51100000000E-03 0.  1.
</event>
<event>
 8    1  0.1117714E+005  0.1043930E+01  0.7957747E-01            NaN
         13   -1    0    0    0    0  0.00000000000E+00  0.00000000000E+00  0.74505805969E-08  0.10566000000E+00  0.10566000000E+00 0.  1.
     999900   -1    0    0    0    0 -0.00000000000E+00 -0.00000000000E+00 -0.74505805969E-08  0.93827000000E+00  0.93827000000E+00 0.  1.
     999902    2    1    2    0    0  0.19773154604E-01  0.11455690041E-01  0.58727300879E-02  0.10203355211E+01  0.10200626824E+01 0.  0.
     999903    2    3    3    0    0 -0.10469358470E+00 -0.67778602551E-01 -0.18189948357E-01  0.12772751371E+00  0.20706469907E-01 0.  0.
         14    1    1    2    0    0 -0.19773154604E-01 -0.11455690041E-01 -0.58727300879E-02  0.23594478931E-01  0.00000000000E+00 0. -1.
     999901    1    3    3    0    0  0.12446673930E+00  0.79234292592E-01  0.24062678445E-01  0.89260800736E+00  0.88000000000E+00 0. -1.
        -11    1    4    4    0    0 -0.94159010968E-01 -0.57016829545E-01 -0.21840108904E-01  0.11222339184E+00  0.51100000000E-03 0.  1.
         11    1    4    4    0    0 -0.10534573728E-01 -0.10761773006E-01  0.36501605464E-02  0.15504121868E-01  0.51100000000E-03 0. -1.
</event>
<event>
 8    1  0.1117714E+005  0.1043930E+01  0.7957747E-01            NaN
         13   -1    0    0    0    0  0.00000000000E+00  0.00000000000E+00  0.74505805969E-08  0.10566000000E+00  0.10566000000E+00 0. -1.
     999900   -1    0    0    0    0 -0.00000000000E+00 -0.00000000000E+00 -0.74505805969E-08  0.93827000000E+00  0.93827000000E+00 0. -1.
     999902    2    1    2    0    0 -0.11775239277E-01  0.14594106705E-01 -0.13895634480E-01  0.10205904870E+01  0.10203235807E+01 0.  0.
     999903    2    3    3    0    0 -0.97251015001E-01 -0.83783701278E-01 -0.14565818110E-01  0.13099240330E+00  0.21665136642E-01 0.  0.
         14    1    1    2    0    0  0.11775239277E-01 -0.14594106705E-01  0.13895634480E-01  0.23339513023E-01  0.00000000000E+00 0. -1.
     999901    1    3    3    0    0  0.85475775725E-01  0.98377807984E-01  0.67018362915E-03  0.88959808368E+00  0.88000000000E+00 0. -1.
        -11    1    4    4    0    0 -0.67083411016E-01 -0.62031491787E-01 -0.19628705867E-01  0.93453931013E-01  0.51100000000E-03 0.  1.
         11    1    4    4    0    0 -0.30167603986E-01 -0.21752209491E-01  0.50628877570E-02  0.37538472284E-01  0.51100000000E-03 0. -1.
</event>
<event>
 8    1  0.1117714E+005  0.1043930E+01  0.7957747E-01            NaN
         13   -1    0    0    0    0  0.00000000000E+00  0.00000000000E+00  0.74505805969E-08  0.10566000000E+00  0.10566000000E+00 0.  1.
     999900   -1    0    0    0    0 -0.00000000000E+00 -0.00000000000E+00 -0.74505805969E-08  0.93827000000E+00  0.93827000000E+00 0. -1.
     999902    2    1    2    0    0  0.23818270759E-01 -0.10247841884E-01 -0.87931995860E-02  0.10165502877E+01  0.10161814990E+01 0.  0.
     999903    2    3    3    0    0  0.36883616514E-01  0.54667816093E-01 -0.10848720372E+00  0.12844914463E+00  0.19512511381E-01 0.  0.
         14    1    1    2    0    0 -0.23818270759E-01  0.10247841884E-01  0.87931995860E-02  0.27379712273E-01  0.00000000000E+00 0. -1.
     999901    1    3    3    0    0 -0.13065345755E-01 -0.64915657976E-01  0.99694004139E-01  0.88810114310E+00  0.88000000000E+00 0.  1.
        -11    1    4    4    0    0  0.94665780317E-02  0.31405630534E-01 -0.52737841111E-01  0.62108539952E-01  0.51100000000E-03 0. -1.
         11    1    4    4    0    0  0.27417038482E-01  0.23262185558E-01 -0.55749362614E-01  0.66340604677E-01  0.51100000000E-03 0.  1.
</event>
<event>
 8    1  0.1117714E+005  0.1043930E+01  0.7957747E-01            NaN
         13   -1    0    0    0    0  0.00000000000E+00  0.00000000000E+00  0.74505805969E-08  0.10566000000E+00  0.10566000000E+00 0. -1.
     999900   -1    0    0    0    0 -0.00000000000E+00 -0.00000000000E+00 -0.74505805969E-08  0.93827000000E+00  0.93827000000E+00 0. -1.
     999902    2    1    2    0    0 -0.80077452405E-02  0.39403759696E-02  0.21393995896E-01  0.10207491112E+01  0.10204858619E+01 0.  0.
     999903    2    3    3    0    0 -0.12206307755E+00 -0.27882514519E-01  0.39078272545E-01  0.13264210814E+00  0.19748112577E-01 0.  0.
         14    1    1    2    0    0  0.80077452405E-02 -0.39403759696E-02 -0.21393995896E-01  0.23180888832E-01  0.00000000000E+00 0.  1.
     999901    1    3    3    0    0  0.11405533231E+00  0.31822890488E-01 -0.17684276649E-01  0.88810700303E+00  0.88000000000E+00 0.  1.
        -11    1    4    4    0    0 -0.10241838664E-01  0.30743708914E-02  0.39793222397E-02  0.11421170784E-01  0.51100000000E-03 0. -1.
         11    1    4    4    0    0 -0.11182123888E+00 -0.30956885410E-01  0.35098950306E-01  0.12122093736E+00  0.51100000000E-03 0.  1.
</event>
<event>
 8    1  0.1117714E+005  0.1043930E+01  0.7957747E-01            NaN
         13   -1    0    0    0    0  0.00000000000E+00  0.00000000000E+00  0.74505805969E-08  0.10566000000E+00  0.10566000000E+00 0.  1.
     999900   -1    0    0    0    0 -0.00000000000E+00 -0.00000000000E+00 -0.74505805969E-08  0.93827000000E+00  0.93827000000E+00 0. -1.
     999902    2    1    2    0    0  0.12146910292E-01  0.14105479045E-01 -0.14511577517E-01  0.10203270796E+01  0.10200540434E+01 0.  0.
     999903    2    3    3    0    0 -0.22122376047E-01 -0.56092506725E-01 -0.11474083776E+00  0.13119939148E+00  0.20299055229E-01 0.  0.
         14    1    1    2    0    0 -0.12146910292E-01 -0.14105479045E-01  0.14511577517E-01  0.23602920386E-01  0.00000000000E+00 0.  1.
     999901    1    3    3    0    0  0.34269286339E-01  0.70197985770E-01  0.10022926024E+00  0.88912768813E+00  0.88000000000E+00 0.  1.
        -11    1    4    4    0    0 -0.89313104852E-02 -0.38340243583E-01 -0.56201364050E-01  0.68619217622E-01  0.51100000000E-03 0. -1.
         11    1    4    4    0    0 -0.13191065562E-01 -0.17752263142E-01 -0.58539473709E-01  0.62580173861E-01  0.51100000000E-03 0.  1.
</event>
<event>
 8    1  0.1117714E+005  0.1043930E+01  0.7957747E-01            NaN
         13   -1    0    0    0    0  0.00000000000E+00  0.00000000000E+00  0.74505805969E-08  0.10566000000E+00  0.10566000000E+00 0. -1.
     999900   -1    0    0    0    0 -0.00000000000E+00 -0.00000000000E+00 -0.74505805969E-08  0.93827000000E+00  0.93827000000E+00 0. -1.
     999902    2    1    2    0    0 -0.12497921711E-01 -0.11781426481E-01 -0.17352578921E-01  0.10195145940E+01  0.10192222011E+01 0.  0.
     999903    2    3    3    0    0 -0.11308948796E+00 -0.24346996221E-01 -0.61468074597E-01  0.13259704779E+00  0.20533981007E-01 0.  0.
         14    1    1    2    0    0  0.12497921711E-01  0.11781426481E-01  0.17352578921E-01  0.24415406042E-01  0.00000000000E+00 0. -1.
     999901    1    3    3    0    0  0.10059156625E+00  0.12565569740E-01  0.44115495676E-01  0.88691754617E+00  0.88000000000E+00 0. -1.
        -11    1    4    4    0    0 -0.55042270398E-01 -0.21309699270E-01 -0.25968610717E-01  0.64485538512E-01  0.51100000000E-03 0. -1.
         11    1    4    4    0    0 -0.58047217561E-01 -0.30372969505E-02 -0.35499463879E-01  0.68111509278E-01  0.51100000000E-03 0.  1.
</event>
<event>
 8    1  0.1117714E+005  0.1043930E+01  0.7957747E-01            NaN
         13   -1    0    0    0    0  0.00000000000E+00  0.00000000000E+00  0.74505805969E-08  0.10566000000E+00  0.10566000000E+00 0.  1.
     999900   -1    0    0    0    0 -0.00000000000E+00 -0.00000000000E+00 -0.74505805969E-08  0.93827000000E+00  0.93827000000E+00 0.  1.
     999902    2    1    2    0    0 -0.18927393659E-01  0.18870379779E-02  0.16413572832E-01  0.10188060569E+01  0.10184962293E+01 0.  0.
     999903    2    3    3    0    0  0.30880917201E-02  0.12802709325E-01 -0.12512567359E+00  0.12715747605E+00  0.18415858572E-01 0.  0.
         14    1    1    2    0    0  0.18927393659E-01 -0.18870379779E-02 -0.16413572832E-01  0.25123943086E-01  0.00000000000E+00 0. -1.
     999901    1    3    3    0    0 -0.22015485379E-01 -0.10915671347E-01  0.14153924643E+00  0.89164858086E+00  0.88000000000E+00 0. -1.
        -11    1    4    4    0    0  0.92906674773E-02  0.57263267423E-02 -0.38484846375E-01  0.40005647621E-01  0.51100000000E-03 0. -1.
         11    1    4    4    0    0 -0.62025757571E-02  0.70763825822E-02 -0.86640827219E-01  0.87151828429E-01  0.51100000000E-03 0.  1.
</event>
<event>
 8    1  0.1117714E+005  0.1043930E+01  0.7957747E-01            NaN
         13   -1    0    0    0    0  0.00000000000E+00  0.00000000000E+00  0.74505805969E-08  0.10566000000E+00  0.10566000000E+00 0. -1.
     999900   -1    0    0    0    0 -0.00000000000E+00 -0.00000000000E+00 -0.74505805969E-08  0.93827000000E+00  0.93827000000E+00 0.  1.
     999902    2    1    2    0    0 -0.13882686527E-01  0.14762081274E-01  0.22545145024E-01  0.10136161155E+01  0.10131627204E+01 0.  0.
     999903    2    3    3    0    0  0.59492657507E-01  0.74511683464E-01  0.81013077992E-01  0.12661416779E+00  0.19407766725E-01 0.  0.
         14    1    1    2    0    0  0.13882686527E-01 -0.14762081274E-01 -0.22545145024E-01  0.30313884491E-01  0.00000000000E+00 0. -1.
     999901    1    3    3    0    0 -0.73375344034E-01 -0.59749602190E-01 -0.58467932968E-01  0.88700194772E+00  0.88000000000E+00 0. -1.
        -11    1    4    4    0    0  0.26881049326E-01  0.28023921011E-01  0.44674947316E-01  0.59194957558E-01  0.51100000000E-03 0.  1.
         11    1    4    4    0    0  0.32611608181E-01  0.46487762453E-01  0.36338130677E-01  0.67419210231E-01  0.51100000000E-03 0. -1.
</event>
<event>
 8    1  0.1117714E+005  0.1043930E+01  0.7957747E-01            NaN
         13   -1    0    0    0    0  0.00000000000E+00  0.00000000000E+00  0.74505805969E-08  0.10566000000E+00  0.10566000000E+00 0.  1.
     999900   -1    0    0    0    0 -0.00000000000E+00 -0.00000000000E+00 -0.74505805969E-08  0.93827000000E+00  0.93827000000E+00 0. -1.
     999902    2    1    2    0    0  0.10746663360E-01 -0.18661525904E-01  0.13428458563E-02  0.10223534721E+01  0.10221257630E+01 0.  0.
     999903    2    3    3    0    0 -0.69271375407E-01 -0.11062189221E+00 -0.20360395111E-01  0.13368557788E+00  0.20531964281E-01 0.  0.
         14    1    1    2    0    0 -0.10746663360E-01  0.18661525904E-01 -0.13428458563E-02  0.21576527928E-01  0.00000000000E+00 0. -1.
     999901    1    3    3    0    0  0.80018038767E-01  0.91960366306E-01  0.21703240968E-01  0.88866789419E+00  0.88000000000E+00 0.  1.
        -11    1    4    4    0    0 -0.52942400883E-01 -0.69366549192E-01 -0.80300925940E-02  0.87631954595E-01  0.51100000000E-03 0. -1.
         11    1    4    4    0    0 -0.16328974523E-01 -0.41255343017E-01 -0.12330302517E-01  0.46053623285E-01  0.51100000000E-03 0.  1.
</event>
<event>
 8    1  0.1117714E+005  0.1043930E+01  0.7957747E-01            NaN
         13   -1    0    0    0    0  0.00000000000E+00  0.00000000000E+00  0.74505805969E-08  0.10566000000E+00  0.10566000000E+00 0. -1.
     999900   -1    0    0    0    0 -0.00000000000E+00 -0.00000000000E+00 -0.74505805969E-08  0.93827000000E+00  0.93827000000E+00 0.  1.
     999902    2    1    2    0    0  0.51734225469E-02 -0.21494963812E-01 -0.40499703116E-02  0.10214533448E+01  0.10212060201E+01 0.  0.
     999903    2    3    3    0    0 -0.87541746025E-02 -0.12791534933E-01  0.12885592503E+00  0.13132205972E+00  0.20034345905E-01 0.  0.
         14    1    1    2    0    0 -0.51734225469E-02  0.21494963812E-01  0.40499703116E-02  0.22476655215E-01  0.00000000000E+00 0. -1.
     999901    1    3    3    0    0  0.13927597149E-01 -0.87034288797E-02 -0.13290589534E+00  0.89013128507E+00  0.88000000000E+00 0.  1.
        -11    1    4    4    0    0 -0.72521719437E-02 -0.18245508027E-01  0.98396369045E-01  0.10033742633E+00  0.51100000000E-03 0. -1.
         11    1    4    4    0    0 -0.15020026589E-02  0.54539730943E-02  0.30459555981E-01  0.30984633386E-01  0.51100000000E-03 0.  1.
</event>
<event>
 8    1  0.1117714E+005  0.1043930E+01  0.7957747E-01            NaN
         13   -1    0    0    0    0  0.00000000000E+00  0.00000000000E+00  0.74505805969E-08  0.10566000000E+00  0.10566000000E+00 0.  1.
     999900   -1    0    0    0    0 -0.00000000000E+00 -0.00000000000E+00 -0.74505805969E-08  0.93827000000E+00  0.93827000000E+00 0. -1.
     999902    2    1    2    0    0  0.21304430890E-01 -0.29067895261E-03 -0.99185349769E-02  0.10204280723E+01  0.10201573948E+01 0.  0.
     999903    2    3    3    0    0 -0.35435898926E-01  0.11554334985E+00  0.41746486880E-01  0.12952613508E+00  0.20694972173E-01 0.  0.
         14    1    1    2    0    0 -0.21304430890E-01  0.29067895261E-03  0.99185349769E-02  0.23501927706E-01  0.00000000000E+00 0.  1.
     999901    1    3    3    0    0  0.56740329816E-01 -0.11583402880E+00 -0.51665021856E-01  0.89090193722E+00  0.88000000000E+00 0. -1.
        -11    1    4    4    0    0 -0.17678863805E-02  0.36762847052E-01  0.15304181540E-01  0.39863660635E-01  0.51100000000E-03 0.  1.
         11    1    4    4    0    0 -0.33668012546E-01  0.78780502799E-01  0.26442305339E-01  0.89662474440E-01  0.51100000000E-03 0. -1.
</event>
<event>
 8    1  0.1117714E+005  0.1043930E+01  0.7957747E-01            NaN
         13   -1    0    0    0    0  0.00000000000E+00  0.00000000000E+00  0.74505805969E-08  0.10566000000E+00  0.10566000000E+00 0.  1.
     999900   -1    0    0    0    0 -0.00000000000E+00 -0.00000000000E+00 -0.74505805969E-08  0.93827000000E+00  0.93827000000E+00 0. -1.
     999902    2    1    2    0    0 -0.12935487089E-01  0.87260965198E-02 -0.17523900841E-01  0.10204660130E+01  0.10201962188E+01 0.  0.
     999903    2    3    3    0    0  0.62509953706E-01  0.10121407496E+00  0.48119315701E-01  0.12998576469E+00  0.20713454485E-01 0.  0.
         14    1    1    2    0    0  0.12935487089E-01 -0.87260965198E-02  0.17523900841E-01  0.23463987031E-01  0.00000000000E+00 0.  1.
     999901    1    3    3    0    0 -0.75445440795E-01 -0.92487978440E-01 -0.65643216542E-01  0.89048024828E+00  0.88000000000E+00 0. -1.
        -11    1    4    4    0    0  0.41221006212E-01  0.51824181274E-01  0.33693641261E-01  0.74299661508E-01  0.51100000000E-03 0. -1.
         11    1    4    4    0    0  0.21288947494E-01  0.49389893687E-01  0.14425674441E-01  0.55686103184E-01  0.51100000000E-03 0.  1.
</event>
<event>
 8    1  0.1117714E+005  0.1043930E+01  0.7957747E-01            NaN
         13   -1    0    0    0    0  0.00000000000E+00  0.00000000000E+00  0.74505805969E-08  0.10566000000E+00  0.10566000000E+00 0.  1.
     999900   -1    0    0    0    0 -0.00000000000E+00 -0.00000000000E+00 -0.74505805969E-08  0.93827000000E+00  0.93827000000E+00 0.  1.
     999902    2    1    2    0    0  0.19980591547E-01  0.26410333711E-02 -0.13025050738E-01  0.10199331035E+01  0.10196507660E+01 0.  0.
     999903    2    3    3    0    0  0.82472193409E-01  0.97083240975E-01  0.27172773173E-01  0.13176622956E+00  0.19928905816E-01 0.  0.
         14    1    1    2    0    0 -0.19980591547E-01 -0.26410333711E-02  0.13025050738E-01  0.23996896520E-01  0.00000000000E+00 0.  1.
     999901    1    3    3    0    0 -0.62491601861E-01 -0.94442207604E-01 -0.40197823910E-01  0.88816687392E+00  0.88000000000E+00 0.  1.
        -11    1    4    4    0    0  0.41105430097E-01  0.40530166553E-01  0.20983181787E-01  0.61423984104E-01  0.51100000000E-03 0. -1.
         11    1    4    4    0    0  0.41366763311E-01  0.56553074422E-01  0.61895913855E-02  0.70342245457E-01  0.51100000000E-03 0.  1.
</event>
<event>
 8    1  0.1445074E+005  0.1043930E+01  0.7957747E-01            NaN
         13   -1    0    0    0    0  0.00000000000E+00  0.00000000000E+00  0.74505805969E-08  0.10566000000E+00  0.10566000000E+00 0.  1.
     999900   -1    0    0    0    0 -0.00000000000E+00 -0.00000000000E+00 -0.74505805969E-08  0.93827000000E+00  0.93827000000E+00 0. -1.
     999902    2    1    2    0    0  0.41334590317E-02  0.40918570690E-02  0.23536151566E-01  0.10196858418E+01  0.10193975852E+01 0.  0.
     999903    2    3    3    0    0  0.46551861105E-01 -0.47295469456E-01 -0.10705616455E+00  0.12755674170E+00  0.20143554350E-01 0.  0.
         14    1    1    2    0    0 -0.41334590317E-02 -0.40918570690E-02 -0.23536151566E-01  0.24244158232E-01  0.00000000000E+00 0.  1.
     999901    1    3    3    0    0 -0.42418402073E-01  0.51387326525E-01  0.13059231611E+00  0.89212910007E+00  0.88000000000E+00 0.  1.
        -11    1    4    4    0    0  0.40573205223E-02 -0.58675785874E-02 -0.26813301765E-01  0.27750758564E-01  0.51100000000E-03 0.  1.
         11    1    4    4    0    0  0.42494540582E-01 -0.41427890868E-01 -0.80242862782E-01  0.99805983135E-01  0.51100000000E-03 0. -1.
</event>
<event>
 8    1  0.1117714E+005  0.1043930E+01  0.7957747E-01            NaN
         13   -1    0    0    0    0  0.00000000000E+00  0.00000000000E+00  0.74505805969E-08  0.10566000000E+00  0.10566000000E+00 0. -1.
     999900   -1    0    0    0    0 -0.00000000000E+00 -0.00000000000E+00 -0.74505805969E-08  0.93827000000E+00  0.93827000000E+00 0.  1.
     999902    2    1    2    0    0 -0.64538543458E-02  0.18060759186E-01 -0.13018407300E-01  0.10207497889E+01  0.10204865552E+01 0.  0.
     999903    2    3    3    0    0  0.71729943928E-01 -0.87696928326E-01  0.56575028265E-01  0.12825853344E+00  0.20336702889E-01 0.  0.
         14    1    1    2    0    0  0.64538543458E-02 -0.18060759186E-01  0.13018407300E-01  0.23180211106E-01  0.00000000000E+00 0. -1.
     999901    1    3    3    0    0 -0.78183798273E-01  0.10575768751E+00 -0.69593435565E-01  0.89249125545E+00  0.88000000000E+00 0.  1.
        -11    1    4    4    0    0  0.43522097487E-01 -0.67103981369E-01  0.42768033871E-01  0.90699962113E-01  0.51100000000E-03 0.  1.
         11    1    4    4    0    0  0.28207846441E-01 -0.20592946958E-01  0.13806994394E-01  0.37558571331E-01  0.51100000000E-03 0. -1.
</event>
<event>
 8    1  0.1117714E+005  0.1043930E+01  0.7957747E-01            NaN
         13   -1    0    0    0    0  0.00000000000E+00  0.00000000000E+00  0.74505805969E-08  0.10566000000E+00  0.10566000000E+00 0. -1.
     999900   -1    0    0    0    0 -0.00000000000E+00 -0.00000000000E+00 -0.74505805969E-08  0.93827000000E+00  0.93827000000E+00 0.  1.
     999902    2    1    2    0    0  0.12893363239E-01 -0.24963937194E-01 -0.31956247257E-02  0.10156519344E+01  0.10152581952E+01 0.  0.
     999903    2    3    3    0    0 -0.51514368169E-01 -0.54779281481E-01 -0.10056606059E+00  0.12744119793E+00  0.21753771634E-01 0.  0.
         14    1    1    2    0    0 -0.12893363239E-01  0.24963937194E-01  0.31956247257E-02  0.28278065585E-01  0.00000000000E+00 0. -1.
     999901    1    3    3    0    0  0.64407731408E-01  0.29815344287E-01  0.97370435866E-01  0.88821073648E+00  0.88000000000E+00 0.  1.
        -11    1    4    4    0    0 -0.22949114970E-01 -0.31058949290E-01 -0.67259641062E-01  0.77559271823E-01  0.51100000000E-03 0.  1.
         11    1    4    4    0    0 -0.28565253199E-01 -0.23720332192E-01 -0.33306419530E-01  0.49881926111E-01  0.51100000000E-03 0. -1.
</event>
<event>
 8    1  0.1117714E+005  0.1043930E+01  0.7957747E-01            NaN
         13   -1    0    0    0    0  0.00000000000E+00  0.00000000000E+00  0.74505805969E-08  0.10566000000E+00  0.10566000000E+00 0.  1.
     999900   -1    0    0    0    0 -0.00000000000E+00 -0.00000000000E+00 -0.74505805969E-08  0.93827000000E+00  0.93827000000E+00 0.  1.
     999902    2    1    2    0    0  0.21243869573E-01  0.61197864305E-03  0.11123319955E-01  0.10199424041E+01  0.10196602880E+01 0.  0.
     999903    2    3    3    0    0  0.69035073473E-01 -0.86471253639E-01 -0.67142668824E-01  0.13090187994E+00  0.19597069191E-01 0.  0.
         14    1    1    2    0    0 -0.21243869573E-01 -0.61197864305E-03 -0.11123319955E-01  0.23987595943E-01  0.00000000000E+00 0.  1.
     999901    1    3    3    0    0 -0.47791203901E-01  0.87083232282E-01  0.78265988779E-01  0.88904052411E+00  0.88000000000E+00 0. -1.
        -11    1    4    4    0    0  0.59625108872E-01 -0.65131056304E-01 -0.58969505448E-01  0.10618319922E+00  0.51100000000E-03 0. -1.
         11    1    4    4    0    0  0.94099646018E-02 -0.21340197335E-01 -0.81731633752E-02  0.24718680722E-01  0.51100000000E-03 0.  1.
</event>
<event>
 8    1  0.1117714E+005  0.1043930E+01  0.7957747E-01            NaN
         13   -1    0    0    0    0  0.00000000000E+00  0.00000000000E+00  0.74505805969E-08  0.10566000000E+00  0.10566000000E+00 0. -1.
     999900   -1    0    0    0    0 -0.00000000000E+00 -0.00000000000E+00 -0.74505805969E-08  0.93827000000E+00  0.93827000000E+00 0. -1.
     999902    2    1    2    0    0  0.81864772951E-02 -0.22811710341E-01 -0.31298161597E-02  0.10194925638E+01  0.10191996366E+01 0.  0.
     999903    2    3    3    0    0  0.76225679133E-01 -0.86285491556E-01  0.61864628079E-01  0.13220313431E+00  0.19871997936E-01 0.  0.
         14    1    1    2    0    0 -0.81864772951E-02  0.22811710341E-01  0.31298161597E-02  0.24437436207E-01  0.00000000000E+00 0.  1.
     999901    1    3    3    0    0 -0.68039201837E-01  0.63473781216E-01 -0.64994444239E-01  0.88728942948E+00  0.88000000000E+00 0. -1.
        -11    1    4    4    0    0  0.53826056070E-01 -0.68932132378E-01  0.54021046394E-01  0.10279794629E+00  0.51100000000E-03 0.  1.
         11    1    4    4    0    0  0.22399623062E-01 -0.17353359179E-01  0.78435816855E-02  0.29405188025E-01  0.51100000000E-03 0. -1.
</event>
<event>
 8    1  0.1117714E+005  0.1043930E+01  0.7957747E-01            NaN
         13   -1    0    0    0    0  0.00000000000E+00  0.00000000000E+00  0.74505805969E-08  0.10566000000E+00  0.10566000000E+00 0. -1.
     999900   -1    0    0    0    0 -0.00000000000E+00 -0.00000000000E+00 -0.74505805969E-08  0.93827000000E+00  0.93827000000E+00 0. -1.
     999902    2    1    2    0    0 -0.42488978477E-03  0.13643765329E-01  0.17936575920E-01  0.10213899552E+01  0.10211412179E+01 0.  0.
     999903    2    3    3    0    0  0.44238905033E-02  0.85709576727E-01 -0.96839841637E-01  0.13100205217E+00  0.20442123036E-01 0.  0.
         14    1    1    2    0    0  0.42488978477E-03 -0.13643765329E-01 -0.17936575920E-01  0.22540044797E-01  0.00000000000E+00 0.  1.
     999901    1    3    3    0    0 -0.48487802881E-02 -0.72065811398E-01  0.11477641756E+00  0.89038790303E+00  0.88000000000E+00 0.  1.
        -11    1    4    4    0    0 -0.40927220838E-02  0.71373872598E-01 -0.80197695255E-01  0.10743794259E+00  0.51100000000E-03 0. -1.
         11    1    4    4    0    0  0.85166125871E-02  0.14335704129E-01 -0.16642146382E-01  0.23564109575E-01  0.51100000000E-03 0.  1.
</event>
<event>
 8    1  0.1117714E+005  0.1043930E+01  0.7957747E-01            NaN
         13   -1    0    0    0    0  0.00000000000E+00  0.00000000000E+00  0.74505805969E-08  0.10566000000E+00  0.10566000000E+00 0.  1.
     999900   -1    0    0    0    0 -0.00000000000E+00 -0.00000000000E+00 -0.74505805969E-08  0.93827000000E+00  0.93827000000E+00 0.  1.
     999902    2    1    2    0    0  0.12572257831E-01 -0.11134379319E-01  0.16404095266E-01  0.10204538331E+01  0.10201837556E+01 0.  0.
     999903    2    3    3    0    0  0.63585821112E-01 -0.11183326710E+00  0.29115189231E-01  0.13315218117E+00  0.18220121609E-01 0.  0.
         14    1    1    2    0    0 -0.12572257831E-01  0.11134379319E-01 -0.16404095266E-01  0.23476166878E-01  0.00000000000E+00 0. -1.
     999901    1    3    3    0    0 -0.51013563281E-01  0.10069888778E+00 -0.12711093965E-01  0.88730165195E+00  0.88000000000E+00 0.  1.
        -11    1    4    4    0    0  0.22711577740E-01 -0.36211704113E-01  0.18343666630E-01  0.46517249539E-01  0.51100000000E-03 0. -1.
         11    1    4    4    0    0  0.40874243373E-01 -0.75621562984E-01  0.10771522601E-01  0.86634931636E-01  0.51100000000E-03 0.  1.
</event>
<event>
 8    1  0.1117714E+005  0.1043930E+01  0.7957747E-01            NaN
         13   -1    0    0    0    0  0.00000000000E+00  0.00000000000E+00  0.74505805969E-08  0.10566000000E+00  0.10566000000E+00 0. -1.
     999900   -1    0    0    0    0 -0.00000000000E+00 -0.00000000000E+00 -0.74505805969E-08  0.93827000000E+00  0.93827000000E+00 0. -1.
     999902    2    1    2    0    0 -0.21579101454E-01 -0.82180014558E-02  0.46042174043E-02  0.10203844699E+01  0.10201127754E+01 0.  0.
     999903    2    3    3    0    0 -0.58125617032E-01 -0.64781863175E-03 -0.11602278001E+00  0.13137163091E+00  0.20450254371E-01 0.  0.
         14    1    1    2    0    0  0.21579101454E-01  0.82180014558E-02 -0.46042174043E-02  0.23545530051E-01  0.00000000000E+00 0. -1.
     999901    1    3    3    0    0  0.36546515579E-01 -0.75701828240E-02  0.12062699741E+00  0.88901283904E+00  0.88000000000E+00 0.  1.
        -11    1    4    4    0    0 -0.19669373384E-01 -0.99100587802E-02 -0.43534382733E-01  0.48791363122E-01  0.51100000000E-03 0.  1.
         11    1    4    4    0    0 -0.38456243648E-01  0.92622401485E-02 -0.72488397272E-01  0.82580267790E-01  0.51100000000E-03 0. -1.
</event>
<event>
 8    1  0.1117714E+005  0.1043930E+01  0.7957747E-01            NaN
         13   -1    0    0    0    0  0.00000000000E+00  0.00000000000E+00  0.74505805969E-08  0.10566000000E+00  0.10566000000E+00 0.  1.
     999900   -1    0    0    0    0 -0.00000000000E+00 -0.00000000000E+00 -0.74505805969E-08  0.93827000000E+00  0.93827000000E+00 0. -1.
     999902    2    1    2    0    0  0.10530405970E-01  0.17066071677E-01 -0.12189184184E-01  0.10204626511E+01  0.10201927788E+01 0.  0.
     999903    2    3    3    0    0 -0.70778016468E-01  0.69770188758E-01 -0.84697786823E-01  0.13217988028E+00  0.20503629027E-01 0.  0.
         14    1    1    2    0    0 -0.10530405970E-01 -0.17066071677E-01  0.12189184184E-01  0.23467348880E-01  0.00000000000E+00 0.  1.
     999901    1    3    3    0    0  0.81308422438E-01 -0.52704117081E-01  0.72508602639E-01  0.88828277084E+00  0.88000000000E+00 0. -1.
        -11    1    4    4    0    0 -0.26790464222E-01  0.30736348869E-01 -0.47456728723E-01  0.62568796834E-01  0.51100000000E-03 0. -1.
         11    1    4    4    0    0 -0.43987552246E-01  0.39033839889E-01 -0.37241058100E-01  0.69611083445E-01  0.51100000000E-03 0.  1.
</event>
<event>
 8    1  0.1117714E+005  0.1043930E+01  0.7957747E-01            NaN
         13   -1    0    0    0    0  0.00000000000E+00  0.00000000000E+00  0.74505805969E-08  0.10566000000E+00  0.10566000000E+00 0. -1.
     999900   -1    0    0    0    0 -0.00000000000E+00 -0.00000000000E+00 -0.74505805969E-08  0.93827000000E+00  0.93827000000E+00 0. -1.
     999902    2    1    2    0    0 -0.22547448416E-01 -0.13095969546E-02  0.78049182975E-02  0.10200339915E+01  0.10197540510E+01 0.  0.
     999903    2    3    3    0    0 -0.59745883294E-01 -0.18736462693E-01  0.11518475355E+00  0.13255562653E+00  0.19566324915E-01 0.  0.
         14    1    1    2    0    0  0.22547448416E-01  0.13095969546E-02 -0.78049182975E-02  0.23896008535E-01  0.00000000000E+00 0.  1.
     999901    1    3    3    0    0  0.37198434878E-01  0.17426865739E-01 -0.10737983525E+00  0.88747836493E+00  0.88000000000E+00 0.  1.
        -11    1    4    4    0    0 -0.40020117563E-01 -0.18532621761E-01  0.92578717513E-01  0.10254827125E+00  0.51100000000E-03 0. -1.
         11    1    4    4    0    0 -0.19725765732E-01 -0.20384093231E-03  0.22606036034E-01  0.30007355282E-01  0.51100000000E-03 0.  1.
</event>
<event>
 8    1  0.1117714E+005  0.1043930E+01  0.7957747E-01            NaN
         13   -1    0    0    0    0  0.00000000000E+00  0.00000000000E+00  0.74505805969E-08  0.10566000000E+00  0.10566000000E+00 0. -1.
     999900   -1    0    0    0    0 -0.00000000000E+00 -0.00000000000E+00 -0.74505805969E-08  0.93827000000E+00  0.93827000000E+00 0. -1.
     999902    2    1    2    0    0  0.26444163480E-01  0.57279799912E-02  0.86734284016E-02  0.10155164135E+01  0.10151188375E+01 0.  0.
     999903    2    3    3    0    0  0.11650379064E+00  0.29026406533E-01 -0.43312386973E-01  0.12908757930E+00  0.19286647039E-01 0.  0.
         14    1    1    2    0    0 -0.26444163480E-01 -0.57279799912E-02 -0.86734284016E-02  0.28413586489E-01  0.00000000000E+00 0. -1.
     999901    1    3    3    0    0 -0.90059627160E-01 -0.23298426541E-01  0.51985815375E-01  0.88642883421E+00  0.88000000000E+00 0.  1.
        -11    1    4    4    0    0  0.11774848244E-01  0.91378178585E-02 -0.37161594990E-02  0.15369376331E-01  0.51100000000E-03 0. -1.
         11    1    4    4    0    0  0.10472894240E+00  0.19888588674E-01 -0.39596227474E-01  0.11371820297E+00  0.51100000000E-03 0.  1.
</event>
<event>
 8    1  0.1117714E+005  0.1043930E+01  0.7957747E-01            NaN
         13   -1    0    0    0    0  0.00000000000E+00  0.00000000000E+00  0.74505805969E-08  0.10566000000E+00  0.10566000000E+00 0.  1.
     999900   -1    0    0    0    0 -0.00000000000E+00 -0.00000000000E+00 -0.74505805969E-08  0.93827000000E+00  0.93827000000E+00 0.  1.
     999902    2    1    2    0    0 -0.20632332721E-01  0.66124298135E-02 -0.10155096669E-01  0.10200021215E+01  0.10197214249E+01 0.  0.
     999903    2    3    3    0    0  0.35410411534E-01  0.12315366319E+00 -0.13209844171E-01  0.13054611935E+00  0.21143965839E-01 0.  0.
         14    1    1    2    0    0  0.20632332721E-01 -0.66124298135E-02  0.10155096669E-01  0.23927878508E-01  0.00000000000E+00 0.  1.
     999901    1    3    3    0    0 -0.56042744255E-01 -0.11654123338E+00  0.30547475018E-02  0.88945600214E+00  0.88000000000E+00 0. -1.
        -11    1    4    4    0    0  0.13589842075E-01  0.70322226994E-01  0.10457969609E-02  0.71632773431E-01  0.51100000000E-03 0. -1.
         11    1    4    4    0    0  0.21820569459E-01  0.52831436200E-01 -0.14255641132E-01  0.58913345921E-01  0.51100000000E-03 0.  1.
</event>
<event>
 8    1  0.1117714E+005  0.1043930E+01  0.7957747E-01            NaN
         13   -1    0    0    0    0  0.00000000000E+00  0.00000000000E+00  0.74505805969E-08  0.10566000000E+00  0.10566000000E+00 0. -1.
     999900   -1    0    0    0    0 -0.00000000000E+00 -0.00000000000E+00 -0.74505805969E-08  0.93827000000E+00  0.93827000000E+00 0. -1.
     999902    2    1    2    0    0 -0.54771408808E-02  0.20324580261E-01  0.46395124960E-02  0.10223751233E+01  0.10221478758E+01 0.  0.
     999903    2    3    3    0    0  0.82857557926E-01  0.39833974004E-01 -0.93123405059E-01  0.13235196429E+00  0.19823054540E-01 0.  0.
         14    1    1    2    0    0  0.54771408808E-02 -0.20324580261E-01 -0.46395124960E-02  0.21554876738E-01  0.00000000000E+00 0. -1.
     999901    1    3    3    0    0 -0.88334698807E-01 -0.19509393743E-01  0.97762917555E-01  0.89002315897E+00  0.88000000000E+00 0.  1.
        -11    1    4    4    0    0  0.39522748992E-01  0.29899083976E-01 -0.50625448946E-01  0.70846313330E-01  0.51100000000E-03 0.  1.
         11    1    4    4    0    0  0.43334808934E-01  0.99348900274E-02 -0.42497956113E-01  0.61505650960E-01  0.51100000000E-03 0. -1.
</event>
<event>
 8    1  0.1117714E+005  0.1043930E+01  0.7957747E-01            NaN
         13   -1    0    0    0    0  0.00000000000E+00  0.00000000000E+00  0.74505805969E-08  0.10566000000E+00  0.10566000000E+00 0.  1.
     999900   -1    0    0    0    0 -0.00000000000E+00 -0.00000000000E+00 -0.74505805969E-08  0.93827000000E+00  0.93827000000E+00 0. -1.
     999902    2    1    2    0    0 -0.17259373277E-03 -0.78562797985E-02  0.20128830659E-01  0.10223216510E+01  0.10220932626E+01 0.  0.
     999903    2    3    3    0    0  0.72671102015E-01 -0.85132984566E-01 -0.66667852162E-01  0.13169739960E+00  0.19258463610E-01 0.  0.
         14    1    1    2    0    0  0.17259373277E-03  0.78562797985E-02 -0.20128830659E-01  0.21608348955E-01  0.00000000000E+00 0. -1.
     999901    1    3    3    0    0 -0.72843695748E-01  0.77276704768E-01  0.86796682821E-01  0.89062425144E+00  0.88000000000E+00 0.  1.
        -11    1    4    4    0    0  0.20277225644E-01 -0.34527535579E-01 -0.30691432329E-01  0.50453361953E-01  0.51100000000E-03 0. -1.
         11    1    4    4    0    0  0.52393876371E-01 -0.50605448987E-01 -0.35976419834E-01  0.81244037648E-01  0.51100000000E-03 0.  1.
</event>
<event>
 8    1  0.1117714E+005  0.1043930E+01  0.7957747E-01            NaN
         13   -1    0    0    0    0  0.00000000000E+00  0.00000000000E+00  0.74505805969E-08  0.10566000000E+00  0.10566000000E+00 0.  1.
     999900   -1    0    0    0    0 -0.00000000000E+00 -0.00000000000E+00 -0.74505805969E-08  0.93827000000E+00  0.93827000000E+00 0. -1.
     999902    2    1    2    0    0  0.16695975988E-01 -0.10096711732E-02  0.12311361108E-01  0.10231611613E+01  0.10229503494E+01 0.  0.
     999903    2    3    3    0    0  0.36739869064E-01 -0.11972648678E-01 -0.12502440942E+00  0.13221612458E+00  0.18890165526E-01 0.  0.
         14    1    1    2    0    0 -0.16695975988E-01  0.10096711732E-02 -0.12311361108E-01  0.20768838735E-01  0.00000000000E+00 0. -1.
     999901    1    3    3    0    0 -0.20043893076E-01  0.10962977505E-01  0.13733577053E+00  0.89094503668E+00  0.88000000000E+00 0.  1.
        -11    1    4    4    0    0  0.15423659503E-01 -0.14945140231E-01 -0.62721834636E-01  0.66298839734E-01  0.51100000000E-03 0. -1.
         11    1    4    4    0    0  0.21316209561E-01  0.29724915528E-02 -0.62302574782E-01  0.65917284847E-01  0.51100000000E-03 0.  1.
</event>
<event>
 8    1  0.1117714E+005  0.1043930E+01  0.7957747E-01            NaN
         13   -1    0    0    0    0  0.00000000000E+00  0.00000000000E+00  0.74505805969E-08  0.10566000000E+00  0.10566000000E+00 0.  1.
     999900   -1    0    0    0    0 -0.00000000000E+00 -0.00000000000E+00 -0.74505805969E-08  0.93827000000E+00  0.93827000000E+00 0.  1.
     999902    2    1    2    0    0  0.15493553593E-02 -0.19653464179E-01  0.74774934245E-02  0.10228451224E+01  0.10226277780E+01 0.  0.
     999903    2    3    3    0    0 -0.33401865265E-01 -0.10774538187E+00 -0.69950944268E-01  0.13437625025E+00  0.20954477097E-01 0.  0.
         14    1    1    2    0    0 -0.15493553593E-02  0.19653464179E-01 -0.74774934245E-02  0.21084877618E-01  0.00000000000E+00 0.  1.
     999901    1    3    3    0    0  0.34951220624E-01  0.88091917687E-01  0.77428437693E-01  0.88846887213E+00  0.88000000000E+00 0. -1.
        -11    1    4    4    0    0 -0.35919832058E-02 -0.17096254315E-01 -0.28208363495E-02  0.17703177502E-01  0.51100000000E-03 0.  1.
         11    1    4    4    0    0 -0.29809882059E-01 -0.90649127551E-01 -0.67130107919E-01  0.11667307275E+00  0.51100000000E-03 0. -1.
</event>
<event>
 8    1  0.1292717E+005  0.1043930E+01  0.7957747E-01            NaN
         13   -1    0    0    0    0  0.00000000000E+00  0.00000000000E+00  0.74505805969E-08  0.10566000000E+00  0.10566000000E+00 0.  1.
     999900   -1    0    0    0    0 -0.00000000000E+00 -0.00000000000E+00 -0.74505805969E-08  0.93827000000E+00  0.93827000000E+00 0.  1.
     999902    2    1    2    0    0  0.98490884341E-02  0.21609600461E-01  0.79461502851E-03  0.10201684599E+01  0.10198916981E+01 0.  0.
     999903    2    3    3    0    0  0.12457979618E+00 -0.16091361436E-01  0.32321410789E-01  0.13136114856E+00  0.20785096308E-01 0.  0.
         14    1    1    2    0    0 -0.98490884341E-02 -0.21609600461E-01 -0.79461502851E-03  0.23761540104E-01  0.00000000000E+00 0. -1.
     999901    1    3    3    0    0 -0.11473070774E+00  0.37700961897E-01 -0.31526795761E-01  0.88880731133E+00  0.88000000000E+00 0.  1.
        -11    1    4    4    0    0  0.77815972096E-01 -0.95103213421E-02  0.30431890774E-01  0.84095973877E-01  0.51100000000E-03 0.  1.
         11    1    4    4    0    0  0.46763824080E-01 -0.65810400934E-02  0.18895200157E-02  0.47265174687E-01  0.51100000000E-03 0. -1.
</event>
<event>
 8    1  0.1117714E+005  0.1043930E+01  0.7957747E-01            NaN
         13   -1    0    0    0    0  0.00000000000E+00  0.00000000000E+00  0.74505805969E-08  0.10566000000E+00  0.10566000000E+00 0.  1.
     999900   -1    0    0    0    0 -0.00000000000E+00 -0.00000000000E+00 -0.74505805969E-08  0.93827000000E+00  0.93827000000E+00 0.  1.
     999902    2    1    2    0    0  0.25242334331E-02  0.21547163561E-01  0.11303424334E-01  0.10194673874E+01  0.10191738491E+01 0.  0.
     999903    2    3    3    0    0  0.95903914925E-01  0.83210192629E-01  0.30561135273E-01  0.13217208512E+00  0.20346499488E-01 0.  0.
         14    1    1    2    0    0 -0.25242334331E-02 -0.21547163561E-01 -0.11303424334E-01  0.24462612567E-01  0.00000000000E+00 0.  1.
     999901    1    3    3    0    0 -0.93379681492E-01 -0.61663029068E-01 -0.19257710938E-01  0.88729530231E+00  0.88000000000E+00 0.  1.
        -11    1    4    4    0    0  0.33704515461E-01  0.23987406483E-01  0.18948115675E-01  0.45504749651E-01  0.51100000000E-03 0. -1.
         11    1    4    4    0    0  0.62199399465E-01  0.59222786146E-01  0.11613019598E-01  0.86667335472E-01  0.51100000000E-03 0.  1.
</event>
<event>
 8    1  0.1117714E+005  0.1043930E+01  0.7957747E-01            NaN
         13   -1    0    0    0    0  0.00000000000E+00  0.00000000000E+00  0.74505805969E-08  0.10566000000E+00  0.10566000000E+00 0.  1.
     999900   -1    0    0    0    0 -0.00000000000E+00 -0.00000000000E+00 -0.74505805969E-08  0.93827000000E+00  0.93827000000E+00 0. -1.
     999902    2    1    2    0    0 -0.14385771748E-01 -0.17097147456E-01  0.90666812409E-02  0.10198163609E+01  0.10195312366E+01 0.  0.
     999903    2    3    3    0    0  0.12505053178E+00  0.16692317801E-01  0.10015862765E-01  0.12819698495E+00  0.20442124931E-01 0.  0.
         14    1    1    2    0    0  0.14385771748E-01  0.17097147456E-01 -0.90666812409E-02  0.24113639058E-01  0.00000000000E+00 0. -1.
     999901    1    3    3    0    0 -0.13943630352E+00 -0.33789465256E-01 -0.94918152435E-03  0.89161937599E+00  0.88000000000E+00 0. -1.
        -11    1    4    4    0    0  0.38534506754E-01 -0.35846423144E-02  0.66497819182E-02  0.39271345684E-01  0.51100000000E-03 0.  1.
         11    1    4    4    0    0  0.86516025022E-01  0.20276960115E-01  0.33660808471E-02  0.88925639263E-01  0.51100000000E-03 0. -1.
</event>
<event>
 8    1  0.1117714E+005  0.1043930E+01  0.7957747E-01            NaN
         13   -1    0    0    0    0  0.00000000000E+00  0.00000000000E+00  0.74505805969E-08  0.10566000000E+00  0.10566000000E+00 0.  1.
     999900   -1    0    0    0    0 -0.00000000000E+00 -0.00000000000E+00 -0.74505805969E-08  0.93827000000E+00  0.93827000000E+00 0.  1.
     999902    2    1    2    0    0 -0.31079096265E-02 -0.19666662845E-01  0.11299213453E-01  0.10210365740E+01  0.10207798864E+01 0.  0.
     999903    2    3    3    0    0  0.76944198973E-01  0.10239925500E+00  0.11441912479E-01  0.12901165912E+00  0.10347639665E-01 0.  0.
         14    1    1    2    0    0  0.31079096265E-02  0.19666662845E-01 -0.11299213453E-01  0.22893426008E-01  0.00000000000E+00 0.  1.
     999901    1    3    3    0    0 -0.80052108600E-01 -0.12206591785E+00 -0.14269902630E-03  0.89202491487E+00  0.88000000000E+00 0.  1.
        -11    1    4    4    0    0  0.59239972348E-01  0.71395593589E-01  0.71581257644E-02  0.93049476050E-01  0.51100000000E-03 0. -1.
         11    1    4    4    0    0  0.17704226626E-01  0.31003661414E-01  0.42837867149E-02  0.35962183070E-01  0.51100000000E-03 0.  1.
</event>
<event>
 8    1  0.1117714E+005  0.1043930E+01  0.7957747E-01            NaN
         13   -1    0    0    0    0  0.00000000000E+00  0.00000000000E+00  0.74505805969E-08  0.10566000000E+00  0.10566000000E+00 0. -1.
     999900   -1    0    0    0    0 -0.00000000000E+00 -0.00000000000E+00 -0.74505805969E-08  0.93827000000E+00  0.93827000000E+00 0.  1.
     999902    2    1    2    0    0  0.27719711482E-04 -0.24389467148E-01  0.24861431195E-02  0.10194141320E+01  0.10191192986E+01 0.  0.
     999903    2    3    3    0    0  0.70988536172E-01 -0.65928738522E-01 -0.86081991886E-01  0.13115444977E+00  0.20134784237E-01 0.  0.
         14    1    1    2    0    0 -0.27719711482E-04  0.24389467148E-01 -0.24861431195E-02  0.24515867999E-01  0.00000000000E+00 0.  1.
     999901    1    3    3    0    0 -0.70960816461E-01  0.41539271374E-01  0.88568135006E-01  0.88825968223E+00  0.88000000000E+00 0. -1.
        -11    1    4    4    0    0  0.10840558907E-01 -0.21485347660E-01 -0.23436874164E-01  0.33595923459E-01  0.51100000000E-03 0. -1.
         11    1    4    4    0    0  0.60147977266E-01 -0.44443390862E-01 -0.62645117722E-01  0.97558526310E-01  0.51100000000E-03 0.  1.
</event>
<event>
 8    1  0.1117714E+005  0.1043930E+01  0.7957747E-01            NaN
         13   -1    0    0    0    0  0.00000000000E+00  0.00000000000E+00  0.74505805969E-08  0.10566000000E+00  0.10566000000E+00 0. -1.
     999900   -1    0    0    0    0 -0.00000000000E+00 -0.00000000000E+00 -0.74505805969E-08  0.93827000000E+00  0.93827000000E+00 0.  1.
     999902    2    1    2    0    0 -0.14807536341E-01  0.27412596260E-02 -0.18283966718E-01  0.10202428500E+01  0.10199678386E+01 0.  0.
     999903    2    3    3    0    0 -0.11585548277E+00  0.48119070874E-01 -0.39617124789E-01  0.13304223183E+00  0.19818703337E-01 0.  0.
         14    1    1    2    0    0  0.14807536341E-01 -0.27412596260E-02  0.18283966718E-01  0.23687150014E-01  0.00000000000E+00 0. -1.
     999901    1    3    3    0    0  0.10104794643E+00 -0.45377811248E-01  0.21333158070E-01  0.88720061816E+00  0.88000000000E+00 0.  1.
        -11    1    4    4    0    0 -0.29997226403E-01  0.16810172545E-01 -0.19246262235E-01  0.39409329148E-01  0.51100000000E-03 0. -1.
         11    1    4    4    0    0 -0.85858256371E-01  0.31308898329E-01 -0.20370862554E-01  0.93632902677E-01  0.51100000000E-03 0.  1.
</event>
<event>
 8    1  0.1117714E+005  0.1043930E+01  0.7957747E-01            NaN
         13   -1    0    0    0    0  0.00000000000E+00  0.00000000000E+00  0.74505805969E-08  0.10566000000E+00  0.10566000000E+00 0.  1.
     999900   -1    0    0    0    0 -0.00000000000E+00 -0.00000000000E+00 -0.74505805969E-08  0.93827000000E+00  0.93827000000E+00 0.  1.
     999902    2    1    2    0    0  0.45063709292E-03 -0.58205856965E-03  0.21948914572E-01  0.10219687451E+01  0.10217327533E+01 0.  0.
     999903    2    3    3    0    0  0.12008009975E+00  0.49126156985E-01 -0.10119302164E-01  0.13190667673E+00  0.21549047137E-01 0.  0.
         14    1    1    2    0    0 -0.45063709292E-03  0.58205856965E-03 -0.21948914572E-01  0.21961254902E-01  0.00000000000E+00 0. -1.
     999901    1    3    3    0    0 -0.11962946266E+00 -0.49708215555E-01  0.32068216737E-01  0.89006206837E+00  0.88000000000E+00 0.  1.
        -11    1    4    4    0    0  0.17895789003E-01  0.11929954679E-01  0.50780238910E-02  0.22104988810E-01  0.51100000000E-03 0.  1.
         11    1    4    4    0    0  0.10218431075E+00  0.37196202307E-01 -0.15197326055E-01  0.10980168792E+00  0.51100000000E-03 0. -1.
</event>
<event>
 8    1  0.1117714E+005  0.1043930E+01  0.7957747E-01            NaN
         13   -1    0    0    0    0  0.00000000000E+00  0.00000000000E+00  0.74505805969E-08  0.10566000000E+00  0.10566000000E+00 0. -1.
     999900   -1    0    0    0    0 -0.00000000000E+00 -0.00000000000E+00 -0.74505805969E-08  0.93827000000E+00  0.93827000000E+00 0.  1.
     999902    2    1    2    0    0 -0.51599550288E-02 -0.84100857326E-03 -0.22800025223E-01  0.10205382583E+01  0.10202701422E+01 0.  0.
     999903    2    3    3    0    0  0.10210757319E+00 -0.37797315922E-01  0.66207538148E-01  0.12880150473E+00  0.18756223514E-01 0.  0.
         14    1    1    2    0    0  0.51599550288E-02  0.84100857326E-03  0.22800025223E-01  0.23391741737E-01  0.00000000000E+00 0. -1.
     999901    1    3    3    0    0 -0.10726752822E+00  0.36956307348E-01 -0.89007563371E-01  0.89173675353E+00  0.88000000000E+00 0.  1.
        -11    1    4    4    0    0  0.89987623668E-01 -0.33496495471E-01  0.50488960601E-01  0.10848586952E+00  0.51100000000E-03 0. -1.
         11    1    4    4    0    0  0.12119949519E-01 -0.43008204512E-02  0.15718577547E-01  0.20315635210E-01  0.51100000000E-03 0.  1.
</event>
<event>
 8    1  0.1117714E+005  0.1043930E+01  0.7957747E-01            NaN
         13   -1    0    0    0    0  0.00000000000E+00  0.00000000000E+00  0.74505805969E-08  0.10566000000E+00  0.10566000000E+00 0. -1.
     999900   -1    0    0    0    0 -0.00000000000E+00 -0.00000000000E+00 -0.74505805969E-08  0.93827000000E+00  0.93827000000E+00 0.  1.
     999902    2    1    2    0    0 -0.16105603496E-01 -0.70806264458E-02  0.13926820709E-01  0.10214915939E+01  0.10212451196E+01 0.  0.
     999903    2    3    3    0    0 -0.56193018322E-01  0.11037597456E+00 -0.38348354598E-01  0.13124682533E+00  0.20362263873E-01 0.  0.
         14    1    1    2    0    0  0.16105603496E-01  0.70806264458E-02 -0.13926820709E-01  0.22438406135E-01  0.00000000000E+00 0.  1.
     999901    1    3    3    0    0  0.40087414826E-01 -0.11745660101E+00  0.52275175307E-01  0.89024476853E+00  0.88000000000E+00 0.  1.
        -11    1    4    4    0    0 -0.49024903684E-02  0.19202830682E-01  0.81927593242E-05  0.19825345044E-01  0.51100000000E-03 0.  1.
         11    1    4    4    0    0 -0.51290527953E-01  0.91173143882E-01 -0.38356547357E-01  0.11142148029E+00  0.51100000000E-03 0. -1.
</event>
<event>
 8    1  0.1117714E+005  0.1043930E+01  0.7957747E-01            NaN
         13   -1    0    0    0    0  0.00000000000E+00  0.00000000000E+00  0.74505805969E-08  0.10566000000E+00  0.10566000000E+00 0. -1.
     999900   -1    0    0    0    0 -0.00000000000E+00 -0.00000000000E+00 -0.74505805969E-08  0.93827000000E+00  0.93827000000E+00 0.  1.
     999902    2    1    2    0    0 -0.35240932048E-02  0.21281072761E-01  0.12990398854E-02  0.10223200302E+01  0.10220916071E+01 0.  0.
     999903    2    3    3    0    0  0.12583772294E+00  0.29284768050E-01  0.22044931198E-01  0.13258471526E+00  0.19999939357E-01 0.  0.
         14    1    1    2    0    0  0.35240932048E-02 -0.21281072761E-01 -0.12990398854E-02  0.21609969815E-01  0.00000000000E+00 0. -1.
     999901    1    3    3    0    0 -0.12936181615E+00 -0.80036952888E-02 -0.20745891312E-01  0.88973531492E+00  0.88000000000E+00 0.  1.
        -11    1    4    4    0    0  0.10073268300E+00  0.19963937853E-01  0.24840571781E-01  0.10565485017E+00  0.51100000000E-03 0.  1.
         11    1    4    4    0    0  0.25105039947E-01  0.93208301970E-02 -0.27956405831E-02  0.26929865087E-01  0.51100000000E-03 0. -1.
</event>
<event>
 8    1  0.1117714E+005  0.1043930E+01  0.7957747E-01            NaN
         13   -1    0    0    0    0  0.00000000000E+00  0.00000000000E+00  0.74505805969E-08  0.10566000000E+00  0.10566000000E+00 0.  1.
     999900   -1    0    0    0    0 -0.00000000000E+00 -0.00000000000E+00 -0.74505805969E-08  0.93827000000E+00  0.93827000000E+00 0. -1.
     999902    2    1    2    0    0 -0.19273413939E-02  0.17697894706E-01  0.90760218922E-02  0.10239474002E+01  0.10237523988E+01 0.  0.
     999903    2    3    3    0    0 -0.59561276550E-01  0.12020399717E+00 -0.84317835698E-02  0.13595207656E+00  0.20379537502E-01 0.  0.
         14    1    1    2    0    0  0.19273413939E-02 -0.17697894706E-01 -0.90760218922E-02  0.19982599813E-01  0.00000000000E+00 0. -1.
     999901    1    3    3    0    0  0.57633935156E-01 -0.10250610246E+00  0.17507805462E-01  0.88799532362E+00  0.88000000000E+00 0.  1.
        -11    1    4    4    0    0 -0.35091637402E-01  0.75942490975E-01  0.43888462283E-02  0.83774745856E-01  0.51100000000E-03 0.  1.
         11    1    4    4    0    0 -0.24469639148E-01  0.44261506193E-01 -0.12820629798E-01  0.52177330709E-01  0.51100000000E-03 0. -1.
</event>
<event>
 8    1  0.1117714E+005  0.1043930E+01  0.7957747E-01            NaN
         13   -1    0    0    0    0  0.00000000000E+00  0.00000000000E+00  0.74505805969E-08  0.10566000000E+00  0.10566000000E+00 0. -1.
     999900   -1    0    0    0    0 -0.00000000000E+00 -0.00000000000E+00 -0.74505805969E-08  0.93827000000E+00  0.93827000000E+00 0. -1.
     999902    2    1    2    0    0 -0.65557960583E-02  0.16770916319E-01  0.11108350211E-01  0.10227725535E+01  0.10225536948E+01 0.  0.
     999903    2    3    3    0    0 -0.73673448962E-01  0.90873378537E-01  0.65458228709E-01  0.13544518243E+00  0.19361552851E-01 0.  0.
         14    1    1    2    0    0  0.65557960583E-02 -0.16770916319E-01 -0.11108350211E-01  0.21157446456E-01  0.00000000000E+00 0.  1.
     999901    1    3    3    0    0  0.67117652903E-01 -0.74102462218E-01 -0.54349878498E-01  0.88732737112E+00  0.88000000000E+00 0.  1.
        -11    1    4    4    0    0 -0.24618983252E-01  0.44597377603E-01  0.24347043221E-01  0.56462908710E-01  0.51100000000E-03 0.  1.
         11    1    4    4    0    0 -0.49054465710E-01  0.46276000934E-01  0.41111185488E-01  0.78982273719E-01  0.51100000000E-03 0. -1.
</event>
<event>
 8    1  0.1117714E+005  0.1043930E+01  0.7957747E-01            NaN
         13   -1    0    0    0    0  0.00000000000E+00  0.00000000000E+00  0.74505805969E-08  0.10566000000E+00  0.10566000000E+00 0. -1.
     999900   -1    0    0    0    0 -0.00000000000E+00 -0.00000000000E+00 -0.74505805969E-08  0.93827000000E+00  0.93827000000E+00 0. -1.
     999902    2    1    2    0    0 -0.49289349873E-02  0.23720441180E-01  0.17488361166E-02  0.10196398341E+01  0.10193504693E+01 0.  0.
     999903    2    3    3    0    0 -0.66918891852E-01 -0.10572123526E+00  0.16306327058E-01  0.12789445406E+00  0.20880071955E-01 0.  0.
         14    1    1    2    0    0  0.49289349873E-02 -0.23720441180E-01 -0.17488361166E-02  0.24290165862E-01  0.00000000000E+00 0. -1.
     999901    1    3    3    0    0  0.61989956865E-01  0.12944167644E+00 -0.14557490942E-01  0.89174538008E+00  0.88000000000E+00 0. -1.
        -11    1    4    4    0    0 -0.26944688153E-01 -0.25018408589E-01  0.37913363834E-02  0.36967179235E-01  0.51100000000E-03 0. -1.
         11    1    4    4    0    0 -0.39974203699E-01 -0.80702826671E-01  0.12514990675E-01  0.90927274823E-01  0.51100000000E-03 0.  1.
</event>
<event>
 8    1  0.1117714E+005  0.1043930E+01  0.7957747E-01            NaN
         13   -1    0    0    0    0  0.00000000000E+00  0.00000000000E+00  0.74505805969E-08  0.10566000000E+00  0.10566000000E+00 0.  1.
     999900   -1    0    0    0    0 -0.00000000000E+00 -0.00000000000E+00 -0.74505805969E-08  0.93827000000E+00  0.93827000000E+00 0.  1.
     999902    2    1    2    0    0  0.22274051207E-01 -0.10729934403E-02  0.64019431322E-02  0.10207293632E+01  0.10204656601E+01 0.  0.
     999903    2    3    3    0    0  0.11027197314E+00  0.62883416589E-01 -0.34667535307E-01  0.13308035672E+00  0.19857270654E-01 0.  0.
         14    1    1    2    0    0 -0.22274051207E-01  0.10729934403E-02 -0.64019431322E-02  0.23200636801E-01  0.00000000000E+00 0. -1.
     999901    1    3    3    0    0 -0.87997921932E-01 -0.63956410029E-01  0.41069478439E-01  0.88764900648E+00  0.88000000000E+00 0. -1.
        -11    1    4    4    0    0  0.56256760639E-01  0.40763164668E-01 -0.12217604041E-01  0.70540695211E-01  0.51100000000E-03 0.  1.
         11    1    4    4    0    0  0.54015212500E-01  0.22120251921E-01 -0.22449931266E-01  0.62539661506E-01  0.51100000000E-03 0. -1.
</event>
<event>
 8    1  0.1117714E+005  0.1043930E+01  0.7957747E-01            NaN
         13   -1    0    0    0    0  0.00000000000E+00  0.00000000000E+00  0.74505805969E-08  0.10566000000E+00  0.10566000000E+00 0. -1.
     999900   -1    0    0    0    0 -0.00000000000E+00 -0.00000000000E+00 -0.74505805969E-08  0.93827000000E+00  0.93827000000E+00 0.  1.
     999902    2    1    2    0    0 -0.27391816931E-02 -0.21590468146E-01  0.78852129166E-02  0.10207820408E+01  0.10205195475E+01 0.  0.
     999903    2    3    3    0    0  0.10992088222E+00 -0.11135158935E-01 -0.66664177644E-01  0.13041177227E+00  0.18881886902E-01 0.  0.
         14    1    1    2    0    0  0.27391816931E-02  0.21590468146E-01 -0.78852129166E-02  0.23147959172E-01  0.00000000000E+00 0.  1.
     999901    1    3    3    0    0 -0.11266006392E+00 -0.10455309211E-01  0.74549390561E-01  0.89037026855E+00  0.88000000000E+00 0. -1.
        -11    1    4    4    0    0  0.95418320042E-01 -0.13169797456E-01 -0.51116834768E-01  0.10904719750E+00  0.51100000000E-03 0.  1.
         11    1    4    4    0    0  0.14502562182E-01  0.20346385213E-02 -0.15547342877E-01  0.21364574774E-01  0.51100000000E-03 0. -1.
</event>
<event>
 8    1  0.1117714E+005  0.1043930E+01  0.7957747E-01            NaN
         13   -1    0    0    0    0  0.00000000000E+00  0.00000000000E+00  0.74505805969E-08  0.10566000000E+00  0.10566000000E+00 0.  1.
     999900   -1    0    0    0    0 -0.00000000000E+00 -0.00000000000E+00 -0.74505805969E-08  0.93827000000E+00  0.93827000000E+00 0.  1.
     999902    2    1    2    0    0  0.47607727580E-02 -0.20613629113E-01 -0.97500235258E-02  0.10206351589E+01  0.10203692851E+01 0.  0.
     999903    2    3    3    0    0 -0.10161645116E+00 -0.61782648580E-01  0.51497224491E-01  0.13116215352E+00  0.20212559814E-01 0.  0.
         14    1    1    2    0    0 -0.47607727580E-02  0.20613629113E-01  0.97500235258E-02  0.23294841086E-01  0.00000000000E+00 0.  1.
     999901    1    3    3    0    0  0.10637722392E+00  0.41169019467E-01 -0.61247248017E-01  0.88947300539E+00  0.88000000000E+00 0. -1.
        -11    1    4    4    0    0 -0.50205051415E-01 -0.28639261890E-01  0.35868879648E-01  0.68026407795E-01  0.51100000000E-03 0. -1.
         11    1    4    4    0    0 -0.51411399745E-01 -0.33143386689E-01  0.15628344843E-01  0.63135745727E-01  0.51100000000E-03 0.  1.
</event>
<event>
 8    1  0.1117714E+005  0.1043930E+01  0.7957747E-01            NaN
         13   -1    0    0    0    0  0.00000000000E+00  0.00000000000E+00  0.74505805969E-08  0.10566000000E+00  0.10566000000E+00 0.  1.
     999900   -1    0    0    0    0 -0.00000000000E+00 -0.00000000000E+00 -0.74505805969E-08  0.93827000000E+00  0.93827000000E+00 0.  1.
     999902    2    1    2    0    0 -0.21714697991E-01  0.88801695112E-02 -0.24579126125E-02  0.10203412982E+01  0.10200685947E+01 0.  0.
     999903    2    3    3    0    0 -0.89574146952E-01 -0.42644271908E-01 -0.85290388213E-01  0.13235430959E+00  0.20028759764E-01 0.  0.
         14    1    1    2    0    0  0.21714697991E-01 -0.88801695112E-02  0.24579126125E-02  0.23588701825E-01  0.00000000000E+00 0. -1.
     999901    1    3    3    0    0  0.67859448961E-01  0.51524441419E-01  0.82832475600E-01  0.88798698858E+00  0.88000000000E+00 0. -1.
        -11    1    4    4    0    0 -0.19312708452E-01 -0.16187240045E-01 -0.29589167694E-01  0.38868848888E-01  0.51100000000E-03 0.  1.
         11    1    4    4    0    0 -0.70261438499E-01 -0.26457031863E-01 -0.55701220519E-01  0.93485460705E-01  0.51100000000E-03 0. -1.
</event>
<event>
 8    1  0.1117714E+005  0.1043930E+01  0.7957747E-01            NaN
         13   -1    0    0    0    0  0.00000000000E+00  0.00000000000E+00  0.74505805969E-08  0.10566000000E+00  0.10566000000E+00 0.  1.
     999900   -1    0    0    0    0 -0.00000000000E+00 -0.00000000000E+00 -0.74505805969E-08  0.93827000000E+00  0.93827000000E+00 0.  1.
     999902    2    1    2    0    0  0.12761584490E-01 -0.14072142478E-01  0.19502474449E-01  0.10167044653E+01  0.10163398742E+01 0.  0.
     999903    2    3    3    0    0 -0.77334683703E-01  0.95678078146E-01  0.13778844049E-01  0.12530376500E+00  0.19396624405E-01 0.  0.
         14    1    1    2    0    0 -0.12761584490E-01  0.14072142478E-01 -0.19502474449E-01  0.27225534747E-01  0.00000000000E+00 0. -1.
     999901    1    3    3    0    0  0.90096268193E-01 -0.10975022062E+00  0.57236304000E-02  0.89140070025E+00  0.88000000000E+00 0.  1.
        -11    1    4    4    0    0 -0.42009509903E-01  0.43420826719E-01 -0.13582612383E-02  0.60434039331E-01  0.51100000000E-03 0. -1.
         11    1    4    4    0    0 -0.35325173799E-01  0.52257251428E-01  0.15137105287E-01  0.64869725668E-01  0.51100000000E-03 0.  1.
</event>
<event>
 8    1  0.1117714E+005  0.1043930E+01  0.7957747E-01            NaN
         13   -1    0    0    0    0  0.00000000000E+00  0.00000000000E+00  0.74505805969E-08  0.10566000000E+00  0.10566000000E+00 0.  1.
     999900   -1    0    0    0    0 -0.00000000000E+00 -0.00000000000E+00 -0.74505805969E-08  0.93827000000E+00  0.93827000000E+00 0.  1.
     999902    2    1    2    0    0 -0.14081234334E-03 -0.12606645382E-01 -0.19873126372E-01  0.10203951644E+01  0.10201237195E+01 0.  0.
     999903    2    3    3    0    0 -0.96481924597E-01  0.62854210097E-01  0.54132987940E-01  0.12884995769E+00  0.20310532037E-01 0.  0.
         14    1    1    2    0    0  0.14081234334E-03  0.12606645382E-01  0.19873126372E-01  0.23534835621E-01  0.00000000000E+00 0.  1.
     999901    1    3    3    0    0  0.96341112254E-01 -0.75460855479E-01 -0.74006114312E-01  0.89154520669E+00  0.88000000000E+00 0.  1.
        -11    1    4    4    0    0 -0.89784396162E-01  0.63725816039E-01  0.50078980059E-01  0.12095611927E+00  0.51100000000E-03 0.  1.
         11    1    4    4    0    0 -0.66975284354E-02 -0.87160594159E-03  0.40540078808E-02  0.78938384173E-02  0.51100000000E-03 0. -1.
</event>
<event>
 8    1  0.1117714E+005  0.1043930E+01  0.7957747E-01            NaN
         13   -1    0    0    0    0  0.00000000000E+00  0.00000000000E+00  0.74505805969E-08  0.10566000000E+00  0.10566000000E+00 0. -1.
     999900   -1    0    0    0    0 -0.00000000000E+00 -0.00000000000E+00 -0.74505805969E-08  0.93827000000E+00  0.93827000000E+00 0. -1.
     999902    2    1    2    0    0  0.46183577002E-02 -0.19064432896E-01  0.13139378287E-01  0.10203201484E+01  0.10200469500E+01 0.  0.
     999903    2    3    3    0    0 -0.49302005329E-01 -0.10147228362E+00  0.67917155813E-01  0.13313411139E+00  0.19612228061E-01 0.  0.
         14    1    1    2    0    0 -0.46183577002E-02  0.19064432896E-01 -0.13139378287E-01  0.23609851572E-01  0.00000000000E+00 0.  1.
     999901    1    3    3    0    0  0.53920363030E-01  0.82407850720E-01 -0.54777777527E-01  0.88718603704E+00  0.88000000000E+00 0. -1.
        -11    1    4    4    0    0 -0.23295316892E-01 -0.49576631304E-01  0.21652023001E-01  0.58903186514E-01  0.51100000000E-03 0. -1.
         11    1    4    4    0    0 -0.26006688438E-01 -0.51895652312E-01  0.46265132813E-01  0.74230924873E-01  0.51100000000E-03 0.  1.
</event>
<event>
 8    1  0.1117714E+005  0.1043930E+01  0.7957747E-01            NaN
         13   -1    0    0    0    0  0.00000000000E+00  0.00000000000E+00  0.74505805969E-08  0.10566000000E+00  0.10566000000E+00 0.  1.
     999900   -1    0    0    0    0 -0.00000000000E+00 -0.00000000000E+00 -0.74505805969E-08  0.93827000000E+00  0.93827000000E+00 0.  1.
     999902    2    1    2    0    0  0.16751730592E-01 -0.13185879326E-01 -0.14556710902E-02  0.10225616386E+01  0.10223383480E+01 0.  0.
     999903    2    3    3    0    0  0.27847787664E-01 -0.21914197083E-04  0.12854403022E+00  0.13284464155E+00  0.18671671716E-01 0.  0.
         14    1    1    2    0    0 -0.16751730592E-01  0.13185879326E-01  0.14556710902E-02  0.21368361419E-01  0.00000000000E+00 0.  1.
     999901    1    3    3    0    0 -0.11096057073E-01 -0.13163965129E-01 -0.12999970131E+00  0.88971699703E+00  0.88000000000E+00 0.  1.
        -11    1    4    4    0    0  0.12966409115E-01  0.48297750147E-02  0.29715880236E-01  0.32783366991E-01  0.51100000000E-03 0. -1.
         11    1    4    4    0    0  0.14881378549E-01 -0.48516892117E-02  0.98828149988E-01  0.10006127456E+00  0.51100000000E-03 0.  1.
</event>
<event>
 7    1  0.1117714E+005  0.1043930E+01  0.7957747E-01            NaN
         13   -1    0    0    0    0  0.00000000000E+00  0.00000000000E+00  0.74505805969E-08  0.10566000000E+00  0.10566000000E+00 0. -1.
     999900   -1    0    0    0    0 -0.00000000000E+00 -0.00000000000E+00 -0.74505805969E-08  0.93827000000E+00  0.93827000000E+00 0.  1.
     999903    2    1    2    0    0  0.80379089759E-01  0.68571456689E-01  0.40632025587E-01  0.11492958318E+00  0.19874728744E-01 0.  0.
         14    1    1    2    0    0  0.70048870497E-02 -0.60408467470E-02  0.37881597384E-01  0.38994559779E-01  0.00000000000E+00 0. -1.
     999901    1    1    2    0    0 -0.87383976808E-01 -0.62530609942E-01 -0.78513622971E-01  0.89000585705E+00  0.88000000000E+00 0.  1.
        -11    1    3    3    0    0  0.34035593065E-01  0.36425918846E-01  0.10374569293E-01  0.50923098571E-01  0.51100000000E-03 0. -1.
         11    1    3    3    0    0  0.46343496694E-01  0.32145537843E-01  0.30257456294E-01  0.64006484605E-01  0.51100000000E-03 0.  1.
</event>
<event>
 8    1  0.1117714E+005  0.1043930E+01  0.7957747E-01            NaN
         13   -1    0    0    0    0  0.00000000000E+00  0.00000000000E+00  0.74505805969E-08  0.10566000000E+00  0.10566000000E+00 0.  1.
     999900   -1    0    0    0    0 -0.00000000000E+00 -0.00000000000E+00 -0.74505805969E-08  0.93827000000E+00  0.93827000000E+00 0.  1.
     999902    2    1    2    0    0 -0.11686621192E-01 -0.84349235568E-02 -0.19772730590E-01  0.10194619407E+01  0.10191682700E+01 0.  0.
     999903    2    3    3    0    0 -0.11286742970E-01 -0.12628565743E+00  0.24173127301E-01  0.13051863892E+00  0.19373104634E-01 0.  0.
         14    1    1    2    0    0  0.11686621192E-01  0.84349235568E-02  0.19772730590E-01  0.24468059287E-01  0.00000000000E+00 0.  1.
     999901    1    3    3    0    0 -0.39987822202E-03  0.11785073387E+00 -0.43945857891E-01  0.88894330179E+00  0.88000000000E+00 0.  1.
        -11    1    4    4    0    0 -0.27270213550E-02 -0.67080626444E-01  0.22021021803E-01  0.70657155418E-01  0.51100000000E-03 0. -1.
         11    1    4    4    0    0 -0.85597216149E-02 -0.59205030984E-01  0.21521054980E-02  0.59861483501E-01  0.51100000000E-03 0.  1.
</event>
<event>
 8    1  0.1117714E+005  0.1043930E+01  0.7957747E-01            NaN
         13   -1    0    0    0    0  0.00000000000E+00  0.00000000000E+00  0.74505805969E-08  0.10566000000E+00  0.10566000000E+00 0.  1.
     999900   -1    0    0    0    0 -0.00000000000E+00 -0.00000000000E+00 -0.74505805969E-08  0.93827000000E+00  0.93827000000E+00 0. -1.
     999902    2    1    2    0    0  0.16261316534E-01  0.12371630106E-01  0.12774806372E-01  0.10198326283E+01  0.10195478931E+01 0.  0.
     999903    2    3    3    0    0 -0.94643286516E-01 -0.82871662864E-01 -0.69102629283E-02  0.12755541921E+00  0.19939133596E-01 0.  0.
         14    1    1    2    0    0 -0.16261316534E-01 -0.12371630106E-01 -0.12774806372E-01  0.24097371739E-01  0.00000000000E+00 0. -1.
     999901    1    3    3    0    0  0.11090460305E+00  0.95243292970E-01  0.19685069300E-01  0.89227720905E+00  0.88000000000E+00 0. -1.
        -11    1    4    4    0    0 -0.70256663218E-01 -0.59413519260E-01  0.37089842207E-02  0.92086821437E-01  0.51100000000E-03 0.  1.
         11    1    4    4    0    0 -0.24386623297E-01 -0.23458143604E-01 -0.10619247149E-01  0.35468597776E-01  0.51100000000E-03 0. -1.
</event>
<event>
 8    1  0.1117714E+005  0.1043930E+01  0.7957747E-01            NaN
         13   -1    0    0    0    0  0.00000000000E+00  0.00000000000E+00  0.74505805969E-08  0.10566000000E+00  0.10566000000E+00 0.  1.
     999900   -1    0    0    0    0 -0.00000000000E+00 -0.00000000000E+00 -0.74505805969E-08  0.93827000000E+00  0.93827000000E+00 0.  1.
     999902    2    1    2    0    0  0.10066655489E-01  0.18839829786E-01 -0.42769401249E-02  0.10221453964E+01  0.10219132264E+01 0.  0.
     999903    2    3    3    0    0  0.11520253777E+00 -0.39018872358E-01  0.48965380763E-01  0.13240614922E+00  0.18430483742E-01 0.  0.
         14    1    1    2    0    0 -0.10066655489E-01 -0.18839829786E-01  0.42769401249E-02  0.21784603644E-01  0.00000000000E+00 0.  1.
     999901    1    3    3    0    0 -0.10513588228E+00  0.57858702144E-01 -0.53242320888E-01  0.88973924713E+00  0.88000000000E+00 0.  1.
        -11    1    4    4    0    0  0.51310901477E-01 -0.26450327172E-01  0.26506041403E-01  0.63523694554E-01  0.51100000000E-03 0.  1.
         11    1    4    4    0    0  0.63891636288E-01 -0.12568545186E-01  0.22459339360E-01  0.68882454668E-01  0.51100000000E-03 0. -1.
</event>
<event>
 8    1  0.1117714E+005  0.1043930E+01  0.7957747E-01            NaN
         13   -1    0    0    0    0  0.00000000000E+00  0.00000000000E+00  0.74505805969E-08  0.10566000000E+00  0.10566000000E+00 0.  1.
     999900   -1    0    0    0    0 -0.00000000000E+00 -0.00000000000E+00 -0.74505805969E-08  0.93827000000E+00  0.93827000000E+00 0.  1.
     999902    2    1    2    0    0 -0.41996941224E-02  0.11445887456E-01 -0.20750185937E-01  0.10198630935E+01  0.10195790865E+01 0.  0.
     999903    2    3    3    0    0 -0.59230189445E-01  0.75720662869E-01 -0.89881669183E-01  0.13310564973E+00  0.19913950076E-01 0.  0.
         14    1    1    2    0    0  0.41996941224E-02 -0.11445887456E-01  0.20750185937E-01  0.24066906465E-01  0.00000000000E+00 0.  1.
     999901    1    3    3    0    0  0.55030495323E-01 -0.64274775412E-01  0.69131483245E-01  0.88675744381E+00  0.88000000000E+00 0. -1.
        -11    1    4    4    0    0 -0.13232749561E-01  0.21019523394E-01 -0.35347299243E-01  0.43204382989E-01  0.51100000000E-03 0.  1.
         11    1    4    4    0    0 -0.45997439884E-01  0.54701139475E-01 -0.54534369939E-01  0.89901266740E-01  0.51100000000E-03 0. -1.
</event>
<event>
 8    1  0.1117714E+005  0.1043930E+01  0.7957747E-01            NaN
         13   -1    0    0    0    0  0.00000000000E+00  0.00000000000E+00  0.74505805969E-08  0.10566000000E+00  0.10566000000E+00 0. -1.
     999900   -1    0    0    0    0 -0.00000000000E+00 -0.00000000000E+00 -0.74505805969E-08  0.93827000000E+00  0.93827000000E+00 0.  1.
     999902    2    1    2    0    0  0.19551657313E-01 -0.29029653014E-02 -0.17596647782E-01  0.10174661279E+01  0.10171219125E+01 0.  0.
     999903    2    3    3    0    0 -0.11186836704E+00  0.39286487531E-01  0.34885843290E-01  0.12516260077E+00  0.19766004193E-01 0.  0.
         14    1    1    2    0    0 -0.19551657313E-01  0.29029653014E-02  0.17596647782E-01  0.26463872060E-01  0.00000000000E+00 0. -1.
     999901    1    3    3    0    0  0.13142002436E+00 -0.42189452833E-01 -0.52482491072E-01  0.89230352717E+00  0.88000000000E+00 0. -1.
        -11    1    4    4    0    0 -0.55567058264E-01  0.29956246988E-01  0.18642196852E-01  0.65824519156E-01  0.51100000000E-03 0. -1.
         11    1    4    4    0    0 -0.56301308780E-01  0.93302405436E-02  0.16243646438E-01  0.59338081613E-01  0.51100000000E-03 0.  1.
</event>
<event>
 8    1  0.1117714E+005  0.1043930E+01  0.7957747E-01            NaN
         13   -1    0    0    0    0  0.00000000000E+00  0.00000000000E+00  0.74505805969E-08  0.10566000000E+00  0.10566000000E+00 0.  1.
     999900   -1    0    0    0    0 -0.00000000000E+00 -0.00000000000E+00 -0.74505805969E-08  0.93827000000E+00  0.93827000000E+00 0.  1.
     999902    2    1    2    0    0  0.76102190999E-02  0.18798461082E-01  0.11938009618E-01  0.10203967544E+01  0.10201253466E+01 0.  0.
     999903    2    3    3    0    0 -0.10161077107E+00  0.44270287427E-01  0.68015094212E-01  0.13150830358E+00  0.19590143479E-01 0.  0.
         14    1    1    2    0    0 -0.76102190999E-02 -0.18798461082E-01 -0.11938009618E-01  0.23533245578E-01  0.00000000000E+00 0. -1.
     999901    1    3    3    0    0  0.10922099017E+00 -0.25471826345E-01 -0.56077084594E-01  0.88888845085E+00  0.88000000000E+00 0.  1.
        -11    1    4    4    0    0 -0.50516646345E-01  0.11865375328E-01  0.27978475589E-01  0.58955702921E-01  0.51100000000E-03 0. -1.
         11    1    4    4    0    0 -0.51094124728E-01  0.32404912099E-01  0.40036618623E-01  0.72552600654E-01  0.51100000000E-03 0.  1.
</event>
<event>
 8    1  0.1117714E+005  0.1043930E+01  0.7957747E-01            NaN
         13   -1    0    0    0    0  0.00000000000E+00  0.00000000000E+00  0.74505805969E-08  0.10566000000E+00  0.10566000000E+00 0.  1.
     999900   -1    0    0    0    0 -0.00000000000E+00 -0.00000000000E+00 -0.74505805969E-08  0.93827000000E+00  0.93827000000E+00 0.  1.
     999902    2    1    2    0    0  0.12178140551E-01  0.13153827152E-01 -0.15581005439E-01  0.10201792525E+01  0.10199027450E+01 0.  0.
     999903    2    3    3    0    0  0.64388368623E-01 -0.82305177764E-01 -0.77048415121E-01  0.13135048835E+00  0.19912011876E-01 0.  0.
         14    1    1    2    0    0 -0.12178140551E-01 -0.13153827152E-01  0.15581005439E-01  0.23750747494E-01  0.00000000000E+00 0.  1.
     999901    1    3    3    0    0 -0.52210228071E-01  0.95459004916E-01  0.61467409682E-01  0.88882876415E+00  0.88000000000E+00 0.  1.
        -11    1    4    4    0    0  0.56538109639E-01 -0.70961715344E-01 -0.57495547485E-01  0.10741565057E+00  0.51100000000E-03 0.  1.
         11    1    4    4    0    0  0.78502589837E-02 -0.11343462420E-01 -0.19552867636E-01  0.23934837780E-01  0.51100000000E-03 0. -1.
</event>
<event>
 8    1  0.1117714E+005  0.1043930E+01  0.7957747E-01            NaN
         13   -1    0    0    0    0  0.00000000000E+00  0.00000000000E+00  0.74505805969E-08  0.10566000000E+00  0.10566000000E+00 0. -1.
     999900   -1    0    0    0    0 -0.00000000000E+00 -0.00000000000E+00 -0.74505805969E-08  0.93827000000E+00  0.93827000000E+00 0. -1.
     999902    2    1    2    0    0  0.15699629676E-01 -0.10814359445E-01 -0.14089000717E-01  0.10202249650E+01  0.10199495333E+01 0.  0.
     999903    2    3    3    0    0 -0.84469606455E-02  0.20086108253E-02  0.12669630452E+00  0.12861519132E+00  0.20359965543E-01 0.  0.
         14    1    1    2    0    0 -0.15699629676E-01  0.10814359445E-01  0.14089000717E-01  0.23705034980E-01  0.00000000000E+00 0. -1.
     999901    1    3    3    0    0  0.24146590322E-01 -0.12822970271E-01 -0.14078530524E+00  0.89160977370E+00  0.88000000000E+00 0. -1.
        -11    1    4    4    0    0  0.46370415615E-02  0.66625776351E-02  0.40917841471E-01  0.41718376848E-01  0.51100000000E-03 0.  1.
         11    1    4    4    0    0 -0.13084002207E-01 -0.46539668098E-02  0.85778463050E-01  0.86896814470E-01  0.51100000000E-03 0. -1.
</event>
<event>
 8    1  0.1117714E+005  0.1043930E+01  0.7957747E-01            NaN
         13   -1    0    0    0    0  0.00000000000E+00  0.00000000000E+00  0.74505805969E-08  0.10566000000E+00  0.10566000000E+00 0. -1.
     999900   -1    0    0    0    0 -0.00000000000E+00 -0.00000000000E+00 -0.74505805969E-08  0.93827000000E+00  0.93827000000E+00 0.  1.
     999902    2    1    2    0    0 -0.70653444218E-02  0.33237589654E-03  0.22665821771E-01  0.10201861789E+01  0.10199098345E+01 0.  0.
     999903    2    3    3    0    0  0.58205977598E-01 -0.31366661729E-01  0.11325414024E+00  0.13256496579E+00  0.19369217206E-01 0.  0.
         14    1    1    2    0    0  0.70653444218E-02 -0.33237589654E-03 -0.22665821771E-01  0.23743821135E-01  0.00000000000E+00 0.  1.
     999901    1    3    3    0    0 -0.65271322020E-01  0.31699037626E-01 -0.90588318474E-01  0.88762121308E+00  0.88000000000E+00 0.  1.
        -11    1    4    4    0    0  0.25549714333E-02 -0.64197738205E-02  0.19737238922E-01  0.20917961091E-01  0.51100000000E-03 0. -1.
         11    1    4    4    0    0  0.55651006165E-01 -0.24946887908E-01  0.93516901323E-01  0.11164700470E+00  0.51100000000E-03 0.  1.
</event>
<event>
 8    1  0.1117714E+005  0.1043930E+01  0.7957747E-01            NaN
         13   -1    0    0    0    0  0.00000000000E+00  0.00000000000E+00  0.74505805969E-08  0.10566000000E+00  0.10566000000E+00 0.  1.
     999900   -1    0    0    0    0 -0.00000000000E+00 -0.00000000000E+00 -0.74505805969E-08  0.93827000000E+00  0.93827000000E+00 0.  1.
     999902    2    1    2    0    0 -0.20736135588E-01 -0.99136207506E-02  0.65744726452E-02  0.10200241244E+01  0.10197439500E+01 0.  0.
     999903    2    3    3    0    0  0.77467632073E-01  0.90849187954E-01 -0.40813670278E-01  0.12758770671E+00  0.18922427229E-01 0.  0.
         14    1    1    2    0    0  0.20736135588E-01  0.99136207506E-02 -0.65744726452E-02  0.23905875556E-01  0.00000000000E+00 0.  1.
     999901    1    3    3    0    0 -0.98203767662E-01 -0.10076280870E+00  0.47388142923E-01  0.89243641773E+00  0.88000000000E+00 0.  1.
        -11    1    4    4    0    0  0.51552445310E-01  0.59948210027E-01 -0.36303084370E-01  0.87003549115E-01  0.51100000000E-03 0. -1.
         11    1    4    4    0    0  0.25915186764E-01  0.30900977927E-01 -0.45105859077E-02  0.40584157599E-01  0.51100000000E-03 0.  1.
</event>
<event>
 8    1  0.1117714E+005  0.1043930E+01  0.7957747E-01            NaN
         13   -1    0    0    0    0  0.00000000000E+00  0.00000000000E+00  0.74505805969E-08  0.10566000000E+00  0.10566000000E+00 0. -1.
     999900   -1    0    0    0    0 -0.00000000000E+00 -0.00000000000E+00 -0.74505805969E-08  0.93827000000E+00  0.93827000000E+00 0.  1.
     999902    2    1    2    0    0 -0.14514148969E-01  0.14781278414E-01  0.12686378837E-01  0.10196382129E+01  0.10193488090E+01 0.  0.
     999903    2    3    3    0    0  0.77824429845E-01  0.68542365759E-01 -0.73977318055E-01  0.12894900561E+00  0.20012612932E-01 0.  0.
         14    1    1    2    0    0  0.14514148969E-01 -0.14781278414E-01 -0.12686378837E-01  0.24291787087E-01  0.00000000000E+00 0.  1.
     999901    1    3    3    0    0 -0.92338578815E-01 -0.53761087344E-01  0.86663696892E-01  0.89068920730E+00  0.88000000000E+00 0. -1.
        -11    1    4    4    0    0  0.32776093567E-01  0.28487962641E-01 -0.19154057901E-01  0.47465517800E-01  0.51100000000E-03 0. -1.
         11    1    4    4    0    0  0.45048336278E-01  0.40054403117E-01 -0.54823260154E-01  0.81483487808E-01  0.51100000000E-03 0.  1.
</event>
<event>
 8    1  0.1117714E+005  0.1043930E+01  0.7957747E-01            NaN
         13   -1    0    0    0    0  0.00000000000E+00  0.00000000000E+00  0.74505805969E-08  0.10566000000E+00  0.10566000000E+00 0.  1.
     999900   -1    0    0    0    0 -0.00000000000E+00 -0.00000000000E+00 -0.74505805969E-08  0.93827000000E+00  0.93827000000E+00 0. -1.
     999902    2    1    2    0    0 -0.76056337803E-02 -0.22256062413E-01 -0.49803105029E-02  0.10198887548E+01  0.10196053602E+01 0.  0.
     999903    2    3    3    0    0 -0.11593309437E+00  0.46264171330E-01  0.29800419998E-01  0.12992271027E+00  0.20272880757E-01 0.  0.
         14    1    1    2    0    0  0.76056337803E-02  0.22256062413E-01  0.49803105029E-02  0.24041245226E-01  0.00000000000E+00 0. -1.
     999901    1    3    3    0    0  0.10832746059E+00 -0.68520233742E-01 -0.34780730501E-01  0.88996604450E+00  0.88000000000E+00 0. -1.
        -11    1    4    4    0    0 -0.56812175491E-01  0.31821298724E-01  0.97587956886E-02  0.65846135428E-01  0.51100000000E-03 0. -1.
         11    1    4    4    0    0 -0.59120918877E-01  0.14442872606E-01  0.20041624309E-01  0.64076574846E-01  0.51100000000E-03 0.  1.
</event>
<event>
 8    1  0.1117714E+005  0.1043930E+01  0.7957747E-01            NaN
         13   -1    0    0    0    0  0.00000000000E+00  0.00000000000E+00  0.74505805969E-08  0.10566000000E+00  0.10566000000E+00 0.  1.
     999900   -1    0    0    0    0 -0.00000000000E+00 -0.00000000000E+00 -0.74505805969E-08  0.93827000000E+00  0.93827000000E+00 0.  1.
     999902    2    1    2    0    0 -0.81022585765E-03  0.13766321391E-01  0.16151190599E-01  0.10226925560E+01  0.10224720216E+01 0.  0.
     999903    2    3    3    0    0 -0.73041979413E-01  0.89286490313E-01  0.67366810466E-01  0.13503059225E+00  0.19691764344E-01 0.  0.
         14    1    1    2    0    0  0.81022585765E-03 -0.13766321391E-01 -0.16151190599E-01  0.21237444016E-01  0.00000000000E+00 0. -1.
     999901    1    3    3    0    0  0.72231753555E-01 -0.75520168922E-01 -0.51215619867E-01  0.88766196373E+00  0.88000000000E+00 0.  1.
        -11    1    4    4    0    0 -0.57582740076E-01  0.64528053275E-01  0.58888008279E-01  0.10463125849E+00  0.51100000000E-03 0. -1.
         11    1    4    4    0    0 -0.15459239337E-01  0.24758437038E-01  0.84788021863E-02  0.30399333758E-01  0.51100000000E-03 0.  1.
</event>
<event>
 8    1  0.1117714E+005  0.1043930E+01  0.7957747E-01            NaN
         13   -1    0    0    0    0  0.00000000000E+00  0.00000000000E+00  0.74505805969E-08  0.10566000000E+00  0.10566000000E+00 0. -1.
     999900   -1    0    0    0    0 -0.00000000000E+00 -0.00000000000E+00 -0.74505805969E-08  0.93827000000E+00  0.93827000000E+00 0. -1.
     999902    2    1    2    0    0  0.17761661065E-01  0.12184300302E-02  0.15011762523E-01  0.10206423597E+01  0.10203766522E+01 0.  0.
     999903    2    3    3    0    0  0.16436246432E-01 -0.12436859735E+00 -0.30886900331E-01  0.13054093549E+00  0.18687884383E-01 0.  0.
         14    1    1    2    0    0 -0.17761661065E-01 -0.12184300302E-02 -0.15011762523E-01  0.23287640275E-01  0.00000000000E+00 0.  1.
     999901    1    3    3    0    0  0.13254146331E-02  0.12558702738E+00  0.45898662854E-01  0.89010142423E+00  0.88000000000E+00 0.  1.
        -11    1    4    4    0    0 -0.28520262748E-02 -0.31303254309E-01 -0.11928545472E-01  0.33624085152E-01  0.51100000000E-03 0. -1.
         11    1    4    4    0    0  0.19288272707E-01 -0.93065343043E-01 -0.18958354859E-01  0.96916850340E-01  0.51100000000E-03 0.  1.
</event>
<event>
 8    1  0.1117714E+005  0.1043930E+01  0.7957747E-01            NaN
         13   -1    0    0    0    0  0.00000000000E+00  0.00000000000E+00  0.74505805969E-08  0.10566000000E+00  0.10566000000E+00 0.  1.
     999900   -1    0    0    0    0 -0.00000000000E+00 -0.00000000000E+00 -0.74505805969E-08  0.93827000000E+00  0.93827000000E+00 0. -1.
     999902    2    1    2    0    0  0.21868139795E-01 -0.94104371598E-02 -0.55012328537E-02  0.10194956916E+01  0.10192028403E+01 0.  0.
     999903    2    3    3    0    0 -0.10419013141E+00 -0.68858735991E-01  0.19575083647E-01  0.12817441974E+00  0.21175197031E-01 0.  0.
         14    1    1    2    0    0 -0.21868139795E-01  0.94104371598E-02  0.55012328537E-02  0.24434308432E-01  0.00000000000E+00 0. -1.
     999901    1    3    3    0    0  0.12605827120E+00  0.59448298831E-01 -0.25076316500E-01  0.89132127183E+00  0.88000000000E+00 0. -1.
        -11    1    4    4    0    0 -0.66537729916E-01 -0.37319243223E-01  0.30559697166E-02  0.76351787726E-01  0.51100000000E-03 0. -1.
         11    1    4    4    0    0 -0.37652401494E-01 -0.31539492768E-01  0.16519113930E-01  0.51822632009E-01  0.51100000000E-03 0.  1.
</event>
<event>
 8    1  0.1117714E+005  0.1043930E+01  0.7957747E-01            NaN
         13   -1    0    0    0    0  0.00000000000E+00  0.00000000000E+00  0.74505805969E-08  0.10566000000E+00  0.10566000000E+00 0.  1.
     999900   -1    0    0    0    0 -0.00000000000E+00 -0.00000000000E+00 -0.74505805969E-08  0.93827000000E+00  0.93827000000E+00 0. -1.
     999902    2    1    2    0    0  0.14174983060E-01  0.11247984310E-01  0.14832156376E-01  0.10205325609E+01  0.10202643126E+01 0.  0.
     999903    2    3    3    0    0 -0.78503073094E-01 -0.21933865895E-01 -0.96391023712E-01  0.12808600612E+00  0.21701809883E-01 0.  0.
         14    1    1    2    0    0 -0.14174983060E-01 -0.11247984310E-01 -0.14832156376E-01  0.23397439145E-01  0.00000000000E+00 0. -1.
     999901    1    3    3    0    0  0.92678056154E-01  0.33181850205E-01  0.11122318009E+00  0.89244655474E+00  0.88000000000E+00 0.  1.
        -11    1    4    4    0    0 -0.12831581286E-01  0.28243596669E-02 -0.86997055650E-02  0.15766181648E-01  0.51100000000E-03 0.  1.
         11    1    4    4    0    0 -0.65671491808E-01 -0.24758225562E-01 -0.87691318147E-01  0.11231982447E+00  0.51100000000E-03 0. -1.
</event>
<event>
 8    1  0.1117714E+005  0.1043930E+01  0.7957747E-01            NaN
         13   -1    0    0    0    0  0.00000000000E+00  0.00000000000E+00  0.74505805969E-08  0.10566000000E+00  0.10566000000E+00 0. -1.
     999900   -1    0    0    0    0 -0.00000000000E+00 -0.00000000000E+00 -0.74505805969E-08  0.93827000000E+00  0.93827000000E+00 0. -1.
     999902    2    1    2    0    0  0.13056088843E-01 -0.17012222002E-01  0.94927976298E-02  0.10204781267E+01  0.10202086143E+01 0.  0.
     999903    2    3    3    0    0  0.59690285497E-01 -0.11768851226E+00 -0.20704304789E-02  0.13343575346E+00  0.19679876016E-01 0.  0.
         14    1    1    2    0    0 -0.13056088843E-01  0.17012222002E-01 -0.94927976298E-02  0.23451873276E-01  0.00000000000E+00 0. -1.
     999901    1    3    3    0    0 -0.46634196654E-01  0.10067629025E+00  0.11563228109E-01  0.88704237326E+00  0.88000000000E+00 0. -1.
        -11    1    4    4    0    0  0.23481684751E-01 -0.51689565546E-01  0.85287343139E-02  0.57412552069E-01  0.51100000000E-03 0. -1.
         11    1    4    4    0    0  0.36208600746E-01 -0.65998946710E-01 -0.10599164793E-01  0.76023201394E-01  0.51100000000E-03 0.  1.
</event>
<event>
 8    1  0.1117714E+005  0.1043930E+01  0.7957747E-01            NaN
         13   -1    0    0    0    0  0.00000000000E+00  0.00000000000E+00  0.74505805969E-08  0.10566000000E+00  0.10566000000E+00 0.  1.
     999900   -1    0    0    0    0 -0.00000000000E+00 -0.00000000000E+00 -0.74505805969E-08  0.93827000000E+00  0.93827000000E+00 0. -1.
     999902    2    1    2    0    0 -0.19471112902E-01  0.14420923176E-01  0.22388319114E-01  0.10109402426E+01  0.10104018260E+01 0.  0.
     999903    2    3    3    0    0 -0.44833207731E-01 -0.10587117396E+00  0.35409054929E-01  0.12229916539E+00  0.22012784723E-01 0.  0.
         14    1    1    2    0    0  0.19471112902E-01 -0.14420923176E-01 -0.22388319114E-01  0.32989757435E-01  0.00000000000E+00 0. -1.
     999901    1    3    3    0    0  0.25362094829E-01  0.12029209714E+00 -0.13020735815E-01  0.88864107718E+00  0.88000000000E+00 0. -1.
        -11    1    4    4    0    0 -0.20588751619E-01 -0.57641926414E-01  0.29639470532E-01  0.68009173708E-01  0.51100000000E-03 0. -1.
         11    1    4    4    0    0 -0.24244456111E-01 -0.48229247549E-01  0.57695843975E-02  0.54289991678E-01  0.51100000000E-03 0.  1.
</event>
<event>
 8    1  0.1117714E+005  0.1043930E+01  0.7957747E-01            NaN
         13   -1    0    0    0    0  0.00000000000E+00  0.00000000000E+00  0.74505805969E-08  0.10566000000E+00  0.10566000000E+00 0.  1.
     999900   -1    0    0    0    0 -0.00000000000E+00 -0.00000000000E+00 -0.74505805969E-08  0.93827000000E+00  0.93827000000E+00 0. -1.
     999902    2    1    2    0    0 -0.66689779881E-02 -0.13586701724E-01  0.17689460008E-01  0.10206493057E+01  0.10203837585E+01 0.  0.
     999903    2    3    3    0    0 -0.82726933042E-01  0.60792830384E-01  0.81096495334E-01  0.13197749933E+00  0.17375416489E-01 0.  0.
         14    1    1    2    0    0  0.66689779881E-02  0.13586701724E-01 -0.17689460008E-01  0.23280694288E-01  0.00000000000E+00 0. -1.
     999901    1    3    3    0    0  0.76057955053E-01 -0.74379532109E-01 -0.63407035326E-01  0.88867180638E+00  0.88000000000E+00 0. -1.
        -11    1    4    4    0    0 -0.61330131511E-01  0.44986726528E-01  0.49870619864E-01  0.90953452059E-01  0.51100000000E-03 0.  1.
         11    1    4    4    0    0 -0.21396801530E-01  0.15806103856E-01  0.31225875470E-01  0.41024047274E-01  0.51100000000E-03 0. -1.
</event>
<event>
 8    1  0.1117714E+005  0.1043930E+01  0.7957747E-01            NaN
         13   -1    0    0    0    0  0.00000000000E+00  0.00000000000E+00  0.74505805969E-08  0.10566000000E+00  0.10566000000E+00 0. -1.
     999900   -1    0    0    0    0 -0.00000000000E+00 -0.00000000000E+00 -0.74505805969E-08  0.93827000000E+00  0.93827000000E+00 0.  1.
     999902    2    1    2    0    0  0.74220911382E-03 -0.16558122085E-01  0.16826956002E-01  0.10203107551E+01  0.10200373367E+01 0.  0.
     999903    2    3    3    0    0 -0.95893249091E-01 -0.86666806049E-01 -0.14529392504E-01  0.13169561909E+00  0.20639339858E-01 0.  0.
         14    1    1    2    0    0 -0.74220911382E-03  0.16558122085E-01 -0.16826956002E-01  0.23619244900E-01  0.00000000000E+00 0.  1.
     999901    1    3    3    0    0  0.96635458205E-01  0.70108683963E-01  0.31356348506E-01  0.88861513601E+00  0.88000000000E+00 0. -1.
        -11    1    4    4    0    0 -0.50202933519E-01 -0.49103713771E-01 -0.17822839231E-01  0.72452908563E-01  0.51100000000E-03 0.  1.
         11    1    4    4    0    0 -0.45690315572E-01 -0.37563092278E-01  0.32934467272E-02  0.59242710529E-01  0.51100000000E-03 0. -1.
</event>
<event>
 8    1  0.1117714E+005  0.1043930E+01  0.7957747E-01            NaN
         13   -1    0    0    0    0  0.00000000000E+00  0.00000000000E+00  0.74505805969E-08  0.10566000000E+00  0.10566000000E+00 0. -1.
     999900   -1    0    0    0    0 -0.00000000000E+00 -0.00000000000E+00 -0.74505805969E-08  0.93827000000E+00  0.93827000000E+00 0.  1.
     999902    2    1    2    0    0 -0.18483928583E-01 -0.10623493818E-02 -0.15570766807E-01  0.10197384109E+01  0.10194514181E+01 0.  0.
     999903    2    3    3    0    0  0.32726561075E-01 -0.12367561401E+00 -0.74314202337E-02  0.12972561560E+00  0.20169879408E-01 0.  0.
         14    1    1    2    0    0  0.18483928583E-01  0.10623493818E-02  0.15570766807E-01  0.24191589055E-01  0.00000000000E+00 0. -1.
     999901    1    3    3    0    0 -0.51210489658E-01  0.12261326463E+00 -0.81393465730E-02  0.89001279534E+00  0.88000000000E+00 0.  1.
        -11    1    4    4    0    0  0.31386316619E-01 -0.10119217935E+00  0.16808574463E-03  0.10594926808E+00  0.51100000000E-03 0.  1.
         11    1    4    4    0    0  0.13402444559E-02 -0.22483434658E-01 -0.75995059783E-02  0.23776347519E-01  0.51100000000E-03 0. -1.
</event>
<event>
 8    1  0.1117714E+005  0.1043930E+01  0.7957747E-01            NaN
         13   -1    0    0    0    0  0.00000000000E+00  0.00000000000E+00  0.74505805969E-08  0.10566000000E+00  0.10566000000E+00 0.  1.
     999900   -1    0    0    0    0 -0.00000000000E+00 -0.00000000000E+00 -0.74505805969E-08  0.93827000000E+00  0.93827000000E+00 0. -1.
     999902    2    1    2    0    0 -0.22554789537E-01 -0.27949975235E-03  0.63642167647E-02  0.10204928520E+01  0.10202236819E+01 0.  0.
     999903    2    3    3    0    0 -0.12470369533E+00  0.34084947726E-01 -0.25863603557E-01  0.13333224275E+00  0.19893860283E-01 0.  0.
         14    1    1    2    0    0  0.22554789537E-01  0.27949975235E-03 -0.63642167647E-02  0.23437147996E-01  0.00000000000E+00 0. -1.
     999901    1    3    3    0    0  0.10214890580E+00 -0.34364447479E-01  0.32227820322E-01  0.88716060925E+00  0.88000000000E+00 0.  1.
        -11    1    4    4    0    0 -0.62173821047E-01  0.78967885522E-02 -0.17156082075E-01  0.64981040051E-01  0.51100000000E-03 0. -1.
         11    1    4    4    0    0 -0.62529874286E-01  0.26188159174E-01 -0.87075214815E-02  0.68351202700E-01  0.51100000000E-03 0.  1.
</event>
<event>
 8    1  0.1117714E+005  0.1043930E+01  0.7957747E-01            NaN
         13   -1    0    0    0    0  0.00000000000E+00  0.00000000000E+00  0.74505805969E-08  0.10566000000E+00  0.10566000000E+00 0. -1.
     999900   -1    0    0    0    0 -0.00000000000E+00 -0.00000000000E+00 -0.74505805969E-08  0.93827000000E+00  0.93827000000E+00 0.  1.
     999902    2    1    2    0    0  0.14707794801E-01  0.17269943059E-01 -0.59062783179E-02  0.10204895588E+01  0.10202203121E+01 0.  0.
     999903    2    3    3    0    0  0.75158051823E-01 -0.88693976260E-01  0.54595358568E-01  0.13001607021E+00  0.20203246209E-01 0.  0.
         14    1    1    2    0    0 -0.14707794801E-01 -0.17269943059E-01  0.59062783179E-02  0.23440441224E-01  0.00000000000E+00 0. -1.
     999901    1    3    3    0    0 -0.60450257022E-01  0.10596391932E+00 -0.60501636886E-01  0.89047348857E+00  0.88000000000E+00 0.  1.
        -11    1    4    4    0    0  0.39841355472E-02 -0.14881813510E-01  0.83570176575E-02  0.17534040451E-01  0.51100000000E-03 0.  1.
         11    1    4    4    0    0  0.71173916276E-01 -0.73812162750E-01  0.46238340911E-01  0.11248202976E+00  0.51100000000E-03 0. -1.
</event>
<event>
 8    1  0.1117714E+005  0.1043930E+01  0.7957747E-01            NaN
         13   -1    0    0    0    0  0.00000000000E+00  0.00000000000E+00  0.74505805969E-08  0.10566000000E+00  0.10566000000E+00 0.  1.
     999900   -1    0    0    0    0 -0.00000000000E+00 -0.00000000000E+00 -0.74505805969E-08  0.93827000000E+00  0.93827000000E+00 0.  1.
     999902    2    1    2    0    0  0.10009286863E-01 -0.13228033897E-01 -0.16123205768E-01  0.10207972425E+01  0.10205350978E+01 0.  0.
     999903    2    3    3    0    0 -0.10839151230E+00  0.59458080549E-01 -0.34222553815E-01  0.12971385312E+00  0.19248823861E-01 0.  0.
         14    1    1    2    0    0 -0.10009286863E-01  0.13228033897E-01  0.16123205768E-01  0.23132757478E-01  0.00000000000E+00 0.  1.
     999901    1    3    3    0    0  0.11840079916E+00 -0.72686114446E-01  0.18099348047E-01  0.89108338941E+00  0.88000000000E+00 0.  1.
        -11    1    4    4    0    0 -0.14263578048E-01  0.11868770534E-01  0.78830628599E-03  0.18579556521E-01  0.51100000000E-03 0. -1.
         11    1    4    4    0    0 -0.94127934249E-01  0.47589310015E-01 -0.35010860101E-01  0.11113429659E+00  0.51100000000E-03 0.  1.
</event>
<event>
 8    1  0.1117714E+005  0.1043930E+01  0.7957747E-01            NaN
         13   -1    0    0    0    0  0.00000000000E+00  0.00000000000E+00  0.74505805969E-08  0.10566000000E+00  0.10566000000E+00 0.  1.
     999900   -1    0    0    0    0 -0.00000000000E+00 -0.00000000000E+00 -0.74505805969E-08  0.93827000000E+00  0.93827000000E+00 0. -1.
     999902    2    1    2    0    0  0.99538282872E-03  0.23740541947E-01 -0.67210589212E-03  0.10201590967E+01  0.10198821141E+01 0.  0.
     999903    2    3    3    0    0  0.47973861152E-01 -0.12114040678E-01 -0.11879108609E+00  0.13030257902E+00  0.20474340734E-01 0.  0.
         14    1    1    2    0    0 -0.99538282872E-03 -0.23740541947E-01  0.67210589212E-03  0.23770903333E-01  0.00000000000E+00 0.  1.
     999901    1    3    3    0    0 -0.46978478324E-01  0.35854582625E-01  0.11811898020E+00  0.88985651765E+00  0.88000000000E+00 0.  1.
        -11    1    4    4    0    0  0.26606460817E-01 -0.92841885310E-02 -0.90153594767E-01  0.94456506839E-01  0.51100000000E-03 0. -1.
         11    1    4    4    0    0  0.21367400335E-01 -0.28298521472E-02 -0.28637491324E-01  0.35846072178E-01  0.51100000000E-03 0.  1.
</event>
<event>
 8    1  0.1117714E+005  0.1043930E+01  0.7957747E-01            NaN
         13   -1    0    0    0    0  0.00000000000E+00  0.00000000000E+00  0.74505805969E-08  0.10566000000E+00  0.10566000000E+00 0.  1.
     999900   -1    0    0    0    0 -0.00000000000E+00 -0.00000000000E+00 -0.74505805969E-08  0.93827000000E+00  0.93827000000E+00 0.  1.
     999902    2    1    2    0    0  0.24664981349E-01 -0.28992766465E-02  0.71052225190E-02  0.10180987922E+01  0.10177710447E+01 0.  0.
     999903    2    3    3    0    0  0.11273564648E+00 -0.28127781365E-01  0.59081348043E-01  0.13181755176E+00  0.19615381572E-01 0.  0.
         14    1    1    2    0    0 -0.24664981349E-01  0.28992766465E-02 -0.71052225190E-02  0.25831207812E-01  0.00000000000E+00 0. -1.
     999901    1    3    3    0    0 -0.88070665131E-01  0.25228504718E-01 -0.51976125524E-01  0.88628124043E+00  0.88000000000E+00 0.  1.
        -11    1    4    4    0    0  0.43062378810E-01 -0.20343454751E-01  0.21265263871E-01  0.52160302803E-01  0.51100000000E-03 0.  1.
         11    1    4    4    0    0  0.69673267669E-01 -0.77843266134E-02  0.37816084172E-01  0.79657248959E-01  0.51100000000E-03 0. -1.
</event>
<event>
 8    1  0.1117714E+005  0.1043930E+01  0.7957747E-01            NaN
         13   -1    0    0    0    0  0.00000000000E+00  0.00000000000E+00  0.74505805969E-08  0.10566000000E+00  0.10566000000E+00 0.  1.
     999900   -1    0    0    0    0 -0.00000000000E+00 -0.00000000000E+00 -0.74505805969E-08  0.93827000000E+00  0.93827000000E+00 0. -1.
     999902    2    1    2    0    0  0.16449160682E-01  0.11771497935E-01  0.16316432799E-02  0.10236370133E+01  0.10234358454E+01 0.  0.
     999903    2    3    3    0    0 -0.48177297941E-01 -0.69889703407E-01 -0.99272298602E-01  0.13177001845E+00  0.17399017589E-01 0.  0.
         14    1    1    2    0    0 -0.16449160682E-01 -0.11771497935E-01 -0.16316432799E-02  0.20292986733E-01  0.00000000000E+00 0.  1.
     999901    1    3    3    0    0  0.64626458622E-01  0.81661201342E-01  0.10090394188E+00  0.89186699482E+00  0.88000000000E+00 0. -1.
        -11    1    4    4    0    0 -0.94296933164E-02 -0.27192155666E-01 -0.28863761744E-01  0.40764081111E-01  0.51100000000E-03 0. -1.
         11    1    4    4    0    0 -0.38747604624E-01 -0.42697547741E-01 -0.70408536858E-01  0.91005937338E-01  0.51100000000E-03 0.  1.
</event>
<event>
 8    1  0.1117714E+005  0.1043930E+01  0.7957747E-01            NaN
         13   -1    0    0    0    0  0.00000000000E+00  0.00000000000E+00  0.74505805969E-08  0.10566000000E+00  0.10566000000E+00 0. -1.
     999900   -1    0    0    0    0 -0.00000000000E+00 -0.00000000000E+00 -0.74505805969E-08  0.93827000000E+00  0.93827000000E+00 0.  1.
     999902    2    1    2    0    0  0.17885452746E-01 -0.74275868711E-02 -0.76852331407E-02  0.10230944229E+01  0.10228822399E+01 0.  0.
     999903    2    3    3    0    0 -0.22889349612E-01 -0.94385541446E-01  0.88052548986E-01  0.13270687055E+00  0.20623029559E-01 0.  0.
         14    1    1    2    0    0 -0.17885452746E-01  0.74275868711E-02  0.76852331407E-02  0.20835577147E-01  0.00000000000E+00 0.  1.
     999901    1    3    3    0    0  0.40774802358E-01  0.86957954575E-01 -0.95737782126E-01  0.89038755230E+00  0.88000000000E+00 0.  1.
        -11    1    4    4    0    0 -0.15557215068E-01 -0.65904006582E-01  0.73326919258E-01  0.99812139708E-01  0.51100000000E-03 0. -1.
         11    1    4    4    0    0 -0.73321345439E-02 -0.28481534864E-01  0.14725629727E-01  0.32894730840E-01  0.51100000000E-03 0.  1.
</event>
<event>
 8    1  0.1117714E+005  0.1043930E+01  0.7957747E-01            NaN
         13   -1    0    0    0    0  0.00000000000E+00  0.00000000000E+00  0.74505805969E-08  0.10566000000E+00  0.10566000000E+00 0. -1.
     999900   -1    0    0    0    0 -0.00000000000E+00 -0.00000000000E+00 -0.74505805969E-08  0.93827000000E+00  0.93827000000E+00 0.  1.
     999902    2    1    2    0    0 -0.17444371021E-01  0.26297921443E-02 -0.15806592545E-01  0.10202430784E+01  0.10199680724E+01 0.  0.
     999903    2    3    3    0    0  0.64831666440E-01 -0.63022372493E-01  0.88227532607E-01  0.12788516127E+00  0.19888503107E-01 0.  0.
         14    1    1    2    0    0  0.17444371021E-01 -0.26297921443E-02  0.15806592545E-01  0.23686921601E-01  0.00000000000E+00 0. -1.
     999901    1    3    3    0    0 -0.82276037461E-01  0.65652164637E-01 -0.10403412515E+00  0.89235791713E+00  0.88000000000E+00 0.  1.
        -11    1    4    4    0    0  0.31575165545E-01 -0.19601243716E-01  0.28047977729E-01  0.46563397751E-01  0.51100000000E-03 0.  1.
         11    1    4    4    0    0  0.33256500895E-01 -0.43421128776E-01  0.60179554878E-01  0.81321763522E-01  0.51100000000E-03 0. -1.
</event>
<event>
 8    1  0.1117714E+005  0.1043930E+01  0.7957747E-01            NaN
         13   -1    0    0    0    0  0.00000000000E+00  0.00000000000E+00  0.74505805969E-08  0.10566000000E+00  0.10566000000E+00 0.  1.
     999900   -1    0    0    0    0 -0.00000000000E+00 -0.00000000000E+00 -0.74505805969E-08  0.93827000000E+00  0.93827000000E+00 0.  1.
     999902    2    1    2    0    0 -0.13423833229E-01 -0.47486764249E-02 -0.18383034317E-01  0.10206773619E+01  0.10204124617E+01 0.  0.
     999903    2    3    3    0    0  0.36371279237E-01  0.54928871858E-01 -0.11283872960E+00  0.13221642224E+00  0.20212681522E-01 0.  0.
         14    1    1    2    0    0  0.13423833229E-01  0.47486764249E-02  0.18383034317E-01  0.23252638067E-01  0.00000000000E+00 0.  1.
     999901    1    3    3    0    0 -0.49795112466E-01 -0.59677548283E-01  0.94455695284E-01  0.88846093970E+00  0.88000000000E+00 0.  1.
        -11    1    4    4    0    0  0.20029024770E-01  0.16696412584E-01 -0.56159845814E-01  0.61920282859E-01  0.51100000000E-03 0.  1.
         11    1    4    4    0    0  0.16342254467E-01  0.38232459275E-01 -0.56678883786E-01  0.70296139378E-01  0.51100000000E-03 0. -1.
</event>
<event>
 8    1  0.1117714E+005  0.1043930E+01  0.7957747E-01            NaN
         13   -1    0    0    0    0  0.00000000000E+00  0.00000000000E+00  0.74505805969E-08  0.10566000000E+00  0.10566000000E+00 0.  1.
     999900   -1    0    0    0    0 -0.00000000000E+00 -0.00000000000E+00 -0.74505805969E-08  0.93827000000E+00  0.93827000000E+00 0.  1.
     999902    2    1    2    0    0  0.19684883433E-01 -0.17506650652E-01 -0.21955993140E-02  0.10174952102E+01  0.10171517609E+01 0.  0.
     999903    2    3    3    0    0 -0.85283305867E-01 -0.86728995483E-01 -0.33429296489E-01  0.12800906779E+00  0.21763332818E-01 0.  0.
         14    1    1    2    0    0 -0.19684883433E-01  0.17506650652E-01  0.21955993140E-02  0.26434789751E-01  0.00000000000E+00 0.  1.
     999901    1    3    3    0    0  0.10496818930E+00  0.69222344831E-01  0.31233697175E-01  0.88948614246E+00  0.88000000000E+00 0. -1.
        -11    1    4    4    0    0 -0.39070234326E-01 -0.54603048827E-01 -0.21202156402E-01  0.70411424560E-01  0.51100000000E-03 0.  1.
         11    1    4    4    0    0 -0.46213071541E-01 -0.32125946656E-01 -0.12227140087E-01  0.57597643229E-01  0.51100000000E-03 0. -1.
</event>
<event>
 8    1  0.1117714E+005  0.1043930E+01  0.7957747E-01            NaN
         13   -1    0    0    0    0  0.00000000000E+00  0.00000000000E+00  0.74505805969E-08  0.10566000000E+00  0.10566000000E+00 0. -1.
     999900   -1    0    0    0    0 -0.00000000000E+00 -0.00000000000E+00 -0.74505805969E-08  0.93827000000E+00  0.93827000000E+00 0.  1.
     999902    2    1    2    0    0  0.15338492559E-01 -0.13974744415E-01 -0.11974823210E-01  0.10199725538E+01  0.10196911549E+01 0.  0.
     999903    2    3    3    0    0  0.78708083983E-01  0.22755817570E-01 -0.10207514443E+00  0.13234486884E+00  0.19571394428E-01 0.  0.
         14    1    1    2    0    0 -0.15338492559E-01  0.13974744415E-01  0.11974823210E-01  0.23957446157E-01  0.00000000000E+00 0. -1.
     999901    1    3    3    0    0 -0.63369591424E-01 -0.36730561985E-01  0.90100321221E-01  0.88762768500E+00  0.88000000000E+00 0. -1.
        -11    1    4    4    0    0  0.28164892147E-01  0.16423640042E-01 -0.31781351534E-01  0.45533641719E-01  0.51100000000E-03 0. -1.
         11    1    4    4    0    0  0.50543191836E-01  0.63321775278E-02 -0.70293792897E-01  0.86811227120E-01  0.51100000000E-03 0.  1.
</event>
<event>
 8    1  0.1117714E+005  0.1043930E+01  0.7957747E-01            NaN
         13   -1    0    0    0    0  0.00000000000E+00  0.00000000000E+00  0.74505805969E-08  0.10566000000E+00  0.10566000000E+00 0.  1.
     999900   -1    0    0    0    0 -0.00000000000E+00 -0.00000000000E+00 -0.74505805969E-08  0.93827000000E+00  0.93827000000E+00 0. -1.
     999902    2    1    2    0    0 -0.86337637680E-02  0.22236196387E-01 -0.60962717579E-03  0.10200686934E+01  0.10197895750E+01 0.  0.
     999903    2    3    3    0    0  0.10632655924E+00  0.48111452031E-01  0.54913988200E-01  0.13047986897E+00  0.19733248341E-01 0.  0.
         14    1    1    2    0    0  0.86337637680E-02 -0.22236196387E-01  0.60962717579E-03  0.23861306583E-01  0.00000000000E+00 0. -1.
     999901    1    3    3    0    0 -0.11496032300E+00 -0.25875255644E-01 -0.55523615375E-01  0.88958882445E+00  0.88000000000E+00 0. -1.
        -11    1    4    4    0    0  0.93583215753E-01  0.48348876636E-01  0.46142345137E-01  0.11499917077E+00  0.51100000000E-03 0. -1.
         11    1    4    4    0    0  0.12743343484E-01 -0.23742460458E-03  0.87716430623E-02  0.15480698195E-01  0.51100000000E-03 0.  1.
</event>
<event>
 8    1  0.1117714E+005  0.1043930E+01  0.7957747E-01            NaN
         13   -1    0    0    0    0  0.00000000000E+00  0.00000000000E+00  0.74505805969E-08  0.10566000000E+00  0.10566000000E+00 0. -1.
     999900   -1    0    0    0    0 -0.00000000000E+00 -0.00000000000E+00 -0.74505805969E-08  0.93827000000E+00  0.93827000000E+00 0.  1.
     999902    2    1    2    0    0 -0.17894472078E-01 -0.14765438898E-01 -0.34475781834E-02  0.10204754458E+01  0.10202058711E+01 0.  0.
     999903    2    3    3    0    0  0.29593810962E-01 -0.95493207472E-01  0.82742316520E-01  0.13131808764E+00  0.20084891777E-01 0.  0.
         14    1    1    2    0    0  0.17894472078E-01  0.14765438898E-01  0.34475781834E-02  0.23454554187E-01  0.00000000000E+00 0.  1.
     999901    1    3    3    0    0 -0.47488283040E-01  0.80727768574E-01 -0.86189894703E-01  0.88915735817E+00  0.88000000000E+00 0.  1.
        -11    1    4    4    0    0  0.27881431862E-01 -0.57278614582E-01  0.52530973164E-01  0.82571049368E-01  0.51100000000E-03 0.  1.
         11    1    4    4    0    0  0.17123791002E-02 -0.38214592890E-01  0.30211343356E-01  0.48747038272E-01  0.51100000000E-03 0. -1.
</event>
<event>
 8    1  0.1117714E+005  0.1043930E+01  0.7957747E-01            NaN
         13   -1    0    0    0    0  0.00000000000E+00  0.00000000000E+00  0.74505805969E-08  0.10566000000E+00  0.10566000000E+00 0. -1.
     999900   -1    0    0    0    0 -0.00000000000E+00 -0.00000000000E+00 -0.74505805969E-08  0.93827000000E+00  0.93827000000E+00 0.  1.
     999902    2    1    2    0    0 -0.96833394179E-02 -0.94065110764E-02 -0.19617968477E-01  0.10201158403E+01  0.10198378369E+01 0.  0.
     999903    2    3    3    0    0  0.11925422685E+00  0.20736655616E-01 -0.42770746292E-01  0.12990824792E+00  0.19880559090E-01 0.  0.
         14    1    1    2    0    0  0.96833394179E-02  0.94065110764E-02  0.19617968477E-01  0.23814159655E-01  0.00000000000E+00 0.  1.
     999901    1    3    3    0    0 -0.12893756627E+00 -0.30143166692E-01  0.23152777814E-01  0.89020759243E+00  0.88000000000E+00 0.  1.
        -11    1    4    4    0    0  0.20176692166E-01  0.26578892192E-02 -0.15442100120E-01  0.25551572534E-01  0.51100000000E-03 0. -1.
         11    1    4    4    0    0  0.99077534689E-01  0.18078766396E-01 -0.27328646172E-01  0.10435667538E+00  0.51100000000E-03 0.  1.
</event>
<event>
 8    1  0.1117714E+005  0.1043930E+01  0.7957747E-01            NaN
         13   -1    0    0    0    0  0.00000000000E+00  0.00000000000E+00  0.74505805969E-08  0.10566000000E+00  0.10566000000E+00 0.  1.
     999900   -1    0    0    0    0 -0.00000000000E+00 -0.00000000000E+00 -0.74505805969E-08  0.93827000000E+00  0.93827000000E+00 0. -1.
     999902    2    1    2    0    0 -0.72838618626E-02  0.23728231698E-02 -0.19740341898E-01  0.10227553446E+01  0.10225361259E+01 0.  0.
     999903    2    3    3    0    0 -0.41878813541E-01  0.21552767877E-01  0.12149541291E+00  0.13061621901E+00  0.90058027223E-02 0.  0.
         14    1    1    2    0    0  0.72838618626E-02 -0.23728231698E-02  0.19740341898E-01  0.21174655409E-01  0.00000000000E+00 0.  1.
     999901    1    3    3    0    0  0.34594951679E-01 -0.19179944707E-01 -0.14123575481E+00  0.89213912558E+00  0.88000000000E+00 0. -1.
        -11    1    4    4    0    0 -0.17322157376E-01  0.40885851699E-02  0.43877702566E-01  0.47352798949E-01  0.51100000000E-03 0.  1.
         11    1    4    4    0    0 -0.24556656165E-01  0.17464182707E-01  0.77617710345E-01  0.83263420058E-01  0.51100000000E-03 0. -1.
</event>
<event>
 8    1  0.1117714E+005  0.1043930E+01  0.7957747E-01            NaN
         13   -1    0    0    0    0  0.00000000000E+00  0.00000000000E+00  0.74505805969E-08  0.10566000000E+00  0.10566000000E+00 0.  1.
     999900   -1    0    0    0    0 -0.00000000000E+00 -0.00000000000E+00 -0.74505805969E-08  0.93827000000E+00  0.93827000000E+00 0. -1.
     999902    2    1    2    0    0 -0.16806964063E-01  0.35924543147E-02 -0.16039143138E-01  0.10204218337E+01  0.10201510108E+01 0.  0.
     999903    2    3    3    0    0 -0.32621777872E-01 -0.12099088126E+00  0.30803288168E-01  0.13027278485E+00  0.17865670226E-01 0.  0.
         14    1    1    2    0    0  0.16806964063E-01 -0.35924543147E-02  0.16039143138E-01  0.23508166275E-01  0.00000000000E+00 0. -1.
     999901    1    3    3    0    0  0.15814813809E-01  0.12458333557E+00 -0.46842431305E-01  0.89014904887E+00  0.88000000000E+00 0. -1.
        -11    1    4    4    0    0 -0.25035048151E-01 -0.62080336439E-01  0.20313308920E-01  0.69954366901E-01  0.51100000000E-03 0. -1.
         11    1    4    4    0    0 -0.75867297213E-02 -0.58910544817E-01  0.10489979248E-01  0.60318417951E-01  0.51100000000E-03 0.  1.
</event>
<event>
 8    1  0.1117714E+005  0.1043930E+01  0.7957747E-01            NaN
         13   -1    0    0    0    0  0.00000000000E+00  0.00000000000E+00  0.74505805969E-08  0.10566000000E+00  0.10566000000E+00 0.  1.
     999900   -1    0    0    0    0 -0.00000000000E+00 -0.00000000000E+00 -0.74505805969E-08  0.93827000000E+00  0.93827000000E+00 0. -1.
     999902    2    1    2    0    0  0.16324165091E-01 -0.14812762899E-01  0.10240202159E-01  0.10196244852E+01  0.10193347501E+01 0.  0.
     999903    2    3    3    0    0 -0.55637012568E-01  0.94452765712E-01  0.63679315474E-01  0.12834837439E+00  0.20036164055E-01 0.  0.
         14    1    1    2    0    0 -0.16324165091E-01  0.14812762899E-01 -0.10240202159E-01  0.24305514824E-01  0.00000000000E+00 0.  1.
     999901    1    3    3    0    0  0.71961177659E-01 -0.10926552861E+00 -0.53439113315E-01  0.89127611079E+00  0.88000000000E+00 0. -1.
        -11    1    4    4    0    0 -0.21778898074E-01  0.43844938663E-01  0.39208125176E-01  0.62723498376E-01  0.51100000000E-03 0.  1.
         11    1    4    4    0    0 -0.33858114493E-01  0.50607827050E-01  0.24471190298E-01  0.65624876010E-01  0.51100000000E-03 0. -1.
</event>
<event>
 8    1  0.1117714E+005  0.1043930E+01  0.7957747E-01            NaN
         13   -1    0    0    0    0  0.00000000000E+00  0.00000000000E+00  0.74505805969E-08  0.10566000000E+00  0.10566000000E+00 0.  1.
     999900   -1    0    0    0    0 -0.00000000000E+00 -0.00000000000E+00 -0.74505805969E-08  0.93827000000E+00  0.93827000000E+00 0. -1.
     999902    2    1    2    0    0 -0.17209224025E-01 -0.14396273657E-02 -0.17494302533E-01  0.10193478817E+01  0.10190514332E+01 0.  0.
     999903    2    3    3    0    0 -0.29990171141E-02 -0.58270335638E-01  0.11234177466E+00  0.12789453670E+00  0.18218453986E-01 0.  0.
         14    1    1    2    0    0  0.17209224025E-01  0.14396273657E-02  0.17494302533E-01  0.24582118290E-01  0.00000000000E+00 0. -1.
     999901    1    3    3    0    0 -0.14210206911E-01  0.56830708272E-01 -0.12983607719E+00  0.89145334501E+00  0.88000000000E+00 0. -1.
        -11    1    4    4    0    0 -0.94041584299E-02 -0.41961211374E-01  0.71290274169E-01  0.83257106410E-01  0.51100000000E-03 0.  1.
         11    1    4    4    0    0  0.64051413158E-02 -0.16309124264E-01  0.41051500492E-01  0.44637430293E-01  0.51100000000E-03 0. -1.
</event>
<event>
 8    1  0.1117714E+005  0.1043930E+01  0.7957747E-01            NaN
         13   -1    0    0    0    0  0.00000000000E+00  0.00000000000E+00  0.74505805969E-08  0.10566000000E+00  0.10566000000E+00 0. -1.
     999900   -1    0    0    0    0 -0.00000000000E+00 -0.00000000000E+00 -0.74505805969E-08  0.93827000000E+00  0.93827000000E+00 0. -1.
     999902    2    1    2    0    0  0.16060766584E-01  0.90682829091E-02 -0.70080931486E-02  0.10241994311E+01  0.10240093649E+01 0.  0.
     999903    2    3    3    0    0 -0.20742022520E-02 -0.11569855265E+00  0.61544165923E-01  0.13257448051E+00  0.19946205705E-01 0.  0.
         14    1    1    2    0    0 -0.16060766584E-01 -0.90682829091E-02  0.70080931486E-02  0.19730568865E-01  0.00000000000E+00 0. -1.
     999901    1    3    3    0    0  0.18134968836E-01  0.12476683556E+00 -0.68552259072E-01  0.89162495062E+00  0.88000000000E+00 0. -1.
        -11    1    4    4    0    0  0.54515017691E-02 -0.86509679134E-01  0.39680923425E-01  0.95333521178E-01  0.51100000000E-03 0.  1.
         11    1    4    4    0    0 -0.75257040211E-02 -0.29188873521E-01  0.21863242499E-01  0.37240959332E-01  0.51100000000E-03 0. -1.
</event>
<event>
 8    1  0.1117714E+005  0.1043930E+01  0.7957747E-01            NaN
         13   -1    0    0    0    0  0.00000000000E+00  0.00000000000E+00  0.74505805969E-08  0.10566000000E+00  0.10566000000E+00 0.  1.
     999900   -1    0    0    0    0 -0.00000000000E+00 -0.00000000000E+00 -0.74505805969E-08  0.93827000000E+00  0.93827000000E+00 0.  1.
     999902    2    1    2    0    0 -0.22734212279E-01 -0.13859342435E-02 -0.29266103367E-02  0.10209663272E+01  0.10207080439E+01 0.  0.
     999903    2    3    3    0    0  0.46576918034E-01  0.62248310122E-01  0.10195340302E+00  0.12975750369E+00  0.19956251421E-01 0.  0.
         14    1    1    2    0    0  0.22734212279E-01  0.13859342435E-02  0.29266103367E-02  0.22963672828E-01  0.00000000000E+00 0. -1.
     999901    1    3    3    0    0 -0.69311130314E-01 -0.63634244365E-01 -0.10488001336E+00  0.89120882348E+00  0.88000000000E+00 0. -1.
        -11    1    4    4    0    0  0.31676144224E-01  0.54376859776E-01  0.85824529059E-01  0.10642524090E+00  0.51100000000E-03 0.  1.
         11    1    4    4    0    0  0.14900773810E-01  0.78714503458E-02  0.16128873963E-01  0.23332262792E-01  0.51100000000E-03 0. -1.
</event>
<event>
 8    1  0.1117714E+005  0.1043930E+01  0.7957747E-01            NaN
         13   -1    0    0    0    0  0.00000000000E+00  0.00000000000E+00  0.74505805969E-08  0.10566000000E+00  0.10566000000E+00 0.  1.
     999900   -1    0    0    0    0 -0.00000000000E+00 -0.00000000000E+00 -0.74505805969E-08  0.93827000000E+00  0.93827000000E+00 0. -1.
     999902    2    1    2    0    0  0.16545112059E-01 -0.38411297095E-02  0.15752352197E-01  0.10207646895E+01  0.10205017980E+01 0.  0.
     999903    2    3    3    0    0  0.24034579849E-02 -0.41590891098E-01  0.12464592652E+00  0.13313704156E+00  0.21290514437E-01 0.  0.
         14    1    1    2    0    0 -0.16545112059E-01  0.38411297095E-02 -0.15752352197E-01  0.23165310493E-01  0.00000000000E+00 0. -1.
     999901    1    3    3    0    0  0.14141654074E-01  0.37749761389E-01 -0.10889357433E+00  0.88762764794E+00  0.88000000000E+00 0. -1.
        -11    1    4    4    0    0 -0.91478887374E-02 -0.13638886316E-01  0.39686160434E-01  0.42952945641E-01  0.51100000000E-03 0.  1.
         11    1    4    4    0    0  0.11551346722E-01 -0.27952004782E-01  0.84959766088E-01  0.90184095922E-01  0.51100000000E-03 0. -1.
</event>
<event>
 8    1  0.1117714E+005  0.1043930E+01  0.7957747E-01            NaN
         13   -1    0    0    0    0  0.00000000000E+00  0.00000000000E+00  0.74505805969E-08  0.10566000000E+00  0.10566000000E+00 0. -1.
     999900   -1    0    0    0    0 -0.00000000000E+00 -0.00000000000E+00 -0.74505805969E-08  0.93827000000E+00  0.93827000000E+00 0. -1.
     999902    2    1    2    0    0 -0.16160740105E-02 -0.23519530442E-01  0.87034989849E-02  0.10187997214E+01  0.10184897356E+01 0.  0.
     999903    2    3    3    0    0 -0.64305707980E-01  0.76544012599E-01 -0.75655050864E-01  0.12691460113E+00  0.19733710094E-01 0.  0.
         14    1    1    2    0    0  0.16160740105E-02  0.23519530442E-01 -0.87034989849E-02  0.25130278590E-01  0.00000000000E+00 0.  1.
     999901    1    3    3    0    0  0.62689633969E-01 -0.10006354304E+00  0.84358549849E-01  0.89188512028E+00  0.88000000000E+00 0.  1.
        -11    1    4    4    0    0 -0.51678711550E-01  0.66935819527E-01 -0.70865911174E-01  0.11033282218E+00  0.51100000000E-03 0.  1.
         11    1    4    4    0    0 -0.12626996430E-01  0.96081930721E-02 -0.47891396901E-02  0.16581778943E-01  0.51100000000E-03 0. -1.
</event>
<event>
 8    1  0.1117714E+005  0.1043930E+01  0.7957747E-01            NaN
         13   -1    0    0    0    0  0.00000000000E+00  0.00000000000E+00  0.74505805969E-08  0.10566000000E+00  0.10566000000E+00 0.  1.
     999900   -1    0    0    0    0 -0.00000000000E+00 -0.00000000000E+00 -0.74505805969E-08  0.93827000000E+00  0.93827000000E+00 0. -1.
     999902    2    1    2    0    0  0.22293846392E-01  0.25241706546E-02 -0.65615946122E-02  0.10205539108E+01  0.10202861575E+01 0.  0.
     999903    2    3    3    0    0 -0.72432225355E-01 -0.49008087262E-01  0.91877124926E-01  0.12852320289E+00  0.20702359996E-01 0.  0.
         14    1    1    2    0    0 -0.22293846392E-01 -0.25241706546E-02  0.65615946122E-02  0.23376089243E-01  0.00000000000E+00 0.  1.
     999901    1    3    3    0    0  0.94726071746E-01  0.51532257917E-01 -0.98438719538E-01  0.89203070787E+00  0.88000000000E+00 0.  1.
        -11    1    4    4    0    0 -0.36670802486E-01 -0.30897507874E-01  0.62720216093E-01  0.78952456425E-01  0.51100000000E-03 0. -1.
         11    1    4    4    0    0 -0.35761422869E-01 -0.18110579388E-01  0.29156908834E-01  0.49570746465E-01  0.51100000000E-03 0.  1.
</event>
<event>
 8    1  0.1117714E+005  0.1043930E+01  0.7957747E-01            NaN
         13   -1    0    0    0    0  0.00000000000E+00  0.00000000000E+00  0.74505805969E-08  0.10566000000E+00  0.10566000000E+00 0.  1.
     999900   -1    0    0    0    0 -0.00000000000E+00 -0.00000000000E+00 -0.74505805969E-08  0.93827000000E+00  0.93827000000E+00 0. -1.
     999902    2    1    2    0    0  0.67622335286E-02 -0.20312791185E-01 -0.96120166148E-02  0.10204624021E+01  0.10201925240E+01 0.  0.
     999903    2    3    3    0    0  0.11060278793E+00 -0.53392046968E-01 -0.46777296179E-01  0.13296121567E+00  0.20171317684E-01 0.  0.
         14    1    1    2    0    0 -0.67622335286E-02  0.20312791185E-01  0.96120166148E-02  0.23467597905E-01  0.00000000000E+00 0.  1.
     999901    1    3    3    0    0 -0.10384055440E+00  0.33079255783E-01  0.37165279565E-01  0.88750118643E+00  0.88000000000E+00 0. -1.
        -11    1    4    4    0    0  0.66201644277E-01 -0.38711901295E-01 -0.20794019174E-01  0.79460187272E-01  0.51100000000E-03 0.  1.
         11    1    4    4    0    0  0.44401143653E-01 -0.14680145673E-01 -0.25983277005E-01  0.53501028398E-01  0.51100000000E-03 0. -1.
</event>
<event>
 8    1  0.1117714E+005  0.1043930E+01  0.7957747E-01            NaN
         13   -1    0    0    0    0  0.00000000000E+00  0.00000000000E+00  0.74505805969E-08  0.10566000000E+00  0.10566000000E+00 0. -1.
     999900   -1    0    0    0    0 -0.00000000000E+00 -0.00000000000E+00 -0.74505805969E-08  0.93827000000E+00  0.93827000000E+00 0.  1.
     999902    2    1    2    0    0 -0.14410535769E-02  0.45128789176E-02 -0.22621642749E-01  0.10208176346E+01  0.10205559572E+01 0.  0.
     999903    2    3    3    0    0 -0.73358488913E-01 -0.74123996808E-01  0.73562672118E-01  0.12918581705E+00  0.20041801290E-01 0.  0.
         14    1    1    2    0    0  0.14410535769E-02 -0.45128789176E-02  0.22621642749E-01  0.23112365353E-01  0.00000000000E+00 0. -1.
     999901    1    3    3    0    0  0.71917435336E-01  0.78636875725E-01 -0.96184314866E-01  0.89163181760E+00  0.88000000000E+00 0.  1.
        -11    1    4    4    0    0 -0.67426458135E-01 -0.73956805151E-01  0.67700653252E-01  0.12082870461E+00  0.51100000000E-03 0. -1.
         11    1    4    4    0    0 -0.59320307783E-02 -0.16719165631E-03  0.58620188655E-02  0.83571124429E-02  0.51100000000E-03 0.  1.
</event>
<event>
 8    1  0.1117714E+005  0.1043930E+01  0.7957747E-01            NaN
         13   -1    0    0    0    0  0.00000000000E+00  0.00000000000E+00  0.74505805969E-08  0.10566000000E+00  0.10566000000E+00 0.  1.
     999900   -1    0    0    0    0 -0.00000000000E+00 -0.00000000000E+00 -0.74505805969E-08  0.93827000000E+00  0.93827000000E+00 0. -1.
     999902    2    1    2    0    0 -0.83797829450E-02 -0.73269035710E-03  0.22100707146E-01  0.10202826142E+01  0.10200085363E+01 0.  0.
     999903    2    3    3    0    0 -0.10085212968E+00 -0.33852880713E-02 -0.78862699315E-01  0.12969192226E+00  0.20446445140E-01 0.  0.
         14    1    1    2    0    0  0.83797829450E-02  0.73269035710E-03 -0.22100707146E-01  0.23647385770E-01  0.00000000000E+00 0. -1.
     999901    1    3    3    0    0  0.92472346737E-01  0.26525977142E-02  0.10096340646E+00  0.89059069197E+00  0.88000000000E+00 0.  1.
        -11    1    4    4    0    0 -0.53406056520E-01  0.58127458294E-02 -0.32917918986E-01  0.63006709154E-01  0.51100000000E-03 0. -1.
         11    1    4    4    0    0 -0.47446073162E-01 -0.91980339007E-02 -0.45944780329E-01  0.66685213103E-01  0.51100000000E-03 0.  1.
</event>
<event>
 8    1  0.1508641E+005  0.1043930E+01  0.7957747E-01            NaN
         13   -1    0    0    0    0  0.00000000000E+00  0.00000000000E+00  0.74505805969E-08  0.10566000000E+00  0.10566000000E+00 0. -1.
     999900   -1    0    0    0    0 -0.00000000000E+00 -0.00000000000E+00 -0.74505805969E-08  0.93827000000E+00  0.93827000000E+00 0.  1.
     999902    2    1    2    0    0  0.17226043756E-01  0.11396644269E-01 -0.11355883038E-01  0.10203593368E+01  0.10200870551E+01 0.  0.
     999903    2    3    3    0    0  0.10471169582E-01 -0.84310000645E-02 -0.13001343144E+00  0.13214856362E+00  0.19468522193E-01 0.  0.
         14    1    1    2    0    0 -0.17226043756E-01 -0.11396644269E-01  0.11355883038E-01  0.23570663199E-01  0.00000000000E+00 0. -1.
     999901    1    3    3    0    0  0.67548741742E-02  0.19827644333E-01  0.11865754840E+00  0.88821077318E+00  0.88000000000E+00 0. -1.
        -11    1    4    4    0    0 -0.35723422829E-02 -0.68380545047E-02 -0.72952056844E-01  0.73360645700E-01  0.51100000000E-03 0.  1.
         11    1    4    4    0    0  0.14043511865E-01 -0.15929455598E-02 -0.57061374599E-01  0.58787917918E-01  0.51100000000E-03 0. -1.
</event>
<event>
 8    1  0.1117714E+005  0.1043930E+01  0.7957747E-01            NaN
         13   -1    0    0    0    0  0.00000000000E+00  0.00000000000E+00  0.74505805969E-08  0.10566000000E+00  0.10566000000E+00 0. -1.
     999900   -1    0    0    0    0 -0.00000000000E+00 -0.00000000000E+00 -0.74505805969E-08  0.93827000000E+00  0.93827000000E+00 0. -1.
     999902    2    1    2    0    0  0.78568631920E-02  0.19865648947E-01  0.73467151817E-04  0.10225669547E+01  0.10223437764E+01 0.  0.
     999903    2    3    3    0    0 -0.58424145917E-01  0.11177354654E+00 -0.40965158746E-01  0.13435278985E+00  0.21582895494E-01 0.  0.
         14    1    1    2    0    0 -0.78568631920E-02 -0.19865648947E-01 -0.73467151817E-04  0.21363045305E-01  0.00000000000E+00 0.  1.
     999901    1    3    3    0    0  0.66281009109E-01 -0.91907897594E-01  0.41038625898E-01  0.88821416484E+00  0.88000000000E+00 0. -1.
        -11    1    4    4    0    0 -0.28910106758E-01  0.37028044732E-01 -0.21499118116E-01  0.51665690455E-01  0.51100000000E-03 0. -1.
         11    1    4    4    0    0 -0.29514039159E-01  0.74745501809E-01 -0.19466040630E-01  0.82687099399E-01  0.51100000000E-03 0.  1.
</event>
<event>
 8    1  0.1117714E+005  0.1043930E+01  0.7957747E-01            NaN
         13   -1    0    0    0    0  0.00000000000E+00  0.00000000000E+00  0.74505805969E-08  0.10566000000E+00  0.10566000000E+00 0.  1.
     999900   -1    0    0    0    0 -0.00000000000E+00 -0.00000000000E+00 -0.74505805969E-08  0.93827000000E+00  0.93827000000E+00 0.  1.
     999902    2    1    2    0    0 -0.51194743695E-02 -0.18231254694E-01  0.15322151732E-01  0.10195711002E+01  0.10192800755E+01 0.  0.
     999903    2    3    3    0    0  0.10299944040E+00  0.34166752291E-01  0.68289065927E-01  0.12982914612E+00  0.20395072244E-01 0.  0.
         14    1    1    2    0    0  0.51194743695E-02  0.18231254694E-01 -0.15322151732E-01  0.24358899795E-01  0.00000000000E+00 0.  1.
     999901    1    3    3    0    0 -0.10811891477E+00 -0.52398006985E-01 -0.52966914196E-01  0.88974195409E+00  0.88000000000E+00 0.  1.
        -11    1    4    4    0    0  0.95289280509E-01  0.34467528813E-01  0.68107624164E-01  0.12209409123E+00  0.51100000000E-03 0.  1.
         11    1    4    4    0    0  0.77101598885E-02 -0.30077652273E-03  0.18144176346E-03  0.77350548890E-02  0.51100000000E-03 0. -1.
</event>
<event>
 8    1  0.1117714E+005  0.1043930E+01  0.7957747E-01            NaN
         13   -1    0    0    0    0  0.00000000000E+00  0.00000000000E+00  0.74505805969E-08  0.10566000000E+00  0.10566000000E+00 0. -1.
     999900   -1    0    0    0    0 -0.00000000000E+00 -0.00000000000E+00 -0.74505805969E-08  0.93827000000E+00  0.93827000000E+00 0. -1.
     999902    2    1    2    0    0 -0.23088220294E-01 -0.43143767388E-02 -0.30604616817E-02  0.10202435864E+01  0.10199685924E+01 0.  0.
     999903    2    3    3    0    0 -0.17433364052E-01 -0.11779440728E+00  0.49690756287E-01  0.13137217517E+00  0.24698837580E-01 0.  0.
         14    1    1    2    0    0  0.23088220294E-01  0.43143767388E-02  0.30604616817E-02  0.23686413588E-01  0.00000000000E+00 0.  1.
     999901    1    3    3    0    0 -0.56548562413E-02  0.11348003055E+00 -0.52751217969E-01  0.88887141125E+00  0.88000000000E+00 0. -1.
        -11    1    4    4    0    0  0.57067263304E-02 -0.15671041730E-01  0.42119364968E-02  0.17209003584E-01  0.51100000000E-03 0. -1.
         11    1    4    4    0    0 -0.23140090383E-01 -0.10212336556E+00  0.45478819790E-01  0.11416317158E+00  0.51100000000E-03 0.  1.
</event>
<event>
 8    1  0.1117714E+005  0.1043930E+01  0.7957747E-01            NaN
         13   -1    0    0    0    0  0.00000000000E+00  0.00000000000E+00  0.74505805969E-08  0.10566000000E+00  0.10566000000E+00 0.  1.
     999900   -1    0    0    0    0 -0.00000000000E+00 -0.00000000000E+00 -0.74505805969E-08  0.93827000000E+00  0.93827000000E+00 0.  1.
     999902    2    1    2    0    0  0.24734086406E-01 -0.14220949015E-02 -0.36601855247E-02  0.10188861516E+01  0.10185783208E+01 0.  0.
     999903    2    3    3    0    0  0.61898758609E-01  0.11140697593E+00 -0.21260686072E-01  0.13072997744E+00  0.19883149313E-01 0.  0.
         14    1    1    2    0    0 -0.24734086406E-01  0.14220949015E-02  0.36601855247E-02  0.25043848393E-01  0.00000000000E+00 0. -1.
     999901    1    3    3    0    0 -0.37164672203E-01 -0.11282907083E+00  0.17600500548E-01  0.88815617416E+00  0.88000000000E+00 0. -1.
        -11    1    4    4    0    0  0.30996121802E-01  0.37087135179E-01 -0.11157974292E-01  0.49608231916E-01  0.51100000000E-03 0.  1.
         11    1    4    4    0    0  0.30902636808E-01  0.74319840753E-01 -0.10102711781E-01  0.81121745528E-01  0.51100000000E-03 0. -1.
</event>
<event>
 8    1  0.1117714E+005  0.1043930E+01  0.7957747E-01            NaN
         13   -1    0    0    0    0  0.00000000000E+00  0.00000000000E+00  0.74505805969E-08  0.10566000000E+00  0.10566000000E+00 0.  1.
     999900   -1    0    0    0    0 -0.00000000000E+00 -0.00000000000E+00 -0.74505805969E-08  0.93827000000E+00  0.93827000000E+00 0.  1.
     999902    2    1    2    0    0 -0.15314761372E-01 -0.11386125711E-01 -0.14899866350E-01  0.10197186020E+01  0.10194311333E+01 0.  0.
     999903    2    3    3    0    0 -0.78803889234E-01  0.21456013316E-01 -0.10246030493E+00  0.13248903429E+00  0.19616744298E-01 0.  0.
         14    1    1    2    0    0  0.15314761372E-01  0.11386125711E-01  0.14899866350E-01  0.24211397974E-01  0.00000000000E+00 0. -1.
     999901    1    3    3    0    0  0.63489127862E-01 -0.32842139027E-01  0.87560438576E-01  0.88722956773E+00  0.88000000000E+00 0. -1.
        -11    1    4    4    0    0 -0.57778634912E-01  0.23300066080E-01 -0.69397666299E-01  0.93260714882E-01  0.51100000000E-03 0.  1.
         11    1    4    4    0    0 -0.21025254322E-01 -0.18440527637E-02 -0.33062638628E-01  0.39228319413E-01  0.51100000000E-03 0. -1.
</event>
<event>
 8    1  0.1117714E+005  0.1043930E+01  0.7957747E-01            NaN
         13   -1    0    0    0    0  0.00000000000E+00  0.00000000000E+00  0.74505805969E-08  0.10566000000E+00  0.10566000000E+00 0. -1.
     999900   -1    0    0    0    0 -0.00000000000E+00 -0.00000000000E+00 -0.74505805969E-08  0.93827000000E+00  0.93827000000E+00 0. -1.
     999902    2    1    2    0    0 -0.11345096843E-01 -0.32594678994E-02  0.20785814713E-01  0.10200263298E+01  0.10197462077E+01 0.  0.
     999903    2    3    3    0    0  0.80918558755E-01 -0.98962209344E-01 -0.71084019559E-02  0.12960525856E+00  0.20141043670E-01 0.  0.
         14    1    1    2    0    0  0.11345096843E-01  0.32594678994E-02 -0.20785814713E-01  0.23903670150E-01  0.00000000000E+00 0.  1.
     999901    1    3    3    0    0 -0.92263655598E-01  0.95702741445E-01  0.27894216669E-01  0.89042107128E+00  0.88000000000E+00 0. -1.
        -11    1    4    4    0    0  0.12239937247E-01 -0.28383645618E-01 -0.84474059141E-03  0.30926074921E-01  0.51100000000E-03 0.  1.
         11    1    4    4    0    0  0.68678621508E-01 -0.70578563726E-01 -0.62636613645E-02  0.98679183644E-01  0.51100000000E-03 0. -1.
</event>
<event>
 8    1  0.1117714E+005  0.1043930E+01  0.7957747E-01            NaN
         13   -1    0    0    0    0  0.00000000000E+00  0.00000000000E+00  0.74505805969E-08  0.10566000000E+00  0.10566000000E+00 0. -1.
     999900   -1    0    0    0    0 -0.00000000000E+00 -0.00000000000E+00 -0.74505805969E-08  0.93827000000E+00  0.93827000000E+00 0.  1.
     999902    2    1    2    0    0  0.23225355097E-02 -0.26449803943E-02  0.24854938249E-01  0.10188270510E+01  0.10185177474E+01 0.  0.
     999903    2    3    3    0    0  0.70928938122E-01  0.13898997276E-01 -0.99896311947E-01  0.12723105725E+00  0.31374709545E-01 0.  0.
         14    1    1    2    0    0 -0.23225355097E-02  0.26449803943E-02 -0.24854938249E-01  0.25102948987E-01  0.00000000000E+00 0.  1.
     999901    1    3    3    0    0 -0.68606402612E-01 -0.16543977671E-01  0.12475125020E+00  0.89159599377E+00  0.88000000000E+00 0. -1.
        -11    1    4    4    0    0  0.19544165071E-01  0.18055717225E-01 -0.26672200857E-01  0.37678252778E-01  0.51100000000E-03 0. -1.
         11    1    4    4    0    0  0.51384773050E-01 -0.41567199490E-02 -0.73224111090E-01  0.89552804468E-01  0.51100000000E-03 0.  1.
</event>
<event>
 8    1  0.1117714E+005  0.1043930E+01  0.7957747E-01            NaN
         13   -1    0    0    0    0  0.00000000000E+00  0.00000000000E+00  0.74505805969E-08  0.10566000000E+00  0.10566000000E+00 0.  1.
     999900   -1    0    0    0    0 -0.00000000000E+00 -0.00000000000E+00 -0.74505805969E-08  0.93827000000E+00  0.93827000000E+00 0.  1.
     999902    2    1    2    0    0 -0.22887486468E-01  0.89538828568E-02 -0.88758643243E-02  0.10177997489E+01  0.10174642691E+01 0.  0.
     999903    2    3    3    0    0 -0.11862111662E+00  0.52832941258E-01 -0.53292232114E-02  0.13151374632E+00  0.20128980595E-01 0.  0.
         14    1    1    2    0    0  0.22887486468E-01 -0.89538828568E-02  0.88758643243E-02  0.26130251099E-01  0.00000000000E+00 0. -1.
     999901    1    3    3    0    0  0.95733630156E-01 -0.43879058402E-01 -0.35466411128E-02  0.88628600258E+00  0.88000000000E+00 0.  1.
        -11    1    4    4    0    0 -0.75901274370E-01  0.43625854647E-01 -0.54288842281E-03  0.87548697841E-01  0.51100000000E-03 0. -1.
         11    1    4    4    0    0 -0.42719842253E-01  0.92070866113E-02 -0.47863347886E-02  0.43965048478E-01  0.51100000000E-03 0.  1.
</event>
<event>
 8    1  0.1117714E+005  0.1043930E+01  0.7957747E-01            NaN
         13   -1    0    0    0    0  0.00000000000E+00  0.00000000000E+00  0.74505805969E-08  0.10566000000E+00  0.10566000000E+00 0. -1.
     999900   -1    0    0    0    0 -0.00000000000E+00 -0.00000000000E+00 -0.74505805969E-08  0.93827000000E+00  0.93827000000E+00 0.  1.
     999902    2    1    2    0    0  0.26397645469E-02  0.23392349097E-01  0.75805310287E-03  0.10203769748E+01  0.10201051052E+01 0.  0.
     999903    2    3    3    0    0 -0.95331944905E-01  0.35092190948E-01 -0.80355865499E-01  0.13115551194E+00  0.20617022294E-01 0.  0.
         14    1    1    2    0    0 -0.26397645469E-02 -0.23392349097E-01 -0.75805310287E-03  0.23553025234E-01  0.00000000000E+00 0.  1.
     999901    1    3    3    0    0  0.97971709452E-01 -0.11699841851E-01  0.81113918602E-01  0.88922146282E+00  0.88000000000E+00 0. -1.
        -11    1    4    4    0    0 -0.39682321243E-01  0.13264425246E-01 -0.46092864837E-01  0.62253071460E-01  0.51100000000E-03 0.  1.
         11    1    4    4    0    0 -0.55649623662E-01  0.21827765702E-01 -0.34263000663E-01  0.68902440484E-01  0.51100000000E-03 0. -1.
</event>
<event>
 8    1  0.1117714E+005  0.1043930E+01  0.7957747E-01            NaN
         13   -1    0    0    0    0  0.00000000000E+00  0.00000000000E+00  0.74505805969E-08  0.10566000000E+00  0.10566000000E+00 0.  1.
     999900   -1    0    0    0    0 -0.00000000000E+00 -0.00000000000E+00 -0.74505805969E-08  0.93827000000E+00  0.93827000000E+00 0.  1.
     999902    2    1    2    0    0  0.21790011897E-01 -0.86969560407E-02  0.14957518220E-03  0.10204680300E+01  0.10201982828E+01 0.  0.
     999903    2    3    3    0    0 -0.27950578490E-01 -0.28105980886E-01 -0.12252129240E+00  0.13035625146E+00  0.20251029674E-01 0.  0.
         14    1    1    2    0    0 -0.21790011897E-01  0.86969560407E-02 -0.14957518220E-03  0.23461969985E-01  0.00000000000E+00 0. -1.
     999901    1    3    3    0    0  0.49740590387E-01  0.19409024845E-01  0.12267086758E+00  0.89011177856E+00  0.88000000000E+00 0. -1.
        -11    1    4    4    0    0 -0.15156619674E-01 -0.12665508719E-01 -0.31757449140E-01  0.37402338536E-01  0.51100000000E-03 0. -1.
         11    1    4    4    0    0 -0.12793958816E-01 -0.15440472167E-01 -0.90763843259E-01  0.92953912920E-01  0.51100000000E-03 0.  1.
</event>
<event>
 8    1  0.1117714E+005  0.1043930E+01  0.7957747E-01            NaN
         13   -1    0    0    0    0  0.00000000000E+00  0.00000000000E+00  0.74505805969E-08  0.10566000000E+00  0.10566000000E+00 0.  1.
     999900   -1    0    0    0    0 -0.00000000000E+00 -0.00000000000E+00 -0.74505805969E-08  0.93827000000E+00  0.93827000000E+00 0. -1.
     999902    2    1    2    0    0 -0.98987972898E-02 -0.13361158987E-01 -0.14806735366E-01  0.10216646419E+01  0.10214219963E+01 0.  0.
     999903    2    3    3    0    0  0.43409387569E-01  0.14304043834E-01  0.11937031667E+00  0.12947037648E+00  0.20599157401E-01 0.  0.
         14    1    1    2    0    0  0.98987972898E-02  0.13361158987E-01  0.14806735366E-01  0.22265358058E-01  0.00000000000E+00 0.  1.
     999901    1    3    3    0    0 -0.53308184859E-01 -0.27665202821E-01 -0.13417705204E+00  0.89219426546E+00  0.88000000000E+00 0. -1.
        -11    1    4    4    0    0  0.28349646707E-01  0.96576146796E-03  0.52991697369E-01  0.60108371087E-01  0.51100000000E-03 0. -1.
         11    1    4    4    0    0  0.15059740862E-01  0.13338282366E-01  0.66378619303E-01  0.69362005398E-01  0.51100000000E-03 0.  1.
</event>
<event>
 8    1  0.1117714E+005  0.1043930E+01  0.7957747E-01            NaN
         13   -1    0    0    0    0  0.00000000000E+00  0.00000000000E+00  0.74505805969E-08  0.10566000000E+00  0.10566000000E+00 0. -1.
     999900   -1    0    0    0    0 -0.00000000000E+00 -0.00000000000E+00 -0.74505805969E-08  0.93827000000E+00  0.93827000000E+00 0.  1.
     999902    2    1    2    0    0  0.10026306277E-01  0.18499646404E-01  0.82459173982E-02  0.10213300246E+01  0.10210799480E+01 0.  0.
     999903    2    3    3    0    0 -0.69947000578E-01  0.82569364526E-01 -0.72199078291E-01  0.13173907594E+00  0.20789285122E-01 0.  0.
         14    1    1    2    0    0 -0.10026306277E-01 -0.18499646404E-01 -0.82459173982E-02  0.22599975407E-01  0.00000000000E+00 0.  1.
     999901    1    3    3    0    0  0.79973306856E-01 -0.64069718122E-01  0.80444995690E-01  0.88959094865E+00  0.88000000000E+00 0. -1.
        -11    1    4    4    0    0 -0.44989824128E-01  0.37588258754E-01 -0.41538848848E-01  0.71851921031E-01  0.51100000000E-03 0. -1.
         11    1    4    4    0    0 -0.24957176451E-01  0.44981105773E-01 -0.30660229443E-01  0.59887154912E-01  0.51100000000E-03 0.  1.
</event>
<event>
 8    1  0.1117714E+005  0.1043930E+01  0.7957747E-01            NaN
         13   -1    0    0    0    0  0.00000000000E+00  0.00000000000E+00  0.74505805969E-08  0.10566000000E+00  0.10566000000E+00 0. -1.
     999900   -1    0    0    0    0 -0.00000000000E+00 -0.00000000000E+00 -0.74505805969E-08  0.93827000000E+00  0.93827000000E+00 0.  1.
     999902    2    1    2    0    0  0.32553208772E-02 -0.73861481962E-02 -0.22164486345E-01  0.10203415123E+01  0.10200688138E+01 0.  0.
     999903    2    3    3    0    0  0.26113277719E-01  0.80584589955E-01  0.93637855693E-01  0.12811311135E+00  0.21659683034E-01 0.  0.
         14    1    1    2    0    0 -0.32553208772E-02  0.73861481962E-02  0.22164486345E-01  0.23588487745E-01  0.00000000000E+00 0. -1.
     999901    1    3    3    0    0 -0.22857956842E-01 -0.87970738151E-01 -0.11580234204E+00  0.89222840091E+00  0.88000000000E+00 0.  1.
        -11    1    4    4    0    0  0.26922831926E-02  0.20641537208E-01  0.11574691280E-01  0.23823434814E-01  0.51100000000E-03 0. -1.
         11    1    4    4    0    0  0.23420994527E-01  0.59943052747E-01  0.82063164413E-01  0.10428967653E+00  0.51100000000E-03 0.  1.
</event>
<event>
 8    1  0.1117714E+005  0.1043930E+01  0.7957747E-01            NaN
         13   -1    0    0    0    0  0.00000000000E+00  0.00000000000E+00  0.74505805969E-08  0.10566000000E+00  0.10566000000E+00 0.  1.
     999900   -1    0    0    0    0 -0.00000000000E+00 -0.00000000000E+00 -0.74505805969E-08  0.93827000000E+00  0.93827000000E+00 0. -1.
     999902    2    1    2    0    0 -0.83561142034E-02 -0.24315126783E-01 -0.14101330543E-02  0.10181804658E+01  0.10178548140E+01 0.  0.
     999903    2    3    3    0    0 -0.92254723392E-01 -0.49510140268E-01  0.75433866947E-01  0.13049878545E+00  0.19428760766E-01 0.  0.
         14    1    1    2    0    0  0.83561142034E-02  0.24315126783E-01  0.14101330543E-02  0.25749534176E-01  0.00000000000E+00 0.  1.
     999901    1    3    3    0    0  0.83898609189E-01  0.25195013484E-01 -0.76844000001E-01  0.88768168037E+00  0.88000000000E+00 0. -1.
        -11    1    4    4    0    0 -0.67090013417E-02 -0.46252009538E-02  0.13393255592E-01  0.15685776972E-01  0.51100000000E-03 0. -1.
         11    1    4    4    0    0 -0.85545722051E-01 -0.44884939314E-01  0.62040611354E-01  0.11481300848E+00  0.51100000000E-03 0.  1.
</event>
<event>
 8    1  0.1117714E+005  0.1043930E+01  0.7957747E-01            NaN
         13   -1    0    0    0    0  0.00000000000E+00  0.00000000000E+00  0.74505805969E-08  0.10566000000E+00  0.10566000000E+00 0. -1.
     999900   -1    0    0    0    0 -0.00000000000E+00 -0.00000000000E+00 -0.74505805969E-08  0.93827000000E+00  0.93827000000E+00 0. -1.
     999902    2    1    2    0    0  0.11919264880E-01  0.16141976112E-01  0.12555619042E-01  0.10202598535E+01  0.10199852414E+01 0.  0.
     999903    2    3    3    0    0  0.10536238515E-01 -0.66668117799E-01  0.11031122160E+00  0.13098172921E+00  0.20784550139E-01 0.  0.
         14    1    1    2    0    0 -0.11919264880E-01 -0.16141976112E-01 -0.12555619042E-01  0.23670146548E-01  0.00000000000E+00 0.  1.
     999901    1    3    3    0    0  0.13830263655E-02  0.82810093911E-01 -0.97755602558E-01  0.88927812424E+00  0.88000000000E+00 0. -1.
        -11    1    4    4    0    0  0.15692025086E-01 -0.54297333678E-01  0.95726688904E-01  0.11116789188E+00  0.51100000000E-03 0.  1.
         11    1    4    4    0    0 -0.51557865712E-02 -0.12370784121E-01  0.14584532696E-01  0.19813837334E-01  0.51100000000E-03 0. -1.
</event>
<event>
 8    1  0.1117714E+005  0.1043930E+01  0.7957747E-01            NaN
         13   -1    0    0    0    0  0.00000000000E+00  0.00000000000E+00  0.74505805969E-08  0.10566000000E+00  0.10566000000E+00 0.  1.
     999900   -1    0    0    0    0 -0.00000000000E+00 -0.00000000000E+00 -0.74505805969E-08  0.93827000000E+00  0.93827000000E+00 0.  1.
     999902    2    1    2    0    0  0.45350202570E-02  0.10294605885E-01  0.20505298009E-01  0.10205417002E+01  0.10202736640E+01 0.  0.
     999903    2    3    3    0    0 -0.76778735209E-01 -0.79903469051E-01  0.67130296545E-01  0.13097916167E+00  0.19223046844E-01 0.  0.
         14    1    1    2    0    0 -0.45350202570E-02 -0.10294605885E-01 -0.20505298009E-01  0.23388299757E-01  0.00000000000E+00 0. -1.
     999901    1    3    3    0    0  0.81313755466E-01  0.90198074937E-01 -0.46624998536E-01  0.88956253858E+00  0.88000000000E+00 0.  1.
        -11    1    4    4    0    0 -0.49289747510E-01 -0.63660481114E-01  0.49211529572E-01  0.94361919380E-01  0.51100000000E-03 0. -1.
         11    1    4    4    0    0 -0.27488987699E-01 -0.16242987937E-01  0.17918766973E-01  0.36617242286E-01  0.51100000000E-03 0.  1.
</event>
<event>
 8    1  0.1117714E+005  0.1043930E+01  0.7957747E-01            NaN
         13   -1    0    0    0    0  0.00000000000E+00  0.00000000000E+00  0.74505805969E-08  0.10566000000E+00  0.10566000000E+00 0. -1.
     999900   -1    0    0    0    0 -0.00000000000E+00 -0.00000000000E+00 -0.74505805969E-08  0.93827000000E+00  0.93827000000E+00 0.  1.
     999902    2    1    2    0    0  0.91340181687E-02 -0.13748344614E-01  0.16573133508E-01  0.10205394886E+01  0.10202714011E+01 0.  0.
     999903    2    3    3    0    0 -0.79681584834E-01  0.12325660368E-01 -0.97943346306E-01  0.12830516447E+00  0.19189561720E-01 0.  0.
         14    1    1    2    0    0 -0.91340181687E-02  0.13748344614E-01 -0.16573133508E-01  0.23390511362E-01  0.00000000000E+00 0. -1.
     999901    1    3    3    0    0  0.88815603003E-01 -0.26074004981E-01  0.11451647981E+00  0.89223432417E+00  0.88000000000E+00 0. -1.
        -11    1    4    4    0    0 -0.71186514879E-01  0.98800239234E-02 -0.75794733273E-01  0.10445208225E+00  0.51100000000E-03 0.  1.
         11    1    4    4    0    0 -0.84950699554E-02  0.24456364442E-02 -0.22148613033E-01  0.23853082221E-01  0.51100000000E-03 0. -1.
</event>
<event>
 8    1  0.1117714E+005  0.1043930E+01  0.7957747E-01            NaN
         13   -1    0    0    0    0  0.00000000000E+00  0.00000000000E+00  0.74505805969E-08  0.10566000000E+00  0.10566000000E+00 0. -1.
     999900   -1    0    0    0    0 -0.00000000000E+00 -0.00000000000E+00 -0.74505805969E-08  0.93827000000E+00  0.93827000000E+00 0.  1.
     999902    2    1    2    0    0  0.10225168293E-01 -0.15966123187E-01 -0.16547678193E-01  0.10187646109E+01  0.10184537474E+01 0.  0.
     999903    2    3    3    0    0 -0.40611560562E-01 -0.11099808711E+00 -0.53844033450E-01  0.13140534582E+00  0.19957724744E-01 0.  0.
         14    1    1    2    0    0 -0.10225168293E-01  0.15966123187E-01  0.16547678193E-01  0.25165389125E-01  0.00000000000E+00 0. -1.
     999901    1    3    3    0    0  0.50836728855E-01  0.95031963927E-01  0.37296355258E-01  0.88735926506E+00  0.88000000000E+00 0. -1.
        -11    1    4    4    0    0 -0.18854352309E-01 -0.53921006932E-01 -0.36926636683E-01  0.68020579292E-01  0.51100000000E-03 0.  1.
         11    1    4    4    0    0 -0.21757208253E-01 -0.57077080182E-01 -0.16917396767E-01  0.63384766525E-01  0.51100000000E-03 0. -1.
</event>
<event>
 8    1  0.1117714E+005  0.1043930E+01  0.7957747E-01            NaN
         13   -1    0    0    0    0  0.00000000000E+00  0.00000000000E+00  0.74505805969E-08  0.10566000000E+00  0.10566000000E+00 0. -1.
     999900   -1    0    0    0    0 -0.00000000000E+00 -0.00000000000E+00 -0.74505805969E-08  0.93827000000E+00  0.93827000000E+00 0.  1.
     999902    2    1    2    0    0 -0.24029375507E-01 -0.13927835669E-02 -0.28107637068E-02  0.10196967351E+01  0.10194087407E+01 0.  0.
     999903    2    3    3    0    0 -0.64589340733E-01  0.11187166863E+00  0.13212760868E-01  0.13136644732E+00  0.19887514990E-01 0.  0.
         14    1    1    2    0    0  0.24029375507E-01  0.13927835669E-02  0.28107637068E-02  0.24233264863E-01  0.00000000000E+00 0. -1.
     999901    1    3    3    0    0  0.40559965226E-01 -0.11326445220E+00 -0.16023524574E-01  0.88833028782E+00  0.88000000000E+00 0.  1.
        -11    1    4    4    0    0 -0.30144655209E-01  0.43527443877E-01  0.14217835029E-01  0.54824689348E-01  0.51100000000E-03 0. -1.
         11    1    4    4    0    0 -0.34444685524E-01  0.68344224757E-01 -0.10050741613E-02  0.76541757973E-01  0.51100000000E-03 0.  1.
</event>
<event>
 8    1  0.1117714E+005  0.1043930E+01  0.7957747E-01            NaN
         13   -1    0    0    0    0  0.00000000000E+00  0.00000000000E+00  0.74505805969E-08  0.10566000000E+00  0.10566000000E+00 0.  1.
     999900   -1    0    0    0    0 -0.00000000000E+00 -0.00000000000E+00 -0.74505805969E-08  0.93827000000E+00  0.93827000000E+00 0.  1.
     999902    2    1    2    0    0 -0.17004003395E-01 -0.14334355110E-01 -0.75318287168E-02  0.10204494056E+01  0.10201792250E+01 0.  0.
     999903    2    3    3    0    0  0.11874752148E-01  0.10819514411E+00 -0.66973179817E-01  0.12950567289E+00  0.20955036339E-01 0.  0.
         14    1    1    2    0    0  0.17004003395E-01  0.14334355110E-01  0.75318287168E-02  0.23480594364E-01  0.00000000000E+00 0. -1.
     999901    1    3    3    0    0 -0.28878755543E-01 -0.12252949922E+00  0.59441351100E-01  0.89094373275E+00  0.88000000000E+00 0. -1.
        -11    1    4    4    0    0  0.16893975662E-01  0.63312570974E-01 -0.42925811021E-01  0.78337567168E-01  0.51100000000E-03 0.  1.
         11    1    4    4    0    0 -0.50192235143E-02  0.44882573137E-01 -0.24047368796E-01  0.51168105721E-01  0.51100000000E-03 0. -1.
</event>
<event>
 8    1  0.1117714E+005  0.1043930E+01  0.7957747E-01            NaN
         13   -1    0    0    0    0  0.00000000000E+00  0.00000000000E+00  0.74505805969E-08  0.10566000000E+00  0.10566000000E+00 0.  1.
     999900   -1    0    0    0    0 -0.00000000000E+00 -0.00000000000E+00 -0.74505805969E-08  0.93827000000E+00  0.93827000000E+00 0.  1.
     999902    2    1    2    0    0  0.99064886964E-02 -0.10578021797E-01 -0.20785320234E-01  0.10185910458E+01  0.10182758251E+01 0.  0.
     999903    2    3    3    0    0 -0.10462979071E-01  0.42947802936E-01 -0.12167825319E+00  0.13097665144E+00  0.19882107885E-01 0.  0.
         14    1    1    2    0    0 -0.99064886964E-02  0.10578021797E-01  0.20785320234E-01  0.25338954214E-01  0.00000000000E+00 0.  1.
     999901    1    3    3    0    0  0.20369467767E-01 -0.53525824733E-01  0.10089293296E+00  0.88761439435E+00  0.88000000000E+00 0.  1.
        -11    1    4    4    0    0 -0.11377718224E-01  0.11361290580E-01 -0.52750226232E-01  0.55148697937E-01  0.51100000000E-03 0. -1.
         11    1    4    4    0    0  0.91473915278E-03  0.31586512356E-01 -0.68928026962E-01  0.75827953502E-01  0.51100000000E-03 0.  1.
</event>
<event>
 8    1  0.1117714E+005  0.1043930E+01  0.7957747E-01            NaN
         13   -1    0    0    0    0  0.00000000000E+00  0.00000000000E+00  0.74505805969E-08  0.10566000000E+00  0.10566000000E+00 0. -1.
     999900   -1    0    0    0    0 -0.00000000000E+00 -0.00000000000E+00 -0.74505805969E-08  0.93827000000E+00  0.93827000000E+00 0.  1.
     999902    2    1    2    0    0  0.18462334612E-01 -0.13270645448E-01  0.68622103834E-02  0.10201800998E+01  0.10199036122E+01 0.  0.
     999903    2    3    3    0    0 -0.47697429623E-01  0.67459869325E-01  0.98899061126E-01  0.12924502227E+00  0.98677620087E-02 0.  0.
         14    1    1    2    0    0 -0.18462334612E-01  0.13270645448E-01 -0.68622103834E-02  0.23749900237E-01  0.00000000000E+00 0.  1.
     999901    1    3    3    0    0  0.66159764234E-01 -0.80730514773E-01 -0.92036850743E-01  0.89093507750E+00  0.88000000000E+00 0.  1.
        -11    1    4    4    0    0 -0.29798655691E-01  0.49454439889E-01  0.71137309517E-01  0.91621391781E-01  0.51100000000E-03 0. -1.
         11    1    4    4    0    0 -0.17898773932E-01  0.18005429436E-01  0.27761751610E-01  0.37623630485E-01  0.51100000000E-03 0.  1.
</event>
<event>
 8    1  0.1117714E+005  0.1043930E+01  0.7957747E-01            NaN
         13   -1    0    0    0    0  0.00000000000E+00  0.00000000000E+00  0.74505805969E-08  0.10566000000E+00  0.10566000000E+00 0. -1.
     999900   -1    0    0    0    0 -0.00000000000E+00 -0.00000000000E+00 -0.74505805969E-08  0.93827000000E+00  0.93827000000E+00 0.  1.
     999902    2    1    2    0    0  0.79592606845E-02  0.18111630883E-01 -0.12239586432E-01  0.10206665420E+01  0.10204013923E+01 0.  0.
     999903    2    3    3    0    0 -0.31426898603E-01 -0.77146869362E-01  0.95289977906E-01  0.12814872218E+00  0.20065535129E-01 0.  0.
         14    1    1    2    0    0 -0.79592606845E-02 -0.18111630883E-01  0.12239586432E-01  0.23263458039E-01  0.00000000000E+00 0. -1.
     999901    1    3    3    0    0  0.39386159288E-01  0.95258500245E-01 -0.10752956434E+00  0.89251781978E+00  0.88000000000E+00 0.  1.
        -11    1    4    4    0    0 -0.11045701996E-01 -0.87039710199E-02  0.19067069268E-01  0.23697698107E-01  0.51100000000E-03 0.  1.
         11    1    4    4    0    0 -0.20381196607E-01 -0.68442898342E-01  0.76222908638E-01  0.10445102408E+00  0.51100000000E-03 0. -1.
</event>
<event>
 8    1  0.1117714E+005  0.1043930E+01  0.7957747E-01            NaN
         13   -1    0    0    0    0  0.00000000000E+00  0.00000000000E+00  0.74505805969E-08  0.10566000000E+00  0.10566000000E+00 0. -1.
     999900   -1    0    0    0    0 -0.00000000000E+00 -0.00000000000E+00 -0.74505805969E-08  0.93827000000E+00  0.93827000000E+00 0. -1.
     999902    2    1    2    0    0  0.21945737193E-01  0.54678381209E-02  0.38912990185E-02  0.10209810383E+01  0.10207230896E+01 0.  0.
     999903    2    3    3    0    0 -0.95042677661E-01  0.33741886340E-01 -0.79508331865E-01  0.12888171119E+00  0.10830289598E-01 0.  0.
         14    1    1    2    0    0 -0.21945737193E-01 -0.54678381209E-02 -0.38912990185E-02  0.22948961692E-01  0.00000000000E+00 0.  1.
     999901    1    3    3    0    0  0.11698841485E+00 -0.28274048219E-01  0.83399630883E-01  0.89209932712E+00  0.88000000000E+00 0. -1.
        -11    1    4    4    0    0 -0.57751661660E-01  0.16840309684E-01 -0.52356836394E-01  0.79751801816E-01  0.51100000000E-03 0. -1.
         11    1    4    4    0    0 -0.37291016000E-01  0.16901576657E-01 -0.27151495471E-01  0.49129909374E-01  0.51100000000E-03 0.  1.
</event>
<event>
 8    1  0.1117714E+005  0.1043930E+01  0.7957747E-01            NaN
         13   -1    0    0    0    0  0.00000000000E+00  0.00000000000E+00  0.74505805969E-08  0.10566000000E+00  0.10566000000E+00 0. -1.
     999900   -1    0    0    0    0 -0.00000000000E+00 -0.00000000000E+00 -0.74505805969E-08  0.93827000000E+00  0.93827000000E+00 0. -1.
     999902    2    1    2    0    0  0.10932343821E-01 -0.11318341364E-01  0.16052841660E-01  0.10214507937E+01  0.10212034122E+01 0.  0.
     999903    2    3    3    0    0  0.74320275328E-01  0.43737669040E-01 -0.95182067091E-01  0.13048367918E+00  0.23019070775E-01 0.  0.
         14    1    1    2    0    0 -0.10932343821E-01  0.11318341364E-01 -0.16052841660E-01  0.22479206347E-01  0.00000000000E+00 0.  1.
     999901    1    3    3    0    0 -0.63387931507E-01 -0.55056010405E-01  0.11123490875E+00  0.89096711447E+00  0.88000000000E+00 0. -1.
        -11    1    4    4    0    0  0.30379488729E-01  0.68880876202E-02 -0.41811781527E-01  0.52142547713E-01  0.51100000000E-03 0.  1.
         11    1    4    4    0    0  0.43940786599E-01  0.36849581420E-01 -0.53370285564E-01  0.78341131470E-01  0.51100000000E-03 0. -1.
</event>
<event>
 8    1  0.1117714E+005  0.1043930E+01  0.7957747E-01            NaN
         13   -1    0    0    0    0  0.00000000000E+00  0.00000000000E+00  0.74505805969E-08  0.10566000000E+00  0.10566000000E+00 0. -1.
     999900   -1    0    0    0    0 -0.00000000000E+00 -0.00000000000E+00 -0.74505805969E-08  0.93827000000E+00  0.93827000000E+00 0.  1.
     999902    2    1    2    0    0 -0.23938185760E-01  0.42672739903E-02  0.56107173657E-02  0.10189755111E+01  0.10186699003E+01 0.  0.
     999903    2    3    3    0    0 -0.65361476203E-01 -0.14384132866E-01 -0.11010181226E+00  0.13023868087E+00  0.18991552895E-01 0.  0.
         14    1    1    2    0    0  0.23938185760E-01 -0.42672739903E-02 -0.56107173657E-02  0.24954488858E-01  0.00000000000E+00 0. -1.
     999901    1    3    3    0    0  0.41423290443E-01  0.18651406856E-01  0.11571252963E+00  0.88873683027E+00  0.88000000000E+00 0. -1.
        -11    1    4    4    0    0 -0.44716974040E-01 -0.12758570716E-01 -0.90353132449E-01  0.10161859357E+00  0.51100000000E-03 0.  1.
         11    1    4    4    0    0 -0.20644502164E-01 -0.16255621494E-02 -0.19748679814E-01  0.28620087304E-01  0.51100000000E-03 0. -1.
</event>
<event>
 8    1  0.1117714E+005  0.1043930E+01  0.7957747E-01            NaN
         13   -1    0    0    0    0  0.00000000000E+00  0.00000000000E+00  0.74505805969E-08  0.10566000000E+00  0.10566000000E+00 0.  1.
     999900   -1    0    0    0    0 -0.00000000000E+00 -0.00000000000E+00 -0.74505805969E-08  0.93827000000E+00  0.93827000000E+00 0. -1.
     999902    2    1    2    0    0 -0.90674861375E-02  0.17628170940E-01  0.12479901773E-01  0.10205052340E+01  0.10202363515E+01 0.  0.
     999903    2    3    3    0    0 -0.11533751197E+00  0.50316895140E-01 -0.35330904844E-01  0.13222163944E+00  0.19993936424E-01 0.  0.
         14    1    1    2    0    0  0.90674861375E-02 -0.17628170940E-01 -0.12479901773E-01  0.23424766035E-01  0.00000000000E+00 0. -1.
     999901    1    3    3    0    0  0.10627002583E+00 -0.32688724200E-01  0.47810806617E-01  0.88828359453E+00  0.88000000000E+00 0.  1.
        -11    1    4    4    0    0 -0.29479518349E-01  0.82816874062E-02 -0.98166530424E-03  0.30640710438E-01  0.51100000000E-03 0.  1.
         11    1    4    4    0    0 -0.85857993622E-01  0.42035207734E-01 -0.34349239539E-01  0.10158092900E+00  0.51100000000E-03 0. -1.
</event>
<event>
 8    1  0.1117714E+005  0.1043930E+01  0.7957747E-01            NaN
         13   -1    0    0    0    0  0.00000000000E+00  0.00000000000E+00  0.74505805969E-08  0.10566000000E+00  0.10566000000E+00 0. -1.
     999900   -1    0    0    0    0 -0.00000000000E+00 -0.00000000000E+00 -0.74505805969E-08  0.93827000000E+00  0.93827000000E+00 0.  1.
     999902    2    1    2    0    0  0.12518580987E-01 -0.33910172724E-01 -0.25201002065E-02  0.10076951330E+01  0.10070434526E+01 0.  0.
     999903    2    3    3    0    0 -0.88314178028E-02  0.70703689650E-01  0.90082641897E-01  0.11641787504E+00  0.19006146022E-01 0.  0.
         14    1    1    2    0    0 -0.12518580987E-01  0.33910172724E-01  0.25201002065E-02  0.36234867037E-01  0.00000000000E+00 0.  1.
     999901    1    3    3    0    0  0.21349998790E-01 -0.10461386237E+00 -0.92602742104E-01  0.89127725793E+00  0.88000000000E+00 0.  1.
        -11    1    4    4    0    0 -0.13422158430E-01  0.52524623990E-01  0.73841075853E-01  0.91606528514E-01  0.51100000000E-03 0. -1.
         11    1    4    4    0    0  0.45907406269E-02  0.18179065660E-01  0.16241566044E-01  0.24811346524E-01  0.51100000000E-03 0.  1.
</event>
<event>
 7    1  0.1117714E+005  0.1043930E+01  0.7957747E-01            NaN
         13   -1    0    0    0    0  0.00000000000E+00  0.00000000000E+00  0.74505805969E-08  0.10566000000E+00  0.10566000000E+00 0. -1.
     999900   -1    0    0    0    0 -0.00000000000E+00 -0.00000000000E+00 -0.74505805969E-08  0.93827000000E+00  0.93827000000E+00 0. -1.
     999903    2    1    2    0    0 -0.13341297062E-02 -0.20223666933E-02 -0.10132166544E+00  0.10365044750E+00  0.21713256564E-01 0.  0.
         14    1    1    2    0    0 -0.25329306280E-01 -0.40599964001E-01 -0.17329743993E-01  0.50894507173E-01  0.00000000000E+00 0.  1.
     999901    1    1    2    0    0  0.26663435987E-01  0.42622330695E-01  0.11865140943E+00  0.88938504533E+00  0.88000000000E+00 0.  1.
        -11    1    3    3    0    0 -0.75097487449E-02 -0.55986804413E-02 -0.20871824377E-01  0.22883088137E-01  0.51100000000E-03 0.  1.
         11    1    3    3    0    0  0.61756190386E-02  0.35763137481E-02 -0.80449841061E-01  0.80767359361E-01  0.51100000000E-03 0. -1.
</event>
<event>
 8    1  0.1117714E+005  0.1043930E+01  0.7957747E-01            NaN
         13   -1    0    0    0    0  0.00000000000E+00  0.00000000000E+00  0.74505805969E-08  0.10566000000E+00  0.10566000000E+00 0. -1.
     999900   -1    0    0    0    0 -0.00000000000E+00 -0.00000000000E+00 -0.74505805969E-08  0.93827000000E+00  0.93827000000E+00 0.  1.
     999902    2    1    2    0    0 -0.93322605802E-02 -0.20416291578E-01  0.73528297899E-02  0.10203083964E+01  0.10200349228E+01 0.  0.
     999903    2    3    3    0    0  0.10162121204E+00 -0.41591086373E-01  0.68339623838E-01  0.13099493422E+00  0.20800947145E-01 0.  0.
         14    1    1    2    0    0  0.93322605802E-02  0.20416291578E-01 -0.73528297899E-02  0.23621603571E-01  0.00000000000E+00 0.  1.
     999901    1    3    3    0    0 -0.11095347262E+00  0.21174794796E-01 -0.60986794048E-01  0.88931346221E+00  0.88000000000E+00 0. -1.
        -11    1    4    4    0    0  0.51832035106E-01 -0.19546471920E-01  0.22412793541E-01  0.59759675895E-01  0.51100000000E-03 0.  1.
         11    1    4    4    0    0  0.49789176935E-01 -0.22044614453E-01  0.45926830297E-01  0.71235258324E-01  0.51100000000E-03 0. -1.
</event>
<event>
 8    1  0.1117714E+005  0.1043930E+01  0.7957747E-01            NaN
         13   -1    0    0    0    0  0.00000000000E+00  0.00000000000E+00  0.74505805969E-08  0.10566000000E+00  0.10566000000E+00 0. -1.
     999900   -1    0    0    0    0 -0.00000000000E+00 -0.00000000000E+00 -0.74505805969E-08  0.93827000000E+00  0.93827000000E+00 0.  1.
     999902    2    1    2    0    0  0.10862779712E-01  0.19218431189E-01 -0.10456264416E-01  0.10195029342E+01  0.10192102586E+01 0.  0.
     999903    2    3    3    0    0  0.35143144637E-01  0.57574717607E-01 -0.11237319364E+00  0.13245851514E+00  0.19173806659E-01 0.  0.
         14    1    1    2    0    0 -0.10862779712E-01 -0.19218431189E-01  0.10456264416E-01  0.24427065848E-01  0.00000000000E+00 0.  1.
     999901    1    3    3    0    0 -0.24280364925E-01 -0.38356286418E-01  0.10191692923E+00  0.88704441901E+00  0.88000000000E+00 0. -1.
        -11    1    4    4    0    0  0.97509927907E-02  0.34330900890E-01 -0.57942882853E-01  0.68053886080E-01  0.51100000000E-03 0.  1.
         11    1    4    4    0    0  0.25392151846E-01  0.23243816716E-01 -0.54430310792E-01  0.64404629064E-01  0.51100000000E-03 0. -1.
</event>
<event>
 8    1  0.1117714E+005  0.1043930E+01  0.7957747E-01            NaN
         13   -1    0    0    0    0  0.00000000000E+00  0.00000000000E+00  0.74505805969E-08  0.10566000000E+00  0.10566000000E+00 0. -1.
     999900   -1    0    0    0    0 -0.00000000000E+00 -0.00000000000E+00 -0.74505805969E-08  0.93827000000E+00  0.93827000000E+00 0.  1.
     999902    2    1    2    0    0 -0.22801358888E-01 -0.81818416597E-02 -0.80149760786E-02  0.10184136456E+01  0.10180939393E+01 0.  0.
     999903    2    3    3    0    0  0.12316865679E+00  0.16454633348E-02 -0.18599074761E-01  0.12627248831E+00  0.20629836542E-01 0.  0.
         14    1    1    2    0    0  0.22801358888E-01  0.81818416597E-02  0.80149760786E-02  0.25516354395E-01  0.00000000000E+00 0. -1.
     999901    1    3    3    0    0 -0.14597001568E+00 -0.98273049945E-02  0.10584098682E-01  0.89214115730E+00  0.88000000000E+00 0. -1.
        -11    1    4    4    0    0  0.62723837695E-01  0.75332069294E-02 -0.17394322006E-01  0.65527494847E-01  0.51100000000E-03 0.  1.
         11    1    4    4    0    0  0.60444819096E-01 -0.58877435946E-02 -0.12047527549E-02  0.60744993460E-01  0.51100000000E-03 0. -1.
</event>
<event>
 8    1  0.1117714E+005  0.1043930E+01  0.7957747E-01            NaN
         13   -1    0    0    0    0  0.00000000000E+00  0.00000000000E+00  0.74505805969E-08  0.10566000000E+00  0.10566000000E+00 0. -1.
     999900   -1    0    0    0    0 -0.00000000000E+00 -0.00000000000E+00 -0.74505805969E-08  0.93827000000E+00  0.93827000000E+00 0. -1.
     999902    2    1    2    0    0  0.19401510003E-01  0.10694954626E-02 -0.17439469186E-01  0.10178206627E+01  0.10174857266E+01 0.  0.
     999903    2    3    3    0    0 -0.82805501974E-01 -0.12104860008E-01 -0.95932436864E-01  0.12833711424E+00  0.16251266248E-01 0.  0.
         14    1    1    2    0    0 -0.19401510003E-01 -0.10694954626E-02  0.17439469186E-01  0.26109337342E-01  0.00000000000E+00 0.  1.
     999901    1    3    3    0    0  0.10220701198E+00  0.13174355471E-01  0.78492967678E-01  0.88948354842E+00  0.88000000000E+00 0.  1.
        -11    1    4    4    0    0 -0.51468227717E-01 -0.39657582980E-02 -0.69277970222E-01  0.86396782245E-01  0.51100000000E-03 0.  1.
         11    1    4    4    0    0 -0.31337274257E-01 -0.81391017104E-02 -0.26654466642E-01  0.41940331990E-01  0.51100000000E-03 0. -1.
</event>
<event>
 8    1  0.1117714E+005  0.1043930E+01  0.7957747E-01            NaN
         13   -1    0    0    0    0  0.00000000000E+00  0.00000000000E+00  0.74505805969E-08  0.10566000000E+00  0.10566000000E+00 0.  1.
     999900   -1    0    0    0    0 -0.00000000000E+00 -0.00000000000E+00 -0.74505805969E-08  0.93827000000E+00  0.93827000000E+00 0. -1.
     999902    2    1    2    0    0 -0.13874886469E-01  0.13185296193E-01 -0.14238156549E-01  0.10200744008E+01  0.10197954175E+01 0.  0.
     999903    2    3    3    0    0 -0.11751941276E-01  0.10568034810E+00  0.73545076313E-01  0.13088053136E+00  0.20356599399E-01 0.  0.
         14    1    1    2    0    0  0.13874886469E-01 -0.13185296193E-01  0.14238156549E-01  0.23855599178E-01  0.00000000000E+00 0.  1.
     999901    1    3    3    0    0 -0.21229451926E-02 -0.92495051911E-01 -0.87783232862E-01  0.88919386947E+00  0.88000000000E+00 0. -1.
        -11    1    4    4    0    0  0.30800736622E-03  0.21363370632E-01  0.24815207071E-01  0.32749719026E-01  0.51100000000E-03 0.  1.
         11    1    4    4    0    0 -0.12059948643E-01  0.84316977472E-01  0.48729869241E-01  0.98130812330E-01  0.51100000000E-03 0. -1.
</event>
<event>
 8    1  0.1117714E+005  0.1043930E+01  0.7957747E-01            NaN
         13   -1    0    0    0    0  0.00000000000E+00  0.00000000000E+00  0.74505805969E-08  0.10566000000E+00  0.10566000000E+00 0.  1.
     999900   -1    0    0    0    0 -0.00000000000E+00 -0.00000000000E+00 -0.74505805969E-08  0.93827000000E+00  0.93827000000E+00 0.  1.
     999902    2    1    2    0    0 -0.83778675673E-02 -0.14005295497E-02  0.22162334774E-01  0.10201956529E+01  0.10199195316E+01 0.  0.
     999903    2    3    3    0    0  0.86047348149E-01 -0.10749591577E-01  0.97739810641E-01  0.13187393127E+00  0.17831526065E-01 0.  0.
         14    1    1    2    0    0  0.83778675673E-02  0.14005295497E-02 -0.22162334774E-01  0.23734347066E-01  0.00000000000E+00 0. -1.
     999901    1    3    3    0    0 -0.94425215716E-01  0.93490620269E-02 -0.75577475866E-01  0.88832172167E+00  0.88000000000E+00 0.  1.
        -11    1    4    4    0    0  0.45349742813E-01 -0.10565960145E-01  0.40991691549E-01  0.62038847378E-01  0.51100000000E-03 0. -1.
         11    1    4    4    0    0  0.40697605336E-01 -0.18363143120E-03  0.56748119092E-01  0.69835083891E-01  0.51100000000E-03 0.  1.
</event>
<event>
 8    1  0.1117714E+005  0.1043930E+01  0.7957747E-01            NaN
         13   -1    0    0    0    0  0.00000000000E+00  0.00000000000E+00  0.74505805969E-08  0.10566000000E+00  0.10566000000E+00 0. -1.
     999900   -1    0    0    0    0 -0.00000000000E+00 -0.00000000000E+00 -0.74505805969E-08  0.93827000000E+00  0.93827000000E+00 0.  1.
     999902    2    1    2    0    0 -0.20560458848E-01  0.10359305727E-01 -0.69585188668E-02  0.10198786244E+01  0.10195949881E+01 0.  0.
     999903    2    3    3    0    0 -0.10859255935E+00 -0.53240497673E-01 -0.48882602830E-01  0.13221189949E+00  0.21530976917E-01 0.  0.
         14    1    1    2    0    0  0.20560458848E-01 -0.10359305727E-01  0.69585188668E-02  0.24051375594E-01  0.00000000000E+00 0. -1.
     999901    1    3    3    0    0  0.88032100506E-01  0.63599803399E-01  0.41924083963E-01  0.88766672492E+00  0.88000000000E+00 0. -1.
        -11    1    4    4    0    0 -0.91262028359E-01 -0.49095529013E-01 -0.34235318191E-01  0.10913957542E+00  0.51100000000E-03 0.  1.
         11    1    4    4    0    0 -0.17330530995E-01 -0.41449686601E-02 -0.14647284639E-01  0.23072324071E-01  0.51100000000E-03 0. -1.
</event>
<event>
 8    1  0.1117714E+005  0.1043930E+01  0.7957747E-01            NaN
         13   -1    0    0    0    0  0.00000000000E+00  0.00000000000E+00  0.74505805969E-08  0.10566000000E+00  0.10566000000E+00 0. -1.
     999900   -1    0    0    0    0 -0.00000000000E+00 -0.00000000000E+00 -0.74505805969E-08  0.93827000000E+00  0.93827000000E+00 0.  1.
     999902    2    1    2    0    0  0.13858997506E-01  0.16344896964E-01 -0.10127578323E-01  0.10202277783E+01  0.10199524128E+01 0.  0.
     999903    2    3    3    0    0  0.98266299018E-01 -0.75846100128E-01 -0.36835719873E-01  0.13099378365E+00  0.19839472520E-01 0.  0.
         14    1    1    2    0    0 -0.13858997506E-01 -0.16344896964E-01  0.10127578323E-01  0.23702221654E-01  0.00000000000E+00 0.  1.
     999901    1    3    3    0    0 -0.84407301511E-01  0.92190997092E-01  0.26708141550E-01  0.88923399469E+00  0.88000000000E+00 0.  1.
        -11    1    4    4    0    0  0.57545755963E-01 -0.55238875202E-01 -0.27744992578E-01  0.84456456811E-01  0.51100000000E-03 0.  1.
         11    1    4    4    0    0  0.40720543055E-01 -0.20607224926E-01 -0.90907272943E-02  0.46537326841E-01  0.51100000000E-03 0. -1.
</event>
<event>
 8    1  0.1117714E+005  0.1043930E+01  0.7957747E-01            NaN
         13   -1    0    0    0    0  0.00000000000E+00  0.00000000000E+00  0.74505805969E-08  0.10566000000E+00  0.10566000000E+00 0.  1.
     999900   -1    0    0    0    0 -0.00000000000E+00 -0.00000000000E+00 -0.74505805969E-08  0.93827000000E+00  0.93827000000E+00 0. -1.
     999902    2    1    2    0    0  0.15798426038E-01  0.16715585369E-01  0.71558022730E-02  0.10198425226E+01  0.10195580241E+01 0.  0.
     999903    2    3    3    0    0  0.60268015168E-01 -0.11224353815E+00  0.88249384032E-02  0.12933099216E+00  0.20439679244E-01 0.  0.
         14    1    1    2    0    0 -0.15798426038E-01 -0.16715585369E-01 -0.71558022730E-02  0.24087477363E-01  0.00000000000E+00 0. -1.
     999901    1    3    3    0    0 -0.44469589129E-01  0.12895912352E+00 -0.16691361302E-02  0.89051153048E+00  0.88000000000E+00 0. -1.
        -11    1    4    4    0    0  0.29103849170E-01 -0.36283600524E-01 -0.17340904080E-02  0.46548919365E-01  0.51100000000E-03 0. -1.
         11    1    4    4    0    0  0.31164165998E-01 -0.75959937623E-01  0.10559028811E-01  0.82782072796E-01  0.51100000000E-03 0.  1.
</event>
<event>
 8    1  0.1117714E+005  0.1043930E+01  0.7957747E-01            NaN
         13   -1    0    0    0    0  0.00000000000E+00  0.00000000000E+00  0.74505805969E-08  0.10566000000E+00  0.10566000000E+00 0. -1.
     999900   -1    0    0    0    0 -0.00000000000E+00 -0.00000000000E+00 -0.74505805969E-08  0.93827000000E+00  0.93827000000E+00 0.  1.
     999902    2    1    2    0    0 -0.15164717849E-02  0.20728994733E-01 -0.11351216150E-01  0.10202479178E+01  0.10199730255E+01 0.  0.
     999903    2    3    3    0    0  0.27798227339E-02 -0.66528072203E-01 -0.11032608251E+00  0.13040058367E+00  0.19968874170E-01 0.  0.
         14    1    1    2    0    0  0.15164717849E-02 -0.20728994733E-01  0.11351216150E-01  0.23682082202E-01  0.00000000000E+00 0. -1.
     999901    1    3    3    0    0 -0.42962945188E-02  0.87257066937E-01  0.98974866358E-01  0.88984733412E+00  0.88000000000E+00 0.  1.
        -11    1    4    4    0    0 -0.85482782637E-02 -0.24646925407E-01 -0.43435591183E-01  0.50670067059E-01  0.51100000000E-03 0. -1.
         11    1    4    4    0    0  0.11328100998E-01 -0.41881146796E-01 -0.66890491324E-01  0.79730516616E-01  0.51100000000E-03 0.  1.
</event>
<event>
 8    1  0.1117714E+005  0.1043930E+01  0.7957747E-01            NaN
         13   -1    0    0    0    0  0.00000000000E+00  0.00000000000E+00  0.74505805969E-08  0.10566000000E+00  0.10566000000E+00 0.  1.
     999900   -1    0    0    0    0 -0.00000000000E+00 -0.00000000000E+00 -0.74505805969E-08  0.93827000000E+00  0.93827000000E+00 0. -1.
     999902    2    1    2    0    0 -0.88915492294E-02  0.11033497457E-02 -0.25792894413E-01  0.10166252306E+01  0.10162584854E+01 0.  0.
     999903    2    3    3    0    0 -0.11620316167E+00 -0.25708180189E-01  0.40388360408E-01  0.12723521562E+00  0.19836711565E-01 0.  0.
         14    1    1    2    0    0  0.88915492294E-02 -0.11033497457E-02  0.25792894413E-01  0.27304769374E-01  0.00000000000E+00 0.  1.
     999901    1    3    3    0    0  0.10731161244E+00  0.26811529934E-01 -0.66181254821E-01  0.88939001501E+00  0.88000000000E+00 0. -1.
        -11    1    4    4    0    0 -0.83182907900E-01 -0.11193952362E-01  0.22119685639E-01  0.86800013537E-01  0.51100000000E-03 0. -1.
         11    1    4    4    0    0 -0.33020253774E-01 -0.14514227826E-01  0.18268674768E-01  0.40435202083E-01  0.51100000000E-03 0.  1.
</event>
<event>
 8    1  0.1117714E+005  0.1043930E+01  0.7957747E-01            NaN
         13   -1    0    0    0    0  0.00000000000E+00  0.00000000000E+00  0.74505805969E-08  0.10566000000E+00  0.10566000000E+00 0.  1.
     999900   -1    0    0    0    0 -0.00000000000E+00 -0.00000000000E+00 -0.74505805969E-08  0.93827000000E+00  0.93827000000E+00 0. -1.
     999902    2    1    2    0    0 -0.77293564731E-02 -0.12840462106E-01 -0.18218974049E-01  0.10203386576E+01  0.10200658924E+01 0.  0.
     999903    2    3    3    0    0  0.54008957478E-01 -0.10469189910E+00  0.52579081289E-01  0.13058550619E+00  0.20264585166E-01 0.  0.
         14    1    1    2    0    0  0.77293564731E-02  0.12840462106E-01  0.18218974049E-01  0.23591342352E-01  0.00000000000E+00 0.  1.
     999901    1    3    3    0    0 -0.61738313951E-01  0.91851436998E-01 -0.70798055338E-01  0.88975315146E+00  0.88000000000E+00 0. -1.
        -11    1    4    4    0    0  0.73937123908E-02 -0.29290000923E-01  0.19532170684E-01  0.35976908561E-01  0.51100000000E-03 0. -1.
         11    1    4    4    0    0  0.46615245088E-01 -0.75401898182E-01  0.33046910605E-01  0.94608597630E-01  0.51100000000E-03 0.  1.
</event>
<event>
 8    1  0.1117714E+005  0.1043930E+01  0.7957747E-01            NaN
         13   -1    0    0    0    0  0.00000000000E+00  0.00000000000E+00  0.74505805969E-08  0.10566000000E+00  0.10566000000E+00 0. -1.
     999900   -1    0    0    0    0 -0.00000000000E+00 -0.00000000000E+00 -0.74505805969E-08  0.93827000000E+00  0.93827000000E+00 0. -1.
     999902    2    1    2    0    0 -0.13947687221E-01  0.12102481295E-01  0.14510102721E-01  0.10204448746E+01  0.10201745885E+01 0.  0.
     999903    2    3    3    0    0 -0.93318650181E-01  0.90725251928E-01  0.21288002876E-01  0.13335568535E+00  0.19776701934E-01 0.  0.
         14    1    1    2    0    0  0.13947687221E-01 -0.12102481295E-01 -0.14510102721E-01  0.23485125362E-01  0.00000000000E+00 0.  1.
     999901    1    3    3    0    0  0.79370962960E-01 -0.78622770633E-01 -0.67779001551E-02  0.88708918929E+00  0.88000000000E+00 0.  1.
        -11    1    4    4    0    0 -0.36992820763E-01  0.47412934792E-01  0.42663675327E-02  0.60290282687E-01  0.51100000000E-03 0.  1.
         11    1    4    4    0    0 -0.56325829418E-01  0.43312317136E-01  0.17021635344E-01  0.73065402661E-01  0.51100000000E-03 0. -1.
</event>
<event>
 8    1  0.1117714E+005  0.1043930E+01  0.7957747E-01            NaN
         13   -1    0    0    0    0  0.00000000000E+00  0.00000000000E+00  0.74505805969E-08  0.10566000000E+00  0.10566000000E+00 0. -1.
     999900   -1    0    0    0    0 -0.00000000000E+00 -0.00000000000E+00 -0.74505805969E-08  0.93827000000E+00  0.93827000000E+00 0.  1.
     999902    2    1    2    0    0 -0.40390733150E-02  0.12112413294E-01  0.20322993957E-01  0.10199289843E+01  0.10196465487E+01 0.  0.
     999903    2    3    3    0    0  0.10601181357E+00 -0.63002777983E-01  0.34343389424E-01  0.12978851164E+00  0.21394735501E-01 0.  0.
         14    1    1    2    0    0  0.40390733150E-02 -0.12112413294E-01 -0.20322993957E-01  0.24001015654E-01  0.00000000000E+00 0.  1.
     999901    1    3    3    0    0 -0.11005088688E+00  0.75115191277E-01 -0.14020395467E-01  0.89014047271E+00  0.88000000000E+00 0.  1.
        -11    1    4    4    0    0  0.46569470749E-01 -0.35121688251E-01  0.25024121604E-01  0.63472170079E-01  0.51100000000E-03 0. -1.
         11    1    4    4    0    0  0.59442342816E-01 -0.27881089732E-01  0.93192678194E-02  0.66316341560E-01  0.51100000000E-03 0.  1.
</event>
<event>
 8    1  0.1117714E+005  0.1043930E+01  0.7957747E-01            NaN
         13   -1    0    0    0    0  0.00000000000E+00  0.00000000000E+00  0.74505805969E-08  0.10566000000E+00  0.10566000000E+00 0. -1.
     999900   -1    0    0    0    0 -0.00000000000E+00 -0.00000000000E+00 -0.74505805969E-08  0.93827000000E+00  0.93827000000E+00 0.  1.
     999902    2    1    2    0    0 -0.19734820746E-01  0.24323218763E-02  0.13002180546E-01  0.10201721373E+01  0.10198954622E+01 0.  0.
     999903    2    3    3    0    0 -0.97510798949E-01 -0.73754413908E-01  0.48494019929E-01  0.13275273696E+00  0.17987487842E-01 0.  0.
         14    1    1    2    0    0  0.19734820746E-01 -0.24323218763E-02 -0.13002180546E-01  0.23757862668E-01  0.00000000000E+00 0.  1.
     999901    1    3    3    0    0  0.77775978202E-01  0.76186735784E-01 -0.35491839382E-01  0.88741940037E+00  0.88000000000E+00 0.  1.
        -11    1    4    4    0    0 -0.40213509059E-01 -0.40706664957E-01  0.26348402691E-01  0.62997288260E-01  0.51100000000E-03 0. -1.
         11    1    4    4    0    0 -0.57297289889E-01 -0.33047748951E-01  0.22145617238E-01  0.69755448699E-01  0.51100000000E-03 0.  1.
</event>
<event>
 8    1  0.1117714E+005  0.1043930E+01  0.7957747E-01            NaN
         13   -1    0    0    0    0  0.00000000000E+00  0.00000000000E+00  0.74505805969E-08  0.10566000000E+00  0.10566000000E+00 0.  1.
     999900   -1    0    0    0    0 -0.00000000000E+00 -0.00000000000E+00 -0.74505805969E-08  0.93827000000E+00  0.93827000000E+00 0. -1.
     999902    2    1    2    0    0  0.25199099657E-01  0.79157842916E-02  0.26464744168E-02  0.10173846032E+01  0.10170382356E+01 0.  0.
     999903    2    3    3    0    0  0.12650871253E+00  0.54456295959E-02  0.27514181728E-01  0.13121975274E+00  0.20675688280E-01 0.  0.
         14    1    1    2    0    0 -0.25199099657E-01 -0.79157842916E-02 -0.26464744168E-02  0.26545396800E-01  0.00000000000E+00 0.  1.
     999901    1    3    3    0    0 -0.10130961287E+00  0.24701546957E-02 -0.24867707311E-01  0.88616485046E+00  0.88000000000E+00 0. -1.
        -11    1    4    4    0    0  0.83969794941E-01 -0.42186921169E-02  0.24086548458E-01  0.87459400657E-01  0.51100000000E-03 0. -1.
         11    1    4    4    0    0  0.42538917586E-01  0.96643217128E-02  0.34276332700E-02  0.43760352083E-01  0.51100000000E-03 0.  1.
</event>
<event>
 8    1  0.1117714E+005  0.1043930E+01  0.7957747E-01            NaN
         13   -1    0    0    0    0  0.00000000000E+00  0.00000000000E+00  0.74505805969E-08  0.10566000000E+00  0.10566000000E+00 0. -1.
     999900   -1    0    0    0    0 -0.00000000000E+00 -0.00000000000E+00 -0.74505805969E-08  0.93827000000E+00  0.93827000000E+00 0. -1.
     999902    2    1    2    0    0 -0.21550146016E-01 -0.50215330123E-02 -0.10239102800E-01  0.10195483714E+01  0.10192567968E+01 0.  0.
     999903    2    3    3    0    0  0.76145144208E-01 -0.56438292044E-01  0.83313694165E-01  0.12772990407E+00  0.19758364409E-01 0.  0.
         14    1    1    2    0    0  0.21550146016E-01  0.50215330123E-02  0.10239102800E-01  0.24381628601E-01  0.00000000000E+00 0. -1.
     999901    1    3    3    0    0 -0.97695290224E-01  0.51416759031E-01 -0.93552796965E-01  0.89181846732E+00  0.88000000000E+00 0. -1.
        -11    1    4    4    0    0  0.65123704321E-01 -0.49101009133E-01  0.79605343819E-01  0.11397051306E+00  0.51100000000E-03 0. -1.
         11    1    4    4    0    0  0.11021439887E-01 -0.73372829110E-02  0.37083503454E-02  0.13759391011E-01  0.51100000000E-03 0.  1.
</event>
<event>
 8    1  0.1117714E+005  0.1043930E+01  0.7957747E-01            NaN
         13   -1    0    0    0    0  0.00000000000E+00  0.00000000000E+00  0.74505805969E-08  0.10566000000E+00  0.10566000000E+00 0.  1.
     999900   -1    0    0    0    0 -0.00000000000E+00 -0.00000000000E+00 -0.74505805969E-08  0.93827000000E+00  0.93827000000E+00 0. -1.
     999902    2    1    2    0    0  0.39097228837E-02 -0.23062176539E-01  0.40656625170E-02  0.10201880639E+01  0.10199117639E+01 0.  0.
     999903    2    3    3    0    0  0.36090964107E-01 -0.11588207774E+00  0.51428237279E-01  0.13345564660E+00  0.20840642663E-01 0.  0.
         14    1    1    2    0    0 -0.39097228837E-02  0.23062176539E-01 -0.40656625170E-02  0.23741936135E-01  0.00000000000E+00 0. -1.
     999901    1    3    3    0    0 -0.32181241224E-01  0.92819901203E-01 -0.47362574762E-01  0.88673241727E+00  0.88000000000E+00 0.  1.
        -11    1    4    4    0    0  0.32864067992E-03 -0.30564430750E-01  0.10886946547E-01  0.32451181148E-01  0.51100000000E-03 0. -1.
         11    1    4    4    0    0  0.35762323428E-01 -0.85317646993E-01  0.40541290732E-01  0.10100446545E+00  0.51100000000E-03 0.  1.
</event>
<event>
 8    1  0.1117714E+005  0.1043930E+01  0.7957747E-01            NaN
         13   -1    0    0    0    0  0.00000000000E+00  0.00000000000E+00  0.74505805969E-08  0.10566000000E+00  0.10566000000E+00 0.  1.
     999900   -1    0    0    0    0 -0.00000000000E+00 -0.00000000000E+00 -0.74505805969E-08  0.93827000000E+00  0.93827000000E+00 0. -1.
     999902    2    1    2    0    0 -0.21393439030E-01 -0.25734170335E-02  0.90831900355E-02  0.10205461156E+01  0.10202781817E+01 0.  0.
     999903    2    3    3    0    0  0.84600459418E-02  0.44320993762E-01 -0.11966273306E+00  0.12944240163E+00  0.20006068808E-01 0.  0.
         14    1    1    2    0    0  0.21393439030E-01  0.25734170335E-02 -0.90831900355E-02  0.23383884408E-01  0.00000000000E+00 0. -1.
     999901    1    3    3    0    0 -0.29853484972E-01 -0.46894410795E-01  0.12874592310E+00  0.89110371397E+00  0.88000000000E+00 0.  1.
        -11    1    4    4    0    0 -0.56953711139E-02  0.23051881355E-01 -0.54653757057E-01  0.59591280969E-01  0.51100000000E-03 0.  1.
         11    1    4    4    0    0  0.14155417056E-01  0.21269112407E-01 -0.65008976007E-01  0.69851120658E-01  0.51100000000E-03 0. -1.
</event>
<event>
 8    1  0.1117714E+005  0.1043930E+01  0.7957747E-01            NaN
         13   -1    0    0    0    0  0.00000000000E+00  0.00000000000E+00  0.74505805969E-08  0.10566000000E+00  0.10566000000E+00 0.  1.
     999900   -1    0    0    0    0 -0.00000000000E+00 -0.00000000000E+00 -0.74505805969E-08  0.93827000000E+00  0.93827000000E+00 0.  1.
     999902    2    1    2    0    0 -0.76745677966E-02 -0.11040124895E-01  0.19203135273E-01  0.10204876504E+01  0.10202183594E+01 0.  0.
     999903    2    3    3    0    0 -0.12594171574E+00  0.32052399418E-01 -0.51259463384E-03  0.13131230556E+00  0.18814536064E-01 0.  0.
         14    1    1    2    0    0  0.76745677966E-02  0.11040124895E-01 -0.19203135273E-01  0.23442349559E-01  0.00000000000E+00 0. -1.
     999901    1    3    3    0    0  0.11826714794E+00 -0.43092524312E-01  0.19715729907E-01  0.88917534488E+00  0.88000000000E+00 0. -1.
        -11    1    4    4    0    0 -0.62841268895E-01  0.21808608319E-01 -0.77739901997E-02  0.66972655000E-01  0.51100000000E-03 0.  1.
         11    1    4    4    0    0 -0.63100446843E-01  0.10243791098E-01  0.72613955659E-02  0.64339650562E-01  0.51100000000E-03 0. -1.
</event>
<event>
 8    1  0.1117714E+005  0.1043930E+01  0.7957747E-01            NaN
         13   -1    0    0    0    0  0.00000000000E+00  0.00000000000E+00  0.74505805969E-08  0.10566000000E+00  0.10566000000E+00 0. -1.
     999900   -1    0    0    0    0 -0.00000000000E+00 -0.00000000000E+00 -0.74505805969E-08  0.93827000000E+00  0.93827000000E+00 0.  1.
     999902    2    1    2    0    0 -0.17370043591E-01 -0.82599901128E-02 -0.14983914706E-01  0.10195483768E+01  0.10192568023E+01 0.  0.
     999903    2    3    3    0    0 -0.90087085579E-03 -0.82129779298E-01  0.97119802326E-01  0.12921404476E+00  0.22757441477E-01 0.  0.
         14    1    1    2    0    0  0.17370043591E-01  0.82599901128E-02  0.14983914706E-01  0.24381623222E-01  0.00000000000E+00 0. -1.
     999901    1    3    3    0    0 -0.16469172735E-01  0.73869789185E-01 -0.11210371703E+00  0.89033433202E+00  0.88000000000E+00 0.  1.
        -11    1    4    4    0    0  0.39185192007E-02 -0.45152135626E-01  0.68792575427E-01  0.82381731586E-01  0.51100000000E-03 0.  1.
         11    1    4    4    0    0 -0.48193900565E-02 -0.36977643672E-01  0.28327226900E-01  0.46832313170E-01  0.51100000000E-03 0. -1.
</event>
<event>
 8    1  0.1117714E+005  0.1043930E+01  0.7957747E-01            NaN
         13   -1    0    0    0    0  0.00000000000E+00  0.00000000000E+00  0.74505805969E-08  0.10566000000E+00  0.10566000000E+00 0. -1.
     999900   -1    0    0    0    0 -0.00000000000E+00 -0.00000000000E+00 -0.74505805969E-08  0.93827000000E+00  0.93827000000E+00 0.  1.
     999902    2    1    2    0    0  0.12915327034E-01 -0.79421136900E-02  0.18147173572E-01  0.10202825318E+01  0.10200084519E+01 0.  0.
     999903    2    3    3    0    0  0.10447279788E+00 -0.79044481337E-01  0.26839225932E-02  0.13254527944E+00  0.19961265865E-01 0.  0.
         14    1    1    2    0    0 -0.12915327034E-01  0.79421136900E-02 -0.18147173572E-01  0.23647468171E-01  0.00000000000E+00 0. -1.
     999901    1    3    3    0    0 -0.91557470842E-01  0.71102367647E-01  0.15463250979E-01  0.88773725239E+00  0.88000000000E+00 0.  1.
        -11    1    4    4    0    0  0.48259652814E-01 -0.47364332748E-01 -0.35693060832E-02  0.67715398347E-01  0.51100000000E-03 0.  1.
         11    1    4    4    0    0  0.56213145062E-01 -0.31680148589E-01  0.62532286764E-02  0.64829881090E-01  0.51100000000E-03 0. -1.
</event>
<event>
 8    1  0.1117714E+005  0.1043930E+01  0.7957747E-01            NaN
         13   -1    0    0    0    0  0.00000000000E+00  0.00000000000E+00  0.74505805969E-08  0.10566000000E+00  0.10566000000E+00 0. -1.
     999900   -1    0    0    0    0 -0.00000000000E+00 -0.00000000000E+00 -0.74505805969E-08  0.93827000000E+00  0.93827000000E+00 0.  1.
     999902    2    1    2    0    0  0.41399328869E-02  0.11480955983E-02  0.23318146450E-01  0.10202193880E+01  0.10199438252E+01 0.  0.
     999903    2    3    3    0    0  0.95604904564E-01  0.86991418771E-01  0.11651751568E-01  0.13124749758E+00  0.19553454680E-01 0.  0.
         14    1    1    2    0    0 -0.41399328869E-02 -0.11480955983E-02 -0.23318146450E-01  0.23710612006E-01  0.00000000000E+00 0.  1.
     999901    1    3    3    0    0 -0.91464971677E-01 -0.85843323172E-01  0.11666394882E-01  0.88897189041E+00  0.88000000000E+00 0. -1.
        -11    1    4    4    0    0  0.62125516100E-01  0.43513852406E-01  0.71442200855E-02  0.76186193654E-01  0.51100000000E-03 0.  1.
         11    1    4    4    0    0  0.33479388465E-01  0.43477566365E-01  0.45075314828E-02  0.55061303926E-01  0.51100000000E-03 0. -1.
</event>
<event>
 8    1  0.1117714E+005  0.1043930E+01  0.7957747E-01            NaN
         13   -1    0    0    0    0  0.00000000000E+00  0.00000000000E+00  0.74505805969E-08  0.10566000000E+00  0.10566000000E+00 0.  1.
     999900   -1    0    0    0    0 -0.00000000000E+00 -0.00000000000E+00 -0.74505805969E-08  0.93827000000E+00  0.93827000000E+00 0.  1.
     999902    2    1    2    0    0  0.20847509957E-01 -0.15584650370E-01 -0.91428898198E-02  0.10163420963E+01  0.10159676000E+01 0.  0.
     999903    2    3    3    0    0 -0.70361140092E-01 -0.62378614368E-01  0.81190994843E-01  0.12579793473E+00  0.19782850501E-01 0.  0.
         14    1    1    2    0    0 -0.20847509957E-01  0.15584650370E-01  0.91428898198E-02  0.27587903741E-01  0.00000000000E+00 0.  1.
     999901    1    3    3    0    0  0.91208650049E-01  0.46793963998E-01 -0.90333884663E-01  0.89054416153E+00  0.88000000000E+00 0.  1.
        -11    1    4    4    0    0 -0.33419224511E-01 -0.38392445474E-01  0.53082512180E-01  0.73544807137E-01  0.51100000000E-03 0.  1.
         11    1    4    4    0    0 -0.36941915581E-01 -0.23986168894E-01  0.28108482663E-01  0.52253127596E-01  0.51100000000E-03 0. -1.
</event>
<event>
 8    1  0.1117714E+005  0.1043930E+01  0.7957747E-01            NaN
         13   -1    0    0    0    0  0.00000000000E+00  0.00000000000E+00  0.74505805969E-08  0.10566000000E+00  0.10566000000E+00 0.  1.
     999900   -1    0    0    0    0 -0.00000000000E+00 -0.00000000000E+00 -0.74505805969E-08  0.93827000000E+00  0.93827000000E+00 0.  1.
     999902    2    1    2    0    0 -0.21228947440E-01 -0.11675732430E-01  0.94573053717E-03  0.10196836530E+01  0.10193953437E+01 0.  0.
     999903    2    3    3    0    0  0.26823773461E-01  0.11872014153E-01  0.12449282026E+00  0.12944354845E+00  0.19917590071E-01 0.  0.
         14    1    1    2    0    0  0.21228947440E-01  0.11675732430E-01 -0.94573053717E-03  0.24246347012E-01  0.00000000000E+00 0.  1.
     999901    1    3    3    0    0 -0.48052720901E-01 -0.23547746583E-01 -0.12354708973E+00  0.89024010454E+00  0.88000000000E+00 0.  1.
        -11    1    4    4    0    0  0.57122343145E-02  0.13055871048E-01  0.53388694588E-01  0.55260286106E-01  0.51100000000E-03 0.  1.
         11    1    4    4    0    0  0.21111539147E-01 -0.11838568946E-02  0.71104125675E-01  0.74183262340E-01  0.51100000000E-03 0. -1.
</event>
<event>
 8    1  0.1117714E+005  0.1043930E+01  0.7957747E-01            NaN
         13   -1    0    0    0    0  0.00000000000E+00  0.00000000000E+00  0.74505805969E-08  0.10566000000E+00  0.10566000000E+00 0.  1.
     999900   -1    0    0    0    0 -0.00000000000E+00 -0.00000000000E+00 -0.74505805969E-08  0.93827000000E+00  0.93827000000E+00 0.  1.
     999902    2    1    2    0    0 -0.17473466189E-01 -0.70198042163E-02 -0.14202790413E-01  0.10203435860E+01  0.10200709360E+01 0.  0.
     999903    2    3    3    0    0  0.12340702543E+00  0.26892794415E-01  0.93782704221E-02  0.12818135649E+00  0.19748212023E-01 0.  0.
         14    1    1    2    0    0  0.17473466189E-01  0.70198042163E-02  0.14202790413E-01  0.23586414043E-01  0.00000000000E+00 0. -1.
     999901    1    3    3    0    0 -0.14088049162E+00 -0.33912598632E-01 -0.23581060835E-01  0.89216222947E+00  0.88000000000E+00 0. -1.
        -11    1    4    4    0    0  0.88189330987E-01  0.26681425826E-01  0.18150895121E-02  0.92156455309E-01  0.51100000000E-03 0. -1.
         11    1    4    4    0    0  0.35217694441E-01  0.21136858951E-03  0.75631809099E-02  0.36024901178E-01  0.51100000000E-03 0.  1.
</event>
<event>
 7    1  0.1117714E+005  0.1043930E+01  0.7957747E-01            NaN
         13   -1    0    0    0    0  0.00000000000E+00  0.00000000000E+00  0.74505805969E-08  0.10566000000E+00  0.10566000000E+00 0. -1.
     999900   -1    0    0    0    0 -0.00000000000E+00 -0.00000000000E+00 -0.74505805969E-08  0.93827000000E+00  0.93827000000E+00 0. -1.
     999903    2    1    2    0    0  0.55155740035E-02 -0.10190088169E+00  0.34470475817E-01  0.10972381531E+00  0.20901930428E-01 0.  0.
         14    1    1    2    0    0 -0.15638656427E-02 -0.41221766576E-01 -0.92619147330E-02  0.42278396137E-01  0.00000000000E+00 0.  1.
     999901    1    1    2    0    0 -0.39517083608E-02  0.14312264827E+00 -0.25208561084E-01  0.89192778856E+00  0.88000000000E+00 0. -1.
        -11    1    3    3    0    0  0.80469485106E-02 -0.42828292980E-01  0.23745918078E-01  0.49630089727E-01  0.51100000000E-03 0. -1.
         11    1    3    3    0    0 -0.25313745071E-02 -0.59072588714E-01  0.10724557739E-01  0.60093725579E-01  0.51100000000E-03 0.  1.
</event>
<event>
 8    1  0.1117714E+005  0.1043930E+01  0.7957747E-01            NaN
         13   -1    0    0    0    0  0.00000000000E+00  0.00000000000E+00  0.74505805969E-08  0.10566000000E+00  0.10566000000E+00 0.  1.
     999900   -1    0    0    0    0 -0.00000000000E+00 -0.00000000000E+00 -0.74505805969E-08  0.93827000000E+00  0.93827000000E+00 0. -1.
     999902    2    1    2    0    0  0.39501830594E-02  0.27925899998E-03 -0.25041784877E-01  0.10185770333E+01  0.10182614594E+01 0.  0.
     999903    2    3    3    0    0 -0.11606910311E+00 -0.25331550804E-01  0.40732015844E-01  0.12762993300E+00  0.22728363756E-01 0.  0.
         14    1    1    2    0    0 -0.39501830594E-02 -0.27925899998E-03  0.25041784877E-01  0.25352966722E-01  0.00000000000E+00 0.  1.
     999901    1    3    3    0    0  0.12001928617E+00  0.25610809804E-01 -0.65773800721E-01  0.89094710028E+00  0.88000000000E+00 0. -1.
        -11    1    4    4    0    0 -0.54591312457E-01 -0.11647986365E-01  0.72266615038E-02  0.56288300202E-01  0.51100000000E-03 0.  1.
         11    1    4    4    0    0 -0.61477790657E-01 -0.13683564439E-01  0.33505354340E-01  0.71341632798E-01  0.51100000000E-03 0. -1.
</event>
<event>
 8    1  0.1117714E+005  0.1043930E+01  0.7957747E-01            NaN
         13   -1    0    0    0    0  0.00000000000E+00  0.00000000000E+00  0.74505805969E-08  0.10566000000E+00  0.10566000000E+00 0. -1.
     999900   -1    0    0    0    0 -0.00000000000E+00 -0.00000000000E+00 -0.74505805969E-08  0.93827000000E+00  0.93827000000E+00 0. -1.
     999902    2    1    2    0    0  0.14813054512E-01  0.16281070744E-01 -0.80581765247E-02  0.10204899902E+01  0.10202207536E+01 0.  0.
     999903    2    3    3    0    0  0.37695493604E-01 -0.11391740890E+00 -0.45409814997E-01  0.12983270766E+00  0.19908651164E-01 0.  0.
         14    1    1    2    0    0 -0.14813054512E-01 -0.16281070744E-01  0.80581765247E-02  0.23440009758E-01  0.00000000000E+00 0. -1.
     999901    1    3    3    0    0 -0.22882439092E-01  0.13019847965E+00  0.37351638473E-01  0.89065728258E+00  0.88000000000E+00 0.  1.
        -11    1    4    4    0    0  0.12043177574E-01 -0.53230259344E-01 -0.11683750581E-01  0.55814601893E-01  0.51100000000E-03 0. -1.
         11    1    4    4    0    0  0.25652316030E-01 -0.60687149558E-01 -0.33726064417E-01  0.74018105766E-01  0.51100000000E-03 0.  1.
</event>
<event>
 8    1  0.1117714E+005  0.1043930E+01  0.7957747E-01            NaN
         13   -1    0    0    0    0  0.00000000000E+00  0.00000000000E+00  0.74505805969E-08  0.10566000000E+00  0.10566000000E+00 0.  1.
     999900   -1    0    0    0    0 -0.00000000000E+00 -0.00000000000E+00 -0.74505805969E-08  0.93827000000E+00  0.93827000000E+00 0.  1.
     999902    2    1    2    0    0 -0.57857307684E-02 -0.30677379873E-02 -0.20326968766E-01  0.10225741728E+01  0.10223511469E+01 0.  0.
     999903    2    3    3    0    0  0.91608925456E-01  0.83607701482E-02 -0.95182647507E-01  0.13396869086E+00  0.20634341386E-01 0.  0.
         14    1    1    2    0    0  0.57857307684E-02  0.30677379873E-02  0.20326968766E-01  0.21355827217E-01  0.00000000000E+00 0.  1.
     999901    1    3    3    0    0 -0.97394656224E-01 -0.11428508136E-01  0.74855678741E-01  0.88860548192E+00  0.88000000000E+00 0. -1.
        -11    1    4    4    0    0  0.49878061905E-01 -0.42547109255E-02 -0.43213885123E-01  0.66133385010E-01  0.51100000000E-03 0.  1.
         11    1    4    4    0    0  0.41730863551E-01  0.12615481074E-01 -0.51968762385E-01  0.67835305853E-01  0.51100000000E-03 0. -1.
</event>
<event>
 8    1  0.1117714E+005  0.1043930E+01  0.7957747E-01            NaN
         13   -1    0    0    0    0  0.00000000000E+00  0.00000000000E+00  0.74505805969E-08  0.10566000000E+00  0.10566000000E+00 0. -1.
     999900   -1    0    0    0    0 -0.00000000000E+00 -0.00000000000E+00 -0.74505805969E-08  0.93827000000E+00  0.93827000000E+00 0.  1.
     999902    2    1    2    0    0 -0.18658787876E-01  0.15488724638E-01 -0.13069241359E-02  0.10196450457E+01  0.10193558065E+01 0.  0.
     999903    2    3    3    0    0 -0.52868266818E-01 -0.11543417192E+00  0.11189123950E-01  0.12921411376E+00  0.21236502011E-01 0.  0.
         14    1    1    2    0    0  0.18658787876E-01 -0.15488724638E-01  0.13069241359E-02  0.24284954326E-01  0.00000000000E+00 0.  1.
     999901    1    3    3    0    0  0.34209478942E-01  0.13092289655E+00 -0.12496048086E-01  0.89043093191E+00  0.88000000000E+00 0.  1.
        -11    1    4    4    0    0 -0.27674236845E-01 -0.42224124971E-01  0.11531638035E-01  0.51787835554E-01  0.51100000000E-03 0. -1.
         11    1    4    4    0    0 -0.25194029972E-01 -0.73210046945E-01 -0.34251408504E-03  0.77426278206E-01  0.51100000000E-03 0.  1.
</event>
<event>
 8    1  0.1117714E+005  0.1043930E+01  0.7957747E-01            NaN
         13   -1    0    0    0    0  0.00000000000E+00  0.00000000000E+00  0.74505805969E-08  0.10566000000E+00  0.10566000000E+00 0.  1.
     999900   -1    0    0    0    0 -0.00000000000E+00 -0.00000000000E+00 -0.74505805969E-08  0.93827000000E+00  0.93827000000E+00 0. -1.
     999902    2    1    2    0    0  0.20823877663E-02 -0.23049522883E-01  0.50922522908E-02  0.10202329986E+01  0.10199577557E+01 0.  0.
     999903    2    3    3    0    0 -0.83892894446E-01  0.38624358090E-01 -0.87780254761E-01  0.12904237960E+00  0.20413324851E-01 0.  0.
         14    1    1    2    0    0 -0.20823877663E-02  0.23049522883E-01 -0.50922522908E-02  0.23697001442E-01  0.00000000000E+00 0.  1.
     999901    1    3    3    0    0  0.85975282212E-01 -0.61673880973E-01  0.92872507052E-01  0.89119061895E+00  0.88000000000E+00 0.  1.
        -11    1    4    4    0    0 -0.27637980315E-01  0.19542688074E-01 -0.42572542199E-01  0.54391700500E-01  0.51100000000E-03 0.  1.
         11    1    4    4    0    0 -0.56254914131E-01  0.19081670015E-01 -0.45207712563E-01  0.74650679104E-01  0.51100000000E-03 0. -1.
</event>
<event>
 8    1  0.1117714E+005  0.1043930E+01  0.7957747E-01            NaN
         13   -1    0    0    0    0  0.00000000000E+00  0.00000000000E+00  0.74505805969E-08  0.10566000000E+00  0.10566000000E+00 0.  1.
     999900   -1    0    0    0    0 -0.00000000000E+00 -0.00000000000E+00 -0.74505805969E-08  0.93827000000E+00  0.93827000000E+00 0. -1.
     999902    2    1    2    0    0  0.11842513153E-02  0.17992955176E-01 -0.15571057001E-01  0.10201055020E+01  0.10198272543E+01 0.  0.
     999903    2    3    3    0    0  0.91294263904E-01 -0.12152490221E-01 -0.91952553605E-01  0.13170092344E+00  0.20187508016E-01 0.  0.
         14    1    1    2    0    0 -0.11842513153E-02 -0.17992955176E-01  0.15571057001E-01  0.23824497965E-01  0.00000000000E+00 0.  1.
     999901    1    3    3    0    0 -0.90110012589E-01  0.30145445398E-01  0.76381496604E-01  0.88840457860E+00  0.88000000000E+00 0.  1.
        -11    1    4    4    0    0  0.17955515289E-01 -0.20112329921E-02 -0.30627414766E-01  0.35563256934E-01  0.51100000000E-03 0.  1.
         11    1    4    4    0    0  0.73338748615E-01 -0.10141257229E-01 -0.61325138839E-01  0.96137666505E-01  0.51100000000E-03 0. -1.
</event>
<event>
 8    1  0.1117714E+005  0.1043930E+01  0.7957747E-01            NaN
         13   -1    0    0    0    0  0.00000000000E+00  0.00000000000E+00  0.74505805969E-08  0.10566000000E+00  0.10566000000E+00 0.  1.
     999900   -1    0    0    0    0 -0.00000000000E+00 -0.00000000000E+00 -0.74505805969E-08  0.93827000000E+00  0.93827000000E+00 0. -1.
     999902    2    1    2    0    0  0.17119437880E-02  0.20563589992E-01 -0.12822121659E-01  0.10196359927E+01  0.10193465352E+01 0.  0.
     999903    2    3    3    0    0 -0.17901302078E-01 -0.10635397539E+00 -0.67186502898E-01  0.12865438027E+00  0.20156852236E-01 0.  0.
         14    1    1    2    0    0 -0.17119437880E-02 -0.20563589992E-01  0.12822121659E-01  0.24294007260E-01  0.00000000000E+00 0. -1.
     999901    1    3    3    0    0  0.19613245866E-01  0.12691756539E+00  0.54364381239E-01  0.89098161247E+00  0.88000000000E+00 0.  1.
        -11    1    4    4    0    0 -0.13726608459E-01 -0.94902174090E-01 -0.51701678762E-01  0.10894111774E+00  0.51100000000E-03 0.  1.
         11    1    4    4    0    0 -0.41746936195E-02 -0.11451801305E-01 -0.15484824136E-01  0.19713262527E-01  0.51100000000E-03 0. -1.
</event>
<event>
 8    1  0.1117714E+005  0.1043930E+01  0.7957747E-01            NaN
         13   -1    0    0    0    0  0.00000000000E+00  0.00000000000E+00  0.74505805969E-08  0.10566000000E+00  0.10566000000E+00 0.  1.
     999900   -1    0    0    0    0 -0.00000000000E+00 -0.00000000000E+00 -0.74505805969E-08  0.93827000000E+00  0.93827000000E+00 0.  1.
     999902    2    1    2    0    0 -0.23669122383E-01 -0.18435700419E-02  0.27688219487E-02  0.10200282745E+01  0.10197481985E+01 0.  0.
     999903    2    3    3    0    0 -0.45738518672E-01  0.10844631180E+00 -0.53929763025E-01  0.13105940792E+00  0.20384661666E-01 0.  0.
         14    1    1    2    0    0  0.23669122383E-01  0.18435700419E-02 -0.27688219487E-02  0.23901725458E-01  0.00000000000E+00 0. -1.
     999901    1    3    3    0    0  0.22069396289E-01 -0.11028988184E+00  0.56698584974E-01  0.88896886662E+00  0.88000000000E+00 0. -1.
        -11    1    4    4    0    0 -0.22089840428E-01  0.29751307188E-01 -0.20457539888E-01  0.42330525497E-01  0.51100000000E-03 0.  1.
         11    1    4    4    0    0 -0.23648678244E-01  0.78695004609E-01 -0.33472223137E-01  0.88728882422E-01  0.51100000000E-03 0. -1.
</event>
<event>
 8    1  0.1117714E+005  0.1043930E+01  0.7957747E-01            NaN
         13   -1    0    0    0    0  0.00000000000E+00  0.00000000000E+00  0.74505805969E-08  0.10566000000E+00  0.10566000000E+00 0. -1.
     999900   -1    0    0    0    0 -0.00000000000E+00 -0.00000000000E+00 -0.74505805969E-08  0.93827000000E+00  0.93827000000E+00 0.  1.
     999902    2    1    2    0    0  0.67717263365E-02  0.16228175423E-01  0.16435204839E-01  0.10198608099E+01  0.10195767483E+01 0.  0.
     999903    2    3    3    0    0 -0.44413961698E-01  0.36184223857E-01 -0.11346549275E+00  0.12862997010E+00  0.19732032657E-01 0.  0.
         14    1    1    2    0    0 -0.67717263365E-02 -0.16228175423E-01 -0.16435204839E-01  0.24069190124E-01  0.00000000000E+00 0.  1.
     999901    1    3    3    0    0  0.51185688034E-01 -0.19956048435E-01  0.12990069759E+00  0.89123083977E+00  0.88000000000E+00 0. -1.
        -11    1    4    4    0    0 -0.18333766547E-01  0.27089600587E-01 -0.55648011190E-01  0.64551806529E-01  0.51100000000E-03 0. -1.
         11    1    4    4    0    0 -0.26080195150E-01  0.90946232706E-02 -0.57817481564E-01  0.64078163573E-01  0.51100000000E-03 0.  1.
</event>
<event>
 8    1  0.1117714E+005  0.1043930E+01  0.7957747E-01            NaN
         13   -1    0    0    0    0  0.00000000000E+00  0.00000000000E+00  0.74505805969E-08  0.10566000000E+00  0.10566000000E+00 0.  1.
     999900   -1    0    0    0    0 -0.00000000000E+00 -0.00000000000E+00 -0.74505805969E-08  0.93827000000E+00  0.93827000000E+00 0. -1.
     999902    2    1    2    0    0 -0.17152546847E-02 -0.27601754076E-01 -0.13996238542E-01  0.10129349420E+01  0.10124606181E+01 0.  0.
     999903    2    3    3    0    0  0.10967608533E+00 -0.34825716019E-01  0.41945879942E-01  0.12412127375E+00  0.20123607160E-01 0.  0.
         14    1    1    2    0    0  0.17152546847E-02  0.27601754076E-01  0.13996238542E-01  0.30995057994E-01  0.00000000000E+00 0.  1.
     999901    1    3    3    0    0 -0.11139134001E+00  0.72239619427E-02 -0.55942118483E-01  0.88881366825E+00  0.88000000000E+00 0.  1.
        -11    1    4    4    0    0  0.89381293036E-01 -0.23870300530E-01  0.26072026833E-01  0.96118772861E-01  0.51100000000E-03 0. -1.
         11    1    4    4    0    0  0.20294792290E-01 -0.10955415489E-01  0.15873853109E-01  0.28002500891E-01  0.51100000000E-03 0.  1.
</event>
<event>
 8    1  0.1117714E+005  0.1043930E+01  0.7957747E-01            NaN
         13   -1    0    0    0    0  0.00000000000E+00  0.00000000000E+00  0.74505805969E-08  0.10566000000E+00  0.10566000000E+00 0.  1.
     999900   -1    0    0    0    0 -0.00000000000E+00 -0.00000000000E+00 -0.74505805969E-08  0.93827000000E+00  0.93827000000E+00 0. -1.
     999902    2    1    2    0    0 -0.87876793417E-02  0.14731895416E-01  0.19592440440E-01  0.10178893438E+01  0.10175561904E+01 0.  0.
     999903    2    3    3    0    0  0.72250432926E-01 -0.40627484606E-01  0.96910075529E-01  0.12906435922E+00  0.19882869957E-01 0.  0.
         14    1    1    2    0    0  0.87876793417E-02 -0.14731895416E-01 -0.19592440440E-01  0.26040656159E-01  0.00000000000E+00 0. -1.
     999901    1    3    3    0    0 -0.81038112267E-01  0.55359380022E-01 -0.77317635089E-01  0.88882498462E+00  0.88000000000E+00 0. -1.
        -11    1    4    4    0    0  0.33286814803E-01 -0.14779400511E-01  0.56706933593E-01  0.67397182120E-01  0.51100000000E-03 0. -1.
         11    1    4    4    0    0  0.38963618123E-01 -0.25848084095E-01  0.40203141936E-01  0.61667177098E-01  0.51100000000E-03 0.  1.
</event>
<event>
 8    1  0.1117714E+005  0.1043930E+01  0.7957747E-01            NaN
         13   -1    0    0    0    0  0.00000000000E+00  0.00000000000E+00  0.74505805969E-08  0.10566000000E+00  0.10566000000E+00 0. -1.
     999900   -1    0    0    0    0 -0.00000000000E+00 -0.00000000000E+00 -0.74505805969E-08  0.93827000000E+00  0.93827000000E+00 0.  1.
     999902    2    1    2    0    0  0.17534347960E-02 -0.23887530404E-01  0.35550607988E-02  0.10197158079E+01  0.10194282720E+01 0.  0.
     999903    2    3    3    0    0 -0.11714737032E+00 -0.49743800918E-01  0.24771878583E-01  0.13108984521E+00  0.19311899102E-01 0.  0.
         14    1    1    2    0    0 -0.17534347960E-02  0.23887530404E-01 -0.35550607988E-02  0.24214192113E-01  0.00000000000E+00 0.  1.
     999901    1    3    3    0    0  0.11890080511E+00  0.25856270514E-01 -0.21216817784E-01  0.88862596267E+00  0.88000000000E+00 0.  1.
        -11    1    4    4    0    0 -0.76008800858E-01 -0.37677432319E-01  0.86175823436E-02  0.85272800824E-01  0.51100000000E-03 0.  1.
         11    1    4    4    0    0 -0.41138569461E-01 -0.12066368599E-01  0.16154296239E-01  0.45817044388E-01  0.51100000000E-03 0. -1.
</event>
<event>
 8    1  0.1117714E+005  0.1043930E+01  0.7957747E-01            NaN
         13   -1    0    0    0    0  0.00000000000E+00  0.00000000000E+00  0.74505805969E-08  0.10566000000E+00  0.10566000000E+00 0.  1.
     999900   -1    0    0    0    0 -0.00000000000E+00 -0.00000000000E+00 -0.74505805969E-08  0.93827000000E+00  0.93827000000E+00 0. -1.
     999902    2    1    2    0    0 -0.21532333171E-02  0.20155213297E-02 -0.24426779357E-01  0.10193258075E+01  0.10190288198E+01 0.  0.
     999903    2    3    3    0    0 -0.10032404862E-02  0.37178186992E-01 -0.12586246211E+00  0.13280060576E+00  0.20283427819E-01 0.  0.
         14    1    1    2    0    0  0.21532333171E-02 -0.20155213297E-02  0.24426779357E-01  0.24604192523E-01  0.00000000000E+00 0.  1.
     999901    1    3    3    0    0 -0.11499928309E-02 -0.35162665663E-01  0.10143568275E+00  0.88652520171E+00  0.88000000000E+00 0.  1.
        -11    1    4    4    0    0  0.79316255594E-02  0.28501770796E-01 -0.80860859543E-01  0.86104595403E-01  0.51100000000E-03 0.  1.
         11    1    4    4    0    0 -0.89348660457E-02  0.86764161962E-02 -0.45001602562E-01  0.46696010359E-01  0.51100000000E-03 0. -1.
</event>
<event>
 8    1  0.1117714E+005  0.1043930E+01  0.7957747E-01            NaN
         13   -1    0    0    0    0  0.00000000000E+00  0.00000000000E+00  0.74505805969E-08  0.10566000000E+00  0.10566000000E+00 0.  1.
     999900   -1    0    0    0    0 -0.00000000000E+00 -0.00000000000E+00 -0.74505805969E-08  0.93827000000E+00  0.93827000000E+00 0.  1.
     999902    2    1    2    0    0 -0.15525850368E-01 -0.31014471422E-02 -0.16896284616E-01  0.10207749695E+01  0.10205123139E+01 0.  0.
     999903    2    3    3    0    0 -0.99104161270E-01 -0.25367611760E-01  0.79726964833E-01  0.13127108053E+00  0.20262210027E-01 0.  0.
         14    1    1    2    0    0  0.15525850368E-01  0.31014471422E-02  0.16896284616E-01  0.23155030508E-01  0.00000000000E+00 0.  1.
     999901    1    3    3    0    0  0.83578310901E-01  0.22266164617E-01 -0.96623249449E-01  0.88950388896E+00  0.88000000000E+00 0. -1.
        -11    1    4    4    0    0 -0.25523633338E-01 -0.15888293319E-01  0.24358589555E-01  0.38697489963E-01  0.51100000000E-03 0. -1.
         11    1    4    4    0    0 -0.73580527932E-01 -0.94793184405E-02  0.55368375278E-01  0.92573590569E-01  0.51100000000E-03 0.  1.
</event>
<event>
 8    1  0.1117714E+005  0.1043930E+01  0.7957747E-01            NaN
         13   -1    0    0    0    0  0.00000000000E+00  0.00000000000E+00  0.74505805969E-08  0.10566000000E+00  0.10566000000E+00 0.  1.
     999900   -1    0    0    0    0 -0.00000000000E+00 -0.00000000000E+00 -0.74505805969E-08  0.93827000000E+00  0.93827000000E+00 0.  1.
     999902    2    1    2    0    0  0.15317471823E-01 -0.22770732214E-02 -0.18903456392E-01  0.10194933335E+01  0.10192004250E+01 0.  0.
     999903    2    3    3    0    0 -0.11807700528E+00 -0.45490810299E-01  0.24235881036E-02  0.12813686362E+00  0.20039686659E-01 0.  0.
         14    1    1    2    0    0 -0.15317471823E-01  0.22770732214E-02  0.18903456392E-01  0.24436666489E-01  0.00000000000E+00 0.  1.
     999901    1    3    3    0    0  0.13339447710E+00  0.43213737077E-01 -0.21327044496E-01  0.89135646989E+00  0.88000000000E+00 0.  1.
        -11    1    4    4    0    0 -0.97787761747E-01 -0.37825796057E-01  0.95936265562E-02  0.10528787198E+00  0.51100000000E-03 0. -1.
         11    1    4    4    0    0 -0.20289243531E-01 -0.76650142418E-02 -0.71700384526E-02  0.22848991637E-01  0.51100000000E-03 0.  1.
</event>
<event>
 8    1  0.1117714E+005  0.1043930E+01  0.7957747E-01            NaN
         13   -1    0    0    0    0  0.00000000000E+00  0.00000000000E+00  0.74505805969E-08  0.10566000000E+00  0.10566000000E+00 0. -1.
     999900   -1    0    0    0    0 -0.00000000000E+00 -0.00000000000E+00 -0.74505805969E-08  0.93827000000E+00  0.93827000000E+00 0. -1.
     999902    2    1    2    0    0 -0.82638198404E-02 -0.16682511959E-02 -0.22287845974E-01  0.10201009870E+01  0.10198226326E+01 0.  0.
     999903    2    3    3    0    0 -0.67705254300E-01 -0.55598762964E-01  0.92532369000E-01  0.12901992115E+00  0.20215757145E-01 0.  0.
         14    1    1    2    0    0  0.82638198404E-02  0.16682511959E-02  0.22287845974E-01  0.23829012959E-01  0.00000000000E+00 0. -1.
     999901    1    3    3    0    0  0.59441434459E-01  0.53930511768E-01 -0.11482021497E+00  0.89108106590E+00  0.88000000000E+00 0. -1.
        -11    1    4    4    0    0 -0.17633078523E-01 -0.43559481886E-02  0.21135482827E-01  0.27872378767E-01  0.51100000000E-03 0.  1.
         11    1    4    4    0    0 -0.50072175777E-01 -0.51242814775E-01  0.71396886173E-01  0.10114754238E+00  0.51100000000E-03 0. -1.
</event>
<event>
 8    1  0.1117714E+005  0.1043930E+01  0.7957747E-01            NaN
         13   -1    0    0    0    0  0.00000000000E+00  0.00000000000E+00  0.74505805969E-08  0.10566000000E+00  0.10566000000E+00 0. -1.
     999900   -1    0    0    0    0 -0.00000000000E+00 -0.00000000000E+00 -0.74505805969E-08  0.93827000000E+00  0.93827000000E+00 0.  1.
     999902    2    1    2    0    0  0.20133143473E-01 -0.97584651033E-02  0.87353645323E-02  0.10199117215E+01  0.10196288746E+01 0.  0.
     999903    2    3    3    0    0 -0.58054198462E-01  0.11111987010E+00  0.19094603917E-01  0.12815382490E+00  0.18463029173E-01 0.  0.
         14    1    1    2    0    0 -0.20133143473E-01  0.97584651033E-02 -0.87353645323E-02  0.24018278473E-01  0.00000000000E+00 0. -1.
     999901    1    3    3    0    0  0.78187341935E-01 -0.12087833521E+00 -0.10359239385E-01  0.89175789663E+00  0.88000000000E+00 0. -1.
        -11    1    4    4    0    0 -0.25768697593E-01  0.32978265729E-01  0.20671122431E-02  0.41906155397E-01  0.51100000000E-03 0. -1.
         11    1    4    4    0    0 -0.32285500870E-01  0.78141604374E-01  0.17027491674E-01  0.86247669501E-01  0.51100000000E-03 0.  1.
</event>
<event>
 8    1  0.1117714E+005  0.1043930E+01  0.7957747E-01            NaN
         13   -1    0    0    0    0  0.00000000000E+00  0.00000000000E+00  0.74505805969E-08  0.10566000000E+00  0.10566000000E+00 0.  1.
     999900   -1    0    0    0    0 -0.00000000000E+00 -0.00000000000E+00 -0.74505805969E-08  0.93827000000E+00  0.93827000000E+00 0. -1.
     999902    2    1    2    0    0 -0.14308789042E-01 -0.11464524888E-01 -0.15423884055E-01  0.10199701800E+01  0.10196887246E+01 0.  0.
     999903    2    3    3    0    0 -0.12741219663E+00  0.16207971282E-01  0.20436504123E-01  0.13157605841E+00  0.19950996499E-01 0.  0.
         14    1    1    2    0    0  0.14308789042E-01  0.11464524888E-01  0.15423884055E-01  0.23959819993E-01  0.00000000000E+00 0.  1.
     999901    1    3    3    0    0  0.11310340759E+00 -0.27672496170E-01 -0.35860388178E-01  0.88839412160E+00  0.88000000000E+00 0. -1.
        -11    1    4    4    0    0 -0.63657030493E-01  0.13792922538E-01  0.18627921019E-01  0.67747492985E-01  0.51100000000E-03 0.  1.
         11    1    4    4    0    0 -0.63755166140E-01  0.24150487433E-02  0.18085831045E-02  0.63828565422E-01  0.51100000000E-03 0. -1.
</event>
<event>
 7    1  0.1117714E+005  0.1043930E+01  0.7957747E-01            NaN
         13   -1    0    0    0    0  0.00000000000E+00  0.00000000000E+00  0.74505805969E-08  0.10566000000E+00  0.10566000000E+00 0.  1.
     999900   -1    0    0    0    0 -0.00000000000E+00 -0.00000000000E+00 -0.74505805969E-08  0.93827000000E+00  0.93827000000E+00 0. -1.
     999902    2    1    2    0    0 -0.20626415810E-01 -0.11665154523E-01  0.45253425983E-02  0.10198052495E+01  0.10195198592E+01 0.  0.
         14    1    1    2    0    0  0.20626415810E-01  0.11665154523E-01 -0.45253425983E-02  0.24124750462E-01  0.00000000000E+00 0. -1.
     999901    1    3    3    0    0 -0.77028757689E-03 -0.10576231616E+00 -0.75404225068E-01  0.88953474245E+00  0.88000000000E+00 0. -1.
        -11    1    3    3    0    0 -0.12163797253E-01  0.74603746528E-01  0.40846811255E-01  0.85920894259E-01  0.51100000000E-03 0.  1.
         11    1    3    3    0    0 -0.76923309800E-02  0.19493415112E-01  0.39082756411E-01  0.44349612832E-01  0.51100000000E-03 0. -1.
</event>
<event>
 8    1  0.1117714E+005  0.1043930E+01  0.7957747E-01            NaN
         13   -1    0    0    0    0  0.00000000000E+00  0.00000000000E+00  0.74505805969E-08  0.10566000000E+00  0.10566000000E+00 0. -1.
     999900   -1    0    0    0    0 -0.00000000000E+00 -0.00000000000E+00 -0.74505805969E-08  0.93827000000E+00  0.93827000000E+00 0.  1.
     999902    2    1    2    0    0 -0.12391761541E-01  0.17135158283E-01 -0.10197960576E-01  0.10204530368E+01  0.10201829407E+01 0.  0.
     999903    2    3    3    0    0 -0.59194124757E-01  0.45148160551E-01 -0.10847610245E+00  0.13330379188E+00  0.21460086689E-01 0.  0.
         14    1    1    2    0    0  0.12391761541E-01 -0.17135158283E-01  0.10197960576E-01  0.23476963248E-01  0.00000000000E+00 0. -1.
     999901    1    3    3    0    0  0.46802363217E-01 -0.28013002269E-01  0.98278141875E-01  0.88714924487E+00  0.88000000000E+00 0. -1.
        -11    1    4    4    0    0 -0.10583093959E-01  0.13749639473E-01 -0.40284678350E-01  0.43865372381E-01  0.51100000000E-03 0. -1.
         11    1    4    4    0    0 -0.48611030799E-01  0.31398521078E-01 -0.68191424101E-01  0.89438419503E-01  0.51100000000E-03 0.  1.
</event>
<event>
 8    1  0.1117714E+005  0.1043930E+01  0.7957747E-01            NaN
         13   -1    0    0    0    0  0.00000000000E+00  0.00000000000E+00  0.74505805969E-08  0.10566000000E+00  0.10566000000E+00 0. -1.
     999900   -1    0    0    0    0 -0.00000000000E+00 -0.00000000000E+00 -0.74505805969E-08  0.93827000000E+00  0.93827000000E+00 0.  1.
     999902    2    1    2    0    0  0.21935467185E-01 -0.72007878510E-02  0.42354275242E-02  0.10204575712E+01  0.10201875807E+01 0.  0.
     999903    2    3    3    0    0  0.12071470818E+00 -0.40037281816E-01 -0.34941780836E-01  0.13345676658E+00  0.20365554027E-01 0.  0.
         14    1    1    2    0    0 -0.21935467185E-01  0.72007878510E-02 -0.42354275242E-02  0.23472428775E-01  0.00000000000E+00 0. -1.
     999901    1    3    3    0    0 -0.98779240998E-01  0.32836493965E-01  0.39177208361E-01  0.88700080465E+00  0.88000000000E+00 0. -1.
        -11    1    4    4    0    0  0.11475324642E+00 -0.34907516036E-01 -0.36593832746E-01  0.12540419433E+00  0.51100000000E-03 0. -1.
         11    1    4    4    0    0  0.59614617660E-02 -0.51297657799E-02  0.16520519098E-02  0.80525722509E-02  0.51100000000E-03 0.  1.
</event>
<event>
 8    1  0.1117714E+005  0.1043930E+01  0.7957747E-01            NaN
         13   -1    0    0    0    0  0.00000000000E+00  0.00000000000E+00  0.74505805969E-08  0.10566000000E+00  0.10566000000E+00 0.  1.
     999900   -1    0    0    0    0 -0.00000000000E+00 -0.00000000000E+00 -0.74505805969E-08  0.93827000000E+00  0.93827000000E+00 0.  1.
     999902    2    1    2    0    0 -0.43801409090E-02 -0.11707434223E-01  0.20294094588E-01  0.10200951531E+01  0.10198166607E+01 0.  0.
     999903    2    3    3    0    0  0.86148558315E-01 -0.95527783660E-01  0.18260725248E-01  0.13148644793E+00  0.20201493780E-01 0.  0.
         14    1    1    2    0    0  0.43801409090E-02  0.11707434223E-01 -0.20294094588E-01  0.23834846876E-01  0.00000000000E+00 0. -1.
     999901    1    3    3    0    0 -0.90528699224E-01  0.83820349437E-01  0.20333693398E-02  0.88860870520E+00  0.88000000000E+00 0. -1.
        -11    1    4    4    0    0  0.28805873148E-01 -0.43325706389E-01  0.13709711024E-01  0.53806249259E-01  0.51100000000E-03 0.  1.
         11    1    4    4    0    0  0.57342685166E-01 -0.52202077271E-01  0.45510142242E-02  0.77680198667E-01  0.51100000000E-03 0. -1.
</event>
<event>
 8    1  0.1117714E+005  0.1043930E+01  0.7957747E-01            NaN
         13   -1    0    0    0    0  0.00000000000E+00  0.00000000000E+00  0.74505805969E-08  0.10566000000E+00  0.10566000000E+00 0.  1.
     999900   -1    0    0    0    0 -0.00000000000E+00 -0.00000000000E+00 -0.74505805969E-08  0.93827000000E+00  0.93827000000E+00 0.  1.
     999902    2    1    2    0    0  0.20500795218E-01  0.10317691272E-01 -0.56918939011E-02  0.10202839641E+01  0.10200099178E+01 0.  0.
     999903    2    3    3    0    0  0.63995775637E-01 -0.15790043629E-01 -0.11279598468E+00  0.13233987047E+00  0.21121609306E-01 0.  0.
         14    1    1    2    0    0 -0.20500795218E-01 -0.10317691272E-01  0.56918939011E-02  0.23646035903E-01  0.00000000000E+00 0.  1.
     999901    1    3    3    0    0 -0.43494980419E-01  0.26107734901E-01  0.10710409078E+00  0.88794409363E+00  0.88000000000E+00 0. -1.
        -11    1    4    4    0    0  0.47927815511E-01 -0.86839222739E-02 -0.63683375697E-01  0.80176801302E-01  0.51100000000E-03 0. -1.
         11    1    4    4    0    0  0.16067960126E-01 -0.71061213551E-02 -0.49112608980E-01  0.52163069169E-01  0.51100000000E-03 0.  1.
</event>
<event>
 8    1  0.1117714E+005  0.1043930E+01  0.7957747E-01            NaN
         13   -1    0    0    0    0  0.00000000000E+00  0.00000000000E+00  0.74505805969E-08  0.10566000000E+00  0.10566000000E+00 0. -1.
     999900   -1    0    0    0    0 -0.00000000000E+00 -0.00000000000E+00 -0.74505805969E-08  0.93827000000E+00  0.93827000000E+00 0. -1.
     999902    2    1    2    0    0  0.92465805243E-02  0.62038348360E-02  0.20765069771E-01  0.10203678494E+01  0.10200957667E+01 0.  0.
     999903    2    3    3    0    0  0.89865814562E-01  0.82542640575E-01  0.48815391561E-01  0.13294805319E+00  0.20077107712E-01 0.  0.
         14    1    1    2    0    0 -0.92465805243E-02 -0.62038348360E-02 -0.20765069771E-01  0.23562150595E-01  0.00000000000E+00 0.  1.
     999901    1    3    3    0    0 -0.80619234038E-01 -0.76338805739E-01 -0.28050321790E-01  0.88741979621E+00  0.88000000000E+00 0. -1.
        -11    1    4    4    0    0  0.38896269953E-01  0.38704859259E-01  0.32461524056E-01  0.63757333786E-01  0.51100000000E-03 0. -1.
         11    1    4    4    0    0  0.50969544609E-01  0.43837781316E-01  0.16353867505E-01  0.69190719405E-01  0.51100000000E-03 0.  1.
</event>
<event>
 8    1  0.1117714E+005  0.1043930E+01  0.7957747E-01            NaN
         13   -1    0    0    0    0  0.00000000000E+00  0.00000000000E+00  0.74505805969E-08  0.10566000000E+00  0.10566000000E+00 0.  1.
     999900   -1    0    0    0    0 -0.00000000000E+00 -0.00000000000E+00 -0.74505805969E-08  0.93827000000E+00  0.93827000000E+00 0. -1.
     999902    2    1    2    0    0  0.28036555180E-02 -0.17146808343E-01  0.16516420772E-01  0.10199578145E+01  0.10196760651E+01 0.  0.
     999903    2    3    3    0    0  0.10867879507E+00 -0.59160091748E-01 -0.37898279985E-01  0.13094959140E+00  0.20012968459E-01 0.  0.
         14    1    1    2    0    0 -0.28036555180E-02  0.17146808343E-01 -0.16516420772E-01  0.23972185460E-01  0.00000000000E+00 0. -1.
     999901    1    3    3    0    0 -0.10587513956E+00  0.42013283405E-01  0.54414700757E-01  0.88900822314E+00  0.88000000000E+00 0.  1.
        -11    1    4    4    0    0  0.62575050568E-01 -0.30078252178E-01 -0.30878441180E-01  0.75987350647E-01  0.51100000000E-03 0.  1.
         11    1    4    4    0    0  0.46103744507E-01 -0.29081839570E-01 -0.70198388046E-02  0.54962240749E-01  0.51100000000E-03 0. -1.
</event>
<event>
 8    1  0.1117714E+005  0.1043930E+01  0.7957747E-01            NaN
         13   -1    0    0    0    0  0.00000000000E+00  0.00000000000E+00  0.74505805969E-08  0.10566000000E+00  0.10566000000E+00 0.  1.
     999900   -1    0    0    0    0 -0.00000000000E+00 -0.00000000000E+00 -0.74505805969E-08  0.93827000000E+00  0.93827000000E+00 0.  1.
     999902    2    1    2    0    0  0.73121072847E-02 -0.15601525846E-01 -0.17044394682E-01  0.10196939543E+01  0.10194058929E+01 0.  0.
     999903    2    3    3    0    0  0.25751703320E-01  0.11947420188E+00  0.31655480887E-01  0.12786597267E+00  0.20258389808E-01 0.  0.
         14    1    1    2    0    0 -0.73121072847E-02  0.15601525846E-01  0.17044394682E-01  0.24236045712E-01  0.00000000000E+00 0.  1.
     999901    1    3    3    0    0 -0.18439596035E-01 -0.13507572772E+00 -0.48699875569E-01  0.89182798162E+00  0.88000000000E+00 0.  1.
        -11    1    4    4    0    0  0.13661043181E-01  0.59897072523E-01  0.26322544764E-01  0.66838767804E-01  0.51100000000E-03 0. -1.
         11    1    4    4    0    0  0.12090660139E-01  0.59577129354E-01  0.53329361229E-02  0.61027204863E-01  0.51100000000E-03 0.  1.
</event>
<event>
 8    1  0.1117714E+005  0.1043930E+01  0.7957747E-01            NaN
         13   -1    0    0    0    0  0.00000000000E+00  0.00000000000E+00  0.74505805969E-08  0.10566000000E+00  0.10566000000E+00 0.  1.
     999900   -1    0    0    0    0 -0.00000000000E+00 -0.00000000000E+00 -0.74505805969E-08  0.93827000000E+00  0.93827000000E+00 0. -1.
     999902    2    1    2    0    0  0.93373815818E-02  0.27361671885E-02  0.21993483257E-01  0.10198803303E+01  0.10195967348E+01 0.  0.
     999903    2    3    3    0    0 -0.12074765626E+00  0.16488302182E-01  0.39570449442E-01  0.13003754195E+00  0.22182904371E-01 0.  0.
         14    1    1    2    0    0 -0.93373815818E-02 -0.27361671885E-02 -0.21993483257E-01  0.24049669675E-01  0.00000000000E+00 0. -1.
     999901    1    3    3    0    0  0.13008503784E+00 -0.13752134994E-01 -0.17576966186E-01  0.88984278838E+00  0.88000000000E+00 0. -1.
        -11    1    4    4    0    0 -0.22581767441E-01  0.11463549472E-01  0.11456144619E-01  0.27800243844E-01  0.51100000000E-03 0. -1.
         11    1    4    4    0    0 -0.98165888817E-01  0.50247527103E-02  0.28114304824E-01  0.10223729810E+00  0.51100000000E-03 0.  1.
</event>
<event>
 8    1  0.1117714E+005  0.1043930E+01  0.7957747E-01            NaN
         13   -1    0    0    0    0  0.00000000000E+00  0.00000000000E+00  0.74505805969E-08  0.10566000000E+00  0.10566000000E+00 0.  1.
     999900   -1    0    0    0    0 -0.00000000000E+00 -0.00000000000E+00 -0.74505805969E-08  0.93827000000E+00  0.93827000000E+00 0.  1.
     999902    2    1    2    0    0 -0.80526689945E-02 -0.14993827523E-01  0.17013497662E-01  0.10198650993E+01  0.10195811402E+01 0.  0.
     999903    2    3    3    0    0 -0.24426292138E-01 -0.64250925010E-01  0.11299862927E+00  0.13312528254E+00  0.15126979942E-01 0.  0.
         14    1    1    2    0    0  0.80526689945E-02  0.14993827523E-01 -0.17013497662E-01  0.24064900674E-01  0.00000000000E+00 0. -1.
     999901    1    3    3    0    0  0.16373623144E-01  0.49257097486E-01 -0.95985131607E-01  0.88673981679E+00  0.88000000000E+00 0.  1.
        -11    1    4    4    0    0 -0.15113442186E-01 -0.42751885106E-01  0.87099011636E-01  0.98196938668E-01  0.51100000000E-03 0.  1.
         11    1    4    4    0    0 -0.93128499519E-02 -0.21499039904E-01  0.25899617632E-01  0.34928343870E-01  0.51100000000E-03 0. -1.
</event>
<event>
 8    1  0.1117714E+005  0.1043930E+01  0.7957747E-01            NaN
         13   -1    0    0    0    0  0.00000000000E+00  0.00000000000E+00  0.74505805969E-08  0.10566000000E+00  0.10566000000E+00 0. -1.
     999900   -1    0    0    0    0 -0.00000000000E+00 -0.00000000000E+00 -0.74505805969E-08  0.93827000000E+00  0.93827000000E+00 0. -1.
     999902    2    1    2    0    0  0.19254444102E-01 -0.11905585590E-01 -0.57784212280E-02  0.10205662088E+01  0.10202987405E+01 0.  0.
     999903    2    3    3    0    0 -0.40689217211E-01  0.11419941479E+00  0.37658892410E-01  0.12849977976E+00  0.19921909716E-01 0.  0.
         14    1    1    2    0    0 -0.19254444102E-01  0.11905585590E-01  0.57784212280E-02  0.23363791169E-01  0.00000000000E+00 0.  1.
     999901    1    3    3    0    0  0.59943661313E-01 -0.12610500038E+00 -0.43437313638E-01  0.89206642907E+00  0.88000000000E+00 0. -1.
        -11    1    4    4    0    0 -0.95456565654E-02  0.17869075527E-01  0.13702589752E-01  0.24463145881E-01  0.51100000000E-03 0. -1.
         11    1    4    4    0    0 -0.31143560645E-01  0.96330339260E-01  0.23956302658E-01  0.10403663388E+00  0.51100000000E-03 0.  1.
</event>
<event>
 8    1  0.1117714E+005  0.1043930E+01  0.7957747E-01            NaN
         13   -1    0    0    0    0  0.00000000000E+00  0.00000000000E+00  0.74505805969E-08  0.10566000000E+00  0.10566000000E+00 0. -1.
     999900   -1    0    0    0    0 -0.00000000000E+00 -0.00000000000E+00 -0.74505805969E-08  0.93827000000E+00  0.93827000000E+00 0.  1.
     999902    2    1    2    0    0  0.58132560405E-02  0.41002931597E-02  0.14806252661E-01  0.10275034524E+01  0.10273721396E+01 0.  0.
     999903    2    3    3    0    0  0.67255486643E-01 -0.10271487745E-01  0.11937667757E+00  0.13906849719E+00  0.21458141093E-01 0.  0.
         14    1    1    2    0    0 -0.58132560405E-02 -0.41002931597E-02 -0.14806252661E-01  0.16426547648E-01  0.00000000000E+00 0.  1.
     999901    1    3    3    0    0 -0.61442230602E-01  0.14371780905E-01 -0.10457042491E+00  0.88843495516E+00  0.88000000000E+00 0.  1.
        -11    1    4    4    0    0  0.29140472903E-01 -0.15220281987E-01  0.56713659907E-01  0.65555506908E-01  0.51100000000E-03 0.  1.
         11    1    4    4    0    0  0.38115013739E-01  0.49487942417E-02  0.62663017662E-01  0.73512990282E-01  0.51100000000E-03 0. -1.
</event>
<event>
 7    1  0.1117714E+005  0.1043930E+01  0.7957747E-01            NaN
         13   -1    0    0    0    0  0.00000000000E+00  0.00000000000E+00  0.74505805969E-08  0.10566000000E+00  0.10566000000E+00 0. -1.
     999900   -1    0    0    0    0 -0.00000000000E+00 -0.00000000000E+00 -0.74505805969E-08  0.93827000000E+00  0.93827000000E+00 0. -1.
     999903    2    1    2    0    0  0.38166958607E-01 -0.69653974262E-01  0.68014574932E-01  0.10585721608E+00  0.16473461486E-01 0.  0.
         14    1    1    2    0    0  0.45907425013E-01 -0.72176910285E-02  0.92115424194E-02  0.47375513178E-01  0.00000000000E+00 0. -1.
     999901    1    1    2    0    0 -0.84074383620E-01  0.76871665290E-01 -0.77226117351E-01  0.89069727074E+00  0.88000000000E+00 0. -1.
        -11    1    3    3    0    0  0.13668452625E-01 -0.27236667153E-01  0.16061237102E-01  0.34451227743E-01  0.51100000000E-03 0.  1.
         11    1    3    3    0    0  0.24498505981E-01 -0.42417307109E-01  0.51953337830E-01  0.71405988337E-01  0.51100000000E-03 0. -1.
</event>
<event>
 8    1  0.1117714E+005  0.1043930E+01  0.7957747E-01            NaN
         13   -1    0    0    0    0  0.00000000000E+00  0.00000000000E+00  0.74505805969E-08  0.10566000000E+00  0.10566000000E+00 0. -1.
     999900   -1    0    0    0    0 -0.00000000000E+00 -0.00000000000E+00 -0.74505805969E-08  0.93827000000E+00  0.93827000000E+00 0. -1.
     999902    2    1    2    0    0 -0.14845062942E-01 -0.16902946189E-01 -0.88570701260E-02  0.10197528791E+01  0.10194662335E+01 0.  0.
     999903    2    3    3    0    0 -0.18312915602E-01  0.97991621895E-01 -0.79797754391E-01  0.12944654505E+00  0.21236891938E-01 0.  0.
         14    1    1    2    0    0  0.14845062942E-01  0.16902946189E-01  0.88570701260E-02  0.24177120896E-01  0.00000000000E+00 0. -1.
     999901    1    3    3    0    0  0.34678526596E-02 -0.11489456808E+00  0.70940684265E-01  0.89030633406E+00  0.88000000000E+00 0. -1.
        -11    1    4    4    0    0  0.45912295880E-02  0.15111722223E-01 -0.10045626041E-01  0.18724830072E-01  0.51100000000E-03 0. -1.
         11    1    4    4    0    0 -0.22904145190E-01  0.82879899672E-01 -0.69752128351E-01  0.11072171497E+00  0.51100000000E-03 0.  1.
</event>
<event>
 8    1  0.1117714E+005  0.1043930E+01  0.7957747E-01            NaN
         13   -1    0    0    0    0  0.00000000000E+00  0.00000000000E+00  0.74505805969E-08  0.10566000000E+00  0.10566000000E+00 0.  1.
     999900   -1    0    0    0    0 -0.00000000000E+00 -0.00000000000E+00 -0.74505805969E-08  0.93827000000E+00  0.93827000000E+00 0. -1.
     999902    2    1    2    0    0  0.16447214661E-01 -0.25147315316E-02 -0.17846540289E-01  0.10195305380E+01  0.10192385316E+01 0.  0.
     999903    2    3    3    0    0 -0.96407916766E-01 -0.26704556681E-02 -0.84641097829E-01  0.12981270755E+00  0.19636849299E-01 0.  0.
         14    1    1    2    0    0 -0.16447214661E-01  0.25147315316E-02  0.17846540289E-01  0.24399461983E-01  0.00000000000E+00 0.  1.
     999901    1    3    3    0    0  0.11285513143E+00  0.15572413648E-03  0.66794557540E-01  0.88971783047E+00  0.88000000000E+00 0.  1.
        -11    1    4    4    0    0 -0.59571185720E-01  0.19301059222E-02 -0.40150763759E-01  0.71866518131E-01  0.51100000000E-03 0.  1.
         11    1    4    4    0    0 -0.36836731047E-01 -0.46005615903E-02 -0.44490334070E-01  0.57946189416E-01  0.51100000000E-03 0. -1.
</event>
<event>
 8    1  0.1117714E+005  0.1043930E+01  0.7957747E-01            NaN
         13   -1    0    0    0    0  0.00000000000E+00  0.00000000000E+00  0.74505805969E-08  0.10566000000E+00  0.10566000000E+00 0.  1.
     999900   -1    0    0    0    0 -0.00000000000E+00 -0.00000000000E+00 -0.74505805969E-08  0.93827000000E+00  0.93827000000E+00 0.  1.
     999902    2    1    2    0    0  0.99788793626E-02  0.63467320004E-02 -0.21007815870E-01  0.10198221721E+01  0.10195371868E+01 0.  0.
     999903    2    3    3    0    0  0.12660295256E+00 -0.10879040195E-01  0.23847866447E-01  0.13082839598E+00  0.20017176305E-01 0.  0.
         14    1    1    2    0    0 -0.99788793626E-02 -0.63467320004E-02  0.21007815870E-01  0.24107827941E-01  0.00000000000E+00 0.  1.
     999901    1    3    3    0    0 -0.11662407320E+00  0.17225772196E-01 -0.44855682317E-01  0.88899377608E+00  0.88000000000E+00 0.  1.
        -11    1    4    4    0    0  0.25453102353E-01  0.33484735325E-03 -0.28349059533E-02  0.25617774199E-01  0.51100000000E-03 0. -1.
         11    1    4    4    0    0  0.10114985021E+00 -0.11213887549E-01  0.26682772400E-01  0.10521062178E+00  0.51100000000E-03 0.  1.
</event>
<event>
 8    1  0.1117714E+005  0.1043930E+01  0.7957747E-01            NaN
         13   -1    0    0    0    0  0.00000000000E+00  0.00000000000E+00  0.74505805969E-08  0.10566000000E+00  0.10566000000E+00 0.  1.
     999900   -1    0    0    0    0 -0.00000000000E+00 -0.00000000000E+00 -0.74505805969E-08  0.93827000000E+00  0.93827000000E+00 0. -1.
     999902    2    1    2    0    0 -0.11801459923E-01 -0.16003227070E-01  0.58997094430E-02  0.10231891151E+01  0.10229788762E+01 0.  0.
     999903    2    3    3    0    0 -0.83957870103E-01  0.95035614329E-01 -0.33012002693E-01  0.13243084650E+00  0.19168850742E-01 0.  0.
         14    1    1    2    0    0  0.11801459923E-01  0.16003227070E-01 -0.58997094430E-02  0.20740884853E-01  0.00000000000E+00 0.  1.
     999901    1    3    3    0    0  0.72156410180E-01 -0.11103884140E+00  0.38911712136E-01  0.89075826865E+00  0.88000000000E+00 0.  1.
        -11    1    4    4    0    0 -0.43743551600E-01  0.59416989638E-01 -0.12042986933E-01  0.74760762566E-01  0.51100000000E-03 0. -1.
         11    1    4    4    0    0 -0.40214318503E-01  0.35618624691E-01 -0.20969015760E-01  0.57670083930E-01  0.51100000000E-03 0.  1.
</event>
<event>
 8    1  0.1117714E+005  0.1043930E+01  0.7957747E-01            NaN
         13   -1    0    0    0    0  0.00000000000E+00  0.00000000000E+00  0.74505805969E-08  0.10566000000E+00  0.10566000000E+00 0.  1.
     999900   -1    0    0    0    0 -0.00000000000E+00 -0.00000000000E+00 -0.74505805969E-08  0.93827000000E+00  0.93827000000E+00 0. -1.
     999902    2    1    2    0    0  0.17056325133E-01  0.14315395451E-01  0.83197840970E-02  0.10201588498E+01  0.10198818614E+01 0.  0.
     999903    2    3    3    0    0  0.12410746926E+00  0.24859651703E-01  0.35060265429E-01  0.13320553529E+00  0.22222200880E-01 0.  0.
         14    1    1    2    0    0 -0.17056325133E-01 -0.14315395451E-01 -0.83197840970E-02  0.23771150190E-01  0.00000000000E+00 0. -1.
     999901    1    3    3    0    0 -0.10705114412E+00 -0.10544256252E-01 -0.26740481332E-01  0.88695331452E+00  0.88000000000E+00 0.  1.
        -11    1    4    4    0    0  0.18335525201E-01  0.67875516572E-02  0.13473220636E-01  0.23749760782E-01  0.51100000000E-03 0.  1.
         11    1    4    4    0    0  0.10577194405E+00  0.18072100045E-01  0.21587044794E-01  0.10945577451E+00  0.51100000000E-03 0. -1.
</event>
<event>
 8    1  0.1117714E+005  0.1043930E+01  0.7957747E-01            NaN
         13   -1    0    0    0    0  0.00000000000E+00  0.00000000000E+00  0.74505805969E-08  0.10566000000E+00  0.10566000000E+00 0. -1.
     999900   -1    0    0    0    0 -0.00000000000E+00 -0.00000000000E+00 -0.74505805969E-08  0.93827000000E+00  0.93827000000E+00 0. -1.
     999902    2    1    2    0    0  0.13585162833E-01 -0.18025979249E-01 -0.37404806658E-02  0.10210502322E+01  0.10207938543E+01 0.  0.
     999903    2    3    3    0    0  0.67590974325E-01 -0.72131413507E-01 -0.88386754846E-01  0.13368952913E+00  0.17005620904E-01 0.  0.
         14    1    1    2    0    0 -0.13585162833E-01  0.18025979249E-01  0.37404806658E-02  0.22879767759E-01  0.00000000000E+00 0.  1.
     999901    1    3    3    0    0 -0.54005811491E-01  0.54105434258E-01  0.84646274180E-01  0.88736070311E+00  0.88000000000E+00 0.  1.
        -11    1    4    4    0    0  0.15274880564E-01 -0.71536116215E-02 -0.14353479812E-01  0.22153546877E-01  0.51100000000E-03 0.  1.
         11    1    4    4    0    0  0.52316093760E-01 -0.64977801886E-01 -0.74033275034E-01  0.11153598225E+00  0.51100000000E-03 0. -1.
</event>
<event>
 8    1  0.1117714E+005  0.1043930E+01  0.7957747E-01            NaN
         13   -1    0    0    0    0  0.00000000000E+00  0.00000000000E+00  0.74505805969E-08  0.10566000000E+00  0.10566000000E+00 0. -1.
     999900   -1    0    0    0    0 -0.00000000000E+00 -0.00000000000E+00 -0.74505805969E-08  0.93827000000E+00  0.93827000000E+00 0. -1.
     999902    2    1    2    0    0  0.10447373742E-01  0.20102866553E-01 -0.45247346801E-02  0.10208270546E+01  0.10205655929E+01 0.  0.
     999903    2    3    3    0    0 -0.75844497832E-01  0.10373773899E+00  0.24041332132E-01  0.13220053061E+00  0.19623666854E-01 0.  0.
         14    1    1    2    0    0 -0.10447373742E-01 -0.20102866553E-01  0.45247346801E-02  0.23102945390E-01  0.00000000000E+00 0. -1.
     999901    1    3    3    0    0  0.86291871574E-01 -0.83634872435E-01 -0.28566066812E-01  0.88862652400E+00  0.88000000000E+00 0. -1.
        -11    1    4    4    0    0 -0.62482537765E-02  0.19097824342E-01  0.42799220765E-03  0.20105020969E-01  0.51100000000E-03 0.  1.
         11    1    4    4    0    0 -0.69596244055E-01  0.84639914646E-01  0.23613339924E-01  0.11209550964E+00  0.51100000000E-03 0. -1.
</event>
<event>
 8    1  0.1117714E+005  0.1043930E+01  0.7957747E-01            NaN
         13   -1    0    0    0    0  0.00000000000E+00  0.00000000000E+00  0.74505805969E-08  0.10566000000E+00  0.10566000000E+00 0.  1.
     999900   -1    0    0    0    0 -0.00000000000E+00 -0.00000000000E+00 -0.74505805969E-08  0.93827000000E+00  0.93827000000E+00 0. -1.
     999902    2    1    2    0    0  0.21413741691E-01 -0.26682980392E-03  0.11829469469E-01  0.10194645983E+01  0.10191709922E+01 0.  0.
     999903    2    3    3    0    0  0.10528445978E+00  0.51537863251E-02  0.78444324554E-01  0.13295389937E+00  0.20294046393E-01 0.  0.
         14    1    1    2    0    0 -0.21413741691E-01  0.26682980392E-03 -0.11829469469E-01  0.24465401678E-01  0.00000000000E+00 0.  1.
     999901    1    3    3    0    0 -0.83870718090E-01 -0.54206161290E-02 -0.66614855085E-01  0.88651069895E+00  0.88000000000E+00 0.  1.
        -11    1    4    4    0    0  0.36948020929E-01  0.64249837605E-02  0.38681425977E-01  0.53879035844E-01  0.51100000000E-03 0. -1.
         11    1    4    4    0    0  0.68336438853E-01 -0.12711974354E-02  0.39762898576E-01  0.79074863529E-01  0.51100000000E-03 0.  1.
</event>
<event>
 8    1  0.1117714E+005  0.1043930E+01  0.7957747E-01            NaN
         13   -1    0    0    0    0  0.00000000000E+00  0.00000000000E+00  0.74505805969E-08  0.10566000000E+00  0.10566000000E+00 0. -1.
     999900   -1    0    0    0    0 -0.00000000000E+00 -0.00000000000E+00 -0.74505805969E-08  0.93827000000E+00  0.93827000000E+00 0.  1.
     999902    2    1    2    0    0 -0.17575705072E-01  0.12724559211E-02 -0.15819956082E-01  0.10202488775E+01  0.10199740077E+01 0.  0.
     999903    2    3    3    0    0 -0.17499247042E-02  0.46863281562E-01 -0.12214308252E+00  0.13253631933E+00  0.21159251815E-01 0.  0.
         14    1    1    2    0    0  0.17575705072E-01 -0.12724559211E-02  0.15819956082E-01  0.23681122509E-01  0.00000000000E+00 0. -1.
     999901    1    3    3    0    0 -0.15825780367E-01 -0.45590825641E-01  0.10632312644E+00  0.88771255816E+00  0.88000000000E+00 0. -1.
        -11    1    4    4    0    0  0.36240545954E-02  0.34089284837E-01 -0.62335852876E-01  0.71142341733E-01  0.51100000000E-03 0. -1.
         11    1    4    4    0    0 -0.53739792997E-02  0.12773996725E-01 -0.59807229646E-01  0.61393977594E-01  0.51100000000E-03 0.  1.
</event>
<event>
 8    1  0.1117714E+005  0.1043930E+01  0.7957747E-01            NaN
         13   -1    0    0    0    0  0.00000000000E+00  0.00000000000E+00  0.74505805969E-08  0.10566000000E+00  0.10566000000E+00 0. -1.
     999900   -1    0    0    0    0 -0.00000000000E+00 -0.00000000000E+00 -0.74505805969E-08  0.93827000000E+00  0.93827000000E+00 0. -1.
     999902    2    1    2    0    0 -0.15251752127E-01  0.92789243245E-02 -0.15369077131E-01  0.10203731982E+01  0.10201012404E+01 0.  0.
     999903    2    3    3    0    0  0.56761456708E-01 -0.14756268221E-01 -0.11629745439E+00  0.13135681473E+00  0.17026580961E-01 0.  0.
         14    1    1    2    0    0  0.15251752127E-01 -0.92789243245E-02  0.15369077131E-01  0.23556801808E-01  0.00000000000E+00 0. -1.
     999901    1    3    3    0    0 -0.72013208835E-01  0.24035192546E-01  0.10092837726E+00  0.88901638346E+00  0.88000000000E+00 0.  1.
        -11    1    4    4    0    0  0.42848910896E-01 -0.44344124027E-02 -0.91121875299E-01  0.10079261113E+00  0.51100000000E-03 0. -1.
         11    1    4    4    0    0  0.13912545811E-01 -0.10321855819E-01 -0.25175579090E-01  0.30564203605E-01  0.51100000000E-03 0.  1.
</event>
<event>
 8    1  0.1117714E+005  0.1043930E+01  0.7957747E-01            NaN
         13   -1    0    0    0    0  0.00000000000E+00  0.00000000000E+00  0.74505805969E-08  0.10566000000E+00  0.10566000000E+00 0.  1.
     999900   -1    0    0    0    0 -0.00000000000E+00 -0.00000000000E+00 -0.74505805969E-08  0.93827000000E+00  0.93827000000E+00 0. -1.
     999902    2    1    2    0    0  0.23162872182E-02  0.15591591397E-01  0.16304813195E-01  0.10212515997E+01  0.10209997649E+01 0.  0.
     999903    2    3    3    0    0 -0.75145723051E-01 -0.10350930193E+00  0.82350966276E-02  0.12981988261E+00  0.20599267633E-01 0.  0.
         14    1    1    2    0    0 -0.23162872182E-02 -0.15591591397E-01 -0.16304813195E-01  0.22678400342E-01  0.00000000000E+00 0.  1.
     999901    1    3    3    0    0  0.77462010269E-01  0.11910089332E+00  0.80697165671E-02  0.89143171704E+00  0.88000000000E+00 0.  1.
        -11    1    4    4    0    0 -0.17903056106E-01 -0.33566548836E-01 -0.53569090033E-02  0.38421220878E-01  0.51100000000E-03 0.  1.
         11    1    4    4    0    0 -0.57242666945E-01 -0.69942753092E-01  0.13592005631E-01  0.91398661736E-01  0.51100000000E-03 0. -1.
</event>
<event>
 8    1  0.1117714E+005  0.1043930E+01  0.7957747E-01            NaN
         13   -1    0    0    0    0  0.00000000000E+00  0.00000000000E+00  0.74505805969E-08  0.10566000000E+00  0.10566000000E+00 0.  1.
     999900   -1    0    0    0    0 -0.00000000000E+00 -0.00000000000E+00 -0.74505805969E-08  0.93827000000E+00  0.93827000000E+00 0.  1.
     999902    2    1    2    0    0  0.21266432448E-01 -0.82278654182E-02  0.18929634957E-02  0.10210489548E+01  0.10207925479E+01 0.  0.
     999903    2    3    3    0    0  0.77861464246E-02 -0.53081291200E-01  0.11907161241E+00  0.13204705173E+00  0.19496857099E-01 0.  0.
         14    1    1    2    0    0 -0.21266432448E-01  0.82278654182E-02 -0.18929634957E-02  0.22881045195E-01  0.00000000000E+00 0.  1.
     999901    1    3    3    0    0  0.13480286024E-01  0.44853425782E-01 -0.11717864891E+00  0.88900190308E+00  0.88000000000E+00 0.  1.
        -11    1    4    4    0    0  0.14031738701E-01 -0.29323822424E-01  0.67735686534E-01  0.75134283811E-01  0.51100000000E-03 0.  1.
         11    1    4    4    0    0 -0.62455922767E-02 -0.23757468776E-01  0.51335925874E-01  0.56912767916E-01  0.51100000000E-03 0. -1.
</event>
<event>
 8    1  0.1117714E+005  0.1043930E+01  0.7957747E-01            NaN
         13   -1    0    0    0    0  0.00000000000E+00  0.00000000000E+00  0.74505805969E-08  0.10566000000E+00  0.10566000000E+00 0. -1.
     999900   -1    0    0    0    0 -0.00000000000E+00 -0.00000000000E+00 -0.74505805969E-08  0.93827000000E+00  0.93827000000E+00 0.  1.
     999902    2    1    2    0    0  0.19102478918E-01 -0.44972287256E-02  0.13254153086E-01  0.10202487344E+01  0.10199738613E+01 0.  0.
     999903    2    3    3    0    0  0.12024386004E+00 -0.11156074581E-01 -0.49864573985E-01  0.13218460781E+00  0.20081108695E-01 0.  0.
         14    1    1    2    0    0 -0.19102478918E-01  0.44972287256E-02 -0.13254153086E-01  0.23681265614E-01  0.00000000000E+00 0.  1.
     999901    1    3    3    0    0 -0.10114138112E+00  0.66588458554E-02  0.63118727071E-01  0.88806412658E+00  0.88000000000E+00 0.  1.
        -11    1    4    4    0    0  0.47916965125E-01 -0.13166471683E-01 -0.25351476848E-01  0.55788439866E-01  0.51100000000E-03 0. -1.
         11    1    4    4    0    0  0.72326894914E-01  0.20103971021E-02 -0.24513097137E-01  0.76396167945E-01  0.51100000000E-03 0.  1.
</event>
<event>
 8    1  0.1117714E+005  0.1043930E+01  0.7957747E-01            NaN
         13   -1    0    0    0    0  0.00000000000E+00  0.00000000000E+00  0.74505805969E-08  0.10566000000E+00  0.10566000000E+00 0.  1.
     999900   -1    0    0    0    0 -0.00000000000E+00 -0.00000000000E+00 -0.74505805969E-08  0.93827000000E+00  0.93827000000E+00 0.  1.
     999902    2    1    2    0    0  0.11333332482E-01  0.18194892152E-01  0.96986206390E-02  0.10204021066E+01  0.10201308237E+01 0.  0.
     999903    2    3    3    0    0 -0.41010322111E-01 -0.76764383118E-01 -0.91638214582E-01  0.12797492396E+00  0.20134591046E-01 0.  0.
         14    1    1    2    0    0 -0.11333332482E-01 -0.18194892152E-01 -0.96986206390E-02  0.23527893400E-01  0.00000000000E+00 0. -1.
     999901    1    3    3    0    0  0.52343654593E-01  0.94959275269E-01  0.10133683522E+00  0.89242718264E+00  0.88000000000E+00 0. -1.
        -11    1    4    4    0    0 -0.64909094344E-02 -0.32158576433E-01 -0.30604842148E-01  0.44868958395E-01  0.51100000000E-03 0. -1.
         11    1    4    4    0    0 -0.34519412677E-01 -0.44605806685E-01 -0.61033372433E-01  0.83105965569E-01  0.51100000000E-03 0.  1.
</event>
<event>
 8    1  0.1117714E+005  0.1043930E+01  0.7957747E-01            NaN
         13   -1    0    0    0    0  0.00000000000E+00  0.00000000000E+00  0.74505805969E-08  0.10566000000E+00  0.10566000000E+00 0.  1.
     999900   -1    0    0    0    0 -0.00000000000E+00 -0.00000000000E+00 -0.74505805969E-08  0.93827000000E+00  0.93827000000E+00 0. -1.
     999902    2    1    2    0    0 -0.22941665834E-01 -0.23294571370E-02  0.17447932922E-02  0.10208044577E+01  0.10205424784E+01 0.  0.
     999903    2    3    3    0    0  0.22770866211E-01  0.74233549209E-01 -0.10236656571E+00  0.13019191313E+00  0.21021139163E-01 0.  0.
         14    1    1    2    0    0  0.22941665834E-01  0.23294571370E-02 -0.17447932922E-02  0.23125542273E-01  0.00000000000E+00 0. -1.
     999901    1    3    3    0    0 -0.45712532045E-01 -0.76563006346E-01  0.10411135900E+00  0.89061254460E+00  0.88000000000E+00 0.  1.
        -11    1    4    4    0    0  0.21020565362E-01  0.47632659598E-01 -0.79678261868E-01  0.95182041184E-01  0.51100000000E-03 0.  1.
         11    1    4    4    0    0  0.17503008487E-02  0.26600889611E-01 -0.22688303843E-01  0.35009871942E-01  0.51100000000E-03 0. -1.
</event>
<event>
 8    1  0.1117714E+005  0.1043930E+01  0.7957747E-01            NaN
         13   -1    0    0    0    0  0.00000000000E+00  0.00000000000E+00  0.74505805969E-08  0.10566000000E+00  0.10566000000E+00 0.  1.
     999900   -1    0    0    0    0 -0.00000000000E+00 -0.00000000000E+00 -0.74505805969E-08  0.93827000000E+00  0.93827000000E+00 0.  1.
     999902    2    1    2    0    0  0.13943074188E-01 -0.18331932095E-01 -0.61233374662E-02  0.10200979981E+01  0.10198195730E+01 0.  0.
     999903    2    3    3    0    0  0.34780148777E-01  0.70815364604E-01 -0.10166569738E+00  0.13020487716E+00  0.19822245088E-01 0.  0.
         14    1    1    2    0    0 -0.13943074188E-01  0.18331932095E-01  0.61233374662E-02  0.23832001886E-01  0.00000000000E+00 0. -1.
     999901    1    3    3    0    0 -0.20837074589E-01 -0.89147296699E-01  0.95542359909E-01  0.88989312096E+00  0.88000000000E+00 0. -1.
        -11    1    4    4    0    0  0.14834304108E-01  0.41458867898E-01 -0.42445430762E-01  0.61161834663E-01  0.51100000000E-03 0. -1.
         11    1    4    4    0    0  0.19945844669E-01  0.29356496706E-01 -0.59220266613E-01  0.69043042497E-01  0.51100000000E-03 0.  1.
</event>
<event>
 8    1  0.1117714E+005  0.1043930E+01  0.7957747E-01            NaN
         13   -1    0    0    0    0  0.00000000000E+00  0.00000000000E+00  0.74505805969E-08  0.10566000000E+00  0.10566000000E+00 0. -1.
     999900   -1    0    0    0    0 -0.00000000000E+00 -0.00000000000E+00 -0.74505805969E-08  0.93827000000E+00  0.93827000000E+00 0.  1.
     999902    2    1    2    0    0  0.12803174252E-01  0.18048897481E-01 -0.72140769034E-02  0.10206549731E+01  0.10203895566E+01 0.  0.
     999903    2    3    3    0    0  0.75478107389E-01  0.10813952256E+00  0.70658221579E-02  0.13372296698E+00  0.20995357148E-01 0.  0.
         14    1    1    2    0    0 -0.12803174252E-01 -0.18048897481E-01  0.72140769034E-02  0.23275026891E-01  0.00000000000E+00 0. -1.
     999901    1    3    3    0    0 -0.62674933138E-01 -0.90090625080E-01 -0.14279899061E-01  0.88693200612E+00  0.88000000000E+00 0.  1.
        -11    1    4    4    0    0  0.63594041571E-02  0.12682827366E-01  0.70892274986E-02  0.15868660900E-01  0.51100000000E-03 0. -1.
         11    1    4    4    0    0  0.69118703232E-01  0.95456695195E-01 -0.23405340773E-04  0.11785430608E+00  0.51100000000E-03 0.  1.
</event>
<event>
 8    1  0.1117714E+005  0.1043930E+01  0.7957747E-01            NaN
         13   -1    0    0    0    0  0.00000000000E+00  0.00000000000E+00  0.74505805969E-08  0.10566000000E+00  0.10566000000E+00 0. -1.
     999900   -1    0    0    0    0 -0.00000000000E+00 -0.00000000000E+00 -0.74505805969E-08  0.93827000000E+00  0.93827000000E+00 0. -1.
     999902    2    1    2    0    0 -0.29540151707E-02  0.25895905231E-02  0.23540923933E-01  0.10200635532E+01  0.10197843131E+01 0.  0.
     999903    2    3    3    0    0 -0.11275001267E+00 -0.14914204508E-01  0.64765805130E-01  0.13211026907E+00  0.17986517921E-01 0.  0.
         14    1    1    2    0    0  0.29540151707E-02 -0.25895905231E-02 -0.23540923933E-01  0.23866446831E-01  0.00000000000E+00 0.  1.
     999901    1    3    3    0    0  0.10979599750E+00  0.17503795031E-01 -0.41224881197E-01  0.88795328410E+00  0.88000000000E+00 0.  1.
        -11    1    4    4    0    0 -0.76431366907E-01 -0.18286362911E-01  0.41969303012E-01  0.89094491592E-01  0.51100000000E-03 0. -1.
         11    1    4    4    0    0 -0.36318645765E-01  0.33721584032E-02  0.22796502118E-01  0.43015777481E-01  0.51100000000E-03 0.  1.
</event>
<event>
 8    1  0.1117714E+005  0.1043930E+01  0.7957747E-01            NaN
         13   -1    0    0    0    0  0.00000000000E+00  0.00000000000E+00  0.74505805969E-08  0.10566000000E+00  0.10566000000E+00 0. -1.
     999900   -1    0    0    0    0 -0.00000000000E+00 -0.00000000000E+00 -0.74505805969E-08  0.93827000000E+00  0.93827000000E+00 0. -1.
     999902    2    1    2    0    0  0.54387932952E-02 -0.11297506409E-01  0.19754461679E-01  0.10205322890E+01  0.10202640345E+01 0.  0.
     999903    2    3    3    0    0  0.12289508490E+00 -0.41619316473E-01 -0.10385457704E-01  0.13169945470E+00  0.20037945010E-01 0.  0.
         14    1    1    2    0    0 -0.54387932952E-02  0.11297506409E-01 -0.19754461679E-01  0.23397710995E-01  0.00000000000E+00 0.  1.
     999901    1    3    3    0    0 -0.11745629160E+00  0.30321810064E-01  0.30139919383E-01  0.88883283431E+00  0.88000000000E+00 0.  1.
        -11    1    4    4    0    0  0.11664340218E+00 -0.39279432740E-01 -0.51284135803E-02  0.12318733236E+00  0.51100000000E-03 0.  1.
         11    1    4    4    0    0  0.62516827204E-02 -0.23398837333E-02 -0.52570441236E-02  0.85121223346E-02  0.51100000000E-03 0. -1.
</event>
<event>
 8    1  0.1117714E+005  0.1043930E+01  0.7957747E-01            NaN
         13   -1    0    0    0    0  0.00000000000E+00  0.00000000000E+00  0.74505805969E-08  0.10566000000E+00  0.10566000000E+00 0.  1.
     999900   -1    0    0    0    0 -0.00000000000E+00 -0.00000000000E+00 -0.74505805969E-08  0.93827000000E+00  0.93827000000E+00 0.  1.
     999902    2    1    2    0    0 -0.11074991515E-02  0.72845059230E-02 -0.22957199210E-01  0.10198193472E+01  0.10195342944E+01 0.  0.
     999903    2    3    3    0    0 -0.60510453778E-01  0.10529176101E+00  0.41840011244E-01  0.13002565680E+00  0.20204329512E-01 0.  0.
         14    1    1    2    0    0  0.11074991515E-02 -0.72845059230E-02  0.22957199210E-01  0.24110652759E-01  0.00000000000E+00 0.  1.
     999901    1    3    3    0    0  0.59402954626E-01 -0.98007255091E-01 -0.64797210453E-01  0.88979369044E+00  0.88000000000E+00 0.  1.
        -11    1    4    4    0    0 -0.35051675490E-01  0.40935834270E-01  0.17737628333E-01  0.56738409053E-01  0.51100000000E-03 0.  1.
         11    1    4    4    0    0 -0.25458778288E-01  0.64355926744E-01  0.24102382911E-01  0.73287247745E-01  0.51100000000E-03 0. -1.
</event>
<event>
 8    1  0.1117714E+005  0.1043930E+01  0.7957747E-01            NaN
         13   -1    0    0    0    0  0.00000000000E+00  0.00000000000E+00  0.74505805969E-08  0.10566000000E+00  0.10566000000E+00 0.  1.
     999900   -1    0    0    0    0 -0.00000000000E+00 -0.00000000000E+00 -0.74505805969E-08  0.93827000000E+00  0.93827000000E+00 0. -1.
     999902    2    1    2    0    0 -0.58518840277E-03  0.18206969440E-01  0.14841833459E-01  0.10204328469E+01  0.10201622807E+01 0.  0.
     999903    2    3    3    0    0 -0.12507552440E+00 -0.24787016259E-01 -0.16152959159E-01  0.13009189891E+00  0.20117184070E-01 0.  0.
         14    1    1    2    0    0  0.58518840277E-03 -0.18206969440E-01 -0.14841833459E-01  0.23497153063E-01  0.00000000000E+00 0. -1.
     999901    1    3    3    0    0  0.12449033599E+00  0.42993985698E-01  0.30994792618E-01  0.89034094803E+00  0.88000000000E+00 0.  1.
        -11    1    4    4    0    0 -0.30842288833E-01 -0.38364190181E-02 -0.12452139929E-01  0.33485546152E-01  0.51100000000E-03 0.  1.
         11    1    4    4    0    0 -0.94233235563E-01 -0.20950597241E-01 -0.37008192298E-02  0.96606352759E-01  0.51100000000E-03 0. -1.
</event>
<event>
 8    1  0.1117714E+005  0.1043930E+01  0.7957747E-01            NaN
         13   -1    0    0    0    0  0.00000000000E+00  0.00000000000E+00  0.74505805969E-08  0.10566000000E+00  0.10566000000E+00 0. -1.
     999900   -1    0    0    0    0 -0.00000000000E+00 -0.00000000000E+00 -0.74505805969E-08  0.93827000000E+00  0.93827000000E+00 0. -1.
     999902    2    1    2    0    0 -0.10613483085E-01 -0.17378399703E-01  0.70808053168E-02  0.10223709508E+01  0.10221436144E+01 0.  0.
     999903    2    3    3    0    0 -0.72240629949E-01  0.32630468763E-01 -0.10352425089E+00  0.13190350577E+00  0.19945129851E-01 0.  0.
         14    1    1    2    0    0  0.10613483085E-01  0.17378399703E-01 -0.70808053168E-02  0.21559049223E-01  0.00000000000E+00 0. -1.
     999901    1    3    3    0    0  0.61627146864E-01 -0.50008868466E-01  0.11060505621E+00  0.89046744501E+00  0.88000000000E+00 0.  1.
        -11    1    4    4    0    0 -0.16376232838E-01  0.17209187649E-01 -0.31491898834E-01  0.39450449359E-01  0.51100000000E-03 0. -1.
         11    1    4    4    0    0 -0.55864397112E-01  0.15421281114E-01 -0.72032352059E-01  0.92453056412E-01  0.51100000000E-03 0.  1.
</event>
<event>
 8    1  0.1117714E+005  0.1043930E+01  0.7957747E-01            NaN
         13   -1    0    0    0    0  0.00000000000E+00  0.00000000000E+00  0.74505805969E-08  0.10566000000E+00  0.10566000000E+00 0. -1.
     999900   -1    0    0    0    0 -0.00000000000E+00 -0.00000000000E+00 -0.74505805969E-08  0.93827000000E+00  0.93827000000E+00 0.  1.
     999902    2    1    2    0    0 -0.58315628554E-02 -0.21290757320E-01 -0.42016009646E-02  0.10214587534E+01  0.10212115491E+01 0.  0.
     999903    2    3    3    0    0 -0.73604678659E-01 -0.12757965106E-01 -0.10809309324E+00  0.13271838303E+00  0.18698609420E-01 0.  0.
         14    1    1    2    0    0  0.58315628554E-02  0.21290757320E-01  0.42016009646E-02  0.22471246589E-01  0.00000000000E+00 0. -1.
     999901    1    3    3    0    0  0.67773115804E-01 -0.85327922138E-02  0.10389149228E+00  0.88874037038E+00  0.88000000000E+00 0.  1.
        -11    1    4    4    0    0 -0.24158056400E-01 -0.12432044598E-01 -0.44812806792E-01  0.52408169167E-01  0.51100000000E-03 0.  1.
         11    1    4    4    0    0 -0.49446622259E-01 -0.32592050809E-03 -0.63280286452E-01  0.80310213867E-01  0.51100000000E-03 0. -1.
</event>
<event>
 8    1  0.1117714E+005  0.1043930E+01  0.7957747E-01            NaN
         13   -1    0    0    0    0  0.00000000000E+00  0.00000000000E+00  0.74505805969E-08  0.10566000000E+00  0.10566000000E+00 0.  1.
     999900   -1    0    0    0    0 -0.00000000000E+00 -0.00000000000E+00 -0.74505805969E-08  0.93827000000E+00  0.93827000000E+00 0.  1.
     999902    2    1    2    0    0 -0.51767803758E-02  0.13362971284E-01 -0.15918185105E-01  0.10225113942E+01  0.10222870412E+01 0.  0.
     999903    2    3    3    0    0 -0.89550637172E-02  0.99696567111E-01  0.85527354581E-01  0.13247826971E+00  0.14695744450E-01 0.  0.
         14    1    1    2    0    0  0.51767803758E-02 -0.13362971284E-01  0.15918185105E-01  0.21418605782E-01  0.00000000000E+00 0.  1.
     999901    1    3    3    0    0  0.37782833414E-02 -0.86333595827E-01 -0.10144553969E+00  0.89003312450E+00  0.88000000000E+00 0.  1.
        -11    1    4    4    0    0  0.35127983251E-02  0.41126580123E-01  0.35664958485E-01  0.54552595992E-01  0.51100000000E-03 0.  1.
         11    1    4    4    0    0 -0.12467862042E-01  0.58569986987E-01  0.49862396096E-01  0.77925673722E-01  0.51100000000E-03 0. -1.
</event>
<event>
 8    1  0.1117714E+005  0.1043930E+01  0.7957747E-01            NaN
         13   -1    0    0    0    0  0.00000000000E+00  0.00000000000E+00  0.74505805969E-08  0.10566000000E+00  0.10566000000E+00 0.  1.
     999900   -1    0    0    0    0 -0.00000000000E+00 -0.00000000000E+00 -0.74505805969E-08  0.93827000000E+00  0.93827000000E+00 0. -1.
     999902    2    1    2    0    0  0.12987297991E-01  0.30909165992E-02  0.20217456176E-01  0.10197025526E+01  0.10194146980E+01 0.  0.
     999903    2    3    3    0    0 -0.70858561676E-01  0.10591906759E+00 -0.13400464348E-01  0.12912188728E+00  0.15909264187E-01 0.  0.
         14    1    1    2    0    0 -0.12987297991E-01 -0.30909165992E-02 -0.20217456176E-01  0.24227447426E-01  0.00000000000E+00 0. -1.
     999901    1    3    3    0    0  0.83845859667E-01 -0.10282815099E+00  0.33617920524E-01  0.89058066530E+00  0.88000000000E+00 0. -1.
        -11    1    4    4    0    0 -0.27801032587E-01  0.33119210285E-01 -0.10451254312E-01  0.44488979989E-01  0.51100000000E-03 0.  1.
         11    1    4    4    0    0 -0.43057529089E-01  0.72799857307E-01 -0.29492100358E-02  0.84632907288E-01  0.51100000000E-03 0. -1.
</event>
<event>
 8    1  0.1117714E+005  0.1043930E+01  0.7957747E-01            NaN
         13   -1    0    0    0    0  0.00000000000E+00  0.00000000000E+00  0.74505805969E-08  0.10566000000E+00  0.10566000000E+00 0.  1.
     999900   -1    0    0    0    0 -0.00000000000E+00 -0.00000000000E+00 -0.74505805969E-08  0.93827000000E+00  0.93827000000E+00 0. -1.
     999902    2    1    2    0    0 -0.70598004513E-02  0.18197956419E-01  0.16751696851E-01  0.10182079132E+01  0.10178829642E+01 0.  0.
     999903    2    3    3    0    0 -0.11156475599E+00 -0.44599388522E-01  0.42900103940E-01  0.12941742529E+00  0.21740533899E-01 0.  0.
         14    1    1    2    0    0  0.70598004513E-02 -0.18197956419E-01 -0.16751696851E-01  0.25722086767E-01  0.00000000000E+00 0. -1.
     999901    1    3    3    0    0  0.10450495554E+00  0.62797344941E-01 -0.26148407089E-01  0.88879048794E+00  0.88000000000E+00 0. -1.
        -11    1    4    4    0    0 -0.71778784346E-01 -0.27459427630E-01  0.16249311738E-01  0.78552627587E-01  0.51100000000E-03 0. -1.
         11    1    4    4    0    0 -0.39785971648E-01 -0.17139960893E-01  0.26650792202E-01  0.50864797703E-01  0.51100000000E-03 0.  1.
</event>
<event>
 8    1  0.1117714E+005  0.1043930E+01  0.7957747E-01            NaN
         13   -1    0    0    0    0  0.00000000000E+00  0.00000000000E+00  0.74505805969E-08  0.10566000000E+00  0.10566000000E+00 0.  1.
     999900   -1    0    0    0    0 -0.00000000000E+00 -0.00000000000E+00 -0.74505805969E-08  0.93827000000E+00  0.93827000000E+00 0.  1.
     999902    2    1    2    0    0 -0.60672842015E-02  0.49685023422E-02  0.22031238635E-01  0.10205446749E+01  0.10202767076E+01 0.  0.
     999903    2    3    3    0    0 -0.53245034170E-01 -0.71488008531E-01 -0.90942003859E-01  0.12878557535E+00  0.19227774855E-01 0.  0.
         14    1    1    2    0    0  0.60672842015E-02 -0.49685023422E-02 -0.22031238635E-01  0.23385325076E-01  0.00000000000E+00 0. -1.
     999901    1    3    3    0    0  0.47177749968E-01  0.76456510874E-01  0.11297324249E+00  0.89175909957E+00  0.88000000000E+00 0. -1.
        -11    1    4    4    0    0 -0.70441408075E-02 -0.14423834229E-02 -0.59067757842E-02  0.93194157982E-02  0.51100000000E-03 0.  1.
         11    1    4    4    0    0 -0.46200893362E-01 -0.70045625108E-01 -0.85035228074E-01  0.11946615956E+00  0.51100000000E-03 0. -1.
</event>
<event>
 8    1  0.1117714E+005  0.1043930E+01  0.7957747E-01            NaN
         13   -1    0    0    0    0  0.00000000000E+00  0.00000000000E+00  0.74505805969E-08  0.10566000000E+00  0.10566000000E+00 0. -1.
     999900   -1    0    0    0    0 -0.00000000000E+00 -0.00000000000E+00 -0.74505805969E-08  0.93827000000E+00  0.93827000000E+00 0.  1.
     999902    2    1    2    0    0 -0.22835181681E-01  0.89144387529E-02 -0.50550990722E-02  0.10189006818E+01  0.10185932126E+01 0.  0.
     999903    2    3    3    0    0  0.77037393751E-01 -0.63776858368E-01 -0.76321861480E-01  0.12742016752E+00  0.20214471336E-01 0.  0.
         14    1    1    2    0    0  0.22835181681E-01 -0.89144387529E-02  0.50550990722E-02  0.25029318155E-01  0.00000000000E+00 0.  1.
     999901    1    3    3    0    0 -0.99872575432E-01  0.72691297121E-01  0.71266762407E-01  0.89148051433E+00  0.88000000000E+00 0. -1.
        -11    1    4    4    0    0  0.52323056853E-01 -0.51835130791E-01 -0.47642544799E-01  0.87719189796E-01  0.51100000000E-03 0. -1.
         11    1    4    4    0    0  0.24714336898E-01 -0.11941727577E-01 -0.28679316680E-01  0.39700977722E-01  0.51100000000E-03 0.  1.
</event>
<event>
 8    1  0.1117714E+005  0.1043930E+01  0.7957747E-01            NaN
         13   -1    0    0    0    0  0.00000000000E+00  0.00000000000E+00  0.74505805969E-08  0.10566000000E+00  0.10566000000E+00 0. -1.
     999900   -1    0    0    0    0 -0.00000000000E+00 -0.00000000000E+00 -0.74505805969E-08  0.93827000000E+00  0.93827000000E+00 0. -1.
     999902    2    1    2    0    0  0.10239045835E-01 -0.27666924947E-02  0.22281684348E-01  0.10192527614E+01  0.10189539860E+01 0.  0.
     999903    2    3    3    0    0  0.40143161767E-03  0.96544041913E-01 -0.81101624126E-01  0.12759839503E+00  0.19569460936E-01 0.  0.
         14    1    1    2    0    0 -0.10239045835E-01  0.27666924947E-02 -0.22281684348E-01  0.24677238588E-01  0.00000000000E+00 0.  1.
     999901    1    3    3    0    0  0.98376142173E-02 -0.99310734408E-01  0.10338330847E+00  0.89165436638E+00  0.88000000000E+00 0.  1.
        -11    1    4    4    0    0  0.65474682858E-02  0.12661861148E-01 -0.94759498665E-02  0.17124450810E-01  0.51100000000E-03 0.  1.
         11    1    4    4    0    0 -0.61460366682E-02  0.83882180766E-01 -0.71625674259E-01  0.11047394422E+00  0.51100000000E-03 0. -1.
</event>
<event>
 8    1  0.1117714E+005  0.1043930E+01  0.7957747E-01            NaN
         13   -1    0    0    0    0  0.00000000000E+00  0.00000000000E+00  0.74505805969E-08  0.10566000000E+00  0.10566000000E+00 0. -1.
     999900   -1    0    0    0    0 -0.00000000000E+00 -0.00000000000E+00 -0.74505805969E-08  0.93827000000E+00  0.93827000000E+00 0.  1.
     999902    2    1    2    0    0  0.35871910246E-02 -0.14395342009E-01  0.18193285182E-01  0.10204547058E+01  0.10201846486E+01 0.  0.
     999903    2    3    3    0    0 -0.10860105529E+00 -0.19937330685E-01 -0.64388399659E-01  0.12947959342E+00  0.20673962784E-01 0.  0.
         14    1    1    2    0    0 -0.35871910246E-02  0.14395342009E-01 -0.18193285182E-01  0.23475294177E-01  0.00000000000E+00 0.  1.
     999901    1    3    3    0    0  0.11218824631E+00  0.55419886761E-02  0.82581684841E-01  0.89097511240E+00  0.88000000000E+00 0.  1.
        -11    1    4    4    0    0 -0.62929254733E-01 -0.25636448593E-02 -0.42177186152E-01  0.75801316142E-01  0.51100000000E-03 0.  1.
         11    1    4    4    0    0 -0.45671800555E-01 -0.17373685826E-01 -0.22211213507E-01  0.53678277279E-01  0.51100000000E-03 0. -1.
</event>
<event>
 8    1  0.1117714E+005  0.1043930E+01  0.7957747E-01            NaN
         13   -1    0    0    0    0  0.00000000000E+00  0.00000000000E+00  0.74505805969E-08  0.10566000000E+00  0.10566000000E+00 0. -1.
     999900   -1    0    0    0    0 -0.00000000000E+00 -0.00000000000E+00 -0.74505805969E-08  0.93827000000E+00  0.93827000000E+00 0. -1.
     999902    2    1    2    0    0  0.21063444593E-01 -0.10194498453E-01  0.37225504449E-02  0.10202349820E+01  0.10199597858E+01 0.  0.
     999903    2    3    3    0    0  0.13143914982E+00  0.70992028388E-02 -0.31854003992E-03  0.13316215588E+00  0.20134783409E-01 0.  0.
         14    1    1    2    0    0 -0.21063444593E-01  0.10194498453E-01 -0.37225504449E-02  0.23695018014E-01  0.00000000000E+00 0.  1.
     999901    1    3    3    0    0 -0.11037570523E+00 -0.17293701292E-01  0.40410904848E-02  0.88707282611E+00  0.88000000000E+00 0. -1.
        -11    1    4    4    0    0  0.11890743559E+00  0.48690092042E-03 -0.16535438576E-02  0.11892102691E+00  0.51100000000E-03 0. -1.
         11    1    4    4    0    0  0.12531714228E-01  0.66123019184E-02  0.13350038177E-02  0.14241128970E-01  0.51100000000E-03 0.  1.
</event>
<event>
 8    1  0.1117714E+005  0.1043930E+01  0.7957747E-01            NaN
         13   -1    0    0    0    0  0.00000000000E+00  0.00000000000E+00  0.74505805969E-08  0.10566000000E+00  0.10566000000E+00 0. -1.
     999900   -1    0    0    0    0 -0.00000000000E+00 -0.00000000000E+00 -0.74505805969E-08  0.93827000000E+00  0.93827000000E+00 0.  1.
     999902    2    1    2    0    0  0.12945560207E-01 -0.77867008107E-03  0.19996455682E-01  0.10200961565E+01  0.10198176878E+01 0.  0.
     999903    2    3    3    0    0  0.90297666361E-02  0.86616755037E-02  0.13086680147E+00  0.13308054946E+00  0.20682156778E-01 0.  0.
         14    1    1    2    0    0 -0.12945560207E-01  0.77867008107E-03 -0.19996455682E-01  0.23833843501E-01  0.00000000000E+00 0.  1.
     999901    1    3    3    0    0  0.39157935707E-02 -0.94403455848E-02 -0.11087034579E+00  0.88701560704E+00  0.88000000000E+00 0.  1.
        -11    1    4    4    0    0  0.10200590442E-01  0.74542185798E-02  0.35277135752E-01  0.37474722785E-01  0.51100000000E-03 0. -1.
         11    1    4    4    0    0 -0.11708238055E-02  0.12074569239E-02  0.95589665716E-01  0.95605826671E-01  0.51100000000E-03 0.  1.
</event>
<event>
 8    1  0.1117714E+005  0.1043930E+01  0.7957747E-01            NaN
         13   -1    0    0    0    0  0.00000000000E+00  0.00000000000E+00  0.74505805969E-08  0.10566000000E+00  0.10566000000E+00 0. -1.
     999900   -1    0    0    0    0 -0.00000000000E+00 -0.00000000000E+00 -0.74505805969E-08  0.93827000000E+00  0.93827000000E+00 0. -1.
     999902    2    1    2    0    0  0.11713644787E-01 -0.11647359858E-01  0.17205886070E-01  0.10200781032E+01  0.10197992075E+01 0.  0.
     999903    2    3    3    0    0 -0.84381451144E-01  0.79363956302E-01 -0.50316954924E-01  0.12762269188E+00  0.18354527289E-01 0.  0.
         14    1    1    2    0    0 -0.11713644787E-01  0.11647359858E-01 -0.17205886070E-01  0.23851896808E-01  0.00000000000E+00 0.  1.
     999901    1    3    3    0    0  0.96095095931E-01 -0.91011316160E-01  0.67522840994E-01  0.89245541132E+00  0.88000000000E+00 0.  1.
        -11    1    4    4    0    0 -0.19745596473E-01  0.26750319909E-01 -0.82348693304E-02  0.34257004965E-01  0.51100000000E-03 0.  1.
         11    1    4    4    0    0 -0.64635854671E-01  0.52613636393E-01 -0.42082085594E-01  0.93365686912E-01  0.51100000000E-03 0. -1.
</event>
<event>
 8    1  0.1117714E+005  0.1043930E+01  0.7957747E-01            NaN
         13   -1    0    0    0    0  0.00000000000E+00  0.00000000000E+00  0.74505805969E-08  0.10566000000E+00  0.10566000000E+00 0.  1.
     999900   -1    0    0    0    0 -0.00000000000E+00 -0.00000000000E+00 -0.74505805969E-08  0.93827000000E+00  0.93827000000E+00 0. -1.
     999902    2    1    2    0    0  0.20159633120E-01  0.96148270907E-02  0.79632964128E-02  0.10202177711E+01  0.10199421703E+01 0.  0.
     999903    2    3    3    0    0 -0.63984312509E-01  0.86208626766E-01 -0.69817956905E-01  0.12948956507E+00  0.19159352256E-01 0.  0.
         14    1    1    2    0    0 -0.20159633120E-01 -0.96148270907E-02 -0.79632964128E-02  0.23712228855E-01  0.00000000000E+00 0.  1.
     999901    1    3    3    0    0  0.84143945628E-01 -0.76593799675E-01  0.77781253318E-01  0.89072820608E+00  0.88000000000E+00 0.  1.
        -11    1    4    4    0    0 -0.28800027171E-01  0.49669603131E-01 -0.45362769017E-01  0.73174811063E-01  0.51100000000E-03 0.  1.
         11    1    4    4    0    0 -0.35184285337E-01  0.36539023635E-01 -0.24455187888E-01  0.56314754004E-01  0.51100000000E-03 0. -1.
</event>
<event>
 8    1  0.1117714E+005  0.1043930E+01  0.7957747E-01            NaN
         13   -1    0    0    0    0  0.00000000000E+00  0.00000000000E+00  0.74505805969E-08  0.10566000000E+00  0.10566000000E+00 0. -1.
     999900   -1    0    0    0    0 -0.00000000000E+00 -0.00000000000E+00 -0.74505805969E-08  0.93827000000E+00  0.93827000000E+00 0. -1.
     999902    2    1    2    0    0  0.23924551404E-01  0.28901822587E-02  0.28551661030E-03  0.10198298167E+01  0.10195450143E+01 0.  0.
     999903    2    3    3    0    0 -0.35579724615E-01 -0.70866498211E-01  0.99893747311E-01  0.12915445141E+00  0.20350287363E-01 0.  0.
         14    1    1    2    0    0 -0.23924551404E-01 -0.28901822587E-02 -0.28551661030E-03  0.24100183259E-01  0.00000000000E+00 0.  1.
     999901    1    3    3    0    0  0.59504276019E-01  0.73756680470E-01 -0.99608230700E-01  0.89067536533E+00  0.88000000000E+00 0. -1.
        -11    1    4    4    0    0 -0.18327922149E-01 -0.18393114933E-01  0.24609929910E-01  0.35778892918E-01  0.51100000000E-03 0. -1.
         11    1    4    4    0    0 -0.17251802466E-01 -0.52473383278E-01  0.75283817401E-01  0.93375558496E-01  0.51100000000E-03 0.  1.
</event>
<event>
 8    1  0.1117714E+005  0.1043930E+01  0.7957747E-01            NaN
         13   -1    0    0    0    0  0.00000000000E+00  0.00000000000E+00  0.74505805969E-08  0.10566000000E+00  0.10566000000E+00 0. -1.
     999900   -1    0    0    0    0 -0.00000000000E+00 -0.00000000000E+00 -0.74505805969E-08  0.93827000000E+00  0.93827000000E+00 0. -1.
     999902    2    1    2    0    0  0.17797086703E-01 -0.49541914262E-02 -0.17411225293E-01  0.10185443530E+01  0.10182279548E+01 0.  0.
     999903    2    3    3    0    0 -0.36925121475E-01 -0.24964187980E-01  0.11657421670E+00  0.12649781906E+00  0.20627044164E-01 0.  0.
         14    1    1    2    0    0 -0.17797086703E-01  0.49541914262E-02  0.17411225293E-01  0.25385647007E-01  0.00000000000E+00 0. -1.
     999901    1    3    3    0    0  0.54722208177E-01  0.20009996554E-01 -0.13398544199E+00  0.89204653393E+00  0.88000000000E+00 0. -1.
        -11    1    4    4    0    0 -0.32538894895E-01 -0.20068881648E-01  0.72792937294E-01  0.82222944076E-01  0.51100000000E-03 0. -1.
         11    1    4    4    0    0 -0.43862265801E-02 -0.48953063321E-02  0.43781279406E-01  0.44274874987E-01  0.51100000000E-03 0.  1.
</event>
<event>
 8    1  0.1117714E+005  0.1043930E+01  0.7957747E-01            NaN
         13   -1    0    0    0    0  0.00000000000E+00  0.00000000000E+00  0.74505805969E-08  0.10566000000E+00  0.10566000000E+00 0.  1.
     999900   -1    0    0    0    0 -0.00000000000E+00 -0.00000000000E+00 -0.74505805969E-08  0.93827000000E+00  0.93827000000E+00 0.  1.
     999902    2    1    2    0    0  0.83855291903E-02  0.11799408838E-01 -0.18159861223E-01  0.10207066560E+01  0.10204424304E+01 0.  0.
     999903    2    3    3    0    0  0.11861692347E+00 -0.13527136933E-01 -0.54328502677E-01  0.13273111304E+00  0.20322504743E-01 0.  0.
         14    1    1    2    0    0 -0.83855291903E-02 -0.11799408838E-01  0.18159861223E-01  0.23223344039E-01  0.00000000000E+00 0.  1.
     999901    1    3    3    0    0 -0.11023139428E+00  0.25326545771E-01  0.36168641455E-01  0.88797554292E+00  0.88000000000E+00 0. -1.
        -11    1    4    4    0    0  0.75895792606E-01 -0.16567451068E-01 -0.28698164973E-01  0.82816046537E-01  0.51100000000E-03 0. -1.
         11    1    4    4    0    0  0.42721130860E-01  0.30403141350E-02 -0.25630337704E-01  0.49915066501E-01  0.51100000000E-03 0.  1.
</event>
<event>
 8    1  0.1117714E+005  0.1043930E+01  0.7957747E-01            NaN
         13   -1    0    0    0    0  0.00000000000E+00  0.00000000000E+00  0.74505805969E-08  0.10566000000E+00  0.10566000000E+00 0.  1.
     999900   -1    0    0    0    0 -0.00000000000E+00 -0.00000000000E+00 -0.74505805969E-08  0.93827000000E+00  0.93827000000E+00 0.  1.
     999902    2    1    2    0    0 -0.96376119738E-02 -0.18303125947E-01  0.11105321871E-01  0.10204520069E+01  0.10201818869E+01 0.  0.
     999903    2    3    3    0    0 -0.13548852573E-01  0.10706409401E+00 -0.66417958213E-01  0.12818405582E+00  0.19326545509E-01 0.  0.
         14    1    1    2    0    0  0.96376119738E-02  0.18303125947E-01 -0.11105321871E-01  0.23477993054E-01  0.00000000000E+00 0. -1.
     999901    1    3    3    0    0  0.39112405995E-02 -0.12536721996E+00  0.77523280084E-01  0.89226795112E+00  0.88000000000E+00 0. -1.
        -11    1    4    4    0    0 -0.57592529439E-02  0.65979202859E-01 -0.29917555270E-01  0.72675617911E-01  0.51100000000E-03 0.  1.
         11    1    4    4    0    0 -0.77895996294E-02  0.41084891155E-01 -0.36500402943E-01  0.55508437913E-01  0.51100000000E-03 0. -1.
</event>
<event>
 8    1  0.1117714E+005  0.1043930E+01  0.7957747E-01            NaN
         13   -1    0    0    0    0  0.00000000000E+00  0.00000000000E+00  0.74505805969E-08  0.10566000000E+00  0.10566000000E+00 0.  1.
     999900   -1    0    0    0    0 -0.00000000000E+00 -0.00000000000E+00 -0.74505805969E-08  0.93827000000E+00  0.93827000000E+00 0. -1.
     999902    2    1    2    0    0  0.12194466943E-01  0.91649892750E-02  0.18930504951E-01  0.10196181496E+01  0.10193282616E+01 0.  0.
     999903    2    3    3    0    0 -0.56739433967E-02 -0.69835177329E-01  0.10948376721E+00  0.13127125805E+00  0.18338546321E-01 0.  0.
         14    1    1    2    0    0 -0.12194466943E-01 -0.91649892750E-02 -0.18930504951E-01  0.24311850406E-01  0.00000000000E+00 0.  1.
     999901    1    3    3    0    0  0.17868410339E-01  0.79000166604E-01 -0.90553262259E-01  0.88834689154E+00  0.88000000000E+00 0. -1.
        -11    1    4    4    0    0 -0.98189986810E-02 -0.63931732041E-01  0.10259756590E+00  0.12128561641E+00  0.51100000000E-03 0.  1.
         11    1    4    4    0    0  0.41450552844E-02 -0.59034452878E-02  0.68862013055E-02  0.99856416417E-02  0.51100000000E-03 0. -1.
</event>
<event>
 7    1  0.1117714E+005  0.1043930E+01  0.7957747E-01            NaN
         13   -1    0    0    0    0  0.00000000000E+00  0.00000000000E+00  0.74505805969E-08  0.10566000000E+00  0.10566000000E+00 0. -1.
     999900   -1    0    0    0    0 -0.00000000000E+00 -0.00000000000E+00 -0.74505805969E-08  0.93827000000E+00  0.93827000000E+00 0.  1.
     999902    2    1    2    0    0 -0.13963639776E-01  0.13799302235E-01  0.12130166728E-01  0.10208530651E+01  0.10205921985E+01 0.  0.
         14    1    1    2    0    0  0.13963639776E-01 -0.13799302235E-01 -0.12130166728E-01  0.23076934866E-01  0.00000000000E+00 0.  1.
     999901    1    3    3    0    0  0.89878818148E-01  0.74480647822E-01 -0.12562467931E-01  0.88779692749E+00  0.88000000000E+00 0.  1.
        -11    1    3    3    0    0 -0.38816524649E-01 -0.51698802008E-01  0.67475402596E-02  0.65002147160E-01  0.51100000000E-03 0.  1.
         11    1    3    3    0    0 -0.65025933275E-01 -0.89825435792E-02  0.17945094399E-01  0.68053990489E-01  0.51100000000E-03 0. -1.
</event>
<event>
 8    1  0.1117714E+005  0.1043930E+01  0.7957747E-01            NaN
         13   -1    0    0    0    0  0.00000000000E+00  0.00000000000E+00  0.74505805969E-08  0.10566000000E+00  0.10566000000E+00 0. -1.
     999900   -1    0    0    0    0 -0.00000000000E+00 -0.00000000000E+00 -0.74505805969E-08  0.93827000000E+00  0.93827000000E+00 0. -1.
     999902    2    1    2    0    0 -0.86060807593E-02  0.18033477757E-02  0.21794547390E-01  0.10204285323E+01  0.10201578655E+01 0.  0.
     999903    2    3    3    0    0  0.59187754717E-01  0.72830155381E-01  0.91137950442E-01  0.13225663502E+00  0.19449155640E-01 0.  0.
         14    1    1    2    0    0  0.86060807593E-02 -0.18033477757E-02 -0.21794547390E-01  0.23501467724E-01  0.00000000000E+00 0.  1.
     999901    1    3    3    0    0 -0.67793835476E-01 -0.71026807606E-01 -0.69343403052E-01  0.88817189726E+00  0.88000000000E+00 0. -1.
        -11    1    4    4    0    0  0.26063113156E-01  0.42711165347E-01  0.38387494398E-01  0.63066555001E-01  0.51100000000E-03 0. -1.
         11    1    4    4    0    0  0.33124641561E-01  0.30118990035E-01  0.52750456044E-01  0.69190080020E-01  0.51100000000E-03 0.  1.
</event>
<event>
 8    1  0.1117714E+005  0.1043930E+01  0.7957747E-01            NaN
         13   -1    0    0    0    0  0.00000000000E+00  0.00000000000E+00  0.74505805969E-08  0.10566000000E+00  0.10566000000E+00 0. -1.
     999900   -1    0    0    0    0 -0.00000000000E+00 -0.00000000000E+00 -0.74505805969E-08  0.93827000000E+00  0.93827000000E+00 0.  1.
     999902    2    1    2    0    0 -0.78648654857E-02  0.16770039289E-01  0.17376239181E-01  0.10185326770E+01  0.10182159840E+01 0.  0.
     999903    2    3    3    0    0  0.71039854872E-01 -0.11784207991E-01  0.10644627422E+00  0.13006502365E+00  0.20014308475E-01 0.  0.
         14    1    1    2    0    0  0.78648654857E-02 -0.16770039289E-01 -0.17376239181E-01  0.25397322987E-01  0.00000000000E+00 0.  1.
     999901    1    3    3    0    0 -0.78904720358E-01  0.28554247280E-01 -0.89070035037E-01  0.88846765336E+00  0.88000000000E+00 0.  1.
        -11    1    4    4    0    0  0.42098860864E-01 -0.93023644999E-02  0.46286283574E-01  0.63257641747E-01  0.51100000000E-03 0.  1.
         11    1    4    4    0    0  0.28940994008E-01 -0.24818434909E-02  0.60159990644E-01  0.66807381902E-01  0.51100000000E-03 0. -1.
</event>
<event>
 8    1  0.1117714E+005  0.1043930E+01  0.7957747E-01            NaN
         13   -1    0    0    0    0  0.00000000000E+00  0.00000000000E+00  0.74505805969E-08  0.10566000000E+00  0.10566000000E+00 0.  1.
     999900   -1    0    0    0    0 -0.00000000000E+00 -0.00000000000E+00 -0.74505805969E-08  0.93827000000E+00  0.93827000000E+00 0.  1.
     999902    2    1    2    0    0 -0.12054077846E-01 -0.18479509809E-01 -0.88744855206E-02  0.10201487139E+01  0.10198714865E+01 0.  0.
     999903    2    3    3    0    0  0.89704378305E-01  0.11651099024E-01 -0.91103455647E-01  0.12996657494E+00  0.20219974668E-01 0.  0.
         14    1    1    2    0    0  0.12054077846E-01  0.18479509809E-01  0.88744855206E-02  0.23781286103E-01  0.00000000000E+00 0. -1.
     999901    1    3    3    0    0 -0.10175845615E+00 -0.30130608832E-01  0.82228970126E-01  0.89018213896E+00  0.88000000000E+00 0. -1.
        -11    1    4    4    0    0  0.38678601357E-01  0.32188822759E-02 -0.25564453021E-01  0.46477927937E-01  0.51100000000E-03 0. -1.
         11    1    4    4    0    0  0.51025776949E-01  0.84322167477E-02 -0.65539002626E-01  0.83488647004E-01  0.51100000000E-03 0.  1.
</event>
<event>
 8    1  0.1117714E+005  0.1043930E+01  0.7957747E-01            NaN
         13   -1    0    0    0    0  0.00000000000E+00  0.00000000000E+00  0.74505805969E-08  0.10566000000E+00  0.10566000000E+00 0. -1.
     999900   -1    0    0    0    0 -0.00000000000E+00 -0.00000000000E+00 -0.74505805969E-08  0.93827000000E+00  0.93827000000E+00 0.  1.
     999902    2    1    2    0    0 -0.16766599935E-01 -0.16103909359E-01 -0.34962315162E-02  0.10204208868E+01  0.10201500418E+01 0.  0.
     999903    2    3    3    0    0  0.25576078996E-01 -0.70013698046E-01 -0.10679017878E+00  0.13173151060E+00  0.19824098251E-01 0.  0.
         14    1    1    2    0    0  0.16766599935E-01  0.16103909359E-01  0.34962315162E-02  0.23509113229E-01  0.00000000000E+00 0. -1.
     999901    1    3    3    0    0 -0.42342678931E-01  0.53909788688E-01  0.10329394726E+00  0.88868937617E+00  0.88000000000E+00 0. -1.
        -11    1    4    4    0    0  0.17044199159E-01 -0.21352833864E-01 -0.44593936868E-01  0.52300368693E-01  0.51100000000E-03 0.  1.
         11    1    4    4    0    0  0.85318798373E-02 -0.48660864182E-01 -0.62196241908E-01  0.79431141909E-01  0.51100000000E-03 0. -1.
</event>
<event>
 8    1  0.1117714E+005  0.1043930E+01  0.7957747E-01            NaN
         13   -1    0    0    0    0  0.00000000000E+00  0.00000000000E+00  0.74505805969E-08  0.10566000000E+00  0.10566000000E+00 0.  1.
     999900   -1    0    0    0    0 -0.00000000000E+00 -0.00000000000E+00 -0.74505805969E-08  0.93827000000E+00  0.93827000000E+00 0. -1.
     999902    2    1    2    0    0 -0.14731321202E-01  0.15810424000E-01  0.98098009634E-02  0.10201978799E+01  0.10199218110E+01 0.  0.
     999903    2    3    3    0    0  0.31957898158E-01  0.11305078274E+00  0.57469567820E-01  0.13233132235E+00  0.20175255038E-01 0.  0.
         14    1    1    2    0    0  0.14731321202E-01 -0.15810424000E-01 -0.98098009634E-02  0.23732120140E-01  0.00000000000E+00 0. -1.
     999901    1    3    3    0    0 -0.46689219360E-01 -0.97240358740E-01 -0.47659766857E-01  0.88786655751E+00  0.88000000000E+00 0. -1.
        -11    1    4    4    0    0  0.31677801704E-01  0.81248095349E-01  0.38795763566E-01  0.95446888426E-01  0.51100000000E-03 0. -1.
         11    1    4    4    0    0  0.28009645420E-03  0.31802687391E-01  0.18673804254E-01  0.36884433921E-01  0.51100000000E-03 0.  1.
</event>
<event>
 8    1  0.1117714E+005  0.1043930E+01  0.7957747E-01            NaN
         13   -1    0    0    0    0  0.00000000000E+00  0.00000000000E+00  0.74505805969E-08  0.10566000000E+00  0.10566000000E+00 0. -1.
     999900   -1    0    0    0    0 -0.00000000000E+00 -0.00000000000E+00 -0.74505805969E-08  0.93827000000E+00  0.93827000000E+00 0. -1.
     999902    2    1    2    0    0  0.14890305453E-01 -0.14455310996E-01 -0.10826148095E-01  0.10205231058E+01  0.10202546382E+01 0.  0.
     999903    2    3    3    0    0 -0.64998282590E-02  0.11313403336E+00  0.57250969052E-01  0.12846308963E+00  0.19584041154E-01 0.  0.
         14    1    1    2    0    0 -0.14890305453E-01  0.14455310996E-01  0.10826148095E-01  0.23406894178E-01  0.00000000000E+00 0. -1.
     999901    1    3    3    0    0  0.21390133712E-01 -0.12758934435E+00 -0.68077117148E-01  0.89206001619E+00  0.88000000000E+00 0.  1.
        -11    1    4    4    0    0 -0.62585604745E-02  0.43610530555E-01  0.12571357701E-01  0.45818643694E-01  0.51100000000E-03 0. -1.
         11    1    4    4    0    0 -0.24126778455E-03  0.69523502804E-01  0.44679611351E-01  0.82644445934E-01  0.51100000000E-03 0.  1.
</event>
<event>
 8    1  0.1117714E+005  0.1043930E+01  0.7957747E-01            NaN
         13   -1    0    0    0    0  0.00000000000E+00  0.00000000000E+00  0.74505805969E-08  0.10566000000E+00  0.10566000000E+00 0.  1.
     999900   -1    0    0    0    0 -0.00000000000E+00 -0.00000000000E+00 -0.74505805969E-08  0.93827000000E+00  0.93827000000E+00 0. -1.
     999902    2    1    2    0    0 -0.23436953595E-01  0.59914867715E-02 -0.10791350336E-02  0.10197152681E+01  0.10194277193E+01 0.  0.
     999903    2    3    3    0    0 -0.25636720800E-01 -0.78402627046E-01 -0.98886625834E-01  0.13028089130E+00  0.19756833921E-01 0.  0.
         14    1    1    2    0    0  0.23436953595E-01 -0.59914867715E-02  0.10791350336E-02  0.24214731879E-01  0.00000000000E+00 0.  1.
     999901    1    3    3    0    0  0.21997672045E-02  0.84394113818E-01  0.97807490801E-01  0.88943437683E+00  0.88000000000E+00 0.  1.
        -11    1    4    4    0    0 -0.24762472106E-01 -0.46089221486E-01 -0.65066061952E-01  0.83494011168E-01  0.51100000000E-03 0.  1.
         11    1    4    4    0    0 -0.87424869362E-03 -0.32313405561E-01 -0.33820563882E-01  0.46786880127E-01  0.51100000000E-03 0. -1.
</event>
<event>
 8    1  0.1117714E+005  0.1043930E+01  0.7957747E-01            NaN
         13   -1    0    0    0    0  0.00000000000E+00  0.00000000000E+00  0.74505805969E-08  0.10566000000E+00  0.10566000000E+00 0.  1.
     999900   -1    0    0    0    0 -0.00000000000E+00 -0.00000000000E+00 -0.74505805969E-08  0.93827000000E+00  0.93827000000E+00 0.  1.
     999902    2    1    2    0    0  0.67604519928E-02  0.17704558391E-01  0.42502423981E-02  0.10245078565E+01  0.10243237419E+01 0.  0.
     999903    2    3    3    0    0 -0.29824543378E-01 -0.12549835802E+00 -0.17161564071E-01  0.13192508573E+00  0.21687962342E-01 0.  0.
         14    1    1    2    0    0 -0.67604519928E-02 -0.17704558391E-01 -0.42502423981E-02  0.19422143533E-01  0.00000000000E+00 0. -1.
     999901    1    3    3    0    0  0.36584995371E-01  0.14320291641E+00  0.21411806469E-01  0.89258277073E+00  0.88000000000E+00 0. -1.
        -11    1    4    4    0    0 -0.68349639606E-02 -0.63173353760E-01 -0.98340195387E-03  0.63551692015E-01  0.51100000000E-03 0. -1.
         11    1    4    4    0    0 -0.22989579418E-01 -0.62325004262E-01 -0.16178162117E-01  0.68373393718E-01  0.51100000000E-03 0.  1.
</event>
<event>
 8    1  0.1117714E+005  0.1043930E+01  0.7957747E-01            NaN
         13   -1    0    0    0    0  0.00000000000E+00  0.00000000000E+00  0.74505805969E-08  0.10566000000E+00  0.10566000000E+00 0.  1.
     999900   -1    0    0    0    0 -0.00000000000E+00 -0.00000000000E+00 -0.74505805969E-08  0.93827000000E+00  0.93827000000E+00 0.  1.
     999902    2    1    2    0    0  0.14742159000E-01  0.11664247576E-01  0.15008161397E-01  0.10198752534E+01  0.10195915367E+01 0.  0.
     999903    2    3    3    0    0  0.31562208643E-02  0.10475005934E+00  0.78031711149E-01  0.13264857996E+00  0.22894566154E-01 0.  0.
         14    1    1    2    0    0 -0.14742159000E-01 -0.11664247576E-01 -0.15008161397E-01  0.24054746559E-01  0.00000000000E+00 0.  1.
     999901    1    3    3    0    0  0.11585938135E-01 -0.93085811760E-01 -0.63023549752E-01  0.88722667348E+00  0.88000000000E+00 0. -1.
        -11    1    4    4    0    0  0.86799755604E-02  0.15218014846E-01  0.11455806375E-01  0.20938638262E-01  0.51100000000E-03 0.  1.
         11    1    4    4    0    0 -0.55237546961E-02  0.89532044490E-01  0.66575904775E-01  0.11170994170E+00  0.51100000000E-03 0. -1.
</event>
<event>
 8    1  0.1117714E+005  0.1043930E+01  0.7957747E-01            NaN
         13   -1    0    0    0    0  0.00000000000E+00  0.00000000000E+00  0.74505805969E-08  0.10566000000E+00  0.10566000000E+00 0.  1.
     999900   -1    0    0    0    0 -0.00000000000E+00 -0.00000000000E+00 -0.74505805969E-08  0.93827000000E+00  0.93827000000E+00 0.  1.
     999902    2    1    2    0    0 -0.21003828713E-01 -0.86841133565E-02 -0.76142902600E-02  0.10199601844E+01  0.10196784913E+01 0.  0.
     999903    2    3    3    0    0  0.11020058467E+00 -0.58507886923E-01  0.20276827077E-01  0.12840260298E+00  0.22555199880E-01 0.  0.
         14    1    1    2    0    0  0.21003828713E-01  0.86841133565E-02  0.76142902600E-02  0.23969815634E-01  0.00000000000E+00 0.  1.
     999901    1    3    3    0    0 -0.13120441338E+00  0.49823773567E-01 -0.27891117337E-01  0.89155758139E+00  0.88000000000E+00 0. -1.
        -11    1    4    4    0    0  0.47199488332E-01 -0.16685964512E-01  0.16401228368E-01  0.52682772549E-01  0.51100000000E-03 0.  1.
         11    1    4    4    0    0  0.63001096337E-01 -0.41821922411E-01  0.38755987087E-02  0.75719830429E-01  0.51100000000E-03 0. -1.
</event>
<event>
 8    1  0.1117714E+005  0.1043930E+01  0.7957747E-01            NaN
         13   -1    0    0    0    0  0.00000000000E+00  0.00000000000E+00  0.74505805969E-08  0.10566000000E+00  0.10566000000E+00 0. -1.
     999900   -1    0    0    0    0 -0.00000000000E+00 -0.00000000000E+00 -0.74505805969E-08  0.93827000000E+00  0.93827000000E+00 0.  1.
     999902    2    1    2    0    0 -0.15177683278E-01 -0.84477604899E-02  0.18006285823E-01  0.10189109461E+01  0.10186037321E+01 0.  0.
     999903    2    3    3    0    0 -0.10276308587E+00 -0.64543368209E-01 -0.43863714139E-01  0.13062843655E+00  0.20338751638E-01 0.  0.
         14    1    1    2    0    0  0.15177683278E-01  0.84477604899E-02 -0.18006285823E-01  0.25019053862E-01  0.00000000000E+00 0. -1.
     999901    1    3    3    0    0  0.87585402596E-01  0.56095607720E-01  0.61869999962E-01  0.88828250959E+00  0.88000000000E+00 0.  1.
        -11    1    4    4    0    0 -0.75699589338E-02 -0.11619110956E-01 -0.76664819170E-02  0.15853834983E-01  0.51100000000E-03 0. -1.
         11    1    4    4    0    0 -0.95193126940E-01 -0.52924257253E-01 -0.36197232222E-01  0.11477460156E+00  0.51100000000E-03 0.  1.
</event>
<event>
 8    1  0.1117714E+005  0.1043930E+01  0.7957747E-01            NaN
         13   -1    0    0    0    0  0.00000000000E+00  0.00000000000E+00  0.74505805969E-08  0.10566000000E+00  0.10566000000E+00 0.  1.
     999900   -1    0    0    0    0 -0.00000000000E+00 -0.00000000000E+00 -0.74505805969E-08  0.93827000000E+00  0.93827000000E+00 0.  1.
     999902    2    1    2    0    0  0.41065290561E-02  0.23284032310E-01  0.21940502218E-02  0.10201850301E+01  0.10199086586E+01 0.  0.
     999903    2    3    3    0    0 -0.34808338998E-01 -0.12110094978E+00  0.12947157348E-02  0.12756966002E+00  0.19881684241E-01 0.  0.
         14    1    1    2    0    0 -0.41065290561E-02 -0.23284032310E-01 -0.21940502218E-02  0.23744969949E-01  0.00000000000E+00 0. -1.
     999901    1    3    3    0    0  0.38914868054E-01  0.14438498209E+00  0.89933448705E-03  0.89261537003E+00  0.88000000000E+00 0.  1.
        -11    1    4    4    0    0 -0.17259542952E-01 -0.63970530477E-01 -0.91759774025E-02  0.66892303554E-01  0.51100000000E-03 0.  1.
         11    1    4    4    0    0 -0.17548796046E-01 -0.57130419302E-01  0.10470693137E-01  0.60677356469E-01  0.51100000000E-03 0. -1.
</event>
<event>
 8    1  0.1117714E+005  0.1043930E+01  0.7957747E-01            NaN
         13   -1    0    0    0    0  0.00000000000E+00  0.00000000000E+00  0.74505805969E-08  0.10566000000E+00  0.10566000000E+00 0. -1.
     999900   -1    0    0    0    0 -0.00000000000E+00 -0.00000000000E+00 -0.74505805969E-08  0.93827000000E+00  0.93827000000E+00 0. -1.
     999902    2    1    2    0    0 -0.34248261157E-02  0.17820368486E-01  0.14303094228E-01  0.10208242979E+01  0.10205627730E+01 0.  0.
     999903    2    3    3    0    0  0.67396850096E-01  0.11037428622E+00  0.25246002975E-01  0.13307338417E+00  0.18610385439E-01 0.  0.
         14    1    1    2    0    0  0.34248261157E-02 -0.17820368486E-01 -0.14303094228E-01  0.23105702141E-01  0.00000000000E+00 0.  1.
     999901    1    3    3    0    0 -0.70821676212E-01 -0.92553917733E-01 -0.10942908746E-01  0.88775091369E+00  0.88000000000E+00 0.  1.
        -11    1    4    4    0    0  0.51746028766E-01  0.79744060656E-01  0.10486444511E-01  0.95639915007E-01  0.51100000000E-03 0.  1.
         11    1    4    4    0    0  0.15650821330E-01  0.30630225563E-01  0.14759558463E-01  0.37433469161E-01  0.51100000000E-03 0. -1.
</event>
<event>
 8    1  0.1117714E+005  0.1043930E+01  0.7957747E-01            NaN
         13   -1    0    0    0    0  0.00000000000E+00  0.00000000000E+00  0.74505805969E-08  0.10566000000E+00  0.10566000000E+00 0.  1.
     999900   -1    0    0    0    0 -0.00000000000E+00 -0.00000000000E+00 -0.74505805969E-08  0.93827000000E+00  0.93827000000E+00 0.  1.
     999902    2    1    2    0    0  0.49148793600E-02  0.84679790017E-02  0.20919453543E-01  0.10208326789E+01  0.10205713459E+01 0.  0.
     999903    2    3    3    0    0 -0.54831438111E-01  0.23428778871E-01 -0.11240798016E+00  0.12866136540E+00  0.19047274288E-01 0.  0.
         14    1    1    2    0    0 -0.49148793600E-02 -0.84679790017E-02 -0.20919453543E-01  0.23097321144E-01  0.00000000000E+00 0. -1.
     999901    1    3    3    0    0  0.59746317471E-01 -0.14960799869E-01  0.13332743370E+00  0.89217131346E+00  0.88000000000E+00 0. -1.
        -11    1    4    4    0    0 -0.27564344974E-01  0.15287973643E-02 -0.48609131635E-01  0.55903838281E-01  0.51100000000E-03 0.  1.
         11    1    4    4    0    0 -0.27267093137E-01  0.21899981507E-01 -0.63798848522E-01  0.72757527115E-01  0.51100000000E-03 0. -1.
</event>
<event>
 8    1  0.1117714E+005  0.1043930E+01  0.7957747E-01            NaN
         13   -1    0    0    0    0  0.00000000000E+00  0.00000000000E+00  0.74505805969E-08  0.10566000000E+00  0.10566000000E+00 0.  1.
     999900   -1    0    0    0    0 -0.00000000000E+00 -0.00000000000E+00 -0.74505805969E-08  0.93827000000E+00  0.93827000000E+00 0. -1.
     999902    2    1    2    0    0 -0.64784008990E-02 -0.19815066333E-01 -0.58206187028E-02  0.10222854595E+01  0.10220562971E+01 0.  0.
     999903    2    3    3    0    0 -0.55103227247E-01  0.10151145430E+00 -0.58626575656E-01  0.13106552735E+00  0.20003901575E-01 0.  0.
         14    1    1    2    0    0  0.64784008990E-02  0.19815066333E-01  0.58206187028E-02  0.21644540514E-01  0.00000000000E+00 0. -1.
     999901    1    3    3    0    0  0.48624826348E-01 -0.12132652064E+00  0.52805956953E-01  0.89121993214E+00  0.88000000000E+00 0.  1.
        -11    1    4    4    0    0 -0.43569701271E-01  0.64824530506E-01 -0.32665666947E-01  0.84663129769E-01  0.51100000000E-03 0. -1.
         11    1    4    4    0    0 -0.11533525976E-01  0.36686923798E-01 -0.25960908709E-01  0.46402397580E-01  0.51100000000E-03 0.  1.
</event>
<event>
 8    1  0.1117714E+005  0.1043930E+01  0.7957747E-01            NaN
         13   -1    0    0    0    0  0.00000000000E+00  0.00000000000E+00  0.74505805969E-08  0.10566000000E+00  0.10566000000E+00 0. -1.
     999900   -1    0    0    0    0 -0.00000000000E+00 -0.00000000000E+00 -0.74505805969E-08  0.93827000000E+00  0.93827000000E+00 0.  1.
     999902    2    1    2    0    0 -0.16735588221E-01  0.11849107625E-01 -0.12946345456E-01  0.10196794510E+01  0.10193910406E+01 0.  0.
     999903    2    3    3    0    0 -0.12047692022E+00 -0.49138525435E-01 -0.17347151033E-02  0.13141853440E+00  0.18399428261E-01 0.  0.
         14    1    1    2    0    0  0.16735588221E-01 -0.11849107625E-01  0.12946345456E-01  0.24250548969E-01  0.00000000000E+00 0. -1.
     999901    1    3    3    0    0  0.10374133200E+00  0.60987633060E-01 -0.11211630353E-01  0.88826091663E+00  0.88000000000E+00 0. -1.
        -11    1    4    4    0    0 -0.60513328500E-01 -0.30136079924E-01 -0.85639884573E-02  0.68144326680E-01  0.51100000000E-03 0.  1.
         11    1    4    4    0    0 -0.59963591722E-01 -0.19002445511E-01  0.68292733540E-02  0.63274207725E-01  0.51100000000E-03 0. -1.
</event>
<event>
 8    1  0.1117714E+005  0.1043930E+01  0.7957747E-01            NaN
         13   -1    0    0    0    0  0.00000000000E+00  0.00000000000E+00  0.74505805969E-08  0.10566000000E+00  0.10566000000E+00 0.  1.
     999900   -1    0    0    0    0 -0.00000000000E+00 -0.00000000000E+00 -0.74505805969E-08  0.93827000000E+00  0.93827000000E+00 0. -1.
     999902    2    1    2    0    0 -0.13320782860E-01  0.12413302021E-01  0.15423631982E-01  0.10200674405E+01  0.10197882924E+01 0.  0.
     999903    2    3    3    0    0 -0.48402692851E-01  0.33537345072E-01  0.11767525660E+00  0.13320084379E+00  0.20674249183E-01 0.  0.
         14    1    1    2    0    0  0.13320782860E-01 -0.12413302021E-01 -0.15423631982E-01  0.23862559514E-01  0.00000000000E+00 0. -1.
     999901    1    3    3    0    0  0.35081909991E-01 -0.21124043051E-01 -0.10225162462E+00  0.88686659670E+00  0.88000000000E+00 0. -1.
        -11    1    4    4    0    0 -0.55671817531E-02  0.14091299145E-01  0.24244403819E-01  0.28593888539E-01  0.51100000000E-03 0.  1.
         11    1    4    4    0    0 -0.42835511098E-01  0.19446045927E-01  0.93430852784E-01  0.10460695525E+00  0.51100000000E-03 0. -1.
</event>
<event>
 8    1  0.1117714E+005  0.1043930E+01  0.7957747E-01            NaN
         13   -1    0    0    0    0  0.00000000000E+00  0.00000000000E+00  0.74505805969E-08  0.10566000000E+00  0.10566000000E+00 0.  1.
     999900   -1    0    0    0    0 -0.00000000000E+00 -0.00000000000E+00 -0.74505805969E-08  0.93827000000E+00  0.93827000000E+00 0.  1.
     999902    2    1    2    0    0 -0.33992655937E-02  0.21888976519E-01 -0.75465843840E-02  0.10205284352E+01  0.10202600913E+01 0.  0.
     999903    2    3    3    0    0  0.11710791139E+00 -0.25433656076E-01 -0.48099736970E-01  0.13013191148E+00  0.16111980531E-01 0.  0.
         14    1    1    2    0    0  0.33992655937E-02 -0.21888976519E-01  0.75465843840E-02  0.23401564808E-01  0.00000000000E+00 0.  1.
     999901    1    3    3    0    0 -0.12050717698E+00  0.47322632595E-01  0.40553152586E-01  0.89039652372E+00  0.88000000000E+00 0. -1.
        -11    1    4    4    0    0  0.47329373617E-01 -0.28257154377E-02 -0.15749882733E-01  0.49963728862E-01  0.51100000000E-03 0. -1.
         11    1    4    4    0    0  0.69778537772E-01 -0.22607940638E-01 -0.32349854237E-01  0.80168182615E-01  0.51100000000E-03 0.  1.
</event>
<event>
 8    1  0.1117714E+005  0.1043930E+01  0.7957747E-01            NaN
         13   -1    0    0    0    0  0.00000000000E+00  0.00000000000E+00  0.74505805969E-08  0.10566000000E+00  0.10566000000E+00 0. -1.
     999900   -1    0    0    0    0 -0.00000000000E+00 -0.00000000000E+00 -0.74505805969E-08  0.93827000000E+00  0.93827000000E+00 0.  1.
     999902    2    1    2    0    0  0.75313596562E-02 -0.99540146809E-02 -0.23729412674E-01  0.10171178980E+01  0.10167644416E+01 0.  0.
     999903    2    3    3    0    0  0.50191363909E-01 -0.80046738208E-01  0.82934706764E-01  0.12688753445E+00  0.17193821675E-01 0.  0.
         14    1    1    2    0    0 -0.75313596562E-02  0.99540146809E-02  0.23729412674E-01  0.26812101977E-01  0.00000000000E+00 0. -1.
     999901    1    3    3    0    0 -0.42660004252E-01  0.70092723527E-01 -0.10666411944E+00  0.89023036357E+00  0.88000000000E+00 0.  1.
        -11    1    4    4    0    0  0.28169209787E-01 -0.46163256146E-01  0.58463833263E-01  0.79641895500E-01  0.51100000000E-03 0. -1.
         11    1    4    4    0    0  0.22022154122E-01 -0.33883482062E-01  0.24470873501E-01  0.47245638949E-01  0.51100000000E-03 0.  1.
</event>
<event>
 8    1  0.1117714E+005  0.1043930E+01  0.7957747E-01            NaN
         13   -1    0    0    0    0  0.00000000000E+00  0.00000000000E+00  0.74505805969E-08  0.10566000000E+00  0.10566000000E+00 0.  1.
     999900   -1    0    0    0    0 -0.00000000000E+00 -0.00000000000E+00 -0.74505805969E-08  0.93827000000E+00  0.93827000000E+00 0.  1.
     999902    2    1    2    0    0  0.21833199585E-01 -0.51311728960E-02  0.73641419853E-02  0.10203238964E+01  0.10200507857E+01 0.  0.
     999903    2    3    3    0    0 -0.11704062945E+00 -0.60555090917E-02  0.48349437526E-01  0.12849062206E+00  0.20904394650E-01 0.  0.
         14    1    1    2    0    0 -0.21833199585E-01  0.51311728960E-02 -0.73641419853E-02  0.23606103588E-01  0.00000000000E+00 0. -1.
     999901    1    3    3    0    0  0.13887382904E+00  0.92433619575E-03 -0.40985295541E-01  0.89183327435E+00  0.88000000000E+00 0. -1.
        -11    1    4    4    0    0 -0.80933204725E-01 -0.66687197371E-02  0.43274512710E-01  0.92019563253E-01  0.51100000000E-03 0. -1.
         11    1    4    4    0    0 -0.36107424727E-01  0.61321064534E-03  0.50749248166E-02  0.36471058808E-01  0.51100000000E-03 0.  1.
</event>
<event>
 8    1  0.1117714E+005  0.1043930E+01  0.7957747E-01            NaN
         13   -1    0    0    0    0  0.00000000000E+00  0.00000000000E+00  0.74505805969E-08  0.10566000000E+00  0.10566000000E+00 0.  1.
     999900   -1    0    0    0    0 -0.00000000000E+00 -0.00000000000E+00 -0.74505805969E-08  0.93827000000E+00  0.93827000000E+00 0. -1.
     999902    2    1    2    0    0 -0.32621155324E-02 -0.59220978207E-02  0.25073410192E-01  0.10179610081E+01  0.10176297094E+01 0.  0.
     999903    2    3    3    0    0 -0.12777314344E-01 -0.65206151882E-01 -0.10501542937E+00  0.12637352265E+00  0.22954842976E-01 0.  0.
         14    1    1    2    0    0  0.32621155324E-02  0.59220978207E-02 -0.25073410192E-01  0.25968991875E-01  0.00000000000E+00 0. -1.
     999901    1    3    3    0    0  0.95151988115E-02  0.59284054061E-01  0.13008883956E+00  0.89158748547E+00  0.88000000000E+00 0. -1.
        -11    1    4    4    0    0 -0.13834780753E-01 -0.35940847624E-01 -0.75696546331E-01  0.84931583842E-01  0.51100000000E-03 0. -1.
         11    1    4    4    0    0  0.10574664095E-02 -0.29265304258E-01 -0.29318883040E-01  0.41441938809E-01  0.51100000000E-03 0.  1.
</event>
<event>
 8    1  0.1117714E+005  0.1043930E+01  0.7957747E-01            NaN
         13   -1    0    0    0    0  0.00000000000E+00  0.00000000000E+00  0.74505805969E-08  0.10566000000E+00  0.10566000000E+00 0.  1.
     999900   -1    0    0    0    0 -0.00000000000E+00 -0.00000000000E+00 -0.74505805969E-08  0.93827000000E+00  0.93827000000E+00 0.  1.
     999902    2    1    2    0    0 -0.16503422090E-01 -0.14708456213E-01 -0.79522271112E-02  0.10204366064E+01  0.10201661278E+01 0.  0.
     999903    2    3    3    0    0  0.11023006758E+00 -0.81264106079E-02  0.62494943484E-01  0.12854675642E+00  0.20048548015E-01 0.  0.
         14    1    1    2    0    0  0.16503422090E-01  0.14708456213E-01  0.79522271112E-02  0.23493393559E-01  0.00000000000E+00 0.  1.
     999901    1    3    3    0    0 -0.12673348967E+00 -0.65820456054E-02 -0.70447170595E-01  0.89188985002E+00  0.88000000000E+00 0.  1.
        -11    1    4    4    0    0  0.72419839432E-01 -0.62427804862E-02  0.51623264086E-01  0.89156199826E-01  0.51100000000E-03 0.  1.
         11    1    4    4    0    0  0.37810228144E-01 -0.18836301217E-02  0.10871679398E-01  0.39390556593E-01  0.51100000000E-03 0. -1.
</event>
<event>
 8    1  0.1117714E+005  0.1043930E+01  0.7957747E-01            NaN
         13   -1    0    0    0    0  0.00000000000E+00  0.00000000000E+00  0.74505805969E-08  0.10566000000E+00  0.10566000000E+00 0. -1.
     999900   -1    0    0    0    0 -0.00000000000E+00 -0.00000000000E+00 -0.74505805969E-08  0.93827000000E+00  0.93827000000E+00 0.  1.
     999902    2    1    2    0    0 -0.42408963800E-02 -0.27099041374E-02  0.23019406843E-01  0.10203668535E+01  0.10200947475E+01 0.  0.
     999903    2    3    3    0    0 -0.61426234967E-01  0.16930622809E-01 -0.10944495344E+00  0.12840120392E+00  0.21185915229E-01 0.  0.
         14    1    1    2    0    0  0.42408963800E-02  0.27099041374E-02 -0.23019406843E-01  0.23563146520E-01  0.00000000000E+00 0.  1.
     999901    1    3    3    0    0  0.57185338587E-01 -0.19640526947E-01  0.13246436028E+00  0.89196564956E+00  0.88000000000E+00 0. -1.
        -11    1    4    4    0    0 -0.61716424031E-02 -0.41749731242E-03 -0.26630032581E-01  0.27343796925E-01  0.51100000000E-03 0. -1.
         11    1    4    4    0    0 -0.55254592564E-01  0.17348120122E-01 -0.82814920858E-01  0.10105740700E+00  0.51100000000E-03 0.  1.
</event>
<event>
 8    1  0.1117714E+005  0.1043930E+01  0.7957747E-01            NaN
         13   -1    0    0    0    0  0.00000000000E+00  0.00000000000E+00  0.74505805969E-08  0.10566000000E+00  0.10566000000E+00 0.  1.
     999900   -1    0    0    0    0 -0.00000000000E+00 -0.00000000000E+00 -0.74505805969E-08  0.93827000000E+00  0.93827000000E+00 0.  1.
     999902    2    1    2    0    0  0.12841171139E-01 -0.13634497753E-01  0.55387412000E-02  0.10243986698E+01  0.10242124593E+01 0.  0.
     999903    2    3    3    0    0 -0.12696302298E+00  0.26474711516E-01  0.16997927634E-01  0.13238674482E+00  0.20415707326E-01 0.  0.
         14    1    1    2    0    0 -0.12841171139E-01  0.13634497753E-01 -0.55387412000E-02  0.19531330198E-01  0.00000000000E+00 0. -1.
     999901    1    3    3    0    0  0.13980419412E+00 -0.40109209270E-01 -0.11459186434E-01  0.89201192498E+00  0.88000000000E+00 0.  1.
        -11    1    4    4    0    0 -0.38839926726E-01  0.26948003874E-02  0.12900742419E-01  0.41018192710E-01  0.51100000000E-03 0.  1.
         11    1    4    4    0    0 -0.88123096253E-01  0.23779911129E-01  0.40971852147E-02  0.91368552108E-01  0.51100000000E-03 0. -1.
</event>
<event>
 8    1  0.1117714E+005  0.1043930E+01  0.7957747E-01            NaN
         13   -1    0    0    0    0  0.00000000000E+00  0.00000000000E+00  0.74505805969E-08  0.10566000000E+00  0.10566000000E+00 0. -1.
     999900   -1    0    0    0    0 -0.00000000000E+00 -0.00000000000E+00 -0.74505805969E-08  0.93827000000E+00  0.93827000000E+00 0. -1.
     999902    2    1    2    0    0 -0.22538015592E-01 -0.55442494651E-02 -0.56796724384E-02  0.10200352406E+01  0.10197553297E+01 0.  0.
     999903    2    3    3    0    0  0.75863415439E-01  0.97839106977E-01  0.25541910329E-01  0.12798941930E+00  0.20028819597E-01 0.  0.
         14    1    1    2    0    0  0.22538015592E-01  0.55442494651E-02  0.56796724384E-02  0.23894759424E-01  0.00000000000E+00 0.  1.
     999901    1    3    3    0    0 -0.98401431030E-01 -0.10338335644E+00 -0.31221582768E-01  0.89204582127E+00  0.88000000000E+00 0.  1.
        -11    1    4    4    0    0  0.35676484183E-01  0.36692346998E-01  0.18734458811E-01  0.54501201086E-01  0.51100000000E-03 0. -1.
         11    1    4    4    0    0  0.40186931255E-01  0.61146759979E-01  0.68074515186E-02  0.73488218218E-01  0.51100000000E-03 0.  1.
</event>
<event>
 8    1  0.1117714E+005  0.1043930E+01  0.7957747E-01            NaN
         13   -1    0    0    0    0  0.00000000000E+00  0.00000000000E+00  0.74505805969E-08  0.10566000000E+00  0.10566000000E+00 0.  1.
     999900   -1    0    0    0    0 -0.00000000000E+00 -0.00000000000E+00 -0.74505805969E-08  0.93827000000E+00  0.93827000000E+00 0.  1.
     999902    2    1    2    0    0 -0.72864551063E-02 -0.12371063928E-01  0.20386577053E-01  0.10189951213E+01  0.10186899966E+01 0.  0.
     999903    2    3    3    0    0  0.45705253656E-01 -0.46919454952E-01  0.11275677677E+00  0.13190213504E+00  0.19841296684E-01 0.  0.
         14    1    1    2    0    0  0.72864551063E-02  0.12371063928E-01 -0.20386577053E-01  0.24934878677E-01  0.00000000000E+00 0. -1.
     999901    1    3    3    0    0 -0.52991708762E-01  0.34548391025E-01 -0.92370199721E-01  0.88709298629E+00  0.88000000000E+00 0.  1.
        -11    1    4    4    0    0  0.33410958531E-01 -0.25006492946E-01  0.83380878517E-01  0.93242956103E-01  0.51100000000E-03 0. -1.
         11    1    4    4    0    0  0.12294295125E-01 -0.21912962006E-01  0.29375898257E-01  0.38659178935E-01  0.51100000000E-03 0.  1.
</event>
<event>
 8    1  0.1117714E+005  0.1043930E+01  0.7957747E-01            NaN
         13   -1    0    0    0    0  0.00000000000E+00  0.00000000000E+00  0.74505805969E-08  0.10566000000E+00  0.10566000000E+00 0. -1.
     999900   -1    0    0    0    0 -0.00000000000E+00 -0.00000000000E+00 -0.74505805969E-08  0.93827000000E+00  0.93827000000E+00 0.  1.
     999902    2    1    2    0    0 -0.85765679246E-02  0.19760005036E-01 -0.72351609748E-02  0.10212063808E+01  0.10209535294E+01 0.  0.
     999903    2    3    3    0    0  0.13774098240E-01 -0.12385087631E+00 -0.26662396209E-01  0.12907351231E+00  0.20501777069E-01 0.  0.
         14    1    1    2    0    0  0.85765679246E-02 -0.19760005036E-01  0.72351609748E-02  0.22723619226E-01  0.00000000000E+00 0. -1.
     999901    1    3    3    0    0 -0.22350666165E-01  0.14361088135E+00  0.19427235234E-01  0.89213286846E+00  0.88000000000E+00 0.  1.
        -11    1    4    4    0    0  0.56457281246E-03 -0.59470521660E-01 -0.21130766197E-01  0.63117605230E-01  0.51100000000E-03 0.  1.
         11    1    4    4    0    0  0.13209525428E-01 -0.64380354655E-01 -0.55316300123E-02  0.65955907083E-01  0.51100000000E-03 0. -1.
</event>
<event>
 8    1  0.1117714E+005  0.1043930E+01  0.7957747E-01            NaN
         13   -1    0    0    0    0  0.00000000000E+00  0.00000000000E+00  0.74505805969E-08  0.10566000000E+00  0.10566000000E+00 0. -1.
     999900   -1    0    0    0    0 -0.00000000000E+00 -0.00000000000E+00 -0.74505805969E-08  0.93827000000E+00  0.93827000000E+00 0.  1.
     999902    2    1    2    0    0 -0.75681560907E-02 -0.12912520649E-01  0.18836327609E-01  0.10198713755E+01  0.10195875662E+01 0.  0.
     999903    2    3    3    0    0  0.11229499480E+00 -0.45138533555E-01  0.45467625203E-01  0.13076231757E+00  0.19591469719E-01 0.  0.
         14    1    1    2    0    0  0.75681560907E-02  0.12912520649E-01 -0.18836327609E-01  0.24058624523E-01  0.00000000000E+00 0.  1.
     999901    1    3    3    0    0 -0.11986315089E+00  0.32226012906E-01 -0.26631297594E-01  0.88910905791E+00  0.88000000000E+00 0.  1.
        -11    1    4    4    0    0  0.64874717077E-01 -0.30941380743E-01  0.17784258404E-01  0.74044844021E-01  0.51100000000E-03 0.  1.
         11    1    4    4    0    0  0.47420277720E-01 -0.14197152812E-01  0.27683366800E-01  0.56717473545E-01  0.51100000000E-03 0. -1.
</event>
<event>
 8    1  0.1117714E+005  0.1043930E+01  0.7957747E-01            NaN
         13   -1    0    0    0    0  0.00000000000E+00  0.00000000000E+00  0.74505805969E-08  0.10566000000E+00  0.10566000000E+00 0. -1.
     999900   -1    0    0    0    0 -0.00000000000E+00 -0.00000000000E+00 -0.74505805969E-08  0.93827000000E+00  0.93827000000E+00 0.  1.
     999902    2    1    2    0    0  0.14250947426E-01 -0.18041285803E-01 -0.53007198871E-02  0.10203360362E+01  0.10200632096E+01 0.  0.
     999903    2    3    3    0    0  0.66752725315E-01  0.10892801182E+00 -0.73974998454E-02  0.12967221876E+00  0.20950494476E-01 0.  0.
         14    1    1    2    0    0 -0.14250947426E-01  0.18041285803E-01  0.53007198871E-02  0.23593963790E-01  0.00000000000E+00 0. -1.
     999901    1    3    3    0    0 -0.52501777889E-01 -0.12696929763E+00  0.20967799583E-02  0.89066381745E+00  0.88000000000E+00 0.  1.
        -11    1    4    4    0    0  0.39583357194E-01  0.61863154779E-01 -0.14503287007E-01  0.74863198843E-01  0.51100000000E-03 0. -1.
         11    1    4    4    0    0  0.27169368121E-01  0.47064857043E-01  0.71057871613E-02  0.54809019922E-01  0.51100000000E-03 0.  1.
</event>
<event>
 8    1  0.1117714E+005  0.1043930E+01  0.7957747E-01            NaN
         13   -1    0    0    0    0  0.00000000000E+00  0.00000000000E+00  0.74505805969E-08  0.10566000000E+00  0.10566000000E+00 0.  1.
     999900   -1    0    0    0    0 -0.00000000000E+00 -0.00000000000E+00 -0.74505805969E-08  0.93827000000E+00  0.93827000000E+00 0.  1.
     999902    2    1    2    0    0 -0.18303146215E-01  0.17124499851E-01  0.73218247303E-02  0.10178174977E+01  0.10174824794E+01 0.  0.
     999903    2    3    3    0    0 -0.42211035091E-01  0.59753376510E-02 -0.11930627163E+00  0.12836229047E+00  0.20625591386E-01 0.  0.
         14    1    1    2    0    0  0.18303146215E-01 -0.17124499851E-01 -0.73218247303E-02  0.26112502253E-01  0.00000000000E+00 0. -1.
     999901    1    3    3    0    0  0.23907888876E-01  0.11149162200E-01  0.12662809636E+00  0.88945520728E+00  0.88000000000E+00 0. -1.
        -11    1    4    4    0    0 -0.19409135892E-01 -0.11729208221E-02 -0.28801014875E-01  0.34754134691E-01  0.51100000000E-03 0.  1.
         11    1    4    4    0    0 -0.22801899200E-01  0.71482584730E-02 -0.90505256757E-01  0.93608155777E-01  0.51100000000E-03 0. -1.
</event>
<event>
 8    1  0.1117714E+005  0.1043930E+01  0.7957747E-01            NaN
         13   -1    0    0    0    0  0.00000000000E+00  0.00000000000E+00  0.74505805969E-08  0.10566000000E+00  0.10566000000E+00 0. -1.
     999900   -1    0    0    0    0 -0.00000000000E+00 -0.00000000000E+00 -0.74505805969E-08  0.93827000000E+00  0.93827000000E+00 0. -1.
     999902    2    1    2    0    0  0.14861376063E-01 -0.16982578655E-01  0.10367474913E-01  0.10190954875E+01  0.10187928443E+01 0.  0.
     999903    2    3    3    0    0 -0.11905633544E+00  0.33273242937E-01 -0.19857660239E-01  0.12703430132E+00  0.21491099034E-01 0.  0.
         14    1    1    2    0    0 -0.14861376063E-01  0.16982578655E-01 -0.10367474913E-01  0.24834512524E-01  0.00000000000E+00 0. -1.
     999901    1    3    3    0    0  0.13391771150E+00 -0.50255821592E-01  0.30225135152E-01  0.89206118616E+00  0.88000000000E+00 0. -1.
        -11    1    4    4    0    0 -0.29456913951E-01  0.13648802722E-02  0.15806245097E-02  0.29535269975E-01  0.51100000000E-03 0.  1.
         11    1    4    4    0    0 -0.89599421486E-01  0.31908362665E-01 -0.21438284749E-01  0.97499031341E-01  0.51100000000E-03 0. -1.
</event>
<event>
 8    1  0.1117714E+005  0.1043930E+01  0.7957747E-01            NaN
         13   -1    0    0    0    0  0.00000000000E+00  0.00000000000E+00  0.74505805969E-08  0.10566000000E+00  0.10566000000E+00 0.  1.
     999900   -1    0    0    0    0 -0.00000000000E+00 -0.00000000000E+00 -0.74505805969E-08  0.93827000000E+00  0.93827000000E+00 0. -1.
     999902    2    1    2    0    0  0.48098964170E-02 -0.61330859217E-02  0.17616330242E-01  0.10246664350E+01  0.10244853430E+01 0.  0.
     999903    2    3    3    0    0  0.67257165438E-01  0.94613289909E-02 -0.11306157717E+00  0.13269134414E+00  0.14526855418E-01 0.  0.
         14    1    1    2    0    0 -0.48098964170E-02  0.61330859217E-02 -0.17616330242E-01  0.19263565030E-01  0.00000000000E+00 0. -1.
     999901    1    3    3    0    0 -0.62447269021E-01 -0.15594414913E-01  0.13067790741E+00  0.89197509083E+00  0.88000000000E+00 0.  1.
        -11    1    4    4    0    0  0.46231941526E-01  0.10844384346E-01 -0.67966121280E-01  0.82913496199E-01  0.51100000000E-03 0. -1.
         11    1    4    4    0    0  0.21025223912E-01 -0.13830553554E-02 -0.45095455886E-01  0.49777847937E-01  0.51100000000E-03 0.  1.
</event>
<event>
 8    1  0.1117714E+005  0.1043930E+01  0.7957747E-01            NaN
         13   -1    0    0    0    0  0.00000000000E+00  0.00000000000E+00  0.74505805969E-08  0.10566000000E+00  0.10566000000E+00 0. -1.
     999900   -1    0    0    0    0 -0.00000000000E+00 -0.00000000000E+00 -0.74505805969E-08  0.93827000000E+00  0.93827000000E+00 0. -1.
     999902    2    1    2    0    0  0.11530203666E-01 -0.18774178320E-01  0.53152998305E-02  0.10212657599E+01  0.10210142431E+01 0.  0.
     999903    2    3    3    0    0 -0.10668360093E+00 -0.73194509929E-01  0.14305367828E-01  0.13164960815E+00  0.19701491968E-01 0.  0.
         14    1    1    2    0    0 -0.11530203666E-01  0.18774178320E-01 -0.53152998305E-02  0.22664240126E-01  0.00000000000E+00 0.  1.
     999901    1    3    3    0    0  0.11821380460E+00  0.54420331609E-01 -0.89900679976E-02  0.88961615173E+00  0.88000000000E+00 0.  1.
        -11    1    4    4    0    0 -0.35782821453E-01 -0.14378173906E-01  0.10739454128E-02  0.38581817943E-01  0.51100000000E-03 0. -1.
         11    1    4    4    0    0 -0.70900779477E-01 -0.58816336023E-01  0.13231422415E-01  0.93067790206E-01  0.51100000000E-03 0.  1.
</event>
<event>
 8    1  0.1117714E+005  0.1043930E+01  0.7957747E-01            NaN
         13   -1    0    0    0    0  0.00000000000E+00  0.00000000000E+00  0.74505805969E-08  0.10566000000E+00  0.10566000000E+00 0. -1.
     999900   -1    0    0    0    0 -0.00000000000E+00 -0.00000000000E+00 -0.74505805969E-08  0.93827000000E+00  0.93827000000E+00 0.  1.
     999902    2    1    2    0    0 -0.15221734525E-01 -0.15313508781E-01  0.10328373411E-01  0.10199950872E+01  0.10197142236E+01 0.  0.
     999903    2    3    3    0    0 -0.20151110793E-01  0.30512904861E-01 -0.12198075332E+00  0.12891144133E+00  0.20043724562E-01 0.  0.
         14    1    1    2    0    0  0.15221734525E-01  0.15313508781E-01 -0.10328373411E-01  0.23934912793E-01  0.00000000000E+00 0.  1.
     999901    1    3    3    0    0  0.49293762678E-02 -0.45826413642E-01  0.13230912673E+00  0.89108364588E+00  0.88000000000E+00 0. -1.
        -11    1    4    4    0    0 -0.11200689443E-01  0.16299914088E-02 -0.37896023385E-01  0.39553533665E-01  0.51100000000E-03 0.  1.
         11    1    4    4    0    0 -0.89504213496E-02  0.28882913453E-01 -0.84084729938E-01  0.89357907661E-01  0.51100000000E-03 0. -1.
</event>
<event>
 8    1  0.1117714E+005  0.1043930E+01  0.7957747E-01            NaN
         13   -1    0    0    0    0  0.00000000000E+00  0.00000000000E+00  0.74505805969E-08  0.10566000000E+00  0.10566000000E+00 0. -1.
     999900   -1    0    0    0    0 -0.00000000000E+00 -0.00000000000E+00 -0.74505805969E-08  0.93827000000E+00  0.93827000000E+00 0. -1.
     999902    2    1    2    0    0  0.19200557438E-01 -0.15046036948E-02  0.12177492449E-01  0.10211436760E+01  0.10208894115E+01 0.  0.
     999903    2    3    3    0    0 -0.14727487700E-01  0.97921822668E-01 -0.81465012660E-01  0.12996151436E+00  0.21162813548E-01 0.  0.
         14    1    1    2    0    0 -0.19200557438E-01  0.15046036948E-02 -0.12177492449E-01  0.22786323980E-01  0.00000000000E+00 0.  1.
     999901    1    3    3    0    0  0.33928045138E-01 -0.99426426363E-01  0.93642505109E-01  0.89118216166E+00  0.88000000000E+00 0. -1.
        -11    1    4    4    0    0  0.18208710365E-02  0.50522166347E-01 -0.47282096778E-01  0.69221836587E-01  0.51100000000E-03 0.  1.
         11    1    4    4    0    0 -0.16548358736E-01  0.47399656321E-01 -0.34182915882E-01  0.60739677768E-01  0.51100000000E-03 0. -1.
</event>
<event>
 8    1  0.1117714E+005  0.1043930E+01  0.7957747E-01            NaN
         13   -1    0    0    0    0  0.00000000000E+00  0.00000000000E+00  0.74505805969E-08  0.10566000000E+00  0.10566000000E+00 0.  1.
     999900   -1    0    0    0    0 -0.00000000000E+00 -0.00000000000E+00 -0.74505805969E-08  0.93827000000E+00  0.93827000000E+00 0.  1.
     999902    2    1    2    0    0  0.51656633839E-02  0.14501232691E-01 -0.18071025276E-01  0.10201911756E+01  0.10199149489E+01 0.  0.
     999903    2    3    3    0    0  0.45562678749E-01 -0.16089976237E-01  0.11755783594E+00  0.12835995342E+00  0.17932869883E-01 0.  0.
         14    1    1    2    0    0 -0.51656633839E-02 -0.14501232691E-01  0.18071025276E-01  0.23738824366E-01  0.00000000000E+00 0.  1.
     999901    1    3    3    0    0 -0.40397015365E-01  0.30591208928E-01 -0.13562886122E+00  0.89183122221E+00  0.88000000000E+00 0.  1.
        -11    1    4    4    0    0  0.22585531871E-01 -0.81078193424E-02  0.36137166486E-01  0.43382011330E-01  0.51100000000E-03 0.  1.
         11    1    4    4    0    0  0.22977146877E-01 -0.79821568949E-02  0.81420669454E-01  0.84977942094E-01  0.51100000000E-03 0. -1.
</event>
<event>
 8    1  0.1117714E+005  0.1043930E+01  0.7957747E-01            NaN
         13   -1    0    0    0    0  0.00000000000E+00  0.00000000000E+00  0.74505805969E-08  0.10566000000E+00  0.10566000000E+00 0.  1.
     999900   -1    0    0    0    0 -0.00000000000E+00 -0.00000000000E+00 -0.74505805969E-08  0.93827000000E+00  0.93827000000E+00 0.  1.
     999902    2    1    2    0    0  0.18122747759E-01  0.59609838718E-02 -0.14196083236E-01  0.10201498382E+01  0.10198726373E+01 0.  0.
     999903    2    3    3    0    0  0.22780180812E-01 -0.66574951894E-01 -0.10956259779E+00  0.13201813303E+00  0.21763817623E-01 0.  0.
         14    1    1    2    0    0 -0.18122747759E-01 -0.59609838718E-02  0.14196083236E-01  0.23780161780E-01  0.00000000000E+00 0.  1.
     999901    1    3    3    0    0 -0.46574330526E-02  0.72535935766E-01  0.95366514554E-01  0.88813170519E+00  0.88000000000E+00 0. -1.
        -11    1    4    4    0    0  0.24214890695E-01 -0.57695608717E-01 -0.82831566401E-01  0.10380979583E+00  0.51100000000E-03 0.  1.
         11    1    4    4    0    0 -0.14347098836E-02 -0.88793431772E-02 -0.26731031388E-01  0.28208337203E-01  0.51100000000E-03 0. -1.
</event>
<event>
 8    1  0.1117714E+005  0.1043930E+01  0.7957747E-01            NaN
         13   -1    0    0    0    0  0.00000000000E+00  0.00000000000E+00  0.74505805969E-08  0.10566000000E+00  0.10566000000E+00 0. -1.
     999900   -1    0    0    0    0 -0.00000000000E+00 -0.00000000000E+00 -0.74505805969E-08  0.93827000000E+00  0.93827000000E+00 0.  1.
     999902    2    1    2    0    0  0.97836079290E-02 -0.20811288306E-01  0.54300209635E-02  0.10203013345E+01  0.10200276954E+01 0.  0.
     999903    2    3    3    0    0  0.10432301198E+00 -0.78870542625E-01 -0.14681792453E-01  0.13310740928E+00  0.19954299102E-01 0.  0.
         14    1    1    2    0    0 -0.97836079290E-02  0.20811288306E-01 -0.54300209635E-02  0.23628665487E-01  0.00000000000E+00 0.  1.
     999901    1    3    3    0    0 -0.94539404053E-01  0.58059254320E-01  0.20111813416E-01  0.88719392523E+00  0.88000000000E+00 0. -1.
        -11    1    4    4    0    0  0.49592273992E-01 -0.44355358727E-01  0.93402377406E-03  0.66542655560E-01  0.51100000000E-03 0. -1.
         11    1    4    4    0    0  0.54730737989E-01 -0.34515183898E-01 -0.15615816227E-01  0.66564753720E-01  0.51100000000E-03 0.  1.
</event>
<event>
 8    1  0.1117714E+005  0.1043930E+01  0.7957747E-01            NaN
         13   -1    0    0    0    0  0.00000000000E+00  0.00000000000E+00  0.74505805969E-08  0.10566000000E+00  0.10566000000E+00 0.  1.
     999900   -1    0    0    0    0 -0.00000000000E+00 -0.00000000000E+00 -0.74505805969E-08  0.93827000000E+00  0.93827000000E+00 0.  1.
     999902    2    1    2    0    0  0.80985864092E-02 -0.19815477311E-01  0.12325302001E-01  0.10192287184E+01  0.10189293533E+01 0.  0.
     999903    2    3    3    0    0  0.88901985096E-01 -0.20063371198E-01 -0.89907737430E-01  0.12963282979E+00  0.20375659314E-01 0.  0.
         14    1    1    2    0    0 -0.80985864092E-02  0.19815477311E-01 -0.12325302001E-01  0.24701281592E-01  0.00000000000E+00 0. -1.
     999901    1    3    3    0    0 -0.80803398686E-01  0.24789388764E-03  0.10223303943E+00  0.88959588862E+00  0.88000000000E+00 0. -1.
        -11    1    4    4    0    0  0.33545693527E-02  0.24942444556E-02 -0.81220532330E-02  0.91489486099E-02  0.51100000000E-03 0. -1.
         11    1    4    4    0    0  0.85547415743E-01 -0.22557615654E-01 -0.81785684197E-01  0.12048388118E+00  0.51100000000E-03 0.  1.
</event>
<event>
 8    1  0.1117714E+005  0.1043930E+01  0.7957747E-01            NaN
         13   -1    0    0    0    0  0.00000000000E+00  0.00000000000E+00  0.74505805969E-08  0.10566000000E+00  0.10566000000E+00 0. -1.
     999900   -1    0    0    0    0 -0.00000000000E+00 -0.00000000000E+00 -0.74505805969E-08  0.93827000000E+00  0.93827000000E+00 0. -1.
     999902    2    1    2    0    0  0.12820610551E-01  0.75663854752E-03  0.20085708702E-01  0.10200893572E+01  0.10198107277E+01 0.  0.
     999903    2    3    3    0    0  0.10569697942E+00 -0.15520267678E-01 -0.71893819531E-01  0.13028533875E+00  0.19819637740E-01 0.  0.
         14    1    1    2    0    0 -0.12820610551E-01 -0.75663854752E-03 -0.20085708702E-01  0.23840642836E-01  0.00000000000E+00 0.  1.
     999901    1    3    3    0    0 -0.92876368865E-01  0.16276906225E-01  0.91979528233E-01  0.88980401841E+00  0.88000000000E+00 0. -1.
        -11    1    4    4    0    0  0.76380662396E-01 -0.31394297142E-02 -0.55613565602E-01  0.94535662090E-01  0.51100000000E-03 0. -1.
         11    1    4    4    0    0  0.29316317020E-01 -0.12380837963E-01 -0.16280253930E-01  0.35749676660E-01  0.51100000000E-03 0.  1.
</event>
<event>
 8    1  0.1117714E+005  0.1043930E+01  0.7957747E-01            NaN
         13   -1    0    0    0    0  0.00000000000E+00  0.00000000000E+00  0.74505805969E-08  0.10566000000E+00  0.10566000000E+00 0. -1.
     999900   -1    0    0    0    0 -0.00000000000E+00 -0.00000000000E+00 -0.74505805969E-08  0.93827000000E+00  0.93827000000E+00 0.  1.
     999902    2    1    2    0    0 -0.14644028000E-01  0.18588189236E-01 -0.56340409397E-02  0.10196048946E+01  0.10193146866E+01 0.  0.
     999903    2    3    3    0    0 -0.77108576035E-01 -0.57694061224E-01 -0.85767716718E-01  0.13048048965E+00  0.19867555193E-01 0.  0.
         14    1    1    2    0    0  0.14644028000E-01 -0.18588189236E-01  0.56340409397E-02  0.24325105394E-01  0.00000000000E+00 0.  1.
     999901    1    3    3    0    0  0.62464548036E-01  0.76282250460E-01  0.80133675778E-01  0.88912440496E+00  0.88000000000E+00 0. -1.
        -11    1    4    4    0    0 -0.50654413260E-01 -0.25865682665E-01 -0.51938158839E-01  0.77024259731E-01  0.51100000000E-03 0.  1.
         11    1    4    4    0    0 -0.26454162775E-01 -0.31828378558E-01 -0.33829557879E-01  0.53456229918E-01  0.51100000000E-03 0. -1.
</event>
<event>
 8    1  0.1117714E+005  0.1043930E+01  0.7957747E-01            NaN
         13   -1    0    0    0    0  0.00000000000E+00  0.00000000000E+00  0.74505805969E-08  0.10566000000E+00  0.10566000000E+00 0.  1.
     999900   -1    0    0    0    0 -0.00000000000E+00 -0.00000000000E+00 -0.74505805969E-08  0.93827000000E+00  0.93827000000E+00 0.  1.
     999902    2    1    2    0    0 -0.60448006408E-02 -0.19015847544E-01  0.19810612470E-01  0.10158123465E+01  0.10154231240E+01 0.  0.
     999903    2    3    3    0    0 -0.66618693790E-01  0.88774215945E-01 -0.52061317483E-01  0.12426679598E+00  0.20321024231E-01 0.  0.
         14    1    1    2    0    0  0.60448006408E-02  0.19015847544E-01 -0.19810612470E-01  0.28117653512E-01  0.00000000000E+00 0. -1.
     999901    1    3    3    0    0  0.60573893149E-01 -0.10779006349E+00  0.71871929953E-01  0.89154555051E+00  0.88000000000E+00 0. -1.
        -11    1    4    4    0    0 -0.13370555213E-01  0.17292110353E-01 -0.18047804061E-02  0.21938714194E-01  0.51100000000E-03 0. -1.
         11    1    4    4    0    0 -0.53248138577E-01  0.71482105591E-01 -0.50256537077E-01  0.10232808178E+00  0.51100000000E-03 0.  1.
</event>
<event>
 8    1  0.1117714E+005  0.1043930E+01  0.7957747E-01            NaN
         13   -1    0    0    0    0  0.00000000000E+00  0.00000000000E+00  0.74505805969E-08  0.10566000000E+00  0.10566000000E+00 0.  1.
     999900   -1    0    0    0    0 -0.00000000000E+00 -0.00000000000E+00 -0.74505805969E-08  0.93827000000E+00  0.93827000000E+00 0.  1.
     999902    2    1    2    0    0  0.16091472444E-01  0.15251398373E-01 -0.10341452972E-01  0.10194660206E+01  0.10191724490E+01 0.  0.
     999903    2    3    3    0    0  0.50733346403E-01  0.35250226316E-01 -0.11533607568E+00  0.13232235505E+00  0.19757135417E-01 0.  0.
         14    1    1    2    0    0 -0.16091472444E-01 -0.15251398373E-01  0.10341452972E-01  0.24463979384E-01  0.00000000000E+00 0.  1.
     999901    1    3    3    0    0 -0.34641873959E-01 -0.19998827942E-01  0.10499462271E+00  0.88714366556E+00  0.88000000000E+00 0. -1.
        -11    1    4    4    0    0  0.39989860628E-01  0.36164130089E-01 -0.99239836356E-01  0.11294175268E+00  0.51100000000E-03 0. -1.
         11    1    4    4    0    0  0.10743485775E-01 -0.91390377298E-03 -0.16096239328E-01  0.19380602370E-01  0.51100000000E-03 0.  1.
</event>
<event>
 8    1  0.1117714E+005  0.1043930E+01  0.7957747E-01            NaN
         13   -1    0    0    0    0  0.00000000000E+00  0.00000000000E+00  0.74505805969E-08  0.10566000000E+00  0.10566000000E+00 0. -1.
     999900   -1    0    0    0    0 -0.00000000000E+00 -0.00000000000E+00 -0.74505805969E-08  0.93827000000E+00  0.93827000000E+00 0. -1.
     999902    2    1    2    0    0 -0.66271202523E-02  0.29445091392E-02  0.25407264659E-01  0.10175080781E+01  0.10171649675E+01 0.  0.
     999903    2    3    3    0    0  0.95840420881E-01 -0.64637011236E-01 -0.46322635787E-01  0.12609793826E+00  0.19788227567E-01 0.  0.
         14    1    1    2    0    0  0.66271202523E-02 -0.29445091392E-02 -0.25407264659E-01  0.26421921852E-01  0.00000000000E+00 0.  1.
     999901    1    3    3    0    0 -0.10246754113E+00  0.67581520375E-01  0.71729900446E-01  0.89141013989E+00  0.88000000000E+00 0.  1.
        -11    1    4    4    0    0  0.45820968620E-01 -0.20666511122E-01 -0.14716358686E-01  0.52378413313E-01  0.51100000000E-03 0. -1.
         11    1    4    4    0    0  0.50019452261E-01 -0.43970500114E-01 -0.31606277101E-01  0.73719524944E-01  0.51100000000E-03 0.  1.
</event>
<event>
 8    1  0.1117714E+005  0.1043930E+01  0.7957747E-01            NaN
         13   -1    0    0    0    0  0.00000000000E+00  0.00000000000E+00  0.74505805969E-08  0.10566000000E+00  0.10566000000E+00 0. -1.
     999900   -1    0    0    0    0 -0.00000000000E+00 -0.00000000000E+00 -0.74505805969E-08  0.93827000000E+00  0.93827000000E+00 0. -1.
     999902    2    1    2    0    0  0.17340565043E-01  0.29676084344E-02 -0.16523190494E-01  0.10197945961E+01  0.10195089507E+01 0.  0.
     999903    2    3    3    0    0  0.87270954310E-01  0.94005660354E-01  0.21239704499E-01  0.13153549965E+00  0.19929349625E-01 0.  0.
         14    1    1    2    0    0 -0.17340565043E-01 -0.29676084344E-02  0.16523190494E-01  0.24135403870E-01  0.00000000000E+00 0. -1.
     999901    1    3    3    0    0 -0.69930389266E-01 -0.91038051920E-01 -0.37762894993E-01  0.88825909648E+00  0.88000000000E+00 0. -1.
        -11    1    4    4    0    0  0.66681448188E-01  0.60533244244E-01  0.19778543465E-01  0.92207055553E-01  0.51100000000E-03 0. -1.
         11    1    4    4    0    0  0.20589506122E-01  0.33472416110E-01  0.14611610336E-02  0.39328444098E-01  0.51100000000E-03 0.  1.
</event>
<event>
 8    1  0.1117714E+005  0.1043930E+01  0.7957747E-01            NaN
         13   -1    0    0    0    0  0.00000000000E+00  0.00000000000E+00  0.74505805969E-08  0.10566000000E+00  0.10566000000E+00 0.  1.
     999900   -1    0    0    0    0 -0.00000000000E+00 -0.00000000000E+00 -0.74505805969E-08  0.93827000000E+00  0.93827000000E+00 0. -1.
     999902    2    1    2    0    0  0.20260902435E-01 -0.86936805432E-02  0.41383675970E-02  0.10214976498E+01  0.10212513100E+01 0.  0.
     999903    2    3    3    0    0 -0.76350058375E-03 -0.12317762069E+00 -0.44756287335E-01  0.13248736564E+00  0.19402773659E-01 0.  0.
         14    1    1    2    0    0 -0.20260902435E-01  0.86936805432E-02 -0.41383675970E-02  0.22432350194E-01  0.00000000000E+00 0. -1.
     999901    1    3    3    0    0  0.21024403019E-01  0.11448394015E+00  0.48894654932E-01  0.88901028417E+00  0.88000000000E+00 0. -1.
        -11    1    4    4    0    0 -0.10035838433E-01 -0.69725456292E-01 -0.25228899528E-01  0.74827239696E-01  0.51100000000E-03 0.  1.
         11    1    4    4    0    0  0.92723378493E-02 -0.53452164399E-01 -0.19527387808E-01  0.57660125943E-01  0.51100000000E-03 0. -1.
</event>
<event>
 8    1  0.1117714E+005  0.1043930E+01  0.7957747E-01            NaN
         13   -1    0    0    0    0  0.00000000000E+00  0.00000000000E+00  0.74505805969E-08  0.10566000000E+00  0.10566000000E+00 0.  1.
     999900   -1    0    0    0    0 -0.00000000000E+00 -0.00000000000E+00 -0.74505805969E-08  0.93827000000E+00  0.93827000000E+00 0.  1.
     999902    2    1    2    0    0  0.13646570241E-01 -0.14798417515E-01  0.64082356357E-02  0.10228044817E+01  0.10225862899E+01 0.  0.
     999903    2    3    3    0    0 -0.16117679071E-01  0.11632724223E+00  0.55002047500E-01  0.13126580740E+00  0.20339127341E-01 0.  0.
         14    1    1    2    0    0 -0.13646570241E-01  0.14798417515E-01 -0.64082356357E-02  0.21125518319E-01  0.00000000000E+00 0. -1.
     999901    1    3    3    0    0  0.29764249312E-01 -0.13112565974E+00 -0.48593811864E-01  0.89153867428E+00  0.88000000000E+00 0. -1.
        -11    1    4    4    0    0 -0.14759766175E-01  0.40434184998E-01  0.15991190533E-01  0.45921164071E-01  0.51100000000E-03 0. -1.
         11    1    4    4    0    0 -0.13579128958E-02  0.75893057231E-01  0.39010856967E-01  0.85344643333E-01  0.51100000000E-03 0.  1.
</event>
<event>
 8    1  0.1117714E+005  0.1043930E+01  0.7957747E-01            NaN
         13   -1    0    0    0    0  0.00000000000E+00  0.00000000000E+00  0.74505805969E-08  0.10566000000E+00  0.10566000000E+00 0.  1.
     999900   -1    0    0    0    0 -0.00000000000E+00 -0.00000000000E+00 -0.74505805969E-08  0.93827000000E+00  0.93827000000E+00 0. -1.
     999902    2    1    2    0    0 -0.71667358252E-02  0.36859853455E-02  0.22670461773E-01  0.10198696919E+01  0.10195858424E+01 0.  0.
     999903    2    3    3    0    0 -0.33823502357E-02  0.53996422851E-01  0.11987399471E+00  0.13308111024E+00  0.20340927204E-01 0.  0.
         14    1    1    2    0    0  0.71667358252E-02 -0.36859853455E-02 -0.22670461773E-01  0.24060308131E-01  0.00000000000E+00 0. -1.
     999901    1    3    3    0    0 -0.37843855895E-02 -0.50310437506E-01 -0.97203532941E-01  0.88678858163E+00  0.88000000000E+00 0. -1.
        -11    1    4    4    0    0 -0.11039572599E-01  0.28206486138E-01  0.53882223679E-01  0.61814506170E-01  0.51100000000E-03 0.  1.
         11    1    4    4    0    0  0.76572223635E-02  0.25789936713E-01  0.65991771035E-01  0.71266604068E-01  0.51100000000E-03 0. -1.
</event>
<event>
 8    1  0.1117714E+005  0.1043930E+01  0.7957747E-01            NaN
         13   -1    0    0    0    0  0.00000000000E+00  0.00000000000E+00  0.74505805969E-08  0.10566000000E+00  0.10566000000E+00 0. -1.
     999900   -1    0    0    0    0 -0.00000000000E+00 -0.00000000000E+00 -0.74505805969E-08  0.93827000000E+00  0.93827000000E+00 0.  1.
     999902    2    1    2    0    0 -0.36609546873E-02  0.23571778672E-02  0.19848301158E-01  0.10236097162E+01  0.10234080013E+01 0.  0.
     999903    2    3    3    0    0 -0.13122292317E+00  0.24381988790E-02 -0.12574394867E-01  0.13382137414E+00  0.22905117146E-01 0.  0.
         14    1    1    2    0    0  0.36609546873E-02 -0.23571778672E-02 -0.19848301158E-01  0.20320283845E-01  0.00000000000E+00 0.  1.
     999901    1    3    3    0    0  0.12756196848E+00 -0.81021011861E-04  0.32422696024E-01  0.88978834201E+00  0.88000000000E+00 0. -1.
        -11    1    4    4    0    0 -0.17296853867E-01 -0.75026427724E-02 -0.12586218053E-02  0.18902805404E-01  0.51100000000E-03 0.  1.
         11    1    4    4    0    0 -0.11392606930E+00  0.99408416514E-02 -0.11315773061E-01  0.11491856874E+00  0.51100000000E-03 0. -1.
</event>
<event>
 8    1  0.1117714E+005  0.1043930E+01  0.7957747E-01            NaN
         13   -1    0    0    0    0  0.00000000000E+00  0.00000000000E+00  0.74505805969E-08  0.10566000000E+00  0.10566000000E+00 0. -1.
     999900   -1    0    0    0    0 -0.00000000000E+00 -0.00000000000E+00 -0.74505805969E-08  0.93827000000E+00  0.93827000000E+00 0. -1.
     999902    2    1    2    0    0  0.14261417743E-01 -0.18475683829E-01 -0.34767891818E-02  0.10203328181E+01  0.10200599163E+01 0.  0.
     999903    2    3    3    0    0 -0.77603505549E-01  0.25998210563E-01  0.97208191257E-01  0.12873057683E+00  0.20589267526E-01 0.  0.
         14    1    1    2    0    0 -0.14261417743E-01  0.18475683829E-01  0.34767891818E-02  0.23597181866E-01  0.00000000000E+00 0. -1.
     999901    1    3    3    0    0  0.91864923292E-01 -0.44473894392E-01 -0.10068498044E+00  0.89160224130E+00  0.88000000000E+00 0. -1.
        -11    1    4    4    0    0 -0.30175170455E-01  0.11791889494E-01  0.23875979366E-01  0.40248143827E-01  0.51100000000E-03 0.  1.
         11    1    4    4    0    0 -0.47428335094E-01  0.14206321069E-01  0.73332211891E-01  0.88482433002E-01  0.51100000000E-03 0. -1.
</event>
<event>
 8    1  0.1117714E+005  0.1043930E+01  0.7957747E-01            NaN
         13   -1    0    0    0    0  0.00000000000E+00  0.00000000000E+00  0.74505805969E-08  0.10566000000E+00  0.10566000000E+00 0. -1.
     999900   -1    0    0    0    0 -0.00000000000E+00 -0.00000000000E+00 -0.74505805969E-08  0.93827000000E+00  0.93827000000E+00 0. -1.
     999902    2    1    2    0    0  0.13860525219E-01 -0.13610774785E-01  0.11884524934E-01  0.10211570054E+01  0.10209030416E+01 0.  0.
     999903    2    3    3    0    0  0.71521872325E-01 -0.33302237419E-02  0.11119068693E+00  0.13363673269E+00  0.19207781063E-01 0.  0.
         14    1    1    2    0    0 -0.13860525219E-01  0.13610774785E-01 -0.11884524934E-01  0.22772994588E-01  0.00000000000E+00 0.  1.
     999901    1    3    3    0    0 -0.57661347107E-01 -0.10280551043E-01 -0.99306161996E-01  0.88752027272E+00  0.88000000000E+00 0. -1.
        -11    1    4    4    0    0  0.19168039738E-01 -0.83588900586E-02  0.24261810194E-01  0.32034065389E-01  0.51100000000E-03 0. -1.
         11    1    4    4    0    0  0.52353832587E-01  0.50286663168E-02  0.86928876736E-01  0.10160266730E+00  0.51100000000E-03 0.  1.
</event>
<event>
 8    1  0.1117714E+005  0.1043930E+01  0.7957747E-01            NaN
         13   -1    0    0    0    0  0.00000000000E+00  0.00000000000E+00  0.74505805969E-08  0.10566000000E+00  0.10566000000E+00 0.  1.
     999900   -1    0    0    0    0 -0.00000000000E+00 -0.00000000000E+00 -0.74505805969E-08  0.93827000000E+00  0.93827000000E+00 0. -1.
     999902    2    1    2    0    0 -0.22471391780E-01 -0.23084654756E-02  0.74526511257E-02  0.10201427246E+01  0.10198653559E+01 0.  0.
     999903    2    3    3    0    0 -0.11171444470E+00 -0.69921424792E-01  0.82203159121E-02  0.13304835305E+00  0.16283975411E-01 0.  0.
         14    1    1    2    0    0  0.22471391780E-01  0.23084654756E-02 -0.74526511257E-02  0.23787275384E-01  0.00000000000E+00 0. -1.
     999901    1    3    3    0    0  0.89243052920E-01  0.67612959316E-01 -0.76766478641E-03  0.88709437157E+00  0.88000000000E+00 0.  1.
        -11    1    4    4    0    0 -0.42391954756E-01 -0.33568893283E-01  0.86878127570E-02  0.54769404194E-01  0.51100000000E-03 0. -1.
         11    1    4    4    0    0 -0.69322489944E-01 -0.36352531508E-01 -0.46749684488E-03  0.78278948852E-01  0.51100000000E-03 0.  1.
</event>
<event>
 8    1  0.1117714E+005  0.1043930E+01  0.7957747E-01            NaN
         13   -1    0    0    0    0  0.00000000000E+00  0.00000000000E+00  0.74505805969E-08  0.10566000000E+00  0.10566000000E+00 0.  1.
     999900   -1    0    0    0    0 -0.00000000000E+00 -0.00000000000E+00 -0.74505805969E-08  0.93827000000E+00  0.93827000000E+00 0.  1.
     999902    2    1    2    0    0 -0.17837347666E-01 -0.15742310618E-01 -0.59183072453E-02  0.10194143381E+01  0.10191195097E+01 0.  0.
     999903    2    3    3    0    0 -0.11987836100E+00  0.25273797397E-01 -0.43674674324E-01  0.13176562792E+00  0.21097802107E-01 0.  0.
         14    1    1    2    0    0  0.17837347666E-01  0.15742310618E-01  0.59183072453E-02  0.24515661851E-01  0.00000000000E+00 0.  1.
     999901    1    3    3    0    0  0.10204101333E+00 -0.41016108015E-01  0.37756367079E-01  0.88764871023E+00  0.88000000000E+00 0. -1.
        -11    1    4    4    0    0 -0.89900164507E-01  0.22137184892E-01 -0.23601259556E-01  0.95547763485E-01  0.51100000000E-03 0. -1.
         11    1    4    4    0    0 -0.29978196488E-01  0.31366125053E-02 -0.20073414768E-01  0.36217864434E-01  0.51100000000E-03 0.  1.
</event>
<event>
 8    1  0.1117714E+005  0.1043930E+01  0.7957747E-01            NaN
         13   -1    0    0    0    0  0.00000000000E+00  0.00000000000E+00  0.74505805969E-08  0.10566000000E+00  0.10566000000E+00 0.  1.
     999900   -1    0    0    0    0 -0.00000000000E+00 -0.00000000000E+00 -0.74505805969E-08  0.93827000000E+00  0.93827000000E+00 0.  1.
     999902    2    1    2    0    0 -0.16833699840E-01 -0.59938711057E-02  0.14855220637E-01  0.10206925836E+01  0.10204280341E+01 0.  0.
     999903    2    3    3    0    0  0.12476159322E+00 -0.24941545309E-01 -0.58008685937E-02  0.12893313430E+00  0.20064077855E-01 0.  0.
         14    1    1    2    0    0  0.16833699840E-01  0.59938711057E-02 -0.14855220637E-01  0.23237416408E-01  0.00000000000E+00 0. -1.
     999901    1    3    3    0    0 -0.14159529306E+00  0.18947674204E-01  0.20656089231E-01  0.89175944929E+00  0.88000000000E+00 0. -1.
        -11    1    4    4    0    0  0.81086435357E-01 -0.82516163231E-02  0.19855774035E-02  0.81530992938E-01  0.51100000000E-03 0. -1.
         11    1    4    4    0    0  0.43675157861E-01 -0.16689928986E-01 -0.77864459972E-02  0.47402141365E-01  0.51100000000E-03 0.  1.
</event>
<event>
 8    1  0.1117714E+005  0.1043930E+01  0.7957747E-01            NaN
         13   -1    0    0    0    0  0.00000000000E+00  0.00000000000E+00  0.74505805969E-08  0.10566000000E+00  0.10566000000E+00 0.  1.
     999900   -1    0    0    0    0 -0.00000000000E+00 -0.00000000000E+00 -0.74505805969E-08  0.93827000000E+00  0.93827000000E+00 0. -1.
     999902    2    1    2    0    0  0.20711334931E-01  0.83223197628E-02  0.69471706062E-03  0.10215983401E+01  0.10213542312E+01 0.  0.
     999903    2    3    3    0    0  0.10886171421E+00 -0.72234495026E-01  0.18435731088E-01  0.13335589949E+00  0.19370716418E-01 0.  0.
         14    1    1    2    0    0 -0.20711334931E-01 -0.83223197628E-02 -0.69471706062E-03  0.22331659873E-01  0.00000000000E+00 0. -1.
     999901    1    3    3    0    0 -0.88150379280E-01  0.80556814789E-01 -0.17741014027E-01  0.88824244064E+00  0.88000000000E+00 0.  1.
        -11    1    4    4    0    0  0.37109816663E-01 -0.27137032605E-01  0.15630470017E-01  0.48560578099E-01  0.51100000000E-03 0.  1.
         11    1    4    4    0    0  0.71751897548E-01 -0.45097462422E-01  0.28052610710E-02  0.84795321388E-01  0.51100000000E-03 0. -1.
</event>
<event>
 8    1  0.1117714E+005  0.1043930E+01  0.7957747E-01            NaN
         13   -1    0    0    0    0  0.00000000000E+00  0.00000000000E+00  0.74505805969E-08  0.10566000000E+00  0.10566000000E+00 0. -1.
     999900   -1    0    0    0    0 -0.00000000000E+00 -0.00000000000E+00 -0.74505805969E-08  0.93827000000E+00  0.93827000000E+00 0. -1.
     999902    2    1    2    0    0  0.11849623103E-01  0.19720668602E-01 -0.30652225949E-02  0.10207197883E+01  0.10204558649E+01 0.  0.
     999903    2    3    3    0    0  0.98907984140E-02 -0.11407783710E+00  0.55347834723E-01  0.12868954083E+00  0.19647755617E-01 0.  0.
         14    1    1    2    0    0 -0.11849623103E-01 -0.19720668602E-01  0.30652225949E-02  0.23210211705E-01  0.00000000000E+00 0. -1.
     999901    1    3    3    0    0  0.19588246891E-02  0.13379850570E+00 -0.58413057318E-01  0.89203024746E+00  0.88000000000E+00 0. -1.
        -11    1    4    4    0    0  0.92939706945E-03 -0.54736079486E-01  0.36439310471E-01  0.65764630654E-01  0.51100000000E-03 0. -1.
         11    1    4    4    0    0  0.89614013446E-02 -0.59341757613E-01  0.18908524252E-01  0.62924910180E-01  0.51100000000E-03 0.  1.
</event>
<event>
 8    1  0.1117714E+005  0.1043930E+01  0.7957747E-01            NaN
         13   -1    0    0    0    0  0.00000000000E+00  0.00000000000E+00  0.74505805969E-08  0.10566000000E+00  0.10566000000E+00 0. -1.
     999900   -1    0    0    0    0 -0.00000000000E+00 -0.00000000000E+00 -0.74505805969E-08  0.93827000000E+00  0.93827000000E+00 0. -1.
     999902    2    1    2    0    0 -0.21602310957E-01 -0.12572594186E-01 -0.65815835603E-03  0.10189267375E+01  0.10186199160E+01 0.  0.
     999903    2    3    3    0    0  0.10596806766E-01  0.11424653006E+00 -0.52181709453E-01  0.12776202221E+00  0.20872028509E-01 0.  0.
         14    1    1    2    0    0  0.21602310957E-01  0.12572594186E-01  0.65815835603E-03  0.25003262501E-01  0.00000000000E+00 0.  1.
     999901    1    3    3    0    0 -0.32199117723E-01 -0.12681912424E+00  0.51523551097E-01  0.89116471529E+00  0.88000000000E+00 0.  1.
        -11    1    4    4    0    0 -0.44924664774E-02  0.29531370637E-01 -0.74979973938E-02  0.30802032282E-01  0.51100000000E-03 0. -1.
         11    1    4    4    0    0  0.15089273243E-01  0.84715159421E-01 -0.44683712059E-01  0.96959989929E-01  0.51100000000E-03 0.  1.
</event>
<event>
 8    1  0.1117714E+005  0.1043930E+01  0.7957747E-01            NaN
         13   -1    0    0    0    0  0.00000000000E+00  0.00000000000E+00  0.74505805969E-08  0.10566000000E+00  0.10566000000E+00 0.  1.
     999900   -1    0    0    0    0 -0.00000000000E+00 -0.00000000000E+00 -0.74505805969E-08  0.93827000000E+00  0.93827000000E+00 0.  1.
     999902    2    1    2    0    0  0.24007001601E-01 -0.97472534308E-02  0.93069608201E-02  0.10163988432E+01  0.10160259071E+01 0.  0.
     999903    2    3    3    0    0 -0.11936490893E+00  0.90473916241E-02 -0.25511772457E-01  0.12391854224E+00  0.19367957995E-01 0.  0.
         14    1    1    2    0    0 -0.24007001601E-01  0.97472534308E-02 -0.93069608201E-02  0.27531156805E-01  0.00000000000E+00 0. -1.
     999901    1    3    3    0    0  0.14337191053E+00 -0.18794645055E-01  0.34818733277E-01  0.89248030096E+00  0.88000000000E+00 0.  1.
        -11    1    4    4    0    0 -0.56370229473E-01 -0.12916889417E-02 -0.39079381782E-02  0.56522600197E-01  0.51100000000E-03 0.  1.
         11    1    4    4    0    0 -0.62994679457E-01  0.10339080566E-01 -0.21603834279E-01  0.67395942040E-01  0.51100000000E-03 0. -1.
</event>
<event>
 8    1  0.1117714E+005  0.1043930E+01  0.7957747E-01            NaN
         13   -1    0    0    0    0  0.00000000000E+00  0.00000000000E+00  0.74505805969E-08  0.10566000000E+00  0.10566000000E+00 0. -1.
     999900   -1    0    0    0    0 -0.00000000000E+00 -0.00000000000E+00 -0.74505805969E-08  0.93827000000E+00  0.93827000000E+00 0.  1.
     999902    2    1    2    0    0  0.88794538487E-02  0.56447678047E-02  0.20534991357E-01  0.10208563359E+01  0.10205955441E+01 0.  0.
     999903    2    3    3    0    0  0.12289272898E+00 -0.65233827617E-02  0.46927425403E-01  0.13302546724E+00  0.18665859752E-01 0.  0.
         14    1    1    2    0    0 -0.88794538487E-02 -0.56447678047E-02 -0.20534991357E-01  0.23073664084E-01  0.00000000000E+00 0.  1.
     999901    1    3    3    0    0 -0.11401327514E+00  0.12168150566E-01 -0.26392434045E-01  0.88783086867E+00  0.88000000000E+00 0. -1.
        -11    1    4    4    0    0  0.16127428356E-01 -0.55028601099E-03  0.13334354246E-01  0.20939505348E-01  0.51100000000E-03 0. -1.
         11    1    4    4    0    0  0.10676530063E+00 -0.59730967507E-02  0.33593071157E-01  0.11208596189E+00  0.51100000000E-03 0.  1.
</event>
<event>
 8    1  0.1117714E+005  0.1043930E+01  0.7957747E-01            NaN
         13   -1    0    0    0    0  0.00000000000E+00  0.00000000000E+00  0.74505805969E-08  0.10566000000E+00  0.10566000000E+00 0. -1.
     999900   -1    0    0    0    0 -0.00000000000E+00 -0.00000000000E+00 -0.74505805969E-08  0.93827000000E+00  0.93827000000E+00 0. -1.
     999902    2    1    2    0    0  0.12177755993E-01  0.12985225111E-01  0.16065993541E-01  0.10199502177E+01  0.10196682875E+01 0.  0.
     999903    2    3    3    0    0 -0.10090193261E+00  0.43066368642E-01  0.67975939013E-01  0.13068842629E+00  0.20562693614E-01 0.  0.
         14    1    1    2    0    0 -0.12177755993E-01 -0.12985225111E-01 -0.16065993541E-01  0.23979782331E-01  0.00000000000E+00 0.  1.
     999901    1    3    3    0    0  0.11307968860E+00 -0.30081143532E-01 -0.51909945472E-01  0.88926179138E+00  0.88000000000E+00 0. -1.
        -11    1    4    4    0    0 -0.56222357402E-01  0.12878991806E-01  0.34105354759E-01  0.67009389238E-01  0.51100000000E-03 0. -1.
         11    1    4    4    0    0 -0.44679575207E-01  0.30187376836E-01  0.33870584254E-01  0.63679037050E-01  0.51100000000E-03 0.  1.
</event>
<event>
 8    1  0.1117714E+005  0.1043930E+01  0.7957747E-01            NaN
         13   -1    0    0    0    0  0.00000000000E+00  0.00000000000E+00  0.74505805969E-08  0.10566000000E+00  0.10566000000E+00 0.  1.
     999900   -1    0    0    0    0 -0.00000000000E+00 -0.00000000000E+00 -0.74505805969E-08  0.93827000000E+00  0.93827000000E+00 0. -1.
     999902    2    1    2    0    0 -0.24276071623E-02 -0.38651385348E-03 -0.24322115392E-01  0.10194839785E+01  0.10191908430E+01 0.  0.
     999903    2    3    3    0    0 -0.34659264857E-01 -0.11066085232E+00  0.49794939666E-01  0.12892648608E+00  0.26370701916E-01 0.  0.
         14    1    1    2    0    0  0.24276071623E-02  0.38651385348E-03  0.24322115392E-01  0.24446021489E-01  0.00000000000E+00 0.  1.
     999901    1    3    3    0    0  0.32231657694E-01  0.11027433846E+00 -0.74117055059E-01  0.89055749243E+00  0.88000000000E+00 0. -1.
        -11    1    4    4    0    0 -0.21485085127E-01 -0.96125892014E-01  0.35714453319E-01  0.10477394378E+00  0.51100000000E-03 0.  1.
         11    1    4    4    0    0 -0.13174179730E-01 -0.14534960304E-01  0.14080486347E-01  0.24152542296E-01  0.51100000000E-03 0. -1.
</event>
<event>
 8    1  0.1117714E+005  0.1043930E+01  0.7957747E-01            NaN
         13   -1    0    0    0    0  0.00000000000E+00  0.00000000000E+00  0.74505805969E-08  0.10566000000E+00  0.10566000000E+00 0.  1.
     999900   -1    0    0    0    0 -0.00000000000E+00 -0.00000000000E+00 -0.74505805969E-08  0.93827000000E+00  0.93827000000E+00 0. -1.
     999902    2    1    2    0    0  0.18444212029E-01  0.13788728784E-01  0.60901467414E-02  0.10201096749E+01  0.10198315258E+01 0.  0.
     999903    2    3    3    0    0  0.41463942464E-01 -0.57684644175E-01 -0.10682798104E+00  0.12972276206E+00  0.19209392639E-01 0.  0.
         14    1    1    2    0    0 -0.18444212029E-01 -0.13788728784E-01 -0.60901467414E-02  0.23820325064E-01  0.00000000000E+00 0. -1.
     999901    1    3    3    0    0 -0.23019730435E-01  0.71473372960E-01  0.11291812778E+00  0.89038691287E+00  0.88000000000E+00 0.  1.
        -11    1    4    4    0    0  0.25497389854E-01 -0.47956606923E-01 -0.71994800810E-01  0.90185727815E-01  0.51100000000E-03 0.  1.
         11    1    4    4    0    0  0.15966552610E-01 -0.97280372520E-02 -0.34833180232E-01  0.39537034248E-01  0.51100000000E-03 0. -1.
</event>
<event>
 8    1  0.1117714E+005  0.1043930E+01  0.7957747E-01            NaN
         13   -1    0    0    0    0  0.00000000000E+00  0.00000000000E+00  0.74505805969E-08  0.10566000000E+00  0.10566000000E+00 0.  1.
     999900   -1    0    0    0    0 -0.00000000000E+00 -0.00000000000E+00 -0.74505805969E-08  0.93827000000E+00  0.93827000000E+00 0.  1.
     999902    2    1    2    0    0 -0.51638443003E-02 -0.21855541167E-01 -0.50875717529E-02  0.10209036378E+01  0.10206439264E+01 0.  0.
     999903    2    3    3    0    0  0.18160106086E-01 -0.11779834994E+00  0.56090243962E-01  0.13327096925E+00  0.20218681401E-01 0.  0.
         14    1    1    2    0    0  0.51638443003E-02  0.21855541167E-01  0.50875717529E-02  0.23026362153E-01  0.00000000000E+00 0. -1.
     999901    1    3    3    0    0 -0.23323950386E-01  0.95942808770E-01 -0.61177815715E-01  0.88763266859E+00  0.88000000000E+00 0.  1.
        -11    1    4    4    0    0  0.13369446082E-01 -0.99431450904E-01  0.38732219987E-01  0.10754441642E+00  0.51100000000E-03 0.  1.
         11    1    4    4    0    0  0.47906600042E-02 -0.18366899033E-01  0.17358023975E-01  0.25726552834E-01  0.51100000000E-03 0. -1.
</event>
<event>
 8    1  0.1117714E+005  0.1043930E+01  0.7957747E-01            NaN
         13   -1    0    0    0    0  0.00000000000E+00  0.00000000000E+00  0.74505805969E-08  0.10566000000E+00  0.10566000000E+00 0.  1.
     999900   -1    0    0    0    0 -0.00000000000E+00 -0.00000000000E+00 -0.74505805969E-08  0.93827000000E+00  0.93827000000E+00 0.  1.
     999902    2    1    2    0    0  0.23273671072E-01 -0.22317039827E-02  0.32005704058E-02  0.10203315272E+01  0.10200585951E+01 0.  0.
     999903    2    3    3    0    0  0.93541431692E-01 -0.76524386176E-01 -0.50455430109E-01  0.13278663977E+00  0.21921682193E-01 0.  0.
         14    1    1    2    0    0 -0.23273671072E-01  0.22317039827E-02 -0.32005704058E-02  0.23598472806E-01  0.00000000000E+00 0. -1.
     999901    1    3    3    0    0 -0.70267760620E-01  0.74292682193E-01  0.53656000515E-01  0.88754488743E+00  0.88000000000E+00 0. -1.
        -11    1    4    4    0    0  0.49440872945E-01 -0.26358080813E-01 -0.22869633991E-01  0.60518010721E-01  0.51100000000E-03 0.  1.
         11    1    4    4    0    0  0.44100558747E-01 -0.50166305363E-01 -0.27585796118E-01  0.72268629045E-01  0.51100000000E-03 0. -1.
</event>
<event>
 8    1  0.1117714E+005  0.1043930E+01  0.7957747E-01            NaN
         13   -1    0    0    0    0  0.00000000000E+00  0.00000000000E+00  0.74505805969E-08  0.10566000000E+00  0.10566000000E+00 0.  1.
     999900   -1    0    0    0    0 -0.00000000000E+00 -0.00000000000E+00 -0.74505805969E-08  0.93827000000E+00  0.93827000000E+00 0.  1.
     999902    2    1    2    0    0 -0.11570770046E-01  0.60381402922E-02 -0.19875701365E-01  0.10201521666E+01  0.10198750206E+01 0.  0.
     999903    2    3    3    0    0  0.61441366424E-01 -0.82469081310E-01  0.72229318645E-01  0.12793715042E+00  0.23971839821E-01 0.  0.
         14    1    1    2    0    0  0.11570770046E-01 -0.60381402922E-02  0.19875701365E-01  0.23777833425E-01  0.00000000000E+00 0.  1.
     999901    1    3    3    0    0 -0.73012136470E-01  0.88507221603E-01 -0.92105020010E-01  0.89221501616E+00  0.88000000000E+00 0.  1.
        -11    1    4    4    0    0  0.43092139279E-01 -0.69706115671E-01  0.48024169691E-01  0.94986614979E-01  0.51100000000E-03 0.  1.
         11    1    4    4    0    0  0.18349227145E-01 -0.12762965640E-01  0.24205148954E-01  0.32950535437E-01  0.51100000000E-03 0. -1.
</event>
<event>
 8    1  0.1117714E+005  0.1043930E+01  0.7957747E-01            NaN
         13   -1    0    0    0    0  0.00000000000E+00  0.00000000000E+00  0.74505805969E-08  0.10566000000E+00  0.10566000000E+00 0.  1.
     999900   -1    0    0    0    0 -0.00000000000E+00 -0.00000000000E+00 -0.74505805969E-08  0.93827000000E+00  0.93827000000E+00 0. -1.
     999902    2    1    2    0    0  0.13683123266E-01  0.15018769419E-01  0.13639038307E-01  0.10194593101E+01  0.10191655755E+01 0.  0.
     999903    2    3    3    0    0 -0.88621323788E-01 -0.65338195562E-02 -0.89217030143E-01  0.12732138088E+00  0.18831509050E-01 0.  0.
         14    1    1    2    0    0 -0.13683123266E-01 -0.15018769419E-01 -0.13639038307E-01  0.24470689878E-01  0.00000000000E+00 0. -1.
     999901    1    3    3    0    0  0.10230444705E+00  0.21552588976E-01  0.10285606845E+00  0.89213792924E+00  0.88000000000E+00 0.  1.
        -11    1    4    4    0    0 -0.30426955008E-01  0.46181512616E-02 -0.38753694771E-01  0.49489765523E-01  0.51100000000E-03 0.  1.
         11    1    4    4    0    0 -0.58194368780E-01 -0.11151970818E-01 -0.50463335372E-01  0.77831615354E-01  0.51100000000E-03 0. -1.
</event>
<event>
 8    1  0.1117714E+005  0.1043930E+01  0.7957747E-01            NaN
         13   -1    0    0    0    0  0.00000000000E+00  0.00000000000E+00  0.74505805969E-08  0.10566000000E+00  0.10566000000E+00 0. -1.
     999900   -1    0    0    0    0 -0.00000000000E+00 -0.00000000000E+00 -0.74505805969E-08  0.93827000000E+00  0.93827000000E+00 0.  1.
     999902    2    1    2    0    0  0.38324388479E-02  0.14331256914E-01  0.18154368070E-01  0.10204853078E+01  0.10202159624E+01 0.  0.
     999903    2    3    3    0    0  0.11636585243E+00 -0.54141241684E-01  0.12187929812E-01  0.13066068990E+00  0.21245813481E-01 0.  0.
         14    1    1    2    0    0 -0.38324388479E-02 -0.14331256914E-01 -0.18154368070E-01  0.23444692199E-01  0.00000000000E+00 0.  1.
     999901    1    3    3    0    0 -0.11253341358E+00  0.68472498599E-01  0.59664382580E-02  0.88982461790E+00  0.88000000000E+00 0. -1.
        -11    1    4    4    0    0  0.35687454728E-01 -0.13232599006E-01 -0.55844303271E-02  0.38472627731E-01  0.51100000000E-03 0.  1.
         11    1    4    4    0    0  0.80678397697E-01 -0.40908642679E-01  0.17772360140E-01  0.92188062170E-01  0.51100000000E-03 0. -1.
</event>
<event>
 8    1  0.1117714E+005  0.1043930E+01  0.7957747E-01            NaN
         13   -1    0    0    0    0  0.00000000000E+00  0.00000000000E+00  0.74505805969E-08  0.10566000000E+00  0.10566000000E+00 0. -1.
     999900   -1    0    0    0    0 -0.00000000000E+00 -0.00000000000E+00 -0.74505805969E-08  0.93827000000E+00  0.93827000000E+00 0. -1.
     999902    2    1    2    0    0 -0.67420290683E-02  0.56184349584E-02 -0.21878661481E-01  0.10203567610E+01  0.10200844191E+01 0.  0.
     999903    2    3    3    0    0  0.11379183518E+00  0.50603160724E-01  0.27331529597E-01  0.12964149739E+00  0.23465798627E-01 0.  0.
         14    1    1    2    0    0  0.67420290683E-02 -0.56184349584E-02  0.21878661481E-01  0.23573238970E-01  0.00000000000E+00 0. -1.
     999901    1    3    3    0    0 -0.12053386425E+00 -0.44984725766E-01 -0.49210191079E-01  0.89071526364E+00  0.88000000000E+00 0.  1.
        -11    1    4    4    0    0  0.56077483362E-01  0.12740761298E-01  0.88782360433E-02  0.58190165277E-01  0.51100000000E-03 0.  1.
         11    1    4    4    0    0  0.57714351818E-01  0.37862399426E-01  0.18453293554E-01  0.71451332109E-01  0.51100000000E-03 0. -1.
</event>
<event>
 8    1  0.1117714E+005  0.1043930E+01  0.7957747E-01            NaN
         13   -1    0    0    0    0  0.00000000000E+00  0.00000000000E+00  0.74505805969E-08  0.10566000000E+00  0.10566000000E+00 0.  1.
     999900   -1    0    0    0    0 -0.00000000000E+00 -0.00000000000E+00 -0.74505805969E-08  0.93827000000E+00  0.93827000000E+00 0. -1.
     999902    2    1    2    0    0  0.54305780406E-02  0.19226800956E-01  0.12098114723E-01  0.10205735141E+01  0.10203062150E+01 0.  0.
     999903    2    3    3    0    0  0.22657048405E-01 -0.10843275040E+00  0.64450119672E-01  0.12965575992E+00  0.19641663682E-01 0.  0.
         14    1    1    2    0    0 -0.54305780406E-02 -0.19226800956E-01 -0.12098114723E-01  0.23356485881E-01  0.00000000000E+00 0. -1.
     999901    1    3    3    0    0 -0.17226470365E-01  0.12765955135E+00 -0.52352004949E-01  0.89091775420E+00  0.88000000000E+00 0. -1.
        -11    1    4    4    0    0  0.25535256532E-01 -0.92026613512E-01  0.58296208805E-01  0.11189126866E+00  0.51100000000E-03 0. -1.
         11    1    4    4    0    0 -0.28782081272E-02 -0.16406136886E-01  0.61539108668E-02  0.17764491254E-01  0.51100000000E-03 0.  1.
</event>
<event>
 8    1  0.1117714E+005  0.1043930E+01  0.7957747E-01            NaN
         13   -1    0    0    0    0  0.00000000000E+00  0.00000000000E+00  0.74505805969E-08  0.10566000000E+00  0.10566000000E+00 0. -1.
     999900   -1    0    0    0    0 -0.00000000000E+00 -0.00000000000E+00 -0.74505805969E-08  0.93827000000E+00  0.93827000000E+00 0.  1.
     999902    2    1    2    0    0 -0.22673780217E-01  0.18614437869E-02  0.59615365662E-02  0.10204118113E+01  0.10201407547E+01 0.  0.
     999903    2    3    3    0    0 -0.76814122197E-01  0.12114058820E-01 -0.10483034253E+00  0.13175488467E+00  0.17966333220E-01 0.  0.
         14    1    1    2    0    0  0.22673780217E-01 -0.18614437869E-02 -0.59615365662E-02  0.23518188718E-01  0.00000000000E+00 0. -1.
     999901    1    3    3    0    0  0.54140341979E-01 -0.10252615033E-01  0.11079187910E+00  0.88865692661E+00  0.88000000000E+00 0. -1.
        -11    1    4    4    0    0 -0.29721051921E-01  0.62053074820E-03 -0.53116563991E-01  0.60871639348E-01  0.51100000000E-03 0.  1.
         11    1    4    4    0    0 -0.47093070275E-01  0.11493528072E-01 -0.51713778538E-01  0.70883245321E-01  0.51100000000E-03 0. -1.
</event>
<event>
 8    1  0.1117714E+005  0.1043930E+01  0.7957747E-01            NaN
         13   -1    0    0    0    0  0.00000000000E+00  0.00000000000E+00  0.74505805969E-08  0.10566000000E+00  0.10566000000E+00 0. -1.
     999900   -1    0    0    0    0 -0.00000000000E+00 -0.00000000000E+00 -0.74505805969E-08  0.93827000000E+00  0.93827000000E+00 0.  1.
     999902    2    1    2    0    0 -0.21002432394E-01  0.10441397234E-01  0.73714659650E-02  0.10193441615E+01  0.10190476221E+01 0.  0.
     999903    2    3    3    0    0  0.11497305711E+00  0.50386289816E-01 -0.12950415124E-01  0.12777368925E+00  0.20020498262E-01 0.  0.
         14    1    1    2    0    0  0.21002432394E-01 -0.10441397234E-01 -0.73714659650E-02  0.24585838468E-01  0.00000000000E+00 0.  1.
     999901    1    3    3    0    0 -0.13597548950E+00 -0.39944892582E-01  0.20321881089E-01  0.89157047228E+00  0.88000000000E+00 0. -1.
        -11    1    4    4    0    0  0.43834158821E-01  0.28712975284E-01 -0.73806292323E-03  0.52408723387E-01  0.51100000000E-03 0. -1.
         11    1    4    4    0    0  0.71138898290E-01  0.21673314532E-01 -0.12212352201E-01  0.75364965866E-01  0.51100000000E-03 0.  1.
</event>
<event>
 8    1  0.1117714E+005  0.1043930E+01  0.7957747E-01            NaN
         13   -1    0    0    0    0  0.00000000000E+00  0.00000000000E+00  0.74505805969E-08  0.10566000000E+00  0.10566000000E+00 0. -1.
     999900   -1    0    0    0    0 -0.00000000000E+00 -0.00000000000E+00 -0.74505805969E-08  0.93827000000E+00  0.93827000000E+00 0. -1.
     999902    2    1    2    0    0  0.17628205583E-01 -0.18628724544E-01 -0.89041068002E-02  0.10167810382E+01  0.10164185228E+01 0.  0.
     999903    2    3    3    0    0  0.40318105321E-02 -0.12205707578E+00  0.38013606330E-01  0.12937833500E+00  0.19481633840E-01 0.  0.
         14    1    1    2    0    0 -0.17628205583E-01  0.18628724544E-01  0.89041068002E-02  0.27148961824E-01  0.00000000000E+00 0. -1.
     999901    1    3    3    0    0  0.13596395051E-01  0.10342835124E+00 -0.46917713130E-01  0.88740270318E+00  0.88000000000E+00 0. -1.
        -11    1    4    4    0    0 -0.51764398485E-02 -0.10379997619E-01  0.36304825451E-02  0.12164760770E-01  0.51100000000E-03 0. -1.
         11    1    4    4    0    0  0.92082503806E-02 -0.11167707816E+00  0.34383123785E-01  0.11721357423E+00  0.51100000000E-03 0.  1.
</event>
<event>
 8    1  0.1117714E+005  0.1043930E+01  0.7957747E-01            NaN
         13   -1    0    0    0    0  0.00000000000E+00  0.00000000000E+00  0.74505805969E-08  0.10566000000E+00  0.10566000000E+00 0. -1.
     999900   -1    0    0    0    0 -0.00000000000E+00 -0.00000000000E+00 -0.74505805969E-08  0.93827000000E+00  0.93827000000E+00 0. -1.
     999902    2    1    2    0    0 -0.11718227710E-02  0.21139024789E-01 -0.14843744400E-01  0.10180733126E+01  0.10177449098E+01 0.  0.
     999903    2    3    3    0    0 -0.14901436543E-01 -0.77200010152E-01 -0.99552194711E-01  0.12844721714E+00  0.20153256361E-01 0.  0.
         14    1    1    2    0    0  0.11718227710E-02 -0.21139024789E-01  0.14843744400E-01  0.25856687441E-01  0.00000000000E+00 0. -1.
     999901    1    3    3    0    0  0.13729613772E-01  0.98339034941E-01  0.84708450311E-01  0.88962609541E+00  0.88000000000E+00 0.  1.
        -11    1    4    4    0    0 -0.37483728783E-02 -0.43431727627E-01 -0.68694249024E-01  0.81360470954E-01  0.51100000000E-03 0.  1.
         11    1    4    4    0    0 -0.11153063664E-01 -0.33768282525E-01 -0.30857945686E-01  0.47086746190E-01  0.51100000000E-03 0. -1.
</event>
<event>
 8    1  0.1117714E+005  0.1043930E+01  0.7957747E-01            NaN
         13   -1    0    0    0    0  0.00000000000E+00  0.00000000000E+00  0.74505805969E-08  0.10566000000E+00  0.10566000000E+00 0.  1.
     999900   -1    0    0    0    0 -0.00000000000E+00 -0.00000000000E+00 -0.74505805969E-08  0.93827000000E+00  0.93827000000E+00 0.  1.
     999902    2    1    2    0    0 -0.10315119868E-01  0.19526531144E-01 -0.81981877635E-02  0.10203737397E+01  0.10201017946E+01 0.  0.
     999903    2    3    3    0    0  0.24922956730E-01  0.98479440944E-01  0.80679116250E-01  0.13168118366E+00  0.22615487386E-01 0.  0.
         14    1    1    2    0    0  0.10315119868E-01 -0.19526531144E-01  0.81981877635E-02  0.23556260294E-01  0.00000000000E+00 0. -1.
     999901    1    3    3    0    0 -0.35238076598E-01 -0.78952909799E-01 -0.88877304014E-01  0.88869255605E+00  0.88000000000E+00 0.  1.
        -11    1    4    4    0    0  0.92432888176E-02  0.59900082545E-01  0.35531412458E-01  0.70258100383E-01  0.51100000000E-03 0. -1.
         11    1    4    4    0    0  0.15679667913E-01  0.38579358398E-01  0.45147703792E-01  0.61423083275E-01  0.51100000000E-03 0.  1.
</event>
<event>
 8    1  0.1117714E+005  0.1043930E+01  0.7957747E-01            NaN
         13   -1    0    0    0    0  0.00000000000E+00  0.00000000000E+00  0.74505805969E-08  0.10566000000E+00  0.10566000000E+00 0.  1.
     999900   -1    0    0    0    0 -0.00000000000E+00 -0.00000000000E+00 -0.74505805969E-08  0.93827000000E+00  0.93827000000E+00 0. -1.
     999902    2    1    2    0    0 -0.12793406678E-01 -0.96085998181E-02 -0.17530928360E-01  0.10201954283E+01  0.10199193017E+01 0.  0.
     999903    2    3    3    0    0 -0.29178552959E-01 -0.10353106848E+00 -0.75661588197E-01  0.13313901704E+00  0.20766603861E-01 0.  0.
         14    1    1    2    0    0  0.12793406678E-01  0.96085998181E-02  0.17530928360E-01  0.23734571705E-01  0.00000000000E+00 0.  1.
     999901    1    3    3    0    0  0.16385146281E-01  0.93922468662E-01  0.58130659837E-01  0.88705641126E+00  0.88000000000E+00 0.  1.
        -11    1    4    4    0    0 -0.24889512146E-01 -0.67928548020E-01 -0.40486456941E-01  0.82904702928E-01  0.51100000000E-03 0. -1.
         11    1    4    4    0    0 -0.42890408129E-02 -0.35602520460E-01 -0.35175131256E-01  0.50234314110E-01  0.51100000000E-03 0.  1.
</event>
<event>
 8    1  0.1117714E+005  0.1043930E+01  0.7957747E-01            NaN
         13   -1    0    0    0    0  0.00000000000E+00  0.00000000000E+00  0.74505805969E-08  0.10566000000E+00  0.10566000000E+00 0. -1.
     999900   -1    0    0    0    0 -0.00000000000E+00 -0.00000000000E+00 -0.74505805969E-08  0.93827000000E+00  0.93827000000E+00 0.  1.
     999902    2    1    2    0    0 -0.14549115323E-01 -0.19214166390E-01 -0.93710929079E-02  0.10180711847E+01  0.10177427272E+01 0.  0.
     999903    2    3    3    0    0  0.90947626914E-01 -0.37648452891E-01  0.78102854999E-01  0.12727318453E+00  0.20236864731E-01 0.  0.
         14    1    1    2    0    0  0.14549115323E-01  0.19214166390E-01  0.93710929079E-02  0.25858815306E-01  0.00000000000E+00 0. -1.
     999901    1    3    3    0    0 -0.10549674224E+00  0.18434286501E-01 -0.87473947907E-01  0.89079800017E+00  0.88000000000E+00 0.  1.
        -11    1    4    4    0    0  0.77492262949E-01 -0.34787250043E-01  0.57801039594E-01  0.10274446400E+00  0.51100000000E-03 0.  1.
         11    1    4    4    0    0  0.13455363965E-01 -0.28612028480E-02  0.20301815404E-01  0.24528720531E-01  0.51100000000E-03 0. -1.
</event>
<event>
 8    1  0.1117714E+005  0.1043930E+01  0.7957747E-01            NaN
         13   -1    0    0    0    0  0.00000000000E+00  0.00000000000E+00  0.74505805969E-08  0.10566000000E+00  0.10566000000E+00 0. -1.
     999900   -1    0    0    0    0 -0.00000000000E+00 -0.00000000000E+00 -0.74505805969E-08  0.93827000000E+00  0.93827000000E+00 0. -1.
     999902    2    1    2    0    0 -0.17744469888E-01  0.79434049425E-02  0.13242258566E-01  0.10204072173E+01  0.10201360536E+01 0.  0.
     999903    2    3    3    0    0 -0.98407809937E-01  0.86160296755E-01  0.14559088046E-01  0.13326225134E+00  0.20956306810E-01 0.  0.
         14    1    1    2    0    0  0.17744469888E-01 -0.79434049425E-02 -0.13242258566E-01  0.23522782693E-01  0.00000000000E+00 0. -1.
     999901    1    3    3    0    0  0.80663340049E-01 -0.78216891813E-01 -0.13168294805E-02  0.88714496596E+00  0.88000000000E+00 0.  1.
        -11    1    4    4    0    0 -0.99150289184E-02  0.13356689201E-01 -0.41494862168E-02  0.17151918310E-01  0.51100000000E-03 0. -1.
         11    1    4    4    0    0 -0.88492781019E-01  0.72803607554E-01  0.18708574263E-01  0.11611033303E+00  0.51100000000E-03 0.  1.
</event>
<event>
 8    1  0.1117714E+005  0.1043930E+01  0.7957747E-01            NaN
         13   -1    0    0    0    0  0.00000000000E+00  0.00000000000E+00  0.74505805969E-08  0.10566000000E+00  0.10566000000E+00 0. -1.
     999900   -1    0    0    0    0 -0.00000000000E+00 -0.00000000000E+00 -0.74505805969E-08  0.93827000000E+00  0.93827000000E+00 0. -1.
     999902    2    1    2    0    0 -0.72045666022E-02 -0.21015053100E-01  0.10240935438E-01  0.10194674777E+01  0.10191739416E+01 0.  0.
     999903    2    3    3    0    0  0.11751567714E-01 -0.12975202624E+00 -0.77050964860E-02  0.13239074801E+00  0.22231823831E-01 0.  0.
         14    1    1    2    0    0  0.72045666022E-02  0.21015053100E-01 -0.10240935438E-01  0.24462522261E-01  0.00000000000E+00 0.  1.
     999901    1    3    3    0    0 -0.18956134316E-01  0.10873697314E+00  0.17946031924E-01  0.88707672972E+00  0.88000000000E+00 0.  1.
        -11    1    4    4    0    0  0.22898094373E-02 -0.40080062234E-01  0.77912449863E-02  0.40897667848E-01  0.51100000000E-03 0.  1.
         11    1    4    4    0    0  0.94617582767E-02 -0.89671964006E-01 -0.15496341472E-01  0.91493080167E-01  0.51100000000E-03 0. -1.
</event>
<event>
 8    1  0.1117714E+005  0.1043930E+01  0.7957747E-01            NaN
         13   -1    0    0    0    0  0.00000000000E+00  0.00000000000E+00  0.74505805969E-08  0.10566000000E+00  0.10566000000E+00 0.  1.
     999900   -1    0    0    0    0 -0.00000000000E+00 -0.00000000000E+00 -0.74505805969E-08  0.93827000000E+00  0.93827000000E+00 0.  1.
     999902    2    1    2    0    0 -0.22807320175E-01  0.56876247497E-03  0.57932589810E-02  0.10203915380E+01  0.10201200084E+01 0.  0.
     999903    2    3    3    0    0  0.80746209964E-01 -0.41790944466E-01  0.90121248938E-01  0.12930855180E+00  0.18232624500E-01 0.  0.
         14    1    1    2    0    0  0.22807320175E-01 -0.56876247497E-03 -0.57932589810E-02  0.23538462013E-01  0.00000000000E+00 0. -1.
     999901    1    3    3    0    0 -0.10355353014E+00  0.42359706941E-01 -0.84327989957E-01  0.89108298618E+00  0.88000000000E+00 0.  1.
        -11    1    4    4    0    0  0.26327101979E-01 -0.43961679761E-02  0.26395274785E-01  0.37542166206E-01  0.51100000000E-03 0. -1.
         11    1    4    4    0    0  0.54419107986E-01 -0.37394776490E-01  0.63725974153E-01  0.91766385597E-01  0.51100000000E-03 0.  1.
</event>
<event>
 8    1  0.1117714E+005  0.1043930E+01  0.7957747E-01            NaN
         13   -1    0    0    0    0  0.00000000000E+00  0.00000000000E+00  0.74505805969E-08  0.10566000000E+00  0.10566000000E+00 0.  1.
     999900   -1    0    0    0    0 -0.00000000000E+00 -0.00000000000E+00 -0.74505805969E-08  0.93827000000E+00  0.93827000000E+00 0.  1.
     999902    2    1    2    0    0 -0.74509719186E-02 -0.22642786157E-01  0.32558739081E-02  0.10198714576E+01  0.10195876503E+01 0.  0.
     999903    2    3    3    0    0 -0.81106317092E-01 -0.69530232722E-01  0.75452695771E-01  0.13260829280E+00  0.21889771281E-01 0.  0.
         14    1    1    2    0    0  0.74509719186E-02  0.22642786157E-01 -0.32558739081E-02  0.24058542400E-01  0.00000000000E+00 0. -1.
     999901    1    3    3    0    0  0.73655345173E-01  0.46887446564E-01 -0.72196821863E-01  0.88726316480E+00  0.88000000000E+00 0.  1.
        -11    1    4    4    0    0 -0.32558731968E-01 -0.29301169042E-01  0.44224380370E-01  0.62246979643E-01  0.51100000000E-03 0. -1.
         11    1    4    4    0    0 -0.48547585124E-01 -0.40229063680E-01  0.31228315401E-01  0.70361313161E-01  0.51100000000E-03 0.  1.
</event>
<event>
 8    1  0.1117714E+005  0.1043930E+01  0.7957747E-01            NaN
         13   -1    0    0    0    0  0.00000000000E+00  0.00000000000E+00  0.74505805969E-08  0.10566000000E+00  0.10566000000E+00 0.  1.
     999900   -1    0    0    0    0 -0.00000000000E+00 -0.00000000000E+00 -0.74505805969E-08  0.93827000000E+00  0.93827000000E+00 0. -1.
     999902    2    1    2    0    0  0.10773411313E-01 -0.11933736145E-01  0.16576114522E-01  0.10208378363E+01  0.10205766214E+01 0.  0.
     999903    2    3    3    0    0 -0.44424786178E-04  0.80937028352E-01 -0.97987092681E-01  0.12850004553E+00  0.18973319058E-01 0.  0.
         14    1    1    2    0    0 -0.10773411313E-01  0.11933736145E-01 -0.16576114522E-01  0.23092163657E-01  0.00000000000E+00 0. -1.
     999901    1    3    3    0    0  0.10817836100E-01 -0.92870764497E-01  0.11456320720E+00  0.89233779082E+00  0.88000000000E+00 0.  1.
        -11    1    4    4    0    0 -0.94663651752E-02  0.37810688716E-01 -0.45351720496E-01  0.59802173236E-01  0.51100000000E-03 0. -1.
         11    1    4    4    0    0  0.94219403890E-02  0.43126339636E-01 -0.52635372185E-01  0.68697872290E-01  0.51100000000E-03 0.  1.
</event>
<event>
 8    1  0.1117714E+005  0.1043930E+01  0.7957747E-01            NaN
         13   -1    0    0    0    0  0.00000000000E+00  0.00000000000E+00  0.74505805969E-08  0.10566000000E+00  0.10566000000E+00 0.  1.
     999900   -1    0    0    0    0 -0.00000000000E+00 -0.00000000000E+00 -0.74505805969E-08  0.93827000000E+00  0.93827000000E+00 0.  1.
     999902    2    1    2    0    0  0.66822149040E-02  0.22696461871E-01  0.28636666156E-02  0.10200976278E+01  0.10198191939E+01 0.  0.
     999903    2    3    3    0    0 -0.98547786892E-01 -0.15005331876E-01  0.82138448282E-01  0.12949150301E+00  0.91923000414E-02 0.  0.
         14    1    1    2    0    0 -0.66822149040E-02 -0.22696461871E-01 -0.28636666156E-02  0.23832372185E-01  0.00000000000E+00 0.  1.
     999901    1    3    3    0    0  0.10523000180E+00  0.37701793747E-01 -0.79274781666E-01  0.89060612480E+00  0.88000000000E+00 0.  1.
        -11    1    4    4    0    0 -0.38588095488E-01 -0.15715046864E-02  0.30046263964E-01  0.48934137773E-01  0.51100000000E-03 0.  1.
         11    1    4    4    0    0 -0.59959691404E-01 -0.13433827190E-01  0.52092184318E-01  0.80557365239E-01  0.51100000000E-03 0. -1.
</event>
<event>
 8    1  0.1117714E+005  0.1043930E+01  0.7957747E-01            NaN
         13   -1    0    0    0    0  0.00000000000E+00  0.00000000000E+00  0.74505805969E-08  0.10566000000E+00  0.10566000000E+00 0. -1.
     999900   -1    0    0    0    0 -0.00000000000E+00 -0.00000000000E+00 -0.74505805969E-08  0.93827000000E+00  0.93827000000E+00 0. -1.
     999902    2    1    2    0    0  0.53833472295E-03 -0.21993483196E-01 -0.95233138335E-02  0.10199571693E+01  0.10196754045E+01 0.  0.
     999903    2    3    3    0    0 -0.11220824189E-01 -0.11557066005E+00 -0.62347469366E-01  0.13334262096E+00  0.20262360855E-01 0.  0.
         14    1    1    2    0    0 -0.53833472295E-03  0.21993483196E-01  0.95233138335E-02  0.23972830741E-01  0.00000000000E+00 0. -1.
     999901    1    3    3    0    0  0.11759158912E-01  0.93577176859E-01  0.52824155532E-01  0.88661454830E+00  0.88000000000E+00 0.  1.
        -11    1    4    4    0    0 -0.17169551165E-02 -0.26986139430E-01 -0.53306001570E-02  0.27565849801E-01  0.51100000000E-03 0. -1.
         11    1    4    4    0    0 -0.95038690723E-02 -0.88584520625E-01 -0.57016869209E-01  0.10577677116E+00  0.51100000000E-03 0.  1.
</event>
<event>
 8    1  0.1117714E+005  0.1043930E+01  0.7957747E-01            NaN
         13   -1    0    0    0    0  0.00000000000E+00  0.00000000000E+00  0.74505805969E-08  0.10566000000E+00  0.10566000000E+00 0. -1.
     999900   -1    0    0    0    0 -0.00000000000E+00 -0.00000000000E+00 -0.74505805969E-08  0.93827000000E+00  0.93827000000E+00 0. -1.
     999902    2    1    2    0    0  0.11062749984E-01 -0.15987275566E-01  0.13328104792E-01  0.10203584961E+01  0.10200861948E+01 0.  0.
     999903    2    3    3    0    0 -0.73346753840E-01 -0.83005563771E-01 -0.65590990569E-01  0.13027724203E+00  0.20007794275E-01 0.  0.
         14    1    1    2    0    0 -0.11062749984E-01  0.15987275566E-01 -0.13328104792E-01  0.23571503868E-01  0.00000000000E+00 0.  1.
     999901    1    3    3    0    0  0.84409503824E-01  0.67018288204E-01  0.78919095361E-01  0.89008125410E+00  0.88000000000E+00 0.  1.
        -11    1    4    4    0    0 -0.27638868365E-01 -0.17693928152E-01 -0.20274185132E-01  0.38578307917E-01  0.51100000000E-03 0. -1.
         11    1    4    4    0    0 -0.45707885475E-01 -0.65311635619E-01 -0.45316805437E-01  0.91698934115E-01  0.51100000000E-03 0.  1.
</event>
<event>
 8    1  0.1117714E+005  0.1043930E+01  0.7957747E-01            NaN
         13   -1    0    0    0    0  0.00000000000E+00  0.00000000000E+00  0.74505805969E-08  0.10566000000E+00  0.10566000000E+00 0.  1.
     999900   -1    0    0    0    0 -0.00000000000E+00 -0.00000000000E+00 -0.74505805969E-08  0.93827000000E+00  0.93827000000E+00 0. -1.
     999902    2    1    2    0    0  0.20922659398E-01 -0.35239400574E-02  0.10966544867E-01  0.10200460946E+01  0.10197664410E+01 0.  0.
     999903    2    3    3    0    0  0.10537942934E+00  0.58479712947E-01  0.52473263732E-01  0.13285941377E+00  0.19325616811E-01 0.  0.
         14    1    1    2    0    0 -0.20922659398E-01  0.35239400574E-02 -0.10966544867E-01  0.23883905379E-01  0.00000000000E+00 0. -1.
     999901    1    3    3    0    0 -0.84456769943E-01 -0.62003653005E-01 -0.41506718865E-01  0.88718668085E+00  0.88000000000E+00 0.  1.
        -11    1    4    4    0    0  0.43868301095E-01  0.31821975043E-01  0.15850485371E-01  0.56467379469E-01  0.51100000000E-03 0.  1.
         11    1    4    4    0    0  0.61511128246E-01  0.26657737904E-01  0.36622778361E-01  0.76392034298E-01  0.51100000000E-03 0. -1.
</event>
<event>
 8    1  0.1117714E+005  0.1043930E+01  0.7957747E-01            NaN
         13   -1    0    0    0    0  0.00000000000E+00  0.00000000000E+00  0.74505805969E-08  0.10566000000E+00  0.10566000000E+00 0. -1.
     999900   -1    0    0    0    0 -0.00000000000E+00 -0.00000000000E+00 -0.74505805969E-08  0.93827000000E+00  0.93827000000E+00 0. -1.
     999902    2    1    2    0    0  0.73561363105E-02  0.17854251342E-01  0.12306275560E-01  0.10210317151E+01  0.10207749173E+01 0.  0.
     999903    2    3    3    0    0 -0.97873695345E-01 -0.74975262662E-01 -0.31432164300E-01  0.12884132778E+00  0.20286856313E-01 0.  0.
         14    1    1    2    0    0 -0.73561363105E-02 -0.17854251342E-01 -0.12306275560E-01  0.22898284883E-01  0.00000000000E+00 0.  1.
     999901    1    3    3    0    0  0.10522983166E+00  0.92829514004E-01  0.43738439860E-01  0.89219038734E+00  0.88000000000E+00 0.  1.
        -11    1    4    4    0    0 -0.75871613759E-01 -0.61331702160E-01 -0.16491101130E-01  0.98945929688E-01  0.51100000000E-03 0. -1.
         11    1    4    4    0    0 -0.22002081586E-01 -0.13643560502E-01 -0.14941063170E-01  0.29895398090E-01  0.51100000000E-03 0.  1.
</event>
<event>
 8    1  0.1117714E+005  0.1043930E+01  0.7957747E-01            NaN
         13   -1    0    0    0    0  0.00000000000E+00  0.00000000000E+00  0.74505805969E-08  0.10566000000E+00  0.10566000000E+00 0.  1.
     999900   -1    0    0    0    0 -0.00000000000E+00 -0.00000000000E+00 -0.74505805969E-08  0.93827000000E+00  0.93827000000E+00 0.  1.
     999902    2    1    2    0    0  0.12229547249E-01  0.19943461048E-01 -0.33797238987E-02  0.10202926144E+01  0.10200187709E+01 0.  0.
     999903    2    3    3    0    0  0.11943961580E+00  0.54142752492E-01  0.10418810245E-01  0.13301926876E+00  0.19705704376E-01 0.  0.
         14    1    1    2    0    0 -0.12229547249E-01 -0.19943461048E-01  0.33797238987E-02  0.23637385602E-01  0.00000000000E+00 0.  1.
     999901    1    3    3    0    0 -0.10721006855E+00 -0.34199291444E-01 -0.13798534143E-01  0.88727334564E+00  0.88000000000E+00 0. -1.
        -11    1    4    4    0    0  0.89486357940E-01  0.35585131502E-01  0.15064126179E-01  0.97474606232E-01  0.51100000000E-03 0. -1.
         11    1    4    4    0    0  0.29953257859E-01  0.18557620990E-01 -0.46453159343E-02  0.35544662529E-01  0.51100000000E-03 0.  1.
</event>
<event>
 8    1  0.1117714E+005  0.1043930E+01  0.7957747E-01            NaN
         13   -1    0    0    0    0  0.00000000000E+00  0.00000000000E+00  0.74505805969E-08  0.10566000000E+00  0.10566000000E+00 0. -1.
     999900   -1    0    0    0    0 -0.00000000000E+00 -0.00000000000E+00 -0.74505805969E-08  0.93827000000E+00  0.93827000000E+00 0. -1.
     999902    2    1    2    0    0 -0.24906962392E-02  0.35728497468E-02 -0.22583643343E-01  0.10209302224E+01  0.10206711171E+01 0.  0.
     999903    2    3    3    0    0  0.59040023046E-01 -0.29568219136E-01 -0.11419011938E+00  0.13341903581E+00  0.20031271787E-01 0.  0.
         14    1    1    2    0    0  0.24906962392E-02 -0.35728497468E-02  0.22583643343E-01  0.22999777601E-01  0.00000000000E+00 0. -1.
     999901    1    3    3    0    0 -0.61530719285E-01  0.33141068883E-01  0.91606476036E-01  0.88751118659E+00  0.88000000000E+00 0.  1.
        -11    1    4    4    0    0  0.41443951061E-01 -0.10032630139E-01 -0.73333754682E-01  0.84831335271E-01  0.51100000000E-03 0.  1.
         11    1    4    4    0    0  0.17596071985E-01 -0.19535588997E-01 -0.40856364697E-01  0.48587700542E-01  0.51100000000E-03 0. -1.
</event>
<event>
 8    1  0.1117714E+005  0.1043930E+01  0.7957747E-01            NaN
         13   -1    0    0    0    0  0.00000000000E+00  0.00000000000E+00  0.74505805969E-08  0.10566000000E+00  0.10566000000E+00 0.  1.
     999900   -1    0    0    0    0 -0.00000000000E+00 -0.00000000000E+00 -0.74505805969E-08  0.93827000000E+00  0.93827000000E+00 0.  1.
     999902    2    1    2    0    0 -0.14622580402E-01 -0.49694961015E-02  0.12813658220E-01  0.10238624743E+01  0.10236657955E+01 0.  0.
     999903    2    3    3    0    0  0.43556558449E-01 -0.10879101411E+00 -0.59366363724E-01  0.13292270344E+00  0.20283525669E-01 0.  0.
         14    1    1    2    0    0  0.14622580402E-01  0.49694961015E-02 -0.12813658220E-01  0.20067525659E-01  0.00000000000E+00 0. -1.
     999901    1    3    3    0    0 -0.58179138851E-01  0.10382151801E+00  0.72180021944E-01  0.89093977090E+00  0.88000000000E+00 0. -1.
        -11    1    4    4    0    0  0.13072207303E-01 -0.48463571276E-01 -0.16314953976E-01  0.52782944109E-01  0.51100000000E-03 0.  1.
         11    1    4    4    0    0  0.30484351146E-01 -0.60327442835E-01 -0.43051409747E-01  0.80139759334E-01  0.51100000000E-03 0. -1.
</event>
<event>
 8    1  0.1117714E+005  0.1043930E+01  0.7957747E-01            NaN
         13   -1    0    0    0    0  0.00000000000E+00  0.00000000000E+00  0.74505805969E-08  0.10566000000E+00  0.10566000000E+00 0. -1.
     999900   -1    0    0    0    0 -0.00000000000E+00 -0.00000000000E+00 -0.74505805969E-08  0.93827000000E+00  0.93827000000E+00 0. -1.
     999902    2    1    2    0    0 -0.15620567062E-01  0.11441318595E-01  0.12932090879E-01  0.10206459956E+01  0.10203803720E+01 0.  0.
     999903    2    3    3    0    0 -0.10881164857E-02 -0.68897724878E-01  0.11028565730E+00  0.13152099262E+00  0.19666336797E-01 0.  0.
         14    1    1    2    0    0  0.15620567062E-01 -0.11441318595E-01 -0.12932090879E-01  0.23284004403E-01  0.00000000000E+00 0.  1.
     999901    1    3    3    0    0 -0.14532450576E-01  0.80339043473E-01 -0.97353566419E-01  0.88912500298E+00  0.88000000000E+00 0. -1.
        -11    1    4    4    0    0  0.83043925344E-03 -0.68266069522E-01  0.10037276572E+00  0.12139151163E+00  0.51100000000E-03 0.  1.
         11    1    4    4    0    0 -0.19185557391E-02 -0.63165535681E-03  0.99128915778E-02  0.10129480986E-01  0.51100000000E-03 0. -1.
</event>
<event>
 8    1  0.1117714E+005  0.1043930E+01  0.7957747E-01            NaN
         13   -1    0    0    0    0  0.00000000000E+00  0.00000000000E+00  0.74505805969E-08  0.10566000000E+00  0.10566000000E+00 0. -1.
     999900   -1    0    0    0    0 -0.00000000000E+00 -0.00000000000E+00 -0.74505805969E-08  0.93827000000E+00  0.93827000000E+00 0. -1.
     999902    2    1    2    0    0 -0.11907126232E-02  0.17411679934E-01  0.16230722009E-01  0.10200968145E+01  0.10198183614E+01 0.  0.
     999903    2    3    3    0    0  0.11338715715E+00 -0.58160512308E-01  0.85646087971E-02  0.12942402734E+00  0.20926866191E-01 0.  0.
         14    1    1    2    0    0  0.11907126232E-02 -0.17411679934E-01 -0.16230722009E-01  0.23833185511E-01  0.00000000000E+00 0.  1.
     999901    1    3    3    0    0 -0.11457786978E+00  0.75572192242E-01  0.76661132117E-02  0.89067278715E+00  0.88000000000E+00 0.  1.
        -11    1    4    4    0    0  0.86341229105E-01 -0.51813350885E-01  0.12076173617E-01  0.10141758360E+00  0.51100000000E-03 0.  1.
         11    1    4    4    0    0  0.27045928049E-01 -0.63471614228E-02 -0.35115648204E-02  0.28006443735E-01  0.51100000000E-03 0. -1.
</event>
<event>
 8    1  0.1117714E+005  0.1043930E+01  0.7957747E-01            NaN
         13   -1    0    0    0    0  0.00000000000E+00  0.00000000000E+00  0.74505805969E-08  0.10566000000E+00  0.10566000000E+00 0.  1.
     999900   -1    0    0    0    0 -0.00000000000E+00 -0.00000000000E+00 -0.74505805969E-08  0.93827000000E+00  0.93827000000E+00 0. -1.
     999902    2    1    2    0    0 -0.20863682901E-02 -0.14065718126E-02  0.23241748456E-01  0.10205524414E+01  0.10202846541E+01 0.  0.
     999903    2    3    3    0    0  0.61954412043E-01 -0.93174870892E-01 -0.61672751317E-01  0.12941097417E+00  0.20585583397E-01 0.  0.
         14    1    1    2    0    0  0.20863682901E-02  0.14065718126E-02 -0.23241748456E-01  0.23377558645E-01  0.00000000000E+00 0. -1.
     999901    1    3    3    0    0 -0.64040780333E-01  0.91768299079E-01  0.84914499773E-01  0.89114146718E+00  0.88000000000E+00 0. -1.
        -11    1    4    4    0    0  0.21050160692E-01 -0.18602042270E-01 -0.21311454412E-01  0.35264492793E-01  0.51100000000E-03 0.  1.
         11    1    4    4    0    0  0.40904251351E-01 -0.74572828621E-01 -0.40361296905E-01  0.94146481379E-01  0.51100000000E-03 0. -1.
</event>
<event>
 7    1  0.1117714E+005  0.1043930E+01  0.7957747E-01            NaN
         13   -1    0    0    0    0  0.00000000000E+00  0.00000000000E+00  0.74505805969E-08  0.10566000000E+00  0.10566000000E+00 0.  1.
     999900   -1    0    0    0    0 -0.00000000000E+00 -0.00000000000E+00 -0.74505805969E-08  0.93827000000E+00  0.93827000000E+00 0. -1.
     999903    2    1    2    0    0 -0.37681564892E-01  0.55276240695E-01  0.64624912932E-01  0.95016744680E-01  0.19402043193E-01 0.  0.
         14    1    1    2    0    0  0.18395187771E-01  0.54850636941E-01  0.99809342230E-02  0.58707702680E-01  0.00000000000E+00 0.  1.
     999901    1    1    2    0    0  0.19286377121E-01 -0.11012687764E+00 -0.74605847155E-01  0.89020555264E+00  0.88000000000E+00 0.  1.
        -11    1    3    3    0    0 -0.28559294269E-01  0.27396929088E-01  0.43834066806E-01  0.59058543382E-01  0.51100000000E-03 0.  1.
         11    1    3    3    0    0 -0.91222706228E-02  0.27879311607E-01  0.20790846126E-01  0.35958201299E-01  0.51100000000E-03 0. -1.
</event>
<event>
 8    1  0.1117714E+005  0.1043930E+01  0.7957747E-01            NaN
         13   -1    0    0    0    0  0.00000000000E+00  0.00000000000E+00  0.74505805969E-08  0.10566000000E+00  0.10566000000E+00 0.  1.
     999900   -1    0    0    0    0 -0.00000000000E+00 -0.00000000000E+00 -0.74505805969E-08  0.93827000000E+00  0.93827000000E+00 0. -1.
     999902    2    1    2    0    0 -0.21056319112E-01 -0.99540607588E-02  0.41483315503E-02  0.10202728540E+01  0.10199985471E+01 0.  0.
     999903    2    3    3    0    0  0.10978656785E+00  0.58494319227E-01  0.21149592956E-01  0.12780768123E+00  0.20318027429E-01 0.  0.
         14    1    1    2    0    0  0.21056319112E-01  0.99540607588E-02 -0.41483315503E-02  0.23657145956E-01  0.00000000000E+00 0.  1.
     999901    1    3    3    0    0 -0.13084288696E+00 -0.68448379986E-01 -0.17001261406E-01  0.89246517281E+00  0.88000000000E+00 0. -1.
        -11    1    4    4    0    0  0.71482998090E-01  0.43775584167E-01  0.59085920038E-02  0.84031502221E-01  0.51100000000E-03 0. -1.
         11    1    4    4    0    0  0.38303569757E-01  0.14718735061E-01  0.15241000952E-01  0.43776179012E-01  0.51100000000E-03 0.  1.
</event>
<event>
 8    1  0.1117714E+005  0.1043930E+01  0.7957747E-01            NaN
         13   -1    0    0    0    0  0.00000000000E+00  0.00000000000E+00  0.74505805969E-08  0.10566000000E+00  0.10566000000E+00 0. -1.
     999900   -1    0    0    0    0 -0.00000000000E+00 -0.00000000000E+00 -0.74505805969E-08  0.93827000000E+00  0.93827000000E+00 0. -1.
     999902    2    1    2    0    0 -0.22153472092E-01  0.14357221475E-02 -0.84438151707E-02  0.10201784603E+01  0.10199019341E+01 0.  0.
     999903    2    3    3    0    0  0.66340754860E-02 -0.10036942996E+00  0.78998544003E-01  0.12953870255E+00  0.20529785083E-01 0.  0.
         14    1    1    2    0    0  0.22153472092E-01 -0.14357221475E-02  0.84438151707E-02  0.23751539707E-01  0.00000000000E+00 0. -1.
     999901    1    3    3    0    0 -0.28787547578E-01  0.10180515211E+00 -0.87442359174E-01  0.89063975774E+00  0.88000000000E+00 0. -1.
        -11    1    4    4    0    0 -0.56111135566E-02 -0.60950063915E-01  0.43483132985E-01  0.75082879952E-01  0.51100000000E-03 0. -1.
         11    1    4    4    0    0  0.12245189043E-01 -0.39419366048E-01  0.35515411018E-01  0.54455822600E-01  0.51100000000E-03 0.  1.
</event>
<event>
 8    1  0.1117714E+005  0.1043930E+01  0.7957747E-01            NaN
         13   -1    0    0    0    0  0.00000000000E+00  0.00000000000E+00  0.74505805969E-08  0.10566000000E+00  0.10566000000E+00 0. -1.
     999900   -1    0    0    0    0 -0.00000000000E+00 -0.00000000000E+00 -0.74505805969E-08  0.93827000000E+00  0.93827000000E+00 0.  1.
     999902    2    1    2    0    0 -0.24854011001E-02  0.16577955544E-01  0.18189168300E-01  0.10191943643E+01  0.10188941557E+01 0.  0.
     999903    2    3    3    0    0 -0.10365066588E+00  0.12624934684E-01  0.77403395335E-01  0.13141265588E+00  0.19368815239E-01 0.  0.
         14    1    1    2    0    0  0.24854011001E-02 -0.16577955544E-01 -0.18189168300E-01  0.24735635672E-01  0.00000000000E+00 0.  1.
     999901    1    3    3    0    0  0.10116526478E+00  0.39530208601E-02 -0.59214227034E-01  0.88778170845E+00  0.88000000000E+00 0.  1.
        -11    1    4    4    0    0 -0.15103042744E-01 -0.49833431482E-02  0.11947236909E-01  0.19898070254E-01  0.51100000000E-03 0. -1.
         11    1    4    4    0    0 -0.88547623132E-01  0.17608277832E-01  0.65456158426E-01  0.11151458563E+00  0.51100000000E-03 0.  1.
</event>
<event>
 8    1  0.1117714E+005  0.1043930E+01  0.7957747E-01            NaN
         13   -1    0    0    0    0  0.00000000000E+00  0.00000000000E+00  0.74505805969E-08  0.10566000000E+00  0.10566000000E+00 0.  1.
     999900   -1    0    0    0    0 -0.00000000000E+00 -0.00000000000E+00 -0.74505805969E-08  0.93827000000E+00  0.93827000000E+00 0.  1.
     999902    2    1    2    0    0 -0.54306762092E-02  0.40476625636E-02  0.25084538403E-01  0.10179471233E+01  0.10176154656E+01 0.  0.
     999903    2    3    3    0    0 -0.92806694630E-01 -0.43819230546E-01 -0.72218477447E-01  0.12699612296E+00  0.19475606005E-01 0.  0.
         14    1    1    2    0    0  0.54306762092E-02 -0.40476625636E-02 -0.25084538403E-01  0.25982876731E-01  0.00000000000E+00 0. -1.
     999901    1    3    3    0    0  0.87376018421E-01  0.47866893109E-01  0.97303015851E-01  0.89095100031E+00  0.88000000000E+00 0. -1.
        -11    1    4    4    0    0 -0.49289281944E-02 -0.50014485501E-02 -0.40670664756E-03  0.70523295472E-02  0.51100000000E-03 0. -1.
         11    1    4    4    0    0 -0.87877766436E-01 -0.38817781996E-01 -0.71811770800E-01  0.11994379342E+00  0.51100000000E-03 0.  1.
</event>
<event>
 8    1  0.1117714E+005  0.1043930E+01  0.7957747E-01            NaN
         13   -1    0    0    0    0  0.00000000000E+00  0.00000000000E+00  0.74505805969E-08  0.10566000000E+00  0.10566000000E+00 0.  1.
     999900   -1    0    0    0    0 -0.00000000000E+00 -0.00000000000E+00 -0.74505805969E-08  0.93827000000E+00  0.93827000000E+00 0.  1.
     999902    2    1    2    0    0  0.21557772798E-01 -0.78367859418E-03 -0.11235317394E-01  0.10196074985E+01  0.10193173534E+01 0.  0.
     999903    2    3    3    0    0  0.62716194812E-01 -0.54337702315E-01  0.98568946493E-01  0.13021499491E+00  0.18820220535E-01 0.  0.
         14    1    1    2    0    0 -0.21557772798E-01  0.78367859418E-03  0.11235317394E-01  0.24322501457E-01  0.00000000000E+00 0.  1.
     999901    1    3    3    0    0 -0.41158422013E-01  0.53554023721E-01 -0.10980426389E+00  0.88939250364E+00  0.88000000000E+00 0.  1.
        -11    1    4    4    0    0  0.43347233844E-01 -0.47309959686E-01  0.79194120297E-01  0.10192735049E+00  0.51100000000E-03 0.  1.
         11    1    4    4    0    0  0.19368960968E-01 -0.70277426295E-02  0.19374826196E-01  0.28287644415E-01  0.51100000000E-03 0. -1.
</event>
<event>
 8    1  0.1117714E+005  0.1043930E+01  0.7957747E-01            NaN
         13   -1    0    0    0    0  0.00000000000E+00  0.00000000000E+00  0.74505805969E-08  0.10566000000E+00  0.10566000000E+00 0.  1.
     999900   -1    0    0    0    0 -0.00000000000E+00 -0.00000000000E+00 -0.74505805969E-08  0.93827000000E+00  0.93827000000E+00 0. -1.
     999902    2    1    2    0    0  0.12836404248E-01 -0.76102425933E-02  0.18490723476E-01  0.10201687727E+01  0.10198920183E+01 0.  0.
     999903    2    3    3    0    0 -0.66606215768E-01  0.62935414078E-01  0.90811234322E-01  0.13083302296E+00  0.21756500014E-01 0.  0.
         14    1    1    2    0    0 -0.12836404248E-01  0.76102425933E-02 -0.18490723476E-01  0.23761227262E-01  0.00000000000E+00 0. -1.
     999901    1    3    3    0    0  0.79442620015E-01 -0.70545656672E-01 -0.72320510846E-01  0.88933574978E+00  0.88000000000E+00 0. -1.
        -11    1    4    4    0    0 -0.32743317977E-01  0.44003165578E-01  0.46250833047E-01  0.71748199500E-01  0.51100000000E-03 0.  1.
         11    1    4    4    0    0 -0.33862897791E-01  0.18932248500E-01  0.44560401275E-01  0.59084823456E-01  0.51100000000E-03 0. -1.
</event>
<event>
 8    1  0.1117714E+005  0.1043930E+01  0.7957747E-01            NaN
         13   -1    0    0    0    0  0.00000000000E+00  0.00000000000E+00  0.74505805969E-08  0.10566000000E+00  0.10566000000E+00 0. -1.
     999900   -1    0    0    0    0 -0.00000000000E+00 -0.00000000000E+00 -0.74505805969E-08  0.93827000000E+00  0.93827000000E+00 0.  1.
     999902    2    1    2    0    0  0.99592213133E-02 -0.21599600793E-01 -0.24574121844E-02  0.10200183351E+01  0.10197380233E+01 0.  0.
     999903    2    3    3    0    0  0.71852228511E-02  0.12387606041E+00 -0.23010581835E-01  0.12783377132E+00  0.20373523114E-01 0.  0.
         14    1    1    2    0    0 -0.99592213133E-02  0.21599600793E-01  0.24574121844E-02  0.23911664899E-01  0.00000000000E+00 0. -1.
     999901    1    3    3    0    0  0.27739984622E-02 -0.14547566120E+00  0.20553169650E-01  0.89218456378E+00  0.88000000000E+00 0. -1.
        -11    1    4    4    0    0 -0.57584917185E-02  0.46951842363E-01 -0.35723649806E-02  0.47441107077E-01  0.51100000000E-03 0.  1.
         11    1    4    4    0    0  0.12943714570E-01  0.76924218043E-01 -0.19438216854E-01  0.80392664242E-01  0.51100000000E-03 0. -1.
</event>
<event>
 8    1  0.1117714E+005  0.1043930E+01  0.7957747E-01            NaN
         13   -1    0    0    0    0  0.00000000000E+00  0.00000000000E+00  0.74505805969E-08  0.10566000000E+00  0.10566000000E+00 0. -1.
     999900   -1    0    0    0    0 -0.00000000000E+00 -0.00000000000E+00 -0.74505805969E-08  0.93827000000E+00  0.93827000000E+00 0.  1.
     999902    2    1    2    0    0  0.10762052576E-01  0.12742923414E-01  0.18722277660E-01  0.10188555598E+01  0.10185469671E+01 0.  0.
     999903    2    3    3    0    0  0.10879132870E+00 -0.60496065512E-02  0.71366997758E-01  0.13164962835E+00  0.19137014844E-01 0.  0.
         14    1    1    2    0    0 -0.10762052576E-01 -0.12742923414E-01 -0.18722277660E-01  0.25074440244E-01  0.00000000000E+00 0.  1.
     999901    1    3    3    0    0 -0.98029276123E-01  0.18792529965E-01 -0.52644720098E-01  0.88720593140E+00  0.88000000000E+00 0.  1.
        -11    1    4    4    0    0  0.33751474456E-01 -0.53676279062E-02  0.12958138840E-01  0.36553357445E-01  0.51100000000E-03 0.  1.
         11    1    4    4    0    0  0.75039854244E-01 -0.68197864504E-03  0.58408858917E-01  0.95096270909E-01  0.51100000000E-03 0. -1.
</event>
<event>
 8    1  0.1117714E+005  0.1043930E+01  0.7957747E-01            NaN
         13   -1    0    0    0    0  0.00000000000E+00  0.00000000000E+00  0.74505805969E-08  0.10566000000E+00  0.10566000000E+00 0.  1.
     999900   -1    0    0    0    0 -0.00000000000E+00 -0.00000000000E+00 -0.74505805969E-08  0.93827000000E+00  0.93827000000E+00 0. -1.
     999902    2    1    2    0    0 -0.46235320957E-02 -0.12708144708E-01  0.19766900018E-01  0.10199799619E+01  0.10196987390E+01 0.  0.
     999903    2    3    3    0    0  0.48724994427E-01  0.10191533286E+00 -0.56418081827E-01  0.12768586328E+00  0.18968910615E-01 0.  0.
         14    1    1    2    0    0  0.46235320957E-02  0.12708144708E-01 -0.19766900018E-01  0.23950038148E-01  0.00000000000E+00 0. -1.
     999901    1    3    3    0    0 -0.53348526522E-01 -0.11462347757E+00  0.76184981845E-01  0.89229409857E+00  0.88000000000E+00 0.  1.
        -11    1    4    4    0    0  0.16709241286E-01  0.56347669714E-01 -0.26618401467E-01  0.64521771862E-01  0.51100000000E-03 0.  1.
         11    1    4    4    0    0  0.32015753141E-01  0.45567663147E-01 -0.29799680360E-01  0.63164091416E-01  0.51100000000E-03 0. -1.
</event>
<event>
 8    1  0.1117714E+005  0.1043930E+01  0.7957747E-01            NaN
         13   -1    0    0    0    0  0.00000000000E+00  0.00000000000E+00  0.74505805969E-08  0.10566000000E+00  0.10566000000E+00 0. -1.
     999900   -1    0    0    0    0 -0.00000000000E+00 -0.00000000000E+00 -0.74505805969E-08  0.93827000000E+00  0.93827000000E+00 0.  1.
     999902    2    1    2    0    0  0.42811675912E-02  0.27325960932E-02 -0.24765295888E-01  0.10186492690E+01  0.10183355135E+01 0.  0.
     999903    2    3    3    0    0  0.11126985019E+00  0.41705967379E-01  0.44718648859E-01  0.12859673101E+00  0.20420440626E-01 0.  0.
         14    1    1    2    0    0 -0.42811675912E-02 -0.27325960932E-02  0.24765295888E-01  0.25280730958E-01  0.00000000000E+00 0. -1.
     999901    1    3    3    0    0 -0.10698868260E+00 -0.38973371286E-01 -0.69483944746E-01  0.89005253803E+00  0.88000000000E+00 0.  1.
        -11    1    4    4    0    0  0.58897900704E-01  0.32547196003E-01  0.27669973135E-01  0.72761055582E-01  0.51100000000E-03 0.  1.
         11    1    4    4    0    0  0.52371949485E-01  0.91587713757E-02  0.17048675724E-01  0.55835675432E-01  0.51100000000E-03 0. -1.
</event>
<event>
 7    1  0.1117714E+005  0.1043930E+01  0.7957747E-01            NaN
         13   -1    0    0    0    0  0.00000000000E+00  0.00000000000E+00  0.74505805969E-08  0.10566000000E+00  0.10566000000E+00 0. -1.
     999900   -1    0    0    0    0 -0.00000000000E+00 -0.00000000000E+00 -0.74505805969E-08  0.93827000000E+00  0.93827000000E+00 0.  1.
     999902    2    1    2    0    0 -0.88614469796E-02  0.20883785897E-01 -0.59824298851E-02  0.10204683883E+01  0.10201986494E+01 0.  0.
         14    1    1    2    0    0  0.88614469796E-02 -0.20883785897E-01  0.59824298851E-02  0.23461611694E-01  0.00000000000E+00 0. -1.
     999901    1    3    3    0    0 -0.37065258288E-01  0.42761718876E-01  0.10634916874E+00  0.88820748908E+00  0.88000000000E+00 0. -1.
        -11    1    3    3    0    0  0.43994031171E-01 -0.25555096486E-02 -0.80896101678E-01  0.92121907253E-01  0.51100000000E-03 0.  1.
         11    1    3    3    0    0 -0.15790219862E-01 -0.19322423330E-01 -0.31435496952E-01  0.40138991969E-01  0.51100000000E-03 0. -1.
</event>
<event>
 8    1  0.1117714E+005  0.1043930E+01  0.7957747E-01            NaN
         13   -1    0    0    0    0  0.00000000000E+00  0.00000000000E+00  0.74505805969E-08  0.10566000000E+00  0.10566000000E+00 0. -1.
     999900   -1    0    0    0    0 -0.00000000000E+00 -0.00000000000E+00 -0.74505805969E-08  0.93827000000E+00  0.93827000000E+00 0.  1.
     999902    2    1    2    0    0  0.17360897373E-01  0.13642128784E-01 -0.95743771383E-02  0.10198639008E+01  0.10195799130E+01 0.  0.
     999903    2    3    3    0    0  0.10809961273E+00 -0.70907834758E-01 -0.10340562852E-01  0.13116665318E+00  0.19603988473E-01 0.  0.
         14    1    1    2    0    0 -0.17360897373E-01 -0.13642128784E-01  0.95743771383E-02  0.24066099247E-01  0.00000000000E+00 0. -1.
     999901    1    3    3    0    0 -0.90738715359E-01  0.84549963542E-01  0.76618571350E-03  0.88869724757E+00  0.88000000000E+00 0. -1.
        -11    1    4    4    0    0  0.80804789492E-01 -0.56614309519E-01 -0.15645729320E-01  0.99898168222E-01  0.51100000000E-03 0. -1.
         11    1    4    4    0    0  0.27294823240E-01 -0.14293525239E-01  0.53051664677E-02  0.31268484960E-01  0.51100000000E-03 0.  1.
</event>
<event>
 8    1  0.1117714E+005  0.1043930E+01  0.7957747E-01            NaN
         13   -1    0    0    0    0  0.00000000000E+00  0.00000000000E+00  0.74505805969E-08  0.10566000000E+00  0.10566000000E+00 0. -1.
     999900   -1    0    0    0    0 -0.00000000000E+00 -0.00000000000E+00 -0.74505805969E-08  0.93827000000E+00  0.93827000000E+00 0.  1.
     999902    2    1    2    0    0  0.21432728170E-01  0.63714739011E-02 -0.53682097278E-02  0.10209348876E+01  0.10206758886E+01 0.  0.
     999903    2    3    3    0    0  0.11076211898E+00  0.38473718849E-01 -0.61843115467E-01  0.13403032166E+00  0.19775797051E-01 0.  0.
         14    1    1    2    0    0 -0.21432728170E-01 -0.63714739011E-02  0.53682097278E-02  0.22995112354E-01  0.00000000000E+00 0. -1.
     999901    1    3    3    0    0 -0.89329390814E-01 -0.32102244948E-01  0.56474905739E-01  0.88690456599E+00  0.88000000000E+00 0.  1.
        -11    1    4    4    0    0  0.37228388044E-01  0.22372549604E-01 -0.18953459724E-01  0.47391756758E-01  0.51100000000E-03 0.  1.
         11    1    4    4    0    0  0.73533730940E-01  0.16101169246E-01 -0.42889655742E-01  0.86638564899E-01  0.51100000000E-03 0. -1.
</event>
<event>
 8    1  0.1117714E+005  0.1043930E+01  0.7957747E-01            NaN
         13   -1    0    0    0    0  0.00000000000E+00  0.00000000000E+00  0.74505805969E-08  0.10566000000E+00  0.10566000000E+00 0. -1.
     999900   -1    0    0    0    0 -0.00000000000E+00 -0.00000000000E+00 -0.74505805969E-08  0.93827000000E+00  0.93827000000E+00 0.  1.
     999902    2    1    2    0    0  0.14512894098E-01  0.50169537756E-02 -0.18226371842E-01  0.10200973637E+01  0.10198189236E+01 0.  0.
     999903    2    3    3    0    0 -0.11228440393E+00  0.61663861738E-02  0.57338583017E-01  0.12780316429E+00  0.20003100185E-01 0.  0.
         14    1    1    2    0    0 -0.14512894098E-01 -0.50169537756E-02  0.18226371842E-01  0.23832636253E-01  0.00000000000E+00 0. -1.
     999901    1    3    3    0    0  0.12679729802E+00 -0.11494323982E-02 -0.75564954858E-01  0.89229419946E+00  0.88000000000E+00 0. -1.
        -11    1    4    4    0    0 -0.66626910738E-01 -0.61701378235E-02  0.34305006666E-01  0.75195149037E-01  0.51100000000E-03 0. -1.
         11    1    4    4    0    0 -0.45657493187E-01  0.12336523997E-01  0.23033576351E-01  0.52608015254E-01  0.51100000000E-03 0.  1.
</event>
<event>
 8    1  0.1117714E+005  0.1043930E+01  0.7957747E-01            NaN
         13   -1    0    0    0    0  0.00000000000E+00  0.00000000000E+00  0.74505805969E-08  0.10566000000E+00  0.10566000000E+00 0. -1.
     999900   -1    0    0    0    0 -0.00000000000E+00 -0.00000000000E+00 -0.74505805969E-08  0.93827000000E+00  0.93827000000E+00 0.  1.
     999902    2    1    2    0    0  0.84129305986E-02  0.22516338336E-01  0.16265004050E-02  0.10198383335E+01  0.10195537347E+01 0.  0.
     999903    2    3    3    0    0  0.59516767403E-02  0.85020459898E-01 -0.98716275156E-01  0.13192983840E+00  0.19916782436E-01 0.  0.
         14    1    1    2    0    0 -0.84129305986E-02 -0.22516338336E-01 -0.16265004050E-02  0.24091666544E-01  0.00000000000E+00 0.  1.
     999901    1    3    3    0    0  0.24612538583E-02 -0.62504121563E-01  0.10034277556E+00  0.88790849505E+00  0.88000000000E+00 0. -1.
        -11    1    4    4    0    0  0.68487030956E-02  0.66132833985E-01 -0.87650116215E-01  0.11001481927E+00  0.51100000000E-03 0.  1.
         11    1    4    4    0    0 -0.89702635522E-03  0.18887625913E-01 -0.11066158941E-01  0.21915019134E-01  0.51100000000E-03 0. -1.
</event>
<event>
 8    1  0.1117714E+005  0.1043930E+01  0.7957747E-01            NaN
         13   -1    0    0    0    0  0.00000000000E+00  0.00000000000E+00  0.74505805969E-08  0.10566000000E+00  0.10566000000E+00 0.  1.
     999900   -1    0    0    0    0 -0.00000000000E+00 -0.00000000000E+00 -0.74505805969E-08  0.93827000000E+00  0.93827000000E+00 0. -1.
     999902    2    1    2    0    0 -0.18321994355E-01 -0.18636430872E-02 -0.17018951675E-01  0.10188538488E+01  0.10185452135E+01 0.  0.
     999903    2    3    3    0    0 -0.11377483250E+00  0.27631376184E-01  0.54053212255E-01  0.13035373459E+00  0.19030000134E-01 0.  0.
         14    1    1    2    0    0  0.18321994355E-01  0.18636430872E-02  0.17018951675E-01  0.25076151197E-01  0.00000000000E+00 0.  1.
     999901    1    3    3    0    0  0.95452838149E-01 -0.29495019271E-01 -0.71072163931E-01  0.88850011421E+00  0.88000000000E+00 0.  1.
        -11    1    4    4    0    0 -0.49662071102E-01  0.20130270299E-01  0.30353754552E-01  0.61588640388E-01  0.51100000000E-03 0. -1.
         11    1    4    4    0    0 -0.64112761402E-01  0.75011058856E-02  0.23699457703E-01  0.68765094201E-01  0.51100000000E-03 0.  1.
</event>
<event>
 8    1  0.1117714E+005  0.1043930E+01  0.7957747E-01            NaN
         13   -1    0    0    0    0  0.00000000000E+00  0.00000000000E+00  0.74505805969E-08  0.10566000000E+00  0.10566000000E+00 0. -1.
     999900   -1    0    0    0    0 -0.00000000000E+00 -0.00000000000E+00 -0.74505805969E-08  0.93827000000E+00  0.93827000000E+00 0. -1.
     999902    2    1    2    0    0  0.19707686496E-01 -0.96590211822E-02  0.73887328655E-02  0.10207722158E+01  0.10205094970E+01 0.  0.
     999903    2    3    3    0    0  0.60558349276E-01  0.11382368613E+00 -0.96648088547E-02  0.13104889982E+00  0.21383648472E-01 0.  0.
         14    1    1    2    0    0 -0.19707686496E-01  0.96590211822E-02 -0.73887328655E-02  0.23157784233E-01  0.00000000000E+00 0.  1.
     999901    1    3    3    0    0 -0.40850662781E-01 -0.12348270731E+00  0.17053541720E-01  0.88972331595E+00  0.88000000000E+00 0. -1.
        -11    1    4    4    0    0  0.24409967727E-01  0.49586943534E-01  0.62970635874E-02  0.55629359373E-01  0.51100000000E-03 0. -1.
         11    1    4    4    0    0  0.36148381549E-01  0.64236742599E-01 -0.15961872442E-01  0.75419540447E-01  0.51100000000E-03 0.  1.
</event>
<event>
 8    1  0.1117714E+005  0.1043930E+01  0.7957747E-01            NaN
         13   -1    0    0    0    0  0.00000000000E+00  0.00000000000E+00  0.74505805969E-08  0.10566000000E+00  0.10566000000E+00 0. -1.
     999900   -1    0    0    0    0 -0.00000000000E+00 -0.00000000000E+00 -0.74505805969E-08  0.93827000000E+00  0.93827000000E+00 0.  1.
     999902    2    1    2    0    0 -0.16948217658E-01 -0.19038798123E-01 -0.43281858563E-02  0.10180755785E+01  0.10177472341E+01 0.  0.
     999903    2    3    3    0    0 -0.86650859490E-01  0.28341380255E-01  0.89297043980E-01  0.12910481230E+00  0.19557229119E-01 0.  0.
         14    1    1    2    0    0  0.16948217658E-01  0.19038798123E-01  0.43281858563E-02  0.25854421451E-01  0.00000000000E+00 0. -1.
     999901    1    3    3    0    0  0.69702641831E-01 -0.47380178378E-01 -0.93625229836E-01  0.88897076625E+00  0.88000000000E+00 0.  1.
        -11    1    4    4    0    0 -0.39462723253E-01  0.86633722879E-02  0.27393488110E-01  0.48816235597E-01  0.51100000000E-03 0.  1.
         11    1    4    4    0    0 -0.47188136236E-01  0.19678007967E-01  0.61903555870E-01  0.80288576705E-01  0.51100000000E-03 0. -1.
</event>
<event>
 8    1  0.1117714E+005  0.1043930E+01  0.7957747E-01            NaN
         13   -1    0    0    0    0  0.00000000000E+00  0.00000000000E+00  0.74505805969E-08  0.10566000000E+00  0.10566000000E+00 0.  1.
     999900   -1    0    0    0    0 -0.00000000000E+00 -0.00000000000E+00 -0.74505805969E-08  0.93827000000E+00  0.93827000000E+00 0. -1.
     999902    2    1    2    0    0 -0.38049703421E-02 -0.63957936001E-02  0.22884395738E-01  0.10198659284E+01  0.10195819890E+01 0.  0.
     999903    2    3    3    0    0  0.53316346043E-01 -0.59483096238E-01  0.10393941440E+00  0.13270696711E+00  0.20660729927E-01 0.  0.
         14    1    1    2    0    0  0.38049703421E-02  0.63957936001E-02 -0.22884395738E-01  0.24064071629E-01  0.00000000000E+00 0. -1.
     999901    1    3    3    0    0 -0.57121316385E-01  0.53087302638E-01 -0.81055018665E-01  0.88715896126E+00  0.88000000000E+00 0. -1.
        -11    1    4    4    0    0  0.34578099067E-01 -0.38265040390E-01  0.50241295247E-01  0.72002132748E-01  0.51100000000E-03 0. -1.
         11    1    4    4    0    0  0.18738246976E-01 -0.21218055847E-01  0.53698119155E-01  0.60704834367E-01  0.51100000000E-03 0.  1.
</event>
<event>
 8    1  0.1117714E+005  0.1043930E+01  0.7957747E-01            NaN
         13   -1    0    0    0    0  0.00000000000E+00  0.00000000000E+00  0.74505805969E-08  0.10566000000E+00  0.10566000000E+00 0. -1.
     999900   -1    0    0    0    0 -0.00000000000E+00 -0.00000000000E+00 -0.74505805969E-08  0.93827000000E+00  0.93827000000E+00 0.  1.
     999902    2    1    2    0    0 -0.62212581667E-02  0.86140713025E-02  0.19035963871E-01  0.10221292157E+01  0.10218966970E+01 0.  0.
     999903    2    3    3    0    0 -0.98153520724E-01 -0.57049408245E-01  0.67463822673E-01  0.13358631238E+00  0.20129254205E-01 0.  0.
         14    1    1    2    0    0  0.62212581667E-02 -0.86140713025E-02 -0.19035963871E-01  0.21800784346E-01  0.00000000000E+00 0.  1.
     999901    1    3    3    0    0  0.91932262557E-01  0.65663479548E-01 -0.48427858801E-01  0.88854290327E+00  0.88000000000E+00 0.  1.
        -11    1    4    4    0    0 -0.51656080536E-01 -0.30341445480E-01  0.47166826815E-01  0.76249096014E-01  0.51100000000E-03 0.  1.
         11    1    4    4    0    0 -0.46497440188E-01 -0.26707962765E-01  0.20296995858E-01  0.57337216370E-01  0.51100000000E-03 0. -1.
</event>
<event>
 8    1  0.1117714E+005  0.1043930E+01  0.7957747E-01            NaN
         13   -1    0    0    0    0  0.00000000000E+00  0.00000000000E+00  0.74505805969E-08  0.10566000000E+00  0.10566000000E+00 0.  1.
     999900   -1    0    0    0    0 -0.00000000000E+00 -0.00000000000E+00 -0.74505805969E-08  0.93827000000E+00  0.93827000000E+00 0.  1.
     999902    2    1    2    0    0 -0.64031963952E-02  0.52060368049E-02 -0.21286708568E-01  0.10210995882E+01  0.10208443276E+01 0.  0.
     999903    2    3    3    0    0  0.23562414740E-01  0.40842750303E-01  0.11829934988E+00  0.12888202449E+00  0.19812178455E-01 0.  0.
         14    1    1    2    0    0  0.64031963952E-02 -0.52060368049E-02  0.21286708568E-01  0.22830411844E-01  0.00000000000E+00 0.  1.
     999901    1    3    3    0    0 -0.29965611136E-01 -0.35636713498E-01 -0.13958605844E+00  0.89221756366E+00  0.88000000000E+00 0.  1.
        -11    1    4    4    0    0  0.22916789774E-01  0.20486542057E-01  0.73272434483E-01  0.79460609330E-01  0.51100000000E-03 0.  1.
         11    1    4    4    0    0  0.64562496680E-03  0.20356208245E-01  0.45026915394E-01  0.49421415162E-01  0.51100000000E-03 0. -1.
</event>
<event>
 8    1  0.1117714E+005  0.1043930E+01  0.7957747E-01            NaN
         13   -1    0    0    0    0  0.00000000000E+00  0.00000000000E+00  0.74505805969E-08  0.10566000000E+00  0.10566000000E+00 0.  1.
     999900   -1    0    0    0    0 -0.00000000000E+00 -0.00000000000E+00 -0.74505805969E-08  0.93827000000E+00  0.93827000000E+00 0. -1.
     999902    2    1    2    0    0 -0.15795804824E-02 -0.54799515182E-02 -0.23129267565E-01  0.10201079942E+01  0.10198298053E+01 0.  0.
     999903    2    3    3    0    0 -0.12451440196E+00  0.16341225834E-01  0.22189838183E-01  0.13014004225E+00  0.25945514511E-01 0.  0.
         14    1    1    2    0    0  0.15795804824E-02  0.54799515182E-02  0.23129267565E-01  0.23822005819E-01  0.00000000000E+00 0.  1.
     999901    1    3    3    0    0  0.12293482147E+00 -0.21821177352E-01 -0.45319105748E-01  0.88996795193E+00  0.88000000000E+00 0.  1.
        -11    1    4    4    0    0 -0.16700357720E-01  0.81499458557E-02 -0.37074056011E-02  0.18955989627E-01  0.51100000000E-03 0. -1.
         11    1    4    4    0    0 -0.10781404423E+00  0.81912799783E-02  0.25897243784E-01  0.11118405263E+00  0.51100000000E-03 0.  1.
</event>
<event>
 8    1  0.1117714E+005  0.1043930E+01  0.7957747E-01            NaN
         13   -1    0    0    0    0  0.00000000000E+00  0.00000000000E+00  0.74505805969E-08  0.10566000000E+00  0.10566000000E+00 0.  1.
     999900   -1    0    0    0    0 -0.00000000000E+00 -0.00000000000E+00 -0.74505805969E-08  0.93827000000E+00  0.93827000000E+00 0.  1.
     999902    2    1    2    0    0  0.17983813893E-01  0.16299978302E-01  0.88787776287E-02  0.10180854736E+01  0.10177573836E+01 0.  0.
     999903    2    3    3    0    0  0.74136287215E-01  0.19024490289E-01 -0.10225859534E+00  0.12931551519E+00  0.20188160794E-01 0.  0.
         14    1    1    2    0    0 -0.17983813893E-01 -0.16299978302E-01 -0.88787776287E-02  0.25844526441E-01  0.00000000000E+00 0.  1.
     999901    1    3    3    0    0 -0.56152473321E-01 -0.27245119876E-02  0.11113737297E+00  0.88876995837E+00  0.88000000000E+00 0. -1.
        -11    1    4    4    0    0  0.19737905123E-01  0.12602144442E-01 -0.40309708226E-01  0.46621160876E-01  0.51100000000E-03 0. -1.
         11    1    4    4    0    0  0.54398382091E-01  0.64223458473E-02 -0.61948887111E-01  0.82694354316E-01  0.51100000000E-03 0.  1.
</event>
<event>
 8    1  0.1117714E+005  0.1043930E+01  0.7957747E-01            NaN
         13   -1    0    0    0    0  0.00000000000E+00  0.00000000000E+00  0.74505805969E-08  0.10566000000E+00  0.10566000000E+00 0.  1.
     999900   -1    0    0    0    0 -0.00000000000E+00 -0.00000000000E+00 -0.74505805969E-08  0.93827000000E+00  0.93827000000E+00 0. -1.
     999902    2    1    2    0    0  0.95658472066E-02 -0.88051233456E-02  0.20148903334E-01  0.10199505518E+01  0.10196686296E+01 0.  0.
     999903    2    3    3    0    0 -0.91628011503E-01 -0.41022599669E-01 -0.77842567674E-01  0.12816554901E+00  0.16982238860E-01 0.  0.
         14    1    1    2    0    0 -0.95658472066E-02  0.88051233456E-02 -0.20148903334E-01  0.23979448189E-01  0.00000000000E+00 0. -1.
     999901    1    3    3    0    0  0.10119385871E+00  0.32217476323E-01  0.97991471008E-01  0.89178500280E+00  0.88000000000E+00 0.  1.
        -11    1    4    4    0    0 -0.32572854645E-01 -0.21568757332E-01 -0.36727131821E-01  0.53622248044E-01  0.51100000000E-03 0.  1.
         11    1    4    4    0    0 -0.59055156858E-01 -0.19453842337E-01 -0.41115435853E-01  0.74543300971E-01  0.51100000000E-03 0. -1.
</event>
<event>
 8    1  0.1117714E+005  0.1043930E+01  0.7957747E-01            NaN
         13   -1    0    0    0    0  0.00000000000E+00  0.00000000000E+00  0.74505805969E-08  0.10566000000E+00  0.10566000000E+00 0. -1.
     999900   -1    0    0    0    0 -0.00000000000E+00 -0.00000000000E+00 -0.74505805969E-08  0.93827000000E+00  0.93827000000E+00 0. -1.
     999902    2    1    2    0    0 -0.24457447118E-01 -0.21078658796E-02  0.46833345267E-02  0.10189391329E+01  0.10186326193E+01 0.  0.
     999903    2    3    3    0    0 -0.88363591767E-02  0.12183634752E+00  0.38383006314E-01  0.12947757984E+00  0.19209676903E-01 0.  0.
         14    1    1    2    0    0  0.24457447118E-01  0.21078658796E-02 -0.46833345267E-02  0.24990867139E-01  0.00000000000E+00 0. -1.
     999901    1    3    3    0    0 -0.15621087941E-01 -0.12394421340E+00 -0.33699671788E-01  0.88946155302E+00  0.88000000000E+00 0. -1.
        -11    1    4    4    0    0 -0.34277212811E-03  0.25813711909E-01  0.16447447286E-01  0.30614455057E-01  0.51100000000E-03 0. -1.
         11    1    4    4    0    0 -0.84935870486E-02  0.96022635613E-01  0.21935559029E-01  0.98863124783E-01  0.51100000000E-03 0.  1.
</event>
<event>
 8    1  0.1117714E+005  0.1043930E+01  0.7957747E-01            NaN
         13   -1    0    0    0    0  0.00000000000E+00  0.00000000000E+00  0.74505805969E-08  0.10566000000E+00  0.10566000000E+00 0.  1.
     999900   -1    0    0    0    0 -0.00000000000E+00 -0.00000000000E+00 -0.74505805969E-08  0.93827000000E+00  0.93827000000E+00 0. -1.
     999902    2    1    2    0    0  0.20705218296E-02 -0.19463749680E-01  0.12677240775E-01  0.10206096860E+01  0.10203432237E+01 0.  0.
     999903    2    3    3    0    0 -0.33989420586E-01 -0.88948678662E-01 -0.88299839839E-01  0.13138258023E+00  0.19934204864E-01 0.  0.
         14    1    1    2    0    0 -0.20705218296E-02  0.19463749680E-01 -0.12677240775E-01  0.23320314018E-01  0.00000000000E+00 0. -1.
     999901    1    3    3    0    0  0.36059942416E-01  0.69484928983E-01  0.10097708061E+00  0.88922710576E+00  0.88000000000E+00 0.  1.
        -11    1    4    4    0    0 -0.21891825516E-01 -0.76330055831E-01 -0.67615382318E-01  0.10429587957E+00  0.51100000000E-03 0. -1.
         11    1    4    4    0    0 -0.12097595070E-01 -0.12618622831E-01 -0.20684457521E-01  0.27086700659E-01  0.51100000000E-03 0.  1.
</event>
<event>
 8    1  0.1117714E+005  0.1043930E+01  0.7957747E-01            NaN
         13   -1    0    0    0    0  0.00000000000E+00  0.00000000000E+00  0.74505805969E-08  0.10566000000E+00  0.10566000000E+00 0.  1.
     999900   -1    0    0    0    0 -0.00000000000E+00 -0.00000000000E+00 -0.74505805969E-08  0.93827000000E+00  0.93827000000E+00 0.  1.
     999902    2    1    2    0    0  0.11528494702E-01 -0.21984413245E-01  0.28492080252E-02  0.10189432315E+01  0.10186368196E+01 0.  0.
     999903    2    3    3    0    0  0.11600487828E+00  0.49162465751E-01 -0.22889864684E-01  0.12953910904E+00  0.19553900908E-01 0.  0.
         14    1    1    2    0    0 -0.11528494702E-01  0.21984413245E-01 -0.28492080252E-02  0.24986768542E-01  0.00000000000E+00 0. -1.
     999901    1    3    3    0    0 -0.10447638358E+00 -0.71146878996E-01  0.25739072709E-01  0.88940412242E+00  0.88000000000E+00 0. -1.
        -11    1    4    4    0    0  0.10093296694E+00  0.40691961913E-01 -0.26178909339E-01  0.11193255109E+00  0.51100000000E-03 0. -1.
         11    1    4    4    0    0  0.15071911346E-01  0.84705038378E-02  0.32890446550E-02  0.17606557943E-01  0.51100000000E-03 0.  1.
</event>
<event>
 8    1  0.1117714E+005  0.1043930E+01  0.7957747E-01            NaN
         13   -1    0    0    0    0  0.00000000000E+00  0.00000000000E+00  0.74505805969E-08  0.10566000000E+00  0.10566000000E+00 0.  1.
     999900   -1    0    0    0    0 -0.00000000000E+00 -0.00000000000E+00 -0.74505805969E-08  0.93827000000E+00  0.93827000000E+00 0. -1.
     999902    2    1    2    0    0  0.21786912190E-01 -0.13078433399E-01  0.32683239656E-02  0.10183097560E+01  0.10179874077E+01 0.  0.
     999903    2    3    3    0    0  0.32621229116E-02  0.31165847145E-01  0.12334658352E+00  0.12886076215E+00  0.20217934618E-01 0.  0.
         14    1    1    2    0    0 -0.21786912190E-01  0.13078433399E-01 -0.32683239656E-02  0.25620244036E-01  0.00000000000E+00 0.  1.
     999901    1    3    3    0    0  0.18524789278E-01 -0.44244280545E-01 -0.12007825956E+00  0.88944899381E+00  0.88000000000E+00 0. -1.
        -11    1    4    4    0    0 -0.19326173853E-02 -0.21204143449E-02  0.18648130345E-01  0.18874455046E-01  0.51100000000E-03 0. -1.
         11    1    4    4    0    0  0.51947402970E-02  0.33286261490E-01  0.10469845318E+00  0.10998630710E+00  0.51100000000E-03 0.  1.
</event>
<event>
 7    1  0.1117714E+005  0.1043930E+01  0.7957747E-01            NaN
         13   -1    0    0    0    0  0.00000000000E+00  0.00000000000E+00  0.74505805969E-08  0.10566000000E+00  0.10566000000E+00 0. -1.
     999900   -1    0    0    0    0 -0.00000000000E+00 -0.00000000000E+00 -0.74505805969E-08  0.93827000000E+00  0.93827000000E+00 0. -1.
     999903    2    1    2    0    0  0.29172519803E-01 -0.38985655338E-01  0.13647668639E-01  0.54195241873E-01  0.19492258686E-01 0.  0.
         14    1    1    2    0    0 -0.80593990482E-01 -0.15955251970E-01 -0.65397298807E-01  0.10500841899E+00  0.00000000000E+00 0.  1.
     999901    1    1    2    0    0  0.51421470679E-01  0.54940907307E-01  0.51749630168E-01  0.88472633914E+00  0.88000000000E+00 0.  1.
        -11    1    3    3    0    0  0.10358223947E-01 -0.28976277692E-01  0.11142617580E-01  0.32731277393E-01  0.51100000000E-03 0. -1.
         11    1    3    3    0    0  0.18814295856E-01 -0.10009377645E-01  0.25050510590E-02  0.21463964481E-01  0.51100000000E-03 0.  1.
</event>
<event>
 8    1  0.1117714E+005  0.1043930E+01  0.7957747E-01            NaN
         13   -1    0    0    0    0  0.00000000000E+00  0.00000000000E+00  0.74505805969E-08  0.10566000000E+00  0.10566000000E+00 0.  1.
     999900   -1    0    0    0    0 -0.00000000000E+00 -0.00000000000E+00 -0.74505805969E-08  0.93827000000E+00  0.93827000000E+00 0.  1.
     999902    2    1    2    0    0  0.27603279965E-01  0.10884311303E-01  0.13962536323E-01  0.10111372917E+01  0.10106053933E+01 0.  0.
     999903    2    3    3    0    0 -0.28326708260E-01 -0.60514714212E-01 -0.97211097996E-01  0.11951766349E+00  0.19236456953E-01 0.  0.
         14    1    1    2    0    0 -0.27603279965E-01 -0.10884311303E-01 -0.13962536323E-01  0.32792708305E-01  0.00000000000E+00 0. -1.
     999901    1    3    3    0    0  0.55929988226E-01  0.71399025515E-01  0.11117363432E+00  0.89161962820E+00  0.88000000000E+00 0. -1.
        -11    1    4    4    0    0 -0.15975564819E-01 -0.25740729019E-01 -0.28887050459E-01  0.41863189163E-01  0.51100000000E-03 0. -1.
         11    1    4    4    0    0 -0.12351143442E-01 -0.34773985193E-01 -0.68324047538E-01  0.77654474330E-01  0.51100000000E-03 0.  1.
</event>
<event>
 8    1  0.1117714E+005  0.1043930E+01  0.7957747E-01            NaN
         13   -1    0    0    0    0  0.00000000000E+00  0.00000000000E+00  0.74505805969E-08  0.10566000000E+00  0.10566000000E+00 0.  1.
     999900   -1    0    0    0    0 -0.00000000000E+00 -0.00000000000E+00 -0.74505805969E-08  0.93827000000E+00  0.93827000000E+00 0. -1.
     999902    2    1    2    0    0 -0.86305250356E-02 -0.20251706860E-01 -0.88512866493E-02  0.10202031614E+01  0.10199272169E+01 0.  0.
     999903    2    3    3    0    0  0.20347568212E-01  0.10173035493E+00 -0.73700581951E-01  0.12895415897E+00  0.20840122093E-01 0.  0.
         14    1    1    2    0    0  0.86305250356E-02  0.20251706860E-01  0.88512866493E-02  0.23726838569E-01  0.00000000000E+00 0. -1.
     999901    1    3    3    0    0 -0.28978093248E-01 -0.12198206179E+00  0.64849295302E-01  0.89124900246E+00  0.88000000000E+00 0.  1.
        -11    1    4    4    0    0  0.29857799389E-02  0.44358098376E-01 -0.21143875793E-01  0.49232919657E-01  0.51100000000E-03 0. -1.
         11    1    4    4    0    0  0.17361788273E-01  0.57372256557E-01 -0.52556706158E-01  0.79721239313E-01  0.51100000000E-03 0.  1.
</event>
<event>
 8    1  0.1117714E+005  0.1043930E+01  0.7957747E-01            NaN
         13   -1    0    0    0    0  0.00000000000E+00  0.00000000000E+00  0.74505805969E-08  0.10566000000E+00  0.10566000000E+00 0. -1.
     999900   -1    0    0    0    0 -0.00000000000E+00 -0.00000000000E+00 -0.74505805969E-08  0.93827000000E+00  0.93827000000E+00 0.  1.
     999902    2    1    2    0    0 -0.14129833613E-01  0.73507569976E-02  0.18031512703E-01  0.10198712952E+01  0.10195874840E+01 0.  0.
     999903    2    3    3    0    0 -0.11297263660E+00  0.62288022768E-01 -0.18693783671E-01  0.13187537727E+00  0.19976065182E-01 0.  0.
         14    1    1    2    0    0  0.14129833613E-01 -0.73507569976E-02 -0.18031512703E-01  0.24058704802E-01  0.00000000000E+00 0.  1.
     999901    1    3    3    0    0  0.98842802987E-01 -0.54937265771E-01  0.36725296374E-01  0.88799591793E+00  0.88000000000E+00 0.  1.
        -11    1    4    4    0    0 -0.47376583956E-01  0.35409376962E-01 -0.14270445131E-01  0.60846293309E-01  0.51100000000E-03 0. -1.
         11    1    4    4    0    0 -0.65596052644E-01  0.26878645806E-01 -0.44233385401E-02  0.71029083957E-01  0.51100000000E-03 0.  1.
</event>
<event>
 8    1  0.1117714E+005  0.1043930E+01  0.7957747E-01            NaN
         13   -1    0    0    0    0  0.00000000000E+00  0.00000000000E+00  0.74505805969E-08  0.10566000000E+00  0.10566000000E+00 0. -1.
     999900   -1    0    0    0    0 -0.00000000000E+00 -0.00000000000E+00 -0.74505805969E-08  0.93827000000E+00  0.93827000000E+00 0. -1.
     999902    2    1    2    0    0  0.68112262786E-03 -0.23809657898E-01  0.60006490766E-02  0.10193663780E+01  0.10190703808E+01 0.  0.
     999903    2    3    3    0    0  0.19203179621E-01 -0.88263631265E-01  0.94538616179E-01  0.13238478128E+00  0.20711099746E-01 0.  0.
         14    1    1    2    0    0 -0.68112262786E-03  0.23809657898E-01 -0.60006490766E-02  0.24563622017E-01  0.00000000000E+00 0. -1.
     999901    1    3    3    0    0 -0.18522056993E-01  0.64453973367E-01 -0.88537967103E-01  0.88698159671E+00  0.88000000000E+00 0. -1.
        -11    1    4    4    0    0  0.69757960500E-02 -0.63062718072E-01  0.74949799132E-01  0.98200313910E-01  0.51100000000E-03 0.  1.
         11    1    4    4    0    0  0.12227383571E-01 -0.25200913194E-01  0.19588817048E-01  0.34184467366E-01  0.51100000000E-03 0. -1.
</event>
<event>
 8    1  0.1117714E+005  0.1043930E+01  0.7957747E-01            NaN
         13   -1    0    0    0    0  0.00000000000E+00  0.00000000000E+00  0.74505805969E-08  0.10566000000E+00  0.10566000000E+00 0. -1.
     999900   -1    0    0    0    0 -0.00000000000E+00 -0.00000000000E+00 -0.74505805969E-08  0.93827000000E+00  0.93827000000E+00 0.  1.
     999902    2    1    2    0    0 -0.15979963135E-01 -0.29825176322E-02 -0.16823855283E-01  0.10205356259E+01  0.10202674488E+01 0.  0.
     999903    2    3    3    0    0  0.69056881178E-01  0.89675864265E-01 -0.61681609078E-01  0.13046312396E+00  0.20134357326E-01 0.  0.
         14    1    1    2    0    0  0.15979963135E-01  0.29825176322E-02  0.16823855283E-01  0.23394374106E-01  0.00000000000E+00 0. -1.
     999901    1    3    3    0    0 -0.85036844313E-01 -0.92658381897E-01  0.44857753794E-01  0.89007250194E+00  0.88000000000E+00 0. -1.
        -11    1    4    4    0    0  0.35827301727E-01  0.46820644882E-01 -0.43487735771E-01  0.73261262750E-01  0.51100000000E-03 0. -1.
         11    1    4    4    0    0  0.33229579451E-01  0.42855219383E-01 -0.18193873307E-01  0.57201861208E-01  0.51100000000E-03 0.  1.
</event>
<event>
 8    1  0.1117714E+005  0.1043930E+01  0.7957747E-01            NaN
         13   -1    0    0    0    0  0.00000000000E+00  0.00000000000E+00  0.74505805969E-08  0.10566000000E+00  0.10566000000E+00 0.  1.
     999900   -1    0    0    0    0 -0.00000000000E+00 -0.00000000000E+00 -0.74505805969E-08  0.93827000000E+00  0.93827000000E+00 0.  1.
     999902    2    1    2    0    0  0.16594114255E-01 -0.23114392906E-02 -0.90305711832E-02  0.10248969079E+01  0.10247201634E+01 0.  0.
     999903    2    3    3    0    0  0.11378511657E+00  0.89997450907E-02  0.71171942843E-01  0.13584883434E+00  0.19010843722E-01 0.  0.
         14    1    1    2    0    0 -0.16594114255E-01  0.23114392906E-02  0.90305711832E-02  0.19033092114E-01  0.00000000000E+00 0.  1.
     999901    1    3    3    0    0 -0.97191002313E-01 -0.11311184381E-01 -0.80202514026E-01  0.88904807355E+00  0.88000000000E+00 0.  1.
        -11    1    4    4    0    0  0.50889198207E-01  0.67759303852E-02  0.42673097737E-01  0.66759854090E-01  0.51100000000E-03 0.  1.
         11    1    4    4    0    0  0.62895918362E-01  0.22238147055E-02  0.28498845106E-01  0.69088980248E-01  0.51100000000E-03 0. -1.
</event>
<event>
 8    1  0.1117714E+005  0.1043930E+01  0.7957747E-01            NaN
         13   -1    0    0    0    0  0.00000000000E+00  0.00000000000E+00  0.74505805969E-08  0.10566000000E+00  0.10566000000E+00 0. -1.
     999900   -1    0    0    0    0 -0.00000000000E+00 -0.00000000000E+00 -0.74505805969E-08  0.93827000000E+00  0.93827000000E+00 0. -1.
     999902    2    1    2    0    0 -0.10917550799E-01  0.12364015051E-01 -0.16784096503E-01  0.10203977311E+01  0.10201263461E+01 0.  0.
     999903    2    3    3    0    0 -0.52988784696E-01 -0.24735447662E-01  0.11308341100E+00  0.12909984131E+00  0.21430294200E-01 0.  0.
         14    1    1    2    0    0  0.10917550799E-01 -0.12364015051E-01  0.16784096503E-01  0.23532268889E-01  0.00000000000E+00 0. -1.
     999901    1    3    3    0    0  0.42071233897E-01  0.37099462713E-01 -0.12986750750E+00  0.89129788980E+00  0.88000000000E+00 0. -1.
        -11    1    4    4    0    0 -0.46974123878E-01 -0.18337523609E-01  0.77630681837E-01  0.92572225692E-01  0.51100000000E-03 0.  1.
         11    1    4    4    0    0 -0.60146608182E-02 -0.63979240524E-02  0.35452729161E-01  0.36527615620E-01  0.51100000000E-03 0. -1.
</event>
<event>
 8    1  0.1117714E+005  0.1043930E+01  0.7957747E-01            NaN
         13   -1    0    0    0    0  0.00000000000E+00  0.00000000000E+00  0.74505805969E-08  0.10566000000E+00  0.10566000000E+00 0.  1.
     999900   -1    0    0    0    0 -0.00000000000E+00 -0.00000000000E+00 -0.74505805969E-08  0.93827000000E+00  0.93827000000E+00 0. -1.
     999902    2    1    2    0    0 -0.31783465381E-02 -0.22874133631E-01  0.73383830822E-03  0.10208244510E+01  0.10205629296E+01 0.  0.
     999903    2    3    3    0    0 -0.46199852315E-01 -0.11574816285E+00 -0.44683874157E-01  0.13372851263E+00  0.18830903395E-01 0.  0.
         14    1    1    2    0    0  0.31783465381E-02  0.22874133631E-01 -0.73383830822E-03  0.23105549004E-01  0.00000000000E+00 0. -1.
     999901    1    3    3    0    0  0.43021505777E-01  0.92874029220E-01  0.45417712465E-01  0.88709593837E+00  0.88000000000E+00 0.  1.
        -11    1    4    4    0    0 -0.10876718778E-01 -0.43250383319E-01 -0.88056440237E-02  0.45460962993E-01  0.51100000000E-03 0. -1.
         11    1    4    4    0    0 -0.35323133538E-01 -0.72497779532E-01 -0.35878230134E-01  0.88267549635E-01  0.51100000000E-03 0.  1.
</event>
<event>
 8    1  0.1117714E+005  0.1043930E+01  0.7957747E-01            NaN
         13   -1    0    0    0    0  0.00000000000E+00  0.00000000000E+00  0.74505805969E-08  0.10566000000E+00  0.10566000000E+00 0.  1.
     999900   -1    0    0    0    0 -0.00000000000E+00 -0.00000000000E+00 -0.74505805969E-08  0.93827000000E+00  0.93827000000E+00 0.  1.
     999902    2    1    2    0    0  0.94774291674E-02  0.11613992238E-01 -0.17306217794E-01  0.10210343311E+01  0.10207775927E+01 0.  0.
     999903    2    3    3    0    0 -0.12090206390E+00 -0.39504509963E-01  0.12800006663E-01  0.12945242336E+00  0.20400352513E-01 0.  0.
         14    1    1    2    0    0 -0.94774291674E-02 -0.11613992238E-01  0.17306217794E-01  0.22895668884E-01  0.00000000000E+00 0. -1.
     999901    1    3    3    0    0  0.13037949306E+00  0.51118502201E-01 -0.30106224457E-01  0.89158190775E+00  0.88000000000E+00 0.  1.
        -11    1    4    4    0    0 -0.82059658440E-01 -0.18000352929E-01  0.13242324436E-01  0.85049518084E-01  0.51100000000E-03 0. -1.
         11    1    4    4    0    0 -0.38842405456E-01 -0.21504157034E-01 -0.44231777258E-03  0.44402905281E-01  0.51100000000E-03 0.  1.
</event>
<event>
 8    1  0.1117714E+005  0.1043930E+01  0.7957747E-01            NaN
         13   -1    0    0    0    0  0.00000000000E+00  0.00000000000E+00  0.74505805969E-08  0.10566000000E+00  0.10566000000E+00 0.  1.
     999900   -1    0    0    0    0 -0.00000000000E+00 -0.00000000000E+00 -0.74505805969E-08  0.93827000000E+00  0.93827000000E+00 0. -1.
     999902    2    1    2    0    0 -0.13117246854E-01  0.10581649813E-01  0.13608493379E-01  0.10222684080E+01  0.10220388805E+01 0.  0.
     999903    2    3    3    0    0 -0.73064747945E-01 -0.10691429559E+00 -0.13011631510E-01  0.13203943116E+00  0.22270716957E-01 0.  0.
         14    1    1    2    0    0  0.13117246854E-01 -0.10581649813E-01 -0.13608493379E-01  0.21661592043E-01  0.00000000000E+00 0. -1.
     999901    1    3    3    0    0  0.59947501091E-01  0.11749594540E+00  0.26620124888E-01  0.89022897679E+00  0.88000000000E+00 0.  1.
        -11    1    4    4    0    0 -0.46656160999E-01 -0.84701162115E-01 -0.12641674995E-01  0.97525162345E-01  0.51100000000E-03 0.  1.
         11    1    4    4    0    0 -0.26408586946E-01 -0.22213133475E-01 -0.36995651438E-03  0.34514268819E-01  0.51100000000E-03 0. -1.
</event>
<event>
 8    1  0.1117714E+005  0.1043930E+01  0.7957747E-01            NaN
         13   -1    0    0    0    0  0.00000000000E+00  0.00000000000E+00  0.74505805969E-08  0.10566000000E+00  0.10566000000E+00 0. -1.
     999900   -1    0    0    0    0 -0.00000000000E+00 -0.00000000000E+00 -0.74505805969E-08  0.93827000000E+00  0.93827000000E+00 0.  1.
     999902    2    1    2    0    0 -0.23288951020E-01  0.22695156280E-02 -0.42004343675E-04  0.10205306901E+01  0.10202623984E+01 0.  0.
     999903    2    3    3    0    0  0.25436165139E-01 -0.53061136810E-02 -0.12594240099E+00  0.13020353841E+00  0.20403914019E-01 0.  0.
         14    1    1    2    0    0  0.23288951020E-01 -0.22695156280E-02  0.42004343675E-04  0.23399309930E-01  0.00000000000E+00 0.  1.
     999901    1    3    3    0    0 -0.48725116159E-01  0.75756293090E-02  0.12590039665E+00  0.89032715166E+00  0.88000000000E+00 0. -1.
        -11    1    4    4    0    0  0.18861279749E-01 -0.11820075511E-01 -0.68765182310E-01  0.72279827601E-01  0.51100000000E-03 0. -1.
         11    1    4    4    0    0  0.65748853900E-02  0.65139618304E-02 -0.57177218685E-01  0.57923710811E-01  0.51100000000E-03 0.  1.
</event>
<event>
 8    1  0.1117714E+005  0.1043930E+01  0.7957747E-01            NaN
         13   -1    0    0    0    0  0.00000000000E+00  0.00000000000E+00  0.74505805969E-08  0.10566000000E+00  0.10566000000E+00 0. -1.
     999900   -1    0    0    0    0 -0.00000000000E+00 -0.00000000000E+00 -0.74505805969E-08  0.93827000000E+00  0.93827000000E+00 0.  1.
     999902    2    1    2    0    0 -0.15316256948E-01 -0.67831825445E-02 -0.16068681063E-01  0.10207178953E+01  0.10204539284E+01 0.  0.
     999903    2    3    3    0    0 -0.92232569219E-01 -0.48745092748E-01  0.77417983272E-01  0.13143915533E+00  0.19994412421E-01 0.  0.
         14    1    1    2    0    0  0.15316256948E-01  0.67831825445E-02  0.16068681063E-01  0.23212104675E-01  0.00000000000E+00 0. -1.
     999901    1    3    3    0    0  0.76916312271E-01  0.41961910203E-01 -0.93486664335E-01  0.88927874000E+00  0.88000000000E+00 0.  1.
        -11    1    4    4    0    0 -0.56629790870E-01 -0.36431847983E-01  0.58879192097E-01  0.89449612321E-01  0.51100000000E-03 0. -1.
         11    1    4    4    0    0 -0.35602778348E-01 -0.12313244765E-01  0.18538791175E-01  0.41989543008E-01  0.51100000000E-03 0.  1.
</event>
<event>
 8    1  0.1117714E+005  0.1043930E+01  0.7957747E-01            NaN
         13   -1    0    0    0    0  0.00000000000E+00  0.00000000000E+00  0.74505805969E-08  0.10566000000E+00  0.10566000000E+00 0.  1.
     999900   -1    0    0    0    0 -0.00000000000E+00 -0.00000000000E+00 -0.74505805969E-08  0.93827000000E+00  0.93827000000E+00 0. -1.
     999902    2    1    2    0    0 -0.13719007936E-02  0.19885732603E-01 -0.13077135796E-01  0.10200902023E+01  0.10198115928E+01 0.  0.
     999903    2    3    3    0    0  0.14913387959E-01  0.79022140242E-01  0.10133038151E+00  0.13056706864E+00  0.17691958807E-01 0.  0.
         14    1    1    2    0    0  0.13719007936E-02 -0.19885732603E-01  0.13077135796E-01  0.23839797683E-01  0.00000000000E+00 0.  1.
     999901    1    3    3    0    0 -0.16285288753E-01 -0.59136407639E-01 -0.11440751731E+00  0.88952313368E+00  0.88000000000E+00 0. -1.
        -11    1    4    4    0    0  0.12615428367E-01  0.64658651470E-01  0.70597092357E-01  0.96561383654E-01  0.51100000000E-03 0.  1.
         11    1    4    4    0    0  0.22979595918E-02  0.14363488772E-01  0.30733289152E-01  0.34005684982E-01  0.51100000000E-03 0. -1.
</event>
<event>
 8    1  0.1117714E+005  0.1043930E+01  0.7957747E-01            NaN
         13   -1    0    0    0    0  0.00000000000E+00  0.00000000000E+00  0.74505805969E-08  0.10566000000E+00  0.10566000000E+00 0. -1.
     999900   -1    0    0    0    0 -0.00000000000E+00 -0.00000000000E+00 -0.74505805969E-08  0.93827000000E+00  0.93827000000E+00 0. -1.
     999902    2    1    2    0    0  0.14322118167E-01  0.18229312788E-01  0.46992501459E-02  0.10202759546E+01  0.10200017204E+01 0.  0.
     999903    2    3    3    0    0  0.52855431937E-01  0.76034702847E-01 -0.91416062753E-01  0.13232075707E+00  0.24019023695E-01 0.  0.
         14    1    1    2    0    0 -0.14322118167E-01 -0.18229312788E-01 -0.46992501459E-02  0.23654045435E-01  0.00000000000E+00 0. -1.
     999901    1    3    3    0    0 -0.38533313771E-01 -0.57805390059E-01  0.96115312899E-01  0.88795519750E+00  0.88000000000E+00 0.  1.
        -11    1    4    4    0    0  0.52156872286E-01  0.63393059688E-01 -0.84797986231E-01  0.11802533174E+00  0.51100000000E-03 0. -1.
         11    1    4    4    0    0  0.69855965093E-03  0.12641643158E-01 -0.66180765225E-02  0.14295425324E-01  0.51100000000E-03 0.  1.
</event>
<event>
 8    1  0.1117714E+005  0.1043930E+01  0.7957747E-01            NaN
         13   -1    0    0    0    0  0.00000000000E+00  0.00000000000E+00  0.74505805969E-08  0.10566000000E+00  0.10566000000E+00 0. -1.
     999900   -1    0    0    0    0 -0.00000000000E+00 -0.00000000000E+00 -0.74505805969E-08  0.93827000000E+00  0.93827000000E+00 0. -1.
     999902    2    1    2    0    0 -0.17853069717E-02 -0.97307208196E-02  0.13763516591E-01  0.10269798190E+01  0.10268399291E+01 0.  0.
     999903    2    3    3    0    0 -0.13397690413E+00  0.16793696148E-01 -0.40597201884E-02  0.13653283523E+00  0.19821571465E-01 0.  0.
         14    1    1    2    0    0  0.17853069717E-02  0.97307208196E-02 -0.13763516591E-01  0.16950181049E-01  0.00000000000E+00 0.  1.
     999901    1    3    3    0    0  0.13219159716E+00 -0.26524416968E-01  0.17823236779E-01  0.89044698372E+00  0.88000000000E+00 0. -1.
        -11    1    4    4    0    0 -0.78376990554E-01  0.25671869044E-03 -0.47013698915E-02  0.78519950030E-01  0.51100000000E-03 0.  1.
         11    1    4    4    0    0 -0.55599913579E-01  0.16536977458E-01  0.64164970304E-03  0.58012885196E-01  0.51100000000E-03 0. -1.
</event>
<event>
 8    1  0.1117714E+005  0.1043930E+01  0.7957747E-01            NaN
         13   -1    0    0    0    0  0.00000000000E+00  0.00000000000E+00  0.74505805969E-08  0.10566000000E+00  0.10566000000E+00 0. -1.
     999900   -1    0    0    0    0 -0.00000000000E+00 -0.00000000000E+00 -0.74505805969E-08  0.93827000000E+00  0.93827000000E+00 0. -1.
     999902    2    1    2    0    0 -0.19056701108E-01  0.64469547102E-02  0.10134062953E-01  0.10214040080E+01  0.10211555843E+01 0.  0.
     999903    2    3    3    0    0 -0.69037900226E-02  0.84506113158E-01 -0.98570930255E-01  0.13120307509E+00  0.17580476212E-01 0.  0.
         14    1    1    2    0    0  0.19056701108E-01 -0.64469547102E-02 -0.10134062953E-01  0.22525991967E-01  0.00000000000E+00 0.  1.
     999901    1    3    3    0    0 -0.12152911085E-01 -0.78059158448E-01  0.10870499321E+00  0.89020093294E+00  0.88000000000E+00 0.  1.
        -11    1    4    4    0    0 -0.74040126701E-02  0.18625851722E-01 -0.16552768174E-01  0.25999942523E-01  0.51100000000E-03 0.  1.
         11    1    4    4    0    0  0.50022264756E-03  0.65880261436E-01 -0.82018162082E-01  0.10520313257E+00  0.51100000000E-03 0. -1.
</event>
<event>
 8    1  0.1117714E+005  0.1043930E+01  0.7957747E-01            NaN
         13   -1    0    0    0    0  0.00000000000E+00  0.00000000000E+00  0.74505805969E-08  0.10566000000E+00  0.10566000000E+00 0.  1.
     999900   -1    0    0    0    0 -0.00000000000E+00 -0.00000000000E+00 -0.74505805969E-08  0.93827000000E+00  0.93827000000E+00 0. -1.
     999902    2    1    2    0    0 -0.19535626139E-01 -0.16342185845E-01  0.19891986569E-01  0.10116128396E+01  0.10110965030E+01 0.  0.
     999903    2    3    3    0    0  0.13433361724E-02  0.86400859784E-01  0.86030354881E-01  0.12292484696E+00  0.15568651704E-01 0.  0.
         14    1    1    2    0    0  0.19535626139E-01  0.16342185845E-01 -0.19891986569E-01  0.32317160403E-01  0.00000000000E+00 0. -1.
     999901    1    3    3    0    0 -0.20878962312E-01 -0.10274304563E+00 -0.66138368312E-01  0.88868799264E+00  0.88000000000E+00 0. -1.
        -11    1    4    4    0    0  0.78437598084E-02  0.45105922672E-01  0.40712485845E-01  0.61268560067E-01  0.51100000000E-03 0.  1.
         11    1    4    4    0    0 -0.65004236361E-02  0.41294937112E-01  0.45317869037E-01  0.61656286894E-01  0.51100000000E-03 0. -1.
</event>
<event>
 8    1  0.1117714E+005  0.1043930E+01  0.7957747E-01            NaN
         13   -1    0    0    0    0  0.00000000000E+00  0.00000000000E+00  0.74505805969E-08  0.10566000000E+00  0.10566000000E+00 0.  1.
     999900   -1    0    0    0    0 -0.00000000000E+00 -0.00000000000E+00 -0.74505805969E-08  0.93827000000E+00  0.93827000000E+00 0. -1.
     999902    2    1    2    0    0 -0.13713179129E-03  0.57070673910E-02 -0.22705581334E-01  0.10205177629E+01  0.10202491713E+01 0.  0.
     999903    2    3    3    0    0  0.15048682743E-01  0.11081665753E+00  0.63085714105E-01  0.12999051384E+00  0.20271455951E-01 0.  0.
         14    1    1    2    0    0  0.13713179129E-03 -0.57070673910E-02  0.22705581334E-01  0.23412237122E-01  0.00000000000E+00 0.  1.
     999901    1    3    3    0    0 -0.15185814534E-01 -0.10510959014E+00 -0.85791295439E-01  0.89052724904E+00  0.88000000000E+00 0. -1.
        -11    1    4    4    0    0  0.94745347438E-02  0.21873645481E-01  0.19409615994E-01  0.30744389558E-01  0.51100000000E-03 0. -1.
         11    1    4    4    0    0  0.55741479989E-02  0.88943012049E-01  0.43676098111E-01  0.99246124284E-01  0.51100000000E-03 0.  1.
</event>
<event>
 8    1  0.1117714E+005  0.1043930E+01  0.7957747E-01            NaN
         13   -1    0    0    0    0  0.00000000000E+00  0.00000000000E+00  0.74505805969E-08  0.10566000000E+00  0.10566000000E+00 0. -1.
     999900   -1    0    0    0    0 -0.00000000000E+00 -0.00000000000E+00 -0.74505805969E-08  0.93827000000E+00  0.93827000000E+00 0. -1.
     999902    2    1    2    0    0 -0.12682465103E-01 -0.71072679638E-02 -0.17952140176E-01  0.10208294044E+01  0.10205679965E+01 0.  0.
     999903    2    3    3    0    0 -0.70458864380E-01 -0.11063944898E+00 -0.11472137151E-02  0.13271937162E+00  0.20188518095E-01 0.  0.
         14    1    1    2    0    0  0.12682465103E-01  0.71072679638E-02  0.17952140176E-01  0.23100595575E-01  0.00000000000E+00 0. -1.
     999901    1    3    3    0    0  0.57776399276E-01  0.10353218102E+00 -0.16804926461E-01  0.88811003281E+00  0.88000000000E+00 0. -1.
        -11    1    4    4    0    0 -0.51248127732E-01 -0.72949165031E-01  0.77435344315E-02  0.89488405513E-01  0.51100000000E-03 0. -1.
         11    1    4    4    0    0 -0.19210736648E-01 -0.37690283949E-01 -0.88907481467E-02  0.43230966105E-01  0.51100000000E-03 0.  1.
</event>
<event>
 8    1  0.1221423E+005  0.1043930E+01  0.7957747E-01            NaN
         13   -1    0    0    0    0  0.00000000000E+00  0.00000000000E+00  0.74505805969E-08  0.10566000000E+00  0.10566000000E+00 0. -1.
     999900   -1    0    0    0    0 -0.00000000000E+00 -0.00000000000E+00 -0.74505805969E-08  0.93827000000E+00  0.93827000000E+00 0.  1.
     999902    2    1    2    0    0  0.22965994351E-01 -0.42445527730E-02  0.38474781113E-02  0.10202602680E+01  0.10199856657E+01 0.  0.
     999903    2    3    3    0    0 -0.49334576289E-01 -0.89157972418E-01  0.78316096170E-01  0.13010116064E+00  0.20244915850E-01 0.  0.
         14    1    1    2    0    0 -0.22965994351E-01  0.42445527730E-02 -0.38474781113E-02  0.23669731992E-01  0.00000000000E+00 0.  1.
     999901    1    3    3    0    0  0.72300570639E-01  0.84913419645E-01 -0.74468618059E-01  0.89015910737E+00  0.88000000000E+00 0.  1.
        -11    1    4    4    0    0 -0.14657014909E-01 -0.47011539243E-01  0.34912320550E-01  0.60365918822E-01  0.51100000000E-03 0. -1.
         11    1    4    4    0    0 -0.34677561380E-01 -0.42146433175E-01  0.43403775620E-01  0.69735241820E-01  0.51100000000E-03 0.  1.
</event>
<event>
 8    1  0.1117714E+005  0.1043930E+01  0.7957747E-01            NaN
         13   -1    0    0    0    0  0.00000000000E+00  0.00000000000E+00  0.74505805969E-08  0.10566000000E+00  0.10566000000E+00 0.  1.
     999900   -1    0    0    0    0 -0.00000000000E+00 -0.00000000000E+00 -0.74505805969E-08  0.93827000000E+00  0.93827000000E+00 0. -1.
     999902    2    1    2    0    0  0.20595393094E-01 -0.36004331458E-02 -0.10260769461E-01  0.10206401583E+01  0.10203743999E+01 0.  0.
     999903    2    3    3    0    0 -0.12629149319E+00 -0.63900173002E-02  0.70493555144E-02  0.12829315207E+00  0.20471098676E-01 0.  0.
         14    1    1    2    0    0 -0.20595393094E-01  0.36004331458E-02  0.10260769461E-01  0.23289841680E-01  0.00000000000E+00 0. -1.
     999901    1    3    3    0    0  0.14688688628E+00  0.27895841544E-02 -0.17310124976E-01  0.89234700625E+00  0.88000000000E+00 0. -1.
        -11    1    4    4    0    0 -0.40538294531E-01  0.65327593649E-02 -0.19083856015E-02  0.41108798632E-01  0.51100000000E-03 0. -1.
         11    1    4    4    0    0 -0.85753198659E-01 -0.12922776665E-01  0.89577411159E-02  0.87184353435E-01  0.51100000000E-03 0.  1.
</event>
<event>
 8    1  0.1117714E+005  0.1043930E+01  0.7957747E-01            NaN
         13   -1    0    0    0    0  0.00000000000E+00  0.00000000000E+00  0.74505805969E-08  0.10566000000E+00  0.10566000000E+00 0.  1.
     999900   -1    0    0    0    0 -0.00000000000E+00 -0.00000000000E+00 -0.74505805969E-08  0.93827000000E+00  0.93827000000E+00 0. -1.
     999902    2    1    2    0    0 -0.83791243198E-02  0.22197393982E-01  0.48806250709E-02  0.10197069836E+01  0.10194192356E+01 0.  0.
     999903    2    3    3    0    0  0.12631154994E+00  0.18904322161E-01 -0.51204619182E-02  0.12939667598E+00  0.20132053561E-01 0.  0.
         14    1    1    2    0    0  0.83791243198E-02 -0.22197393982E-01 -0.48806250709E-02  0.24223016432E-01  0.00000000000E+00 0. -1.
     999901    1    3    3    0    0 -0.13469067426E+00  0.32930718213E-02  0.10001086989E-01  0.89031030759E+00  0.88000000000E+00 0.  1.
        -11    1    4    4    0    0  0.84022867544E-01  0.30063620920E-02 -0.47852870635E-02  0.84214254000E-01  0.51100000000E-03 0.  1.
         11    1    4    4    0    0  0.42288682394E-01  0.15897960069E-01 -0.33517485476E-03  0.45182421982E-01  0.51100000000E-03 0. -1.
</event>
<event>
 8    1  0.1117714E+005  0.1043930E+01  0.7957747E-01            NaN
         13   -1    0    0    0    0  0.00000000000E+00  0.00000000000E+00  0.74505805969E-08  0.10566000000E+00  0.10566000000E+00 0.  1.
     999900   -1    0    0    0    0 -0.00000000000E+00 -0.00000000000E+00 -0.74505805969E-08  0.93827000000E+00  0.93827000000E+00 0. -1.
     999902    2    1    2    0    0 -0.13876440560E-01  0.18171821137E-02 -0.65240373232E-02  0.10284891187E+01  0.10283732038E+01 0.  0.
     999903    2    3    3    0    0  0.12566589637E+00  0.24038165486E-01  0.41383444561E-01  0.13593045800E+00  0.19868291803E-01 0.  0.
         14    1    1    2    0    0  0.13876440560E-01 -0.18171821137E-02  0.65240373232E-02  0.15440881336E-01  0.00000000000E+00 0.  1.
     999901    1    3    3    0    0 -0.13954233693E+00 -0.22220983372E-01 -0.47907481884E-01  0.89255866066E+00  0.88000000000E+00 0.  1.
        -11    1    4    4    0    0  0.98921392462E-01  0.18010803580E-01  0.23704800283E-01  0.10330541907E+00  0.51100000000E-03 0.  1.
         11    1    4    4    0    0  0.26744503908E-01  0.60273619062E-02  0.17678644278E-01  0.32625038932E-01  0.51100000000E-03 0. -1.
</event>
<event>
 8    1  0.1117714E+005  0.1043930E+01  0.7957747E-01            NaN
         13   -1    0    0    0    0  0.00000000000E+00  0.00000000000E+00  0.74505805969E-08  0.10566000000E+00  0.10566000000E+00 0. -1.
     999900   -1    0    0    0    0 -0.00000000000E+00 -0.00000000000E+00 -0.74505805969E-08  0.93827000000E+00  0.93827000000E+00 0.  1.
     999902    2    1    2    0    0  0.72040456775E-02 -0.16546036270E-01 -0.15494532192E-01  0.10201444977E+01  0.10198671708E+01 0.  0.
     999903    2    3    3    0    0 -0.12170092147E+00 -0.40440440961E-03  0.37891807514E-01  0.12900638043E+00  0.19889175118E-01 0.  0.
         14    1    1    2    0    0 -0.72040456775E-02  0.16546036270E-01  0.15494532192E-01  0.23785502270E-01  0.00000000000E+00 0. -1.
     999901    1    3    3    0    0  0.12890496714E+00 -0.16141631860E-01 -0.53386339706E-01  0.89113811730E+00  0.88000000000E+00 0.  1.
        -11    1    4    4    0    0 -0.36220590407E-01 -0.25364127812E-02  0.22978317379E-02  0.36385515125E-01  0.51100000000E-03 0. -1.
         11    1    4    4    0    0 -0.85480331060E-01  0.21320083716E-02  0.35593975776E-01  0.92620865308E-01  0.51100000000E-03 0.  1.
</event>
<event>
 8    1  0.1117714E+005  0.1043930E+01  0.7957747E-01            NaN
         13   -1    0    0    0    0  0.00000000000E+00  0.00000000000E+00  0.74505805969E-08  0.10566000000E+00  0.10566000000E+00 0. -1.
     999900   -1    0    0    0    0 -0.00000000000E+00 -0.00000000000E+00 -0.74505805969E-08  0.93827000000E+00  0.93827000000E+00 0. -1.
     999902    2    1    2    0    0  0.34080856937E-02 -0.21062953691E-01 -0.18671770770E-01  0.10155769033E+01  0.10151810422E+01 0.  0.
     999903    2    3    3    0    0 -0.66917353227E-01 -0.43986850072E-01 -0.98907684704E-01  0.12883625678E+00  0.20081728646E-01 0.  0.
         14    1    1    2    0    0 -0.34080856937E-02  0.21062953691E-01  0.18671770770E-01  0.28353096656E-01  0.00000000000E+00 0. -1.
     999901    1    3    3    0    0  0.70325438921E-01  0.22923896381E-01  0.80235913934E-01  0.88674064656E+00  0.88000000000E+00 0.  1.
        -11    1    4    4    0    0 -0.38220353620E-01 -0.34406388722E-01 -0.52970292798E-01  0.73828910705E-01  0.51100000000E-03 0. -1.
         11    1    4    4    0    0 -0.28696999606E-01 -0.95804613496E-02 -0.45937391906E-01  0.55007346075E-01  0.51100000000E-03 0.  1.
</event>
<event>
 8    1  0.1117714E+005  0.1043930E+01  0.7957747E-01            NaN
         13   -1    0    0    0    0  0.00000000000E+00  0.00000000000E+00  0.74505805969E-08  0.10566000000E+00  0.10566000000E+00 0. -1.
     999900   -1    0    0    0    0 -0.00000000000E+00 -0.00000000000E+00 -0.74505805969E-08  0.93827000000E+00  0.93827000000E+00 0. -1.
     999902    2    1    2    0    0 -0.18293869075E-02 -0.81681465655E-02  0.22066715658E-01  0.10203290421E+01  0.10200560518E+01 0.  0.
     999903    2    3    3    0    0 -0.94103962403E-01  0.55717807058E-01 -0.65216037762E-01  0.12891763796E+00  0.20164226554E-01 0.  0.
         14    1    1    2    0    0  0.18293869075E-02  0.81681465655E-02 -0.22066715658E-01  0.23600957919E-01  0.00000000000E+00 0.  1.
     999901    1    3    3    0    0  0.92274575495E-01 -0.63885953623E-01  0.87282753420E-01  0.89141140412E+00  0.88000000000E+00 0. -1.
        -11    1    4    4    0    0 -0.69861215857E-02  0.78219436170E-02 -0.96245536645E-03  0.10544009583E-01  0.51100000000E-03 0. -1.
         11    1    4    4    0    0 -0.87117840817E-01  0.47895863441E-01 -0.64253582396E-01  0.11837362838E+00  0.51100000000E-03 0.  1.
</event>
<event>
 8    1  0.1117714E+005  0.1043930E+01  0.7957747E-01            NaN
         13   -1    0    0    0    0  0.00000000000E+00  0.00000000000E+00  0.74505805969E-08  0.10566000000E+00  0.10566000000E+00 0. -1.
     999900   -1    0    0    0    0 -0.00000000000E+00 -0.00000000000E+00 -0.74505805969E-08  0.93827000000E+00  0.93827000000E+00 0. -1.
     999902    2    1    2    0    0  0.57757174061E-02 -0.21026719121E-01  0.14607277570E-01  0.10176839644E+01  0.10173454659E+01 0.  0.
     999903    2    3    3    0    0 -0.57566924125E-01  0.46328309405E-01 -0.99443489143E-01  0.12551998421E+00  0.20149339858E-01 0.  0.
         14    1    1    2    0    0 -0.57757174061E-02  0.21026719121E-01 -0.14607277570E-01  0.26246035635E-01  0.00000000000E+00 0.  1.
     999901    1    3    3    0    0  0.63342641531E-01 -0.67355028526E-01  0.11405076671E+00  0.89216398016E+00  0.88000000000E+00 0.  1.
        -11    1    4    4    0    0 -0.30814997451E-01  0.13096949351E-01 -0.37125275185E-01  0.49996413159E-01  0.51100000000E-03 0. -1.
         11    1    4    4    0    0 -0.26751926673E-01  0.33231360054E-01 -0.62318213959E-01  0.75523571048E-01  0.51100000000E-03 0.  1.
</event>
<event>
 8    1  0.1117714E+005  0.1043930E+01  0.7957747E-01            NaN
         13   -1    0    0    0    0  0.00000000000E+00  0.00000000000E+00  0.74505805969E-08  0.10566000000E+00  0.10566000000E+00 0.  1.
     999900   -1    0    0    0    0 -0.00000000000E+00 -0.00000000000E+00 -0.74505805969E-08  0.93827000000E+00  0.93827000000E+00 0. -1.
     999902    2    1    2    0    0 -0.11908206511E-01 -0.16647626043E-01  0.11564766669E-01  0.10204205835E+01  0.10201497315E+01 0.  0.
     999903    2    3    3    0    0 -0.13555789436E-01  0.25214510247E-01 -0.12417206287E+00  0.12902861593E+00  0.20252199363E-01 0.  0.
         14    1    1    2    0    0  0.11908206511E-01  0.16647626043E-01 -0.11564766669E-01  0.23509416481E-01  0.00000000000E+00 0.  1.
     999901    1    3    3    0    0  0.16475829243E-02 -0.41862136290E-01  0.13573682953E+00  0.89139196759E+00  0.88000000000E+00 0.  1.
        -11    1    4    4    0    0 -0.15636462863E-01  0.92330201585E-02 -0.52144797467E-01  0.55218553549E-01  0.51100000000E-03 0. -1.
         11    1    4    4    0    0  0.20806734278E-02  0.15981490088E-01 -0.72027265399E-01  0.73810062384E-01  0.51100000000E-03 0.  1.
</event>
<event>
 8    1  0.1117714E+005  0.1043930E+01  0.7957747E-01            NaN
         13   -1    0    0    0    0  0.00000000000E+00  0.00000000000E+00  0.74505805969E-08  0.10566000000E+00  0.10566000000E+00 0.  1.
     999900   -1    0    0    0    0 -0.00000000000E+00 -0.00000000000E+00 -0.74505805969E-08  0.93827000000E+00  0.93827000000E+00 0.  1.
     999902    2    1    2    0    0  0.10043337740E-01  0.26305031637E-02 -0.21099223351E-01  0.10204147835E+01  0.10201437963E+01 0.  0.
     999903    2    3    3    0    0  0.95669834599E-02 -0.10253548771E+00 -0.81504558002E-01  0.13209675657E+00  0.14195305884E-01 0.  0.
         14    1    1    2    0    0 -0.10043337740E-01 -0.26305031637E-02  0.21099223351E-01  0.23515216475E-01  0.00000000000E+00 0.  1.
     999901    1    3    3    0    0  0.47635427977E-03  0.10516599088E+00  0.60405334651E-01  0.88831802695E+00  0.88000000000E+00 0. -1.
        -11    1    4    4    0    0  0.11734123620E-02 -0.36966368347E-01 -0.37570583445E-01  0.52722852225E-01  0.51100000000E-03 0. -1.
         11    1    4    4    0    0  0.83935710979E-02 -0.65569119367E-01 -0.43933974558E-01  0.79373904350E-01  0.51100000000E-03 0.  1.
</event>
<event>
 8    1  0.1117714E+005  0.1043930E+01  0.7957747E-01            NaN
         13   -1    0    0    0    0  0.00000000000E+00  0.00000000000E+00  0.74505805969E-08  0.10566000000E+00  0.10566000000E+00 0.  1.
     999900   -1    0    0    0    0 -0.00000000000E+00 -0.00000000000E+00 -0.74505805969E-08  0.93827000000E+00  0.93827000000E+00 0. -1.
     999902    2    1    2    0    0  0.81295615410E-02  0.21353109485E-01 -0.92453160737E-03  0.10210629973E+01  0.10208069086E+01 0.  0.
     999903    2    3    3    0    0  0.69405981221E-01 -0.19388663740E-01  0.10806214839E+00  0.13129179740E+00  0.19157182401E-01 0.  0.
         14    1    1    2    0    0 -0.81295615410E-02 -0.21353109485E-01  0.92453160737E-03  0.22867002738E-01  0.00000000000E+00 0.  1.
     999901    1    3    3    0    0 -0.61276419680E-01  0.40741773224E-01 -0.10898668000E+00  0.88977119987E+00  0.88000000000E+00 0. -1.
        -11    1    4    4    0    0  0.35807417838E-01 -0.13177362110E-01  0.40901199181E-01  0.55937315451E-01  0.51100000000E-03 0. -1.
         11    1    4    4    0    0  0.33598563383E-01 -0.62113016296E-02  0.67160949211E-01  0.75354481945E-01  0.51100000000E-03 0.  1.
</event>
<event>
 8    1  0.1117714E+005  0.1043930E+01  0.7957747E-01            NaN
         13   -1    0    0    0    0  0.00000000000E+00  0.00000000000E+00  0.74505805969E-08  0.10566000000E+00  0.10566000000E+00 0. -1.
     999900   -1    0    0    0    0 -0.00000000000E+00 -0.00000000000E+00 -0.74505805969E-08  0.93827000000E+00  0.93827000000E+00 0. -1.
     999902    2    1    2    0    0 -0.15778184566E-01  0.17056415652E-01  0.48173306943E-02  0.10202007122E+01  0.10199247100E+01 0.  0.
     999903    2    3    3    0    0  0.92339365772E-01 -0.62041626343E-01  0.58863213742E-01  0.12842335077E+00  0.25533452963E-01 0.  0.
         14    1    1    2    0    0  0.15778184566E-01 -0.17056415652E-01 -0.48173306943E-02  0.23729287771E-01  0.00000000000E+00 0. -1.
     999901    1    3    3    0    0 -0.10811755034E+00  0.79098041995E-01 -0.54045883048E-01  0.89177736146E+00  0.88000000000E+00 0.  1.
        -11    1    4    4    0    0  0.48448230998E-01 -0.45447671891E-01  0.27030649164E-01  0.71719168165E-01  0.51100000000E-03 0.  1.
         11    1    4    4    0    0  0.43891134774E-01 -0.16593954452E-01  0.31832564578E-01  0.56704182603E-01  0.51100000000E-03 0. -1.
</event>
<event>
 8    1  0.1117714E+005  0.1043930E+01  0.7957747E-01            NaN
         13   -1    0    0    0    0  0.00000000000E+00  0.00000000000E+00  0.74505805969E-08  0.10566000000E+00  0.10566000000E+00 0.  1.
     999900   -1    0    0    0    0 -0.00000000000E+00 -0.00000000000E+00 -0.74505805969E-08  0.93827000000E+00  0.93827000000E+00 0. -1.
     999902    2    1    2    0    0  0.22200905772E-01 -0.45617709690E-02 -0.63691138909E-02  0.10203873667E+01  0.10201157398E+01 0.  0.
     999903    2    3    3    0    0 -0.10511155610E+00  0.70631684856E-01  0.35665665472E-03  0.12802659058E+00  0.18799110634E-01 0.  0.
         14    1    1    2    0    0 -0.22200905772E-01  0.45617709690E-02  0.63691138909E-02  0.23542633311E-01  0.00000000000E+00 0.  1.
     999901    1    3    3    0    0  0.12731246187E+00 -0.75193455825E-01 -0.67257705456E-02  0.89236077611E+00  0.88000000000E+00 0.  1.
        -11    1    4    4    0    0 -0.31670724577E-01  0.16918006363E-01  0.77542348701E-02  0.36737487856E-01  0.51100000000E-03 0.  1.
         11    1    4    4    0    0 -0.73440831522E-01  0.53713678492E-01 -0.73975782154E-02  0.91289102725E-01  0.51100000000E-03 0. -1.
</event>
<event>
 8    1  0.1117714E+005  0.1043930E+01  0.7957747E-01            NaN
         13   -1    0    0    0    0  0.00000000000E+00  0.00000000000E+00  0.74505805969E-08  0.10566000000E+00  0.10566000000E+00 0. -1.
     999900   -1    0    0    0    0 -0.00000000000E+00 -0.00000000000E+00 -0.74505805969E-08  0.93827000000E+00  0.93827000000E+00 0.  1.
     999902    2    1    2    0    0 -0.10982749713E-01 -0.22000635119E-01  0.11334123366E-02  0.10193142863E+01  0.10190170170E+01 0.  0.
     999903    2    3    3    0    0 -0.64094315626E-01 -0.16416040735E-01 -0.11080143106E+00  0.13061780534E+00  0.20161504310E-01 0.  0.
         14    1    1    2    0    0  0.10982749713E-01  0.22000635119E-01 -0.11334123366E-02  0.24615713689E-01  0.00000000000E+00 0. -1.
     999901    1    3    3    0    0  0.53111565913E-01 -0.55845943837E-02  0.11193484340E+00  0.88869648097E+00  0.88000000000E+00 0. -1.
        -11    1    4    4    0    0 -0.10354166542E-01 -0.94594597548E-02 -0.14928173291E-01  0.20489061043E-01  0.51100000000E-03 0.  1.
         11    1    4    4    0    0 -0.53740149085E-01 -0.69565809802E-02 -0.95873257774E-01  0.11012874429E+00  0.51100000000E-03 0. -1.
</event>
<event>
 8    1  0.1117714E+005  0.1043930E+01  0.7957747E-01            NaN
         13   -1    0    0    0    0  0.00000000000E+00  0.00000000000E+00  0.74505805969E-08  0.10566000000E+00  0.10566000000E+00 0. -1.
     999900   -1    0    0    0    0 -0.00000000000E+00 -0.00000000000E+00 -0.74505805969E-08  0.93827000000E+00  0.93827000000E+00 0. -1.
     999902    2    1    2    0    0  0.17557634296E-02 -0.15908894750E-01 -0.17461335268E-01  0.10202430022E+01  0.10199679944E+01 0.  0.
     999903    2    3    3    0    0  0.12604897984E+00  0.16013034811E-01  0.18371178107E-01  0.13021391148E+00  0.21757756241E-01 0.  0.
         14    1    1    2    0    0 -0.17557634296E-02  0.15908894750E-01  0.17461335268E-01  0.23686997842E-01  0.00000000000E+00 0.  1.
     999901    1    3    3    0    0 -0.12429321641E+00 -0.31921929561E-01 -0.35832513375E-01  0.89002909067E+00  0.88000000000E+00 0. -1.
        -11    1    4    4    0    0  0.25352519695E-01 -0.20591956887E-02  0.10765014998E-01  0.27624938203E-01  0.51100000000E-03 0.  1.
         11    1    4    4    0    0  0.10069646014E+00  0.18072230499E-01  0.76061631082E-02  0.10258897328E+00  0.51100000000E-03 0. -1.
</event>
<event>
 8    1  0.1117714E+005  0.1043930E+01  0.7957747E-01            NaN
         13   -1    0    0    0    0  0.00000000000E+00  0.00000000000E+00  0.74505805969E-08  0.10566000000E+00  0.10566000000E+00 0.  1.
     999900   -1    0    0    0    0 -0.00000000000E+00 -0.00000000000E+00 -0.74505805969E-08  0.93827000000E+00  0.93827000000E+00 0. -1.
     999902    2    1    2    0    0 -0.92862321244E-02  0.20115997746E-01 -0.86373900960E-02  0.10201499247E+01  0.10198727259E+01 0.  0.
     999903    2    3    3    0    0 -0.84712003999E-01  0.74849034726E-01  0.65292786070E-01  0.13214630798E+00  0.20518215804E-01 0.  0.
         14    1    1    2    0    0  0.92862321244E-02 -0.20115997746E-01  0.86373900960E-02  0.23780075275E-01  0.00000000000E+00 0.  1.
     999901    1    3    3    0    0  0.75425771875E-01 -0.54733036979E-01 -0.73930176167E-01  0.88800361674E+00  0.88000000000E+00 0. -1.
        -11    1    4    4    0    0 -0.38958757913E-01  0.42138691185E-01  0.23239344723E-01  0.61917544986E-01  0.51100000000E-03 0. -1.
         11    1    4    4    0    0 -0.45753246086E-01  0.32710343540E-01  0.42053441347E-01  0.70228762997E-01  0.51100000000E-03 0.  1.
</event>
<event>
 8    1  0.1117714E+005  0.1043930E+01  0.7957747E-01            NaN
         13   -1    0    0    0    0  0.00000000000E+00  0.00000000000E+00  0.74505805969E-08  0.10566000000E+00  0.10566000000E+00 0.  1.
     999900   -1    0    0    0    0 -0.00000000000E+00 -0.00000000000E+00 -0.74505805969E-08  0.93827000000E+00  0.93827000000E+00 0.  1.
     999902    2    1    2    0    0 -0.40033642275E-02 -0.52453003161E-02  0.23564705324E-01  0.10194588856E+01  0.10191651407E+01 0.  0.
     999903    2    3    3    0    0 -0.92726266419E-01 -0.25706100666E-01  0.88757811835E-01  0.13236219483E+00  0.19566230176E-01 0.  0.
         14    1    1    2    0    0  0.40033642275E-02  0.52453003161E-02 -0.23564705324E-01  0.24471114351E-01  0.00000000000E+00 0. -1.
     999901    1    3    3    0    0  0.88722902192E-01  0.20460800350E-01 -0.65193106510E-01  0.88709669082E+00  0.88000000000E+00 0. -1.
        -11    1    4    4    0    0 -0.45080701428E-01 -0.21878872973E-01  0.40437118957E-01  0.64392363168E-01  0.51100000000E-03 0. -1.
         11    1    4    4    0    0 -0.47645564991E-01 -0.38272276932E-02  0.48320692877E-01  0.67969831663E-01  0.51100000000E-03 0.  1.
</event>
<event>
 8    1  0.1117714E+005  0.1043930E+01  0.7957747E-01            NaN
         13   -1    0    0    0    0  0.00000000000E+00  0.00000000000E+00  0.74505805969E-08  0.10566000000E+00  0.10566000000E+00 0. -1.
     999900   -1    0    0    0    0 -0.00000000000E+00 -0.00000000000E+00 -0.74505805969E-08  0.93827000000E+00  0.93827000000E+00 0. -1.
     999902    2    1    2    0    0 -0.65459065257E-03  0.22845892228E-01 -0.80134940989E-02  0.10197105993E+01  0.10194229383E+01 0.  0.
     999903    2    3    3    0    0  0.10031053734E-01  0.60616584452E-01  0.11338390965E+00  0.13050975711E+00  0.20047278685E-01 0.  0.
         14    1    1    2    0    0  0.65459065257E-03 -0.22845892228E-01  0.80134940989E-02  0.24219400659E-01  0.00000000000E+00 0. -1.
     999901    1    3    3    0    0 -0.10685644386E-01 -0.37770692225E-01 -0.12139740375E+00  0.88920084223E+00  0.88000000000E+00 0. -1.
        -11    1    4    4    0    0 -0.34207421002E-03  0.36386073577E-01  0.80649435156E-01  0.88479691891E-01  0.51100000000E-03 0.  1.
         11    1    4    4    0    0  0.10373127944E-01  0.24230510876E-01  0.32734474498E-01  0.42030065219E-01  0.51100000000E-03 0. -1.
</event>
<event>
 8    1  0.1117714E+005  0.1043930E+01  0.7957747E-01            NaN
         13   -1    0    0    0    0  0.00000000000E+00  0.00000000000E+00  0.74505805969E-08  0.10566000000E+00  0.10566000000E+00 0.  1.
     999900   -1    0    0    0    0 -0.00000000000E+00 -0.00000000000E+00 -0.74505805969E-08  0.93827000000E+00  0.93827000000E+00 0. -1.
     999902    2    1    2    0    0 -0.10955983642E-01 -0.21255510571E-01 -0.56184267144E-02  0.10193658589E+01  0.10190698491E+01 0.  0.
     999903    2    3    3    0    0  0.56770749909E-01 -0.45505919246E-01  0.10526771699E+00  0.12949467185E+00  0.19846185133E-01 0.  0.
         14    1    1    2    0    0  0.10955983642E-01  0.21255510571E-01  0.56184267144E-02  0.24564141059E-01  0.00000000000E+00 0.  1.
     999901    1    3    3    0    0 -0.67726733550E-01  0.24250408674E-01 -0.11088614370E+00  0.88987118710E+00  0.88000000000E+00 0. -1.
        -11    1    4    4    0    0  0.23873254510E-01 -0.11812758719E-01  0.51768556692E-01  0.58221285905E-01  0.51100000000E-03 0.  1.
         11    1    4    4    0    0  0.32897495398E-01 -0.33693160526E-01  0.53499160299E-01  0.71273385940E-01  0.51100000000E-03 0. -1.
</event>
<event>
 8    1  0.1117714E+005  0.1043930E+01  0.7957747E-01            NaN
         13   -1    0    0    0    0  0.00000000000E+00  0.00000000000E+00  0.74505805969E-08  0.10566000000E+00  0.10566000000E+00 0.  1.
     999900   -1    0    0    0    0 -0.00000000000E+00 -0.00000000000E+00 -0.74505805969E-08  0.93827000000E+00  0.93827000000E+00 0.  1.
     999902    2    1    2    0    0  0.22548617104E-01 -0.68177408831E-02  0.15705684525E-02  0.10203209253E+01  0.10200477450E+01 0.  0.
     999903    2    3    3    0    0  0.16645023941E-01 -0.11480529059E+00 -0.58972493267E-01  0.13163558972E+00  0.19820745478E-01 0.  0.
         14    1    1    2    0    0 -0.22548617104E-01  0.68177408831E-02 -0.15705684525E-02  0.23609074724E-01  0.00000000000E+00 0.  1.
     999901    1    3    3    0    0  0.59035931632E-02  0.10798754970E+00  0.60543061719E-01  0.88868533555E+00  0.88000000000E+00 0. -1.
        -11    1    4    4    0    0  0.29579199309E-02 -0.80703416621E-01 -0.43851254768E-01  0.91896596293E-01  0.51100000000E-03 0.  1.
         11    1    4    4    0    0  0.13687104010E-01 -0.34101873965E-01 -0.15121238499E-01  0.39738993430E-01  0.51100000000E-03 0. -1.
</event>
<event>
 8    1  0.1117714E+005  0.1043930E+01  0.7957747E-01            NaN
         13   -1    0    0    0    0  0.00000000000E+00  0.00000000000E+00  0.74505805969E-08  0.10566000000E+00  0.10566000000E+00 0.  1.
     999900   -1    0    0    0    0 -0.00000000000E+00 -0.00000000000E+00 -0.74505805969E-08  0.93827000000E+00  0.93827000000E+00 0.  1.
     999902    2    1    2    0    0 -0.17318619949E-01  0.14872897710E-01  0.46786655499E-02  0.10206270475E+01  0.10203609864E+01 0.  0.
     999903    2    3    3    0    0 -0.11608717213E+00 -0.56484616738E-01  0.16102500393E-01  0.13215778762E+00  0.23230300242E-01 0.  0.
         14    1    1    2    0    0  0.17318619949E-01 -0.14872897710E-01 -0.46786655499E-02  0.23302952486E-01  0.00000000000E+00 0. -1.
     999901    1    3    3    0    0  0.98768552181E-01  0.71357514448E-01 -0.11423834843E-01  0.88846925989E+00  0.88000000000E+00 0.  1.
        -11    1    4    4    0    0 -0.89057876481E-02 -0.56484815597E-02  0.80135938510E-02  0.13255082232E-01  0.51100000000E-03 0.  1.
         11    1    4    4    0    0 -0.10718138448E+00 -0.50836135179E-01  0.80889065423E-02  0.11890270539E+00  0.51100000000E-03 0. -1.
</event>
<event>
 8    1  0.1117714E+005  0.1043930E+01  0.7957747E-01            NaN
         13   -1    0    0    0    0  0.00000000000E+00  0.00000000000E+00  0.74505805969E-08  0.10566000000E+00  0.10566000000E+00 0. -1.
     999900   -1    0    0    0    0 -0.00000000000E+00 -0.00000000000E+00 -0.74505805969E-08  0.93827000000E+00  0.93827000000E+00 0.  1.
     999902    2    1    2    0    0 -0.16768867861E-01  0.64249338876E-02  0.15531239408E-01  0.10201877570E+01  0.10199114498E+01 0.  0.
     999903    2    3    3    0    0 -0.22318161870E-01 -0.12426057018E+00  0.26723262408E-01  0.13044916786E+00  0.19080434766E-01 0.  0.
         14    1    1    2    0    0  0.16768867861E-01 -0.64249338876E-02 -0.15531239408E-01  0.23742242993E-01  0.00000000000E+00 0.  1.
     999901    1    3    3    0    0  0.55492940093E-02  0.13068550407E+00 -0.11192022999E-01  0.88973858915E+00  0.88000000000E+00 0.  1.
        -11    1    4    4    0    0 -0.47192226900E-02 -0.75757541510E-01  0.19270493136E-01  0.78314042069E-01  0.51100000000E-03 0. -1.
         11    1    4    4    0    0 -0.17598939180E-01 -0.48503028671E-01  0.74527692719E-02  0.52135125792E-01  0.51100000000E-03 0.  1.
</event>
<event>
 8    1  0.1117714E+005  0.1043930E+01  0.7957747E-01            NaN
         13   -1    0    0    0    0  0.00000000000E+00  0.00000000000E+00  0.74505805969E-08  0.10566000000E+00  0.10566000000E+00 0. -1.
     999900   -1    0    0    0    0 -0.00000000000E+00 -0.00000000000E+00 -0.74505805969E-08  0.93827000000E+00  0.93827000000E+00 0.  1.
     999902    2    1    2    0    0  0.14121779202E-01 -0.16171636784E-01 -0.97472181151E-02  0.10203513074E+01  0.10200788380E+01 0.  0.
     999903    2    3    3    0    0 -0.22995799628E-01 -0.95321486284E-01  0.84537733149E-01  0.13100769249E+00  0.20034835100E-01 0.  0.
         14    1    1    2    0    0 -0.14121779202E-01  0.16171636784E-01  0.97472181151E-02  0.23578692607E-01  0.00000000000E+00 0.  1.
     999901    1    3    3    0    0  0.37117578830E-01  0.79149849500E-01 -0.94284951265E-01  0.88934361490E+00  0.88000000000E+00 0.  1.
        -11    1    4    4    0    0 -0.17201282261E-01 -0.55737820388E-01  0.61826752341E-01  0.85002336198E-01  0.51100000000E-03 0. -1.
         11    1    4    4    0    0 -0.57945173671E-02 -0.39583665896E-01  0.22710980809E-01  0.46005356292E-01  0.51100000000E-03 0.  1.
</event>
<event>
 8    1  0.1117714E+005  0.1043930E+01  0.7957747E-01            NaN
         13   -1    0    0    0    0  0.00000000000E+00  0.00000000000E+00  0.74505805969E-08  0.10566000000E+00  0.10566000000E+00 0. -1.
     999900   -1    0    0    0    0 -0.00000000000E+00 -0.00000000000E+00 -0.74505805969E-08  0.93827000000E+00  0.93827000000E+00 0. -1.
     999902    2    1    2    0    0  0.16813359599E-01 -0.16557707712E-02  0.13071864418E-01  0.10225687201E+01  0.10223455791E+01 0.  0.
     999903    2    3    3    0    0 -0.84380770405E-01  0.47337080515E-01  0.87829342727E-01  0.13227144845E+00  0.20514117684E-01 0.  0.
         14    1    1    2    0    0 -0.16813359599E-01  0.16557707712E-02 -0.13071864418E-01  0.21361279859E-01  0.00000000000E+00 0.  1.
     999901    1    3    3    0    0  0.10119413000E+00 -0.48992851286E-01 -0.74757478308E-01  0.89029727169E+00  0.88000000000E+00 0. -1.
        -11    1    4    4    0    0 -0.35420786243E-01  0.16870804730E-01  0.48892892523E-01  0.62689968979E-01  0.51100000000E-03 0. -1.
         11    1    4    4    0    0 -0.48959984162E-01  0.30466275785E-01  0.38936450204E-01  0.69581479467E-01  0.51100000000E-03 0.  1.
</event>
<event>
 8    1  0.1117714E+005  0.1043930E+01  0.7957747E-01            NaN
         13   -1    0    0    0    0  0.00000000000E+00  0.00000000000E+00  0.74505805969E-08  0.10566000000E+00  0.10566000000E+00 0. -1.
     999900   -1    0    0    0    0 -0.00000000000E+00 -0.00000000000E+00 -0.74505805969E-08  0.93827000000E+00  0.93827000000E+00 0. -1.
     999902    2    1    2    0    0 -0.94506686896E-02  0.56218957993E-02  0.19704080375E-01  0.10213651682E+01  0.10211158774E+01 0.  0.
     999903    2    3    3    0    0 -0.73766426875E-01  0.68283530297E-01 -0.81566017902E-01  0.13101769108E+00  0.20211230957E-01 0.  0.
         14    1    1    2    0    0  0.94506686896E-02 -0.56218957993E-02 -0.19704080375E-01  0.22564831807E-01  0.00000000000E+00 0.  1.
     999901    1    3    3    0    0  0.64315758185E-01 -0.62661634498E-01  0.10127009828E+00  0.89034747711E+00  0.88000000000E+00 0.  1.
        -11    1    4    4    0    0 -0.32905854819E-01  0.43726452261E-01 -0.46862150758E-01  0.72049428890E-01  0.51100000000E-03 0.  1.
         11    1    4    4    0    0 -0.40860572056E-01  0.24557078037E-01 -0.34703867143E-01  0.58968262194E-01  0.51100000000E-03 0. -1.
</event>
<event>
 8    1  0.1117714E+005  0.1043930E+01  0.7957747E-01            NaN
         13   -1    0    0    0    0  0.00000000000E+00  0.00000000000E+00  0.74505805969E-08  0.10566000000E+00  0.10566000000E+00 0.  1.
     999900   -1    0    0    0    0 -0.00000000000E+00 -0.00000000000E+00 -0.74505805969E-08  0.93827000000E+00  0.93827000000E+00 0. -1.
     999902    2    1    2    0    0 -0.16028543645E-01 -0.14853016939E-01  0.93394901638E-02  0.10201654802E+01  0.10198886482E+01 0.  0.
     999903    2    3    3    0    0 -0.65522055744E-01 -0.92047067615E-01  0.69374834923E-01  0.13336630802E+00  0.14418805416E-01 0.  0.
         14    1    1    2    0    0  0.16028543645E-01  0.14853016939E-01 -0.93394901638E-02  0.23764519774E-01  0.00000000000E+00 0. -1.
     999901    1    3    3    0    0  0.49493512099E-01  0.77194050676E-01 -0.60035344759E-01  0.88679917220E+00  0.88000000000E+00 0. -1.
        -11    1    4    4    0    0 -0.29566239763E-01 -0.50020108030E-01  0.29398098780E-01  0.65120527286E-01  0.51100000000E-03 0.  1.
         11    1    4    4    0    0 -0.35955815980E-01 -0.42026959585E-01  0.39976736143E-01  0.68245780737E-01  0.51100000000E-03 0. -1.
</event>
<event>
 8    1  0.1117714E+005  0.1043930E+01  0.7957747E-01            NaN
         13   -1    0    0    0    0  0.00000000000E+00  0.00000000000E+00  0.74505805969E-08  0.10566000000E+00  0.10566000000E+00 0. -1.
     999900   -1    0    0    0    0 -0.00000000000E+00 -0.00000000000E+00 -0.74505805969E-08  0.93827000000E+00  0.93827000000E+00 0. -1.
     999902    2    1    2    0    0 -0.18978044876E-01 -0.94980319855E-02  0.99455261195E-02  0.10204930145E+01  0.10202238482E+01 0.  0.
     999903    2    3    3    0    0 -0.78956992551E-01 -0.87933168837E-01  0.59257706192E-01  0.13359886302E+00  0.19254391742E-01 0.  0.
         14    1    1    2    0    0  0.18978044876E-01  0.94980319855E-02 -0.99455261195E-02  0.23436985487E-01  0.00000000000E+00 0.  1.
     999901    1    3    3    0    0  0.59978947675E-01  0.78435136852E-01 -0.49312180073E-01  0.88689415150E+00  0.88000000000E+00 0.  1.
        -11    1    4    4    0    0 -0.58986476799E-01 -0.69409741374E-01  0.53872789491E-01  0.10582842346E+00  0.51100000000E-03 0.  1.
         11    1    4    4    0    0 -0.19970515753E-01 -0.18523427463E-01  0.53849167006E-02  0.27770439559E-01  0.51100000000E-03 0. -1.
</event>
<event>
 8    1  0.1117714E+005  0.1043930E+01  0.7957747E-01            NaN
         13   -1    0    0    0    0  0.00000000000E+00  0.00000000000E+00  0.74505805969E-08  0.10566000000E+00  0.10566000000E+00 0.  1.
     999900   -1    0    0    0    0 -0.00000000000E+00 -0.00000000000E+00 -0.74505805969E-08  0.93827000000E+00  0.93827000000E+00 0. -1.
     999902    2    1    2    0    0  0.10020158163E-01  0.25833934367E-01  0.16337899485E-01  0.10117628942E+01  0.10112514185E+01 0.  0.
     999903    2    3    3    0    0 -0.46624542543E-01 -0.24249723114E-01  0.11001365772E+00  0.12356688965E+00  0.20096623962E-01 0.  0.
         14    1    1    2    0    0 -0.10020158163E-01 -0.25833934367E-01 -0.16337899485E-01  0.32167105777E-01  0.00000000000E+00 0.  1.
     999901    1    3    3    0    0  0.56644700707E-01  0.50083657481E-01 -0.93675758231E-01  0.88819600458E+00  0.88000000000E+00 0. -1.
        -11    1    4    4    0    0 -0.28431640489E-01 -0.88227008910E-02  0.41943138281E-01  0.51436234327E-01  0.51100000000E-03 0.  1.
         11    1    4    4    0    0 -0.18192902054E-01 -0.15427022223E-01  0.68070519434E-01  0.72130655320E-01  0.51100000000E-03 0. -1.
</event>
<event>
 8    1  0.1117714E+005  0.1043930E+01  0.7957747E-01            NaN
         13   -1    0    0    0    0  0.00000000000E+00  0.00000000000E+00  0.74505805969E-08  0.10566000000E+00  0.10566000000E+00 0.  1.
     999900   -1    0    0    0    0 -0.00000000000E+00 -0.00000000000E+00 -0.74505805969E-08  0.93827000000E+00  0.93827000000E+00 0.  1.
     999902    2    1    2    0    0  0.11933889257E-01 -0.17505176541E-01 -0.13677597268E-01  0.10187124350E+01  0.10184002649E+01 0.  0.
     999903    2    3    3    0    0 -0.35587127123E-01 -0.11154973643E+00 -0.56238110457E-01  0.13140525957E+00  0.19870326128E-01 0.  0.
         14    1    1    2    0    0 -0.11933889257E-01  0.17505176541E-01  0.13677597268E-01  0.25217565021E-01  0.00000000000E+00 0.  1.
     999901    1    3    3    0    0  0.47521016380E-01  0.94044559893E-01  0.42560513189E-01  0.88730717541E+00  0.88000000000E+00 0. -1.
        -11    1    4    4    0    0 -0.11954501818E-01 -0.69403179491E-01 -0.32397842676E-01  0.77521563247E-01  0.51100000000E-03 0. -1.
         11    1    4    4    0    0 -0.23632625305E-01 -0.42146556944E-01 -0.23840267780E-01  0.53883696327E-01  0.51100000000E-03 0.  1.
</event>
<event>
 8    1  0.1117714E+005  0.1043930E+01  0.7957747E-01            NaN
         13   -1    0    0    0    0  0.00000000000E+00  0.00000000000E+00  0.74505805969E-08  0.10566000000E+00  0.10566000000E+00 0.  1.
     999900   -1    0    0    0    0 -0.00000000000E+00 -0.00000000000E+00 -0.74505805969E-08  0.93827000000E+00  0.93827000000E+00 0. -1.
     999902    2    1    2    0    0  0.23157324523E-01 -0.31438007586E-02  0.32843394356E-02  0.10203305922E+01  0.10200576383E+01 0.  0.
     999903    2    3    3    0    0  0.26583324372E-01  0.11537237585E+00  0.52750148953E-01  0.13100236940E+00  0.19015370870E-01 0.  0.
         14    1    1    2    0    0 -0.23157324523E-01  0.31438007586E-02 -0.32843394356E-02  0.23599407785E-01  0.00000000000E+00 0. -1.
     999901    1    3    3    0    0 -0.34259998495E-02 -0.11851617661E+00 -0.49465809518E-01  0.88932822282E+00  0.88000000000E+00 0. -1.
        -11    1    4    4    0    0  0.18127279367E-02  0.48609043028E-01  0.23359608544E-01  0.53963482828E-01  0.51100000000E-03 0. -1.
         11    1    4    4    0    0  0.24770596436E-01  0.66763332820E-01  0.29390540409E-01  0.77038886567E-01  0.51100000000E-03 0.  1.
</event>
<event>
 8    1  0.1117714E+005  0.1043930E+01  0.7957747E-01            NaN
         13   -1    0    0    0    0  0.00000000000E+00  0.00000000000E+00  0.74505805969E-08  0.10566000000E+00  0.10566000000E+00 0.  1.
     999900   -1    0    0    0    0 -0.00000000000E+00 -0.00000000000E+00 -0.74505805969E-08  0.93827000000E+00  0.93827000000E+00 0. -1.
     999902    2    1    2    0    0 -0.10564760089E-01  0.63205606608E-02 -0.20094971290E-01  0.10203636784E+01  0.10200914982E+01 0.  0.
     999903    2    3    3    0    0 -0.76156741116E-01  0.17889860079E-01 -0.10649407795E+00  0.13362754950E+00  0.19885598680E-01 0.  0.
         14    1    1    2    0    0  0.10564760089E-01 -0.63205606608E-02  0.20094971290E-01  0.23566321604E-01  0.00000000000E+00 0.  1.
     999901    1    3    3    0    0  0.65591981028E-01 -0.11569299418E-01  0.86399106660E-01  0.88673612890E+00  0.88000000000E+00 0.  1.
        -11    1    4    4    0    0 -0.27405689839E-01  0.58048795636E-02 -0.54812510840E-01  0.61558435067E-01  0.51100000000E-03 0.  1.
         11    1    4    4    0    0 -0.48751051277E-01  0.12084980515E-01 -0.51681567110E-01  0.72069114429E-01  0.51100000000E-03 0. -1.
</event>
<event>
 8    1  0.1117714E+005  0.1043930E+01  0.7957747E-01            NaN
         13   -1    0    0    0    0  0.00000000000E+00  0.00000000000E+00  0.74505805969E-08  0.10566000000E+00  0.10566000000E+00 0.  1.
     999900   -1    0    0    0    0 -0.00000000000E+00 -0.00000000000E+00 -0.74505805969E-08  0.93827000000E+00  0.93827000000E+00 0.  1.
     999902    2    1    2    0    0  0.19018279373E-01 -0.90849028191E-02  0.10463576435E-01  0.10203988113E+01  0.10201274515E+01 0.  0.
     999903    2    3    3    0    0  0.75836713682E-02 -0.23227277914E-01 -0.12587088805E+00  0.12971489249E+00  0.19632991755E-01 0.  0.
         14    1    1    2    0    0 -0.19018279373E-01  0.90849028191E-02 -0.10463576435E-01  0.23531188694E-01  0.00000000000E+00 0. -1.
     999901    1    3    3    0    0  0.11434608005E-01  0.14142375094E-01  0.13633446448E+00  0.89068391882E+00  0.88000000000E+00 0. -1.
        -11    1    4    4    0    0  0.10524556111E-01 -0.24807519449E-01 -0.97953287025E-01  0.10159373437E+00  0.51100000000E-03 0. -1.
         11    1    4    4    0    0 -0.29408847426E-02  0.15802415356E-02 -0.27917601021E-01  0.28121158122E-01  0.51100000000E-03 0.  1.
</event>
<event>
 8    1  0.1117714E+005  0.1043930E+01  0.7957747E-01            NaN
         13   -1    0    0    0    0  0.00000000000E+00  0.00000000000E+00  0.74505805969E-08  0.10566000000E+00  0.10566000000E+00 0.  1.
     999900   -1    0    0    0    0 -0.00000000000E+00 -0.00000000000E+00 -0.74505805969E-08  0.93827000000E+00  0.93827000000E+00 0.  1.
     999902    2    1    2    0    0 -0.48108850190E-02 -0.22355314720E-01 -0.32825467671E-02  0.10208284887E+01  0.10205670598E+01 0.  0.
     999903    2    3    3    0    0  0.25708361154E-01 -0.12778583886E+00  0.21437128776E-01  0.13366554867E+00  0.20415385531E-01 0.  0.
         14    1    1    2    0    0  0.48108850190E-02  0.22355314720E-01  0.32825467671E-02  0.23101511297E-01  0.00000000000E+00 0. -1.
     999901    1    3    3    0    0 -0.30519246173E-01  0.10543052413E+00 -0.24719675543E-01  0.88716294003E+00  0.88000000000E+00 0.  1.
        -11    1    4    4    0    0  0.17582839801E-01 -0.97849616106E-01  0.76368451267E-02  0.99711013193E-01  0.51100000000E-03 0. -1.
         11    1    4    4    0    0  0.81255213523E-02 -0.29936222750E-01  0.13800283649E-01  0.33954535479E-01  0.51100000000E-03 0.  1.
</event>
<event>
 8    1  0.1117714E+005  0.1043930E+01  0.7957747E-01            NaN
         13   -1    0    0    0    0  0.00000000000E+00  0.00000000000E+00  0.74505805969E-08  0.10566000000E+00  0.10566000000E+00 0. -1.
     999900   -1    0    0    0    0 -0.00000000000E+00 -0.00000000000E+00 -0.74505805969E-08  0.93827000000E+00  0.93827000000E+00 0.  1.
     999902    2    1    2    0    0  0.21573270221E-01  0.96927881899E-02  0.68740977996E-02  0.10193005593E+01  0.10190029542E+01 0.  0.
     999903    2    3    3    0    0 -0.74542643240E-01 -0.27612220157E-01  0.98988525499E-01  0.12850596999E+00  0.19900145221E-01 0.  0.
         14    1    1    2    0    0 -0.21573270221E-01 -0.96927881899E-02 -0.68740977996E-02  0.24629440746E-01  0.00000000000E+00 0. -1.
     999901    1    3    3    0    0  0.96115913461E-01  0.37305008347E-01 -0.92114427700E-01  0.89079458926E+00  0.88000000000E+00 0. -1.
        -11    1    4    4    0    0 -0.19602360476E-01 -0.11305538266E-01  0.16279602467E-01  0.27881074391E-01  0.51100000000E-03 0. -1.
         11    1    4    4    0    0 -0.54940282764E-01 -0.16306681891E-01  0.82708923033E-01  0.10062489560E+00  0.51100000000E-03 0.  1.
</event>
<event>
 8    1  0.1117714E+005  0.1043930E+01  0.7957747E-01            NaN
         13   -1    0    0    0    0  0.00000000000E+00  0.00000000000E+00  0.74505805969E-08  0.10566000000E+00  0.10566000000E+00 0.  1.
     999900   -1    0    0    0    0 -0.00000000000E+00 -0.00000000000E+00 -0.74505805969E-08  0.93827000000E+00  0.93827000000E+00 0. -1.
     999902    2    1    2    0    0  0.67699401845E-02 -0.55185698406E-02 -0.21587283597E-01  0.10206427177E+01  0.10203770184E+01 0.  0.
     999903    2    3    3    0    0  0.65874762247E-01  0.10982642093E+00 -0.17061181878E-01  0.13113817445E+00  0.22467973580E-01 0.  0.
         14    1    1    2    0    0 -0.67699401845E-02  0.55185698406E-02  0.21587283597E-01  0.23287282286E-01  0.00000000000E+00 0.  1.
     999901    1    3    3    0    0 -0.59104822063E-01 -0.11534499077E+00 -0.45261017187E-02  0.88950454326E+00  0.88000000000E+00 0.  1.
        -11    1    4    4    0    0  0.24432364634E-01  0.45832454498E-01  0.38403400157E-02  0.52082277786E-01  0.51100000000E-03 0. -1.
         11    1    4    4    0    0  0.41442397613E-01  0.63993966429E-01 -0.20901521894E-01  0.79055896667E-01  0.51100000000E-03 0.  1.
</event>
<event>
 8    1  0.1117714E+005  0.1043930E+01  0.7957747E-01            NaN
         13   -1    0    0    0    0  0.00000000000E+00  0.00000000000E+00  0.74505805969E-08  0.10566000000E+00  0.10566000000E+00 0. -1.
     999900   -1    0    0    0    0 -0.00000000000E+00 -0.00000000000E+00 -0.74505805969E-08  0.93827000000E+00  0.93827000000E+00 0.  1.
     999902    2    1    2    0    0  0.48957074647E-02 -0.18060901281E-02 -0.25186086391E-01  0.10182090191E+01  0.10178840983E+01 0.  0.
     999903    2    3    3    0    0  0.71983951873E-01  0.10431742662E+00 -0.15316213352E-01  0.12924307610E+00  0.20133839782E-01 0.  0.
         14    1    1    2    0    0 -0.48957074647E-02  0.18060901281E-02  0.25186086391E-01  0.25720980946E-01  0.00000000000E+00 0. -1.
     999901    1    3    3    0    0 -0.67088244409E-01 -0.10612351674E+00 -0.98698730384E-02  0.88896594296E+00  0.88000000000E+00 0.  1.
        -11    1    4    4    0    0  0.26001201146E-01  0.42931166166E-01  0.33455077616E-02  0.50305079590E-01  0.51100000000E-03 0. -1.
         11    1    4    4    0    0  0.45982750728E-01  0.61386260450E-01 -0.18661721114E-01  0.78937996507E-01  0.51100000000E-03 0.  1.
</event>
<event>
 8    1  0.1117714E+005  0.1043930E+01  0.7957747E-01            NaN
         13   -1    0    0    0    0  0.00000000000E+00  0.00000000000E+00  0.74505805969E-08  0.10566000000E+00  0.10566000000E+00 0. -1.
     999900   -1    0    0    0    0 -0.00000000000E+00 -0.00000000000E+00 -0.74505805969E-08  0.93827000000E+00  0.93827000000E+00 0.  1.
     999902    2    1    2    0    0  0.12951820145E-01  0.13572782688E-01 -0.14399783829E-01  0.10202799715E+01  0.10200058315E+01 0.  0.
     999903    2    3    3    0    0  0.56163744089E-01  0.73726466352E-01 -0.94090934767E-01  0.13358023900E+00  0.20015450416E-01 0.  0.
         14    1    1    2    0    0 -0.12951820145E-01 -0.13572782688E-01  0.14399783829E-01  0.23650028526E-01  0.00000000000E+00 0. -1.
     999901    1    3    3    0    0 -0.43211923944E-01 -0.60153683665E-01  0.79691150939E-01  0.88669973247E+00  0.88000000000E+00 0. -1.
        -11    1    4    4    0    0  0.35497147586E-01  0.53041482289E-01 -0.75775234391E-01  0.99073677625E-01  0.51100000000E-03 0.  1.
         11    1    4    4    0    0  0.20666596503E-01  0.20684984063E-01 -0.18315700376E-01  0.34506561376E-01  0.51100000000E-03 0. -1.
</event>
<event>
 8    1  0.1117714E+005  0.1043930E+01  0.7957747E-01            NaN
         13   -1    0    0    0    0  0.00000000000E+00  0.00000000000E+00  0.74505805969E-08  0.10566000000E+00  0.10566000000E+00 0. -1.
     999900   -1    0    0    0    0 -0.00000000000E+00 -0.00000000000E+00 -0.74505805969E-08  0.93827000000E+00  0.93827000000E+00 0. -1.
     999902    2    1    2    0    0  0.20415953487E-01 -0.62135122437E-02  0.10614999843E-01  0.10200952121E+01  0.10198167211E+01 0.  0.
     999903    2    3    3    0    0 -0.18021895275E-01  0.37731449296E-01 -0.11945623644E+00  0.12862050448E+00  0.22912677122E-01 0.  0.
         14    1    1    2    0    0 -0.20415953487E-01  0.62135122437E-02 -0.10614999843E-01  0.23834787871E-01  0.00000000000E+00 0.  1.
     999901    1    3    3    0    0  0.38437848761E-01 -0.43944961540E-01  0.13007123629E+00  0.89147470765E+00  0.88000000000E+00 0.  1.
        -11    1    4    4    0    0 -0.35256459969E-02  0.45039227652E-02 -0.49456966557E-01  0.49789237411E-01  0.51100000000E-03 0.  1.
         11    1    4    4    0    0 -0.14496249278E-01  0.33227526531E-01 -0.69999269888E-01  0.78831267073E-01  0.51100000000E-03 0. -1.
</event>
<event>
 8    1  0.1117714E+005  0.1043930E+01  0.7957747E-01            NaN
         13   -1    0    0    0    0  0.00000000000E+00  0.00000000000E+00  0.74505805969E-08  0.10566000000E+00  0.10566000000E+00 0.  1.
     999900   -1    0    0    0    0 -0.00000000000E+00 -0.00000000000E+00 -0.74505805969E-08  0.93827000000E+00  0.93827000000E+00 0.  1.
     999902    2    1    2    0    0 -0.70413570405E-02 -0.24245623314E-01  0.48140865705E-02  0.10182277357E+01  0.10179032938E+01 0.  0.
     999903    2    3    3    0    0 -0.94721127255E-01  0.60885820024E-01 -0.57556825149E-01  0.12759580537E+00  0.16991951020E-01 0.  0.
         14    1    1    2    0    0  0.70413570405E-02  0.24245623314E-01 -0.48140865705E-02  0.25702264265E-01  0.00000000000E+00 0. -1.
     999901    1    3    3    0    0  0.87679770214E-01 -0.85131443338E-01  0.62370911719E-01  0.89063193036E+00  0.88000000000E+00 0. -1.
        -11    1    4    4    0    0 -0.27186487731E-01  0.13730835138E-01 -0.23457501311E-01  0.38446800094E-01  0.51100000000E-03 0.  1.
         11    1    4    4    0    0 -0.67534639524E-01  0.47154984886E-01 -0.34099323838E-01  0.89149005280E-01  0.51100000000E-03 0. -1.
</event>
<event>
 8    1  0.1117714E+005  0.1043930E+01  0.7957747E-01            NaN
         13   -1    0    0    0    0  0.00000000000E+00  0.00000000000E+00  0.74505805969E-08  0.10566000000E+00  0.10566000000E+00 0.  1.
     999900   -1    0    0    0    0 -0.00000000000E+00 -0.00000000000E+00 -0.74505805969E-08  0.93827000000E+00  0.93827000000E+00 0.  1.
     999902    2    1    2    0    0  0.20578071435E-01  0.39596227761E-02  0.15759194349E-01  0.10177100106E+01  0.10173721924E+01 0.  0.
     999903    2    3    3    0    0 -0.47112920429E-01 -0.48547964811E-01 -0.10372754148E+00  0.12551261252E+00  0.20432348936E-01 0.  0.
         14    1    1    2    0    0 -0.20578071435E-01 -0.39596227761E-02 -0.15759194349E-01  0.26219989379E-01  0.00000000000E+00 0. -1.
     999901    1    3    3    0    0  0.67690991864E-01  0.52507587587E-01  0.11948673583E+00  0.89219739810E+00  0.88000000000E+00 0. -1.
        -11    1    4    4    0    0 -0.25238738697E-01 -0.14955986454E-01 -0.32558636310E-01  0.43829229758E-01  0.51100000000E-03 0. -1.
         11    1    4    4    0    0 -0.21874181732E-01 -0.33591978357E-01 -0.71168905166E-01  0.81683382765E-01  0.51100000000E-03 0.  1.
</event>
<event>
 8    1  0.1117714E+005  0.1043930E+01  0.7957747E-01            NaN
         13   -1    0    0    0    0  0.00000000000E+00  0.00000000000E+00  0.74505805969E-08  0.10566000000E+00  0.10566000000E+00 0.  1.
     999900   -1    0    0    0    0 -0.00000000000E+00 -0.00000000000E+00 -0.74505805969E-08  0.93827000000E+00  0.93827000000E+00 0.  1.
     999902    2    1    2    0    0  0.17155283876E-01 -0.14478996178E-01  0.70932885614E-02  0.10203872763E+01  0.10201156473E+01 0.  0.
     999903    2    3    3    0    0  0.96292587605E-01 -0.73199659050E-01 -0.51235861577E-01  0.13296791726E+00  0.20613126814E-01 0.  0.
         14    1    1    2    0    0 -0.17155283876E-01  0.14478996178E-01 -0.70932885614E-02  0.23542723670E-01  0.00000000000E+00 0. -1.
     999901    1    3    3    0    0 -0.79137303729E-01  0.58720662872E-01  0.58329150138E-01  0.88741935907E+00  0.88000000000E+00 0. -1.
        -11    1    4    4    0    0  0.92055379127E-01 -0.64549224941E-01 -0.43318659819E-01  0.12048884876E+00  0.51100000000E-03 0.  1.
         11    1    4    4    0    0  0.42372084784E-02 -0.86504341093E-02 -0.79172017580E-02  0.12479068501E-01  0.51100000000E-03 0. -1.
</event>
<event>
 8    1  0.1117714E+005  0.1043930E+01  0.7957747E-01            NaN
         13   -1    0    0    0    0  0.00000000000E+00  0.00000000000E+00  0.74505805969E-08  0.10566000000E+00  0.10566000000E+00 0.  1.
     999900   -1    0    0    0    0 -0.00000000000E+00 -0.00000000000E+00 -0.74505805969E-08  0.93827000000E+00  0.93827000000E+00 0. -1.
     999902    2    1    2    0    0 -0.49041463354E-02  0.22887004728E-01 -0.30758861503E-02  0.10203222319E+01  0.10200490823E+01 0.  0.
     999903    2    3    3    0    0  0.21472158284E-01  0.12484006424E+00 -0.36943837289E-01  0.13339654515E+00  0.19588157716E-01 0.  0.
         14    1    1    2    0    0  0.49041463354E-02 -0.22887004728E-01  0.30758861503E-02  0.23607768050E-01  0.00000000000E+00 0.  1.
     999901    1    3    3    0    0 -0.26376304619E-01 -0.10195305952E+00  0.33867951139E-01  0.88692568680E+00  0.88000000000E+00 0. -1.
        -11    1    4    4    0    0  0.17813554288E-01  0.78605349837E-01 -0.32119295679E-01  0.86764243876E-01  0.51100000000E-03 0. -1.
         11    1    4    4    0    0  0.36586039962E-02  0.46234714406E-01 -0.48245416105E-02  0.46632301275E-01  0.51100000000E-03 0.  1.
</event>
<event>
 8    1  0.1117714E+005  0.1043930E+01  0.7957747E-01            NaN
         13   -1    0    0    0    0  0.00000000000E+00  0.00000000000E+00  0.74505805969E-08  0.10566000000E+00  0.10566000000E+00 0. -1.
     999900   -1    0    0    0    0 -0.00000000000E+00 -0.00000000000E+00 -0.74505805969E-08  0.93827000000E+00  0.93827000000E+00 0. -1.
     999902    2    1    2    0    0 -0.21434954053E-01  0.83769100468E-02 -0.20337651340E-02  0.10208266219E+01  0.10205651503E+01 0.  0.
     999903    2    3    3    0    0 -0.70672052340E-01  0.11144245972E+00 -0.16126219072E-02  0.13344453020E+00  0.19770717762E-01 0.  0.
         14    1    1    2    0    0  0.21434954053E-01 -0.83769100468E-02  0.20337651340E-02  0.23103378060E-01  0.00000000000E+00 0. -1.
     999901    1    3    3    0    0  0.49237098287E-01 -0.10306554967E+00 -0.42114322680E-03  0.88738209174E+00  0.88000000000E+00 0.  1.
        -11    1    4    4    0    0 -0.47870739820E-01  0.57794357677E-01  0.15633617602E-02  0.75063311486E-01  0.51100000000E-03 0.  1.
         11    1    4    4    0    0 -0.22801312520E-01  0.53648102043E-01 -0.31759836674E-02  0.58381218715E-01  0.51100000000E-03 0. -1.
</event>
<event>
 8    1  0.1117714E+005  0.1043930E+01  0.7957747E-01            NaN
         13   -1    0    0    0    0  0.00000000000E+00  0.00000000000E+00  0.74505805969E-08  0.10566000000E+00  0.10566000000E+00 0.  1.
     999900   -1    0    0    0    0 -0.00000000000E+00 -0.00000000000E+00 -0.74505805969E-08  0.93827000000E+00  0.93827000000E+00 0. -1.
     999902    2    1    2    0    0 -0.21936619698E-01  0.34967439789E-02 -0.20140561854E-02  0.10216253161E+01  0.10213818030E+01 0.  0.
     999903    2    3    3    0    0  0.76671156316E-01 -0.59502030669E-01  0.84110173692E-01  0.12971179894E+00  0.18211853300E-01 0.  0.
         14    1    1    2    0    0  0.21936619698E-01 -0.34967439789E-02  0.20140561854E-02  0.22304683915E-01  0.00000000000E+00 0. -1.
     999901    1    3    3    0    0 -0.98607776014E-01  0.62998774648E-01 -0.86124229877E-01  0.89191351715E+00  0.88000000000E+00 0. -1.
        -11    1    4    4    0    0  0.48150006591E-01 -0.39916265384E-01  0.64906004763E-01  0.90137572367E-01  0.51100000000E-03 0. -1.
         11    1    4    4    0    0  0.28521149725E-01 -0.19585765285E-01  0.19204168929E-01  0.39574226571E-01  0.51100000000E-03 0.  1.
</event>
<event>
 8    1  0.1117714E+005  0.1043930E+01  0.7957747E-01            NaN
         13   -1    0    0    0    0  0.00000000000E+00  0.00000000000E+00  0.74505805969E-08  0.10566000000E+00  0.10566000000E+00 0.  1.
     999900   -1    0    0    0    0 -0.00000000000E+00 -0.00000000000E+00 -0.74505805969E-08  0.93827000000E+00  0.93827000000E+00 0. -1.
     999902    2    1    2    0    0 -0.23210226729E-02  0.10035732514E-01  0.22399659556E-01  0.10192754300E+01  0.10189772099E+01 0.  0.
     999903    2    3    3    0    0 -0.12209190325E+00  0.90325291279E-02 -0.36744711268E-01  0.12919446355E+00  0.18788724920E-01 0.  0.
         14    1    1    2    0    0  0.23210226729E-02 -0.10035732514E-01 -0.22399659556E-01  0.24654569993E-01  0.00000000000E+00 0. -1.
     999901    1    3    3    0    0  0.11977088058E+00  0.10032033858E-02  0.59144370823E-01  0.89008096646E+00  0.88000000000E+00 0.  1.
        -11    1    4    4    0    0 -0.90149674850E-01 -0.12735696743E-02 -0.24113638190E-01  0.93329065800E-01  0.51100000000E-03 0. -1.
         11    1    4    4    0    0 -0.31942228398E-01  0.10306098802E-01 -0.12631073078E-01  0.35865397749E-01  0.51100000000E-03 0.  1.
</event>
<event>
 8    1  0.1117714E+005  0.1043930E+01  0.7957747E-01            NaN
         13   -1    0    0    0    0  0.00000000000E+00  0.00000000000E+00  0.74505805969E-08  0.10566000000E+00  0.10566000000E+00 0. -1.
     999900   -1    0    0    0    0 -0.00000000000E+00 -0.00000000000E+00 -0.74505805969E-08  0.93827000000E+00  0.93827000000E+00 0.  1.
     999902    2    1    2    0    0  0.45357801615E-02  0.21682271416E-01  0.49376137784E-02  0.10212347532E+01  0.10209825400E+01 0.  0.
     999903    2    3    3    0    0  0.51221964223E-01  0.12045779994E+00  0.21799653489E-01  0.13431844761E+00  0.20795415125E-01 0.  0.
         14    1    1    2    0    0 -0.45357801615E-02 -0.21682271416E-01 -0.49376137784E-02  0.22695246755E-01  0.00000000000E+00 0.  1.
     999901    1    3    3    0    0 -0.46686184061E-01 -0.98775528527E-01 -0.16862039711E-01  0.88691630563E+00  0.88000000000E+00 0.  1.
        -11    1    4    4    0    0  0.27098024034E-01  0.38369224193E-01  0.77191288718E-02  0.47606158670E-01  0.51100000000E-03 0. -1.
         11    1    4    4    0    0  0.24123940189E-01  0.82088575749E-01  0.14080524617E-01  0.86712288941E-01  0.51100000000E-03 0.  1.
</event>
<event>
 8    1  0.1117714E+005  0.1043930E+01  0.7957747E-01            NaN
         13   -1    0    0    0    0  0.00000000000E+00  0.00000000000E+00  0.74505805969E-08  0.10566000000E+00  0.10566000000E+00 0. -1.
     999900   -1    0    0    0    0 -0.00000000000E+00 -0.00000000000E+00 -0.74505805969E-08  0.93827000000E+00  0.93827000000E+00 0. -1.
     999902    2    1    2    0    0 -0.17257608560E-01 -0.13102609852E-01 -0.64147022631E-02  0.10213323930E+01  0.10210823694E+01 0.  0.
     999903    2    3    3    0    0  0.81102173064E-01  0.25299196766E-01  0.95163574092E-01  0.12921833546E+00  0.20583016098E-01 0.  0.
         14    1    1    2    0    0  0.17257608560E-01  0.13102609852E-01  0.64147022631E-02  0.22597607025E-01  0.00000000000E+00 0.  1.
     999901    1    3    3    0    0 -0.98359781624E-01 -0.38401806618E-01 -0.10157827636E+00  0.89211405752E+00  0.88000000000E+00 0. -1.
        -11    1    4    4    0    0  0.41547866729E-01  0.18601448856E-01  0.63371443058E-01  0.78028456639E-01  0.51100000000E-03 0. -1.
         11    1    4    4    0    0  0.39554306336E-01  0.66977479098E-02  0.31792131035E-01  0.51189878819E-01  0.51100000000E-03 0.  1.
</event>
<event>
 8    1  0.1117714E+005  0.1043930E+01  0.7957747E-01            NaN
         13   -1    0    0    0    0  0.00000000000E+00  0.00000000000E+00  0.74505805969E-08  0.10566000000E+00  0.10566000000E+00 0.  1.
     999900   -1    0    0    0    0 -0.00000000000E+00 -0.00000000000E+00 -0.74505805969E-08  0.93827000000E+00  0.93827000000E+00 0. -1.
     999902    2    1    2    0    0  0.13293023658E-01  0.13902456648E-01  0.15487251985E-01  0.10192351067E+01  0.10189358984E+01 0.  0.
     999903    2    3    3    0    0 -0.59435435485E-02 -0.11759689176E+00  0.47844522122E-01  0.12866836748E+00  0.20052327342E-01 0.  0.
         14    1    1    2    0    0 -0.13293023658E-01 -0.13902456648E-01 -0.15487251985E-01  0.24694893254E-01  0.00000000000E+00 0. -1.
     999901    1    3    3    0    0  0.19236567206E-01  0.13149934841E+00 -0.32357270138E-01  0.89056673926E+00  0.88000000000E+00 0. -1.
        -11    1    4    4    0    0 -0.96203930037E-02 -0.29996310878E-01  0.89689175617E-02  0.32757185945E-01  0.51100000000E-03 0. -1.
         11    1    4    4    0    0  0.36768494551E-02 -0.87600580883E-01  0.38875604561E-01  0.95911181538E-01  0.51100000000E-03 0.  1.
</event>
<event>
 7    1  0.1117714E+005  0.1043930E+01  0.7957747E-01            NaN
         13   -1    0    0    0    0  0.00000000000E+00  0.00000000000E+00  0.74505805969E-08  0.10566000000E+00  0.10566000000E+00 0. -1.
     999900   -1    0    0    0    0 -0.00000000000E+00 -0.00000000000E+00 -0.74505805969E-08  0.93827000000E+00  0.93827000000E+00 0.  1.
     999903    2    1    2    0    0 -0.72566505486E-01 -0.16240617487E-01  0.25721159704E-01  0.81298163723E-01  0.20448911793E-01 0.  0.
         14    1    1    2    0    0  0.61619494228E-02  0.16660242208E-01 -0.76630792516E-01  0.78662644583E-01  0.00000000000E+00 0.  1.
     999901    1    1    2    0    0  0.66404556063E-01 -0.41962472106E-03  0.50909632812E-01  0.88396919169E+00  0.88000000000E+00 0. -1.
        -11    1    3    3    0    0 -0.19742501429E-01 -0.22244301282E-02 -0.20743080577E-02  0.19981950029E-01  0.51100000000E-03 0. -1.
         11    1    3    3    0    0 -0.52824004057E-01 -0.14016187359E-01  0.27795467761E-01  0.61316213694E-01  0.51100000000E-03 0.  1.
</event>
<event>
 8    1  0.1117714E+005  0.1043930E+01  0.7957747E-01            NaN
         13   -1    0    0    0    0  0.00000000000E+00  0.00000000000E+00  0.74505805969E-08  0.10566000000E+00  0.10566000000E+00 0. -1.
     999900   -1    0    0    0    0 -0.00000000000E+00 -0.00000000000E+00 -0.74505805969E-08  0.93827000000E+00  0.93827000000E+00 0. -1.
     999902    2    1    2    0    0 -0.43772825467E-02  0.21622707184E-01 -0.82575245967E-02  0.10203739226E+01  0.10201019818E+01 0.  0.
     999903    2    3    3    0    0  0.63830469232E-01 -0.10759603420E+00 -0.19601875855E-01  0.12825370941E+00  0.20335807412E-01 0.  0.
         14    1    1    2    0    0  0.43772825467E-02 -0.21622707184E-01  0.82575245967E-02  0.23556077367E-01  0.00000000000E+00 0.  1.
     999901    1    3    3    0    0 -0.68207751778E-01  0.12921874139E+00  0.11344351258E-01  0.89212021322E+00  0.88000000000E+00 0. -1.
        -11    1    4    4    0    0  0.42783761397E-01 -0.83503280972E-01 -0.77973823241E-02  0.94150456528E-01  0.51100000000E-03 0.  1.
         11    1    4    4    0    0  0.21046707835E-01 -0.24092753231E-01 -0.11804493531E-01  0.34103252887E-01  0.51100000000E-03 0. -1.
</event>
<event>
 8    1  0.1117714E+005  0.1043930E+01  0.7957747E-01            NaN
         13   -1    0    0    0    0  0.00000000000E+00  0.00000000000E+00  0.74505805969E-08  0.10566000000E+00  0.10566000000E+00 0. -1.
     999900   -1    0    0    0    0 -0.00000000000E+00 -0.00000000000E+00 -0.74505805969E-08  0.93827000000E+00  0.93827000000E+00 0.  1.
     999902    2    1    2    0    0 -0.17280222639E-01 -0.10453370568E-01 -0.11720546564E-01  0.10205794055E+01  0.10203122428E+01 0.  0.
     999903    2    3    3    0    0  0.66879786056E-01 -0.71595327768E-01 -0.85274867691E-01  0.13140479716E+00  0.19915343751E-01 0.  0.
         14    1    1    2    0    0  0.17280222639E-01  0.10453370568E-01  0.11720546564E-01  0.23350594477E-01  0.00000000000E+00 0. -1.
     999901    1    3    3    0    0 -0.84160008695E-01  0.61141957200E-01  0.73554321128E-01  0.88917460836E+00  0.88000000000E+00 0. -1.
        -11    1    4    4    0    0  0.42326283442E-01 -0.49128967501E-01 -0.43935389203E-01  0.78331023632E-01  0.51100000000E-03 0.  1.
         11    1    4    4    0    0  0.24553502614E-01 -0.22466360268E-01 -0.41339478488E-01  0.53073773532E-01  0.51100000000E-03 0. -1.
</event>
<event>
 7    1  0.1117714E+005  0.1043930E+01  0.7957747E-01            NaN
         13   -1    0    0    0    0  0.00000000000E+00  0.00000000000E+00  0.74505805969E-08  0.10566000000E+00  0.10566000000E+00 0.  1.
     999900   -1    0    0    0    0 -0.00000000000E+00 -0.00000000000E+00 -0.74505805969E-08  0.93827000000E+00  0.93827000000E+00 0. -1.
     999902    2    1    2    0    0  0.61768554990E-02 -0.19318145536E-01 -0.14451360629E-01  0.10190264638E+01  0.10187221151E+01 0.  0.
         14    1    1    2    0    0 -0.61768554990E-02  0.19318145536E-01  0.14451360629E-01  0.24903536192E-01  0.00000000000E+00 0.  1.
     999901    1    3    3    0    0  0.26989134116E-01  0.68194196798E-01 -0.97522683807E-01  0.88841968444E+00  0.88000000000E+00 0. -1.
        -11    1    3    3    0    0 -0.31014554605E-01 -0.32889089971E-01  0.36677233301E-01  0.58215765906E-01  0.51100000000E-03 0. -1.
         11    1    3    3    0    0  0.10202275988E-01 -0.54623252364E-01  0.46394089877E-01  0.72391013466E-01  0.51100000000E-03 0.  1.
</event>
<event>
 8    1  0.1117714E+005  0.1043930E+01  0.7957747E-01            NaN
         13   -1    0    0    0    0  0.00000000000E+00  0.00000000000E+00  0.74505805969E-08  0.10566000000E+00  0.10566000000E+00 0.  1.
     999900   -1    0    0    0    0 -0.00000000000E+00 -0.00000000000E+00 -0.74505805969E-08  0.93827000000E+00  0.93827000000E+00 0. -1.
     999902    2    1    2    0    0  0.13693449742E-01  0.18096081584E-01 -0.85777141508E-02  0.10196698286E+01  0.10193811866E+01 0.  0.
     999903    2    3    3    0    0 -0.51225770215E-01 -0.10144551743E+00 -0.55325805429E-01  0.12799158899E+00  0.20140247442E-01 0.  0.
         14    1    1    2    0    0 -0.13693449742E-01 -0.18096081584E-01  0.85777141508E-02  0.24260171364E-01  0.00000000000E+00 0. -1.
     999901    1    3    3    0    0  0.64919219958E-01  0.11954159901E+00  0.46748091278E-01  0.89167823964E+00  0.88000000000E+00 0. -1.
        -11    1    4    4    0    0 -0.29919093868E-01 -0.55390845978E-01 -0.41466922629E-01  0.75386104750E-01  0.51100000000E-03 0.  1.
         11    1    4    4    0    0 -0.21306676347E-01 -0.46054671447E-01 -0.13858882799E-01  0.52605484244E-01  0.51100000000E-03 0. -1.
</event>
<event>
 8    1  0.1117714E+005  0.1043930E+01  0.7957747E-01            NaN
         13   -1    0    0    0    0  0.00000000000E+00  0.00000000000E+00  0.74505805969E-08  0.10566000000E+00  0.10566000000E+00 0.  1.
     999900   -1    0    0    0    0 -0.00000000000E+00 -0.00000000000E+00 -0.74505805969E-08  0.93827000000E+00  0.93827000000E+00 0. -1.
     999902    2    1    2    0    0 -0.53316268178E-02 -0.31441815745E-02  0.23501107582E-01  0.10196274450E+01  0.10193377813E+01 0.  0.
     999903    2    3    3    0    0 -0.63018764366E-01  0.19570399986E-01 -0.10795753333E+00  0.12770528901E+00  0.17304526026E-01 0.  0.
         14    1    1    2    0    0  0.53316268178E-02  0.31441815745E-02 -0.23501107582E-01  0.24302555007E-01  0.00000000000E+00 0. -1.
     999901    1    3    3    0    0  0.57687137549E-01 -0.22714581561E-01  0.13145864092E+00  0.89192215598E+00  0.88000000000E+00 0.  1.
        -11    1    4    4    0    0 -0.49883610115E-01  0.22191244680E-01 -0.90516211807E-01  0.10570842738E+00  0.51100000000E-03 0. -1.
         11    1    4    4    0    0 -0.13135154251E-01 -0.26208446942E-02 -0.17441321527E-01  0.21996861633E-01  0.51100000000E-03 0.  1.
</event>
<event>
 8    1  0.1117714E+005  0.1043930E+01  0.7957747E-01            NaN
         13   -1    0    0    0    0  0.00000000000E+00  0.00000000000E+00  0.74505805969E-08  0.10566000000E+00  0.10566000000E+00 0. -1.
     999900   -1    0    0    0    0 -0.00000000000E+00 -0.00000000000E+00 -0.74505805969E-08  0.93827000000E+00  0.93827000000E+00 0.  1.
     999902    2    1    2    0    0  0.36992706335E-02  0.14043071212E-01 -0.17886993422E-01  0.10208901001E+01  0.10206300797E+01 0.  0.
     999903    2    3    3    0    0  0.91724715911E-01 -0.58112054350E-01 -0.72172707211E-01  0.13190091016E+00  0.19962867168E-01 0.  0.
         14    1    1    2    0    0 -0.36992706335E-02 -0.14043071212E-01  0.17886993422E-01  0.23039899869E-01  0.00000000000E+00 0.  1.
     999901    1    3    3    0    0 -0.88025445277E-01  0.72155125562E-01  0.54285713788E-01  0.88898918997E+00  0.88000000000E+00 0.  1.
        -11    1    4    4    0    0  0.19843804946E-01 -0.99081183564E-02 -0.24647737492E-01  0.33162018765E-01  0.51100000000E-03 0. -1.
         11    1    4    4    0    0  0.71880910965E-01 -0.48203935994E-01 -0.47524969719E-01  0.98738891397E-01  0.51100000000E-03 0.  1.
</event>
<event>
 7    1  0.1117714E+005  0.1043930E+01  0.7957747E-01            NaN
         13   -1    0    0    0    0  0.00000000000E+00  0.00000000000E+00  0.74505805969E-08  0.10566000000E+00  0.10566000000E+00 0.  1.
     999900   -1    0    0    0    0 -0.00000000000E+00 -0.00000000000E+00 -0.74505805969E-08  0.93827000000E+00  0.93827000000E+00 0. -1.
     999902    2    1    2    0    0  0.21271654696E-01  0.19772550870E-03  0.83649389249E-02  0.10210718594E+01  0.10208159714E+01 0.  0.
         14    1    1    2    0    0 -0.21271654696E-01 -0.19772550870E-03 -0.83649389249E-02  0.22858140609E-01  0.00000000000E+00 0. -1.
     999901    1    3    3    0    0  0.13484869476E+00 -0.31010816897E-01 -0.25852066863E-01  0.89118694481E+00  0.88000000000E+00 0.  1.
        -11    1    3    3    0    0 -0.40690345706E-01 -0.68853564442E-02  0.21907822170E-01  0.46726075807E-01  0.51100000000E-03 0.  1.
         11    1    3    3    0    0 -0.72886694355E-01  0.38093898850E-01  0.12309183617E-01  0.83158838772E-01  0.51100000000E-03 0. -1.
</event>
<event>
 8    1  0.1117714E+005  0.1043930E+01  0.7957747E-01            NaN
         13   -1    0    0    0    0  0.00000000000E+00  0.00000000000E+00  0.74505805969E-08  0.10566000000E+00  0.10566000000E+00 0. -1.
     999900   -1    0    0    0    0 -0.00000000000E+00 -0.00000000000E+00 -0.74505805969E-08  0.93827000000E+00  0.93827000000E+00 0.  1.
     999902    2    1    2    0    0 -0.17877585971E-01  0.20786761593E-01 -0.39050687202E-02  0.10162361902E+01  0.10158587733E+01 0.  0.
     999903    2    3    3    0    0 -0.17181765229E-01 -0.68497649933E-01  0.10168212531E+00  0.12543831987E+00  0.20208324564E-01 0.  0.
         14    1    1    2    0    0  0.17877585971E-01 -0.20786761593E-01  0.39050687202E-02  0.27693809767E-01  0.00000000000E+00 0. -1.
     999901    1    3    3    0    0 -0.69582074258E-03  0.89284411526E-01 -0.10558719403E+00  0.89079787037E+00  0.88000000000E+00 0.  1.
        -11    1    4    4    0    0 -0.15699318676E-01 -0.57922959538E-01  0.71108211776E-01  0.93049324293E-01  0.51100000000E-03 0.  1.
         11    1    4    4    0    0 -0.14824465524E-02 -0.10574690395E-01  0.30573913530E-01  0.32388995573E-01  0.51100000000E-03 0. -1.
</event>
<event>
 8    1  0.1117714E+005  0.1043930E+01  0.7957747E-01            NaN
         13   -1    0    0    0    0  0.00000000000E+00  0.00000000000E+00  0.74505805969E-08  0.10566000000E+00  0.10566000000E+00 0.  1.
     999900   -1    0    0    0    0 -0.00000000000E+00 -0.00000000000E+00 -0.74505805969E-08  0.93827000000E+00  0.93827000000E+00 0. -1.
     999902    2    1    2    0    0 -0.16969865558E-01 -0.12089897262E-01  0.12390953607E-01  0.10196879356E+01  0.10193997295E+01 0.  0.
     999903    2    3    3    0    0 -0.10194786314E+00  0.54267122850E-01 -0.57188895955E-01  0.13038153757E+00  0.19760771685E-01 0.  0.
         14    1    1    2    0    0  0.16969865558E-01  0.12089897262E-01 -0.12390953607E-01  0.24242064354E-01  0.00000000000E+00 0. -1.
     999901    1    3    3    0    0  0.84977997583E-01 -0.66357020112E-01  0.69579849562E-01  0.88930639807E+00  0.88000000000E+00 0.  1.
        -11    1    4    4    0    0 -0.86763206365E-01  0.49190441283E-01 -0.55839041446E-01  0.11430578797E+00  0.51100000000E-03 0.  1.
         11    1    4    4    0    0 -0.15184656775E-01  0.50766815668E-02 -0.13498545092E-02  0.16075749603E-01  0.51100000000E-03 0. -1.
</event>
<event>
 8    1  0.1117714E+005  0.1043930E+01  0.7957747E-01            NaN
         13   -1    0    0    0    0  0.00000000000E+00  0.00000000000E+00  0.74505805969E-08  0.10566000000E+00  0.10566000000E+00 0. -1.
     999900   -1    0    0    0    0 -0.00000000000E+00 -0.00000000000E+00 -0.74505805969E-08  0.93827000000E+00  0.93827000000E+00 0. -1.
     999902    2    1    2    0    0  0.15104661184E-01  0.15720857468E-01  0.75274538517E-02  0.10208657699E+01  0.10206051937E+01 0.  0.
     999903    2    3    3    0    0  0.87646368336E-01 -0.60258938211E-01  0.75637963909E-01  0.13200454889E+00  0.19775586599E-01 0.  0.
         14    1    1    2    0    0 -0.15104661184E-01 -0.15720857468E-01 -0.75274538517E-02  0.23064230108E-01  0.00000000000E+00 0. -1.
     999901    1    3    3    0    0 -0.72541707152E-01  0.75979795679E-01 -0.68110510058E-01  0.88886122101E+00  0.88000000000E+00 0.  1.
        -11    1    4    4    0    0  0.66049497914E-01 -0.34439603253E-01  0.53520828557E-01  0.91724384203E-01  0.51100000000E-03 0. -1.
         11    1    4    4    0    0  0.21596870422E-01 -0.25819334958E-01  0.22117135352E-01  0.40280164683E-01  0.51100000000E-03 0.  1.
</event>
<event>
 8    1  0.1117714E+005  0.1043930E+01  0.7957747E-01            NaN
         13   -1    0    0    0    0  0.00000000000E+00  0.00000000000E+00  0.74505805969E-08  0.10566000000E+00  0.10566000000E+00 0. -1.
     999900   -1    0    0    0    0 -0.00000000000E+00 -0.00000000000E+00 -0.74505805969E-08  0.93827000000E+00  0.93827000000E+00 0. -1.
     999902    2    1    2    0    0  0.21929565557E-01  0.13146333484E-02  0.51443954729E-02  0.10213667797E+01  0.10211175249E+01 0.  0.
     999903    2    3    3    0    0  0.29946974447E-01  0.10861050975E+00 -0.65775735606E-01  0.13198140262E+00  0.19989475666E-01 0.  0.
         14    1    1    2    0    0 -0.21929565557E-01 -0.13146333484E-02 -0.51443954729E-02  0.22563220318E-01  0.00000000000E+00 0.  1.
     999901    1    3    3    0    0 -0.80174088896E-02 -0.10729587640E+00  0.70920131079E-01  0.88938537706E+00  0.88000000000E+00 0. -1.
        -11    1    4    4    0    0  0.32271061589E-01  0.10181564061E+00 -0.64176912410E-01  0.12460651386E+00  0.51100000000E-03 0.  1.
         11    1    4    4    0    0 -0.23240871420E-02  0.67948691348E-02 -0.15988231960E-02  0.73748887595E-02  0.51100000000E-03 0. -1.
</event>
<event>
 8    1  0.1117714E+005  0.1043930E+01  0.7957747E-01            NaN
         13   -1    0    0    0    0  0.00000000000E+00  0.00000000000E+00  0.74505805969E-08  0.10566000000E+00  0.10566000000E+00 0.  1.
     999900   -1    0    0    0    0 -0.00000000000E+00 -0.00000000000E+00 -0.74505805969E-08  0.93827000000E+00  0.93827000000E+00 0.  1.
     999902    2    1    2    0    0 -0.19742635722E-01 -0.23697180796E-01 -0.55871532711E-02  0.10125844369E+01  0.10120991540E+01 0.  0.
     999903    2    3    3    0    0  0.46190541875E-01  0.23245985869E-02 -0.11251254554E+00  0.12328282531E+00  0.20015299000E-01 0.  0.
         14    1    1    2    0    0  0.19742635722E-01  0.23697180796E-01  0.55871532711E-02  0.31345563077E-01  0.00000000000E+00 0.  1.
     999901    1    3    3    0    0 -0.65933177597E-01 -0.26021779383E-01  0.10692539227E+00  0.88930161162E+00  0.88000000000E+00 0. -1.
        -11    1    4    4    0    0  0.36747748656E-01  0.85693318677E-02 -0.96916455133E-01  0.10400428297E+00  0.51100000000E-03 0. -1.
         11    1    4    4    0    0  0.94427932194E-02 -0.62447332809E-02 -0.15596090409E-01  0.19278542336E-01  0.51100000000E-03 0.  1.
</event>
<event>
 8    1  0.1117714E+005  0.1043930E+01  0.7957747E-01            NaN
         13   -1    0    0    0    0  0.00000000000E+00  0.00000000000E+00  0.74505805969E-08  0.10566000000E+00  0.10566000000E+00 0.  1.
     999900   -1    0    0    0    0 -0.00000000000E+00 -0.00000000000E+00 -0.74505805969E-08  0.93827000000E+00  0.93827000000E+00 0.  1.
     999902    2    1    2    0    0 -0.17219786649E-02  0.14691821440E-01  0.19609304956E-01  0.10193670265E+01  0.10190710451E+01 0.  0.
     999903    2    3    3    0    0 -0.29995991665E-01  0.95707449980E-01  0.84634315749E-01  0.13280557688E+00  0.20363652656E-01 0.  0.
         14    1    1    2    0    0  0.17219786649E-02 -0.14691821440E-01 -0.19609304956E-01  0.24562973530E-01  0.00000000000E+00 0.  1.
     999901    1    3    3    0    0  0.28274013000E-01 -0.81015628539E-01 -0.65025010793E-01  0.88656144959E+00  0.88000000000E+00 0.  1.
        -11    1    4    4    0    0 -0.74061323997E-02  0.31364311443E-01  0.39704722679E-01  0.51139974124E-01  0.51100000000E-03 0.  1.
         11    1    4    4    0    0 -0.22589859265E-01  0.64343138537E-01  0.44929593070E-01  0.81665602751E-01  0.51100000000E-03 0. -1.
</event>
<event>
 8    1  0.1117714E+005  0.1043930E+01  0.7957747E-01            NaN
         13   -1    0    0    0    0  0.00000000000E+00  0.00000000000E+00  0.74505805969E-08  0.10566000000E+00  0.10566000000E+00 0. -1.
     999900   -1    0    0    0    0 -0.00000000000E+00 -0.00000000000E+00 -0.74505805969E-08  0.93827000000E+00  0.93827000000E+00 0.  1.
     999902    2    1    2    0    0  0.62366257423E-02  0.22273958318E-01 -0.81863776161E-02  0.10193934660E+01  0.10190981293E+01 0.  0.
     999903    2    3    3    0    0 -0.96166375257E-01 -0.45899833961E-01  0.67038828474E-01  0.12765759024E+00  0.21153943751E-01 0.  0.
         14    1    1    2    0    0 -0.62366257423E-02 -0.22273958318E-01  0.81863776161E-02  0.24536533950E-01  0.00000000000E+00 0.  1.
     999901    1    3    3    0    0  0.10240300100E+00  0.68173792279E-01 -0.75225206090E-01  0.89173587581E+00  0.88000000000E+00 0.  1.
        -11    1    4    4    0    0 -0.54749718782E-01 -0.35152015835E-01  0.32861755526E-01  0.72892743269E-01  0.51100000000E-03 0.  1.
         11    1    4    4    0    0 -0.41416656475E-01 -0.10747818126E-01  0.34177072948E-01  0.54764846976E-01  0.51100000000E-03 0. -1.
</event>
<event>
 8    1  0.1117714E+005  0.1043930E+01  0.7957747E-01            NaN
         13   -1    0    0    0    0  0.00000000000E+00  0.00000000000E+00  0.74505805969E-08  0.10566000000E+00  0.10566000000E+00 0.  1.
     999900   -1    0    0    0    0 -0.00000000000E+00 -0.00000000000E+00 -0.74505805969E-08  0.93827000000E+00  0.93827000000E+00 0. -1.
     999902    2    1    2    0    0  0.10189441086E-01  0.11624745779E-01 -0.17679877535E-01  0.10204451646E+01  0.10201748852E+01 0.  0.
     999903    2    3    3    0    0  0.41940773354E-01  0.10072828395E+00  0.69802190489E-01  0.13106296338E+00  0.19998472866E-01 0.  0.
         14    1    1    2    0    0 -0.10189441086E-01 -0.11624745779E-01  0.17679877535E-01  0.23484835399E-01  0.00000000000E+00 0.  1.
     999901    1    3    3    0    0 -0.31751332268E-01 -0.89103538170E-01 -0.87482068024E-01  0.88938220122E+00  0.88000000000E+00 0.  1.
        -11    1    4    4    0    0  0.21377083833E-01  0.32797010780E-01  0.32482081929E-01  0.50872098411E-01  0.51100000000E-03 0.  1.
         11    1    4    4    0    0  0.20563689521E-01  0.67931273170E-01  0.37320108559E-01  0.80190864973E-01  0.51100000000E-03 0. -1.
</event>
<event>
 8    1  0.1117714E+005  0.1043930E+01  0.7957747E-01            NaN
         13   -1    0    0    0    0  0.00000000000E+00  0.00000000000E+00  0.74505805969E-08  0.10566000000E+00  0.10566000000E+00 0. -1.
     999900   -1    0    0    0    0 -0.00000000000E+00 -0.00000000000E+00 -0.74505805969E-08  0.93827000000E+00  0.93827000000E+00 0.  1.
     999902    2    1    2    0    0  0.17348937202E-01 -0.14389147577E-02 -0.14059436321E-01  0.10215531404E+01  0.10213080313E+01 0.  0.
     999903    2    3    3    0    0  0.79061288684E-01 -0.85581112516E-02  0.10328337170E+00  0.13159334808E+00  0.18039560742E-01 0.  0.
         14    1    1    2    0    0 -0.17348937202E-01  0.14389147577E-02  0.14059436321E-01  0.22376859641E-01  0.00000000000E+00 0. -1.
     999901    1    3    3    0    0 -0.61712351482E-01  0.71191964939E-02 -0.11734280802E+00  0.88995979228E+00  0.88000000000E+00 0.  1.
        -11    1    4    4    0    0  0.63158486279E-01 -0.74376457283E-02  0.69335252286E-01  0.94084809048E-01  0.51100000000E-03 0. -1.
         11    1    4    4    0    0  0.15902802405E-01 -0.11204655233E-02  0.33948119414E-01  0.37508539029E-01  0.51100000000E-03 0.  1.
</event>
<event>
 8    1  0.1117714E+005  0.1043930E+01  0.7957747E-01            NaN
         13   -1    0    0    0    0  0.00000000000E+00  0.00000000000E+00  0.74505805969E-08  0.10566000000E+00  0.10566000000E+00 0.  1.
     999900   -1    0    0    0    0 -0.00000000000E+00 -0.00000000000E+00 -0.74505805969E-08  0.93827000000E+00  0.93827000000E+00 0.  1.
     999902    2    1    2    0    0 -0.53505402028E-02  0.14101496510E-01  0.18918402357E-01  0.10197352396E+01  0.10194481705E+01 0.  0.
     999903    2    3    3    0    0  0.30477269351E-01 -0.24160252679E-01  0.12275693643E+00  0.13208100816E+00  0.29386145031E-01 0.  0.
         14    1    1    2    0    0  0.53505402028E-02 -0.14101496510E-01 -0.18918402357E-01  0.24194760425E-01  0.00000000000E+00 0. -1.
     999901    1    3    3    0    0 -0.35827809554E-01  0.38261749189E-01 -0.10383853407E+00  0.88765423141E+00  0.88000000000E+00 0.  1.
        -11    1    4    4    0    0  0.31668250645E-01 -0.99452659120E-02  0.98408875526E-01  0.10385737488E+00  0.51100000000E-03 0.  1.
         11    1    4    4    0    0 -0.11909812946E-02 -0.14214986767E-01  0.24348060900E-01  0.28223633286E-01  0.51100000000E-03 0. -1.
</event>
<event>
 8    1  0.1117714E+005  0.1043930E+01  0.7957747E-01            NaN
         13   -1    0    0    0    0  0.00000000000E+00  0.00000000000E+00  0.74505805969E-08  0.10566000000E+00  0.10566000000E+00 0.  1.
     999900   -1    0    0    0    0 -0.00000000000E+00 -0.00000000000E+00 -0.74505805969E-08  0.93827000000E+00  0.93827000000E+00 0.  1.
     999902    2    1    2    0    0  0.78137575154E-02  0.11895704199E-01  0.18793940997E-01  0.10203551235E+01  0.10200827433E+01 0.  0.
     999903    2    3    3    0    0  0.17343881225E-02  0.90809628630E-01  0.95631488674E-01  0.13346822261E+00  0.20469197979E-01 0.  0.
         14    1    1    2    0    0 -0.78137575154E-02 -0.11895704199E-01 -0.18793940997E-01  0.23574876523E-01  0.00000000000E+00 0. -1.
     999901    1    3    3    0    0  0.60793693928E-02 -0.78913924431E-01 -0.76837547677E-01  0.88688690087E+00  0.88000000000E+00 0.  1.
        -11    1    4    4    0    0  0.51972268803E-03  0.77018781246E-01  0.68819559559E-01  0.10328870062E+00  0.51100000000E-03 0.  1.
         11    1    4    4    0    0  0.12146654345E-02  0.13790847384E-01  0.26811929115E-01  0.30179521990E-01  0.51100000000E-03 0. -1.
</event>
<event>
 8    1  0.1117714E+005  0.1043930E+01  0.7957747E-01            NaN
         13   -1    0    0    0    0  0.00000000000E+00  0.00000000000E+00  0.74505805969E-08  0.10566000000E+00  0.10566000000E+00 0.  1.
     999900   -1    0    0    0    0 -0.00000000000E+00 -0.00000000000E+00 -0.74505805969E-08  0.93827000000E+00  0.93827000000E+00 0. -1.
     999902    2    1    2    0    0  0.48930630903E-02 -0.18706777495E-01 -0.17389936159E-01  0.10179243185E+01  0.10175920709E+01 0.  0.
     999903    2    3    3    0    0 -0.23038189352E-01 -0.12342644275E+00 -0.28666925687E-01  0.13120365581E+00  0.25055173735E-01 0.  0.
         14    1    1    2    0    0 -0.48930630903E-02  0.18706777495E-01  0.17389936159E-01  0.26005681499E-01  0.00000000000E+00 0.  1.
     999901    1    3    3    0    0  0.27931252443E-01  0.10471966525E+00  0.11276989529E-01  0.88672066269E+00  0.88000000000E+00 0.  1.
        -11    1    4    4    0    0 -0.50746469487E-02 -0.61279354911E-01 -0.25085932421E-01  0.66411418494E-01  0.51100000000E-03 0.  1.
         11    1    4    4    0    0 -0.17963542404E-01 -0.62147087837E-01 -0.35809932657E-02  0.64792237313E-01  0.51100000000E-03 0. -1.
</event>
<event>
 8    1  0.1117714E+005  0.1043930E+01  0.7957747E-01            NaN
         13   -1    0    0    0    0  0.00000000000E+00  0.00000000000E+00  0.74505805969E-08  0.10566000000E+00  0.10566000000E+00 0. -1.
     999900   -1    0    0    0    0 -0.00000000000E+00 -0.00000000000E+00 -0.74505805969E-08  0.93827000000E+00  0.93827000000E+00 0. -1.
     999902    2    1    2    0    0 -0.13372424932E-01  0.44552162422E-02  0.18683676192E-01  0.10205259308E+01  0.10202575287E+01 0.  0.
     999903    2    3    3    0    0 -0.52318210433E-01  0.85326265358E-01  0.85860037379E-01  0.13341288031E+00  0.20230766473E-01 0.  0.
         14    1    1    2    0    0  0.13372424932E-01 -0.44552162422E-02 -0.18683676192E-01  0.23404069227E-01  0.00000000000E+00 0.  1.
     999901    1    3    3    0    0  0.38945785501E-01 -0.80871049116E-01 -0.67176361187E-01  0.88711305046E+00  0.88000000000E+00 0. -1.
        -11    1    4    4    0    0 -0.11032392135E-01  0.33617026567E-01  0.36691689518E-01  0.50974104721E-01  0.51100000000E-03 0.  1.
         11    1    4    4    0    0 -0.41285818298E-01  0.51709238791E-01  0.49168347861E-01  0.82438775593E-01  0.51100000000E-03 0. -1.
</event>
<event>
 8    1  0.1117714E+005  0.1043930E+01  0.7957747E-01            NaN
         13   -1    0    0    0    0  0.00000000000E+00  0.00000000000E+00  0.74505805969E-08  0.10566000000E+00  0.10566000000E+00 0. -1.
     999900   -1    0    0    0    0 -0.00000000000E+00 -0.00000000000E+00 -0.74505805969E-08  0.93827000000E+00  0.93827000000E+00 0. -1.
     999902    2    1    2    0    0 -0.18082221623E-02  0.30288578020E-02 -0.23714360518E-01  0.10199547098E+01  0.10196728865E+01 0.  0.
     999903    2    3    3    0    0  0.78160639073E-01  0.54618591509E-01  0.83718054879E-01  0.12832796989E+00  0.19159308545E-01 0.  0.
         14    1    1    2    0    0  0.18082221623E-02 -0.30288578020E-02  0.23714360518E-01  0.23975290233E-01  0.00000000000E+00 0. -1.
     999901    1    3    3    0    0 -0.79968861235E-01 -0.51589733707E-01 -0.10743241540E+00  0.89162673988E+00  0.88000000000E+00 0. -1.
        -11    1    4    4    0    0  0.57088190110E-01  0.42111000681E-01  0.50650970994E-01  0.87167538752E-01  0.51100000000E-03 0. -1.
         11    1    4    4    0    0  0.21072448963E-01  0.12507590828E-01  0.33067083884E-01  0.41160431135E-01  0.51100000000E-03 0.  1.
</event>
<event>
 8    1  0.1117714E+005  0.1043930E+01  0.7957747E-01            NaN
         13   -1    0    0    0    0  0.00000000000E+00  0.00000000000E+00  0.74505805969E-08  0.10566000000E+00  0.10566000000E+00 0. -1.
     999900   -1    0    0    0    0 -0.00000000000E+00 -0.00000000000E+00 -0.74505805969E-08  0.93827000000E+00  0.93827000000E+00 0. -1.
     999902    2    1    2    0    0 -0.22143431681E-01 -0.20166048112E-02  0.60755971805E-02  0.10208798125E+01  0.10206195572E+01 0.  0.
     999903    2    3    3    0    0  0.35216508178E-01 -0.28597197476E-01 -0.11987672640E+00  0.12966677491E+00  0.19622457312E-01 0.  0.
         14    1    1    2    0    0  0.22143431681E-01  0.20166048112E-02 -0.60755971805E-02  0.23050187476E-01  0.00000000000E+00 0. -1.
     999901    1    3    3    0    0 -0.57359939859E-01  0.26580592665E-01  0.12595232358E+00  0.89121303762E+00  0.88000000000E+00 0.  1.
        -11    1    4    4    0    0  0.29728765503E-01 -0.21104772688E-01 -0.69966856793E-01  0.78897611491E-01  0.51100000000E-03 0.  1.
         11    1    4    4    0    0  0.54877426750E-02 -0.74924247881E-02 -0.49909869604E-01  0.50769163414E-01  0.51100000000E-03 0. -1.
</event>
<event>
 8    1  0.1117714E+005  0.1043930E+01  0.7957747E-01            NaN
         13   -1    0    0    0    0  0.00000000000E+00  0.00000000000E+00  0.74505805969E-08  0.10566000000E+00  0.10566000000E+00 0. -1.
     999900   -1    0    0    0    0 -0.00000000000E+00 -0.00000000000E+00 -0.74505805969E-08  0.93827000000E+00  0.93827000000E+00 0. -1.
     999902    2    1    2    0    0  0.17367322658E-01  0.12481333605E-01 -0.87607243690E-02  0.10208181442E+01  0.10205564785E+01 0.  0.
     999903    2    3    3    0    0  0.11720816744E+00 -0.19869106105E-01 -0.56791575970E-01  0.13328126730E+00  0.20151357783E-01 0.  0.
         14    1    1    2    0    0 -0.17367322658E-01 -0.12481333605E-01  0.87607243690E-02  0.23111855752E-01  0.00000000000E+00 0.  1.
     999901    1    3    3    0    0 -0.99840844780E-01  0.32350439710E-01  0.48030851601E-01  0.88753687695E+00  0.88000000000E+00 0.  1.
        -11    1    4    4    0    0  0.40908053952E-01 -0.22804663173E-02 -0.10424683426E-01  0.42280072733E-01  0.51100000000E-03 0. -1.
         11    1    4    4    0    0  0.76300113485E-01 -0.17588639788E-01 -0.46366892544E-01  0.91001194567E-01  0.51100000000E-03 0.  1.
</event>
<event>
 8    1  0.1383466E+005  0.1043930E+01  0.7957747E-01            NaN
         13   -1    0    0    0    0  0.00000000000E+00  0.00000000000E+00  0.74505805969E-08  0.10566000000E+00  0.10566000000E+00 0. -1.
     999900   -1    0    0    0    0 -0.00000000000E+00 -0.00000000000E+00 -0.74505805969E-08  0.93827000000E+00  0.93827000000E+00 0. -1.
     999902    2    1    2    0    0 -0.11817673807E-01  0.29872935687E-02  0.20677265491E-01  0.10199272784E+01  0.10196448021E+01 0.  0.
     999903    2    3    3    0    0  0.12719917153E+00  0.18688440973E-02  0.41648753072E-02  0.12886073022E+00  0.20115163172E-01 0.  0.
         14    1    1    2    0    0  0.11817673807E-01 -0.29872935687E-02 -0.20677265491E-01  0.24002721622E-01  0.00000000000E+00 0.  1.
     999901    1    3    3    0    0 -0.13901684534E+00  0.11184494714E-02  0.16512390184E-01  0.89106654816E+00  0.88000000000E+00 0.  1.
        -11    1    4    4    0    0  0.65823202138E-01 -0.88507545904E-02  0.42521085094E-02  0.66553522403E-01  0.51100000000E-03 0. -1.
         11    1    4    4    0    0  0.61375969395E-01  0.10719598688E-01 -0.87233202211E-04  0.62307207816E-01  0.51100000000E-03 0.  1.
</event>
<event>
 8    1  0.1117714E+005  0.1043930E+01  0.7957747E-01            NaN
         13   -1    0    0    0    0  0.00000000000E+00  0.00000000000E+00  0.74505805969E-08  0.10566000000E+00  0.10566000000E+00 0.  1.
     999900   -1    0    0    0    0 -0.00000000000E+00 -0.00000000000E+00 -0.74505805969E-08  0.93827000000E+00  0.93827000000E+00 0. -1.
     999902    2    1    2    0    0 -0.51207586801E-03  0.96246134571E-02 -0.21895620378E-01  0.10200069233E+01  0.10197263408E+01 0.  0.
     999903    2    3    3    0    0 -0.91623378276E-01 -0.71253946181E-01 -0.58418034337E-01  0.13086323552E+00  0.15509718972E-01 0.  0.
         14    1    1    2    0    0  0.51207586801E-03 -0.96246134571E-02  0.21895620378E-01  0.23923076676E-01  0.00000000000E+00 0.  1.
     999901    1    3    3    0    0  0.91111302408E-01  0.80878559638E-01  0.36522413959E-01  0.88914368780E+00  0.88000000000E+00 0.  1.
        -11    1    4    4    0    0 -0.56627306925E-01 -0.37715846367E-01 -0.27618118559E-01  0.73431318594E-01  0.51100000000E-03 0. -1.
         11    1    4    4    0    0 -0.34996071351E-01 -0.33538099814E-01 -0.30799915778E-01  0.57431916929E-01  0.51100000000E-03 0.  1.
</event>
<event>
 8    1  0.1117714E+005  0.1043930E+01  0.7957747E-01            NaN
         13   -1    0    0    0    0  0.00000000000E+00  0.00000000000E+00  0.74505805969E-08  0.10566000000E+00  0.10566000000E+00 0. -1.
     999900   -1    0    0    0    0 -0.00000000000E+00 -0.00000000000E+00 -0.74505805969E-08  0.93827000000E+00  0.93827000000E+00 0.  1.
     999902    2    1    2    0    0  0.94156527586E-02  0.61529601995E-02  0.20529069899E-01  0.10205215369E+01  0.10202530328E+01 0.  0.
     999903    2    3    3    0    0  0.11463125023E+00  0.42713134218E-01 -0.42912867721E-01  0.13123426733E+00  0.20400572117E-01 0.  0.
         14    1    1    2    0    0 -0.94156527586E-02 -0.61529601995E-02 -0.20529069899E-01  0.23408463149E-01  0.00000000000E+00 0.  1.
     999901    1    3    3    0    0 -0.10521559747E+00 -0.36560174018E-01  0.63441937620E-01  0.88928726952E+00  0.88000000000E+00 0. -1.
        -11    1    4    4    0    0  0.94930861578E-01  0.27055371725E-01 -0.36652564862E-01  0.10529735633E+00  0.51100000000E-03 0. -1.
         11    1    4    4    0    0  0.19700388652E-01  0.15657762492E-01 -0.62603028593E-02  0.25936911000E-01  0.51100000000E-03 0.  1.
</event>
<event>
 8    1  0.1117714E+005  0.1043930E+01  0.7957747E-01            NaN
         13   -1    0    0    0    0  0.00000000000E+00  0.00000000000E+00  0.74505805969E-08  0.10566000000E+00  0.10566000000E+00 0.  1.
     999900   -1    0    0    0    0 -0.00000000000E+00 -0.00000000000E+00 -0.74505805969E-08  0.93827000000E+00  0.93827000000E+00 0.  1.
     999902    2    1    2    0    0  0.15270296817E-01 -0.11116811602E-01 -0.13994718511E-01  0.10204221798E+01  0.10201513649E+01 0.  0.
     999903    2    3    3    0    0  0.34187280115E-01  0.56229808677E-01  0.10939015804E+00  0.12906521017E+00  0.19001586637E-01 0.  0.
         14    1    1    2    0    0 -0.15270296817E-01  0.11116811602E-01  0.13994718511E-01  0.23507820216E-01  0.00000000000E+00 0. -1.
     999901    1    3    3    0    0 -0.18916983298E-01 -0.67346620279E-01 -0.12338487655E+00  0.89135696962E+00  0.88000000000E+00 0.  1.
        -11    1    4    4    0    0  0.13178207247E-01  0.28724828542E-01  0.68845239083E-01  0.75754267117E-01  0.51100000000E-03 0. -1.
         11    1    4    4    0    0  0.21009072868E-01  0.27504980135E-01  0.40544918956E-01  0.53310943053E-01  0.51100000000E-03 0.  1.
</event>
<event>
 8    1  0.1117714E+005  0.1043930E+01  0.7957747E-01            NaN
         13   -1    0    0    0    0  0.00000000000E+00  0.00000000000E+00  0.74505805969E-08  0.10566000000E+00  0.10566000000E+00 0. -1.
     999900   -1    0    0    0    0 -0.00000000000E+00 -0.00000000000E+00 -0.74505805969E-08  0.93827000000E+00  0.93827000000E+00 0. -1.
     999902    2    1    2    0    0 -0.31720644472E-02  0.93680367127E-02 -0.21127833719E-01  0.10206017454E+01  0.10203350995E+01 0.  0.
     999903    2    3    3    0    0 -0.53084604940E-01  0.11055563615E+00 -0.47442742536E-01  0.13300799464E+00  0.19994720614E-01 0.  0.
         14    1    1    2    0    0  0.31720644472E-02 -0.93680367127E-02  0.21127833719E-01  0.23328254593E-01  0.00000000000E+00 0. -1.
     999901    1    3    3    0    0  0.49912540493E-01 -0.10118759944E+00  0.26314908818E-01  0.88759375077E+00  0.88000000000E+00 0. -1.
        -11    1    4    4    0    0 -0.20603989499E-01  0.54358396649E-01 -0.31700112714E-01  0.66215692525E-01  0.51100000000E-03 0. -1.
         11    1    4    4    0    0 -0.32480615441E-01  0.56197239500E-01 -0.15742629823E-01  0.66792302113E-01  0.51100000000E-03 0.  1.
</event>
<event>
 8    1  0.1117714E+005  0.1043930E+01  0.7957747E-01            NaN
         13   -1    0    0    0    0  0.00000000000E+00  0.00000000000E+00  0.74505805969E-08  0.10566000000E+00  0.10566000000E+00 0.  1.
     999900   -1    0    0    0    0 -0.00000000000E+00 -0.00000000000E+00 -0.74505805969E-08  0.93827000000E+00  0.93827000000E+00 0.  1.
     999902    2    1    2    0    0  0.17502204230E-01  0.17920766771E-02  0.14911384350E-01  0.10208673012E+01  0.10206067600E+01 0.  0.
     999903    2    3    3    0    0 -0.84295152444E-01  0.12961691959E-01 -0.93426049202E-01  0.12832908824E+00  0.21592823666E-01 0.  0.
         14    1    1    2    0    0 -0.17502204230E-01 -0.17920766771E-02 -0.14911384350E-01  0.23062698779E-01  0.00000000000E+00 0.  1.
     999901    1    3    3    0    0  0.10179735667E+00 -0.11169615281E-01  0.10833743355E+00  0.89253821299E+00  0.88000000000E+00 0. -1.
        -11    1    4    4    0    0 -0.74430030587E-01  0.43019326992E-02 -0.75530156254E-01  0.10612917461E+00  0.51100000000E-03 0.  1.
         11    1    4    4    0    0 -0.98651218569E-02  0.86597592594E-02 -0.17895892947E-01  0.22199913627E-01  0.51100000000E-03 0. -1.
</event>
<event>
 8    1  0.1117714E+005  0.1043930E+01  0.7957747E-01            NaN
         13   -1    0    0    0    0  0.00000000000E+00  0.00000000000E+00  0.74505805969E-08  0.10566000000E+00  0.10566000000E+00 0.  1.
     999900   -1    0    0    0    0 -0.00000000000E+00 -0.00000000000E+00 -0.74505805969E-08  0.93827000000E+00  0.93827000000E+00 0. -1.
     999902    2    1    2    0    0 -0.13016315705E-02  0.17369633163E-01 -0.16938449455E-01  0.10196337149E+01  0.10193442024E+01 0.  0.
     999903    2    3    3    0    0 -0.91840580346E-01 -0.87665318829E-01 -0.61608250260E-02  0.12870958815E+00  0.20206483958E-01 0.  0.
         14    1    1    2    0    0  0.13016315705E-02 -0.17369633163E-01  0.16938449455E-01  0.24296285126E-01  0.00000000000E+00 0.  1.
     999901    1    3    3    0    0  0.90538948775E-01  0.10503495199E+00 -0.10777624429E-01  0.89092412672E+00  0.88000000000E+00 0. -1.
        -11    1    4    4    0    0 -0.26589422923E-01 -0.20675324193E-01 -0.99198832495E-02  0.35115974236E-01  0.51100000000E-03 0.  1.
         11    1    4    4    0    0 -0.65251157422E-01 -0.66989994636E-01  0.37590582235E-02  0.93593613917E-01  0.51100000000E-03 0. -1.
</event>
<event>
 8    1  0.1117714E+005  0.1043930E+01  0.7957747E-01            NaN
         13   -1    0    0    0    0  0.00000000000E+00  0.00000000000E+00  0.74505805969E-08  0.10566000000E+00  0.10566000000E+00 0.  1.
     999900   -1    0    0    0    0 -0.00000000000E+00 -0.00000000000E+00 -0.74505805969E-08  0.93827000000E+00  0.93827000000E+00 0. -1.
     999902    2    1    2    0    0  0.85785120962E-02  0.15409547335E-01  0.14630675733E-01  0.10210149025E+01  0.10207577232E+01 0.  0.
     999903    2    3    3    0    0  0.68413087211E-01 -0.41686633433E-01 -0.10010025539E+00  0.12972183246E+00  0.19737446078E-01 0.  0.
         14    1    1    2    0    0 -0.85785120962E-02 -0.15409547335E-01 -0.14630675733E-01  0.22915097452E-01  0.00000000000E+00 0.  1.
     999901    1    3    3    0    0 -0.59834575115E-01  0.57096180767E-01  0.11473093112E+00  0.89129307009E+00  0.88000000000E+00 0.  1.
        -11    1    4    4    0    0  0.16745574204E-01 -0.12871867954E-02 -0.23283637939E-01  0.28713411882E-01  0.51100000000E-03 0.  1.
         11    1    4    4    0    0  0.51667513007E-01 -0.40399446637E-01 -0.76816617452E-01  0.10100842057E+00  0.51100000000E-03 0. -1.
</event>
<event>
 8    1  0.1117714E+005  0.1043930E+01  0.7957747E-01            NaN
         13   -1    0    0    0    0  0.00000000000E+00  0.00000000000E+00  0.74505805969E-08  0.10566000000E+00  0.10566000000E+00 0.  1.
     999900   -1    0    0    0    0 -0.00000000000E+00 -0.00000000000E+00 -0.74505805969E-08  0.93827000000E+00  0.93827000000E+00 0.  1.
     999902    2    1    2    0    0  0.46435892526E-03 -0.14308881002E-01  0.18171314363E-01  0.10207965530E+01  0.10205343925E+01 0.  0.
     999903    2    3    3    0    0 -0.36743376686E-01 -0.36423518737E-01  0.12160839053E+00  0.13368173432E+00  0.20135962736E-01 0.  0.
         14    1    1    2    0    0 -0.46435892526E-03  0.14308881002E-01 -0.18171314363E-01  0.23133447007E-01  0.00000000000E+00 0.  1.
     999901    1    3    3    0    0  0.37207735611E-01  0.22114637735E-01 -0.10343707617E+00  0.88711481868E+00  0.88000000000E+00 0.  1.
        -11    1    4    4    0    0 -0.25811050209E-02 -0.41858337820E-02  0.33223662168E-01  0.33589524505E-01  0.51100000000E-03 0. -1.
         11    1    4    4    0    0 -0.34162271665E-01 -0.32237684955E-01  0.88384728360E-01  0.10009220981E+00  0.51100000000E-03 0.  1.
</event>
<event>
 8    1  0.1117714E+005  0.1043930E+01  0.7957747E-01            NaN
         13   -1    0    0    0    0  0.00000000000E+00  0.00000000000E+00  0.74505805969E-08  0.10566000000E+00  0.10566000000E+00 0. -1.
     999900   -1    0    0    0    0 -0.00000000000E+00 -0.00000000000E+00 -0.74505805969E-08  0.93827000000E+00  0.93827000000E+00 0.  1.
     999902    2    1    2    0    0  0.28926731700E-02  0.12688927076E-01  0.18938680816E-01  0.10209506602E+01  0.10206920204E+01 0.  0.
     999903    2    3    3    0    0 -0.57078542321E-01 -0.11199641391E+00 -0.22320057774E-01  0.12918540828E+00  0.19736464049E-01 0.  0.
         14    1    1    2    0    0 -0.28926731700E-02 -0.12688927076E-01 -0.18938680816E-01  0.22979339840E-01  0.00000000000E+00 0.  1.
     999901    1    3    3    0    0  0.59971215491E-01  0.12468534098E+00  0.41258738589E-01  0.89176525188E+00  0.88000000000E+00 0. -1.
        -11    1    4    4    0    0 -0.43467729856E-01 -0.66617511285E-01 -0.18386512285E-01  0.81643501295E-01  0.51100000000E-03 0.  1.
         11    1    4    4    0    0 -0.13610812465E-01 -0.45378902622E-01 -0.39335454884E-02  0.47541906990E-01  0.51100000000E-03 0. -1.
</event>
<event>
 8    1  0.1117714E+005  0.1043930E+01  0.7957747E-01            NaN
         13   -1    0    0    0    0  0.00000000000E+00  0.00000000000E+00  0.74505805969E-08  0.10566000000E+00  0.10566000000E+00 0.  1.
     999900   -1    0    0    0    0 -0.00000000000E+00 -0.00000000000E+00 -0.74505805969E-08  0.93827000000E+00  0.93827000000E+00 0.  1.
     999902    2    1    2    0    0 -0.16291202383E-01  0.18803591528E-01 -0.55554394470E-02  0.10184380162E+01  0.10181189280E+01 0.  0.
     999903    2    3    3    0    0 -0.82999289094E-01  0.47098923339E-01 -0.88338375867E-01  0.13158762907E+00  0.20110815575E-01 0.  0.
         14    1    1    2    0    0  0.16291202383E-01 -0.18803591528E-01  0.55554394470E-02  0.25491983777E-01  0.00000000000E+00 0.  1.
     999901    1    3    3    0    0  0.66708086711E-01 -0.28295331811E-01  0.82782936420E-01  0.88685038716E+00  0.88000000000E+00 0. -1.
        -11    1    4    4    0    0 -0.30073043537E-01  0.98297045082E-02 -0.38840508249E-01  0.50098475429E-01  0.51100000000E-03 0. -1.
         11    1    4    4    0    0 -0.52926245556E-01  0.37269218831E-01 -0.49497867618E-01  0.81489153638E-01  0.51100000000E-03 0.  1.
</event>
<event>
 8    1  0.1117714E+005  0.1043930E+01  0.7957747E-01            NaN
         13   -1    0    0    0    0  0.00000000000E+00  0.00000000000E+00  0.74505805969E-08  0.10566000000E+00  0.10566000000E+00 0. -1.
     999900   -1    0    0    0    0 -0.00000000000E+00 -0.00000000000E+00 -0.74505805969E-08  0.93827000000E+00  0.93827000000E+00 0.  1.
     999902    2    1    2    0    0 -0.20320216826E-01  0.86223184423E-02 -0.80689467401E-02  0.10204275855E+01  0.10201568966E+01 0.  0.
     999903    2    3    3    0    0  0.62455684911E-01 -0.77806928277E-01  0.78121066816E-01  0.12815487882E+00  0.19134816940E-01 0.  0.
         14    1    1    2    0    0  0.20320216826E-01 -0.86223184423E-02  0.80689467401E-02  0.23502414529E-01  0.00000000000E+00 0.  1.
     999901    1    3    3    0    0 -0.82775901737E-01  0.86429246720E-01 -0.86190013556E-01  0.89227270665E+00  0.88000000000E+00 0.  1.
        -11    1    4    4    0    0  0.53132192788E-02 -0.67419776486E-02  0.14863246511E-01  0.17171539813E-01  0.51100000000E-03 0. -1.
         11    1    4    4    0    0  0.57142465633E-01 -0.71064950629E-01  0.63257820306E-01  0.11098333901E+00  0.51100000000E-03 0.  1.
</event>
<event>
 8    1  0.1117714E+005  0.1043930E+01  0.7957747E-01            NaN
         13   -1    0    0    0    0  0.00000000000E+00  0.00000000000E+00  0.74505805969E-08  0.10566000000E+00  0.10566000000E+00 0.  1.
     999900   -1    0    0    0    0 -0.00000000000E+00 -0.00000000000E+00 -0.74505805969E-08  0.93827000000E+00  0.93827000000E+00 0. -1.
     999902    2    1    2    0    0 -0.37341518535E-02 -0.13605452582E-01 -0.17720967320E-01  0.10212786223E+01  0.10210273941E+01 0.  0.
     999903    2    3    3    0    0 -0.22199786564E-01 -0.24062342935E-01 -0.12837050948E+00  0.13409563811E+00  0.20756338433E-01 0.  0.
         14    1    1    2    0    0  0.37341518535E-02  0.13605452582E-01  0.17720967320E-01  0.22651377724E-01  0.00000000000E+00 0.  1.
     999901    1    3    3    0    0  0.18465634711E-01  0.10456890353E-01  0.11064954216E+00  0.88718298417E+00  0.88000000000E+00 0.  1.
        -11    1    4    4    0    0 -0.11298857617E-01 -0.10164878062E-01 -0.96175542227E-01  0.97370349558E-01  0.51100000000E-03 0.  1.
         11    1    4    4    0    0 -0.10900928948E-01 -0.13897464872E-01 -0.32194967249E-01  0.36725288549E-01  0.51100000000E-03 0. -1.
</event>
<event>
 8    1  0.1117714E+005  0.1043930E+01  0.7957747E-01            NaN
         13   -1    0    0    0    0  0.00000000000E+00  0.00000000000E+00  0.74505805969E-08  0.10566000000E+00  0.10566000000E+00 0. -1.
     999900   -1    0    0    0    0 -0.00000000000E+00 -0.00000000000E+00 -0.74505805969E-08  0.93827000000E+00  0.93827000000E+00 0.  1.
     999902    2    1    2    0    0 -0.18910112755E-01  0.74026186296E-02 -0.88086276284E-02  0.10217944393E+01  0.10215546452E+01 0.  0.
     999903    2    3    3    0    0 -0.76954114784E-01  0.19954051990E-01 -0.10634546611E+00  0.13441623384E+00  0.20934798430E-01 0.  0.
         14    1    1    2    0    0  0.18910112755E-01 -0.74026186296E-02  0.88086276284E-02  0.22135560704E-01  0.00000000000E+00 0. -1.
     999901    1    3    3    0    0  0.58044002030E-01 -0.12551433360E-01  0.97536838483E-01  0.88737820545E+00  0.88000000000E+00 0. -1.
        -11    1    4    4    0    0 -0.62204247974E-01  0.24294391508E-01 -0.84693480388E-01  0.10785561027E+00  0.51100000000E-03 0. -1.
         11    1    4    4    0    0 -0.14749866810E-01 -0.43403395180E-02 -0.21651985724E-01  0.26560623577E-01  0.51100000000E-03 0.  1.
</event>
<event>
 8    1  0.1117714E+005  0.1043930E+01  0.7957747E-01            NaN
         13   -1    0    0    0    0  0.00000000000E+00  0.00000000000E+00  0.74505805969E-08  0.10566000000E+00  0.10566000000E+00 0. -1.
     999900   -1    0    0    0    0 -0.00000000000E+00 -0.00000000000E+00 -0.74505805969E-08  0.93827000000E+00  0.93827000000E+00 0.  1.
     999902    2    1    2    0    0  0.12134243149E-01  0.14577217770E-01  0.13656274181E-01  0.10205584583E+01  0.10202908105E+01 0.  0.
     999903    2    3    3    0    0  0.78932749806E-01 -0.93548866872E-01 -0.38188130739E-01  0.12991760312E+00  0.20939932841E-01 0.  0.
         14    1    1    2    0    0 -0.12134243149E-01 -0.14577217770E-01 -0.13656274181E-01  0.23371541652E-01  0.00000000000E+00 0. -1.
     999901    1    3    3    0    0 -0.66798506657E-01  0.10812608464E+00  0.51844404920E-01  0.89064085522E+00  0.88000000000E+00 0.  1.
        -11    1    4    4    0    0  0.30238479119E-01 -0.26371247116E-01 -0.45345520667E-02  0.40381079447E-01  0.51100000000E-03 0.  1.
         11    1    4    4    0    0  0.48694270687E-01 -0.67177619755E-01 -0.33653578672E-01  0.89536523677E-01  0.51100000000E-03 0. -1.
</event>
<event>
 8    1  0.1117714E+005  0.1043930E+01  0.7957747E-01            NaN
         13   -1    0    0    0    0  0.00000000000E+00  0.00000000000E+00  0.74505805969E-08  0.10566000000E+00  0.10566000000E+00 0. -1.
     999900   -1    0    0    0    0 -0.00000000000E+00 -0.00000000000E+00 -0.74505805969E-08  0.93827000000E+00  0.93827000000E+00 0. -1.
     999902    2    1    2    0    0  0.66823113640E-02 -0.22119254935E-01 -0.40166944157E-02  0.10204768860E+01  0.10202073447E+01 0.  0.
     999903    2    3    3    0    0 -0.11922408230E+00  0.18852141613E-01  0.42113697461E-01  0.12937695422E+00  0.19875807543E-01 0.  0.
         14    1    1    2    0    0 -0.66823113640E-02  0.22119254935E-01  0.40166944157E-02  0.23453114038E-01  0.00000000000E+00 0. -1.
     999901    1    3    3    0    0  0.12590639366E+00 -0.40971396548E-01 -0.46130391877E-01  0.89109993174E+00  0.88000000000E+00 0. -1.
        -11    1    4    4    0    0 -0.44924036674E-01  0.53092053879E-02  0.25904522093E-01  0.52131201010E-01  0.51100000000E-03 0. -1.
         11    1    4    4    0    0 -0.74300045625E-01  0.13542936226E-01  0.16209175368E-01  0.77245753208E-01  0.51100000000E-03 0.  1.
</event>
<event>
 8    1  0.1117714E+005  0.1043930E+01  0.7957747E-01            NaN
         13   -1    0    0    0    0  0.00000000000E+00  0.00000000000E+00  0.74505805969E-08  0.10566000000E+00  0.10566000000E+00 0. -1.
     999900   -1    0    0    0    0 -0.00000000000E+00 -0.00000000000E+00 -0.74505805969E-08  0.93827000000E+00  0.93827000000E+00 0.  1.
     999902    2    1    2    0    0 -0.12543010973E-01  0.19448412763E-01 -0.37639883444E-02  0.10204835612E+01  0.10202141752E+01 0.  0.
     999903    2    3    3    0    0  0.10560215400E+00 -0.47996639567E-01  0.50956206672E-01  0.12835049108E+00  0.20538286770E-01 0.  0.
         14    1    1    2    0    0  0.12543010973E-01 -0.19448412763E-01  0.37639883444E-02  0.23446438781E-01  0.00000000000E+00 0.  1.
     999901    1    3    3    0    0 -0.11814516497E+00  0.67445052330E-01 -0.54720195017E-01  0.89213307014E+00  0.88000000000E+00 0.  1.
        -11    1    4    4    0    0  0.80066529757E-01 -0.27277611550E-01  0.40922823701E-01  0.93966248728E-01  0.51100000000E-03 0. -1.
         11    1    4    4    0    0  0.25535624241E-01 -0.20719028018E-01  0.10033382971E-01  0.34384242354E-01  0.51100000000E-03 0.  1.
</event>
<event>
 8    1  0.1117714E+005  0.1043930E+01  0.7957747E-01            NaN
         13   -1    0    0    0    0  0.00000000000E+00  0.00000000000E+00  0.74505805969E-08  0.10566000000E+00  0.10566000000E+00 0. -1.
     999900   -1    0    0    0    0 -0.00000000000E+00 -0.00000000000E+00 -0.74505805969E-08  0.93827000000E+00  0.93827000000E+00 0.  1.
     999902    2    1    2    0    0 -0.15497070872E-01 -0.79768831457E-02 -0.15722635392E-01  0.10204567997E+01  0.10201867912E+01 0.  0.
     999903    2    3    3    0    0 -0.57937937786E-01  0.17915600566E-01 -0.11705973737E+00  0.13324720992E+00  0.19340720241E-01 0.  0.
         14    1    1    2    0    0  0.15497070872E-01  0.79768831457E-02  0.15722635392E-01  0.23473200336E-01  0.00000000000E+00 0. -1.
     999901    1    3    3    0    0  0.42440866914E-01 -0.25892483711E-01  0.10133710198E+00  0.88720958974E+00  0.88000000000E+00 0. -1.
        -11    1    4    4    0    0 -0.10254822914E-01  0.90053223549E-02 -0.39204015838E-01  0.41514734764E-01  0.51100000000E-03 0. -1.
         11    1    4    4    0    0 -0.47683114872E-01  0.89102782107E-02 -0.77855721533E-01  0.91732475156E-01  0.51100000000E-03 0.  1.
</event>
<event>
 8    1  0.1117714E+005  0.1043930E+01  0.7957747E-01            NaN
         13   -1    0    0    0    0  0.00000000000E+00  0.00000000000E+00  0.74505805969E-08  0.10566000000E+00  0.10566000000E+00 0.  1.
     999900   -1    0    0    0    0 -0.00000000000E+00 -0.00000000000E+00 -0.74505805969E-08  0.93827000000E+00  0.93827000000E+00 0.  1.
     999902    2    1    2    0    0  0.90940792906E-02 -0.16581350703E-02  0.16628190752E-01  0.10249050580E+01  0.10247284662E+01 0.  0.
     999903    2    3    3    0    0 -0.91528056697E-01  0.95282188452E-01 -0.10193796115E-03  0.13372486423E+00  0.20645782221E-01 0.  0.
         14    1    1    2    0    0 -0.90940792906E-02  0.16581350703E-02 -0.16628190752E-01  0.19024941990E-01  0.00000000000E+00 0. -1.
     999901    1    3    3    0    0  0.10062213599E+00 -0.96940323522E-01  0.16730128713E-01  0.89118019378E+00  0.88000000000E+00 0. -1.
        -11    1    4    4    0    0 -0.59021052758E-01  0.47122314589E-01 -0.25162904897E-02  0.75568446059E-01  0.51100000000E-03 0.  1.
         11    1    4    4    0    0 -0.32507003939E-01  0.48159873863E-01  0.24143525286E-02  0.58156418173E-01  0.51100000000E-03 0. -1.
</event>
<event>
 8    1  0.1117714E+005  0.1043930E+01  0.7957747E-01            NaN
         13   -1    0    0    0    0  0.00000000000E+00  0.00000000000E+00  0.74505805969E-08  0.10566000000E+00  0.10566000000E+00 0.  1.
     999900   -1    0    0    0    0 -0.00000000000E+00 -0.00000000000E+00 -0.74505805969E-08  0.93827000000E+00  0.93827000000E+00 0.  1.
     999902    2    1    2    0    0  0.73676521314E-02 -0.18492833581E-01 -0.11681931590E-01  0.10208489533E+01  0.10205879926E+01 0.  0.
     999903    2    3    3    0    0  0.44667890397E-01  0.10915998163E+00 -0.50528812078E-01  0.13000910846E+00  0.20930489967E-01 0.  0.
         14    1    1    2    0    0 -0.73676521314E-02  0.18492833581E-01  0.11681931590E-01  0.23081046715E-01  0.00000000000E+00 0. -1.
     999901    1    3    3    0    0 -0.37300238265E-01 -0.12765281521E+00  0.38846880488E-01  0.89083984483E+00  0.88000000000E+00 0.  1.
        -11    1    4    4    0    0  0.27348178257E-01  0.89145404510E-01 -0.41155030132E-01  0.10192557886E+00  0.51100000000E-03 0.  1.
         11    1    4    4    0    0  0.17319712140E-01  0.20014577120E-01 -0.93737819458E-02  0.28083529602E-01  0.51100000000E-03 0. -1.
</event>
<event>
 8    1  0.1117714E+005  0.1043930E+01  0.7957747E-01            NaN
         13   -1    0    0    0    0  0.00000000000E+00  0.00000000000E+00  0.74505805969E-08  0.10566000000E+00  0.10566000000E+00 0.  1.
     999900   -1    0    0    0    0 -0.00000000000E+00 -0.00000000000E+00 -0.74505805969E-08  0.93827000000E+00  0.93827000000E+00 0.  1.
     999902    2    1    2    0    0 -0.79937838427E-02 -0.16818076406E-01  0.14886807796E-01  0.10200895864E+01  0.10198109624E+01 0.  0.
     999903    2    3    3    0    0 -0.93350397356E-01 -0.35865263857E-01  0.85146343879E-01  0.13296786464E+00  0.20734977983E-01 0.  0.
         14    1    1    2    0    0  0.79937838427E-02  0.16818076406E-01 -0.14886807796E-01  0.23840413597E-01  0.00000000000E+00 0. -1.
     999901    1    3    3    0    0  0.85356613513E-01  0.19047187451E-01 -0.70259536083E-01  0.88712172177E+00  0.88000000000E+00 0.  1.
        -11    1    4    4    0    0 -0.22984755814E-01 -0.74238115480E-02  0.99535858993E-02  0.26129427299E-01  0.51100000000E-03 0.  1.
         11    1    4    4    0    0 -0.70365641542E-01 -0.28441452309E-01  0.75192757980E-01  0.10683843734E+00  0.51100000000E-03 0. -1.
</event>
<event>
 8    1  0.1117714E+005  0.1043930E+01  0.7957747E-01            NaN
         13   -1    0    0    0    0  0.00000000000E+00  0.00000000000E+00  0.74505805969E-08  0.10566000000E+00  0.10566000000E+00 0.  1.
     999900   -1    0    0    0    0 -0.00000000000E+00 -0.00000000000E+00 -0.74505805969E-08  0.93827000000E+00  0.93827000000E+00 0.  1.
     999902    2    1    2    0    0 -0.22478113450E-01  0.55814356133E-02  0.47154968864E-02  0.10202941391E+01  0.10200203314E+01 0.  0.
     999903    2    3    3    0    0 -0.30370892316E-01  0.99000315629E-01 -0.78151370747E-01  0.13144302627E+00  0.21122945102E-01 0.  0.
         14    1    1    2    0    0  0.22478113450E-01 -0.55814356133E-02 -0.47154968864E-02  0.23635860862E-01  0.00000000000E+00 0.  1.
     999901    1    3    3    0    0  0.78927788662E-02 -0.93418880016E-01  0.82866867634E-01  0.88885111287E+00  0.88000000000E+00 0. -1.
        -11    1    4    4    0    0 -0.18474869264E-01  0.46414469039E-01 -0.25532640711E-01  0.56105263507E-01  0.51100000000E-03 0.  1.
         11    1    4    4    0    0 -0.11896023053E-01  0.52585846590E-01 -0.52618730037E-01  0.75337762760E-01  0.51100000000E-03 0. -1.
</event>
<event>
 8    1  0.1117714E+005  0.1043930E+01  0.7957747E-01            NaN
         13   -1    0    0    0    0  0.00000000000E+00  0.00000000000E+00  0.74505805969E-08  0.10566000000E+00  0.10566000000E+00 0.  1.
     999900   -1    0    0    0    0 -0.00000000000E+00 -0.00000000000E+00 -0.74505805969E-08  0.93827000000E+00  0.93827000000E+00 0. -1.
     999902    2    1    2    0    0 -0.21770414575E-02 -0.22864520981E-01  0.26564087070E-02  0.10208089633E+01  0.10205470872E+01 0.  0.
     999903    2    3    3    0    0 -0.93589517921E-01  0.64783412490E-01  0.59399542899E-01  0.12993400894E+00  0.19966286176E-01 0.  0.
         14    1    1    2    0    0  0.21770414575E-02  0.22864520981E-01 -0.26564087070E-02  0.23121036664E-01  0.00000000000E+00 0. -1.
     999901    1    3    3    0    0  0.91412476463E-01 -0.87647933472E-01 -0.56743134192E-01  0.89087495440E+00  0.88000000000E+00 0.  1.
        -11    1    4    4    0    0 -0.27108594028E-01  0.28475574916E-01  0.14695771215E-01  0.41975719763E-01  0.51100000000E-03 0.  1.
         11    1    4    4    0    0 -0.66480923893E-01  0.36307837574E-01  0.44703771684E-01  0.87958289176E-01  0.51100000000E-03 0. -1.
</event>
<event>
 8    1  0.1117714E+005  0.1043930E+01  0.7957747E-01            NaN
         13   -1    0    0    0    0  0.00000000000E+00  0.00000000000E+00  0.74505805969E-08  0.10566000000E+00  0.10566000000E+00 0. -1.
     999900   -1    0    0    0    0 -0.00000000000E+00 -0.00000000000E+00 -0.74505805969E-08  0.93827000000E+00  0.93827000000E+00 0.  1.
     999902    2    1    2    0    0  0.37813590186E-02 -0.22869073706E-01  0.30626251525E-02  0.10205489632E+01  0.10202810953E+01 0.  0.
     999903    2    3    3    0    0 -0.10755009608E+00  0.42769072021E-01 -0.54025010598E-01  0.12927905055E+00  0.19953807973E-01 0.  0.
         14    1    1    2    0    0 -0.37813590186E-02  0.22869073706E-01 -0.30626251525E-02  0.23381036783E-01  0.00000000000E+00 0. -1.
     999901    1    3    3    0    0  0.11133145510E+00 -0.65638145728E-01  0.57087635750E-01  0.89126991267E+00  0.88000000000E+00 0. -1.
        -11    1    4    4    0    0 -0.93611004451E-01  0.30246068784E-01 -0.41734325357E-01  0.10686374439E+00  0.51100000000E-03 0. -1.
         11    1    4    4    0    0 -0.13939091630E-01  0.12523003238E-01 -0.12290685241E-01  0.22415306160E-01  0.51100000000E-03 0.  1.
</event>
<event>
 8    1  0.1117714E+005  0.1043930E+01  0.7957747E-01            NaN
         13   -1    0    0    0    0  0.00000000000E+00  0.00000000000E+00  0.74505805969E-08  0.10566000000E+00  0.10566000000E+00 0.  1.
     999900   -1    0    0    0    0 -0.00000000000E+00 -0.00000000000E+00 -0.74505805969E-08  0.93827000000E+00  0.93827000000E+00 0. -1.
     999902    2    1    2    0    0 -0.56889281592E-02 -0.20902933932E-01 -0.90742994022E-02  0.10204429938E+01  0.10201726639E+01 0.  0.
     999903    2    3    3    0    0 -0.10320665246E+00 -0.61545919097E-01  0.50788477510E-01  0.13210459496E+00  0.20800031043E-01 0.  0.
         14    1    1    2    0    0  0.56889281592E-02  0.20902933932E-01  0.90742994022E-02  0.23487006200E-01  0.00000000000E+00 0.  1.
     999901    1    3    3    0    0  0.97517724304E-01  0.40642985164E-01 -0.59862776912E-01  0.88833839884E+00  0.88000000000E+00 0. -1.
        -11    1    4    4    0    0 -0.73793127436E-01 -0.36691093460E-01  0.26481126822E-01  0.86563116827E-01  0.51100000000E-03 0. -1.
         11    1    4    4    0    0 -0.29413525027E-01 -0.24854825637E-01  0.24307350688E-01  0.45541478132E-01  0.51100000000E-03 0.  1.
</event>
<event>
 8    1  0.1117714E+005  0.1043930E+01  0.7957747E-01            NaN
         13   -1    0    0    0    0  0.00000000000E+00  0.00000000000E+00  0.74505805969E-08  0.10566000000E+00  0.10566000000E+00 0.  1.
     999900   -1    0    0    0    0 -0.00000000000E+00 -0.00000000000E+00 -0.74505805969E-08  0.93827000000E+00  0.93827000000E+00 0.  1.
     999902    2    1    2    0    0  0.55295556313E-02  0.74248058119E-02  0.22119787220E-01  0.10199510777E+01  0.10196691680E+01 0.  0.
     999903    2    3    3    0    0  0.67164286384E-01  0.13891142850E-01 -0.10654698863E+00  0.12843787381E+00  0.20976687697E-01 0.  0.
         14    1    1    2    0    0 -0.55295556313E-02 -0.74248058119E-02 -0.22119787220E-01  0.23978922275E-01  0.00000000000E+00 0. -1.
     999901    1    3    3    0    0 -0.61634730753E-01 -0.64663370382E-02  0.12866677585E+00  0.89151320392E+00  0.88000000000E+00 0. -1.
        -11    1    4    4    0    0  0.36070556277E-01  0.13019488724E-01 -0.74395263543E-01  0.83698915617E-01  0.51100000000E-03 0. -1.
         11    1    4    4    0    0  0.31093730107E-01  0.87165412584E-03 -0.32151725088E-01  0.44738958191E-01  0.51100000000E-03 0.  1.
</event>
<event>
 8    1  0.1117714E+005  0.1043930E+01  0.7957747E-01            NaN
         13   -1    0    0    0    0  0.00000000000E+00  0.00000000000E+00  0.74505805969E-08  0.10566000000E+00  0.10566000000E+00 0. -1.
     999900   -1    0    0    0    0 -0.00000000000E+00 -0.00000000000E+00 -0.74505805969E-08  0.93827000000E+00  0.93827000000E+00 0.  1.
     999902    2    1    2    0    0 -0.79729791803E-02  0.18213044929E-01  0.13192496649E-01  0.10200694600E+01  0.10197903597E+01 0.  0.
     999903    2    3    3    0    0  0.48398111843E-01 -0.11320920826E+00 -0.27042729221E-01  0.12761868713E+00  0.19912760658E-01 0.  0.
         14    1    1    2    0    0  0.79729791803E-02 -0.18213044929E-01 -0.13192496649E-01  0.23860540028E-01  0.00000000000E+00 0.  1.
     999901    1    3    3    0    0 -0.56371091024E-01  0.13142225319E+00  0.40235225870E-01  0.89245077284E+00  0.88000000000E+00 0. -1.
        -11    1    4    4    0    0  0.16952751633E-01 -0.21045309852E-01 -0.96235289880E-02  0.28691014026E-01  0.51100000000E-03 0.  1.
         11    1    4    4    0    0  0.31445360211E-01 -0.92163898409E-01 -0.17419200233E-01  0.98927673108E-01  0.51100000000E-03 0. -1.
</event>
<event>
 8    1  0.1117714E+005  0.1043930E+01  0.7957747E-01            NaN
         13   -1    0    0    0    0  0.00000000000E+00  0.00000000000E+00  0.74505805969E-08  0.10566000000E+00  0.10566000000E+00 0. -1.
     999900   -1    0    0    0    0 -0.00000000000E+00 -0.00000000000E+00 -0.74505805969E-08  0.93827000000E+00  0.93827000000E+00 0.  1.
     999902    2    1    2    0    0  0.36200584359E-02  0.20262115726E-01 -0.15257287604E-01  0.10183088567E+01  0.10179864855E+01 0.  0.
     999903    2    3    3    0    0 -0.86517868221E-02  0.11044571319E-01  0.12470092982E+00  0.12711647351E+00  0.20283983025E-01 0.  0.
         14    1    1    2    0    0 -0.36200584359E-02 -0.20262115726E-01  0.15257287604E-01  0.25621143257E-01  0.00000000000E+00 0. -1.
     999901    1    3    3    0    0  0.12271845258E-01  0.92175444072E-02 -0.13995821743E+00  0.89119238324E+00  0.88000000000E+00 0.  1.
        -11    1    4    4    0    0 -0.70086479773E-02 -0.72262575079E-03  0.92840916750E-01  0.93109292117E-01  0.51100000000E-03 0. -1.
         11    1    4    4    0    0 -0.16431388448E-02  0.11767197070E-01  0.31860013073E-01  0.34007181391E-01  0.51100000000E-03 0.  1.
</event>
<event>
 8    1  0.1117714E+005  0.1043930E+01  0.7957747E-01            NaN
         13   -1    0    0    0    0  0.00000000000E+00  0.00000000000E+00  0.74505805969E-08  0.10566000000E+00  0.10566000000E+00 0.  1.
     999900   -1    0    0    0    0 -0.00000000000E+00 -0.00000000000E+00 -0.74505805969E-08  0.93827000000E+00  0.93827000000E+00 0.  1.
     999902    2    1    2    0    0  0.21229699828E-01  0.36791834496E-02  0.97629754849E-02  0.10202751435E+01  0.10200008903E+01 0.  0.
     999903    2    3    3    0    0  0.11373193733E+00  0.31377571691E-02  0.67517130019E-01  0.13354378652E+00  0.18181886132E-01 0.  0.
         14    1    1    2    0    0 -0.21229699828E-01 -0.36791834496E-02 -0.97629754849E-02  0.23654856499E-01  0.00000000000E+00 0. -1.
     999901    1    3    3    0    0 -0.92502237503E-01  0.54142628052E-03 -0.57754154534E-01  0.88673135698E+00  0.88000000000E+00 0.  1.
        -11    1    4    4    0    0  0.64968055261E-01  0.10138306451E-01  0.34728436273E-01  0.74363693218E-01  0.51100000000E-03 0. -1.
         11    1    4    4    0    0  0.48763882070E-01 -0.70005492816E-02  0.32788693746E-01  0.59180093303E-01  0.51100000000E-03 0.  1.
</event>
<event>
 8    1  0.1117714E+005  0.1043930E+01  0.7957747E-01            NaN
         13   -1    0    0    0    0  0.00000000000E+00  0.00000000000E+00  0.74505805969E-08  0.10566000000E+00  0.10566000000E+00 0.  1.
     999900   -1    0    0    0    0 -0.00000000000E+00 -0.00000000000E+00 -0.74505805969E-08  0.93827000000E+00  0.93827000000E+00 0. -1.
     999902    2    1    2    0    0 -0.22473991519E-02  0.59889683609E-02  0.22747831099E-01  0.10202998844E+01  0.10200262113E+01 0.  0.
     999903    2    3    3    0    0 -0.86149731145E-01 -0.13106311529E-02 -0.93459982441E-01  0.12867376239E+00  0.19966844508E-01 0.  0.
         14    1    1    2    0    0  0.22473991519E-02 -0.59889683609E-02 -0.22747831099E-01  0.23630115630E-01  0.00000000000E+00 0. -1.
     999901    1    3    3    0    0  0.83902331993E-01  0.72995995138E-02  0.11620781354E+00  0.89162612198E+00  0.88000000000E+00 0.  1.
        -11    1    4    4    0    0 -0.95654088513E-02 -0.47855574570E-03 -0.27985244715E-02  0.99909420133E-02  0.51100000000E-03 0. -1.
         11    1    4    4    0    0 -0.76584322294E-01 -0.83207540716E-03 -0.90661457970E-01  0.11868282038E+00  0.51100000000E-03 0.  1.
</event>
<event>
 8    1  0.1117714E+005  0.1043930E+01  0.7957747E-01            NaN
         13   -1    0    0    0    0  0.00000000000E+00  0.00000000000E+00  0.74505805969E-08  0.10566000000E+00  0.10566000000E+00 0.  1.
     999900   -1    0    0    0    0 -0.00000000000E+00 -0.00000000000E+00 -0.74505805969E-08  0.93827000000E+00  0.93827000000E+00 0.  1.
     999902    2    1    2    0    0 -0.18328778109E-01  0.18227797049E-01 -0.82138437353E-02  0.10168068748E+01  0.10164450584E+01 0.  0.
     999903    2    3    3    0    0 -0.57722787274E-01  0.62832861118E-01 -0.96362713937E-01  0.13040305992E+00  0.20959408203E-01 0.  0.
         14    1    1    2    0    0  0.18328778109E-01 -0.18227797049E-01  0.82138437353E-02  0.27123125209E-01  0.00000000000E+00 0.  1.
     999901    1    3    3    0    0  0.39394009165E-01 -0.44605064070E-01  0.88148870202E-01  0.88640381487E+00  0.88000000000E+00 0. -1.
        -11    1    4    4    0    0 -0.43193220875E-01  0.58134254566E-01 -0.82397121924E-01  0.10970320281E+00  0.51100000000E-03 0.  1.
         11    1    4    4    0    0 -0.14529566399E-01  0.46986065520E-02 -0.13965592014E-01  0.20699857115E-01  0.51100000000E-03 0. -1.
</event>
<event>
 8    1  0.1117714E+005  0.1043930E+01  0.7957747E-01            NaN
         13   -1    0    0    0    0  0.00000000000E+00  0.00000000000E+00  0.74505805969E-08  0.10566000000E+00  0.10566000000E+00 0. -1.
     999900   -1    0    0    0    0 -0.00000000000E+00 -0.00000000000E+00 -0.74505805969E-08  0.93827000000E+00  0.93827000000E+00 0. -1.
     999902    2    1    2    0    0 -0.18846732403E-01 -0.98881581608E-02  0.95509042204E-02  0.10206020175E+01  0.10203353779E+01 0.  0.
     999903    2    3    3    0    0 -0.10585120652E+00  0.53978700203E-01  0.55432321155E-01  0.13282171897E+00  0.21229432476E-01 0.  0.
         14    1    1    2    0    0  0.18846732403E-01  0.98881581608E-02 -0.95509042204E-02  0.23327982457E-01  0.00000000000E+00 0.  1.
     999901    1    3    3    0    0  0.87004474120E-01 -0.63866858364E-01 -0.45881416935E-01  0.88778029857E+00  0.88000000000E+00 0.  1.
        -11    1    4    4    0    0 -0.45972727798E-01  0.12005836637E-01  0.19822553351E-01  0.51486178309E-01  0.51100000000E-03 0.  1.
         11    1    4    4    0    0 -0.59878478726E-01  0.41972863566E-01  0.35609767804E-01  0.81335540660E-01  0.51100000000E-03 0. -1.
</event>
<event>
 8    1  0.1117714E+005  0.1043930E+01  0.7957747E-01            NaN
         13   -1    0    0    0    0  0.00000000000E+00  0.00000000000E+00  0.74505805969E-08  0.10566000000E+00  0.10566000000E+00 0. -1.
     999900   -1    0    0    0    0 -0.00000000000E+00 -0.00000000000E+00 -0.74505805969E-08  0.93827000000E+00  0.93827000000E+00 0.  1.
     999902    2    1    2    0    0 -0.15222256658E-01  0.17115099875E-01 -0.81269474660E-02  0.10196258642E+01  0.10193361624E+01 0.  0.
     999903    2    3    3    0    0  0.75451944822E-01 -0.90383453982E-01 -0.45050789737E-01  0.12769474578E+00  0.20352142691E-01 0.  0.
         14    1    1    2    0    0  0.15222256658E-01 -0.17115099875E-01  0.81269474660E-02  0.24304135792E-01  0.00000000000E+00 0. -1.
     999901    1    3    3    0    0 -0.90674201481E-01  0.10749855386E+00  0.36923842271E-01  0.89193111843E+00  0.88000000000E+00 0.  1.
        -11    1    4    4    0    0  0.19692222938E-01 -0.34418249030E-01 -0.22225733259E-01  0.45460354710E-01  0.51100000000E-03 0.  1.
         11    1    4    4    0    0  0.55759721885E-01 -0.55965204952E-01 -0.22825056478E-01  0.82234391067E-01  0.51100000000E-03 0. -1.
</event>
<event>
 7    1  0.1117714E+005  0.1043930E+01  0.7957747E-01            NaN
         13   -1    0    0    0    0  0.00000000000E+00  0.00000000000E+00  0.74505805969E-08  0.10566000000E+00  0.10566000000E+00 0. -1.
     999900   -1    0    0    0    0 -0.00000000000E+00 -0.00000000000E+00 -0.74505805969E-08  0.93827000000E+00  0.93827000000E+00 0.  1.
     999902    2    1    2    0    0 -0.57982335510E-02  0.18407439954E-01  0.13622002042E-01  0.10203077161E+01  0.10200342265E+01 0.  0.
         14    1    1    2    0    0  0.57982335510E-02 -0.18407439954E-01 -0.13622002042E-01  0.23622283920E-01  0.00000000000E+00 0.  1.
     999901    1    3    3    0    0  0.74855891180E-01 -0.78654660637E-01  0.11095441454E-01  0.88674295537E+00  0.88000000000E+00 0.  1.
        -11    1    3    3    0    0 -0.24714270200E-01  0.61604299721E-01 -0.66000022292E-02  0.66706117007E-01  0.51100000000E-03 0.  1.
         11    1    3    3    0    0 -0.55939854531E-01  0.35457800870E-01  0.91265628168E-02  0.66858643699E-01  0.51100000000E-03 0. -1.
</event>
<event>
 8    1  0.1117714E+005  0.1043930E+01  0.7957747E-01            NaN
         13   -1    0    0    0    0  0.00000000000E+00  0.00000000000E+00  0.74505805969E-08  0.10566000000E+00  0.10566000000E+00 0. -1.
     999900   -1    0    0    0    0 -0.00000000000E+00 -0.00000000000E+00 -0.74505805969E-08  0.93827000000E+00  0.93827000000E+00 0. -1.
     999902    2    1    2    0    0  0.25077549004E-02 -0.11647498115E-02  0.23297524073E-01  0.10204689662E+01  0.10201992408E+01 0.  0.
     999903    2    3    3    0    0  0.29082308532E-01  0.77331489710E-01  0.10241520211E+00  0.13304151936E+00  0.19627334977E-01 0.  0.
         14    1    1    2    0    0 -0.25077549004E-02  0.11647498115E-02 -0.23297524073E-01  0.23461033751E-01  0.00000000000E+00 0.  1.
     999901    1    3    3    0    0 -0.26574553631E-01 -0.78496239521E-01 -0.79117678041E-01  0.88742744689E+00  0.88000000000E+00 0. -1.
        -11    1    4    4    0    0  0.23636408075E-01  0.69099408951E-01  0.78786351310E-01  0.10742885263E+00  0.51100000000E-03 0. -1.
         11    1    4    4    0    0  0.54459004571E-02  0.82320807584E-02  0.23628850804E-01  0.25612666724E-01  0.51100000000E-03 0.  1.
</event>
<event>
 8    1  0.1117714E+005  0.1043930E+01  0.7957747E-01            NaN
         13   -1    0    0    0    0  0.00000000000E+00  0.00000000000E+00  0.74505805969E-08  0.10566000000E+00  0.10566000000E+00 0. -1.
     999900   -1    0    0    0    0 -0.00000000000E+00 -0.00000000000E+00 -0.74505805969E-08  0.93827000000E+00  0.93827000000E+00 0. -1.
     999902    2    1    2    0    0  0.73980900872E-02  0.19507046969E-01  0.19098550585E-03  0.10230663212E+01  0.10228535596E+01 0.  0.
     999903    2    3    3    0    0 -0.15208662600E-01  0.13291842616E+00  0.16734422178E-02  0.13549919478E+00  0.21415413727E-01 0.  0.
         14    1    1    2    0    0 -0.73980900872E-02 -0.19507046969E-01 -0.19098550585E-03  0.20863678819E-01  0.00000000000E+00 0.  1.
     999901    1    3    3    0    0  0.22606752688E-01 -0.11341137919E+00 -0.14824567120E-02  0.88756712641E+00  0.88000000000E+00 0. -1.
        -11    1    4    4    0    0 -0.20209910510E-01  0.11273910207E+00  0.37569729040E-02  0.11459895979E+00  0.51100000000E-03 0. -1.
         11    1    4    4    0    0  0.50012479092E-02  0.20179324094E-01 -0.20835306862E-02  0.20900234990E-01  0.51100000000E-03 0.  1.
</event>
<event>
 8    1  0.1117714E+005  0.1043930E+01  0.7957747E-01            NaN
         13   -1    0    0    0    0  0.00000000000E+00  0.00000000000E+00  0.74505805969E-08  0.10566000000E+00  0.10566000000E+00 0.  1.
     999900   -1    0    0    0    0 -0.00000000000E+00 -0.00000000000E+00 -0.74505805969E-08  0.93827000000E+00  0.93827000000E+00 0. -1.
     999902    2    1    2    0    0  0.99711090021E-02 -0.20644825325E-01 -0.59097102147E-02  0.10202539255E+01  0.10199791743E+01 0.  0.
     999903    2    3    3    0    0 -0.37551828814E-01  0.11756203664E-01  0.12155228650E+00  0.12921250287E+00  0.19301926642E-01 0.  0.
         14    1    1    2    0    0 -0.99711090021E-02  0.20644825325E-01  0.59097102147E-02  0.23676074469E-01  0.00000000000E+00 0.  1.
     999901    1    3    3    0    0  0.47522937816E-01 -0.32401028989E-01 -0.12746199671E+00  0.89104142266E+00  0.88000000000E+00 0.  1.
        -11    1    4    4    0    0 -0.14106756997E-01  0.15941035633E-02  0.20249878330E-01  0.24735813157E-01  0.51100000000E-03 0.  1.
         11    1    4    4    0    0 -0.23445071817E-01  0.10162100101E-01  0.10130240817E+00  0.10447668971E+00  0.51100000000E-03 0. -1.
</event>
<event>
 8    1  0.1117714E+005  0.1043930E+01  0.7957747E-01            NaN
         13   -1    0    0    0    0  0.00000000000E+00  0.00000000000E+00  0.74505805969E-08  0.10566000000E+00  0.10566000000E+00 0. -1.
     999900   -1    0    0    0    0 -0.00000000000E+00 -0.00000000000E+00 -0.74505805969E-08  0.93827000000E+00  0.93827000000E+00 0. -1.
     999902    2    1    2    0    0  0.81511285319E-03 -0.17028082072E-01 -0.24377895129E-01  0.10141827017E+01  0.10137463443E+01 0.  0.
     999903    2    3    3    0    0  0.12222296171E+00 -0.14052894728E-01  0.11419160653E-01  0.12512131642E+00  0.19723345935E-01 0.  0.
         14    1    1    2    0    0 -0.81511285319E-03  0.17028082072E-01  0.24377895129E-01  0.29747298346E-01  0.00000000000E+00 0. -1.
     999901    1    3    3    0    0 -0.12140784885E+00 -0.29751873441E-02 -0.35797055782E-01  0.88906138523E+00  0.88000000000E+00 0.  1.
        -11    1    4    4    0    0  0.49343864641E-01 -0.15430456317E-01  0.43510812424E-02  0.51885537376E-01  0.51100000000E-03 0. -1.
         11    1    4    4    0    0  0.72879097067E-01  0.13775615892E-02  0.70680794108E-02  0.73235779048E-01  0.51100000000E-03 0.  1.
</event>
<event>
 8    1  0.1117714E+005  0.1043930E+01  0.7957747E-01            NaN
         13   -1    0    0    0    0  0.00000000000E+00  0.00000000000E+00  0.74505805969E-08  0.10566000000E+00  0.10566000000E+00 0.  1.
     999900   -1    0    0    0    0 -0.00000000000E+00 -0.00000000000E+00 -0.74505805969E-08  0.93827000000E+00  0.93827000000E+00 0. -1.
     999902    2    1    2    0    0 -0.23349063093E-01 -0.40947938488E-02 -0.47496356895E-02  0.10197534592E+01  0.10194668276E+01 0.  0.
     999903    2    3    3    0    0 -0.70313943120E-01  0.89076967850E-01  0.62374955893E-01  0.13105081610E+00  0.20122735361E-01 0.  0.
         14    1    1    2    0    0  0.23349063093E-01  0.40947938488E-02  0.47496356895E-02  0.24176540761E-01  0.00000000000E+00 0. -1.
     999901    1    3    3    0    0  0.46964880028E-01 -0.93171761699E-01 -0.67124591582E-01  0.88870264314E+00  0.88000000000E+00 0. -1.
        -11    1    4    4    0    0 -0.41412879311E-01  0.67321758211E-01  0.44303545086E-01  0.90610766081E-01  0.51100000000E-03 0.  1.
         11    1    4    4    0    0 -0.28901063810E-01  0.21755209638E-01  0.18071410806E-01  0.40440050016E-01  0.51100000000E-03 0. -1.
</event>
<event>
 8    1  0.1117714E+005  0.1043930E+01  0.7957747E-01            NaN
         13   -1    0    0    0    0  0.00000000000E+00  0.00000000000E+00  0.74505805969E-08  0.10566000000E+00  0.10566000000E+00 0.  1.
     999900   -1    0    0    0    0 -0.00000000000E+00 -0.00000000000E+00 -0.74505805969E-08  0.93827000000E+00  0.93827000000E+00 0.  1.
     999902    2    1    2    0    0  0.21177643972E-01 -0.55279203573E-02  0.89233956741E-02  0.10202936403E+01  0.10200198209E+01 0.  0.
     999903    2    3    3    0    0  0.95422042703E-01  0.59585451756E-01  0.67831534472E-01  0.13281285137E+00  0.19553621806E-01 0.  0.
         14    1    1    2    0    0 -0.21177643972E-01  0.55279203573E-02 -0.89233956741E-02  0.23636359661E-01  0.00000000000E+00 0. -1.
     999901    1    3    3    0    0 -0.74244398731E-01 -0.65113372114E-01 -0.58908138798E-01  0.88748078897E+00  0.88000000000E+00 0.  1.
        -11    1    4    4    0    0  0.75732921088E-01  0.55852062285E-01  0.54632914535E-01  0.10881150982E+00  0.51100000000E-03 0. -1.
         11    1    4    4    0    0  0.19689121615E-01  0.37333894709E-02  0.13198619937E-01  0.24001341549E-01  0.51100000000E-03 0.  1.
</event>
<event>
 8    1  0.1117714E+005  0.1043930E+01  0.7957747E-01            NaN
         13   -1    0    0    0    0  0.00000000000E+00  0.00000000000E+00  0.74505805969E-08  0.10566000000E+00  0.10566000000E+00 0.  1.
     999900   -1    0    0    0    0 -0.00000000000E+00 -0.00000000000E+00 -0.74505805969E-08  0.93827000000E+00  0.93827000000E+00 0.  1.
     999902    2    1    2    0    0  0.52975469155E-02 -0.14386240186E-02 -0.21076422122E-01  0.10221504405E+01  0.10219183792E+01 0.  0.
     999903    2    3    3    0    0  0.65339694298E-01 -0.10329233291E+00  0.45011014979E-01  0.13178715127E+00  0.20081834602E-01 0.  0.
         14    1    1    2    0    0 -0.52975469155E-02  0.14386240186E-02  0.21076422122E-01  0.21779559497E-01  0.00000000000E+00 0.  1.
     999901    1    3    3    0    0 -0.60042147383E-01  0.10185370889E+00 -0.66087437102E-01  0.89036328924E+00  0.88000000000E+00 0. -1.
        -11    1    4    4    0    0  0.31522018482E-01 -0.54746889284E-01  0.12934259010E-01  0.64485779150E-01  0.51100000000E-03 0.  1.
         11    1    4    4    0    0  0.33817675816E-01 -0.48545443624E-01  0.32076755970E-01  0.67301372117E-01  0.51100000000E-03 0. -1.
</event>
<event>
 8    1  0.1117714E+005  0.1043930E+01  0.7957747E-01            NaN
         13   -1    0    0    0    0  0.00000000000E+00  0.00000000000E+00  0.74505805969E-08  0.10566000000E+00  0.10566000000E+00 0. -1.
     999900   -1    0    0    0    0 -0.00000000000E+00 -0.00000000000E+00 -0.74505805969E-08  0.93827000000E+00  0.93827000000E+00 0.  1.
     999902    2    1    2    0    0 -0.80559904756E-02 -0.16519571955E-01  0.13341821737E-01  0.10212187815E+01  0.10209662091E+01 0.  0.
     999903    2    3    3    0    0  0.29441702801E-01  0.11401259382E+00  0.51014147590E-01  0.13000392104E+00  0.20806028431E-01 0.  0.
         14    1    1    2    0    0  0.80559904756E-02  0.16519571955E-01 -0.13341821737E-01  0.22711218536E-01  0.00000000000E+00 0.  1.
     999901    1    3    3    0    0 -0.37497693277E-01 -0.13053216577E+00 -0.37672325853E-01  0.89121486042E+00  0.88000000000E+00 0. -1.
        -11    1    4    4    0    0 -0.16908671952E-02  0.11257688394E-01  0.96859772893E-02  0.14955729902E-01  0.51100000000E-03 0.  1.
         11    1    4    4    0    0  0.31132569997E-01  0.10275490542E+00  0.41328170301E-01  0.11504819114E+00  0.51100000000E-03 0. -1.
</event>
<event>
 8    1  0.1117714E+005  0.1043930E+01  0.7957747E-01            NaN
         13   -1    0    0    0    0  0.00000000000E+00  0.00000000000E+00  0.74505805969E-08  0.10566000000E+00  0.10566000000E+00 0.  1.
     999900   -1    0    0    0    0 -0.00000000000E+00 -0.00000000000E+00 -0.74505805969E-08  0.93827000000E+00  0.93827000000E+00 0. -1.
     999902    2    1    2    0    0 -0.20148451266E-01  0.18584558699E-01  0.68689825318E-02  0.10156717476E+01  0.10152785677E+01 0.  0.
     999903    2    3    3    0    0  0.49690050292E-01  0.11562334595E+00  0.58660069541E-02  0.12758675810E+00  0.20152210230E-01 0.  0.
         14    1    1    2    0    0  0.20148451266E-01 -0.18584558699E-01 -0.68689825318E-02  0.28258252449E-01  0.00000000000E+00 0.  1.
     999901    1    3    3    0    0 -0.69838501557E-01 -0.97038787254E-01  0.10029755777E-02  0.88808498945E+00  0.88000000000E+00 0. -1.
        -11    1    4    4    0    0  0.50249482633E-01  0.10261221817E+00  0.33043830659E-02  0.11430423392E+00  0.51100000000E-03 0.  1.
         11    1    4    4    0    0 -0.55943234094E-03  0.13011127779E-01  0.25616238881E-02  0.13282524179E-01  0.51100000000E-03 0. -1.
</event>
<event>
 8    1  0.1117714E+005  0.1043930E+01  0.7957747E-01            NaN
         13   -1    0    0    0    0  0.00000000000E+00  0.00000000000E+00  0.74505805969E-08  0.10566000000E+00  0.10566000000E+00 0.  1.
     999900   -1    0    0    0    0 -0.00000000000E+00 -0.00000000000E+00 -0.74505805969E-08  0.93827000000E+00  0.93827000000E+00 0.  1.
     999902    2    1    2    0    0 -0.15875204130E-01 -0.10442928633E-01 -0.14583077405E-01  0.10199770668E+01  0.10196957751E+01 0.  0.
     999903    2    3    3    0    0 -0.37121377844E-01  0.31076495535E-01 -0.12143292109E+00  0.13228784660E+00  0.20257708774E-01 0.  0.
         14    1    1    2    0    0  0.15875204130E-01  0.10442928633E-01  0.14583077405E-01  0.23952933248E-01  0.00000000000E+00 0.  1.
     999901    1    3    3    0    0  0.21246173714E-01 -0.41519424168E-01  0.10684984369E+00  0.88768922015E+00  0.88000000000E+00 0. -1.
        -11    1    4    4    0    0 -0.32404950942E-01  0.17912021482E-01 -0.10053533780E+00  0.10713793271E+00  0.51100000000E-03 0.  1.
         11    1    4    4    0    0 -0.47164269015E-02  0.13164474053E-01 -0.20897583294E-01  0.25149913884E-01  0.51100000000E-03 0. -1.
</event>
<event>
 8    1  0.1117714E+005  0.1043930E+01  0.7957747E-01            NaN
         13   -1    0    0    0    0  0.00000000000E+00  0.00000000000E+00  0.74505805969E-08  0.10566000000E+00  0.10566000000E+00 0.  1.
     999900   -1    0    0    0    0 -0.00000000000E+00 -0.00000000000E+00 -0.74505805969E-08  0.93827000000E+00  0.93827000000E+00 0.  1.
     999902    2    1    2    0    0 -0.21377896257E-01 -0.79149685071E-02  0.84833625238E-02  0.10196065830E+01  0.10193164158E+01 0.  0.
     999903    2    3    3    0    0  0.93861256081E-02 -0.35960073492E-01 -0.12182176419E+00  0.12903801236E+00  0.20713284721E-01 0.  0.
         14    1    1    2    0    0  0.21377896257E-01  0.79149685071E-02 -0.84833625238E-02  0.24323417000E-01  0.00000000000E+00 0. -1.
     999901    1    3    3    0    0 -0.30764021865E-01  0.28045104985E-01  0.13030512672E+00  0.89056857064E+00  0.88000000000E+00 0. -1.
        -11    1    4    4    0    0 -0.37259474958E-02 -0.20138088746E-01 -0.77827126795E-01  0.80478246062E-01  0.51100000000E-03 0.  1.
         11    1    4    4    0    0  0.13112073104E-01 -0.15821984747E-01 -0.43994637400E-01  0.48559766303E-01  0.51100000000E-03 0. -1.
</event>
<event>
 8    1  0.1117714E+005  0.1043930E+01  0.7957747E-01            NaN
         13   -1    0    0    0    0  0.00000000000E+00  0.00000000000E+00  0.74505805969E-08  0.10566000000E+00  0.10566000000E+00 0.  1.
     999900   -1    0    0    0    0 -0.00000000000E+00 -0.00000000000E+00 -0.74505805969E-08  0.93827000000E+00  0.93827000000E+00 0.  1.
     999902    2    1    2    0    0 -0.19117166460E-01 -0.65125831475E-02  0.84144011737E-02  0.10220511988E+01  0.10218169949E+01 0.  0.
     999903    2    3    3    0    0 -0.94281026391E-01 -0.58387888199E-01  0.74248978889E-01  0.13487881158E+00  0.19527557979E-01 0.  0.
         14    1    1    2    0    0  0.19117166460E-01  0.65125831475E-02 -0.84144011737E-02  0.21878801152E-01  0.00000000000E+00 0. -1.
     999901    1    3    3    0    0  0.75163859931E-01  0.51875305051E-01 -0.65834577715E-01  0.88717238727E+00  0.88000000000E+00 0.  1.
        -11    1    4    4    0    0 -0.51794439793E-01 -0.25201792364E-01  0.28988148990E-01  0.64485411022E-01  0.51100000000E-03 0.  1.
         11    1    4    4    0    0 -0.42486586598E-01 -0.33186095835E-01  0.45260829899E-01  0.70393400555E-01  0.51100000000E-03 0. -1.
</event>
<event>
 8    1  0.1117714E+005  0.1043930E+01  0.7957747E-01            NaN
         13   -1    0    0    0    0  0.00000000000E+00  0.00000000000E+00  0.74505805969E-08  0.10566000000E+00  0.10566000000E+00 0.  1.
     999900   -1    0    0    0    0 -0.00000000000E+00 -0.00000000000E+00 -0.74505805969E-08  0.93827000000E+00  0.93827000000E+00 0. -1.
     999902    2    1    2    0    0 -0.22626998279E-01  0.46831720827E-02  0.59539621285E-02  0.10200686753E+01  0.10197895565E+01 0.  0.
     999903    2    3    3    0    0 -0.55836721009E-01  0.87287157626E-01  0.80114530249E-01  0.13247299370E+00  0.19848647401E-01 0.  0.
         14    1    1    2    0    0  0.22626998279E-01 -0.46831720827E-02 -0.59539621285E-02  0.23861324709E-01  0.00000000000E+00 0. -1.
     999901    1    3    3    0    0  0.33209722730E-01 -0.82603985544E-01 -0.74160568121E-01  0.88759568159E+00  0.88000000000E+00 0. -1.
        -11    1    4    4    0    0 -0.19694470099E-01  0.18277294277E-01  0.27603664639E-01  0.38524733109E-01  0.51100000000E-03 0.  1.
         11    1    4    4    0    0 -0.36142250910E-01  0.69009863349E-01  0.52510865610E-01  0.93948260593E-01  0.51100000000E-03 0. -1.
</event>
<event>
 8    1  0.1117714E+005  0.1043930E+01  0.7957747E-01            NaN
         13   -1    0    0    0    0  0.00000000000E+00  0.00000000000E+00  0.74505805969E-08  0.10566000000E+00  0.10566000000E+00 0.  1.
     999900   -1    0    0    0    0 -0.00000000000E+00 -0.00000000000E+00 -0.74505805969E-08  0.93827000000E+00  0.93827000000E+00 0.  1.
     999902    2    1    2    0    0  0.24470005778E-01 -0.75564570872E-02  0.66363843758E-02  0.10174739454E+01  0.10171299360E+01 0.  0.
     999903    2    3    3    0    0 -0.10014419721E-01 -0.43545911428E-01  0.11922747281E+00  0.12890139935E+00  0.20095907005E-01 0.  0.
         14    1    1    2    0    0 -0.24470005778E-01  0.75564570872E-02 -0.66363843758E-02  0.26456054583E-01  0.00000000000E+00 0. -1.
     999901    1    3    3    0    0  0.34484425499E-01  0.35989454341E-01 -0.11259108843E+00  0.88857254606E+00  0.88000000000E+00 0.  1.
        -11    1    4    4    0    0 -0.93296743760E-03 -0.27749180546E-01  0.92280022230E-01  0.96367790641E-01  0.51100000000E-03 0. -1.
         11    1    4    4    0    0 -0.90814522833E-02 -0.15796730883E-01  0.26947450578E-01  0.32533608711E-01  0.51100000000E-03 0.  1.
</event>
<event>
 8    1  0.1117714E+005  0.1043930E+01  0.7957747E-01            NaN
         13   -1    0    0    0    0  0.00000000000E+00  0.00000000000E+00  0.74505805969E-08  0.10566000000E+00  0.10566000000E+00 0. -1.
     999900   -1    0    0    0    0 -0.00000000000E+00 -0.00000000000E+00 -0.74505805969E-08  0.93827000000E+00  0.93827000000E+00 0.  1.
     999902    2    1    2    0    0  0.98872177000E-02  0.21333039290E-01  0.29815735536E-02  0.10202288308E+01  0.10199534900E+01 0.  0.
     999903    2    3    3    0    0  0.13036934175E+00  0.64527550645E-02 -0.39950866307E-02  0.13186739602E+00  0.18309726859E-01 0.  0.
         14    1    1    2    0    0 -0.98872177000E-02 -0.21333039290E-01 -0.29815735536E-02  0.23701169170E-01  0.00000000000E+00 0. -1.
     999901    1    3    3    0    0 -0.12048212405E+00  0.14880284225E-01  0.69766601843E-02  0.88836143481E+00  0.88000000000E+00 0.  1.
        -11    1    4    4    0    0  0.39758234125E-01  0.35402538821E-02  0.70538550618E-02  0.40537249173E-01  0.51100000000E-03 0. -1.
         11    1    4    4    0    0  0.90611107630E-01  0.29125011825E-02 -0.11048941692E-01  0.91330146844E-01  0.51100000000E-03 0.  1.
</event>
<event>
 8    1  0.1117714E+005  0.1043930E+01  0.7957747E-01            NaN
         13   -1    0    0    0    0  0.00000000000E+00  0.00000000000E+00  0.74505805969E-08  0.10566000000E+00  0.10566000000E+00 0.  1.
     999900   -1    0    0    0    0 -0.00000000000E+00 -0.00000000000E+00 -0.74505805969E-08  0.93827000000E+00  0.93827000000E+00 0. -1.
     999902    2    1    2    0    0  0.10807631837E-01 -0.17488337160E-01 -0.12268933821E-01  0.10199889562E+01  0.10197079470E+01 0.  0.
     999903    2    3    3    0    0 -0.77311994533E-01  0.98052311170E-01  0.19641659850E-01  0.12750198374E+00  0.16720072722E-01 0.  0.
         14    1    1    2    0    0 -0.10807631837E-01  0.17488337160E-01  0.12268933821E-01  0.23941043830E-01  0.00000000000E+00 0.  1.
     999901    1    3    3    0    0  0.88119626369E-01 -0.11554064833E+00 -0.31910593671E-01  0.89248697243E+00  0.88000000000E+00 0. -1.
        -11    1    4    4    0    0 -0.23595982948E-01  0.20180292774E-01  0.93275038161E-03  0.31066795329E-01  0.51100000000E-03 0.  1.
         11    1    4    4    0    0 -0.53716011585E-01  0.77872018396E-01  0.18708909469E-01  0.96435188412E-01  0.51100000000E-03 0. -1.
</event>
<event>
 8    1  0.1117714E+005  0.1043930E+01  0.7957747E-01            NaN
         13   -1    0    0    0    0  0.00000000000E+00  0.00000000000E+00  0.74505805969E-08  0.10566000000E+00  0.10566000000E+00 0.  1.
     999900   -1    0    0    0    0 -0.00000000000E+00 -0.00000000000E+00 -0.74505805969E-08  0.93827000000E+00  0.93827000000E+00 0.  1.
     999902    2    1    2    0    0  0.59135898403E-04 -0.24145410724E-01  0.37093355980E-02  0.10195012561E+01  0.10192085399E+01 0.  0.
     999903    2    3    3    0    0  0.14671018763E-01  0.30950481500E-01  0.12341772288E+00  0.12956914499E+00  0.19571865442E-01 0.  0.
         14    1    1    2    0    0 -0.59135898403E-04  0.24145410724E-01 -0.37093355980E-02  0.24428743862E-01  0.00000000000E+00 0. -1.
     999901    1    3    3    0    0 -0.14611882865E-01 -0.55095892224E-01 -0.11970838728E+00  0.88993211114E+00  0.88000000000E+00 0.  1.
        -11    1    4    4    0    0  0.11963390245E-01  0.11078671806E-01  0.81260127094E-01  0.82881415598E-01  0.51100000000E-03 0. -1.
         11    1    4    4    0    0  0.27076285176E-02  0.19871809693E-01  0.42157595786E-01  0.46687729396E-01  0.51100000000E-03 0.  1.
</event>
<event>
 8    1  0.1117714E+005  0.1043930E+01  0.7957747E-01            NaN
         13   -1    0    0    0    0  0.00000000000E+00  0.00000000000E+00  0.74505805969E-08  0.10566000000E+00  0.10566000000E+00 0.  1.
     999900   -1    0    0    0    0 -0.00000000000E+00 -0.00000000000E+00 -0.74505805969E-08  0.93827000000E+00  0.93827000000E+00 0.  1.
     999902    2    1    2    0    0  0.11594385959E-01 -0.15623348903E-01 -0.14484695651E-01  0.10196745836E+01  0.10193860560E+01 0.  0.
     999903    2    3    3    0    0 -0.22681702315E-01 -0.11111387409E+00 -0.65271738373E-01  0.13239074269E+00  0.20153319425E-01 0.  0.
         14    1    1    2    0    0 -0.11594385959E-01  0.15623348903E-01  0.14484695651E-01  0.24255416402E-01  0.00000000000E+00 0.  1.
     999901    1    3    3    0    0  0.34276088275E-01  0.95490525190E-01  0.50787042722E-01  0.88728384091E+00  0.88000000000E+00 0.  1.
        -11    1    4    4    0    0 -0.99637797295E-02 -0.24703438700E-01 -0.23705670748E-01  0.35661698455E-01  0.51100000000E-03 0. -1.
         11    1    4    4    0    0 -0.12717922586E-01 -0.86410435393E-01 -0.41566067625E-01  0.96729044235E-01  0.51100000000E-03 0.  1.
</event>
<event>
 8    1  0.1117714E+005  0.1043930E+01  0.7957747E-01            NaN
         13   -1    0    0    0    0  0.00000000000E+00  0.00000000000E+00  0.74505805969E-08  0.10566000000E+00  0.10566000000E+00 0. -1.
     999900   -1    0    0    0    0 -0.00000000000E+00 -0.00000000000E+00 -0.74505805969E-08  0.93827000000E+00  0.93827000000E+00 0. -1.
     999902    2    1    2    0    0 -0.17398227016E-01 -0.10732418570E-01 -0.12856472165E-01  0.10197810458E+01  0.10194950757E+01 0.  0.
     999903    2    3    3    0    0 -0.65400108358E-01  0.98339554341E-01 -0.52349971408E-01  0.13087125716E+00  0.20950520822E-01 0.  0.
         14    1    1    2    0    0  0.17398227016E-01  0.10732418570E-01  0.12856472165E-01  0.24148954184E-01  0.00000000000E+00 0. -1.
     999901    1    3    3    0    0  0.48001881343E-01 -0.10907197291E+00  0.39493499244E-01  0.88890978866E+00  0.88000000000E+00 0. -1.
        -11    1    4    4    0    0 -0.17260230046E-01  0.29625988965E-01 -0.53574838116E-02  0.34707038438E-01  0.51100000000E-03 0. -1.
         11    1    4    4    0    0 -0.48139878312E-01  0.68713565377E-01 -0.46992487597E-01  0.96164218721E-01  0.51100000000E-03 0.  1.
</event>
<event>
 8    1  0.1117714E+005  0.1043930E+01  0.7957747E-01            NaN
         13   -1    0    0    0    0  0.00000000000E+00  0.00000000000E+00  0.74505805969E-08  0.10566000000E+00  0.10566000000E+00 0.  1.
     999900   -1    0    0    0    0 -0.00000000000E+00 -0.00000000000E+00 -0.74505805969E-08  0.93827000000E+00  0.93827000000E+00 0.  1.
     999902    2    1    2    0    0 -0.15998160780E-01 -0.15471566457E-02  0.18642392774E-01  0.10193154992E+01  0.10190182595E+01 0.  0.
     999903    2    3    3    0    0  0.11587573489E+00  0.47888456047E-01  0.25019315622E-01  0.12809427563E+00  0.78541159197E-02 0.  0.
         14    1    1    2    0    0  0.15998160780E-01  0.15471566457E-02 -0.18642392774E-01  0.24614500814E-01  0.00000000000E+00 0. -1.
     999901    1    3    3    0    0 -0.13187389567E+00 -0.49435612693E-01 -0.63769228482E-02  0.89122122355E+00  0.88000000000E+00 0. -1.
        -11    1    4    4    0    0  0.72685402454E-01  0.34081331911E-01  0.16072332703E-01  0.81873597174E-01  0.51100000000E-03 0. -1.
         11    1    4    4    0    0  0.43190332438E-01  0.13807124137E-01  0.89469829190E-02  0.46220678461E-01  0.51100000000E-03 0.  1.
</event>
<event>
 8    1  0.1117714E+005  0.1043930E+01  0.7957747E-01            NaN
         13   -1    0    0    0    0  0.00000000000E+00  0.00000000000E+00  0.74505805969E-08  0.10566000000E+00  0.10566000000E+00 0. -1.
     999900   -1    0    0    0    0 -0.00000000000E+00 -0.00000000000E+00 -0.74505805969E-08  0.93827000000E+00  0.93827000000E+00 0.  1.
     999902    2    1    2    0    0  0.12081695480E-01  0.17565026871E-01 -0.10608496215E-01  0.10201174460E+01  0.10198394805E+01 0.  0.
     999903    2    3    3    0    0  0.11093896623E+00 -0.26638243643E-01 -0.63010721463E-01  0.13193239644E+00  0.20463527523E-01 0.  0.
         14    1    1    2    0    0 -0.12081695480E-01 -0.17565026871E-01  0.10608496215E-01  0.23812553970E-01  0.00000000000E+00 0. -1.
     999901    1    3    3    0    0 -0.98857270749E-01  0.44203270514E-01  0.52402225248E-01  0.88818504959E+00  0.88000000000E+00 0.  1.
        -11    1    4    4    0    0  0.82535877599E-01 -0.26238185794E-01 -0.54276377544E-01  0.10220958744E+00  0.51100000000E-03 0.  1.
         11    1    4    4    0    0  0.28403088630E-01 -0.40005784961E-03 -0.87343439182E-02  0.29722808998E-01  0.51100000000E-03 0. -1.
</event>
<event>
 8    1  0.1117714E+005  0.1043930E+01  0.7957747E-01            NaN
         13   -1    0    0    0    0  0.00000000000E+00  0.00000000000E+00  0.74505805969E-08  0.10566000000E+00  0.10566000000E+00 0.  1.
     999900   -1    0    0    0    0 -0.00000000000E+00 -0.00000000000E+00 -0.74505805969E-08  0.93827000000E+00  0.93827000000E+00 0.  1.
     999902    2    1    2    0    0 -0.20857411033E-01 -0.11214448914E-01  0.67572477140E-02  0.10193036755E+01  0.10190061468E+01 0.  0.
     999903    2    3    3    0    0  0.24893267076E-01  0.94535168222E-01  0.80846568197E-01  0.12870537469E+00  0.21733225932E-01 0.  0.
         14    1    1    2    0    0  0.20857411033E-01  0.11214448914E-01 -0.67572477140E-02  0.24626324454E-01  0.00000000000E+00 0. -1.
     999901    1    3    3    0    0 -0.45750678109E-01 -0.10574961714E+00 -0.74089320483E-01  0.89059830085E+00  0.88000000000E+00 0. -1.
        -11    1    4    4    0    0  0.35868319360E-03  0.42914316615E-01  0.37037297062E-01  0.56690296514E-01  0.51100000000E-03 0. -1.
         11    1    4    4    0    0  0.24534583882E-01  0.51620851607E-01  0.43809271135E-01  0.72015078180E-01  0.51100000000E-03 0.  1.
</event>
<event>
 8    1  0.1117714E+005  0.1043930E+01  0.7957747E-01            NaN
         13   -1    0    0    0    0  0.00000000000E+00  0.00000000000E+00  0.74505805969E-08  0.10566000000E+00  0.10566000000E+00 0. -1.
     999900   -1    0    0    0    0 -0.00000000000E+00 -0.00000000000E+00 -0.74505805969E-08  0.93827000000E+00  0.93827000000E+00 0.  1.
     999902    2    1    2    0    0 -0.61410897103E-02  0.66381724677E-02  0.20635430960E-01  0.10214000349E+01  0.10211515225E+01 0.  0.
     999903    2    3    3    0    0  0.64338698752E-01  0.69072371211E-01 -0.86978926233E-01  0.12985851616E+00  0.19683495368E-01 0.  0.
         14    1    1    2    0    0  0.61410897103E-02 -0.66381724677E-02 -0.20635430960E-01  0.22529965100E-01  0.00000000000E+00 0.  1.
     999901    1    3    3    0    0 -0.70479788463E-01 -0.62434198744E-01  0.10761435719E+00  0.89154151874E+00  0.88000000000E+00 0. -1.
        -11    1    4    4    0    0  0.37565578657E-01  0.38374576999E-01 -0.36225240135E-01  0.64778931787E-01  0.51100000000E-03 0. -1.
         11    1    4    4    0    0  0.26773120095E-01  0.30697794212E-01 -0.50753686098E-01  0.65079584377E-01  0.51100000000E-03 0.  1.
</event>
<event>
 8    1  0.1117714E+005  0.1043930E+01  0.7957747E-01            NaN
         13   -1    0    0    0    0  0.00000000000E+00  0.00000000000E+00  0.74505805969E-08  0.10566000000E+00  0.10566000000E+00 0. -1.
     999900   -1    0    0    0    0 -0.00000000000E+00 -0.00000000000E+00 -0.74505805969E-08  0.93827000000E+00  0.93827000000E+00 0.  1.
     999902    2    1    2    0    0  0.10000806774E-01  0.11453357862E-01  0.32771004592E-02  0.10283757424E+01  0.10282581060E+01 0.  0.
     999903    2    3    3    0    0  0.12869023821E+00  0.42324943034E-02  0.49214575441E-01  0.13919096203E+00  0.19312122065E-01 0.  0.
         14    1    1    2    0    0 -0.10000806774E-01 -0.11453357862E-01 -0.32771004592E-02  0.15554257612E-01  0.00000000000E+00 0. -1.
     999901    1    3    3    0    0 -0.11868943143E+00  0.72208635584E-02 -0.45937474982E-01  0.88918478035E+00  0.88000000000E+00 0.  1.
        -11    1    4    4    0    0  0.85972862382E-01  0.19853939291E-02  0.23005644241E-01  0.89021321284E-01  0.51100000000E-03 0.  1.
         11    1    4    4    0    0  0.42717375825E-01  0.22471003742E-02  0.26208931200E-01  0.50169640751E-01  0.51100000000E-03 0. -1.
</event>
<event>
 8    1  0.1117714E+005  0.1043930E+01  0.7957747E-01            NaN
         13   -1    0    0    0    0  0.00000000000E+00  0.00000000000E+00  0.74505805969E-08  0.10566000000E+00  0.10566000000E+00 0. -1.
     999900   -1    0    0    0    0 -0.00000000000E+00 -0.00000000000E+00 -0.74505805969E-08  0.93827000000E+00  0.93827000000E+00 0. -1.
     999902    2    1    2    0    0  0.17803951869E-01  0.14436330753E-01  0.53753359605E-02  0.10203867932E+01  0.10201151529E+01 0.  0.
     999903    2    3    3    0    0 -0.11583867197E+00 -0.50038018191E-01 -0.73740693130E-02  0.12787357770E+00  0.19361657706E-01 0.  0.
         14    1    1    2    0    0 -0.17803951869E-01 -0.14436330753E-01 -0.53753359605E-02  0.23543206758E-01  0.00000000000E+00 0. -1.
     999901    1    3    3    0    0  0.13364262383E+00  0.64474348944E-01  0.12749405273E-01  0.89251321554E+00  0.88000000000E+00 0.  1.
        -11    1    4    4    0    0 -0.50609461492E-01 -0.31239387424E-01 -0.78024141640E-02  0.59986295993E-01  0.51100000000E-03 0.  1.
         11    1    4    4    0    0 -0.65229210473E-01 -0.18798630767E-01  0.42834485096E-03  0.67887281710E-01  0.51100000000E-03 0. -1.
</event>
<event>
 8    1  0.1117714E+005  0.1043930E+01  0.7957747E-01            NaN
         13   -1    0    0    0    0  0.00000000000E+00  0.00000000000E+00  0.74505805969E-08  0.10566000000E+00  0.10566000000E+00 0. -1.
     999900   -1    0    0    0    0 -0.00000000000E+00 -0.00000000000E+00 -0.74505805969E-08  0.93827000000E+00  0.93827000000E+00 0. -1.
     999902    2    1    2    0    0 -0.22125257547E-02  0.34864870063E-02 -0.35429883758E-01  0.10082602996E+01  0.10076291502E+01 0.  0.
     999903    2    3    3    0    0  0.30489371896E-01  0.80117499010E-01 -0.85774738194E-01  0.12289239277E+00  0.19920317347E-01 0.  0.
         14    1    1    2    0    0  0.22125257547E-02 -0.34864870063E-02  0.35429883758E-01  0.35669700377E-01  0.00000000000E+00 0. -1.
     999901    1    3    3    0    0 -0.32701897650E-01 -0.76631012004E-01  0.50344854436E-01  0.88536790685E+00  0.88000000000E+00 0.  1.
        -11    1    4    4    0    0  0.22324522075E-01  0.32071557701E-01 -0.34182425827E-01  0.51919827192E-01  0.51100000000E-03 0.  1.
         11    1    4    4    0    0  0.81648498208E-02  0.48045941309E-01 -0.51592312367E-01  0.70972565582E-01  0.51100000000E-03 0. -1.
</event>
<event>
 8    1  0.1117714E+005  0.1043930E+01  0.7957747E-01            NaN
         13   -1    0    0    0    0  0.00000000000E+00  0.00000000000E+00  0.74505805969E-08  0.10566000000E+00  0.10566000000E+00 0.  1.
     999900   -1    0    0    0    0 -0.00000000000E+00 -0.00000000000E+00 -0.74505805969E-08  0.93827000000E+00  0.93827000000E+00 0.  1.
     999902    2    1    2    0    0 -0.16721344932E-02 -0.16207700811E-01  0.14674964326E-01  0.10220019317E+01  0.10217666604E+01 0.  0.
     999903    2    3    3    0    0  0.54606544811E-01 -0.10613566060E+00  0.58808859867E-01  0.13453242329E+00  0.19845345322E-01 0.  0.
         14    1    1    2    0    0  0.16721344932E-02  0.16207700811E-01 -0.14674964326E-01  0.21928068253E-01  0.00000000000E+00 0. -1.
     999901    1    3    3    0    0 -0.56278679304E-01  0.89927959792E-01 -0.44133895541E-01  0.88746950845E+00  0.88000000000E+00 0. -1.
        -11    1    4    4    0    0  0.13697599605E-01 -0.44234471393E-01  0.28532192879E-01  0.54393564379E-01  0.51100000000E-03 0. -1.
         11    1    4    4    0    0  0.40908945206E-01 -0.61901189210E-01  0.30276666988E-01  0.80138858916E-01  0.51100000000E-03 0.  1.
</event>
<event>
 8    1  0.1117714E+005  0.1043930E+01  0.7957747E-01            NaN
         13   -1    0    0    0    0  0.00000000000E+00  0.00000000000E+00  0.74505805969E-08  0.10566000000E+00  0.10566000000E+00 0. -1.
     999900   -1    0    0    0    0 -0.00000000000E+00 -0.00000000000E+00 -0.74505805969E-08  0.93827000000E+00  0.93827000000E+00 0. -1.
     999902    2    1    2    0    0  0.93432268276E-02 -0.59332101876E-02  0.20415114275E-01  0.10207076883E+01  0.10204434865E+01 0.  0.
     999903    2    3    3    0    0  0.58269838611E-01  0.10615853973E+00 -0.42990101323E-01  0.12998966606E+00  0.19599867881E-01 0.  0.
         14    1    1    2    0    0 -0.93432268276E-02  0.59332101876E-02 -0.20415114275E-01  0.23222311719E-01  0.00000000000E+00 0.  1.
     999901    1    3    3    0    0 -0.48926611784E-01 -0.11209174992E+00  0.63405215598E-01  0.89071802222E+00  0.88000000000E+00 0.  1.
        -11    1    4    4    0    0  0.29761979566E-01  0.42617738578E-01 -0.26810267761E-01  0.58490158553E-01  0.51100000000E-03 0.  1.
         11    1    4    4    0    0  0.28507859046E-01  0.63540801156E-01 -0.16179833561E-01  0.71499507509E-01  0.51100000000E-03 0. -1.
</event>
<event>
 8    1  0.1117714E+005  0.1043930E+01  0.7957747E-01            NaN
         13   -1    0    0    0    0  0.00000000000E+00  0.00000000000E+00  0.74505805969E-08  0.10566000000E+00  0.10566000000E+00 0.  1.
     999900   -1    0    0    0    0 -0.00000000000E+00 -0.00000000000E+00 -0.74505805969E-08  0.93827000000E+00  0.93827000000E+00 0. -1.
     999902    2    1    2    0    0  0.62820866969E-03  0.11960240803E-01  0.19707432097E-01  0.10208686712E+01  0.10206081613E+01 0.  0.
     999903    2    3    3    0    0  0.65841732590E-01  0.11620824918E-01  0.11364578453E+00  0.13346947525E+00  0.20701670468E-01 0.  0.
         14    1    1    2    0    0 -0.62820866969E-03 -0.11960240803E-01 -0.19707432097E-01  0.23061328801E-01  0.00000000000E+00 0. -1.
     999901    1    3    3    0    0 -0.65213523920E-01  0.33941588555E-03 -0.93938352436E-01  0.88739919594E+00  0.88000000000E+00 0. -1.
        -11    1    4    4    0    0  0.58236957484E-01  0.52603014410E-02  0.85164066416E-01  0.10330727621E+00  0.51100000000E-03 0. -1.
         11    1    4    4    0    0  0.76047751060E-02  0.63605234769E-02  0.28481718117E-01  0.30162199045E-01  0.51100000000E-03 0.  1.
</event>
<event>
 8    1  0.1117714E+005  0.1043930E+01  0.7957747E-01            NaN
         13   -1    0    0    0    0  0.00000000000E+00  0.00000000000E+00  0.74505805969E-08  0.10566000000E+00  0.10566000000E+00 0. -1.
     999900   -1    0    0    0    0 -0.00000000000E+00 -0.00000000000E+00 -0.74505805969E-08  0.93827000000E+00  0.93827000000E+00 0. -1.
     999902    2    1    2    0    0 -0.17215959658E-01  0.86198484997E-02  0.17621545686E-01  0.10178300014E+01  0.10174953080E+01 0.  0.
     999903    2    3    3    0    0 -0.81697074541E-01  0.51189930054E-01 -0.83187908247E-01  0.12871101496E+00  0.18747702986E-01 0.  0.
         14    1    1    2    0    0  0.17215959658E-01 -0.86198484997E-02 -0.17621545686E-01  0.26099998610E-01  0.00000000000E+00 0.  1.
     999901    1    3    3    0    0  0.64481114883E-01 -0.42570081554E-01  0.10080945393E+00  0.88911898643E+00  0.88000000000E+00 0.  1.
        -11    1    4    4    0    0 -0.47114300810E-01  0.27135192600E-01 -0.34810296371E-01  0.64560776580E-01  0.51100000000E-03 0.  1.
         11    1    4    4    0    0 -0.34582773731E-01  0.24054737454E-01 -0.48377611876E-01  0.64150238384E-01  0.51100000000E-03 0. -1.
</event>
<event>
 8    1  0.1117714E+005  0.1043930E+01  0.7957747E-01            NaN
         13   -1    0    0    0    0  0.00000000000E+00  0.00000000000E+00  0.74505805969E-08  0.10566000000E+00  0.10566000000E+00 0.  1.
     999900   -1    0    0    0    0 -0.00000000000E+00 -0.00000000000E+00 -0.74505805969E-08  0.93827000000E+00  0.93827000000E+00 0.  1.
     999902    2    1    2    0    0  0.39118794009E-02  0.15260095984E-01 -0.18263270618E-01  0.10198111198E+01  0.10195258700E+01 0.  0.
     999903    2    3    3    0    0  0.11820163671E-01  0.12971189709E+00  0.85717096866E-02  0.13195872669E+00  0.19358172103E-01 0.  0.
         14    1    1    2    0    0 -0.39118794009E-02 -0.15260095984E-01  0.18263270618E-01  0.24118880230E-01  0.00000000000E+00 0.  1.
     999901    1    3    3    0    0 -0.79082842705E-02 -0.11445180110E+00 -0.26834980305E-01  0.88785239308E+00  0.88000000000E+00 0. -1.
        -11    1    4    4    0    0  0.61096010631E-02  0.10891762612E+00  0.98894539430E-03  0.10909452616E+00  0.51100000000E-03 0. -1.
         11    1    4    4    0    0  0.57105626083E-02  0.20794270967E-01  0.75827642923E-02  0.22864200525E-01  0.51100000000E-03 0.  1.
</event>
<event>
 8    1  0.1224016E+005  0.1043930E+01  0.7957747E-01            NaN
         13   -1    0    0    0    0  0.00000000000E+00  0.00000000000E+00  0.74505805969E-08  0.10566000000E+00  0.10566000000E+00 0.  1.
     999900   -1    0    0    0    0 -0.00000000000E+00 -0.00000000000E+00 -0.74505805969E-08  0.93827000000E+00  0.93827000000E+00 0. -1.
     999902    2    1    2    0    0  0.89929519260E-02  0.69345344329E-02  0.21204344409E-01  0.10198762025E+01  0.10195925084E+01 0.  0.
     999903    2    3    3    0    0 -0.43544575730E-01 -0.10915088861E+00  0.52571283961E-01  0.13014596128E+00  0.19083625990E-01 0.  0.
         14    1    1    2    0    0 -0.89929519260E-02 -0.69345344329E-02 -0.21204344409E-01  0.24053797496E-01  0.00000000000E+00 0. -1.
     999901    1    3    3    0    0  0.52537527656E-01  0.11608542304E+00 -0.31366939552E-01  0.88973024123E+00  0.88000000000E+00 0. -1.
        -11    1    4    4    0    0 -0.19432976001E-01 -0.58237681538E-01  0.37054823814E-01  0.71711848366E-01  0.51100000000E-03 0. -1.
         11    1    4    4    0    0 -0.24111599728E-01 -0.50913207068E-01  0.15516460147E-01  0.58434112912E-01  0.51100000000E-03 0.  1.
</event>
<event>
 8    1  0.1117714E+005  0.1043930E+01  0.7957747E-01            NaN
         13   -1    0    0    0    0  0.00000000000E+00  0.00000000000E+00  0.74505805969E-08  0.10566000000E+00  0.10566000000E+00 0.  1.
     999900   -1    0    0    0    0 -0.00000000000E+00 -0.00000000000E+00 -0.74505805969E-08  0.93827000000E+00  0.93827000000E+00 0. -1.
     999902    2    1    2    0    0  0.21068300478E-01 -0.40391682077E-02  0.97561338741E-02  0.10203637039E+01  0.10200915243E+01 0.  0.
     999903    2    3    3    0    0  0.67887446172E-02 -0.96206132252E-01 -0.85310837509E-01  0.13034326365E+00  0.20241552443E-01 0.  0.
         14    1    1    2    0    0 -0.21068300478E-01  0.40391682077E-02 -0.97561338741E-02  0.23566296124E-01  0.00000000000E+00 0. -1.
     999901    1    3    3    0    0  0.14279555861E-01  0.92166964044E-01  0.95066971383E-01  0.89002044023E+00  0.88000000000E+00 0.  1.
        -11    1    4    4    0    0  0.87737146458E-02 -0.24996451877E-01 -0.16014031852E-01  0.30959829010E-01  0.51100000000E-03 0. -1.
         11    1    4    4    0    0 -0.19849700286E-02 -0.71209680375E-01 -0.69296805657E-01  0.99383434637E-01  0.51100000000E-03 0.  1.
</event>
<event>
 8    1  0.1117714E+005  0.1043930E+01  0.7957747E-01            NaN
         13   -1    0    0    0    0  0.00000000000E+00  0.00000000000E+00  0.74505805969E-08  0.10566000000E+00  0.10566000000E+00 0. -1.
     999900   -1    0    0    0    0 -0.00000000000E+00 -0.00000000000E+00 -0.74505805969E-08  0.93827000000E+00  0.93827000000E+00 0. -1.
     999902    2    1    2    0    0  0.23187155933E-01 -0.52144582620E-02  0.45240246617E-02  0.10197369933E+01  0.10194499663E+01 0.  0.
     999903    2    3    3    0    0 -0.32175947313E-01  0.21689434344E-01  0.12200206212E+00  0.12979880333E+00  0.21389320644E-01 0.  0.
         14    1    1    2    0    0 -0.23187155933E-01  0.52144582620E-02 -0.45240246617E-02  0.24193006725E-01  0.00000000000E+00 0.  1.
     999901    1    3    3    0    0  0.55363103246E-01 -0.26903892606E-01 -0.11747803746E+00  0.88993818995E+00  0.88000000000E+00 0. -1.
        -11    1    4    4    0    0 -0.17297579419E-01  0.13150358615E-01  0.97441511042E-01  0.99836102591E-01  0.51100000000E-03 0. -1.
         11    1    4    4    0    0 -0.14878367894E-01  0.85390757286E-02  0.24560551075E-01  0.29962700739E-01  0.51100000000E-03 0.  1.
</event>
<event>
 8    1  0.1117714E+005  0.1043930E+01  0.7957747E-01            NaN
         13   -1    0    0    0    0  0.00000000000E+00  0.00000000000E+00  0.74505805969E-08  0.10566000000E+00  0.10566000000E+00 0. -1.
     999900   -1    0    0    0    0 -0.00000000000E+00 -0.00000000000E+00 -0.74505805969E-08  0.93827000000E+00  0.93827000000E+00 0.  1.
     999902    2    1    2    0    0  0.21912433496E-01 -0.55591206052E-02  0.67607721509E-02  0.10203340977E+01  0.10200612258E+01 0.  0.
     999903    2    3    3    0    0  0.61005379762E-01 -0.11076178797E+00  0.35191545774E-01  0.13275076725E+00  0.19861804450E-01 0.  0.
         14    1    1    2    0    0 -0.21912433496E-01  0.55591206052E-02 -0.67607721509E-02  0.23595902265E-01  0.00000000000E+00 0.  1.
     999901    1    3    3    0    0 -0.39092946266E-01  0.10520266737E+00 -0.28430773623E-01  0.88758333049E+00  0.88000000000E+00 0.  1.
        -11    1    4    4    0    0  0.25168089000E-01 -0.29631729932E-01  0.57864259842E-02  0.39309235166E-01  0.51100000000E-03 0. -1.
         11    1    4    4    0    0  0.35837290762E-01 -0.81130058042E-01  0.29405119790E-01  0.93441532083E-01  0.51100000000E-03 0.  1.
</event>
<event>
 8    1  0.1117714E+005  0.1043930E+01  0.7957747E-01            NaN
         13   -1    0    0    0    0  0.00000000000E+00  0.00000000000E+00  0.74505805969E-08  0.10566000000E+00  0.10566000000E+00 0.  1.
     999900   -1    0    0    0    0 -0.00000000000E+00 -0.00000000000E+00 -0.74505805969E-08  0.93827000000E+00  0.93827000000E+00 0. -1.
     999902    2    1    2    0    0  0.12891039404E-03  0.10598142225E-01  0.20999858150E-01  0.10204070053E+01  0.10201358367E+01 0.  0.
     999903    2    3    3    0    0 -0.36067652822E-01  0.79773476051E-01  0.98915774544E-01  0.13352126971E+00  0.19465763524E-01 0.  0.
         14    1    1    2    0    0 -0.12891039404E-03 -0.10598142225E-01 -0.20999858150E-01  0.23522994683E-01  0.00000000000E+00 0.  1.
     999901    1    3    3    0    0  0.36196563216E-01 -0.69175333827E-01 -0.77915916394E-01  0.88688573561E+00  0.88000000000E+00 0. -1.
        -11    1    4    4    0    0 -0.10926196399E-01  0.78822973307E-02  0.13456654951E-01  0.19048754878E-01  0.51100000000E-03 0. -1.
         11    1    4    4    0    0 -0.25141456424E-01  0.71891178721E-01  0.85459119593E-01  0.11447251483E+00  0.51100000000E-03 0.  1.
</event>
<event>
 8    1  0.1117714E+005  0.1043930E+01  0.7957747E-01            NaN
         13   -1    0    0    0    0  0.00000000000E+00  0.00000000000E+00  0.74505805969E-08  0.10566000000E+00  0.10566000000E+00 0.  1.
     999900   -1    0    0    0    0 -0.00000000000E+00 -0.00000000000E+00 -0.74505805969E-08  0.93827000000E+00  0.93827000000E+00 0. -1.
     999902    2    1    2    0    0  0.15310375495E-02 -0.46458036909E-02 -0.24124824191E-01  0.10193142589E+01  0.10190169889E+01 0.  0.
     999903    2    3    3    0    0 -0.34447760671E-01  0.11108423445E+00 -0.56009670409E-01  0.13043600004E+00  0.18711268495E-01 0.  0.
         14    1    1    2    0    0 -0.15310375495E-02  0.46458036909E-02  0.24124824191E-01  0.24615741105E-01  0.00000000000E+00 0.  1.
     999901    1    3    3    0    0  0.35978798221E-01 -0.11573003814E+00  0.31884846218E-01  0.88887825886E+00  0.88000000000E+00 0.  1.
        -11    1    4    4    0    0 -0.31633841602E-01  0.72432198453E-01 -0.37438325448E-01  0.87458633883E-01  0.51100000000E-03 0. -1.
         11    1    4    4    0    0 -0.28139190689E-02  0.38652035994E-01 -0.18571344961E-01  0.42977366156E-01  0.51100000000E-03 0.  1.
</event>
<event>
 8    1  0.1117714E+005  0.1043930E+01  0.7957747E-01            NaN
         13   -1    0    0    0    0  0.00000000000E+00  0.00000000000E+00  0.74505805969E-08  0.10566000000E+00  0.10566000000E+00 0. -1.
     999900   -1    0    0    0    0 -0.00000000000E+00 -0.00000000000E+00 -0.74505805969E-08  0.93827000000E+00  0.93827000000E+00 0. -1.
     999902    2    1    2    0    0 -0.11014374362E-01 -0.15900510784E-02 -0.21718744747E-01  0.10195261360E+01  0.10192340229E+01 0.  0.
     999903    2    3    3    0    0 -0.81335749191E-01 -0.99379065955E-01 -0.18242647815E-01  0.13131452245E+00  0.20469654619E-01 0.  0.
         14    1    1    2    0    0  0.11014374362E-01  0.15900510784E-02  0.21718744747E-01  0.24403864005E-01  0.00000000000E+00 0. -1.
     999901    1    3    3    0    0  0.70321374829E-01  0.97789014876E-01 -0.34760969316E-02  0.88821161355E+00  0.88000000000E+00 0. -1.
        -11    1    4    4    0    0 -0.96425143381E-03 -0.20326356534E-02 -0.35362278749E-02  0.42222526109E-02  0.51100000000E-03 0.  1.
         11    1    4    4    0    0 -0.80371497757E-01 -0.97346430301E-01 -0.14706419940E-01  0.12709226984E+00  0.51100000000E-03 0. -1.
</event>
<event>
 8    1  0.1117714E+005  0.1043930E+01  0.7957747E-01            NaN
         13   -1    0    0    0    0  0.00000000000E+00  0.00000000000E+00  0.74505805969E-08  0.10566000000E+00  0.10566000000E+00 0. -1.
     999900   -1    0    0    0    0 -0.00000000000E+00 -0.00000000000E+00 -0.74505805969E-08  0.93827000000E+00  0.93827000000E+00 0. -1.
     999902    2    1    2    0    0 -0.25600226100E-02  0.12591251133E-01 -0.20029424667E-01  0.10201335470E+01  0.10198559617E+01 0.  0.
     999903    2    3    3    0    0  0.34572940955E-02  0.12988752760E+00 -0.14183912249E-01  0.13231104531E+00  0.20550100610E-01 0.  0.
         14    1    1    2    0    0  0.25600226100E-02 -0.12591251133E-01  0.20029424667E-01  0.23796452958E-01  0.00000000000E+00 0. -1.
     999901    1    3    3    0    0 -0.60173167055E-02 -0.11729627647E+00 -0.58455124186E-02  0.88782250174E+00  0.88000000000E+00 0. -1.
        -11    1    4    4    0    0 -0.38042647580E-02  0.10862418532E+00 -0.15530121992E-01  0.10979586457E+00  0.51100000000E-03 0.  1.
         11    1    4    4    0    0  0.72615588535E-02  0.21263342276E-01  0.13462097437E-02  0.22515180732E-01  0.51100000000E-03 0. -1.
</event>
<event>
 8    1  0.1117714E+005  0.1043930E+01  0.7957747E-01            NaN
         13   -1    0    0    0    0  0.00000000000E+00  0.00000000000E+00  0.74505805969E-08  0.10566000000E+00  0.10566000000E+00 0. -1.
     999900   -1    0    0    0    0 -0.00000000000E+00 -0.00000000000E+00 -0.74505805969E-08  0.93827000000E+00  0.93827000000E+00 0.  1.
     999902    2    1    2    0    0  0.17759857768E-01  0.66741292375E-02  0.13547039056E-01  0.10206173679E+01  0.10203510831E+01 0.  0.
     999903    2    3    3    0    0 -0.53451193166E-01 -0.60023007081E-01  0.10119096000E+00  0.13089776113E+00  0.20852387199E-01 0.  0.
         14    1    1    2    0    0 -0.17759857768E-01 -0.66741292375E-02 -0.13547039056E-01  0.23312632117E-01  0.00000000000E+00 0.  1.
     999901    1    3    3    0    0  0.71211050934E-01  0.66697136319E-01 -0.87643920946E-01  0.88971960676E+00  0.88000000000E+00 0.  1.
        -11    1    4    4    0    0 -0.28624224630E-01 -0.41724743254E-01  0.74768842249E-01  0.90282563807E-01  0.51100000000E-03 0.  1.
         11    1    4    4    0    0 -0.24826968536E-01 -0.18298263828E-01  0.26422117753E-01  0.40615197320E-01  0.51100000000E-03 0. -1.
</event>
<event>
 8    1  0.1117714E+005  0.1043930E+01  0.7957747E-01            NaN
         13   -1    0    0    0    0  0.00000000000E+00  0.00000000000E+00  0.74505805969E-08  0.10566000000E+00  0.10566000000E+00 0. -1.
     999900   -1    0    0    0    0 -0.00000000000E+00 -0.00000000000E+00 -0.74505805969E-08  0.93827000000E+00  0.93827000000E+00 0.  1.
     999902    2    1    2    0    0 -0.13114941085E-01 -0.52569384018E-02  0.18485467510E-01  0.10206630795E+01  0.10203978500E+01 0.  0.
     999903    2    3    3    0    0 -0.48461926222E-01 -0.11854704925E+00  0.27597698013E-01  0.13265007772E+00  0.20795408227E-01 0.  0.
         14    1    1    2    0    0  0.13114941085E-01  0.52569384018E-02 -0.18485467510E-01  0.23266920511E-01  0.00000000000E+00 0.  1.
     999901    1    3    3    0    0  0.35346985137E-01  0.11329011085E+00 -0.91122305033E-02  0.88801300177E+00  0.88000000000E+00 0.  1.
        -11    1    4    4    0    0 -0.94468338458E-02 -0.33753539057E-01  0.16200021778E-01  0.38616653081E-01  0.51100000000E-03 0.  1.
         11    1    4    4    0    0 -0.39015092376E-01 -0.84793510192E-01  0.11397676236E-01  0.94033424634E-01  0.51100000000E-03 0. -1.
</event>
<event>
 8    1  0.1117714E+005  0.1043930E+01  0.7957747E-01            NaN
         13   -1    0    0    0    0  0.00000000000E+00  0.00000000000E+00  0.74505805969E-08  0.10566000000E+00  0.10566000000E+00 0.  1.
     999900   -1    0    0    0    0 -0.00000000000E+00 -0.00000000000E+00 -0.74505805969E-08  0.93827000000E+00  0.93827000000E+00 0. -1.
     999902    2    1    2    0    0 -0.21513490502E-01 -0.86817199978E-02 -0.12647898303E-02  0.10206963557E+01  0.10204318930E+01 0.  0.
     999903    2    3    3    0    0  0.23231678020E-01  0.74671184075E-01  0.10128470070E+00  0.12970464149E+00  0.21194500070E-01 0.  0.
         14    1    1    2    0    0  0.21513490502E-01  0.86817199978E-02  0.12647898303E-02  0.23233644333E-01  0.00000000000E+00 0.  1.
     999901    1    3    3    0    0 -0.44745168522E-01 -0.83352904073E-01 -0.10254949053E+00  0.89099171418E+00  0.88000000000E+00 0. -1.
        -11    1    4    4    0    0 -0.38610416462E-02  0.14764374670E-01  0.19536495347E-01  0.24795769265E-01  0.51100000000E-03 0.  1.
         11    1    4    4    0    0  0.27092719666E-01  0.59906809405E-01  0.81748205354E-01  0.10490887223E+00  0.51100000000E-03 0. -1.
</event>
<event>
 8    1  0.1117714E+005  0.1043930E+01  0.7957747E-01            NaN
         13   -1    0    0    0    0  0.00000000000E+00  0.00000000000E+00  0.74505805969E-08  0.10566000000E+00  0.10566000000E+00 0. -1.
     999900   -1    0    0    0    0 -0.00000000000E+00 -0.00000000000E+00 -0.74505805969E-08  0.93827000000E+00  0.93827000000E+00 0.  1.
     999902    2    1    2    0    0  0.21732897969E-01  0.11684790638E-01 -0.25568641343E-02  0.10191229296E+01  0.10188209631E+01 0.  0.
     999903    2    3    3    0    0  0.43212869190E-02 -0.11735169248E+00  0.47074611823E-01  0.12815892273E+00  0.20459646860E-01 0.  0.
         14    1    1    2    0    0 -0.21732897969E-01 -0.11684790638E-01  0.25568641343E-02  0.24807070375E-01  0.00000000000E+00 0. -1.
     999901    1    3    3    0    0  0.17411611050E-01  0.12903648311E+00 -0.49631475958E-01  0.89096400689E+00  0.88000000000E+00 0.  1.
        -11    1    4    4    0    0 -0.51473793794E-02 -0.59799957092E-01  0.31504544275E-01  0.67788847266E-01  0.51100000000E-03 0. -1.
         11    1    4    4    0    0  0.94686662985E-02 -0.57551735385E-01  0.15570067548E-01  0.60370075466E-01  0.51100000000E-03 0.  1.
</event>
<event>
 8    1  0.1117714E+005  0.1043930E+01  0.7957747E-01            NaN
         13   -1    0    0    0    0  0.00000000000E+00  0.00000000000E+00  0.74505805969E-08  0.10566000000E+00  0.10566000000E+00 0. -1.
     999900   -1    0    0    0    0 -0.00000000000E+00 -0.00000000000E+00 -0.74505805969E-08  0.93827000000E+00  0.93827000000E+00 0.  1.
     999902    2    1    2    0    0  0.60137837252E-02  0.18502211995E-01  0.14348842088E-01  0.10197559082E+01  0.10194693353E+01 0.  0.
     999903    2    3    3    0    0 -0.32884141511E-01  0.84660360306E-02  0.12486689253E+00  0.13193384673E+00  0.25724667800E-01 0.  0.
         14    1    1    2    0    0 -0.60137837252E-02 -0.18502211995E-01 -0.14348842088E-01  0.24174091765E-01  0.00000000000E+00 0.  1.
     999901    1    3    3    0    0  0.38897925236E-01  0.10036175965E-01 -0.11051805045E+00  0.88782206150E+00  0.88000000000E+00 0. -1.
        -11    1    4    4    0    0 -0.12597408934E-01 -0.98920413322E-03  0.87228105180E-01  0.88140096953E-01  0.51100000000E-03 0.  1.
         11    1    4    4    0    0 -0.20286732576E-01  0.94552401638E-02  0.37638787355E-01  0.43793749779E-01  0.51100000000E-03 0. -1.
</event>
<event>
 8    1  0.1117714E+005  0.1043930E+01  0.7957747E-01            NaN
         13   -1    0    0    0    0  0.00000000000E+00  0.00000000000E+00  0.74505805969E-08  0.10566000000E+00  0.10566000000E+00 0.  1.
     999900   -1    0    0    0    0 -0.00000000000E+00 -0.00000000000E+00 -0.74505805969E-08  0.93827000000E+00  0.93827000000E+00 0.  1.
     999902    2    1    2    0    0 -0.19438456948E-01  0.93893937590E-02 -0.99101981134E-02  0.10201765508E+01  0.10198999796E+01 0.  0.
     999903    2    3    3    0    0 -0.43565130034E-01  0.10499258068E+00 -0.66262894066E-01  0.13287857825E+00  0.18562943554E-01 0.  0.
         14    1    1    2    0    0  0.19438456948E-01 -0.93893937590E-02  0.99101981134E-02  0.23753449230E-01  0.00000000000E+00 0.  1.
     999901    1    3    3    0    0  0.24126673086E-01 -0.95603186924E-01  0.56352695952E-01  0.88729797252E+00  0.88000000000E+00 0. -1.
        -11    1    4    4    0    0 -0.23236336214E-02  0.13705466019E-01 -0.14610888180E-01  0.20173701852E-01  0.51100000000E-03 0. -1.
         11    1    4    4    0    0 -0.41241496412E-01  0.91287114663E-01 -0.51652005886E-01  0.11270487639E+00  0.51100000000E-03 0.  1.
</event>
<event>
 8    1  0.1117714E+005  0.1043930E+01  0.7957747E-01            NaN
         13   -1    0    0    0    0  0.00000000000E+00  0.00000000000E+00  0.74505805969E-08  0.10566000000E+00  0.10566000000E+00 0.  1.
     999900   -1    0    0    0    0 -0.00000000000E+00 -0.00000000000E+00 -0.74505805969E-08  0.93827000000E+00  0.93827000000E+00 0. -1.
     999902    2    1    2    0    0 -0.10415425001E-01  0.11757977027E-01  0.17957804742E-01  0.10200717969E+01  0.10197927520E+01 0.  0.
     999903    2    3    3    0    0 -0.66181021882E-02  0.12968649951E+00 -0.96452168256E-02  0.13176808600E+00  0.20184420961E-01 0.  0.
         14    1    1    2    0    0  0.10415425001E-01 -0.11757977027E-01 -0.17957804742E-01  0.23858203052E-01  0.00000000000E+00 0. -1.
     999901    1    3    3    0    0 -0.37973228133E-02 -0.11792852249E+00  0.27603021567E-01  0.88830371094E+00  0.88000000000E+00 0. -1.
        -11    1    4    4    0    0 -0.10635278902E-01  0.77069307519E-01 -0.13038477677E-01  0.78886312754E-01  0.51100000000E-03 0.  1.
         11    1    4    4    0    0  0.40171767134E-02  0.52617191993E-01  0.33932608509E-02  0.52881773251E-01  0.51100000000E-03 0. -1.
</event>
<event>
 8    1  0.1117714E+005  0.1043930E+01  0.7957747E-01            NaN
         13   -1    0    0    0    0  0.00000000000E+00  0.00000000000E+00  0.74505805969E-08  0.10566000000E+00  0.10566000000E+00 0.  1.
     999900   -1    0    0    0    0 -0.00000000000E+00 -0.00000000000E+00 -0.74505805969E-08  0.93827000000E+00  0.93827000000E+00 0. -1.
     999902    2    1    2    0    0  0.18626876673E-01  0.14583476178E-01 -0.56307713853E-02  0.10196124364E+01  0.10193224105E+01 0.  0.
     999903    2    3    3    0    0  0.56725291279E-01  0.98701512681E-01 -0.65187309050E-01  0.13277856560E+00  0.20518648708E-01 0.  0.
         14    1    1    2    0    0 -0.18626876673E-01 -0.14583476178E-01  0.56307713853E-02  0.24317563579E-01  0.00000000000E+00 0.  1.
     999901    1    3    3    0    0 -0.38098414606E-01 -0.84118036503E-01  0.59556537665E-01  0.88683387082E+00  0.88000000000E+00 0.  1.
        -11    1    4    4    0    0  0.53475818310E-01  0.93479438063E-01 -0.55149084985E-01  0.12099483948E+00  0.51100000000E-03 0.  1.
         11    1    4    4    0    0  0.32494729693E-02  0.52220746177E-02 -0.10038224066E-01  0.11783726120E-01  0.51100000000E-03 0. -1.
</event>
<event>
 8    1  0.1117714E+005  0.1043930E+01  0.7957747E-01            NaN
         13   -1    0    0    0    0  0.00000000000E+00  0.00000000000E+00  0.74505805969E-08  0.10566000000E+00  0.10566000000E+00 0. -1.
     999900   -1    0    0    0    0 -0.00000000000E+00 -0.00000000000E+00 -0.74505805969E-08  0.93827000000E+00  0.93827000000E+00 0. -1.
     999902    2    1    2    0    0  0.22277437335E-01 -0.46570897038E-02 -0.28226526038E-02  0.10209966168E+01  0.10207390222E+01 0.  0.
     999903    2    3    3    0    0 -0.71598009797E-01  0.58979564494E-02 -0.10601544086E+00  0.12994512548E+00  0.22031818773E-01 0.  0.
         14    1    1    2    0    0 -0.22277437335E-01  0.46570897038E-02  0.28226526038E-02  0.22933383232E-01  0.00000000000E+00 0.  1.
     999901    1    3    3    0    0  0.93875447132E-01 -0.10555046153E-01  0.10319278826E+00  0.89105149129E+00  0.88000000000E+00 0. -1.
        -11    1    4    4    0    0 -0.38109910917E-01 -0.13660070264E-02 -0.72981393208E-01  0.82345468369E-01  0.51100000000E-03 0. -1.
         11    1    4    4    0    0 -0.33488098880E-01  0.72639634758E-02 -0.33034047653E-01  0.47599657113E-01  0.51100000000E-03 0.  1.
</event>
<event>
 8    1  0.1117714E+005  0.1043930E+01  0.7957747E-01            NaN
         13   -1    0    0    0    0  0.00000000000E+00  0.00000000000E+00  0.74505805969E-08  0.10566000000E+00  0.10566000000E+00 0.  1.
     999900   -1    0    0    0    0 -0.00000000000E+00 -0.00000000000E+00 -0.74505805969E-08  0.93827000000E+00  0.93827000000E+00 0.  1.
     999902    2    1    2    0    0  0.31586046864E-02  0.10505822707E-01  0.20613702184E-01  0.10205789013E+01  0.10203117268E+01 0.  0.
     999903    2    3    3    0    0  0.81217072878E-01  0.59230766828E-02  0.10348040505E+00  0.13323397596E+00  0.20292913954E-01 0.  0.
         14    1    1    2    0    0 -0.31586046864E-02 -0.10505822707E-01 -0.20613702184E-01  0.23351098733E-01  0.00000000000E+00 0. -1.
     999901    1    3    3    0    0 -0.78058468191E-01  0.45827460240E-02 -0.82866702870E-01  0.88734492530E+00  0.88000000000E+00 0.  1.
        -11    1    4    4    0    0  0.55489929169E-01  0.26312895134E-02  0.54588372738E-01  0.77885861893E-01  0.51100000000E-03 0. -1.
         11    1    4    4    0    0  0.25727143709E-01  0.32917871694E-02  0.48892032315E-01  0.55348114070E-01  0.51100000000E-03 0.  1.
</event>
<event>
 8    1  0.1117714E+005  0.1043930E+01  0.7957747E-01            NaN
         13   -1    0    0    0    0  0.00000000000E+00  0.00000000000E+00  0.74505805969E-08  0.10566000000E+00  0.10566000000E+00 0.  1.
     999900   -1    0    0    0    0 -0.00000000000E+00 -0.00000000000E+00 -0.74505805969E-08  0.93827000000E+00  0.93827000000E+00 0.  1.
     999902    2    1    2    0    0 -0.15373990416E-01 -0.19080808811E-01 -0.53446219951E-03  0.10194203591E+01  0.10191256773E+01 0.  0.
     999903    2    3    3    0    0 -0.42343022031E-01  0.81960301937E-01  0.88105181602E-01  0.12880617712E+00  0.17834955308E-01 0.  0.
         14    1    1    2    0    0  0.15373990416E-01  0.19080808811E-01  0.53446219951E-03  0.24509640879E-01  0.00000000000E+00 0.  1.
     999901    1    3    3    0    0  0.26969031616E-01 -0.10104111075E+00 -0.88639643801E-01  0.89061418200E+00  0.88000000000E+00 0.  1.
        -11    1    4    4    0    0 -0.28923525119E-01  0.68300531027E-01  0.63636372518E-01  0.97731171446E-01  0.51100000000E-03 0. -1.
         11    1    4    4    0    0 -0.13419496912E-01  0.13659770910E-01  0.24468809084E-01  0.31075005674E-01  0.51100000000E-03 0.  1.
</event>
<event>
 8    1  0.1117714E+005  0.1043930E+01  0.7957747E-01            NaN
         13   -1    0    0    0    0  0.00000000000E+00  0.00000000000E+00  0.74505805969E-08  0.10566000000E+00  0.10566000000E+00 0.  1.
     999900   -1    0    0    0    0 -0.00000000000E+00 -0.00000000000E+00 -0.74505805969E-08  0.93827000000E+00  0.93827000000E+00 0.  1.
     999902    2    1    2    0    0 -0.14855852334E-01  0.17026431720E-01  0.77693188749E-02  0.10200352717E+01  0.10197553616E+01 0.  0.
     999903    2    3    3    0    0  0.58487154376E-01 -0.31255372590E-02 -0.11298679876E+00  0.12853802635E+00  0.18041377795E-01 0.  0.
         14    1    1    2    0    0  0.14855852334E-01 -0.17026431720E-01 -0.77693188749E-02  0.23894728320E-01  0.00000000000E+00 0. -1.
     999901    1    3    3    0    0 -0.73343006710E-01  0.20151968979E-01  0.12075611764E+00  0.89149724533E+00  0.88000000000E+00 0. -1.
        -11    1    4    4    0    0  0.29933641053E-01 -0.10437570311E-01 -0.62239459702E-01  0.69849675774E-01  0.51100000000E-03 0.  1.
         11    1    4    4    0    0  0.28553513322E-01  0.73120330523E-02 -0.50747339061E-01  0.58688350575E-01  0.51100000000E-03 0. -1.
</event>
<event>
 8    1  0.1117714E+005  0.1043930E+01  0.7957747E-01            NaN
         13   -1    0    0    0    0  0.00000000000E+00  0.00000000000E+00  0.74505805969E-08  0.10566000000E+00  0.10566000000E+00 0. -1.
     999900   -1    0    0    0    0 -0.00000000000E+00 -0.00000000000E+00 -0.74505805969E-08  0.93827000000E+00  0.93827000000E+00 0. -1.
     999902    2    1    2    0    0 -0.12639362219E-01  0.20659909058E-02  0.19234382867E-01  0.10208219218E+01  0.10205603425E+01 0.  0.
     999903    2    3    3    0    0 -0.67882106097E-01 -0.64798027167E-01  0.93609451514E-01  0.13343575526E+00  0.15349485827E-01 0.  0.
         14    1    1    2    0    0  0.12639362219E-01 -0.20659909058E-02 -0.19234382867E-01  0.23108078241E-01  0.00000000000E+00 0.  1.
     999901    1    3    3    0    0  0.55242743878E-01  0.66864018073E-01 -0.74375068647E-01  0.88738616650E+00  0.88000000000E+00 0. -1.
        -11    1    4    4    0    0 -0.34981319454E-01 -0.25428504161E-01  0.35839641702E-01  0.56169765647E-01  0.51100000000E-03 0. -1.
         11    1    4    4    0    0 -0.32900786643E-01 -0.39369523006E-01  0.57769809812E-01  0.77265989609E-01  0.51100000000E-03 0.  1.
</event>
<event>
 8    1  0.1117714E+005  0.1043930E+01  0.7957747E-01            NaN
         13   -1    0    0    0    0  0.00000000000E+00  0.00000000000E+00  0.74505805969E-08  0.10566000000E+00  0.10566000000E+00 0.  1.
     999900   -1    0    0    0    0 -0.00000000000E+00 -0.00000000000E+00 -0.74505805969E-08  0.93827000000E+00  0.93827000000E+00 0. -1.
     999902    2    1    2    0    0 -0.17515786238E-01  0.14731890592E-01 -0.50982522552E-02  0.10204816836E+01  0.10202122539E+01 0.  0.
     999903    2    3    3    0    0 -0.62854453980E-01  0.75980807344E-02  0.11332208798E+00  0.13136422055E+00  0.20155634500E-01 0.  0.
         14    1    1    2    0    0  0.17515786238E-01 -0.14731890592E-01  0.50982522552E-02  0.23448316443E-01  0.00000000000E+00 0.  1.
     999901    1    3    3    0    0  0.45338667742E-01  0.71338098577E-02 -0.11842034023E+00  0.88911746300E+00  0.88000000000E+00 0. -1.
        -11    1    4    4    0    0 -0.31438474539E-01 -0.51491276166E-02  0.45606559278E-01  0.55633717894E-01  0.51100000000E-03 0.  1.
         11    1    4    4    0    0 -0.31415979441E-01  0.12747208351E-01  0.67715528700E-01  0.75730502660E-01  0.51100000000E-03 0. -1.
</event>
<event>
 8    1  0.1117714E+005  0.1043930E+01  0.7957747E-01            NaN
         13   -1    0    0    0    0  0.00000000000E+00  0.00000000000E+00  0.74505805969E-08  0.10566000000E+00  0.10566000000E+00 0. -1.
     999900   -1    0    0    0    0 -0.00000000000E+00 -0.00000000000E+00 -0.74505805969E-08  0.93827000000E+00  0.93827000000E+00 0.  1.
     999902    2    1    2    0    0  0.10175484133E-01 -0.17125046535E-01 -0.13110396193E-01  0.10200827741E+01  0.10198039889E+01 0.  0.
     999903    2    3    3    0    0 -0.44943510565E-01  0.99161663785E-01  0.63196978801E-01  0.12745546211E+00  0.19951992045E-01 0.  0.
         14    1    1    2    0    0 -0.10175484133E-01  0.17125046535E-01  0.13110396193E-01  0.23847225929E-01  0.00000000000E+00 0. -1.
     999901    1    3    3    0    0  0.55118994697E-01 -0.11628671032E+00 -0.76307374994E-01  0.89262731196E+00  0.88000000000E+00 0.  1.
        -11    1    4    4    0    0 -0.27603208753E-01  0.46226528728E-01  0.21966939196E-01  0.58151841160E-01  0.51100000000E-03 0. -1.
         11    1    4    4    0    0 -0.17340301812E-01  0.52935135058E-01  0.41230039605E-01  0.69303620954E-01  0.51100000000E-03 0.  1.
</event>
<event>
 8    1  0.1117714E+005  0.1043930E+01  0.7957747E-01            NaN
         13   -1    0    0    0    0  0.00000000000E+00  0.00000000000E+00  0.74505805969E-08  0.10566000000E+00  0.10566000000E+00 0.  1.
     999900   -1    0    0    0    0 -0.00000000000E+00 -0.00000000000E+00 -0.74505805969E-08  0.93827000000E+00  0.93827000000E+00 0.  1.
     999902    2    1    2    0    0 -0.17141516335E-01  0.10286394601E-01  0.10690722251E-01  0.10212599087E+01  0.10210082606E+01 0.  0.
     999903    2    3    3    0    0 -0.10967029630E+00 -0.37297861383E-01  0.63473336871E-01  0.13355959840E+00  0.19763539101E-01 0.  0.
         14    1    1    2    0    0  0.17141516335E-01 -0.10286394601E-01 -0.10690722251E-01  0.22670091274E-01  0.00000000000E+00 0. -1.
     999901    1    3    3    0    0  0.92528779966E-01  0.47584255984E-01 -0.52782614620E-01  0.88770031032E+00  0.88000000000E+00 0. -1.
        -11    1    4    4    0    0 -0.41295908751E-01 -0.69912832342E-02  0.15286200191E-01  0.44588778387E-01  0.51100000000E-03 0.  1.
         11    1    4    4    0    0 -0.68374387550E-01 -0.30306578149E-01  0.48187136681E-01  0.88970820017E-01  0.51100000000E-03 0. -1.
</event>
<event>
 8    1  0.1117714E+005  0.1043930E+01  0.7957747E-01            NaN
         13   -1    0    0    0    0  0.00000000000E+00  0.00000000000E+00  0.74505805969E-08  0.10566000000E+00  0.10566000000E+00 0.  1.
     999900   -1    0    0    0    0 -0.00000000000E+00 -0.00000000000E+00 -0.74505805969E-08  0.93827000000E+00  0.93827000000E+00 0. -1.
     999902    2    1    2    0    0  0.14658927982E-01 -0.31615097729E-01 -0.62294567082E-02  0.10085293686E+01  0.10079078741E+01 0.  0.
     999903    2    3    3    0    0  0.87924597905E-02 -0.11348540896E+00  0.42847080231E-01  0.12334821775E+00  0.20558821480E-01 0.  0.
         14    1    1    2    0    0 -0.14658927982E-01  0.31615097729E-01  0.62294567082E-02  0.35400631420E-01  0.00000000000E+00 0.  1.
     999901    1    3    3    0    0  0.58664681919E-02  0.81870311234E-01 -0.49076536940E-01  0.88518115083E+00  0.88000000000E+00 0. -1.
        -11    1    4    4    0    0  0.10036061272E-01 -0.79500582830E-01  0.20706647310E-01  0.82765279918E-01  0.51100000000E-03 0.  1.
         11    1    4    4    0    0 -0.12436014813E-02 -0.33984826133E-01  0.22140432922E-01  0.40582937830E-01  0.51100000000E-03 0. -1.
</event>
<event>
 8    1  0.1117714E+005  0.1043930E+01  0.7957747E-01            NaN
         13   -1    0    0    0    0  0.00000000000E+00  0.00000000000E+00  0.74505805969E-08  0.10566000000E+00  0.10566000000E+00 0. -1.
     999900   -1    0    0    0    0 -0.00000000000E+00 -0.00000000000E+00 -0.74505805969E-08  0.93827000000E+00  0.93827000000E+00 0. -1.
     999902    2    1    2    0    0 -0.13405542538E-01 -0.96132150441E-02 -0.13627025098E-01  0.10225333113E+01  0.10223094221E+01 0.  0.
     999903    2    3    3    0    0  0.10049495478E+00 -0.80454089042E-02 -0.83247807286E-01  0.13246430576E+00  0.21275110876E-01 0.  0.
         14    1    1    2    0    0  0.13405542538E-01  0.96132150441E-02  0.13627025098E-01  0.21396688698E-01  0.00000000000E+00 0. -1.
     999901    1    3    3    0    0 -0.11390049732E+00 -0.15678061399E-02  0.69620782188E-01  0.89006900554E+00  0.88000000000E+00 0.  1.
        -11    1    4    4    0    0  0.75786340700E-01 -0.10997386314E-01 -0.52239404401E-01  0.92702364779E-01  0.51100000000E-03 0.  1.
         11    1    4    4    0    0  0.24708614081E-01  0.29519774098E-02 -0.31008402885E-01  0.39761940986E-01  0.51100000000E-03 0. -1.
</event>
<event>
 8    1  0.1117714E+005  0.1043930E+01  0.7957747E-01            NaN
         13   -1    0    0    0    0  0.00000000000E+00  0.00000000000E+00  0.74505805969E-08  0.10566000000E+00  0.10566000000E+00 0. -1.
     999900   -1    0    0    0    0 -0.00000000000E+00 -0.00000000000E+00 -0.74505805969E-08  0.93827000000E+00  0.93827000000E+00 0.  1.
     999902    2    1    2    0    0 -0.21931486748E-02  0.24386299687E-01  0.20321461798E-02  0.10193610942E+01  0.10190649681E+01 0.  0.
     999903    2    3    3    0    0 -0.63733531812E-01  0.99758495364E-01 -0.55192494802E-01  0.13215038295E+00  0.20094570348E-01 0.  0.
         14    1    1    2    0    0  0.21931486748E-02 -0.24386299687E-01 -0.20321461798E-02  0.24568905788E-01  0.00000000000E+00 0. -1.
     999901    1    3    3    0    0  0.61540383137E-01 -0.75372195677E-01  0.57224640982E-01  0.88721071126E+00  0.88000000000E+00 0. -1.
        -11    1    4    4    0    0 -0.53236460192E-01  0.67204107272E-01 -0.42176466176E-01  0.95549087636E-01  0.51100000000E-03 0. -1.
         11    1    4    4    0    0 -0.10497071620E-01  0.32554388092E-01 -0.13016028626E-01  0.36601295316E-01  0.51100000000E-03 0.  1.
</event>
<event>
 8    1  0.1267444E+005  0.1043930E+01  0.7957747E-01            NaN
         13   -1    0    0    0    0  0.00000000000E+00  0.00000000000E+00  0.74505805969E-08  0.10566000000E+00  0.10566000000E+00 0. -1.
     999900   -1    0    0    0    0 -0.00000000000E+00 -0.00000000000E+00 -0.74505805969E-08  0.93827000000E+00  0.93827000000E+00 0.  1.
     999902    2    1    2    0    0  0.48280662921E-02  0.38927265713E-02  0.21379680780E-01  0.10216689512E+01  0.10214264004E+01 0.  0.
     999903    2    3    3    0    0 -0.90354162615E-01  0.47517248971E-01 -0.77871815444E-01  0.12992144479E+00  0.19844357475E-01 0.  0.
         14    1    1    2    0    0 -0.48280662921E-02 -0.38927265713E-02 -0.21379680780E-01  0.22261048820E-01  0.00000000000E+00 0.  1.
     999901    1    3    3    0    0  0.95182228907E-01 -0.43624522400E-01  0.99251496224E-01  0.89174750639E+00  0.88000000000E+00 0. -1.
        -11    1    4    4    0    0 -0.27543224173E-01  0.17701808329E-01 -0.14378630547E-01  0.35762960635E-01  0.51100000000E-03 0. -1.
         11    1    4    4    0    0 -0.62810938442E-01  0.29815440642E-01 -0.63493184897E-01  0.94158484153E-01  0.51100000000E-03 0.  1.
</event>
<event>
 8    1  0.1117714E+005  0.1043930E+01  0.7957747E-01            NaN
         13   -1    0    0    0    0  0.00000000000E+00  0.00000000000E+00  0.74505805969E-08  0.10566000000E+00  0.10566000000E+00 0. -1.
     999900   -1    0    0    0    0 -0.00000000000E+00 -0.00000000000E+00 -0.74505805969E-08  0.93827000000E+00  0.93827000000E+00 0.  1.
     999902    2    1    2    0    0  0.18117652707E-02 -0.31682279533E-02 -0.23791168451E-01  0.10198605202E+01  0.10195764517E+01 0.  0.
     999903    2    3    3    0    0 -0.70143403652E-01 -0.10603763856E+00 -0.24370449225E-01  0.13095107737E+00  0.19753177023E-01 0.  0.
         14    1    1    2    0    0 -0.18117652707E-02  0.31682279533E-02  0.23791168451E-01  0.24069479803E-01  0.00000000000E+00 0. -1.
     999901    1    3    3    0    0  0.71955168922E-01  0.10286941061E+00  0.57928077460E-03  0.88890944282E+00  0.88000000000E+00 0.  1.
        -11    1    4    4    0    0 -0.31869612532E-01 -0.58469436173E-01 -0.20902589195E-01  0.69796321718E-01  0.51100000000E-03 0.  1.
         11    1    4    4    0    0 -0.38273791120E-01 -0.47568202388E-01 -0.34678600301E-02  0.61154755656E-01  0.51100000000E-03 0. -1.
</event>
<event>
 8    1  0.1117714E+005  0.1043930E+01  0.7957747E-01            NaN
         13   -1    0    0    0    0  0.00000000000E+00  0.00000000000E+00  0.74505805969E-08  0.10566000000E+00  0.10566000000E+00 0.  1.
     999900   -1    0    0    0    0 -0.00000000000E+00 -0.00000000000E+00 -0.74505805969E-08  0.93827000000E+00  0.93827000000E+00 0. -1.
     999902    2    1    2    0    0  0.16510554918E-01  0.15455004250E-01 -0.79233478304E-02  0.10199667986E+01  0.10196852628E+01 0.  0.
     999903    2    3    3    0    0 -0.11983929514E+00  0.33985680456E-01 -0.26930758483E-01  0.12907064909E+00  0.20432414612E-01 0.  0.
         14    1    1    2    0    0 -0.16510554918E-01 -0.15455004250E-01  0.79233478304E-02  0.23963201391E-01  0.00000000000E+00 0.  1.
     999901    1    3    3    0    0  0.13634985006E+00 -0.18530676207E-01  0.19007410652E-01  0.89089614952E+00  0.88000000000E+00 0.  1.
        -11    1    4    4    0    0 -0.77814395412E-01  0.11957006202E-01 -0.18547314750E-01  0.80884572918E-01  0.51100000000E-03 0.  1.
         11    1    4    4    0    0 -0.42024899731E-01  0.22028674254E-01 -0.83834437332E-02  0.48186076170E-01  0.51100000000E-03 0. -1.
</event>
<event>
 8    1  0.1117714E+005  0.1043930E+01  0.7957747E-01            NaN
         13   -1    0    0    0    0  0.00000000000E+00  0.00000000000E+00  0.74505805969E-08  0.10566000000E+00  0.10566000000E+00 0. -1.
     999900   -1    0    0    0    0 -0.00000000000E+00 -0.00000000000E+00 -0.74505805969E-08  0.93827000000E+00  0.93827000000E+00 0.  1.
     999902    2    1    2    0    0  0.22446027845E-01  0.97826776190E-02 -0.99155253389E-04  0.10194446007E+01  0.10191505086E+01 0.  0.
     999903    2    3    3    0    0  0.24580008749E-01  0.63871079712E-01 -0.10967341391E+00  0.13099841365E+00  0.21181005760E-01 0.  0.
         14    1    1    2    0    0 -0.22446027845E-01 -0.97826776190E-02  0.99155253389E-04  0.24485399306E-01  0.00000000000E+00 0. -1.
     999901    1    3    3    0    0 -0.21339809039E-02 -0.54088402093E-01  0.10957425866E+00  0.88844618705E+00  0.88000000000E+00 0. -1.
        -11    1    4    4    0    0  0.25178016685E-01  0.37008403943E-01 -0.68047877613E-01  0.81451391978E-01  0.51100000000E-03 0. -1.
         11    1    4    4    0    0 -0.59800793545E-03  0.26862675769E-01 -0.41625536301E-01  0.49547021669E-01  0.51100000000E-03 0.  1.
</event>
<event>
 8    1  0.1117714E+005  0.1043930E+01  0.7957747E-01            NaN
         13   -1    0    0    0    0  0.00000000000E+00  0.00000000000E+00  0.74505805969E-08  0.10566000000E+00  0.10566000000E+00 0.  1.
     999900   -1    0    0    0    0 -0.00000000000E+00 -0.00000000000E+00 -0.74505805969E-08  0.93827000000E+00  0.93827000000E+00 0. -1.
     999902    2    1    2    0    0 -0.21054365465E-01  0.10741079491E-01 -0.21901761275E-02  0.10201928147E+01  0.10199166266E+01 0.  0.
     999903    2    3    3    0    0 -0.29058266897E-01 -0.86815898248E-01  0.90046113162E-01  0.12997432501E+00  0.20090784050E-01 0.  0.
         14    1    1    2    0    0  0.21054365465E-01 -0.10741079491E-01  0.21901761275E-02  0.23737185284E-01  0.00000000000E+00 0. -1.
     999901    1    3    3    0    0  0.80039014321E-02  0.97556977739E-01 -0.92236289289E-01  0.89021848970E+00  0.88000000000E+00 0. -1.
        -11    1    4    4    0    0  0.24172365545E-02 -0.16244719351E-01  0.14709153482E-01  0.22053440922E-01  0.51100000000E-03 0.  1.
         11    1    4    4    0    0 -0.31475503452E-01 -0.70571178897E-01  0.75336959680E-01  0.10792088409E+00  0.51100000000E-03 0. -1.
</event>
<event>
 8    1  0.1117714E+005  0.1043930E+01  0.7957747E-01            NaN
         13   -1    0    0    0    0  0.00000000000E+00  0.00000000000E+00  0.74505805969E-08  0.10566000000E+00  0.10566000000E+00 0. -1.
     999900   -1    0    0    0    0 -0.00000000000E+00 -0.00000000000E+00 -0.74505805969E-08  0.93827000000E+00  0.93827000000E+00 0. -1.
     999902    2    1    2    0    0 -0.18713559232E-01 -0.12464873912E-01  0.61286443228E-02  0.10206248362E+01  0.10203587239E+01 0.  0.
     999903    2    3    3    0    0 -0.12882217203E+00 -0.10112023252E-01  0.27819016652E-01  0.13349467954E+00  0.18695634698E-01 0.  0.
         14    1    1    2    0    0  0.18713559232E-01  0.12464873912E-01 -0.61286443228E-02  0.23305163848E-01  0.00000000000E+00 0.  1.
     999901    1    3    3    0    0  0.11010861280E+00 -0.23528506606E-02 -0.21690372329E-01  0.88713015661E+00  0.88000000000E+00 0. -1.
        -11    1    4    4    0    0 -0.12461386257E+00 -0.13150362100E-01  0.27359155719E-01  0.12825884488E+00  0.51100000000E-03 0. -1.
         11    1    4    4    0    0 -0.42083094653E-02  0.30383388488E-02  0.45986093317E-03  0.52358346607E-02  0.51100000000E-03 0.  1.
</event>
<event>
 8    1  0.1117714E+005  0.1043930E+01  0.7957747E-01            NaN
         13   -1    0    0    0    0  0.00000000000E+00  0.00000000000E+00  0.74505805969E-08  0.10566000000E+00  0.10566000000E+00 0.  1.
     999900   -1    0    0    0    0 -0.00000000000E+00 -0.00000000000E+00 -0.74505805969E-08  0.93827000000E+00  0.93827000000E+00 0. -1.
     999902    2    1    2    0    0 -0.35952036994E-02  0.49118007912E-02 -0.22978219933E-01  0.10201592224E+01  0.10198822428E+01 0.  0.
     999903    2    3    3    0    0  0.56021591020E-01  0.96588020775E-01  0.62079103631E-01  0.12932060636E+00  0.20058407327E-01 0.  0.
         14    1    1    2    0    0  0.35952036994E-02 -0.49118007912E-02  0.22978219933E-01  0.23770777605E-01  0.00000000000E+00 0.  1.
     999901    1    3    3    0    0 -0.59616794719E-01 -0.91676219984E-01 -0.85057323564E-01  0.89083861603E+00  0.88000000000E+00 0. -1.
        -11    1    4    4    0    0 -0.13643551649E-02  0.44174253154E-02  0.42671750366E-02  0.63122908065E-02  0.51100000000E-03 0.  1.
         11    1    4    4    0    0  0.57385946185E-01  0.92170595460E-01  0.57811928595E-01  0.12300831556E+00  0.51100000000E-03 0. -1.
</event>
<event>
 8    1  0.1117714E+005  0.1043930E+01  0.7957747E-01            NaN
         13   -1    0    0    0    0  0.00000000000E+00  0.00000000000E+00  0.74505805969E-08  0.10566000000E+00  0.10566000000E+00 0.  1.
     999900   -1    0    0    0    0 -0.00000000000E+00 -0.00000000000E+00 -0.74505805969E-08  0.93827000000E+00  0.93827000000E+00 0.  1.
     999902    2    1    2    0    0 -0.50506415692E-02  0.22514819288E-01 -0.83969868432E-02  0.10193752559E+01  0.10190794753E+01 0.  0.
     999903    2    3    3    0    0 -0.24756306720E-01 -0.12184388219E+00 -0.13978469763E-01  0.12737811419E+00  0.23895187995E-01 0.  0.
         14    1    1    2    0    0  0.50506415692E-02 -0.22514819288E-01  0.83969868432E-02  0.24554744060E-01  0.00000000000E+00 0.  1.
     999901    1    3    3    0    0  0.19705665151E-01  0.14435870148E+00  0.55814829197E-02  0.89199714175E+00  0.88000000000E+00 0.  1.
        -11    1    4    4    0    0 -0.58622886875E-02 -0.23330198339E-01 -0.12370699537E-01  0.27054757645E-01  0.51100000000E-03 0. -1.
         11    1    4    4    0    0 -0.18894018033E-01 -0.98513683850E-01 -0.16077702261E-02  0.10032335655E+00  0.51100000000E-03 0.  1.
</event>
<event>
 8    1  0.1117714E+005  0.1043930E+01  0.7957747E-01            NaN
         13   -1    0    0    0    0  0.00000000000E+00  0.00000000000E+00  0.74505805969E-08  0.10566000000E+00  0.10566000000E+00 0. -1.
     999900   -1    0    0    0    0 -0.00000000000E+00 -0.00000000000E+00 -0.74505805969E-08  0.93827000000E+00  0.93827000000E+00 0. -1.
     999902    2    1    2    0    0  0.15945396453E-01  0.89303131331E-02 -0.14058960085E-01  0.10208722352E+01  0.10206118067E+01 0.  0.
     999903    2    3    3    0    0 -0.92742266984E-01 -0.16530386440E-01  0.84850101515E-01  0.12832293239E+00  0.19820532020E-01 0.  0.
         14    1    1    2    0    0 -0.15945396453E-01 -0.89303131331E-02  0.14058960085E-01  0.23057764839E-01  0.00000000000E+00 0. -1.
     999901    1    3    3    0    0  0.10868766344E+00  0.25460699573E-01 -0.98909061600E-01  0.89254930277E+00  0.88000000000E+00 0. -1.
        -11    1    4    4    0    0 -0.37397352325E-01 -0.18093615850E-04  0.43042760077E-01  0.57021948445E-01  0.51100000000E-03 0. -1.
         11    1    4    4    0    0 -0.55344914659E-01 -0.16512292824E-01  0.41807341438E-01  0.71300983948E-01  0.51100000000E-03 0.  1.
</event>
<event>
 8    1  0.1449781E+005  0.1043930E+01  0.7957747E-01            NaN
         13   -1    0    0    0    0  0.00000000000E+00  0.00000000000E+00  0.74505805969E-08  0.10566000000E+00  0.10566000000E+00 0.  1.
     999900   -1    0    0    0    0 -0.00000000000E+00 -0.00000000000E+00 -0.74505805969E-08  0.93827000000E+00  0.93827000000E+00 0. -1.
     999902    2    1    2    0    0  0.68581342563E-02  0.14251693425E-02  0.22366008890E-01  0.10204927760E+01  0.10202236042E+01 0.  0.
     999903    2    3    3    0    0  0.40465274753E-01 -0.11962557290E+00 -0.28710413192E-01  0.13010436474E+00  0.12455591020E-01 0.  0.
         14    1    1    2    0    0 -0.68581342563E-02 -0.14251693425E-02 -0.22366008890E-01  0.23437223956E-01  0.00000000000E+00 0. -1.
     999901    1    3    3    0    0 -0.33607140497E-01  0.12105074224E+00  0.51076422082E-01  0.89038841130E+00  0.88000000000E+00 0.  1.
        -11    1    4    4    0    0  0.14842293474E-01 -0.34797094781E-01 -0.36257731999E-02  0.38007089247E-01  0.51100000000E-03 0.  1.
         11    1    4    4    0    0  0.25622981279E-01 -0.84828478115E-01 -0.25084639992E-01  0.92097275494E-01  0.51100000000E-03 0. -1.
</event>
<event>
 8    1  0.1117714E+005  0.1043930E+01  0.7957747E-01            NaN
         13   -1    0    0    0    0  0.00000000000E+00  0.00000000000E+00  0.74505805969E-08  0.10566000000E+00  0.10566000000E+00 0. -1.
     999900   -1    0    0    0    0 -0.00000000000E+00 -0.00000000000E+00 -0.74505805969E-08  0.93827000000E+00  0.93827000000E+00 0.  1.
     999902    2    1    2    0    0  0.20102032396E-01 -0.10255996487E-01 -0.54522906635E-02  0.10207135265E+01  0.10204494590E+01 0.  0.
     999903    2    3    3    0    0  0.42879590383E-01 -0.11709227704E+00  0.40106123913E-01  0.13278989397E+00  0.21803535271E-01 0.  0.
         14    1    1    2    0    0 -0.20102032396E-01  0.10255996487E-01  0.54522906635E-02  0.23216473546E-01  0.00000000000E+00 0. -1.
     999901    1    3    3    0    0 -0.22777557986E-01  0.10683628055E+00 -0.45558414577E-01  0.88792363249E+00  0.88000000000E+00 0.  1.
        -11    1    4    4    0    0  0.36873613470E-01 -0.70080901678E-01  0.24830634744E-01  0.82992877364E-01  0.51100000000E-03 0.  1.
         11    1    4    4    0    0  0.60059769128E-02 -0.47011375364E-01  0.15275489169E-01  0.49797016604E-01  0.51100000000E-03 0. -1.
</event>
<event>
 8    1  0.1117714E+005  0.1043930E+01  0.7957747E-01            NaN
         13   -1    0    0    0    0  0.00000000000E+00  0.00000000000E+00  0.74505805969E-08  0.10566000000E+00  0.10566000000E+00 0.  1.
     999900   -1    0    0    0    0 -0.00000000000E+00 -0.00000000000E+00 -0.74505805969E-08  0.93827000000E+00  0.93827000000E+00 0. -1.
     999902    2    1    2    0    0  0.27937784476E-01  0.11956848609E-01  0.10383206992E-01  0.10118161865E+01  0.10113064314E+01 0.  0.
     999903    2    3    3    0    0 -0.43575941911E-01  0.11336004753E+00  0.38572574686E-03  0.12305481726E+00  0.19823626742E-01 0.  0.
         14    1    1    2    0    0 -0.27937784476E-01 -0.11956848609E-01 -0.10383206992E-01  0.32113813500E-01  0.00000000000E+00 0.  1.
     999901    1    3    3    0    0  0.71513726387E-01 -0.10140319893E+00  0.99974812450E-02  0.88876136924E+00  0.88000000000E+00 0.  1.
        -11    1    4    4    0    0 -0.78908207275E-02  0.46007329504E-01 -0.27862244832E-02  0.46764982494E-01  0.51100000000E-03 0.  1.
         11    1    4    4    0    0 -0.35685121183E-01  0.67352718031E-01  0.31719502301E-02  0.76289834770E-01  0.51100000000E-03 0. -1.
</event>
<event>
 8    1  0.1117714E+005  0.1043930E+01  0.7957747E-01            NaN
         13   -1    0    0    0    0  0.00000000000E+00  0.00000000000E+00  0.74505805969E-08  0.10566000000E+00  0.10566000000E+00 0. -1.
     999900   -1    0    0    0    0 -0.00000000000E+00 -0.00000000000E+00 -0.74505805969E-08  0.93827000000E+00  0.93827000000E+00 0.  1.
     999902    2    1    2    0    0 -0.77011599932E-02  0.14726983649E-01 -0.70460667763E-02  0.10258789898E+01  0.10257201678E+01 0.  0.
     999903    2    3    3    0    0  0.11887811698E+00 -0.39899712958E-01  0.42392642171E-01  0.13377441336E+00  0.19351066361E-01 0.  0.
         14    1    1    2    0    0  0.77011599932E-02 -0.14726983649E-01  0.70460667763E-02  0.18051010211E-01  0.00000000000E+00 0.  1.
     999901    1    3    3    0    0 -0.12657927697E+00  0.54626696606E-01 -0.49438708947E-01  0.89210457643E+00  0.88000000000E+00 0.  1.
        -11    1    4    4    0    0  0.36013803198E-01 -0.40849203413E-02  0.76592158999E-02  0.37048688293E-01  0.51100000000E-03 0. -1.
         11    1    4    4    0    0  0.82864313781E-01 -0.35814792616E-01  0.34733426271E-01  0.96725725068E-01  0.51100000000E-03 0.  1.
</event>
<event>
 8    1  0.1117714E+005  0.1043930E+01  0.7957747E-01            NaN
         13   -1    0    0    0    0  0.00000000000E+00  0.00000000000E+00  0.74505805969E-08  0.10566000000E+00  0.10566000000E+00 0.  1.
     999900   -1    0    0    0    0 -0.00000000000E+00 -0.00000000000E+00 -0.74505805969E-08  0.93827000000E+00  0.93827000000E+00 0. -1.
     999902    2    1    2    0    0 -0.12637112760E-01 -0.15380729418E-01 -0.12685782813E-01  0.10203250738E+01  0.10200519907E+01 0.  0.
     999903    2    3    3    0    0 -0.13734364573E-01  0.80982467292E-01  0.97268524638E-01  0.12826172436E+00  0.15592025930E-01 0.  0.
         14    1    1    2    0    0  0.12637112760E-01  0.15380729418E-01  0.12685782813E-01  0.23604926221E-01  0.00000000000E+00 0.  1.
     999901    1    3    3    0    0  0.10972518131E-02 -0.96363196710E-01 -0.10995430745E+00  0.89206334941E+00  0.88000000000E+00 0. -1.
        -11    1    4    4    0    0 -0.65000461715E-02  0.70205001783E-01  0.79682606333E-01  0.10639817549E+00  0.51100000000E-03 0. -1.
         11    1    4    4    0    0 -0.72343184012E-02  0.10777465510E-01  0.17585918305E-01  0.21863548869E-01  0.51100000000E-03 0.  1.
</event>
<event>
 8    1  0.1117714E+005  0.1043930E+01  0.7957747E-01            NaN
         13   -1    0    0    0    0  0.00000000000E+00  0.00000000000E+00  0.74505805969E-08  0.10566000000E+00  0.10566000000E+00 0.  1.
     999900   -1    0    0    0    0 -0.00000000000E+00 -0.00000000000E+00 -0.74505805969E-08  0.93827000000E+00  0.93827000000E+00 0. -1.
     999902    2    1    2    0    0  0.22675705042E-01  0.61439357747E-02  0.12216841642E-02  0.10204049483E+01  0.10201337316E+01 0.  0.
     999903    2    3    3    0    0 -0.91732229338E-01  0.88306875249E-01 -0.78661490630E-02  0.12915722022E+00  0.20169410445E-01 0.  0.
         14    1    1    2    0    0 -0.22675705042E-01 -0.61439357747E-02 -0.12216841642E-02  0.23525051715E-01  0.00000000000E+00 0.  1.
     999901    1    3    3    0    0  0.11440793438E+00 -0.82162939474E-01  0.90878332272E-02  0.89124772807E+00  0.88000000000E+00 0. -1.
        -11    1    4    4    0    0 -0.46780935372E-01  0.57797780825E-01 -0.83419919331E-02  0.74825726411E-01  0.51100000000E-03 0. -1.
         11    1    4    4    0    0 -0.44951293966E-01  0.30509094424E-01  0.47584287002E-03  0.54331493807E-01  0.51100000000E-03 0.  1.
</event>
<event>
 8    1  0.1117714E+005  0.1043930E+01  0.7957747E-01            NaN
         13   -1    0    0    0    0  0.00000000000E+00  0.00000000000E+00  0.74505805969E-08  0.10566000000E+00  0.10566000000E+00 0.  1.
     999900   -1    0    0    0    0 -0.00000000000E+00 -0.00000000000E+00 -0.74505805969E-08  0.93827000000E+00  0.93827000000E+00 0. -1.
     999902    2    1    2    0    0 -0.21659349113E-01 -0.64622632566E-02  0.40440688785E-02  0.10209682330E+01  0.10207099931E+01 0.  0.
     999903    2    3    3    0    0 -0.83114350840E-01 -0.93537683008E-01 -0.41769250044E-01  0.13335474384E+00  0.19532639266E-01 0.  0.
         14    1    1    2    0    0  0.21659349113E-01  0.64622632566E-02 -0.40440688785E-02  0.22961766994E-01  0.00000000000E+00 0.  1.
     999901    1    3    3    0    0  0.61455001727E-01  0.87075419752E-01  0.45813318922E-01  0.88761348917E+00  0.88000000000E+00 0.  1.
        -11    1    4    4    0    0 -0.50349429124E-01 -0.69794737392E-01 -0.31061748955E-01  0.91495703451E-01  0.51100000000E-03 0. -1.
         11    1    4    4    0    0 -0.32764921716E-01 -0.23742945616E-01 -0.10707501089E-01  0.41859040387E-01  0.51100000000E-03 0.  1.
</event>
<event>
 8    1  0.1117714E+005  0.1043930E+01  0.7957747E-01            NaN
         13   -1    0    0    0    0  0.00000000000E+00  0.00000000000E+00  0.74505805969E-08  0.10566000000E+00  0.10566000000E+00 0.  1.
     999900   -1    0    0    0    0 -0.00000000000E+00 -0.00000000000E+00 -0.74505805969E-08  0.93827000000E+00  0.93827000000E+00 0. -1.
     999902    2    1    2    0    0  0.15625780069E-01 -0.12680064909E-01  0.12095579432E-01  0.10204512417E+01  0.10201811038E+01 0.  0.
     999903    2    3    3    0    0 -0.10136549643E+00  0.75786385087E-01 -0.41631428270E-02  0.12816338592E+00  0.19747954322E-01 0.  0.
         14    1    1    2    0    0 -0.15625780069E-01  0.12680064909E-01 -0.12095579432E-01  0.23478758286E-01  0.00000000000E+00 0. -1.
     999901    1    3    3    0    0  0.11699127650E+00 -0.88466449996E-01  0.16258722259E-01  0.89228785580E+00  0.88000000000E+00 0. -1.
        -11    1    4    4    0    0 -0.91060468264E-01  0.62603980240E-01  0.14257445018E-02  0.11051498130E+00  0.51100000000E-03 0.  1.
         11    1    4    4    0    0 -0.10305028169E-01  0.13182404847E-01 -0.55888873288E-02  0.17648404622E-01  0.51100000000E-03 0. -1.
</event>
<event>
 8    1  0.1117714E+005  0.1043930E+01  0.7957747E-01            NaN
         13   -1    0    0    0    0  0.00000000000E+00  0.00000000000E+00  0.74505805969E-08  0.10566000000E+00  0.10566000000E+00 0.  1.
     999900   -1    0    0    0    0 -0.00000000000E+00 -0.00000000000E+00 -0.74505805969E-08  0.93827000000E+00  0.93827000000E+00 0.  1.
     999902    2    1    2    0    0 -0.10409050446E-01  0.13130379971E-01  0.13428095855E-01  0.10224574834E+01  0.10222319876E+01 0.  0.
     999903    2    3    3    0    0  0.58067072530E-01  0.48280749233E-02 -0.11504844847E+00  0.13045741049E+00  0.19695056173E-01 0.  0.
         14    1    1    2    0    0  0.10409050446E-01 -0.13130379971E-01 -0.13428095855E-01  0.21472516566E-01  0.00000000000E+00 0. -1.
     999901    1    3    3    0    0 -0.68476122976E-01  0.83023050476E-02  0.12847654432E+00  0.89200007294E+00  0.88000000000E+00 0. -1.
        -11    1    4    4    0    0  0.23741160097E-01 -0.21294028322E-02 -0.66088941719E-01  0.70257998675E-01  0.51100000000E-03 0. -1.
         11    1    4    4    0    0  0.34325912433E-01  0.69574777554E-02 -0.48959506749E-01  0.60199411818E-01  0.51100000000E-03 0.  1.
</event>
<event>
 8    1  0.1117714E+005  0.1043930E+01  0.7957747E-01            NaN
         13   -1    0    0    0    0  0.00000000000E+00  0.00000000000E+00  0.74505805969E-08  0.10566000000E+00  0.10566000000E+00 0.  1.
     999900   -1    0    0    0    0 -0.00000000000E+00 -0.00000000000E+00 -0.74505805969E-08  0.93827000000E+00  0.93827000000E+00 0. -1.
     999902    2    1    2    0    0  0.18784161197E-02  0.88850618511E-02  0.21888401538E-01  0.10202324285E+01  0.10199571723E+01 0.  0.
     999903    2    3    3    0    0 -0.39997756980E-01  0.10343804152E-01 -0.11950547727E+00  0.12796118572E+00  0.19639019947E-01 0.  0.
         14    1    1    2    0    0 -0.18784161197E-02 -0.88850618511E-02 -0.21888401538E-01  0.23697571460E-01  0.00000000000E+00 0. -1.
     999901    1    3    3    0    0  0.41876173100E-01 -0.14587423007E-02  0.14139387881E+00  0.89227124282E+00  0.88000000000E+00 0.  1.
        -11    1    4    4    0    0 -0.27465424504E-02  0.63684862512E-02 -0.32432883347E-01  0.33170079225E-01  0.51100000000E-03 0. -1.
         11    1    4    4    0    0 -0.37251214529E-01  0.39753179006E-02 -0.87072593925E-01  0.94791106493E-01  0.51100000000E-03 0.  1.
</event>
<event>
 8    1  0.1117714E+005  0.1043930E+01  0.7957747E-01            NaN
         13   -1    0    0    0    0  0.00000000000E+00  0.00000000000E+00  0.74505805969E-08  0.10566000000E+00  0.10566000000E+00 0.  1.
     999900   -1    0    0    0    0 -0.00000000000E+00 -0.00000000000E+00 -0.74505805969E-08  0.93827000000E+00  0.93827000000E+00 0.  1.
     999902    2    1    2    0    0 -0.68156788476E-02  0.16991774322E-01 -0.23024105552E-01  0.10145143017E+01  0.10140877600E+01 0.  0.
     999903    2    3    3    0    0  0.40487285823E-01 -0.96934155618E-02  0.11448036144E+00  0.12218188138E+00  0.94591947116E-02 0.  0.
         14    1    1    2    0    0  0.68156788476E-02 -0.16991774322E-01  0.23024105552E-01  0.29415698347E-01  0.00000000000E+00 0.  1.
     999901    1    3    3    0    0 -0.47302964671E-01  0.26685189884E-01 -0.13750446699E+00  0.89233242027E+00  0.88000000000E+00 0. -1.
        -11    1    4    4    0    0  0.65187367296E-02 -0.45352110954E-02  0.28482409287E-01  0.29573143695E-01  0.51100000000E-03 0.  1.
         11    1    4    4    0    0  0.33968549093E-01 -0.51582044663E-02  0.85997952150E-01  0.92608737686E-01  0.51100000000E-03 0. -1.
</event>
<event>
 8    1  0.1117714E+005  0.1043930E+01  0.7957747E-01            NaN
         13   -1    0    0    0    0  0.00000000000E+00  0.00000000000E+00  0.74505805969E-08  0.10566000000E+00  0.10566000000E+00 0. -1.
     999900   -1    0    0    0    0 -0.00000000000E+00 -0.00000000000E+00 -0.74505805969E-08  0.93827000000E+00  0.93827000000E+00 0. -1.
     999902    2    1    2    0    0 -0.14843567292E-01 -0.18977983180E-01  0.62048693454E-03  0.10198285407E+01  0.10195437078E+01 0.  0.
     999903    2    3    3    0    0 -0.11838342224E+00  0.27202864013E-01  0.45465857481E-01  0.13142307052E+00  0.21219066817E-01 0.  0.
         14    1    1    2    0    0  0.14843567292E-01  0.18977983180E-01 -0.62048693454E-03  0.24101459283E-01  0.00000000000E+00 0. -1.
     999901    1    3    3    0    0  0.10353985495E+00 -0.46180847193E-01 -0.44845370546E-01  0.88840547019E+00  0.88000000000E+00 0. -1.
        -11    1    4    4    0    0 -0.72279326785E-01  0.26442060021E-01  0.32285882326E-01  0.83463302938E-01  0.51100000000E-03 0.  1.
         11    1    4    4    0    0 -0.46104095459E-01  0.76080399206E-03  0.13179975154E-01  0.47959767585E-01  0.51100000000E-03 0. -1.
</event>
<event>
 8    1  0.1117714E+005  0.1043930E+01  0.7957747E-01            NaN
         13   -1    0    0    0    0  0.00000000000E+00  0.00000000000E+00  0.74505805969E-08  0.10566000000E+00  0.10566000000E+00 0.  1.
     999900   -1    0    0    0    0 -0.00000000000E+00 -0.00000000000E+00 -0.74505805969E-08  0.93827000000E+00  0.93827000000E+00 0.  1.
     999902    2    1    2    0    0 -0.48455578383E-02  0.17047263421E-01  0.18112525719E-01  0.10185892777E+01  0.10182740124E+01 0.  0.
     999903    2    3    3    0    0 -0.10157618038E+00  0.77244513464E-02  0.80024978847E-01  0.13107765519E+00  0.19999172015E-01 0.  0.
         14    1    1    2    0    0  0.48455578383E-02 -0.17047263421E-01 -0.18112525719E-01  0.25340722342E-01  0.00000000000E+00 0. -1.
     999901    1    3    3    0    0  0.96730622543E-01  0.93228120742E-02 -0.61912453129E-01  0.88751162247E+00  0.88000000000E+00 0.  1.
        -11    1    4    4    0    0 -0.81692388434E-01  0.53055972417E-02  0.53349097306E-01  0.97714804378E-01  0.51100000000E-03 0. -1.
         11    1    4    4    0    0 -0.19883791947E-01  0.24188541048E-02  0.26675881541E-01  0.33362850813E-01  0.51100000000E-03 0.  1.
</event>
<event>
 8    1  0.1117714E+005  0.1043930E+01  0.7957747E-01            NaN
         13   -1    0    0    0    0  0.00000000000E+00  0.00000000000E+00  0.74505805969E-08  0.10566000000E+00  0.10566000000E+00 0. -1.
     999900   -1    0    0    0    0 -0.00000000000E+00 -0.00000000000E+00 -0.74505805969E-08  0.93827000000E+00  0.93827000000E+00 0.  1.
     999902    2    1    2    0    0  0.18292490667E-01 -0.11859172364E-01  0.80072274803E-02  0.10207056405E+01  0.10204413916E+01 0.  0.
     999903    2    3    3    0    0 -0.49946509349E-01 -0.67541142044E-01 -0.97164630360E-01  0.13007768079E+00  0.20561565644E-01 0.  0.
         14    1    1    2    0    0 -0.18292490667E-01  0.11859172364E-01 -0.80072274803E-02  0.23224359537E-01  0.00000000000E+00 0.  1.
     999901    1    3    3    0    0  0.68239000016E-01  0.55681969680E-01  0.10517185784E+00  0.89062795967E+00  0.88000000000E+00 0. -1.
        -11    1    4    4    0    0 -0.43889476750E-01 -0.48191024519E-01 -0.65012428774E-01  0.92062685327E-01  0.51100000000E-03 0.  1.
         11    1    4    4    0    0 -0.60570325991E-02 -0.19350117525E-01 -0.32152201587E-01  0.38014995462E-01  0.51100000000E-03 0. -1.
</event>
<event>
 8    1  0.1117714E+005  0.1043930E+01  0.7957747E-01            NaN
         13   -1    0    0    0    0  0.00000000000E+00  0.00000000000E+00  0.74505805969E-08  0.10566000000E+00  0.10566000000E+00 0. -1.
     999900   -1    0    0    0    0 -0.00000000000E+00 -0.00000000000E+00 -0.74505805969E-08  0.93827000000E+00  0.93827000000E+00 0.  1.
     999902    2    1    2    0    0  0.88280528285E-02  0.16730688599E-01  0.12283579188E-01  0.10213748060E+01  0.10211257306E+01 0.  0.
     999903    2    3    3    0    0 -0.78840525514E-01  0.24441254380E-01  0.10169303346E+00  0.13247701495E+00  0.19886755839E-01 0.  0.
         14    1    1    2    0    0 -0.88280528285E-02 -0.16730688599E-01 -0.12283579188E-01  0.22555193979E-01  0.00000000000E+00 0.  1.
     999901    1    3    3    0    0  0.87668578343E-01 -0.77105657804E-02 -0.89409454271E-01  0.88889779107E+00  0.88000000000E+00 0.  1.
        -11    1    4    4    0    0 -0.32144064308E-01  0.16485008742E-01  0.56112486152E-01  0.66737310454E-01  0.51100000000E-03 0.  1.
         11    1    4    4    0    0 -0.46696461206E-01  0.79562456375E-02  0.45580547307E-01  0.65739704499E-01  0.51100000000E-03 0. -1.
</event>
<event>
 8    1  0.1117714E+005  0.1043930E+01  0.7957747E-01            NaN
         13   -1    0    0    0    0  0.00000000000E+00  0.00000000000E+00  0.74505805969E-08  0.10566000000E+00  0.10566000000E+00 0. -1.
     999900   -1    0    0    0    0 -0.00000000000E+00 -0.00000000000E+00 -0.74505805969E-08  0.93827000000E+00  0.93827000000E+00 0.  1.
     999902    2    1    2    0    0  0.57651364559E-02 -0.18990334300E-01  0.13222235100E-01  0.10200826292E+01  0.10198038406E+01 0.  0.
     999903    2    3    3    0    0 -0.54957912713E-01  0.11291086158E+00  0.15776007429E-01  0.12817919496E+00  0.20292579400E-01 0.  0.
         14    1    1    2    0    0 -0.57651364559E-02  0.18990334300E-01 -0.13222235100E-01  0.23847370845E-01  0.00000000000E+00 0.  1.
     999901    1    3    3    0    0  0.60723049169E-01 -0.13190119588E+00 -0.25537723289E-02  0.89190343419E+00  0.88000000000E+00 0.  1.
        -11    1    4    4    0    0 -0.25856652252E-01  0.74951857969E-01  0.75922168989E-02  0.79650802615E-01  0.51100000000E-03 0. -1.
         11    1    4    4    0    0 -0.29101260461E-01  0.37959003607E-01  0.81837905304E-02  0.48528392346E-01  0.51100000000E-03 0.  1.
</event>
<event>
 7    1  0.1117714E+005  0.1043930E+01  0.7957747E-01            NaN
         13   -1    0    0    0    0  0.00000000000E+00  0.00000000000E+00  0.74505805969E-08  0.10566000000E+00  0.10566000000E+00 0. -1.
     999900   -1    0    0    0    0 -0.00000000000E+00 -0.00000000000E+00 -0.74505805969E-08  0.93827000000E+00  0.93827000000E+00 0.  1.
     999902    2    1    2    0    0  0.37255643207E-03  0.17380027871E-02 -0.22416663573E-01  0.10214429758E+01  0.10211954203E+01 0.  0.
         14    1    1    2    0    0 -0.37255643207E-03 -0.17380027871E-02  0.22416663573E-01  0.22487024207E-01  0.00000000000E+00 0. -1.
     999901    1    3    3    0    0  0.56118808549E-01  0.69197175836E-01  0.67929848248E-01  0.88710316993E+00  0.88000000000E+00 0. -1.
        -11    1    3    3    0    0 -0.16231916273E-02 -0.31399482124E-01 -0.15104302283E-01  0.34885001035E-01  0.51100000000E-03 0. -1.
         11    1    3    3    0    0 -0.54123060490E-01 -0.36059690925E-01 -0.75242209537E-01  0.99454804828E-01  0.51100000000E-03 0.  1.
</event>
<event>
 8    1  0.1117714E+005  0.1043930E+01  0.7957747E-01            NaN
         13   -1    0    0    0    0  0.00000000000E+00  0.00000000000E+00  0.74505805969E-08  0.10566000000E+00  0.10566000000E+00 0.  1.
     999900   -1    0    0    0    0 -0.00000000000E+00 -0.00000000000E+00 -0.74505805969E-08  0.93827000000E+00  0.93827000000E+00 0.  1.
     999902    2    1    2    0    0 -0.50296433972E-02  0.20273089043E-01 -0.16108346900E-01  0.10175524662E+01  0.10172105225E+01 0.  0.
     999903    2    3    3    0    0  0.11923459099E+00 -0.32831127500E-01  0.18062089477E-01  0.12658149217E+00  0.20046557317E-01 0.  0.
         14    1    1    2    0    0  0.50296433972E-02 -0.20273089043E-01  0.16108346900E-01  0.26377533848E-01  0.00000000000E+00 0. -1.
     999901    1    3    3    0    0 -0.12426423439E+00  0.53104216543E-01 -0.34170436378E-01  0.89097097399E+00  0.88000000000E+00 0.  1.
        -11    1    4    4    0    0  0.73801241694E-01 -0.30198534551E-01  0.10133145353E-01  0.80383558769E-01  0.51100000000E-03 0.  1.
         11    1    4    4    0    0  0.45433349300E-01 -0.26325929494E-02  0.79289441244E-02  0.46197933397E-01  0.51100000000E-03 0. -1.
</event>
<event>
 8    1  0.1117714E+005  0.1043930E+01  0.7957747E-01            NaN
         13   -1    0    0    0    0  0.00000000000E+00  0.00000000000E+00  0.74505805969E-08  0.10566000000E+00  0.10566000000E+00 0. -1.
     999900   -1    0    0    0    0 -0.00000000000E+00 -0.00000000000E+00 -0.74505805969E-08  0.93827000000E+00  0.93827000000E+00 0.  1.
     999902    2    1    2    0    0 -0.23642300674E-01 -0.63807001140E-03  0.86553795005E-02  0.10187450619E+01  0.10184337092E+01 0.  0.
     999903    2    3    3    0    0 -0.11183888411E+00  0.10586398123E-01  0.66817924875E-01  0.13235490640E+00  0.20812936833E-01 0.  0.
         14    1    1    2    0    0  0.23642300674E-01  0.63807001140E-03 -0.86553795005E-02  0.25184938134E-01  0.00000000000E+00 0. -1.
     999901    1    3    3    0    0  0.88196583439E-01 -0.11224468135E-01 -0.58162545374E-01  0.88639015546E+00  0.88000000000E+00 0.  1.
        -11    1    4    4    0    0 -0.13508591200E-01 -0.52415161705E-02  0.62637298996E-02  0.15794016628E-01  0.51100000000E-03 0. -1.
         11    1    4    4    0    0 -0.98330292913E-01  0.15827914294E-01  0.60554194975E-01  0.11656088978E+00  0.51100000000E-03 0.  1.
</event>
<event>
 8    1  0.1117714E+005  0.1043930E+01  0.7957747E-01            NaN
         13   -1    0    0    0    0  0.00000000000E+00  0.00000000000E+00  0.74505805969E-08  0.10566000000E+00  0.10566000000E+00 0. -1.
     999900   -1    0    0    0    0 -0.00000000000E+00 -0.00000000000E+00 -0.74505805969E-08  0.93827000000E+00  0.93827000000E+00 0.  1.
     999902    2    1    2    0    0 -0.20415403943E-01 -0.53029155427E-02 -0.97400172512E-02  0.10206968864E+01  0.10204324360E+01 0.  0.
     999903    2    3    3    0    0  0.39155783420E-01  0.12144832378E+00 -0.10101639693E-01  0.12962184253E+00  0.20418330294E-01 0.  0.
         14    1    1    2    0    0  0.20415403943E-01  0.53029155427E-02  0.97400172512E-02  0.23233113598E-01  0.00000000000E+00 0. -1.
     999901    1    3    3    0    0 -0.59571187363E-01 -0.12675123933E+00  0.36162244215E-03  0.89107504387E+00  0.88000000000E+00 0. -1.
        -11    1    4    4    0    0  0.72727067761E-02  0.55339309659E-01 -0.34661704008E-02  0.55925011539E-01  0.51100000000E-03 0. -1.
         11    1    4    4    0    0  0.31883076644E-01  0.66109014126E-01 -0.66354692926E-02  0.73696830995E-01  0.51100000000E-03 0.  1.
</event>
<event>
 8    1  0.1117714E+005  0.1043930E+01  0.7957747E-01            NaN
         13   -1    0    0    0    0  0.00000000000E+00  0.00000000000E+00  0.74505805969E-08  0.10566000000E+00  0.10566000000E+00 0.  1.
     999900   -1    0    0    0    0 -0.00000000000E+00 -0.00000000000E+00 -0.74505805969E-08  0.93827000000E+00  0.93827000000E+00 0. -1.
     999902    2    1    2    0    0 -0.11138794643E-01  0.13627323249E-02  0.20508785316E-01  0.10205518037E+01  0.10202840017E+01 0.  0.
     999903    2    3    3    0    0 -0.10563447893E+00  0.20074599764E-01 -0.71264216274E-01  0.13055076320E+00  0.20081846426E-01 0.  0.
         14    1    1    2    0    0  0.11138794643E-01 -0.13627323249E-02 -0.20508785316E-01  0.23378196266E-01  0.00000000000E+00 0. -1.
     999901    1    3    3    0    0  0.94495684288E-01 -0.18711867439E-01  0.91773001590E-01  0.89000104053E+00  0.88000000000E+00 0.  1.
        -11    1    4    4    0    0 -0.60070897994E-01  0.59972961663E-02 -0.49759158434E-01  0.78235000583E-01  0.51100000000E-03 0.  1.
         11    1    4    4    0    0 -0.45563580937E-01  0.14077303598E-01 -0.21505057840E-01  0.52315762616E-01  0.51100000000E-03 0. -1.
</event>
<event>
 8    1  0.1117714E+005  0.1043930E+01  0.7957747E-01            NaN
         13   -1    0    0    0    0  0.00000000000E+00  0.00000000000E+00  0.74505805969E-08  0.10566000000E+00  0.10566000000E+00 0. -1.
     999900   -1    0    0    0    0 -0.00000000000E+00 -0.00000000000E+00 -0.74505805969E-08  0.93827000000E+00  0.93827000000E+00 0. -1.
     999902    2    1    2    0    0  0.28999353638E-02 -0.19939246861E-01  0.11877898878E-01  0.10205405222E+01  0.10202724586E+01 0.  0.
     999903    2    3    3    0    0  0.10765979879E+00 -0.74986950311E-01  0.24409721552E-02  0.13256871282E+00  0.18836939302E-01 0.  0.
         14    1    1    2    0    0 -0.28999353638E-02  0.19939246861E-01 -0.11877898878E-01  0.23389477811E-01  0.00000000000E+00 0.  1.
     999901    1    3    3    0    0 -0.10475986343E+00  0.55047703451E-01  0.94369267232E-02  0.88797180936E+00  0.88000000000E+00 0.  1.
        -11    1    4    4    0    0  0.43979850395E-01 -0.22262746660E-01 -0.50516518518E-02  0.49554388676E-01  0.51100000000E-03 0.  1.
         11    1    4    4    0    0  0.63679948395E-01 -0.52724203652E-01  0.74926240070E-02  0.83014324149E-01  0.51100000000E-03 0. -1.
</event>
<event>
 8    1  0.1117714E+005  0.1043930E+01  0.7957747E-01            NaN
         13   -1    0    0    0    0  0.00000000000E+00  0.00000000000E+00  0.74505805969E-08  0.10566000000E+00  0.10566000000E+00 0.  1.
     999900   -1    0    0    0    0 -0.00000000000E+00 -0.00000000000E+00 -0.74505805969E-08  0.93827000000E+00  0.93827000000E+00 0. -1.
     999902    2    1    2    0    0 -0.23419495059E-01 -0.88249817190E-03  0.73903828941E-04  0.10204937671E+01  0.10202246182E+01 0.  0.
     999903    2    3    3    0    0  0.12326128421E+00 -0.87655694414E-02  0.26866220372E-01  0.12791591498E+00  0.19248587385E-01 0.  0.
         14    1    1    2    0    0  0.23419495059E-01  0.88249817190E-03 -0.73903828941E-04  0.23436232923E-01  0.00000000000E+00 0. -1.
     999901    1    3    3    0    0 -0.14668077927E+00  0.78830712695E-02 -0.26792316543E-01  0.89257785209E+00  0.88000000000E+00 0.  1.
        -11    1    4    4    0    0  0.94567344785E-01 -0.11593229186E-01  0.27176519338E-01  0.99076788336E-01  0.51100000000E-03 0. -1.
         11    1    4    4    0    0  0.28693939425E-01  0.28276597447E-02 -0.31029896591E-03  0.28839126648E-01  0.51100000000E-03 0.  1.
</event>
<event>
 8    1  0.1117714E+005  0.1043930E+01  0.7957747E-01            NaN
         13   -1    0    0    0    0  0.00000000000E+00  0.00000000000E+00  0.74505805969E-08  0.10566000000E+00  0.10566000000E+00 0.  1.
     999900   -1    0    0    0    0 -0.00000000000E+00 -0.00000000000E+00 -0.74505805969E-08  0.93827000000E+00  0.93827000000E+00 0. -1.
     999902    2    1    2    0    0  0.19102623894E-01  0.14825957183E-01 -0.21654182153E-04  0.10197490216E+01  0.10194622835E+01 0.  0.
     999903    2    3    3    0    0 -0.83517244517E-01  0.11987452611E-01  0.95073608307E-01  0.12869234361E+00  0.20097242468E-01 0.  0.
         14    1    1    2    0    0 -0.19102623894E-01 -0.14825957183E-01  0.21654182153E-04  0.24180978370E-01  0.00000000000E+00 0.  1.
     999901    1    3    3    0    0  0.10261986841E+00  0.28385045718E-02 -0.95095262489E-01  0.89105667802E+00  0.88000000000E+00 0. -1.
        -11    1    4    4    0    0 -0.79338539982E-01  0.15810757415E-01  0.90552175355E-01  0.12142710389E+00  0.51100000000E-03 0. -1.
         11    1    4    4    0    0 -0.41787045355E-02 -0.38233048041E-02  0.45214329521E-02  0.72652397180E-02  0.51100000000E-03 0.  1.
</event>
<event>
 8    1  0.1117714E+005  0.1043930E+01  0.7957747E-01            NaN
         13   -1    0    0    0    0  0.00000000000E+00  0.00000000000E+00  0.74505805969E-08  0.10566000000E+00  0.10566000000E+00 0.  1.
     999900   -1    0    0    0    0 -0.00000000000E+00 -0.00000000000E+00 -0.74505805969E-08  0.93827000000E+00  0.93827000000E+00 0.  1.
     999902    2    1    2    0    0 -0.40741506521E-02  0.13307035589E-01  0.20219534992E-01  0.10193840126E+01  0.10190884455E+01 0.  0.
     999903    2    3    3    0    0  0.38912590125E-01  0.82727437647E-01 -0.89583769927E-01  0.12880901981E+00  0.14439291519E-01 0.  0.
         14    1    1    2    0    0  0.40741506521E-02 -0.13307035589E-01 -0.20219534992E-01  0.24545987350E-01  0.00000000000E+00 0. -1.
     999901    1    3    3    0    0 -0.42986740777E-01 -0.69420402058E-01  0.10980330492E+00  0.89057499284E+00  0.88000000000E+00 0. -1.
        -11    1    4    4    0    0  0.40436834232E-02  0.16279189306E-01 -0.10543394712E-01  0.19818871642E-01  0.51100000000E-03 0.  1.
         11    1    4    4    0    0  0.34868906702E-01  0.66448248342E-01 -0.79040375214E-01  0.10899014817E+00  0.51100000000E-03 0. -1.
</event>
<event>
 8    1  0.1117714E+005  0.1043930E+01  0.7957747E-01            NaN
         13   -1    0    0    0    0  0.00000000000E+00  0.00000000000E+00  0.74505805969E-08  0.10566000000E+00  0.10566000000E+00 0. -1.
     999900   -1    0    0    0    0 -0.00000000000E+00 -0.00000000000E+00 -0.74505805969E-08  0.93827000000E+00  0.93827000000E+00 0.  1.
     999902    2    1    2    0    0 -0.58758832529E-02  0.39704780032E-02  0.22601944859E-01  0.10202416355E+01  0.10199665957E+01 0.  0.
     999903    2    3    3    0    0  0.17482991570E-01 -0.10362718860E+00  0.77469440625E-01  0.13168475104E+00  0.17178772196E-01 0.  0.
         14    1    1    2    0    0  0.58758832529E-02 -0.39704780032E-02 -0.22601944859E-01  0.23688364464E-01  0.00000000000E+00 0.  1.
     999901    1    3    3    0    0 -0.23358874823E-01  0.10759766661E+00 -0.54867495766E-01  0.88855688450E+00  0.88000000000E+00 0.  1.
        -11    1    4    4    0    0  0.65427779533E-02 -0.88091665919E-02  0.67616915334E-02  0.12899261715E-01  0.51100000000E-03 0.  1.
         11    1    4    4    0    0  0.10940213617E-01 -0.94818022010E-01  0.70707749091E-01  0.11878548933E+00  0.51100000000E-03 0. -1.
</event>
<event>
 8    1  0.1117714E+005  0.1043930E+01  0.7957747E-01            NaN
         13   -1    0    0    0    0  0.00000000000E+00  0.00000000000E+00  0.74505805969E-08  0.10566000000E+00  0.10566000000E+00 0. -1.
     999900   -1    0    0    0    0 -0.00000000000E+00 -0.00000000000E+00 -0.74505805969E-08  0.93827000000E+00  0.93827000000E+00 0.  1.
     999902    2    1    2    0    0  0.25371078766E-02 -0.23345623172E-01 -0.31695199871E-02  0.10202339899E+01  0.10199587704E+01 0.  0.
     999903    2    3    3    0    0  0.42941493078E-01 -0.12442167224E+00 -0.98478315205E-02  0.13350207896E+00  0.20027504845E-01 0.  0.
         14    1    1    2    0    0 -0.25371078766E-02  0.23345623172E-01  0.31695199871E-02  0.23696010099E-01  0.00000000000E+00 0. -1.
     999901    1    3    3    0    0 -0.40404385201E-01  0.10107604907E+00  0.66783115334E-02  0.88673191094E+00  0.88000000000E+00 0. -1.
        -11    1    4    4    0    0  0.38670957166E-02 -0.20422761821E-01  0.50848284278E-02  0.21404677779E-01  0.51100000000E-03 0.  1.
         11    1    4    4    0    0  0.39074397361E-01 -0.10399891042E+00 -0.14932659948E-01  0.11209740118E+00  0.51100000000E-03 0. -1.
</event>
<event>
 8    1  0.1117714E+005  0.1043930E+01  0.7957747E-01            NaN
         13   -1    0    0    0    0  0.00000000000E+00  0.00000000000E+00  0.74505805969E-08  0.10566000000E+00  0.10566000000E+00 0.  1.
     999900   -1    0    0    0    0 -0.00000000000E+00 -0.00000000000E+00 -0.74505805969E-08  0.93827000000E+00  0.93827000000E+00 0. -1.
     999902    2    1    2    0    0 -0.13120408061E-01  0.15425358328E-01 -0.11911535550E-01  0.10204359270E+01  0.10201654325E+01 0.  0.
     999903    2    3    3    0    0 -0.57433677675E-02 -0.11770640039E+00  0.47245851457E-01  0.12842803334E+00  0.19334071008E-01 0.  0.
         14    1    1    2    0    0  0.13120408061E-01 -0.15425358328E-01  0.11911535550E-01  0.23494073006E-01  0.00000000000E+00 0. -1.
     999901    1    3    3    0    0 -0.73770402934E-02  0.13313175872E+00 -0.59157387007E-01  0.89200789365E+00  0.88000000000E+00 0.  1.
        -11    1    4    4    0    0  0.20558248763E-02 -0.20626959600E-02 -0.62827311001E-03  0.30227435627E-02  0.51100000000E-03 0.  1.
         11    1    4    4    0    0 -0.77991926438E-02 -0.11564370443E+00  0.47874124567E-01  0.12540528978E+00  0.51100000000E-03 0. -1.
</event>
<event>
 8    1  0.1117714E+005  0.1043930E+01  0.7957747E-01            NaN
         13   -1    0    0    0    0  0.00000000000E+00  0.00000000000E+00  0.74505805969E-08  0.10566000000E+00  0.10566000000E+00 0.  1.
     999900   -1    0    0    0    0 -0.00000000000E+00 -0.00000000000E+00 -0.74505805969E-08  0.93827000000E+00  0.93827000000E+00 0. -1.
     999902    2    1    2    0    0 -0.15980620769E-01 -0.10665142781E-01  0.14119898022E-01  0.10200868242E+01  0.10198081349E+01 0.  0.
     999903    2    3    3    0    0 -0.41612715181E-01  0.11699051836E+00 -0.29874423673E-01  0.12941939335E+00  0.20940361350E-01 0.  0.
         14    1    1    2    0    0  0.15980620769E-01  0.10665142781E-01 -0.14119898022E-01  0.23843175771E-01  0.00000000000E+00 0. -1.
     999901    1    3    3    0    0  0.25632094413E-01 -0.12765566115E+00  0.43994321695E-01  0.89066743088E+00  0.88000000000E+00 0. -1.
        -11    1    4    4    0    0 -0.20314984863E-01  0.63230175090E-01 -0.54284276188E-02  0.66636946203E-01  0.51100000000E-03 0.  1.
         11    1    4    4    0    0 -0.21297730319E-01  0.53760343274E-01 -0.24445996055E-01  0.62782447147E-01  0.51100000000E-03 0. -1.
</event>
<event>
 8    1  0.1117714E+005  0.1043930E+01  0.7957747E-01            NaN
         13   -1    0    0    0    0  0.00000000000E+00  0.00000000000E+00  0.74505805969E-08  0.10566000000E+00  0.10566000000E+00 0. -1.
     999900   -1    0    0    0    0 -0.00000000000E+00 -0.00000000000E+00 -0.74505805969E-08  0.93827000000E+00  0.93827000000E+00 0.  1.
     999902    2    1    2    0    0  0.13263013661E-01 -0.10859525179E-01 -0.16056577434E-01  0.10204427588E+01  0.10201724235E+01 0.  0.
     999903    2    3    3    0    0 -0.76504909548E-01  0.73176458744E-01 -0.72976535192E-01  0.13007193260E+00  0.19630019398E-01 0.  0.
         14    1    1    2    0    0 -0.13263013661E-01  0.10859525179E-01  0.16056577434E-01  0.23487241162E-01  0.00000000000E+00 0. -1.
     999901    1    3    3    0    0  0.89767923209E-01 -0.84035983923E-01  0.56919957758E-01  0.89037082624E+00  0.88000000000E+00 0. -1.
        -11    1    4    4    0    0 -0.26869975621E-01  0.22374199455E-01 -0.13690399078E-01  0.37553808583E-01  0.51100000000E-03 0.  1.
         11    1    4    4    0    0 -0.49634933927E-01  0.50802259289E-01 -0.59286136114E-01  0.92518124014E-01  0.51100000000E-03 0. -1.
</event>
<event>
 8    1  0.1117714E+005  0.1043930E+01  0.7957747E-01            NaN
         13   -1    0    0    0    0  0.00000000000E+00  0.00000000000E+00  0.74505805969E-08  0.10566000000E+00  0.10566000000E+00 0. -1.
     999900   -1    0    0    0    0 -0.00000000000E+00 -0.00000000000E+00 -0.74505805969E-08  0.93827000000E+00  0.93827000000E+00 0. -1.
     999902    2    1    2    0    0  0.42464680161E-02 -0.84892135414E-02  0.21132460465E-01  0.10207636424E+01  0.10205007269E+01 0.  0.
     999903    2    3    3    0    0 -0.13282232419E-01  0.12685939587E+00 -0.11747796865E-01  0.12963648388E+00  0.19947009849E-01 0.  0.
         14    1    1    2    0    0 -0.42464680161E-02  0.84892135414E-02 -0.21132460465E-01  0.23166357558E-01  0.00000000000E+00 0.  1.
     999901    1    3    3    0    0  0.17528700435E-01 -0.13534860941E+00  0.32880257330E-01  0.89112715856E+00  0.88000000000E+00 0. -1.
        -11    1    4    4    0    0 -0.12543075275E-01  0.98783125203E-01 -0.17114928028E-01  0.10103769814E+00  0.51100000000E-03 0.  1.
         11    1    4    4    0    0 -0.73915714477E-03  0.28076270670E-01  0.53671311635E-02  0.28598785742E-01  0.51100000000E-03 0. -1.
</event>
<event>
 8    1  0.1117714E+005  0.1043930E+01  0.7957747E-01            NaN
         13   -1    0    0    0    0  0.00000000000E+00  0.00000000000E+00  0.74505805969E-08  0.10566000000E+00  0.10566000000E+00 0. -1.
     999900   -1    0    0    0    0 -0.00000000000E+00 -0.00000000000E+00 -0.74505805969E-08  0.93827000000E+00  0.93827000000E+00 0. -1.
     999902    2    1    2    0    0  0.93493968912E-02 -0.10119947009E-01 -0.19059897171E-01  0.10204118319E+01  0.10201407758E+01 0.  0.
     999903    2    3    3    0    0 -0.68700603694E-01 -0.16687484062E-02 -0.11115177671E+00  0.13213026641E+00  0.19522606568E-01 0.  0.
         14    1    1    2    0    0 -0.93493968912E-02  0.10119947009E-01  0.19059897171E-01  0.23518168080E-01  0.00000000000E+00 0. -1.
     999901    1    3    3    0    0  0.78050000585E-01 -0.84511986031E-02  0.92091879536E-01  0.88828156551E+00  0.88000000000E+00 0.  1.
        -11    1    4    4    0    0 -0.11534996648E-01 -0.17356327677E-02 -0.35079628170E-01  0.36971746000E-01  0.51100000000E-03 0.  1.
         11    1    4    4    0    0 -0.57165607046E-01  0.66884361416E-04 -0.76072148537E-01  0.95158520409E-01  0.51100000000E-03 0. -1.
</event>
<event>
 8    1  0.1117714E+005  0.1043930E+01  0.7957747E-01            NaN
         13   -1    0    0    0    0  0.00000000000E+00  0.00000000000E+00  0.74505805969E-08  0.10566000000E+00  0.10566000000E+00 0. -1.
     999900   -1    0    0    0    0 -0.00000000000E+00 -0.00000000000E+00 -0.74505805969E-08  0.93827000000E+00  0.93827000000E+00 0. -1.
     999902    2    1    2    0    0 -0.13009064312E-01 -0.14622443862E-01 -0.14002288160E-01  0.10198651773E+01  0.10195812200E+01 0.  0.
     999903    2    3    3    0    0  0.89718715178E-01  0.41318947738E-01 -0.81465277518E-01  0.12956540142E+00  0.19846876518E-01 0.  0.
         14    1    1    2    0    0  0.13009064312E-01  0.14622443862E-01  0.14002288160E-01  0.24064822719E-01  0.00000000000E+00 0.  1.
     999901    1    3    3    0    0 -0.10272777949E+00 -0.55941391600E-01  0.67462989358E-01  0.89029977587E+00  0.88000000000E+00 0. -1.
        -11    1    4    4    0    0  0.52709907895E-01  0.18968029722E-01 -0.56840531801E-01  0.79807441497E-01  0.51100000000E-03 0.  1.
         11    1    4    4    0    0  0.37008807282E-01  0.22350918016E-01 -0.24624745718E-01  0.49757959919E-01  0.51100000000E-03 0. -1.
</event>
<event>
 8    1  0.1117714E+005  0.1043930E+01  0.7957747E-01            NaN
         13   -1    0    0    0    0  0.00000000000E+00  0.00000000000E+00  0.74505805969E-08  0.10566000000E+00  0.10566000000E+00 0.  1.
     999900   -1    0    0    0    0 -0.00000000000E+00 -0.00000000000E+00 -0.74505805969E-08  0.93827000000E+00  0.93827000000E+00 0. -1.
     999902    2    1    2    0    0 -0.13966137220E-01  0.17091951376E-01  0.69911024442E-02  0.10207769591E+01  0.10205143492E+01 0.  0.
     999903    2    3    3    0    0  0.11486258990E+00 -0.22328023990E-01  0.51522991786E-01  0.12941066817E+00  0.20013673844E-01 0.  0.
         14    1    1    2    0    0  0.13966137220E-01 -0.17091951376E-01 -0.69911024442E-02  0.23153040925E-01  0.00000000000E+00 0. -1.
     999901    1    3    3    0    0 -0.12882872712E+00  0.39419975366E-01 -0.44531889341E-01  0.89136629090E+00  0.88000000000E+00 0. -1.
        -11    1    4    4    0    0  0.10824877492E+00 -0.19230935745E-01  0.52821662417E-01  0.12197547009E+00  0.51100000000E-03 0.  1.
         11    1    4    4    0    0  0.66138149775E-02 -0.30970882450E-02 -0.12986706312E-02  0.74351980849E-02  0.51100000000E-03 0. -1.
</event>
<event>
 8    1  0.1117714E+005  0.1043930E+01  0.7957747E-01            NaN
         13   -1    0    0    0    0  0.00000000000E+00  0.00000000000E+00  0.74505805969E-08  0.10566000000E+00  0.10566000000E+00 0. -1.
     999900   -1    0    0    0    0 -0.00000000000E+00 -0.00000000000E+00 -0.74505805969E-08  0.93827000000E+00  0.93827000000E+00 0. -1.
     999902    2    1    2    0    0 -0.19087775555E-01 -0.47816188842E-02 -0.47419408445E-02  0.10236891241E+01  0.10234889983E+01 0.  0.
     999903    2    3    3    0    0 -0.87196026314E-01 -0.65216930646E-01  0.77513361365E-01  0.13517514250E+00  0.20189178106E-01 0.  0.
         14    1    1    2    0    0  0.19087775555E-01  0.47816188842E-02  0.47419408445E-02  0.20240875914E-01  0.00000000000E+00 0.  1.
     999901    1    3    3    0    0  0.68108250759E-01  0.60435311762E-01 -0.82255302209E-01  0.88851398158E+00  0.88000000000E+00 0. -1.
        -11    1    4    4    0    0 -0.76578641034E-01 -0.59113426317E-01  0.60133663266E-01  0.11390787511E+00  0.51100000000E-03 0. -1.
         11    1    4    4    0    0 -0.10617385280E-01 -0.61035043294E-02  0.17379698099E-01  0.21267267391E-01  0.51100000000E-03 0.  1.
</event>
<event>
 8    1  0.1117714E+005  0.1043930E+01  0.7957747E-01            NaN
         13   -1    0    0    0    0  0.00000000000E+00  0.00000000000E+00  0.74505805969E-08  0.10566000000E+00  0.10566000000E+00 0. -1.
     999900   -1    0    0    0    0 -0.00000000000E+00 -0.00000000000E+00 -0.74505805969E-08  0.93827000000E+00  0.93827000000E+00 0. -1.
     999902    2    1    2    0    0 -0.20611585337E-01  0.99873754352E-02 -0.33464696123E-02  0.10207829921E+01  0.10205205206E+01 0.  0.
     999903    2    3    3    0    0 -0.17769425935E-01  0.11997281629E+00  0.49226066628E-01  0.13237500771E+00  0.19766332062E-01 0.  0.
         14    1    1    2    0    0  0.20611585337E-01 -0.99873754352E-02  0.33464696123E-02  0.23147007950E-01  0.00000000000E+00 0. -1.
     999901    1    3    3    0    0 -0.28421594015E-02 -0.10998544086E+00 -0.52572536240E-01  0.88840798434E+00  0.88000000000E+00 0.  1.
        -11    1    4    4    0    0 -0.49897320684E-02  0.84155157841E-01  0.39606452338E-01  0.93144619840E-01  0.51100000000E-03 0.  1.
         11    1    4    4    0    0 -0.12779693867E-01  0.35817658453E-01  0.96196142893E-02  0.39230387871E-01  0.51100000000E-03 0. -1.
</event>
<event>
 8    1  0.1117714E+005  0.1043930E+01  0.7957747E-01            NaN
         13   -1    0    0    0    0  0.00000000000E+00  0.00000000000E+00  0.74505805969E-08  0.10566000000E+00  0.10566000000E+00 0.  1.
     999900   -1    0    0    0    0 -0.00000000000E+00 -0.00000000000E+00 -0.74505805969E-08  0.93827000000E+00  0.93827000000E+00 0. -1.
     999902    2    1    2    0    0 -0.11821977268E-01 -0.83165368207E-02  0.28664852217E-01  0.10118270767E+01  0.10113176729E+01 0.  0.
     999903    2    3    3    0    0  0.92966092810E-01 -0.69608820142E-01  0.36649406473E-01  0.12345720063E+00  0.20258803953E-01 0.  0.
         14    1    1    2    0    0  0.11821977268E-01  0.83165368207E-02 -0.28664852217E-01  0.32102923291E-01  0.00000000000E+00 0. -1.
     999901    1    3    3    0    0 -0.10478807008E+00  0.61292283321E-01 -0.79845542560E-02  0.88836987608E+00  0.88000000000E+00 0.  1.
        -11    1    4    4    0    0  0.57337267130E-01 -0.54055498262E-01  0.27988042698E-01  0.83625060534E-01  0.51100000000E-03 0. -1.
         11    1    4    4    0    0  0.35628825679E-01 -0.15553321881E-01  0.86613637750E-02  0.39832140091E-01  0.51100000000E-03 0.  1.
</event>
<event>
 8    1  0.1117714E+005  0.1043930E+01  0.7957747E-01            NaN
         13   -1    0    0    0    0  0.00000000000E+00  0.00000000000E+00  0.74505805969E-08  0.10566000000E+00  0.10566000000E+00 0. -1.
     999900   -1    0    0    0    0 -0.00000000000E+00 -0.00000000000E+00 -0.74505805969E-08  0.93827000000E+00  0.93827000000E+00 0.  1.
     999902    2    1    2    0    0 -0.16846216453E-01  0.82871577208E-02 -0.14541907377E-01  0.10201825988E+01  0.10199061701E+01 0.  0.
     999903    2    3    3    0    0 -0.73607449049E-01  0.65402410291E-01 -0.87866485771E-01  0.13346929489E+00  0.19949975665E-01 0.  0.
         14    1    1    2    0    0  0.16846216453E-01 -0.82871577208E-02  0.14541907377E-01  0.23747401163E-01  0.00000000000E+00 0. -1.
     999901    1    3    3    0    0  0.56761232596E-01 -0.57115252570E-01  0.73324578394E-01  0.88671330395E+00  0.88000000000E+00 0. -1.
        -11    1    4    4    0    0 -0.45628978718E-01  0.27414808666E-01 -0.48702261115E-01  0.72150861337E-01  0.51100000000E-03 0. -1.
         11    1    4    4    0    0 -0.27978470331E-01  0.37987601625E-01 -0.39164224656E-01  0.61318433551E-01  0.51100000000E-03 0.  1.
</event>
<event>
 8    1  0.1117714E+005  0.1043930E+01  0.7957747E-01            NaN
         13   -1    0    0    0    0  0.00000000000E+00  0.00000000000E+00  0.74505805969E-08  0.10566000000E+00  0.10566000000E+00 0. -1.
     999900   -1    0    0    0    0 -0.00000000000E+00 -0.00000000000E+00 -0.74505805969E-08  0.93827000000E+00  0.93827000000E+00 0.  1.
     999902    2    1    2    0    0 -0.12094993515E-01 -0.20534948995E-01 -0.25094647923E-02  0.10199660602E+01  0.10196845068E+01 0.  0.
     999903    2    3    3    0    0 -0.64538769719E-01 -0.28918797927E-02  0.11180880778E+00  0.13084835425E+00  0.21129755020E-01 0.  0.
         14    1    1    2    0    0  0.12094993515E-01  0.20534948995E-01  0.25094647923E-02  0.23963939824E-01  0.00000000000E+00 0. -1.
     999901    1    3    3    0    0  0.52443776204E-01 -0.17643069202E-01 -0.11431827257E+00  0.88911770593E+00  0.88000000000E+00 0.  1.
        -11    1    4    4    0    0 -0.51279457133E-01 -0.49046311401E-02  0.69829767098E-01  0.86776123585E-01  0.51100000000E-03 0.  1.
         11    1    4    4    0    0 -0.13259312586E-01  0.20127513475E-02  0.41979040678E-01  0.44072230662E-01  0.51100000000E-03 0. -1.
</event>
<event>
 8    1  0.1117714E+005  0.1043930E+01  0.7957747E-01            NaN
         13   -1    0    0    0    0  0.00000000000E+00  0.00000000000E+00  0.74505805969E-08  0.10566000000E+00  0.10566000000E+00 0.  1.
     999900   -1    0    0    0    0 -0.00000000000E+00 -0.00000000000E+00 -0.74505805969E-08  0.93827000000E+00  0.93827000000E+00 0. -1.
     999902    2    1    2    0    0  0.14562643339E-01  0.13252399062E-01  0.12777280330E-01  0.10204575576E+01  0.10201875667E+01 0.  0.
     999903    2    3    3    0    0  0.10759747361E+00 -0.64429673480E-01  0.35568526550E-01  0.13185785862E+00  0.19823613357E-01 0.  0.
         14    1    1    2    0    0 -0.14562643339E-01 -0.13252399062E-01 -0.12777280330E-01  0.23472442449E-01  0.00000000000E+00 0. -1.
     999901    1    3    3    0    0 -0.93034830272E-01  0.77682072542E-01 -0.22791246220E-01  0.88859969893E+00  0.88000000000E+00 0. -1.
        -11    1    4    4    0    0  0.12429507185E-01 -0.49533534522E-02  0.10116829355E-01  0.16782124910E-01  0.51100000000E-03 0. -1.
         11    1    4    4    0    0  0.95167966425E-01 -0.59476320028E-01  0.25451697195E-01  0.11507573371E+00  0.51100000000E-03 0.  1.
</event>
<event>
 8    1  0.1117714E+005  0.1043930E+01  0.7957747E-01            NaN
         13   -1    0    0    0    0  0.00000000000E+00  0.00000000000E+00  0.74505805969E-08  0.10566000000E+00  0.10566000000E+00 0.  1.
     999900   -1    0    0    0    0 -0.00000000000E+00 -0.00000000000E+00 -0.74505805969E-08  0.93827000000E+00  0.93827000000E+00 0. -1.
     999902    2    1    2    0    0 -0.19573055216E-01  0.88576215908E-02  0.95854934556E-02  0.10204046172E+01  0.10201333928E+01 0.  0.
     999903    2    3    3    0    0  0.57311616537E-01  0.77564183212E-01  0.86686916178E-01  0.13103603572E+00  0.18841372353E-01 0.  0.
         14    1    1    2    0    0  0.19573055216E-01 -0.88576215908E-02 -0.95854934556E-02  0.23525382792E-01  0.00000000000E+00 0.  1.
     999901    1    3    3    0    0 -0.76884671752E-01 -0.68706561621E-01 -0.77101422722E-01  0.88936858149E+00  0.88000000000E+00 0.  1.
        -11    1    4    4    0    0  0.26556725498E-01  0.39373872645E-01  0.54919506138E-01  0.72608365852E-01  0.51100000000E-03 0.  1.
         11    1    4    4    0    0  0.30754891039E-01  0.38190310568E-01  0.31767410040E-01  0.58427669864E-01  0.51100000000E-03 0. -1.
</event>
<event>
 8    1  0.1117714E+005  0.1043930E+01  0.7957747E-01            NaN
         13   -1    0    0    0    0  0.00000000000E+00  0.00000000000E+00  0.74505805969E-08  0.10566000000E+00  0.10566000000E+00 0. -1.
     999900   -1    0    0    0    0 -0.00000000000E+00 -0.00000000000E+00 -0.74505805969E-08  0.93827000000E+00  0.93827000000E+00 0. -1.
     999902    2    1    2    0    0  0.21640033952E-01  0.40189815181E-03 -0.96404261222E-02  0.10202363214E+01  0.10199611566E+01 0.  0.
     999903    2    3    3    0    0 -0.68378893136E-02  0.12630374091E+00 -0.24679148450E-01  0.13069237681E+00  0.21726603250E-01 0.  0.
         14    1    1    2    0    0 -0.21640033952E-01 -0.40189815181E-03  0.96404261222E-02  0.23693678637E-01  0.00000000000E+00 0. -1.
     999901    1    3    3    0    0  0.28477923265E-01 -0.12590184276E+00  0.15038722328E-01  0.88954394455E+00  0.88000000000E+00 0.  1.
        -11    1    4    4    0    0  0.73895683450E-02  0.36995134553E-01 -0.41641621393E-02  0.37958491385E-01  0.51100000000E-03 0.  1.
         11    1    4    4    0    0 -0.14227457659E-01  0.89308606360E-01 -0.20514986311E-01  0.92733885423E-01  0.51100000000E-03 0. -1.
</event>
<event>
 8    1  0.1117714E+005  0.1043930E+01  0.7957747E-01            NaN
         13   -1    0    0    0    0  0.00000000000E+00  0.00000000000E+00  0.74505805969E-08  0.10566000000E+00  0.10566000000E+00 0. -1.
     999900   -1    0    0    0    0 -0.00000000000E+00 -0.00000000000E+00 -0.74505805969E-08  0.93827000000E+00  0.93827000000E+00 0. -1.
     999902    2    1    2    0    0  0.18231097862E-01 -0.58623694735E-02 -0.95893852903E-02  0.10225127963E+01  0.10222884730E+01 0.  0.
     999903    2    3    3    0    0  0.85592596668E-01 -0.93633686137E-01  0.38663766536E-01  0.13427310891E+00  0.21000503560E-01 0.  0.
         14    1    1    2    0    0 -0.18231097862E-01  0.58623694735E-02  0.95893852903E-02  0.21417203724E-01  0.00000000000E+00 0. -1.
     999901    1    3    3    0    0 -0.67361498805E-01  0.87771316663E-01 -0.48253151826E-01  0.88823968737E+00  0.88000000000E+00 0. -1.
        -11    1    4    4    0    0  0.25516343837E-01 -0.30981903975E-01  0.24356483821E-02  0.40213874232E-01  0.51100000000E-03 0. -1.
         11    1    4    4    0    0  0.60076252831E-01 -0.62651782162E-01  0.36228118154E-01  0.94059234678E-01  0.51100000000E-03 0.  1.
</event>
<event>
 8    1  0.1117714E+005  0.1043930E+01  0.7957747E-01            NaN
         13   -1    0    0    0    0  0.00000000000E+00  0.00000000000E+00  0.74505805969E-08  0.10566000000E+00  0.10566000000E+00 0.  1.
     999900   -1    0    0    0    0 -0.00000000000E+00 -0.00000000000E+00 -0.74505805969E-08  0.93827000000E+00  0.93827000000E+00 0.  1.
     999902    2    1    2    0    0  0.16164404577E-01 -0.10526609608E-01 -0.15365344101E-01  0.10192684655E+01  0.10189700749E+01 0.  0.
     999903    2    3    3    0    0 -0.10033210853E+00 -0.77241817325E-01 -0.13635769046E-01  0.12908570451E+00  0.21079719286E-01 0.  0.
         14    1    1    2    0    0 -0.16164404577E-01  0.10526609608E-01  0.15365344101E-01  0.24661534513E-01  0.00000000000E+00 0.  1.
     999901    1    3    3    0    0  0.11649651311E+00  0.66715207717E-01 -0.17295750549E-02  0.89018276098E+00  0.88000000000E+00 0. -1.
        -11    1    4    4    0    0 -0.35887957453E-01 -0.17917427827E-01 -0.10355529178E-01  0.41430397242E-01  0.51100000000E-03 0. -1.
         11    1    4    4    0    0 -0.64444151082E-01 -0.59324389498E-01 -0.32802398678E-02  0.87655307270E-01  0.51100000000E-03 0.  1.
</event>
<event>
 8    1  0.1117714E+005  0.1043930E+01  0.7957747E-01            NaN
         13   -1    0    0    0    0  0.00000000000E+00  0.00000000000E+00  0.74505805969E-08  0.10566000000E+00  0.10566000000E+00 0. -1.
     999900   -1    0    0    0    0 -0.00000000000E+00 -0.00000000000E+00 -0.74505805969E-08  0.93827000000E+00  0.93827000000E+00 0. -1.
     999902    2    1    2    0    0 -0.17181055466E-02  0.21766431024E-01  0.66446460934E-02  0.10211071884E+01  0.10208520997E+01 0.  0.
     999903    2    3    3    0    0 -0.47532968489E-01 -0.23082911592E-01  0.11899493466E+00  0.13165058323E+00  0.19490451227E-01 0.  0.
         14    1    1    2    0    0  0.17181055466E-02 -0.21766431024E-01 -0.66446460934E-02  0.22822811568E-01  0.00000000000E+00 0. -1.
     999901    1    3    3    0    0  0.45814862942E-01  0.44849342616E-01 -0.11235028856E+00  0.88945660520E+00  0.88000000000E+00 0.  1.
        -11    1    4    4    0    0 -0.36858057182E-01 -0.24008818200E-01  0.81053512804E-01  0.92221867198E-01  0.51100000000E-03 0.  1.
         11    1    4    4    0    0 -0.10674911307E-01  0.92590660795E-03  0.37941421855E-01  0.39428716030E-01  0.51100000000E-03 0. -1.
</event>
<event>
 8    1  0.1117714E+005  0.1043930E+01  0.7957747E-01            NaN
         13   -1    0    0    0    0  0.00000000000E+00  0.00000000000E+00  0.74505805969E-08  0.10566000000E+00  0.10566000000E+00 0. -1.
     999900   -1    0    0    0    0 -0.00000000000E+00 -0.00000000000E+00 -0.74505805969E-08  0.93827000000E+00  0.93827000000E+00 0.  1.
     999902    2    1    2    0    0 -0.54029381542E-02 -0.27583985133E-02  0.23760199775E-01  0.10194076103E+01  0.10191126181E+01 0.  0.
     999903    2    3    3    0    0 -0.79011538601E-01  0.96252960032E-01  0.34306081822E-01  0.13073855446E+00  0.20204128940E-01 0.  0.
         14    1    1    2    0    0  0.54029381542E-02  0.27583985133E-02 -0.23760199775E-01  0.24522389696E-01  0.00000000000E+00 0.  1.
     999901    1    3    3    0    0  0.73608600447E-01 -0.99011358545E-01 -0.10545882048E-01  0.88866905584E+00  0.88000000000E+00 0.  1.
        -11    1    4    4    0    0 -0.11301392075E-01  0.24354510384E-01  0.24552013718E-02  0.26965770407E-01  0.51100000000E-03 0.  1.
         11    1    4    4    0    0 -0.67710146527E-01  0.71898449648E-01  0.31850880451E-01  0.10377278406E+00  0.51100000000E-03 0. -1.
</event>
<event>
 8    1  0.1117714E+005  0.1043930E+01  0.7957747E-01            NaN
         13   -1    0    0    0    0  0.00000000000E+00  0.00000000000E+00  0.74505805969E-08  0.10566000000E+00  0.10566000000E+00 0.  1.
     999900   -1    0    0    0    0 -0.00000000000E+00 -0.00000000000E+00 -0.74505805969E-08  0.93827000000E+00  0.93827000000E+00 0.  1.
     999902    2    1    2    0    0  0.38525013165E-02  0.10951100706E-01  0.20589657684E-01  0.10202931141E+01  0.10200192823E+01 0.  0.
     999903    2    3    3    0    0 -0.22006877199E-01 -0.34802532714E-01  0.12448237304E+00  0.13262437026E+00  0.19946013685E-01 0.  0.
         14    1    1    2    0    0 -0.38525013165E-02 -0.10951100706E-01 -0.20589657684E-01  0.23636885933E-01  0.00000000000E+00 0. -1.
     999901    1    3    3    0    0  0.25859378516E-01  0.45753633421E-01 -0.10389271535E+00  0.88766874381E+00  0.88000000000E+00 0.  1.
        -11    1    4    4    0    0 -0.27963562178E-02 -0.18744365895E-02  0.37488253322E-01  0.37642574018E-01  0.51100000000E-03 0. -1.
         11    1    4    4    0    0 -0.19210520981E-01 -0.32928096125E-01  0.86994119717E-01  0.94981796241E-01  0.51100000000E-03 0.  1.
</event>
<event>
 8    1  0.1117714E+005  0.1043930E+01  0.7957747E-01            NaN
         13   -1    0    0    0    0  0.00000000000E+00  0.00000000000E+00  0.74505805969E-08  0.10566000000E+00  0.10566000000E+00 0. -1.
     999900   -1    0    0    0    0 -0.00000000000E+00 -0.00000000000E+00 -0.74505805969E-08  0.93827000000E+00  0.93827000000E+00 0.  1.
     999902    2    1    2    0    0  0.90675156402E-02  0.85639736170E-02  0.22072354223E-01  0.10185774793E+01  0.10182619167E+01 0.  0.
     999903    2    3    3    0    0  0.47530859225E-01  0.78954177986E-01 -0.87144955395E-01  0.12820529288E+00  0.18692486998E-01 0.  0.
         14    1    1    2    0    0 -0.90675156402E-02 -0.85639736170E-02 -0.22072354223E-01  0.25352520682E-01  0.00000000000E+00 0.  1.
     999901    1    3    3    0    0 -0.38463343585E-01 -0.70390204369E-01  0.10921730962E+00  0.89037218644E+00  0.88000000000E+00 0. -1.
        -11    1    4    4    0    0  0.44414651875E-01  0.59228357163E-01 -0.69788517752E-01  0.10174162336E+00  0.51100000000E-03 0.  1.
         11    1    4    4    0    0  0.31162073494E-02  0.19725820823E-01 -0.17356437643E-01  0.26463669512E-01  0.51100000000E-03 0. -1.
</event>
<event>
 8    1  0.1117714E+005  0.1043930E+01  0.7957747E-01            NaN
         13   -1    0    0    0    0  0.00000000000E+00  0.00000000000E+00  0.74505805969E-08  0.10566000000E+00  0.10566000000E+00 0.  1.
     999900   -1    0    0    0    0 -0.00000000000E+00 -0.00000000000E+00 -0.74505805969E-08  0.93827000000E+00  0.93827000000E+00 0. -1.
     999902    2    1    2    0    0  0.44168862245E-02 -0.14847376747E-01  0.16469830630E-01  0.10213200730E+01  0.10210697736E+01 0.  0.
     999903    2    3    3    0    0  0.31332767426E-02 -0.67722461768E-01 -0.10998285531E+00  0.13070921289E+00  0.19812133215E-01 0.  0.
         14    1    1    2    0    0 -0.44168862245E-02  0.14847376747E-01 -0.16469830630E-01  0.22609927050E-01  0.00000000000E+00 0. -1.
     999901    1    3    3    0    0  0.12836094818E-02  0.52875085021E-01  0.12645268594E+00  0.89061086006E+00  0.88000000000E+00 0.  1.
        -11    1    4    4    0    0  0.10621416463E-01 -0.35978866798E-01 -0.66478337087E-01  0.76334289586E-01  0.51100000000E-03 0. -1.
         11    1    4    4    0    0 -0.74881397199E-02 -0.31743594970E-01 -0.43504518222E-01  0.54374923308E-01  0.51100000000E-03 0.  1.
</event>
<event>
 8    1  0.1117714E+005  0.1043930E+01  0.7957747E-01            NaN
         13   -1    0    0    0    0  0.00000000000E+00  0.00000000000E+00  0.74505805969E-08  0.10566000000E+00  0.10566000000E+00 0. -1.
     999900   -1    0    0    0    0 -0.00000000000E+00 -0.00000000000E+00 -0.74505805969E-08  0.93827000000E+00  0.93827000000E+00 0. -1.
     999902    2    1    2    0    0  0.10892163175E-01  0.14934370171E-01  0.15458205251E-01  0.10198337194E+01  0.10195490103E+01 0.  0.
     999903    2    3    3    0    0  0.31065194473E-01 -0.11867458944E+00  0.34616465673E-01  0.12931401479E+00  0.21797023656E-01 0.  0.
         14    1    1    2    0    0 -0.10892163175E-01 -0.14934370171E-01 -0.15458205251E-01  0.24096280638E-01  0.00000000000E+00 0.  1.
     999901    1    3    3    0    0 -0.20173031298E-01  0.13360895961E+00 -0.19158260422E-01  0.89051970457E+00  0.88000000000E+00 0. -1.
        -11    1    4    4    0    0  0.28382569563E-01 -0.10089343488E+00  0.21353972821E-01  0.10696405347E+00  0.51100000000E-03 0.  1.
         11    1    4    4    0    0  0.26826249107E-02 -0.17781154556E-01  0.13262492852E-01  0.22349961329E-01  0.51100000000E-03 0. -1.
</event>
<event>
 8    1  0.1117714E+005  0.1043930E+01  0.7957747E-01            NaN
         13   -1    0    0    0    0  0.00000000000E+00  0.00000000000E+00  0.74505805969E-08  0.10566000000E+00  0.10566000000E+00 0.  1.
     999900   -1    0    0    0    0 -0.00000000000E+00 -0.00000000000E+00 -0.74505805969E-08  0.93827000000E+00  0.93827000000E+00 0.  1.
     999902    2    1    2    0    0  0.14743227290E-01  0.18143464350E-01  0.21462312984E-02  0.10204533231E+01  0.10201832337E+01 0.  0.
     999903    2    3    3    0    0  0.79427554378E-01 -0.41421807227E-01  0.93937411016E-01  0.13132020347E+00  0.19906183517E-01 0.  0.
         14    1    1    2    0    0 -0.14743227290E-01 -0.18143464350E-01 -0.21462312984E-02  0.23476676902E-01  0.00000000000E+00 0.  1.
     999901    1    3    3    0    0 -0.64684327088E-01  0.59565271577E-01 -0.91791179717E-01  0.88913311963E+00  0.88000000000E+00 0.  1.
        -11    1    4    4    0    0  0.65568083485E-01 -0.32148527803E-01  0.86065972622E-01  0.11287300021E+00  0.51100000000E-03 0. -1.
         11    1    4    4    0    0  0.13859470893E-01 -0.92732794244E-02  0.78714383941E-02  0.18447203260E-01  0.51100000000E-03 0.  1.
</event>
<event>
 8    1  0.1117714E+005  0.1043930E+01  0.7957747E-01            NaN
         13   -1    0    0    0    0  0.00000000000E+00  0.00000000000E+00  0.74505805969E-08  0.10566000000E+00  0.10566000000E+00 0.  1.
     999900   -1    0    0    0    0 -0.00000000000E+00 -0.00000000000E+00 -0.74505805969E-08  0.93827000000E+00  0.93827000000E+00 0. -1.
     999902    2    1    2    0    0  0.31508759476E-02  0.22994233133E-01 -0.88054201881E-02  0.10191066601E+01  0.10188042926E+01 0.  0.
     999903    2    3    3    0    0 -0.36928477783E-01  0.11916215584E+00  0.37178958314E-01  0.13176840051E+00  0.20428034079E-01 0.  0.
         14    1    1    2    0    0 -0.31508759476E-02 -0.22994233133E-01  0.88054201881E-02  0.24823339850E-01  0.00000000000E+00 0. -1.
     999901    1    3    3    0    0  0.40079353730E-01 -0.96167922706E-01 -0.45984378502E-01  0.88733825964E+00  0.88000000000E+00 0.  1.
        -11    1    4    4    0    0 -0.20261264464E-01  0.62506571707E-01  0.30136327083E-01  0.72291421865E-01  0.51100000000E-03 0.  1.
         11    1    4    4    0    0 -0.16667213319E-01  0.56655584132E-01  0.70426312311E-02  0.59476978646E-01  0.51100000000E-03 0. -1.
</event>
<event>
 8    1  0.1117714E+005  0.1043930E+01  0.7957747E-01            NaN
         13   -1    0    0    0    0  0.00000000000E+00  0.00000000000E+00  0.74505805969E-08  0.10566000000E+00  0.10566000000E+00 0.  1.
     999900   -1    0    0    0    0 -0.00000000000E+00 -0.00000000000E+00 -0.74505805969E-08  0.93827000000E+00  0.93827000000E+00 0. -1.
     999902    2    1    2    0    0 -0.41491467628E-02 -0.20174465114E-02  0.24295425526E-01  0.10192003981E+01  0.10189003377E+01 0.  0.
     999903    2    3    3    0    0 -0.92070713673E-01 -0.62255337981E-01  0.67376061643E-01  0.13172378053E+00  0.21421420402E-01 0.  0.
         14    1    1    2    0    0  0.41491467628E-02  0.20174465114E-02 -0.24295425526E-01  0.24729601913E-01  0.00000000000E+00 0. -1.
     999901    1    3    3    0    0  0.87921566910E-01  0.60237891470E-01 -0.43080636117E-01  0.88747661755E+00  0.88000000000E+00 0.  1.
        -11    1    4    4    0    0 -0.77004587555E-01 -0.41909707581E-01  0.55434842905E-01  0.10372759046E+00  0.51100000000E-03 0. -1.
         11    1    4    4    0    0 -0.15066126117E-01 -0.20345630400E-01  0.11941218738E-01  0.27996190071E-01  0.51100000000E-03 0.  1.
</event>
<event>
 8    1  0.1117714E+005  0.1043930E+01  0.7957747E-01            NaN
         13   -1    0    0    0    0  0.00000000000E+00  0.00000000000E+00  0.74505805969E-08  0.10566000000E+00  0.10566000000E+00 0.  1.
     999900   -1    0    0    0    0 -0.00000000000E+00 -0.00000000000E+00 -0.74505805969E-08  0.93827000000E+00  0.93827000000E+00 0.  1.
     999902    2    1    2    0    0 -0.19641431684E-01 -0.13178127249E-02 -0.82402089599E-02  0.10225893460E+01  0.10223666402E+01 0.  0.
     999903    2    3    3    0    0 -0.17895827502E-01 -0.12881684968E+00 -0.21424998174E-01  0.13330149035E+00  0.19905159613E-01 0.  0.
         14    1    1    2    0    0  0.19641431684E-01  0.13178127249E-02  0.82402089599E-02  0.21340653989E-01  0.00000000000E+00 0.  1.
     999901    1    3    3    0    0 -0.17456041813E-02  0.12749903696E+00  0.13184789214E-01  0.88928785566E+00  0.88000000000E+00 0. -1.
        -11    1    4    4    0    0 -0.18012754355E-01 -0.57682153339E-01 -0.10013605221E-01  0.61255396038E-01  0.51100000000E-03 0.  1.
         11    1    4    4    0    0  0.11692685237E-03 -0.71134696342E-01 -0.11411392953E-01  0.72046094313E-01  0.51100000000E-03 0. -1.
</event>
<event>
 8    1  0.1117714E+005  0.1043930E+01  0.7957747E-01            NaN
         13   -1    0    0    0    0  0.00000000000E+00  0.00000000000E+00  0.74505805969E-08  0.10566000000E+00  0.10566000000E+00 0. -1.
     999900   -1    0    0    0    0 -0.00000000000E+00 -0.00000000000E+00 -0.74505805969E-08  0.93827000000E+00  0.93827000000E+00 0. -1.
     999902    2    1    2    0    0 -0.32870141708E-02 -0.21870061169E-01 -0.87896600883E-02  0.10201316353E+01  0.10198540048E+01 0.  0.
     999903    2    3    3    0    0 -0.54151795655E-01  0.11175881140E+00 -0.25869490444E-01  0.12842786040E+00  0.20050832708E-01 0.  0.
         14    1    1    2    0    0  0.32870141708E-02  0.21870061169E-01  0.87896600883E-02  0.23798364695E-01  0.00000000000E+00 0. -1.
     999901    1    3    3    0    0  0.50864781484E-01 -0.13362887257E+00  0.17079830356E-01  0.89170377491E+00  0.88000000000E+00 0. -1.
        -11    1    4    4    0    0 -0.22584764834E-01  0.59482940724E-01 -0.47335198038E-02  0.63804068605E-01  0.51100000000E-03 0. -1.
         11    1    4    4    0    0 -0.31567030821E-01  0.52275870676E-01 -0.21135970641E-01  0.64623791793E-01  0.51100000000E-03 0.  1.
</event>
<event>
 8    1  0.1117714E+005  0.1043930E+01  0.7957747E-01            NaN
         13   -1    0    0    0    0  0.00000000000E+00  0.00000000000E+00  0.74505805969E-08  0.10566000000E+00  0.10566000000E+00 0. -1.
     999900   -1    0    0    0    0 -0.00000000000E+00 -0.00000000000E+00 -0.74505805969E-08  0.93827000000E+00  0.93827000000E+00 0.  1.
     999902    2    1    2    0    0 -0.15645211071E-01 -0.14579020747E-01  0.85944205835E-02  0.10208825589E+01  0.10206223663E+01 0.  0.
     999903    2    3    3    0    0  0.11858012492E+00  0.23978863874E-01 -0.38753385704E-01  0.12861299984E+00  0.20081008115E-01 0.  0.
         14    1    1    2    0    0  0.15645211071E-01  0.14579020747E-01 -0.85944205835E-02  0.23047441085E-01  0.00000000000E+00 0.  1.
     999901    1    3    3    0    0 -0.13422533599E+00 -0.38557884621E-01  0.47347806287E-01  0.89226955907E+00  0.88000000000E+00 0.  1.
        -11    1    4    4    0    0  0.78633714719E-01  0.24224797584E-01 -0.30931500319E-01  0.87904042805E-01  0.51100000000E-03 0.  1.
         11    1    4    4    0    0  0.39946410198E-01 -0.24593370923E-03 -0.78218853844E-02  0.40708957037E-01  0.51100000000E-03 0. -1.
</event>
<event>
 8    1  0.1117714E+005  0.1043930E+01  0.7957747E-01            NaN
         13   -1    0    0    0    0  0.00000000000E+00  0.00000000000E+00  0.74505805969E-08  0.10566000000E+00  0.10566000000E+00 0. -1.
     999900   -1    0    0    0    0 -0.00000000000E+00 -0.00000000000E+00 -0.74505805969E-08  0.93827000000E+00  0.93827000000E+00 0.  1.
     999902    2    1    2    0    0  0.12912565714E-01  0.18372856291E-01  0.89221309596E-02  0.10197659643E+01  0.10194796326E+01 0.  0.
     999903    2    3    3    0    0 -0.98951597721E-01  0.61000492925E-01  0.55310237601E-01  0.13045018071E+00  0.21108018250E-01 0.  0.
         14    1    1    2    0    0 -0.12912565714E-01 -0.18372856291E-01 -0.89221309596E-02  0.24164035724E-01  0.00000000000E+00 0. -1.
     999901    1    3    3    0    0  0.11186416344E+00 -0.42627636634E-01 -0.46388106641E-01  0.88931578357E+00  0.88000000000E+00 0.  1.
        -11    1    4    4    0    0 -0.37896823201E-01  0.14121571468E-01  0.25996650876E-01  0.48079881107E-01  0.51100000000E-03 0. -1.
         11    1    4    4    0    0 -0.61054774520E-01  0.46878921456E-01  0.29313586725E-01  0.82370299601E-01  0.51100000000E-03 0.  1.
</event>
<event>
 8    1  0.1117714E+005  0.1043930E+01  0.7957747E-01            NaN
         13   -1    0    0    0    0  0.00000000000E+00  0.00000000000E+00  0.74505805969E-08  0.10566000000E+00  0.10566000000E+00 0. -1.
     999900   -1    0    0    0    0 -0.00000000000E+00 -0.00000000000E+00 -0.74505805969E-08  0.93827000000E+00  0.93827000000E+00 0. -1.
     999902    2    1    2    0    0  0.12469354973E-01 -0.58722091659E-02 -0.18343953361E-01  0.10209851034E+01  0.10207272472E+01 0.  0.
     999903    2    3    3    0    0  0.67932949181E-01 -0.11137121841E+00 -0.15810339943E-01  0.13294643848E+00  0.20158243510E-01 0.  0.
         14    1    1    2    0    0 -0.12469354973E-01  0.58722091659E-02  0.18343953361E-01  0.22944896575E-01  0.00000000000E+00 0. -1.
     999901    1    3    3    0    0 -0.55463594208E-01  0.10549900925E+00 -0.25336134182E-02  0.88803866494E+00  0.88000000000E+00 0.  1.
        -11    1    4    4    0    0  0.49640478260E-01 -0.94692726632E-01 -0.16470934874E-01  0.10817782756E+00  0.51100000000E-03 0.  1.
         11    1    4    4    0    0  0.18292470921E-01 -0.16678491779E-01  0.66059493108E-03  0.24768610923E-01  0.51100000000E-03 0. -1.
</event>
<event>
 8    1  0.1117714E+005  0.1043930E+01  0.7957747E-01            NaN
         13   -1    0    0    0    0  0.00000000000E+00  0.00000000000E+00  0.74505805969E-08  0.10566000000E+00  0.10566000000E+00 0.  1.
     999900   -1    0    0    0    0 -0.00000000000E+00 -0.00000000000E+00 -0.74505805969E-08  0.93827000000E+00  0.93827000000E+00 0.  1.
     999902    2    1    2    0    0  0.41512952399E-02 -0.16473756812E-01 -0.11418387843E-01  0.10234605717E+01  0.10232558547E+01 0.  0.
     999903    2    3    3    0    0 -0.12274093955E+00 -0.48708974219E-01 -0.81738103228E-02  0.13376889710E+00  0.19733328302E-01 0.  0.
         14    1    1    2    0    0 -0.41512952399E-02  0.16473756812E-01  0.11418387843E-01  0.20469428341E-01  0.00000000000E+00 0.  1.
     999901    1    3    3    0    0  0.12689223479E+00  0.32235217406E-01 -0.32445775202E-02  0.88969167456E+00  0.88000000000E+00 0.  1.
        -11    1    4    4    0    0 -0.60954698106E-01 -0.16451968670E-01  0.28433170589E-02  0.63201962526E-01  0.51100000000E-03 0. -1.
         11    1    4    4    0    0 -0.61786241444E-01 -0.32257005549E-01 -0.11017127382E-01  0.70566934576E-01  0.51100000000E-03 0.  1.
</event>
<event>
 8    1  0.1117714E+005  0.1043930E+01  0.7957747E-01            NaN
         13   -1    0    0    0    0  0.00000000000E+00  0.00000000000E+00  0.74505805969E-08  0.10566000000E+00  0.10566000000E+00 0.  1.
     999900   -1    0    0    0    0 -0.00000000000E+00 -0.00000000000E+00 -0.74505805969E-08  0.93827000000E+00  0.93827000000E+00 0. -1.
     999902    2    1    2    0    0 -0.14305670567E-01  0.90951257782E-02 -0.16720729415E-01  0.10201191555E+01  0.10198412303E+01 0.  0.
     999903    2    3    3    0    0  0.11769857956E+00  0.30664003695E-01  0.36502358094E-01  0.12842243824E+00  0.19148465847E-01 0.  0.
         14    1    1    2    0    0  0.14305670567E-01 -0.90951257782E-02  0.16720729415E-01  0.23810844493E-01  0.00000000000E+00 0. -1.
     999901    1    3    3    0    0 -0.13200425012E+00 -0.21568877917E-01 -0.53223087509E-01  0.89169671727E+00  0.88000000000E+00 0. -1.
        -11    1    4    4    0    0  0.75702944043E-01  0.14856424253E-01  0.31263737033E-01  0.83242605994E-01  0.51100000000E-03 0.  1.
         11    1    4    4    0    0  0.41995635513E-01  0.15807579441E-01  0.52386210613E-02  0.45179832244E-01  0.51100000000E-03 0. -1.
</event>
<event>
 8    1  0.1117714E+005  0.1043930E+01  0.7957747E-01            NaN
         13   -1    0    0    0    0  0.00000000000E+00  0.00000000000E+00  0.74505805969E-08  0.10566000000E+00  0.10566000000E+00 0.  1.
     999900   -1    0    0    0    0 -0.00000000000E+00 -0.00000000000E+00 -0.74505805969E-08  0.93827000000E+00  0.93827000000E+00 0. -1.
     999902    2    1    2    0    0  0.17857551683E-01 -0.14259395577E-01 -0.78773958948E-02  0.10197582007E+01  0.10194716828E+01 0.  0.
     999903    2    3    3    0    0 -0.49854403758E-01  0.37093595011E-01  0.11007003595E+00  0.12783127814E+00  0.19079478270E-01 0.  0.
         14    1    1    2    0    0 -0.17857551683E-01  0.14259395577E-01  0.78773958948E-02  0.24171799280E-01  0.00000000000E+00 0.  1.
     999901    1    3    3    0    0  0.67711955441E-01 -0.51352990587E-01 -0.11794743184E+00  0.89192692258E+00  0.88000000000E+00 0. -1.
        -11    1    4    4    0    0 -0.40160923015E-01  0.19495664743E-01  0.81023228521E-01  0.92509487957E-01  0.51100000000E-03 0. -1.
         11    1    4    4    0    0 -0.96934807432E-02  0.17597930268E-01  0.29046807429E-01  0.35321790179E-01  0.51100000000E-03 0.  1.
</event>
<event>
 8    1  0.1117714E+005  0.1043930E+01  0.7957747E-01            NaN
         13   -1    0    0    0    0  0.00000000000E+00  0.00000000000E+00  0.74505805969E-08  0.10566000000E+00  0.10566000000E+00 0.  1.
     999900   -1    0    0    0    0 -0.00000000000E+00 -0.00000000000E+00 -0.74505805969E-08  0.93827000000E+00  0.93827000000E+00 0. -1.
     999902    2    1    2    0    0 -0.39171716329E-02  0.24017333032E-01 -0.10809680377E-01  0.10173024633E+01  0.10169539204E+01 0.  0.
     999903    2    3    3    0    0 -0.58666622679E-01 -0.43317950145E-01  0.10007498325E+00  0.12610834789E+00  0.23876677230E-01 0.  0.
         14    1    1    2    0    0  0.39171716329E-02 -0.24017333032E-01  0.10809680377E-01  0.26627536676E-01  0.00000000000E+00 0.  1.
     999901    1    3    3    0    0  0.54749451046E-01  0.67335283177E-01 -0.11088466362E+00  0.89119411543E+00  0.88000000000E+00 0. -1.
        -11    1    4    4    0    0 -0.16401159849E-01 -0.18878777142E-01  0.51410533932E-01  0.57172636733E-01  0.51100000000E-03 0.  1.
         11    1    4    4    0    0 -0.42265462830E-01 -0.24439173003E-01  0.48664449313E-01  0.68935711161E-01  0.51100000000E-03 0. -1.
</event>
<event>
 7    1  0.1117714E+005  0.1043930E+01  0.7957747E-01            NaN
         13   -1    0    0    0    0  0.00000000000E+00  0.00000000000E+00  0.74505805969E-08  0.10566000000E+00  0.10566000000E+00 0. -1.
     999900   -1    0    0    0    0 -0.00000000000E+00 -0.00000000000E+00 -0.74505805969E-08  0.93827000000E+00  0.93827000000E+00 0. -1.
     999903    2    1    2    0    0  0.32414892923E-01  0.10441485395E+00  0.11040467500E-01  0.11168607581E+00  0.19967488570E-01 0.  0.
         14    1    1    2    0    0 -0.14980166542E-01  0.35707962699E-01  0.12457982204E-01  0.40677577489E-01  0.00000000000E+00 0.  1.
     999901    1    1    2    0    0 -0.17434726381E-01 -0.14012281665E+00 -0.23498449704E-01  0.89156634670E+00  0.88000000000E+00 0.  1.
        -11    1    3    3    0    0  0.25558883684E-02  0.39969266841E-01  0.22751923908E-02  0.40118729772E-01  0.51100000000E-03 0.  1.
         11    1    3    3    0    0  0.29859004555E-01  0.64445587105E-01  0.87652751095E-02  0.71567346039E-01  0.51100000000E-03 0. -1.
</event>
<event>
 8    1  0.1117714E+005  0.1043930E+01  0.7957747E-01            NaN
         13   -1    0    0    0    0  0.00000000000E+00  0.00000000000E+00  0.74505805969E-08  0.10566000000E+00  0.10566000000E+00 0.  1.
     999900   -1    0    0    0    0 -0.00000000000E+00 -0.00000000000E+00 -0.74505805969E-08  0.93827000000E+00  0.93827000000E+00 0.  1.
     999902    2    1    2    0    0  0.24514323118E-01  0.16408890802E-01 -0.64127913895E-02  0.10137417965E+01  0.10132922098E+01 0.  0.
     999903    2    3    3    0    0 -0.65889664242E-01 -0.57516572021E-01  0.82171368940E-01  0.12161792147E+00  0.19727671918E-01 0.  0.
         14    1    1    2    0    0 -0.24514323118E-01 -0.16408890802E-01  0.64127913895E-02  0.30188203469E-01  0.00000000000E+00 0. -1.
     999901    1    3    3    0    0  0.90403987360E-01  0.73925462824E-01 -0.88584160330E-01  0.89212387506E+00  0.88000000000E+00 0.  1.
        -11    1    4    4    0    0 -0.37337241121E-01 -0.39797797587E-01  0.61229073760E-01  0.82019478552E-01  0.51100000000E-03 0. -1.
         11    1    4    4    0    0 -0.28552423121E-01 -0.17718774434E-01  0.20942295180E-01  0.39598442923E-01  0.51100000000E-03 0.  1.
</event>
<event>
 8    1  0.1117714E+005  0.1043930E+01  0.7957747E-01            NaN
         13   -1    0    0    0    0  0.00000000000E+00  0.00000000000E+00  0.74505805969E-08  0.10566000000E+00  0.10566000000E+00 0. -1.
     999900   -1    0    0    0    0 -0.00000000000E+00 -0.00000000000E+00 -0.74505805969E-08  0.93827000000E+00  0.93827000000E+00 0. -1.
     999902    2    1    2    0    0  0.21894237702E-03 -0.20641931822E-01 -0.11517329975E-01  0.10202913415E+01  0.10200174682E+01 0.  0.
     999903    2    3    3    0    0 -0.93438548721E-01  0.11701367061E-01  0.86357191751E-01  0.12933834802E+00  0.20078827732E-01 0.  0.
         14    1    1    2    0    0 -0.21894237702E-03  0.20641931822E-01  0.11517329975E-01  0.23638658482E-01  0.00000000000E+00 0. -1.
     999901    1    3    3    0    0  0.93657491098E-01 -0.32343298883E-01 -0.97874521725E-01  0.89095299350E+00  0.88000000000E+00 0. -1.
        -11    1    4    4    0    0 -0.37208250430E-01  0.23297944375E-02  0.21706527813E-01  0.43142975244E-01  0.51100000000E-03 0.  1.
         11    1    4    4    0    0 -0.56230298291E-01  0.93715726231E-02  0.64650663937E-01  0.86195372775E-01  0.51100000000E-03 0. -1.
</event>
<event>
 8    1  0.1117714E+005  0.1043930E+01  0.7957747E-01            NaN
         13   -1    0    0    0    0  0.00000000000E+00  0.00000000000E+00  0.74505805969E-08  0.10566000000E+00  0.10566000000E+00 0.  1.
     999900   -1    0    0    0    0 -0.00000000000E+00 -0.00000000000E+00 -0.74505805969E-08  0.93827000000E+00  0.93827000000E+00 0. -1.
     999902    2    1    2    0    0 -0.23992944328E-01 -0.53316763591E-02  0.13721266455E-01  0.10157810870E+01  0.10153909865E+01 0.  0.
     999903    2    3    3    0    0  0.97343167846E-01  0.67879313852E-01  0.31371464896E-01  0.12426898348E+00  0.19373122366E-01 0.  0.
         14    1    1    2    0    0  0.23992944328E-01  0.53316763591E-02 -0.13721266455E-01  0.28148913007E-01  0.00000000000E+00 0.  1.
     999901    1    3    3    0    0 -0.12133611217E+00 -0.73210990211E-01 -0.17650198441E-01  0.89151210351E+00  0.88000000000E+00 0. -1.
        -11    1    4    4    0    0  0.65702740215E-01  0.54724755203E-01  0.17408416734E-01  0.87263755352E-01  0.51100000000E-03 0.  1.
         11    1    4    4    0    0  0.31640427630E-01  0.13154558649E-01  0.13963048162E-01  0.37005228129E-01  0.51100000000E-03 0. -1.
</event>
<event>
 8    1  0.1117714E+005  0.1043930E+01  0.7957747E-01            NaN
         13   -1    0    0    0    0  0.00000000000E+00  0.00000000000E+00  0.74505805969E-08  0.10566000000E+00  0.10566000000E+00 0.  1.
     999900   -1    0    0    0    0 -0.00000000000E+00 -0.00000000000E+00 -0.74505805969E-08  0.93827000000E+00  0.93827000000E+00 0. -1.
     999902    2    1    2    0    0 -0.20231511392E-01 -0.79613270312E-02  0.97458224988E-02  0.10201040092E+01  0.10198257262E+01 0.  0.
     999903    2    3    3    0    0  0.51686262112E-01  0.62592877603E-02 -0.11535860499E+00  0.12823770206E+00  0.20655558855E-01 0.  0.
         14    1    1    2    0    0  0.20231511392E-01  0.79613270312E-02 -0.97458224988E-02  0.23825990798E-01  0.00000000000E+00 0.  1.
     999901    1    3    3    0    0 -0.71917773504E-01 -0.14220614792E-01  0.12510442749E+00  0.89186630714E+00  0.88000000000E+00 0.  1.
        -11    1    4    4    0    0  0.20690408800E-01  0.12606568242E-01 -0.54470400901E-01  0.59617986166E-01  0.51100000000E-03 0.  1.
         11    1    4    4    0    0  0.30995853312E-01 -0.63472804821E-02 -0.60888204087E-01  0.68619715898E-01  0.51100000000E-03 0. -1.
</event>
<event>
 8    1  0.1117714E+005  0.1043930E+01  0.7957747E-01            NaN
         13   -1    0    0    0    0  0.00000000000E+00  0.00000000000E+00  0.74505805969E-08  0.10566000000E+00  0.10566000000E+00 0.  1.
     999900   -1    0    0    0    0 -0.00000000000E+00 -0.00000000000E+00 -0.74505805969E-08  0.93827000000E+00  0.93827000000E+00 0. -1.
     999902    2    1    2    0    0 -0.20700894304E-01  0.96164277897E-02 -0.73912071658E-02  0.10199376543E+01  0.10196554251E+01 0.  0.
     999903    2    3    3    0    0 -0.24509162310E-01 -0.26101886534E-02 -0.12831740408E+00  0.13157560078E+00  0.15468367976E-01 0.  0.
         14    1    1    2    0    0  0.20700894304E-01 -0.96164277897E-02  0.73912071658E-02  0.23992345692E-01  0.00000000000E+00 0.  1.
     999901    1    3    3    0    0  0.38082680058E-02  0.12226616443E-01  0.12092619691E+00  0.88836205353E+00  0.88000000000E+00 0.  1.
        -11    1    4    4    0    0 -0.12274918926E-01  0.13518434347E-02 -0.30407175362E-01  0.32823140462E-01  0.51100000000E-03 0.  1.
         11    1    4    4    0    0 -0.12234243384E-01 -0.39620320880E-02 -0.97910228719E-01  0.98752460315E-01  0.51100000000E-03 0. -1.
</event>
<event>
 8    1  0.1117714E+005  0.1043930E+01  0.7957747E-01            NaN
         13   -1    0    0    0    0  0.00000000000E+00  0.00000000000E+00  0.74505805969E-08  0.10566000000E+00  0.10566000000E+00 0. -1.
     999900   -1    0    0    0    0 -0.00000000000E+00 -0.00000000000E+00 -0.74505805969E-08  0.93827000000E+00  0.93827000000E+00 0. -1.
     999902    2    1    2    0    0  0.52422767481E-02  0.11045300668E-01  0.19952924473E-01  0.10205291597E+01  0.10202608326E+01 0.  0.
     999903    2    3    3    0    0 -0.40504807268E-01  0.12398136964E+00  0.50860290299E-02  0.13200883018E+00  0.19708985855E-01 0.  0.
         14    1    1    2    0    0 -0.52422767481E-02 -0.11045300668E-01 -0.19952924473E-01  0.23400840313E-01  0.00000000000E+00 0.  1.
     999901    1    3    3    0    0  0.45747084017E-01 -0.11293606897E+00  0.14866895443E-01  0.88852032951E+00  0.88000000000E+00 0. -1.
        -11    1    4    4    0    0 -0.17952737881E-01  0.61937667500E-01  0.12119442831E-01  0.65617966048E-01  0.51100000000E-03 0. -1.
         11    1    4    4    0    0 -0.22552069388E-01  0.62043702142E-01 -0.70334138015E-02  0.66390864130E-01  0.51100000000E-03 0.  1.
</event>
<event>
 8    1  0.1117714E+005  0.1043930E+01  0.7957747E-01            NaN
         13   -1    0    0    0    0  0.00000000000E+00  0.00000000000E+00  0.74505805969E-08  0.10566000000E+00  0.10566000000E+00 0. -1.
     999900   -1    0    0    0    0 -0.00000000000E+00 -0.00000000000E+00 -0.74505805969E-08  0.93827000000E+00  0.93827000000E+00 0.  1.
     999902    2    1    2    0    0 -0.17328890783E-01 -0.99425897225E-02 -0.12451973626E-01  0.10203886068E+01  0.10201170088E+01 0.  0.
     999903    2    3    3    0    0 -0.41595893181E-01 -0.10472733559E-01 -0.12426455066E+00  0.13298158585E+00  0.20063079232E-01 0.  0.
         14    1    1    2    0    0  0.17328890783E-01  0.99425897225E-02  0.12451973626E-01  0.23541393190E-01  0.00000000000E+00 0. -1.
     999901    1    3    3    0    0  0.24267002398E-01  0.53014383613E-03  0.11181257703E+00  0.88740702096E+00  0.88000000000E+00 0. -1.
        -11    1    4    4    0    0 -0.10290093512E-01 -0.84166862470E-02 -0.60113416312E-01  0.61567934622E-01  0.51100000000E-03 0. -1.
         11    1    4    4    0    0 -0.31305799669E-01 -0.20560473116E-02 -0.64151134347E-01  0.71413651233E-01  0.51100000000E-03 0.  1.
</event>
<event>
 8    1  0.1117714E+005  0.1043930E+01  0.7957747E-01            NaN
         13   -1    0    0    0    0  0.00000000000E+00  0.00000000000E+00  0.74505805969E-08  0.10566000000E+00  0.10566000000E+00 0. -1.
     999900   -1    0    0    0    0 -0.00000000000E+00 -0.00000000000E+00 -0.74505805969E-08  0.93827000000E+00  0.93827000000E+00 0.  1.
     999902    2    1    2    0    0  0.99724431487E-04  0.18871442650E-01 -0.14981438763E-01  0.10198346727E+01  0.10195499864E+01 0.  0.
     999903    2    3    3    0    0  0.22029438893E-01  0.11244849312E+00 -0.64954658195E-01  0.13319218584E+00  0.19776019970E-01 0.  0.
         14    1    1    2    0    0 -0.99724431487E-04 -0.18871442650E-01  0.14981438763E-01  0.24095327350E-01  0.00000000000E+00 0.  1.
     999901    1    3    3    0    0 -0.21929714461E-01 -0.93577050468E-01  0.49973219432E-01  0.88664248681E+00  0.88000000000E+00 0. -1.
        -11    1    4    4    0    0  0.18417581562E-01  0.60350738212E-01 -0.43966617231E-01  0.76907369380E-01  0.51100000000E-03 0. -1.
         11    1    4    4    0    0  0.36118573306E-02  0.52097754907E-01 -0.20988040964E-01  0.56284816463E-01  0.51100000000E-03 0.  1.
</event>
<event>
 8    1  0.1117714E+005  0.1043930E+01  0.7957747E-01            NaN
         13   -1    0    0    0    0  0.00000000000E+00  0.00000000000E+00  0.74505805969E-08  0.10566000000E+00  0.10566000000E+00 0. -1.
     999900   -1    0    0    0    0 -0.00000000000E+00 -0.00000000000E+00 -0.74505805969E-08  0.93827000000E+00  0.93827000000E+00 0.  1.
     999902    2    1    2    0    0 -0.18955549835E-01 -0.11825658088E-01  0.73669565705E-02  0.10204048835E+01  0.10201336653E+01 0.  0.
     999903    2    3    3    0    0  0.29407048664E-01 -0.12493206498E+00 -0.19602783690E-01  0.13143954831E+00  0.20476580817E-01 0.  0.
         14    1    1    2    0    0  0.18955549835E-01  0.11825658088E-01 -0.73669565705E-02  0.23525116533E-01  0.00000000000E+00 0. -1.
     999901    1    3    3    0    0 -0.48362598500E-01  0.11310640689E+00  0.26969740260E-01  0.88896533515E+00  0.88000000000E+00 0. -1.
        -11    1    4    4    0    0  0.21768410687E-02 -0.30051520682E-01 -0.11997219083E-01  0.32434964453E-01  0.51100000000E-03 0. -1.
         11    1    4    4    0    0  0.27230207596E-01 -0.94880544296E-01 -0.76055646064E-02  0.99004583862E-01  0.51100000000E-03 0.  1.
</event>
<event>
 8    1  0.1117714E+005  0.1043930E+01  0.7957747E-01            NaN
         13   -1    0    0    0    0  0.00000000000E+00  0.00000000000E+00  0.74505805969E-08  0.10566000000E+00  0.10566000000E+00 0. -1.
     999900   -1    0    0    0    0 -0.00000000000E+00 -0.00000000000E+00 -0.74505805969E-08  0.93827000000E+00  0.93827000000E+00 0. -1.
     999902    2    1    2    0    0 -0.84419120570E-02 -0.20040061593E-01  0.92475246093E-02  0.10202997935E+01  0.10200261183E+01 0.  0.
     999903    2    3    3    0    0  0.51411907318E-01  0.63734555183E-01  0.98768112032E-01  0.12978612057E+00  0.19596412906E-01 0.  0.
         14    1    1    2    0    0  0.84419120570E-02  0.20040061593E-01 -0.92475246093E-02  0.23630206500E-01  0.00000000000E+00 0.  1.
     999901    1    3    3    0    0 -0.59853819375E-01 -0.83774616776E-01 -0.89520587423E-01  0.89051367293E+00  0.88000000000E+00 0.  1.
        -11    1    4    4    0    0  0.27947463131E-01  0.41853789030E-01  0.72818003138E-01  0.88518489897E-01  0.51100000000E-03 0. -1.
         11    1    4    4    0    0  0.23464444187E-01  0.21880766153E-01  0.25950108895E-01  0.41267630669E-01  0.51100000000E-03 0.  1.
</event>
<event>
 7    1  0.1117714E+005  0.1043930E+01  0.7957747E-01            NaN
         13   -1    0    0    0    0  0.00000000000E+00  0.00000000000E+00  0.74505805969E-08  0.10566000000E+00  0.10566000000E+00 0. -1.
     999900   -1    0    0    0    0 -0.00000000000E+00 -0.00000000000E+00 -0.74505805969E-08  0.93827000000E+00  0.93827000000E+00 0.  1.
     999903    2    1    2    0    0 -0.85653873057E-01 -0.20750091257E-01  0.10988441446E-01  0.91009809186E-01  0.19871770578E-01 0.  0.
         14    1    1    2    0    0  0.14007147424E-03 -0.45975848417E-01  0.45211292161E-01  0.64481463977E-01  0.00000000000E+00 0. -1.
     999901    1    1    2    0    0  0.85513801582E-01  0.66725939674E-01 -0.56199733608E-01  0.88843872684E+00  0.88000000000E+00 0.  1.
        -11    1    3    3    0    0 -0.19703455133E-01 -0.13408977529E-01  0.51903128305E-02  0.24397280398E-01  0.51100000000E-03 0.  1.
         11    1    3    3    0    0 -0.65950417923E-01 -0.73411137280E-02  0.57981286157E-02  0.66612528788E-01  0.51100000000E-03 0. -1.
</event>
<event>
 8    1  0.1117714E+005  0.1043930E+01  0.7957747E-01            NaN
         13   -1    0    0    0    0  0.00000000000E+00  0.00000000000E+00  0.74505805969E-08  0.10566000000E+00  0.10566000000E+00 0.  1.
     999900   -1    0    0    0    0 -0.00000000000E+00 -0.00000000000E+00 -0.74505805969E-08  0.93827000000E+00  0.93827000000E+00 0. -1.
     999902    2    1    2    0    0  0.23678371841E-01  0.20813093514E-03 -0.24886544928E-03  0.10202494057E+01  0.10199745484E+01 0.  0.
     999903    2    3    3    0    0 -0.30248821856E-01 -0.12296506917E+00  0.20473837984E-01  0.12979490947E+00  0.19802550961E-01 0.  0.
         14    1    1    2    0    0 -0.23678371841E-01 -0.20813093514E-03  0.24886544928E-03  0.23680594282E-01  0.00000000000E+00 0. -1.
     999901    1    3    3    0    0  0.53927193697E-01  0.12317320010E+00 -0.20722703433E-01  0.89045449624E+00  0.88000000000E+00 0.  1.
        -11    1    4    4    0    0 -0.22482345443E-01 -0.59130397738E-01  0.16426958739E-01  0.65360277598E-01  0.51100000000E-03 0.  1.
         11    1    4    4    0    0 -0.77664764124E-02 -0.63834671429E-01  0.40468792452E-02  0.64434631876E-01  0.51100000000E-03 0. -1.
</event>
<event>
 7    1  0.1117714E+005  0.1043930E+01  0.7957747E-01            NaN
         13   -1    0    0    0    0  0.00000000000E+00  0.00000000000E+00  0.74505805969E-08  0.10566000000E+00  0.10566000000E+00 0. -1.
     999900   -1    0    0    0    0 -0.00000000000E+00 -0.00000000000E+00 -0.74505805969E-08  0.93827000000E+00  0.93827000000E+00 0. -1.
     999903    2    1    2    0    0 -0.60156516672E-02 -0.96240853744E-01  0.55489718788E-01  0.11299401337E+00  0.19749637263E-01 0.  0.
         14    1    1    2    0    0 -0.69344913861E-02  0.43536391101E-01  0.14707820775E-01  0.46473912175E-01  0.00000000000E+00 0. -1.
     999901    1    1    2    0    0  0.12950143053E-01  0.52704462643E-01 -0.70197539564E-01  0.88446207445E+00  0.88000000000E+00 0. -1.
        -11    1    3    3    0    0 -0.91857548145E-02 -0.93667344552E-01  0.51616101301E-01  0.10734259435E+00  0.51100000000E-03 0.  1.
         11    1    3    3    0    0  0.31701031473E-02 -0.25735091923E-02  0.38736174877E-02  0.56514190226E-02  0.51100000000E-03 0. -1.
</event>
<event>
 8    1  0.1117714E+005  0.1043930E+01  0.7957747E-01            NaN
         13   -1    0    0    0    0  0.00000000000E+00  0.00000000000E+00  0.74505805969E-08  0.10566000000E+00  0.10566000000E+00 0.  1.
     999900   -1    0    0    0    0 -0.00000000000E+00 -0.00000000000E+00 -0.74505805969E-08  0.93827000000E+00  0.93827000000E+00 0. -1.
     999902    2    1    2    0    0 -0.20168400886E-01 -0.48610440316E-03  0.64815678471E-03  0.10237453326E+01  0.10235463278E+01 0.  0.
     999903    2    3    3    0    0 -0.12177620752E+00  0.31289538613E-01  0.47929612213E-01  0.13606894228E+00  0.20224474814E-01 0.  0.
         14    1    1    2    0    0  0.20168400886E-01  0.48610440316E-03 -0.64815678471E-03  0.20184667423E-01  0.00000000000E+00 0.  1.
     999901    1    3    3    0    0  0.10160780664E+00 -0.31775643017E-01 -0.47281455428E-01  0.88767639029E+00  0.88000000000E+00 0. -1.
        -11    1    4    4    0    0 -0.90192850505E-01  0.24665312346E-01  0.44675993904E-01  0.10363075541E+00  0.51100000000E-03 0. -1.
         11    1    4    4    0    0 -0.31583357018E-01  0.66242262677E-02  0.32536183086E-02  0.32438186868E-01  0.51100000000E-03 0.  1.
</event>
<event>
 8    1  0.1117714E+005  0.1043930E+01  0.7957747E-01            NaN
         13   -1    0    0    0    0  0.00000000000E+00  0.00000000000E+00  0.74505805969E-08  0.10566000000E+00  0.10566000000E+00 0.  1.
     999900   -1    0    0    0    0 -0.00000000000E+00 -0.00000000000E+00 -0.74505805969E-08  0.93827000000E+00  0.93827000000E+00 0.  1.
     999902    2    1    2    0    0 -0.22366310970E-01  0.51594916897E-02  0.50564131561E-02  0.10204259677E+01  0.10201552411E+01 0.  0.
     999903    2    3    3    0    0 -0.52113782366E-01 -0.11679322047E+00 -0.13222302030E-01  0.13133008563E+00  0.26763024126E-01 0.  0.
         14    1    1    2    0    0  0.22366310970E-01 -0.51594916897E-02 -0.50564131561E-02  0.23504032312E-01  0.00000000000E+00 0.  1.
     999901    1    3    3    0    0  0.29747471396E-01  0.12195271216E+00  0.18278715187E-01  0.88909588206E+00  0.88000000000E+00 0.  1.
        -11    1    4    4    0    0 -0.21938044731E-01 -0.40190788865E-01 -0.17164354442E-01  0.48902489718E-01  0.51100000000E-03 0. -1.
         11    1    4    4    0    0 -0.30175737635E-01 -0.76602431608E-01  0.39420524115E-02  0.82427595915E-01  0.51100000000E-03 0.  1.
</event>
<event>
 8    1  0.1117714E+005  0.1043930E+01  0.7957747E-01            NaN
         13   -1    0    0    0    0  0.00000000000E+00  0.00000000000E+00  0.74505805969E-08  0.10566000000E+00  0.10566000000E+00 0.  1.
     999900   -1    0    0    0    0 -0.00000000000E+00 -0.00000000000E+00 -0.74505805969E-08  0.93827000000E+00  0.93827000000E+00 0. -1.
     999902    2    1    2    0    0  0.31739553314E-02  0.30842968049E-02  0.14063156985E-01  0.10291868910E+01  0.10290812880E+01 0.  0.
     999903    2    3    3    0    0  0.59645723332E-01  0.13659214669E-01 -0.12094813000E+00  0.13703839601E+00  0.20171399880E-01 0.  0.
         14    1    1    2    0    0 -0.31739553314E-02 -0.30842968049E-02 -0.14063156985E-01  0.14743109021E-01  0.00000000000E+00 0. -1.
     999901    1    3    3    0    0 -0.56471768001E-01 -0.10574917864E-01  0.13501128698E+00  0.89214849497E+00  0.88000000000E+00 0. -1.
        -11    1    4    4    0    0  0.38639497302E-01  0.14603278274E-01 -0.62478358806E-01  0.74900420080E-01  0.51100000000E-03 0. -1.
         11    1    4    4    0    0  0.21006226030E-01 -0.94406360537E-03 -0.58469771190E-01  0.62137975926E-01  0.51100000000E-03 0.  1.
</event>
<event>
 8    1  0.1117714E+005  0.1043930E+01  0.7957747E-01            NaN
         13   -1    0    0    0    0  0.00000000000E+00  0.00000000000E+00  0.74505805969E-08  0.10566000000E+00  0.10566000000E+00 0. -1.
     999900   -1    0    0    0    0 -0.00000000000E+00 -0.00000000000E+00 -0.74505805969E-08  0.93827000000E+00  0.93827000000E+00 0. -1.
     999902    2    1    2    0    0  0.42822739851E-02 -0.13139449174E-01  0.17014868489E-01  0.10220099465E+01  0.10217748490E+01 0.  0.
     999903    2    3    3    0    0  0.16605469168E-01  0.10623656644E+00 -0.69678942949E-01  0.12964325553E+00  0.19755226065E-01 0.  0.
         14    1    1    2    0    0 -0.42822739851E-02  0.13139449174E-01 -0.17014868489E-01  0.21920053485E-01  0.00000000000E+00 0. -1.
     999901    1    3    3    0    0 -0.12323195183E-01 -0.11937601562E+00  0.86693811437E-01  0.89236669099E+00  0.88000000000E+00 0.  1.
        -11    1    4    4    0    0 -0.28840162139E-02  0.35687669568E-01 -0.27656797196E-01  0.45244744014E-01  0.51100000000E-03 0.  1.
         11    1    4    4    0    0  0.19489485382E-01  0.70548896876E-01 -0.42022145752E-01  0.84398511512E-01  0.51100000000E-03 0. -1.
</event>
<event>
 8    1  0.1117714E+005  0.1043930E+01  0.7957747E-01            NaN
         13   -1    0    0    0    0  0.00000000000E+00  0.00000000000E+00  0.74505805969E-08  0.10566000000E+00  0.10566000000E+00 0. -1.
     999900   -1    0    0    0    0 -0.00000000000E+00 -0.00000000000E+00 -0.74505805969E-08  0.93827000000E+00  0.93827000000E+00 0.  1.
     999902    2    1    2    0    0  0.20600510107E-01 -0.53982210165E-02  0.10665292003E-01  0.10201125639E+01  0.10198344831E+01 0.  0.
     999903    2    3    3    0    0  0.35814812584E-01 -0.59637165464E-01  0.11084553448E+00  0.13263894795E+00  0.21611702751E-01 0.  0.
         14    1    1    2    0    0 -0.20600510107E-01  0.53982210165E-02 -0.10665292003E-01  0.23817436056E-01  0.00000000000E+00 0.  1.
     999901    1    3    3    0    0 -0.15214302477E-01  0.54238944448E-01 -0.10018024247E+00  0.88747361599E+00  0.88000000000E+00 0.  1.
        -11    1    4    4    0    0  0.24841163099E-01 -0.55125850894E-01  0.86344236195E-01  0.10541124734E+00  0.51100000000E-03 0. -1.
         11    1    4    4    0    0  0.10973649485E-01 -0.45113145707E-02  0.24501298283E-01  0.27227700613E-01  0.51100000000E-03 0.  1.
</event>
<event>
 8    1  0.1117714E+005  0.1043930E+01  0.7957747E-01            NaN
         13   -1    0    0    0    0  0.00000000000E+00  0.00000000000E+00  0.74505805969E-08  0.10566000000E+00  0.10566000000E+00 0. -1.
     999900   -1    0    0    0    0 -0.00000000000E+00 -0.00000000000E+00 -0.74505805969E-08  0.93827000000E+00  0.93827000000E+00 0.  1.
     999902    2    1    2    0    0 -0.20235129978E-01  0.22979354891E-02  0.12033692210E-01  0.10202751751E+01  0.10200009226E+01 0.  0.
     999903    2    3    3    0    0 -0.84723835974E-01  0.60367634709E-01 -0.77700801796E-01  0.13146520521E+00  0.20574398608E-01 0.  0.
         14    1    1    2    0    0  0.20235129978E-01 -0.22979354891E-02 -0.12033692210E-01  0.23654824898E-01  0.00000000000E+00 0.  1.
     999901    1    3    3    0    0  0.64488705995E-01 -0.58069699220E-01  0.89734494006E-01  0.88880996989E+00  0.88000000000E+00 0.  1.
        -11    1    4    4    0    0 -0.51998928215E-01  0.27425025709E-01 -0.51436836511E-01  0.78115490409E-01  0.51100000000E-03 0.  1.
         11    1    4    4    0    0 -0.32724907759E-01  0.32942609000E-01 -0.26263965285E-01  0.53349714798E-01  0.51100000000E-03 0. -1.
</event>
<event>
 8    1  0.1117714E+005  0.1043930E+01  0.7957747E-01            NaN
         13   -1    0    0    0    0  0.00000000000E+00  0.00000000000E+00  0.74505805969E-08  0.10566000000E+00  0.10566000000E+00 0.  1.
     999900   -1    0    0    0    0 -0.00000000000E+00 -0.00000000000E+00 -0.74505805969E-08  0.93827000000E+00  0.93827000000E+00 0.  1.
     999902    2    1    2    0    0 -0.12964245784E-02 -0.12023239607E-01  0.20644419130E-01  0.10200044687E+01  0.10197238279E+01 0.  0.
     999903    2    3    3    0    0  0.22302418933E-01  0.11043016551E+00 -0.56997500588E-01  0.12782735088E+00  0.19972411343E-01 0.  0.
         14    1    1    2    0    0  0.12964245784E-02  0.12023239607E-01 -0.20644419130E-01  0.23925531312E-01  0.00000000000E+00 0. -1.
     999901    1    3    3    0    0 -0.23598843511E-01 -0.12245340512E+00  0.77641919718E-01  0.89217711781E+00  0.88000000000E+00 0.  1.
        -11    1    4    4    0    0  0.17580338317E-01  0.52529944462E-01 -0.19720808779E-01  0.58801656273E-01  0.51100000000E-03 0.  1.
         11    1    4    4    0    0  0.47220806154E-02  0.57900221050E-01 -0.37276691809E-01  0.69025694609E-01  0.51100000000E-03 0. -1.
</event>
<event>
 8    1  0.1117714E+005  0.1043930E+01  0.7957747E-01            NaN
         13   -1    0    0    0    0  0.00000000000E+00  0.00000000000E+00  0.74505805969E-08  0.10566000000E+00  0.10566000000E+00 0.  1.
     999900   -1    0    0    0    0 -0.00000000000E+00 -0.00000000000E+00 -0.74505805969E-08  0.93827000000E+00  0.93827000000E+00 0.  1.
     999902    2    1    2    0    0  0.23581934007E-01  0.71898191264E-02  0.27794374127E-02  0.10191201958E+01  0.10188181620E+01 0.  0.
     999903    2    3    3    0    0  0.12389146746E+00 -0.41196619735E-01  0.59738379683E-02  0.13209513747E+00  0.19161978426E-01 0.  0.
         14    1    1    2    0    0 -0.23581934007E-01 -0.71898191264E-02 -0.27794374127E-02  0.24809804169E-01  0.00000000000E+00 0.  1.
     999901    1    3    3    0    0 -0.10030953345E+00  0.48386438862E-01 -0.31944005555E-02  0.88702505836E+00  0.88000000000E+00 0. -1.
        -11    1    4    4    0    0  0.67117179127E-01 -0.31213538283E-01 -0.98860226398E-03  0.74028637442E-01  0.51100000000E-03 0. -1.
         11    1    4    4    0    0  0.56774288328E-01 -0.99830814528E-02  0.69624402322E-02  0.58066500027E-01  0.51100000000E-03 0.  1.
</event>
<event>
 8    1  0.1117714E+005  0.1043930E+01  0.7957747E-01            NaN
         13   -1    0    0    0    0  0.00000000000E+00  0.00000000000E+00  0.74505805969E-08  0.10566000000E+00  0.10566000000E+00 0.  1.
     999900   -1    0    0    0    0 -0.00000000000E+00 -0.00000000000E+00 -0.74505805969E-08  0.93827000000E+00  0.93827000000E+00 0. -1.
     999902    2    1    2    0    0 -0.24170345041E-01 -0.16814015706E-02 -0.45710711510E-02  0.10192738166E+01  0.10189755570E+01 0.  0.
     999903    2    3    3    0    0 -0.90967204794E-01  0.15815597012E-01 -0.92485645148E-01  0.13220170125E+00  0.19963211106E-01 0.  0.
         14    1    1    2    0    0  0.24170345041E-01  0.16814015706E-02  0.45710711510E-02  0.24656183446E-01  0.00000000000E+00 0.  1.
     999901    1    3    3    0    0  0.66796859752E-01 -0.17496998582E-01  0.87914573997E-01  0.88707211531E+00  0.88000000000E+00 0.  1.
        -11    1    4    4    0    0 -0.42171057752E-01 -0.26308600681E-02 -0.39473503638E-01  0.57825065042E-01  0.51100000000E-03 0. -1.
         11    1    4    4    0    0 -0.48796147042E-01  0.18446457080E-01 -0.53012141510E-01  0.74376636206E-01  0.51100000000E-03 0.  1.
</event>
<event>
 8    1  0.1117714E+005  0.1043930E+01  0.7957747E-01            NaN
         13   -1    0    0    0    0  0.00000000000E+00  0.00000000000E+00  0.74505805969E-08  0.10566000000E+00  0.10566000000E+00 0. -1.
     999900   -1    0    0    0    0 -0.00000000000E+00 -0.00000000000E+00 -0.74505805969E-08  0.93827000000E+00  0.93827000000E+00 0.  1.
     999902    2    1    2    0    0  0.93093650644E-02 -0.62088953938E-02  0.21022812937E-01  0.10201145990E+01  0.10198365662E+01 0.  0.
     999903    2    3    3    0    0 -0.38773934714E-01  0.12141614188E+00  0.13262347769E-01  0.12957522388E+00  0.19197688741E-01 0.  0.
         14    1    1    2    0    0 -0.93093650644E-02  0.62088953938E-02 -0.21022812937E-01  0.23815400977E-01  0.00000000000E+00 0.  1.
     999901    1    3    3    0    0  0.48083299779E-01 -0.12762503728E+00  0.77604651675E-02  0.89053937514E+00  0.88000000000E+00 0. -1.
        -11    1    4    4    0    0 -0.33135282388E-01  0.73381940581E-01  0.74962713283E-02  0.80866008602E-01  0.51100000000E-03 0.  1.
         11    1    4    4    0    0 -0.56386523258E-02  0.48034201300E-01  0.57660764412E-02  0.48709215279E-01  0.51100000000E-03 0. -1.
</event>
<event>
 8    1  0.1117714E+005  0.1043930E+01  0.7957747E-01            NaN
         13   -1    0    0    0    0  0.00000000000E+00  0.00000000000E+00  0.74505805969E-08  0.10566000000E+00  0.10566000000E+00 0.  1.
     999900   -1    0    0    0    0 -0.00000000000E+00 -0.00000000000E+00 -0.74505805969E-08  0.93827000000E+00  0.93827000000E+00 0. -1.
     999902    2    1    2    0    0 -0.12425560724E-02  0.19392950328E-01 -0.10145568133E-01  0.10220082523E+01  0.10217731181E+01 0.  0.
     999903    2    3    3    0    0  0.11091468027E+00  0.70426270182E-01 -0.13769269680E-01  0.13341567043E+00  0.18660720731E-01 0.  0.
         14    1    1    2    0    0  0.12425560724E-02 -0.19392950328E-01  0.10145568133E-01  0.21921747667E-01  0.00000000000E+00 0.  1.
     999901    1    3    3    0    0 -0.11215723634E+00 -0.51033319854E-01  0.36237015464E-02  0.88859258190E+00  0.88000000000E+00 0.  1.
        -11    1    4    4    0    0  0.10091673358E+00  0.65611045107E-01 -0.73728675672E-02  0.12059691809E+00  0.51100000000E-03 0. -1.
         11    1    4    4    0    0  0.99979466929E-02  0.48152250755E-02 -0.63964021125E-02  0.12818752341E-01  0.51100000000E-03 0.  1.
</event>
<event>
 8    1  0.1117714E+005  0.1043930E+01  0.7957747E-01            NaN
         13   -1    0    0    0    0  0.00000000000E+00  0.00000000000E+00  0.74505805969E-08  0.10566000000E+00  0.10566000000E+00 0.  1.
     999900   -1    0    0    0    0 -0.00000000000E+00 -0.00000000000E+00 -0.74505805969E-08  0.93827000000E+00  0.93827000000E+00 0.  1.
     999902    2    1    2    0    0 -0.22118796188E-01 -0.45148487772E-02  0.83986800420E-02  0.10198434305E+01  0.10195589536E+01 0.  0.
     999903    2    3    3    0    0 -0.12082278303E+00  0.15279462653E-01  0.49982808007E-01  0.13312840779E+00  0.19831414132E-01 0.  0.
         14    1    1    2    0    0  0.22118796188E-01  0.45148487772E-02 -0.83986800420E-02  0.24086569509E-01  0.00000000000E+00 0. -1.
     999901    1    3    3    0    0  0.98703986843E-01 -0.19794311430E-01 -0.41584127965E-01  0.88671502270E+00  0.88000000000E+00 0. -1.
        -11    1    4    4    0    0 -0.45665791430E-01 -0.10258511145E-02  0.11377677380E-01  0.47075785081E-01  0.51100000000E-03 0.  1.
         11    1    4    4    0    0 -0.75156991600E-01  0.16305313768E-01  0.38605130627E-01  0.86052622709E-01  0.51100000000E-03 0. -1.
</event>
<event>
 8    1  0.1117714E+005  0.1043930E+01  0.7957747E-01            NaN
         13   -1    0    0    0    0  0.00000000000E+00  0.00000000000E+00  0.74505805969E-08  0.10566000000E+00  0.10566000000E+00 0. -1.
     999900   -1    0    0    0    0 -0.00000000000E+00 -0.00000000000E+00 -0.74505805969E-08  0.93827000000E+00  0.93827000000E+00 0. -1.
     999902    2    1    2    0    0 -0.17121796154E-01  0.15627548123E-01  0.37466487305E-02  0.10204478038E+01  0.10201775858E+01 0.  0.
     999903    2    3    3    0    0 -0.66454719036E-01  0.10680653255E+00  0.40434321408E-01  0.13360321206E+00  0.19774196559E-01 0.  0.
         14    1    1    2    0    0  0.17121796154E-01 -0.15627548123E-01 -0.37466487305E-02  0.23482196247E-01  0.00000000000E+00 0.  1.
     999901    1    3    3    0    0  0.49332922882E-01 -0.91178984423E-01 -0.36687672677E-01  0.88684459169E+00  0.88000000000E+00 0.  1.
        -11    1    4    4    0    0 -0.50131567332E-01  0.66725024837E-01  0.20439422281E-01  0.85926911307E-01  0.51100000000E-03 0. -1.
         11    1    4    4    0    0 -0.16323151704E-01  0.40081507710E-01  0.19994899126E-01  0.47676300757E-01  0.51100000000E-03 0.  1.
</event>
<event>
 8    1  0.1117714E+005  0.1043930E+01  0.7957747E-01            NaN
         13   -1    0    0    0    0  0.00000000000E+00  0.00000000000E+00  0.74505805969E-08  0.10566000000E+00  0.10566000000E+00 0. -1.
     999900   -1    0    0    0    0 -0.00000000000E+00 -0.00000000000E+00 -0.74505805969E-08  0.93827000000E+00  0.93827000000E+00 0. -1.
     999902    2    1    2    0    0  0.18045557459E-01  0.17005738573E-01 -0.33547084161E-04  0.10191340646E+01  0.10188323725E+01 0.  0.
     999903    2    3    3    0    0  0.16238331743E-01  0.98264530399E-01  0.83433721752E-01  0.13145560799E+00  0.19994739151E-01 0.  0.
         14    1    1    2    0    0 -0.18045557459E-01 -0.17005738573E-01  0.33547084161E-04  0.24795935430E-01  0.00000000000E+00 0.  1.
     999901    1    3    3    0    0  0.18072257165E-02 -0.81258791826E-01 -0.83467268836E-01  0.88767845658E+00  0.88000000000E+00 0. -1.
        -11    1    4    4    0    0  0.10208572811E-01  0.27584568805E-01  0.34172651489E-01  0.45090515918E-01  0.51100000000E-03 0. -1.
         11    1    4    4    0    0  0.60297589319E-02  0.70679961594E-01  0.49261070263E-01  0.86365092069E-01  0.51100000000E-03 0.  1.
</event>
<event>
 8    1  0.1117714E+005  0.1043930E+01  0.7957747E-01            NaN
         13   -1    0    0    0    0  0.00000000000E+00  0.00000000000E+00  0.74505805969E-08  0.10566000000E+00  0.10566000000E+00 0.  1.
     999900   -1    0    0    0    0 -0.00000000000E+00 -0.00000000000E+00 -0.74505805969E-08  0.93827000000E+00  0.93827000000E+00 0.  1.
     999902    2    1    2    0    0 -0.73403657173E-02 -0.16075925662E-01 -0.17030568952E-01  0.10193870451E+01  0.10190915519E+01 0.  0.
     999903    2    3    3    0    0  0.12353554498E+00  0.62909480295E-02 -0.31326959180E-01  0.12931223490E+00  0.20968281332E-01 0.  0.
         14    1    1    2    0    0  0.73403657173E-02  0.16075925662E-01  0.17030568952E-01  0.24542954867E-01  0.00000000000E+00 0.  1.
     999901    1    3    3    0    0 -0.13087591070E+00 -0.22366873691E-01  0.14296390228E-01  0.89007481023E+00  0.88000000000E+00 0.  1.
        -11    1    4    4    0    0  0.21409874162E-01  0.65003242804E-02  0.35553735332E-03  0.22383575567E-01  0.51100000000E-03 0.  1.
         11    1    4    4    0    0  0.10212567082E+00 -0.20937625084E-03 -0.31682496533E-01  0.10692865933E+00  0.51100000000E-03 0. -1.
</event>
<event>
 8    1  0.1117714E+005  0.1043930E+01  0.7957747E-01            NaN
         13   -1    0    0    0    0  0.00000000000E+00  0.00000000000E+00  0.74505805969E-08  0.10566000000E+00  0.10566000000E+00 0. -1.
     999900   -1    0    0    0    0 -0.00000000000E+00 -0.00000000000E+00 -0.74505805969E-08  0.93827000000E+00  0.93827000000E+00 0.  1.
     999902    2    1    2    0    0 -0.15578838764E-01  0.13252774356E-01  0.10759941785E-01  0.10208191239E+01  0.10205574806E+01 0.  0.
     999903    2    3    3    0    0 -0.19395995498E-01 -0.11096288931E+00 -0.60030582271E-01  0.12927249022E+00  0.20463100302E-01 0.  0.
         14    1    1    2    0    0  0.15578838764E-01 -0.13252774356E-01 -0.10759941785E-01  0.23110876067E-01  0.00000000000E+00 0.  1.
     999901    1    3    3    0    0  0.38171567335E-02  0.12421566367E+00  0.70790524056E-01  0.89154663371E+00  0.88000000000E+00 0. -1.
        -11    1    4    4    0    0 -0.57320248013E-02 -0.80281250780E-01 -0.47258042128E-01  0.93335518437E-01  0.51100000000E-03 0. -1.
         11    1    4    4    0    0 -0.13663970697E-01 -0.30681638533E-01 -0.12772540143E-01  0.35936971784E-01  0.51100000000E-03 0.  1.
</event>
<event>
 8    1  0.1117714E+005  0.1043930E+01  0.7957747E-01            NaN
         13   -1    0    0    0    0  0.00000000000E+00  0.00000000000E+00  0.74505805969E-08  0.10566000000E+00  0.10566000000E+00 0. -1.
     999900   -1    0    0    0    0 -0.00000000000E+00 -0.00000000000E+00 -0.74505805969E-08  0.93827000000E+00  0.93827000000E+00 0. -1.
     999902    2    1    2    0    0  0.17514045060E-02  0.17367699888E-01  0.15246614869E-01  0.10207532081E+01  0.10204900530E+01 0.  0.
     999903    2    3    3    0    0  0.64252448302E-01  0.90614037000E-02 -0.10991734510E+00  0.12966320598E+00  0.22808728195E-01 0.  0.
         14    1    1    2    0    0 -0.17514045060E-02 -0.17367699888E-01 -0.15246614869E-01  0.23176791886E-01  0.00000000000E+00 0. -1.
     999901    1    3    3    0    0 -0.62501043796E-01  0.83062961884E-02  0.12516395997E+00  0.89109000214E+00  0.88000000000E+00 0.  1.
        -11    1    4    4    0    0  0.10588207925E-01  0.70319413300E-02 -0.36837145404E-01  0.38971717289E-01  0.51100000000E-03 0. -1.
         11    1    4    4    0    0  0.53664240376E-01  0.20294623700E-02 -0.73080199692E-01  0.90691488689E-01  0.51100000000E-03 0.  1.
</event>
<event>
 8    1  0.1117714E+005  0.1043930E+01  0.7957747E-01            NaN
         13   -1    0    0    0    0  0.00000000000E+00  0.00000000000E+00  0.74505805969E-08  0.10566000000E+00  0.10566000000E+00 0. -1.
     999900   -1    0    0    0    0 -0.00000000000E+00 -0.00000000000E+00 -0.74505805969E-08  0.93827000000E+00  0.93827000000E+00 0.  1.
     999902    2    1    2    0    0 -0.16880599681E-01  0.15466127146E-01  0.81011871898E-02  0.10196445112E+01  0.10193552591E+01 0.  0.
     999903    2    3    3    0    0 -0.94078503690E-01 -0.86970814490E-01 -0.82998336795E-02  0.13019421076E+00  0.21609207438E-01 0.  0.
         14    1    1    2    0    0  0.16880599681E-01 -0.15466127146E-01 -0.81011871898E-02  0.24285488843E-01  0.00000000000E+00 0. -1.
     999901    1    3    3    0    0  0.77197904009E-01  0.10243694164E+00  0.16401020869E-01  0.88945030040E+00  0.88000000000E+00 0.  1.
        -11    1    4    4    0    0 -0.54618160171E-01 -0.35794414599E-01 -0.42210120689E-02  0.65440519564E-01  0.51100000000E-03 0.  1.
         11    1    4    4    0    0 -0.39460343519E-01 -0.51176399891E-01 -0.40788216106E-02  0.64753691193E-01  0.51100000000E-03 0. -1.
</event>
<event>
 8    1  0.1117714E+005  0.1043930E+01  0.7957747E-01            NaN
         13   -1    0    0    0    0  0.00000000000E+00  0.00000000000E+00  0.74505805969E-08  0.10566000000E+00  0.10566000000E+00 0.  1.
     999900   -1    0    0    0    0 -0.00000000000E+00 -0.00000000000E+00 -0.74505805969E-08  0.93827000000E+00  0.93827000000E+00 0. -1.
     999902    2    1    2    0    0 -0.23334553558E-01  0.18083012289E-02 -0.49025705799E-02  0.10200175233E+01  0.10197371923E+01 0.  0.
     999903    2    3    3    0    0 -0.20669458559E-01  0.12227957171E+00 -0.37726927483E-01  0.13119928084E+00  0.20258579940E-01 0.  0.
         14    1    1    2    0    0  0.23334553558E-01 -0.18083012289E-02  0.49025705799E-02  0.23912476688E-01  0.00000000000E+00 0.  1.
     999901    1    3    3    0    0 -0.26650949987E-02 -0.12047127048E+00  0.32824356903E-01  0.88881824247E+00  0.88000000000E+00 0.  1.
        -11    1    4    4    0    0 -0.15668300885E-01  0.45557838618E-01 -0.20767091172E-01  0.52464707270E-01  0.51100000000E-03 0.  1.
         11    1    4    4    0    0 -0.50011576738E-02  0.76721733092E-01 -0.16959836311E-01  0.78734573571E-01  0.51100000000E-03 0. -1.
</event>
<event>
 8    1  0.1117714E+005  0.1043930E+01  0.7957747E-01            NaN
         13   -1    0    0    0    0  0.00000000000E+00  0.00000000000E+00  0.74505805969E-08  0.10566000000E+00  0.10566000000E+00 0.  1.
     999900   -1    0    0    0    0 -0.00000000000E+00 -0.00000000000E+00 -0.74505805969E-08  0.93827000000E+00  0.93827000000E+00 0. -1.
     999902    2    1    2    0    0 -0.19732131536E-01  0.12126014261E-02  0.11962398357E-01  0.10208231527E+01  0.10205616016E+01 0.  0.
     999903    2    3    3    0    0  0.11911523928E+00  0.94876552743E-02  0.44974668039E-01  0.12928690620E+00  0.20345208747E-01 0.  0.
         14    1    1    2    0    0  0.19732131536E-01 -0.12126014261E-02 -0.11962398357E-01  0.23106847289E-01  0.00000000000E+00 0.  1.
     999901    1    3    3    0    0 -0.13884737081E+00 -0.82750538482E-02 -0.33012269682E-01  0.89153624651E+00  0.88000000000E+00 0. -1.
        -11    1    4    4    0    0  0.65212703765E-01  0.14448986279E-02  0.34484095466E-01  0.73784811618E-01  0.51100000000E-03 0.  1.
         11    1    4    4    0    0  0.53902535510E-01  0.80427566464E-02  0.10490572572E-01  0.55502094580E-01  0.51100000000E-03 0. -1.
</event>
<event>
 8    1  0.1117714E+005  0.1043930E+01  0.7957747E-01            NaN
         13   -1    0    0    0    0  0.00000000000E+00  0.00000000000E+00  0.74505805969E-08  0.10566000000E+00  0.10566000000E+00 0. -1.
     999900   -1    0    0    0    0 -0.00000000000E+00 -0.00000000000E+00 -0.74505805969E-08  0.93827000000E+00  0.93827000000E+00 0. -1.
     999902    2    1    2    0    0 -0.20186708932E-01  0.59612833430E-02  0.10549202091E-01  0.10203858759E+01  0.10201142141E+01 0.  0.
     999903    2    3    3    0    0  0.18670803495E-01 -0.22956250816E-01 -0.12379635056E+00  0.12887319644E+00  0.20178602399E-01 0.  0.
         14    1    1    2    0    0  0.20186708932E-01 -0.59612833430E-02 -0.10549202091E-01  0.23544124136E-01  0.00000000000E+00 0.  1.
     999901    1    3    3    0    0 -0.38857512427E-01  0.28917534159E-01  0.13434555265E+00  0.89151267942E+00  0.88000000000E+00 0.  1.
        -11    1    4    4    0    0 -0.80590846733E-03 -0.34070373736E-02 -0.49326183736E-01  0.49452916143E-01  0.51100000000E-03 0. -1.
         11    1    4    4    0    0  0.19476711962E-01 -0.19549213443E-01 -0.74470166822E-01  0.79420280298E-01  0.51100000000E-03 0.  1.
</event>
<event>
 8    1  0.1500654E+005  0.1043930E+01  0.7957747E-01            NaN
         13   -1    0    0    0    0  0.00000000000E+00  0.00000000000E+00  0.74505805969E-08  0.10566000000E+00  0.10566000000E+00 0.  1.
     999900   -1    0    0    0    0 -0.00000000000E+00 -0.00000000000E+00 -0.74505805969E-08  0.93827000000E+00  0.93827000000E+00 0.  1.
     999902    2    1    2    0    0 -0.19699609186E-01  0.82902482846E-02 -0.12005953327E-01  0.10194158055E+01  0.10191210128E+01 0.  0.
     999903    2    3    3    0    0  0.50762498657E-01 -0.61163672874E-01  0.97408715513E-01  0.12713763943E+00  0.18912835690E-01 0.  0.
         14    1    1    2    0    0  0.19699609186E-01 -0.82902482846E-02  0.12005953327E-01  0.24514194541E-01  0.00000000000E+00 0. -1.
     999901    1    3    3    0    0 -0.70462107843E-01  0.69453921159E-01 -0.10941466884E+00  0.89227816602E+00  0.88000000000E+00 0.  1.
        -11    1    4    4    0    0  0.29965781348E-01 -0.22745640696E-01  0.51300761016E-01  0.63618719134E-01  0.51100000000E-03 0. -1.
         11    1    4    4    0    0  0.20796717309E-01 -0.38418032178E-01  0.46107954497E-01  0.63518920301E-01  0.51100000000E-03 0.  1.
</event>
<event>
 8    1  0.1117714E+005  0.1043930E+01  0.7957747E-01            NaN
         13   -1    0    0    0    0  0.00000000000E+00  0.00000000000E+00  0.74505805969E-08  0.10566000000E+00  0.10566000000E+00 0. -1.
     999900   -1    0    0    0    0 -0.00000000000E+00 -0.00000000000E+00 -0.74505805969E-08  0.93827000000E+00  0.93827000000E+00 0.  1.
     999902    2    1    2    0    0 -0.46855106148E-02 -0.12510619545E-01 -0.21243447024E-01  0.10188351070E+01  0.10185260044E+01 0.  0.
     999903    2    3    3    0    0  0.11489373337E+00 -0.47275836428E-01  0.24913963971E-01  0.12886975800E+00  0.23476248620E-01 0.  0.
         14    1    1    2    0    0  0.46855106148E-02  0.12510619545E-01  0.21243447024E-01  0.25094892958E-01  0.00000000000E+00 0. -1.
     999901    1    3    3    0    0 -0.11957924399E+00  0.34765216883E-01 -0.46157410995E-01  0.88996534904E+00  0.88000000000E+00 0.  1.
        -11    1    4    4    0    0  0.39659520172E-01 -0.15622424328E-01  0.20031198372E-01  0.47100400331E-01  0.51100000000E-03 0.  1.
         11    1    4    4    0    0  0.75234213200E-01 -0.31653412100E-01  0.48827655989E-02  0.81769357673E-01  0.51100000000E-03 0. -1.
</event>
<event>
 8    1  0.1117714E+005  0.1043930E+01  0.7957747E-01            NaN
         13   -1    0    0    0    0  0.00000000000E+00  0.00000000000E+00  0.74505805969E-08  0.10566000000E+00  0.10566000000E+00 0.  1.
     999900   -1    0    0    0    0 -0.00000000000E+00 -0.00000000000E+00 -0.74505805969E-08  0.93827000000E+00  0.93827000000E+00 0. -1.
     999902    2    1    2    0    0 -0.11285791763E-01 -0.19841806333E-01  0.22514300255E-02  0.10209923604E+01  0.10207346691E+01 0.  0.
     999903    2    3    3    0    0 -0.95529281686E-01 -0.74104100627E-01 -0.53154177795E-01  0.13357411425E+00  0.19985394477E-01 0.  0.
         14    1    1    2    0    0  0.11285791763E-01  0.19841806333E-01 -0.22514300255E-02  0.22937639622E-01  0.00000000000E+00 0. -1.
     999901    1    3    3    0    0  0.84243489923E-01  0.54262294294E-01  0.55405607820E-01  0.88741824612E+00  0.88000000000E+00 0.  1.
        -11    1    4    4    0    0 -0.70014394662E-01 -0.51489351983E-01 -0.47392790445E-01  0.98992456959E-01  0.51100000000E-03 0. -1.
         11    1    4    4    0    0 -0.25514887024E-01 -0.22614748644E-01 -0.57613873500E-02  0.34581657295E-01  0.51100000000E-03 0.  1.
</event>
<event>
 8    1  0.1117714E+005  0.1043930E+01  0.7957747E-01            NaN
         13   -1    0    0    0    0  0.00000000000E+00  0.00000000000E+00  0.74505805969E-08  0.10566000000E+00  0.10566000000E+00 0. -1.
     999900   -1    0    0    0    0 -0.00000000000E+00 -0.00000000000E+00 -0.74505805969E-08  0.93827000000E+00  0.93827000000E+00 0.  1.
     999902    2    1    2    0    0 -0.20365066296E-01  0.13555561863E-01  0.61213005843E-02  0.10187117625E+01  0.10183995756E+01 0.  0.
     999903    2    3    3    0    0  0.11430240714E+00 -0.48499020547E-01 -0.90798100790E-02  0.12617763240E+00  0.20522102586E-01 0.  0.
         14    1    1    2    0    0  0.20365066296E-01 -0.13555561863E-01 -0.61213005843E-02  0.25218237518E-01  0.00000000000E+00 0. -1.
     999901    1    3    3    0    0 -0.13466747344E+00  0.62054582411E-01  0.15201110663E-01  0.89253413008E+00  0.88000000000E+00 0.  1.
        -11    1    4    4    0    0  0.50858919370E-01 -0.12017690321E-01  0.11827143864E-02  0.52275371778E-01  0.51100000000E-03 0.  1.
         11    1    4    4    0    0  0.63443487769E-01 -0.36481330226E-01 -0.10262524465E-01  0.73902260620E-01  0.51100000000E-03 0. -1.
</event>
<event>
 8    1  0.1117714E+005  0.1043930E+01  0.7957747E-01            NaN
         13   -1    0    0    0    0  0.00000000000E+00  0.00000000000E+00  0.74505805969E-08  0.10566000000E+00  0.10566000000E+00 0.  1.
     999900   -1    0    0    0    0 -0.00000000000E+00 -0.00000000000E+00 -0.74505805969E-08  0.93827000000E+00  0.93827000000E+00 0. -1.
     999902    2    1    2    0    0 -0.89133909564E-02  0.56912801499E-02 -0.18894537128E-01  0.10222772232E+01  0.10220478846E+01 0.  0.
     999903    2    3    3    0    0  0.11226051259E+00 -0.57192354553E-01 -0.32484106883E-01  0.13164702904E+00  0.20058288805E-01 0.  0.
         14    1    1    2    0    0  0.89133909564E-02 -0.56912801499E-02  0.18894537128E-01  0.21652776759E-01  0.00000000000E+00 0.  1.
     999901    1    3    3    0    0 -0.12117390354E+00  0.62883634703E-01  0.13589569755E-01  0.89063019420E+00  0.88000000000E+00 0.  1.
        -11    1    4    4    0    0  0.77893658239E-01 -0.30838749460E-01 -0.26826039577E-01  0.87967880403E-01  0.51100000000E-03 0.  1.
         11    1    4    4    0    0  0.34366854348E-01 -0.26353605092E-01 -0.56580673060E-02  0.43679148638E-01  0.51100000000E-03 0. -1.
</event>
<event>
 8    1  0.1117714E+005  0.1043930E+01  0.7957747E-01            NaN
         13   -1    0    0    0    0  0.00000000000E+00  0.00000000000E+00  0.74505805969E-08  0.10566000000E+00  0.10566000000E+00 0.  1.
     999900   -1    0    0    0    0 -0.00000000000E+00 -0.00000000000E+00 -0.74505805969E-08  0.93827000000E+00  0.93827000000E+00 0.  1.
     999902    2    1    2    0    0  0.18846234250E-01  0.16012616685E-01  0.47843254519E-02  0.10187412285E+01  0.10184297798E+01 0.  0.
     999903    2    3    3    0    0  0.59056321791E-01  0.69869239987E-01  0.93021194119E-01  0.13177835895E+00  0.18526561787E-01 0.  0.
         14    1    1    2    0    0 -0.18846234250E-01 -0.16012616685E-01 -0.47843254519E-02  0.25188771477E-01  0.00000000000E+00 0. -1.
     999901    1    3    3    0    0 -0.40210087541E-01 -0.53856623302E-01 -0.88236868667E-01  0.88696286958E+00  0.88000000000E+00 0. -1.
        -11    1    4    4    0    0  0.39349858702E-01  0.40735157117E-01  0.68574766387E-01  0.88941127220E-01  0.51100000000E-03 0. -1.
         11    1    4    4    0    0  0.19706463090E-01  0.29134082870E-01  0.24446427732E-01  0.42837231727E-01  0.51100000000E-03 0.  1.
</event>
<event>
 8    1  0.1117714E+005  0.1043930E+01  0.7957747E-01            NaN
         13   -1    0    0    0    0  0.00000000000E+00  0.00000000000E+00  0.74505805969E-08  0.10566000000E+00  0.10566000000E+00 0.  1.
     999900   -1    0    0    0    0 -0.00000000000E+00 -0.00000000000E+00 -0.74505805969E-08  0.93827000000E+00  0.93827000000E+00 0. -1.
     999902    2    1    2    0    0  0.22906269157E-02 -0.23466533545E-01 -0.30290023619E-02  0.10201581674E+01  0.10198811630E+01 0.  0.
     999903    2    3    3    0    0  0.51256796026E-01 -0.10656838282E+00  0.57056466182E-01  0.13285108046E+00  0.20245737558E-01 0.  0.
         14    1    1    2    0    0 -0.22906269157E-02  0.23466533545E-01  0.30290023619E-02  0.23771832567E-01  0.00000000000E+00 0.  1.
     999901    1    3    3    0    0 -0.48966169110E-01  0.83101849276E-01 -0.60085468544E-01  0.88730708698E+00  0.88000000000E+00 0. -1.
        -11    1    4    4    0    0  0.14202411271E-01 -0.17872190160E-01  0.18072361005E-01  0.29120354056E-01  0.51100000000E-03 0.  1.
         11    1    4    4    0    0  0.37054384755E-01 -0.88696192661E-01  0.38984105177E-01  0.10373072640E+00  0.51100000000E-03 0. -1.
</event>
<event>
 8    1  0.1117714E+005  0.1043930E+01  0.7957747E-01            NaN
         13   -1    0    0    0    0  0.00000000000E+00  0.00000000000E+00  0.74505805969E-08  0.10566000000E+00  0.10566000000E+00 0. -1.
     999900   -1    0    0    0    0 -0.00000000000E+00 -0.00000000000E+00 -0.74505805969E-08  0.93827000000E+00  0.93827000000E+00 0.  1.
     999902    2    1    2    0    0  0.14444633425E-01  0.15127723911E-01 -0.15207277502E-01  0.10180696683E+01  0.10177411718E+01 0.  0.
     999903    2    3    3    0    0 -0.11638371882E+00  0.13042092289E-02 -0.47907268754E-01  0.12768972878E+00  0.21510217766E-01 0.  0.
         14    1    1    2    0    0 -0.14444633425E-01 -0.15127723911E-01  0.15207277502E-01  0.25860331679E-01  0.00000000000E+00 0.  1.
     999901    1    3    3    0    0  0.13082835225E+00  0.13823514682E-01  0.32699991252E-01  0.89037993954E+00  0.88000000000E+00 0. -1.
        -11    1    4    4    0    0 -0.91449562178E-01  0.82588961318E-02 -0.31683556927E-01  0.97135681850E-01  0.51100000000E-03 0.  1.
         11    1    4    4    0    0 -0.24934156642E-01 -0.69546869030E-02 -0.16223711827E-01  0.30554046930E-01  0.51100000000E-03 0. -1.
</event>
<event>
 8    1  0.1117714E+005  0.1043930E+01  0.7957747E-01            NaN
         13   -1    0    0    0    0  0.00000000000E+00  0.00000000000E+00  0.74505805969E-08  0.10566000000E+00  0.10566000000E+00 0.  1.
     999900   -1    0    0    0    0 -0.00000000000E+00 -0.00000000000E+00 -0.74505805969E-08  0.93827000000E+00  0.93827000000E+00 0.  1.
     999902    2    1    2    0    0 -0.11947757027E-01 -0.10592314299E-02 -0.18935829587E-01  0.10215149044E+01  0.10212689476E+01 0.  0.
     999903    2    3    3    0    0 -0.10834758433E-01 -0.75656310791E-01 -0.10777881018E+00  0.13390066486E+00  0.21722034265E-01 0.  0.
         14    1    1    2    0    0  0.11947757027E-01  0.10592314299E-02  0.18935829587E-01  0.22415095613E-01  0.00000000000E+00 0.  1.
     999901    1    3    3    0    0 -0.11129985932E-02  0.74597079361E-01  0.88842980593E-01  0.88761423953E+00  0.88000000000E+00 0.  1.
        -11    1    4    4    0    0  0.56825150617E-02 -0.24731448491E-01 -0.42173811008E-01  0.49222220367E-01  0.51100000000E-03 0. -1.
         11    1    4    4    0    0 -0.16517273495E-01 -0.50924862300E-01 -0.65604999172E-01  0.84678444491E-01  0.51100000000E-03 0.  1.
</event>
<event>
 8    1  0.1117714E+005  0.1043930E+01  0.7957747E-01            NaN
         13   -1    0    0    0    0  0.00000000000E+00  0.00000000000E+00  0.74505805969E-08  0.10566000000E+00  0.10566000000E+00 0.  1.
     999900   -1    0    0    0    0 -0.00000000000E+00 -0.00000000000E+00 -0.74505805969E-08  0.93827000000E+00  0.93827000000E+00 0. -1.
     999902    2    1    2    0    0  0.61684820742E-02 -0.22784551731E-01  0.33424388806E-02  0.10200897427E+01  0.10198111224E+01 0.  0.
     999903    2    3    3    0    0  0.79130933553E-01  0.85796733650E-01  0.51495044073E-01  0.12911719083E+00  0.19917963109E-01 0.  0.
         14    1    1    2    0    0 -0.61684820742E-02  0.22784551731E-01 -0.33424388806E-02  0.23840257263E-01  0.00000000000E+00 0. -1.
     999901    1    3    3    0    0 -0.72962451479E-01 -0.10858128538E+00 -0.48152605192E-01  0.89097255190E+00  0.88000000000E+00 0. -1.
        -11    1    4    4    0    0  0.23059206665E-01  0.19367990737E-01  0.22076991763E-01  0.37343014923E-01  0.51100000000E-03 0.  1.
         11    1    4    4    0    0  0.56071726888E-01  0.66428742913E-01  0.29418052309E-01  0.91774175909E-01  0.51100000000E-03 0. -1.
</event>
<event>
 8    1  0.1117714E+005  0.1043930E+01  0.7957747E-01            NaN
         13   -1    0    0    0    0  0.00000000000E+00  0.00000000000E+00  0.74505805969E-08  0.10566000000E+00  0.10566000000E+00 0.  1.
     999900   -1    0    0    0    0 -0.00000000000E+00 -0.00000000000E+00 -0.74505805969E-08  0.93827000000E+00  0.93827000000E+00 0. -1.
     999902    2    1    2    0    0 -0.16407428082E-01  0.16193510004E-02 -0.16076936195E-01  0.10209018895E+01  0.10206421382E+01 0.  0.
     999903    2    3    3    0    0 -0.56089287075E-01 -0.11522217508E+00  0.21318153478E-01  0.13150603567E+00  0.20425865810E-01 0.  0.
         14    1    1    2    0    0  0.16407428082E-01 -0.16193510004E-02  0.16076936195E-01  0.23028110460E-01  0.00000000000E+00 0.  1.
     999901    1    3    3    0    0  0.39681858993E-01  0.11684152608E+00 -0.37395089673E-01  0.88939585387E+00  0.88000000000E+00 0. -1.
        -11    1    4    4    0    0 -0.30441838305E-01 -0.40351512915E-01  0.61434796201E-02  0.50921052392E-01  0.51100000000E-03 0. -1.
         11    1    4    4    0    0 -0.25647448770E-01 -0.74870662169E-01  0.15174673858E-01  0.80584983277E-01  0.51100000000E-03 0.  1.
</event>
<event>
 8    1  0.1117714E+005  0.1043930E+01  0.7957747E-01            NaN
         13   -1    0    0    0    0  0.00000000000E+00  0.00000000000E+00  0.74505805969E-08  0.10566000000E+00  0.10566000000E+00 0.  1.
     999900   -1    0    0    0    0 -0.00000000000E+00 -0.00000000000E+00 -0.74505805969E-08  0.93827000000E+00  0.93827000000E+00 0.  1.
     999902    2    1    2    0    0  0.20056079694E-02 -0.24936437397E-01 -0.15779271164E-01  0.10143524110E+01  0.10139210916E+01 0.  0.
     999903    2    3    3    0    0  0.24828033331E-01  0.10278625149E+00 -0.61025559777E-01  0.12368907673E+00  0.19834919234E-01 0.  0.
         14    1    1    2    0    0 -0.20056079694E-02  0.24936437397E-01  0.15779271164E-01  0.29577589014E-01  0.00000000000E+00 0. -1.
     999901    1    3    3    0    0 -0.22822425361E-01 -0.12772268889E+00  0.45246288613E-01  0.89066333426E+00  0.88000000000E+00 0. -1.
        -11    1    4    4    0    0  0.12052345495E-01  0.39294194893E-01 -0.13177480607E-01  0.43164799320E-01  0.51100000000E-03 0. -1.
         11    1    4    4    0    0  0.12775687836E-01  0.63492056600E-01 -0.47848079171E-01  0.80524277409E-01  0.51100000000E-03 0.  1.
</event>
<event>
 8    1  0.1117714E+005  0.1043930E+01  0.7957747E-01            NaN
         13   -1    0    0    0    0  0.00000000000E+00  0.00000000000E+00  0.74505805969E-08  0.10566000000E+00  0.10566000000E+00 0.  1.
     999900   -1    0    0    0    0 -0.00000000000E+00 -0.00000000000E+00 -0.74505805969E-08  0.93827000000E+00  0.93827000000E+00 0. -1.
     999902    2    1    2    0    0  0.95714213904E-02  0.45774531380E-02  0.20462422979E-01  0.10208805762E+01  0.10206203383E+01 0.  0.
     999903    2    3    3    0    0 -0.20715429316E-01 -0.21072134809E-01 -0.12320725890E+00  0.12834700696E+00  0.20488086107E-01 0.  0.
         14    1    1    2    0    0 -0.95714213904E-02 -0.45774531380E-02 -0.20462422979E-01  0.23049423828E-01  0.00000000000E+00 0. -1.
     999901    1    3    3    0    0  0.30286850706E-01  0.25649587947E-01  0.14366968188E+00  0.89253356922E+00  0.88000000000E+00 0.  1.
        -11    1    4    4    0    0  0.10544032011E-02 -0.46822164586E-02 -0.49974674203E-01  0.50207211631E-01  0.51100000000E-03 0. -1.
         11    1    4    4    0    0 -0.21769832517E-01 -0.16389918350E-01 -0.73232584694E-01  0.78139795324E-01  0.51100000000E-03 0.  1.
</event>
<event>
 8    1  0.1117714E+005  0.1043930E+01  0.7957747E-01            NaN
         13   -1    0    0    0    0  0.00000000000E+00  0.00000000000E+00  0.74505805969E-08  0.10566000000E+00  0.10566000000E+00 0. -1.
     999900   -1    0    0    0    0 -0.00000000000E+00 -0.00000000000E+00 -0.74505805969E-08  0.93827000000E+00  0.93827000000E+00 0. -1.
     999902    2    1    2    0    0 -0.16811924147E-01 -0.16204989746E-01  0.26156400158E-02  0.10204335309E+01  0.10201629806E+01 0.  0.
     999903    2    3    3    0    0 -0.10346268242E+00 -0.79468462350E-01 -0.20701264028E-01  0.13361094501E+00  0.20089279031E-01 0.  0.
         14    1    1    2    0    0  0.16811924147E-01  0.16204989746E-01 -0.26156400158E-02  0.23496469073E-01  0.00000000000E+00 0.  1.
     999901    1    3    3    0    0  0.86650758277E-01  0.63263472604E-01  0.23316904044E-01  0.88682258592E+00  0.88000000000E+00 0.  1.
        -11    1    4    4    0    0 -0.65132687189E-01 -0.42571585789E-01 -0.42871847723E-02  0.77931046004E-01  0.51100000000E-03 0. -1.
         11    1    4    4    0    0 -0.38329995234E-01 -0.36896876561E-01 -0.16414079256E-01  0.55679899007E-01  0.51100000000E-03 0.  1.
</event>
<event>
 8    1  0.1117714E+005  0.1043930E+01  0.7957747E-01            NaN
         13   -1    0    0    0    0  0.00000000000E+00  0.00000000000E+00  0.74505805969E-08  0.10566000000E+00  0.10566000000E+00 0.  1.
     999900   -1    0    0    0    0 -0.00000000000E+00 -0.00000000000E+00 -0.74505805969E-08  0.93827000000E+00  0.93827000000E+00 0.  1.
     999902    2    1    2    0    0 -0.17368520349E-01 -0.40983241181E-02 -0.12841635786E-01  0.10219443372E+01  0.10217078149E+01 0.  0.
     999903    2    3    3    0    0 -0.11476901155E+00 -0.17064935948E-01 -0.65103076488E-01  0.13493461520E+00  0.22490036916E-01 0.  0.
         14    1    1    2    0    0  0.17368520349E-01  0.40983241181E-02  0.12841635786E-01  0.21985662814E-01  0.00000000000E+00 0.  1.
     999901    1    3    3    0    0  0.97400491202E-01  0.12966611830E-01  0.52261440702E-01  0.88700972198E+00  0.88000000000E+00 0. -1.
        -11    1    4    4    0    0 -0.32685702247E-01 -0.14303371760E-01 -0.14848461000E-01  0.38648149893E-01  0.51100000000E-03 0.  1.
         11    1    4    4    0    0 -0.82083309304E-01 -0.27615641876E-02 -0.50254615488E-01  0.96286465310E-01  0.51100000000E-03 0. -1.
</event>
<event>
 8    1  0.1117714E+005  0.1043930E+01  0.7957747E-01            NaN
         13   -1    0    0    0    0  0.00000000000E+00  0.00000000000E+00  0.74505805969E-08  0.10566000000E+00  0.10566000000E+00 0. -1.
     999900   -1    0    0    0    0 -0.00000000000E+00 -0.00000000000E+00 -0.74505805969E-08  0.93827000000E+00  0.93827000000E+00 0.  1.
     999902    2    1    2    0    0  0.10786225641E-01 -0.32672148888E-02  0.13861512279E-01  0.10260649817E+01  0.10259094442E+01 0.  0.
     999903    2    3    3    0    0  0.65106244689E-01  0.70977345958E-03 -0.11626895323E+00  0.13482964859E+00  0.20524077971E-01 0.  0.
         14    1    1    2    0    0 -0.10786225641E-01  0.32672148888E-02 -0.13861512279E-01  0.17865018314E-01  0.00000000000E+00 0.  1.
     999901    1    3    3    0    0 -0.54320019049E-01 -0.39769883483E-02  0.13013046551E+00  0.89123533310E+00  0.88000000000E+00 0. -1.
        -11    1    4    4    0    0  0.35835395660E-01 -0.95601031980E-02 -0.58816086981E-01  0.69535346149E-01  0.51100000000E-03 0. -1.
         11    1    4    4    0    0  0.29270849030E-01  0.10269876658E-01 -0.57452866253E-01  0.65294302440E-01  0.51100000000E-03 0.  1.
</event>
<event>
 8    1  0.1117714E+005  0.1043930E+01  0.7957747E-01            NaN
         13   -1    0    0    0    0  0.00000000000E+00  0.00000000000E+00  0.74505805969E-08  0.10566000000E+00  0.10566000000E+00 0.  1.
     999900   -1    0    0    0    0 -0.00000000000E+00 -0.00000000000E+00 -0.74505805969E-08  0.93827000000E+00  0.93827000000E+00 0.  1.
     999902    2    1    2    0    0 -0.62752520722E-02  0.43973538178E-03 -0.24816691758E-01  0.10183284308E+01  0.10180065582E+01 0.  0.
     999903    2    3    3    0    0 -0.80809124762E-01  0.30849619302E-01 -0.97265647876E-01  0.13168932132E+00  0.19991434084E-01 0.  0.
         14    1    1    2    0    0  0.62752520722E-02 -0.43973538178E-03  0.24816691758E-01  0.25601569201E-01  0.00000000000E+00 0.  1.
     999901    1    3    3    0    0  0.74533872690E-01 -0.30409883920E-01  0.72448956118E-01  0.88663910948E+00  0.88000000000E+00 0. -1.
        -11    1    4    4    0    0 -0.51180057769E-01  0.29580881548E-01 -0.65083525096E-01  0.87923564682E-01  0.51100000000E-03 0. -1.
         11    1    4    4    0    0 -0.29629066993E-01  0.12687377532E-02 -0.32182122780E-01  0.43765756636E-01  0.51100000000E-03 0.  1.
</event>
<event>
 8    1  0.1117714E+005  0.1043930E+01  0.7957747E-01            NaN
         13   -1    0    0    0    0  0.00000000000E+00  0.00000000000E+00  0.74505805969E-08  0.10566000000E+00  0.10566000000E+00 0. -1.
     999900   -1    0    0    0    0 -0.00000000000E+00 -0.00000000000E+00 -0.74505805969E-08  0.93827000000E+00  0.93827000000E+00 0. -1.
     999902    2    1    2    0    0  0.33424255892E-03 -0.21164138392E-01 -0.84144589868E-02  0.10211520371E+01  0.10208979613E+01 0.  0.
     999903    2    3    3    0    0 -0.75732041637E-02  0.74634440289E-01  0.10283109975E+00  0.12895504671E+00  0.20676457608E-01 0.  0.
         14    1    1    2    0    0 -0.33424255892E-03  0.21164138392E-01  0.84144589868E-02  0.22777962859E-01  0.00000000000E+00 0.  1.
     999901    1    3    3    0    0  0.79074467226E-02 -0.95798578681E-01 -0.11124555873E+00  0.89219699043E+00  0.88000000000E+00 0. -1.
        -11    1    4    4    0    0  0.11277846578E-02  0.41471983693E-01  0.41460403690E-01  0.58655123602E-01  0.51100000000E-03 0.  1.
         11    1    4    4    0    0 -0.87009888215E-02  0.33162456596E-01  0.61370696056E-01  0.70299923111E-01  0.51100000000E-03 0. -1.
</event>
<event>
 8    1  0.1117714E+005  0.1043930E+01  0.7957747E-01            NaN
         13   -1    0    0    0    0  0.00000000000E+00  0.00000000000E+00  0.74505805969E-08  0.10566000000E+00  0.10566000000E+00 0. -1.
     999900   -1    0    0    0    0 -0.00000000000E+00 -0.00000000000E+00 -0.74505805969E-08  0.93827000000E+00  0.93827000000E+00 0. -1.
     999902    2    1    2    0    0 -0.16205150911E-01  0.17043710211E-01  0.38837186207E-02  0.10200935102E+01  0.10198149790E+01 0.  0.
     999903    2    3    3    0    0 -0.98192257990E-01  0.86707783333E-01  0.15261537125E-01  0.13346820969E+00  0.20515585880E-01 0.  0.
         14    1    1    2    0    0  0.16205150911E-01 -0.17043710211E-01 -0.38837186207E-02  0.23836489761E-01  0.00000000000E+00 0.  1.
     999901    1    3    3    0    0  0.81987107079E-01 -0.69664073122E-01 -0.11377818504E-01  0.88662530054E+00  0.88000000000E+00 0. -1.
        -11    1    4    4    0    0 -0.65765013868E-01  0.64733724904E-01  0.26688386502E-02  0.92319423795E-01  0.51100000000E-03 0.  1.
         11    1    4    4    0    0 -0.32427244122E-01  0.21974058429E-01  0.12592698475E-01  0.41148785900E-01  0.51100000000E-03 0. -1.
</event>
<event>
 8    1  0.1117714E+005  0.1043930E+01  0.7957747E-01            NaN
         13   -1    0    0    0    0  0.00000000000E+00  0.00000000000E+00  0.74505805969E-08  0.10566000000E+00  0.10566000000E+00 0.  1.
     999900   -1    0    0    0    0 -0.00000000000E+00 -0.00000000000E+00 -0.74505805969E-08  0.93827000000E+00  0.93827000000E+00 0.  1.
     999902    2    1    2    0    0 -0.23299735540E-01  0.38179989943E-02 -0.83177283234E-03  0.10203048727E+01  0.10200313165E+01 0.  0.
     999903    2    3    3    0    0 -0.61587442096E-02  0.44581977624E-01  0.12111656490E+00  0.13079550650E+00  0.20316480231E-01 0.  0.
         14    1    1    2    0    0  0.23299735540E-01 -0.38179989943E-02  0.83177283234E-03  0.23625127271E-01  0.00000000000E+00 0.  1.
     999901    1    3    3    0    0 -0.17140991330E-01 -0.40763978630E-01 -0.12194833773E+00  0.88950936623E+00  0.88000000000E+00 0. -1.
        -11    1    4    4    0    0 -0.61766937378E-02  0.45753814977E-01  0.10592895791E+00  0.11555417939E+00  0.51100000000E-03 0.  1.
         11    1    4    4    0    0  0.17949528217E-04 -0.11718373526E-02  0.15187606985E-01  0.15241327104E-01  0.51100000000E-03 0. -1.
</event>
<event>
 8    1  0.1117714E+005  0.1043930E+01  0.7957747E-01            NaN
         13   -1    0    0    0    0  0.00000000000E+00  0.00000000000E+00  0.74505805969E-08  0.10566000000E+00  0.10566000000E+00 0.  1.
     999900   -1    0    0    0    0 -0.00000000000E+00 -0.00000000000E+00 -0.74505805969E-08  0.93827000000E+00  0.93827000000E+00 0.  1.
     999902    2    1    2    0    0 -0.20176093657E-01 -0.12047273953E-02  0.12345776520E-01  0.10202457368E+01  0.10199707933E+01 0.  0.
     999903    2    3    3    0    0  0.54330507105E-01 -0.32350625928E-01 -0.10955628429E+00  0.12817992482E+00  0.20715856252E-01 0.  0.
         14    1    1    2    0    0  0.20176093657E-01  0.12047273953E-02 -0.12345776520E-01  0.23684263156E-01  0.00000000000E+00 0. -1.
     999901    1    3    3    0    0 -0.74506600763E-01  0.31145898533E-01  0.12190206081E+00  0.89206581202E+00  0.88000000000E+00 0. -1.
        -11    1    4    4    0    0  0.17009398953E-01 -0.42266867213E-02 -0.16641955333E-01  0.24174373450E-01  0.51100000000E-03 0. -1.
         11    1    4    4    0    0  0.37321108152E-01 -0.28123939207E-01 -0.92914328953E-01  0.10400555137E+00  0.51100000000E-03 0.  1.
</event>
<event>
 8    1  0.1117714E+005  0.1043930E+01  0.7957747E-01            NaN
         13   -1    0    0    0    0  0.00000000000E+00  0.00000000000E+00  0.74505805969E-08  0.10566000000E+00  0.10566000000E+00 0. -1.
     999900   -1    0    0    0    0 -0.00000000000E+00 -0.00000000000E+00 -0.74505805969E-08  0.93827000000E+00  0.93827000000E+00 0. -1.
     999902    2    1    2    0    0  0.11311282682E-01 -0.19304949614E-02 -0.21372324802E-01  0.10196720488E+01  0.10193834602E+01 0.  0.
     999903    2    3    3    0    0 -0.15998527306E-01  0.12482372676E+00 -0.26664250443E-01  0.13015506592E+00  0.19810181584E-01 0.  0.
         14    1    1    2    0    0 -0.11311282682E-01  0.19304949614E-02  0.21372324802E-01  0.24257951153E-01  0.00000000000E+00 0. -1.
     999901    1    3    3    0    0  0.27309809988E-01 -0.12675422172E+00  0.52919256406E-02  0.88951698293E+00  0.88000000000E+00 0. -1.
        -11    1    4    4    0    0 -0.17457391290E-01  0.62006122917E-01 -0.16537457152E-01  0.66507656702E-01  0.51100000000E-03 0.  1.
         11    1    4    4    0    0  0.14588639843E-02  0.62817603841E-01 -0.10126793290E-01  0.63647409215E-01  0.51100000000E-03 0. -1.
</event>
<event>
 8    1  0.1117714E+005  0.1043930E+01  0.7957747E-01            NaN
         13   -1    0    0    0    0  0.00000000000E+00  0.00000000000E+00  0.74505805969E-08  0.10566000000E+00  0.10566000000E+00 0. -1.
     999900   -1    0    0    0    0 -0.00000000000E+00 -0.00000000000E+00 -0.74505805969E-08  0.93827000000E+00  0.93827000000E+00 0.  1.
     999902    2    1    2    0    0 -0.11045206453E-01 -0.14552715070E-01  0.15662995549E-01  0.10198653469E+01  0.10195813936E+01 0.  0.
     999903    2    3    3    0    0 -0.19066727333E-01 -0.62038068063E-01 -0.11039148059E+00  0.12957947451E+00  0.19806545512E-01 0.  0.
         14    1    1    2    0    0  0.11045206453E-01  0.14552715070E-01 -0.15662995549E-01  0.24064653147E-01  0.00000000000E+00 0.  1.
     999901    1    3    3    0    0  0.80215208802E-02  0.47485352993E-01  0.12605447614E+00  0.89028587235E+00  0.88000000000E+00 0. -1.
        -11    1    4    4    0    0 -0.12020790247E-01 -0.52196718677E-01 -0.10072019075E+00  0.11407810826E+00  0.51100000000E-03 0. -1.
         11    1    4    4    0    0 -0.70459370864E-02 -0.98413493864E-02 -0.96712898428E-02  0.15501366243E-01  0.51100000000E-03 0.  1.
</event>
<event>
 8    1  0.1117714E+005  0.1043930E+01  0.7957747E-01            NaN
         13   -1    0    0    0    0  0.00000000000E+00  0.00000000000E+00  0.74505805969E-08  0.10566000000E+00  0.10566000000E+00 0. -1.
     999900   -1    0    0    0    0 -0.00000000000E+00 -0.00000000000E+00 -0.74505805969E-08  0.93827000000E+00  0.93827000000E+00 0.  1.
     999902    2    1    2    0    0  0.10308881308E-01 -0.18636917184E-01 -0.54276621587E-02  0.10219512095E+01  0.10217148366E+01 0.  0.
     999903    2    3    3    0    0 -0.13456128811E-01  0.12717307858E+00 -0.72970990099E-02  0.12963465951E+00  0.19945876080E-01 0.  0.
         14    1    1    2    0    0 -0.10308881308E-01  0.18636917184E-01  0.54276621587E-02  0.21978790514E-01  0.00000000000E+00 0. -1.
     999901    1    3    3    0    0  0.23765010119E-01 -0.14580999577E+00  0.18694368512E-02  0.89231654998E+00  0.88000000000E+00 0. -1.
        -11    1    4    4    0    0 -0.22809886530E-02  0.36108365663E-01  0.67742887516E-02  0.36812621329E-01  0.51100000000E-03 0.  1.
         11    1    4    4    0    0 -0.11175140158E-01  0.91064712921E-01 -0.14071387762E-01  0.92822038178E-01  0.51100000000E-03 0. -1.
</event>
<event>
 8    1  0.1117714E+005  0.1043930E+01  0.7957747E-01            NaN
         13   -1    0    0    0    0  0.00000000000E+00  0.00000000000E+00  0.74505805969E-08  0.10566000000E+00  0.10566000000E+00 0.  1.
     999900   -1    0    0    0    0 -0.00000000000E+00 -0.00000000000E+00 -0.74505805969E-08  0.93827000000E+00  0.93827000000E+00 0.  1.
     999902    2    1    2    0    0 -0.21885367417E-01 -0.67596453344E-02 -0.65446016239E-02  0.10201078691E+01  0.10198296772E+01 0.  0.
     999903    2    3    3    0    0 -0.50315075371E-01  0.64090158428E-01 -0.10162529316E+00  0.13170014685E+00  0.19444105861E-01 0.  0.
         14    1    1    2    0    0  0.21885367417E-01  0.67596453344E-02  0.65446016239E-02  0.23822130939E-01  0.00000000000E+00 0. -1.
     999901    1    3    3    0    0  0.28429707953E-01 -0.70849803763E-01  0.95080691536E-01  0.88840772221E+00  0.88000000000E+00 0.  1.
        -11    1    4    4    0    0 -0.22321618495E-02  0.10894213166E-01 -0.21229586592E-01  0.23971293142E-01  0.51100000000E-03 0. -1.
         11    1    4    4    0    0 -0.48082913521E-01  0.53195945262E-01 -0.80395706568E-01  0.10772885370E+00  0.51100000000E-03 0.  1.
</event>
<event>
 8    1  0.1117714E+005  0.1043930E+01  0.7957747E-01            NaN
         13   -1    0    0    0    0  0.00000000000E+00  0.00000000000E+00  0.74505805969E-08  0.10566000000E+00  0.10566000000E+00 0. -1.
     999900   -1    0    0    0    0 -0.00000000000E+00 -0.00000000000E+00 -0.74505805969E-08  0.93827000000E+00  0.93827000000E+00 0.  1.
     999902    2    1    2    0    0  0.73681134438E-02  0.65092890965E-02 -0.15945118425E-01  0.10251974950E+01  0.10250263397E+01 0.  0.
     999903    2    3    3    0    0  0.11737542607E-01 -0.11769433213E+00  0.58102394842E-01  0.13338548254E+00  0.20641534425E-01 0.  0.
         14    1    1    2    0    0 -0.73681134438E-02 -0.65092890965E-02  0.15945118425E-01  0.18732504954E-01  0.00000000000E+00 0.  1.
     999901    1    3    3    0    0 -0.43694291632E-02  0.12420362122E+00 -0.74047513267E-01  0.89181201251E+00  0.88000000000E+00 0. -1.
        -11    1    4    4    0    0  0.13209944415E-01 -0.57931148330E-01  0.36940900327E-01  0.69967219584E-01  0.51100000000E-03 0. -1.
         11    1    4    4    0    0 -0.14724018083E-02 -0.59763183798E-01  0.21161494514E-01  0.63418262952E-01  0.51100000000E-03 0.  1.
</event>
<event>
 8    1  0.1117714E+005  0.1043930E+01  0.7957747E-01            NaN
         13   -1    0    0    0    0  0.00000000000E+00  0.00000000000E+00  0.74505805969E-08  0.10566000000E+00  0.10566000000E+00 0. -1.
     999900   -1    0    0    0    0 -0.00000000000E+00 -0.00000000000E+00 -0.74505805969E-08  0.93827000000E+00  0.93827000000E+00 0.  1.
     999902    2    1    2    0    0 -0.21779420447E-01 -0.10752402695E-01  0.25058307186E-02  0.10195120454E+01  0.10192195908E+01 0.  0.
     999903    2    3    3    0    0 -0.13083398337E+00 -0.91194541356E-02  0.15322619047E-02  0.13277842585E+00  0.20665596970E-01 0.  0.
         14    1    1    2    0    0  0.21779420447E-01  0.10752402695E-01 -0.25058307186E-02  0.24417954589E-01  0.00000000000E+00 0.  1.
     999901    1    3    3    0    0  0.10905456292E+00 -0.16329485597E-02  0.97356881396E-03  0.88673361956E+00  0.88000000000E+00 0.  1.
        -11    1    4    4    0    0 -0.66929999709E-01 -0.11569411047E-01 -0.68908867447E-02  0.68273139478E-01  0.51100000000E-03 0.  1.
         11    1    4    4    0    0 -0.63903983660E-01  0.24499569110E-02  0.84231486493E-02  0.64505286377E-01  0.51100000000E-03 0. -1.
</event>
<event>
 8    1  0.1117714E+005  0.1043930E+01  0.7957747E-01            NaN
         13   -1    0    0    0    0  0.00000000000E+00  0.00000000000E+00  0.74505805969E-08  0.10566000000E+00  0.10566000000E+00 0.  1.
     999900   -1    0    0    0    0 -0.00000000000E+00 -0.00000000000E+00 -0.74505805969E-08  0.93827000000E+00  0.93827000000E+00 0.  1.
     999902    2    1    2    0    0 -0.19093169972E-01 -0.10318202985E-01 -0.83379410488E-02  0.10206805761E+01  0.10204157499E+01 0.  0.
     999903    2    3    3    0    0 -0.30756134103E-01  0.73398879904E-01  0.10072346093E+00  0.12992866666E+00  0.20072555480E-01 0.  0.
         14    1    1    2    0    0  0.19093169972E-01  0.10318202985E-01  0.83379410488E-02  0.23249423936E-01  0.00000000000E+00 0.  1.
     999901    1    3    3    0    0  0.11662964131E-01 -0.83717082889E-01 -0.10906140198E+00  0.89075190940E+00  0.88000000000E+00 0.  1.
        -11    1    4    4    0    0 -0.67829380531E-02  0.30818393504E-01  0.52610896100E-01  0.61351032071E-01  0.51100000000E-03 0. -1.
         11    1    4    4    0    0 -0.23973196050E-01  0.42580486400E-01  0.48112564828E-01  0.68577634592E-01  0.51100000000E-03 0.  1.
</event>
<event>
 8    1  0.1117714E+005  0.1043930E+01  0.7957747E-01            NaN
         13   -1    0    0    0    0  0.00000000000E+00  0.00000000000E+00  0.74505805969E-08  0.10566000000E+00  0.10566000000E+00 0. -1.
     999900   -1    0    0    0    0 -0.00000000000E+00 -0.00000000000E+00 -0.74505805969E-08  0.93827000000E+00  0.93827000000E+00 0.  1.
     999902    2    1    2    0    0  0.47215844586E-02 -0.19814890002E-01 -0.95772107803E-02  0.10214211975E+01  0.10211731569E+01 0.  0.
     999903    2    3    3    0    0  0.19523480634E-02 -0.69433711716E-01  0.11022921110E+00  0.13191387604E+00  0.20638307214E-01 0.  0.
         14    1    1    2    0    0 -0.47215844586E-02  0.19814890002E-01  0.95772107803E-02  0.22508802543E-01  0.00000000000E+00 0. -1.
     999901    1    3    3    0    0  0.27692363953E-02  0.49618821714E-01 -0.11980642188E+00  0.88950732142E+00  0.88000000000E+00 0.  1.
        -11    1    4    4    0    0  0.10596762433E-01 -0.49095412727E-01  0.80088501717E-01  0.94536131469E-01  0.51100000000E-03 0. -1.
         11    1    4    4    0    0 -0.86444143695E-02 -0.20338298990E-01  0.30140709386E-01  0.37377744566E-01  0.51100000000E-03 0.  1.
</event>
<event>
 8    1  0.1117714E+005  0.1043930E+01  0.7957747E-01            NaN
         13   -1    0    0    0    0  0.00000000000E+00  0.00000000000E+00  0.74505805969E-08  0.10566000000E+00  0.10566000000E+00 0. -1.
     999900   -1    0    0    0    0 -0.00000000000E+00 -0.00000000000E+00 -0.74505805969E-08  0.93827000000E+00  0.93827000000E+00 0. -1.
     999902    2    1    2    0    0  0.14733478098E-01 -0.16526061546E-01  0.73469810651E-02  0.10206026723E+01  0.10203360478E+01 0.  0.
     999903    2    3    3    0    0  0.11877663779E-01  0.39411000546E-01  0.12302452694E+00  0.13126673733E+00  0.20040365295E-01 0.  0.
         14    1    1    2    0    0 -0.14733478098E-01  0.16526061546E-01 -0.73469810651E-02  0.23327327706E-01  0.00000000000E+00 0. -1.
     999901    1    3    3    0    0  0.28558143192E-02 -0.55937062092E-01 -0.11567754587E+00  0.88933593496E+00  0.88000000000E+00 0. -1.
        -11    1    4    4    0    0  0.14480840389E-01  0.18283641016E-01  0.49518967052E-01  0.54739158617E-01  0.51100000000E-03 0. -1.
         11    1    4    4    0    0 -0.26031766102E-02  0.21127359530E-01  0.73505559887E-01  0.76527578718E-01  0.51100000000E-03 0.  1.
</event>
<event>
 8    1  0.1117714E+005  0.1043930E+01  0.7957747E-01            NaN
         13   -1    0    0    0    0  0.00000000000E+00  0.00000000000E+00  0.74505805969E-08  0.10566000000E+00  0.10566000000E+00 0.  1.
     999900   -1    0    0    0    0 -0.00000000000E+00 -0.00000000000E+00 -0.74505805969E-08  0.93827000000E+00  0.93827000000E+00 0.  1.
     999902    2    1    2    0    0 -0.32489851481E-02 -0.23367423260E-01 -0.10848121853E-01  0.10179632112E+01  0.10176319694E+01 0.  0.
     999903    2    3    3    0    0 -0.20932311766E-01 -0.90404890345E-01  0.88361782368E-01  0.12967872570E+00  0.19938942848E-01 0.  0.
         14    1    1    2    0    0  0.32489851481E-02  0.23367423260E-01  0.10848121853E-01  0.25966788828E-01  0.00000000000E+00 0. -1.
     999901    1    3    3    0    0  0.17683326618E-01  0.67037467084E-01 -0.99209904221E-01  0.88828448547E+00  0.88000000000E+00 0.  1.
        -11    1    4    4    0    0 -0.47518910979E-02 -0.60929961982E-01  0.53246808590E-01  0.81058771778E-01  0.51100000000E-03 0. -1.
         11    1    4    4    0    0 -0.16180420668E-01 -0.29474928363E-01  0.35114973778E-01  0.48619953923E-01  0.51100000000E-03 0.  1.
</event>
<event>
 8    1  0.1117714E+005  0.1043930E+01  0.7957747E-01            NaN
         13   -1    0    0    0    0  0.00000000000E+00  0.00000000000E+00  0.74505805969E-08  0.10566000000E+00  0.10566000000E+00 0.  1.
     999900   -1    0    0    0    0 -0.00000000000E+00 -0.00000000000E+00 -0.74505805969E-08  0.93827000000E+00  0.93827000000E+00 0. -1.
     999902    2    1    2    0    0  0.24275228508E-01  0.47722877773E-02 -0.47894060456E-02  0.10187307964E+01  0.10184190865E+01 0.  0.
     999903    2    3    3    0    0 -0.11831328273E+00  0.28202199687E-01  0.27816003234E-01  0.12634996013E+00  0.19929512046E-01 0.  0.
         14    1    1    2    0    0 -0.24275228508E-01 -0.47722877773E-02  0.47894060456E-02  0.25199203559E-01  0.00000000000E+00 0. -1.
     999901    1    3    3    0    0  0.14258851124E+00 -0.23429911909E-01 -0.32605409280E-01  0.89238083632E+00  0.88000000000E+00 0. -1.
        -11    1    4    4    0    0 -0.37167750749E-01  0.18149452629E-01  0.67519262539E-02  0.41912933035E-01  0.51100000000E-03 0.  1.
         11    1    4    4    0    0 -0.81145531980E-01  0.10052747057E-01  0.21064076980E-01  0.84437027090E-01  0.51100000000E-03 0. -1.
</event>
<event>
 8    1  0.1117714E+005  0.1043930E+01  0.7957747E-01            NaN
         13   -1    0    0    0    0  0.00000000000E+00  0.00000000000E+00  0.74505805969E-08  0.10566000000E+00  0.10566000000E+00 0. -1.
     999900   -1    0    0    0    0 -0.00000000000E+00 -0.00000000000E+00 -0.74505805969E-08  0.93827000000E+00  0.93827000000E+00 0. -1.
     999902    2    1    2    0    0 -0.13391639881E-01 -0.15954525594E-02  0.17724432736E-01  0.10216581118E+01  0.10214153222E+01 0.  0.
     999903    2    3    3    0    0  0.75362240901E-01  0.52666034144E-01  0.93620697236E-01  0.13228653409E+00  0.16784327377E-01 0.  0.
         14    1    1    2    0    0  0.13391639881E-01  0.15954525594E-02 -0.17724432736E-01  0.22271888186E-01  0.00000000000E+00 0.  1.
     999901    1    3    3    0    0 -0.88753880781E-01 -0.54261486703E-01 -0.75896264500E-01  0.88937157772E+00  0.88000000000E+00 0. -1.
        -11    1    4    4    0    0  0.53567127741E-01  0.43532123522E-01  0.76882177742E-01  0.10332285966E+00  0.51100000000E-03 0. -1.
         11    1    4    4    0    0  0.21795113160E-01  0.91339106219E-02  0.16738519494E-01  0.28963674435E-01  0.51100000000E-03 0.  1.
</event>
<event>
 7    1  0.1117714E+005  0.1043930E+01  0.7957747E-01            NaN
         13   -1    0    0    0    0  0.00000000000E+00  0.00000000000E+00  0.74505805969E-08  0.10566000000E+00  0.10566000000E+00 0.  1.
     999900   -1    0    0    0    0 -0.00000000000E+00 -0.00000000000E+00 -0.74505805969E-08  0.93827000000E+00  0.93827000000E+00 0.  1.
     999902    2    1    2    0    0 -0.14870972780E-01  0.14798680311E-01 -0.10925201628E-01  0.10202761039E+01  0.10200018732E+01 0.  0.
         14    1    1    2    0    0  0.14870972780E-01 -0.14798680311E-01  0.10925201628E-01  0.23653896106E-01  0.00000000000E+00 0.  1.
     999901    1    3    3    0    0 -0.70579122943E-01 -0.68462865060E-01 -0.82674862964E-01  0.88932767271E+00  0.88000000000E+00 0.  1.
        -11    1    3    3    0    0  0.50057479712E-01  0.42033529131E-01  0.29737428859E-01  0.71813262302E-01  0.51100000000E-03 0.  1.
         11    1    3    3    0    0  0.56506704517E-02  0.41228016240E-01  0.42012232477E-01  0.59135168879E-01  0.51100000000E-03 0. -1.
</event>
<event>
 8    1  0.1117714E+005  0.1043930E+01  0.7957747E-01            NaN
         13   -1    0    0    0    0  0.00000000000E+00  0.00000000000E+00  0.74505805969E-08  0.10566000000E+00  0.10566000000E+00 0. -1.
     999900   -1    0    0    0    0 -0.00000000000E+00 -0.00000000000E+00 -0.74505805969E-08  0.93827000000E+00  0.93827000000E+00 0. -1.
     999902    2    1    2    0    0 -0.56596104557E-02 -0.38620869559E-02  0.87202903434E-02  0.10328398977E+01  0.10327803560E+01 0.  0.
     999903    2    3    3    0    0  0.25974019651E-01 -0.12555451880E-01 -0.13530666022E+00  0.14052827965E+00  0.24657980699E-01 0.  0.
         14    1    1    2    0    0  0.56596104557E-02  0.38620869559E-02 -0.87202903434E-02  0.11090102337E-01  0.00000000000E+00 0.  1.
     999901    1    3    3    0    0 -0.31633630107E-01  0.86933649241E-02  0.14402695057E+00  0.89231161801E+00  0.88000000000E+00 0.  1.
        -11    1    4    4    0    0  0.20342188631E-01  0.37163521304E-02 -0.70611979227E-01  0.73579403659E-01  0.51100000000E-03 0. -1.
         11    1    4    4    0    0  0.56318310200E-02 -0.16271804010E-01 -0.64694680998E-01  0.66948875993E-01  0.51100000000E-03 0.  1.
</event>
<event>
 8    1  0.1117714E+005  0.1043930E+01  0.7957747E-01            NaN
         13   -1    0    0    0    0  0.00000000000E+00  0.00000000000E+00  0.74505805969E-08  0.10566000000E+00  0.10566000000E+00 0.  1.
     999900   -1    0    0    0    0 -0.00000000000E+00 -0.00000000000E+00 -0.74505805969E-08  0.93827000000E+00  0.93827000000E+00 0.  1.
     999902    2    1    2    0    0  0.22956053127E-01  0.31160685726E-02 -0.13626666498E-02  0.10207233820E+01  0.10204595413E+01 0.  0.
     999903    2    3    3    0    0  0.11065919028E+00 -0.71039262505E-01 -0.10596501526E-01  0.13321218934E+00  0.18470742656E-01 0.  0.
         14    1    1    2    0    0 -0.22956053127E-01 -0.31160685726E-02  0.13626666498E-02  0.23206617998E-01  0.00000000000E+00 0.  1.
     999901    1    3    3    0    0 -0.87703137151E-01  0.74155331077E-01  0.92338348764E-02  0.88751119266E+00  0.88000000000E+00 0. -1.
        -11    1    4    4    0    0  0.35896449919E-01 -0.30187514816E-01 -0.10259409227E-01  0.48014141315E-01  0.51100000000E-03 0. -1.
         11    1    4    4    0    0  0.74762740358E-01 -0.40851747688E-01 -0.33709229949E-03  0.85198048025E-01  0.51100000000E-03 0.  1.
</event>
<event>
 8    1  0.1117714E+005  0.1043930E+01  0.7957747E-01            NaN
         13   -1    0    0    0    0  0.00000000000E+00  0.00000000000E+00  0.74505805969E-08  0.10566000000E+00  0.10566000000E+00 0. -1.
     999900   -1    0    0    0    0 -0.00000000000E+00 -0.00000000000E+00 -0.74505805969E-08  0.93827000000E+00  0.93827000000E+00 0.  1.
     999902    2    1    2    0    0 -0.94823059099E-02 -0.75563463713E-02 -0.19914454563E-01  0.10206148119E+01  0.10203484681E+01 0.  0.
     999903    2    3    3    0    0  0.12057722810E+00 -0.15071833309E-01  0.38526029067E-01  0.12910639631E+00  0.20449414620E-01 0.  0.
         14    1    1    2    0    0  0.94823059099E-02  0.75563463713E-02  0.19914454563E-01  0.23315188105E-01  0.00000000000E+00 0. -1.
     999901    1    3    3    0    0 -0.13005953401E+00  0.75154869379E-02 -0.58440483629E-01  0.89150841558E+00  0.88000000000E+00 0.  1.
        -11    1    4    4    0    0  0.10728523913E+00 -0.66929883703E-02  0.34111740960E-01  0.11277761578E+00  0.51100000000E-03 0.  1.
         11    1    4    4    0    0  0.13291988965E-01 -0.83788449389E-02  0.44142881060E-02  0.16328780532E-01  0.51100000000E-03 0. -1.
</event>
<event>
 8    1  0.1117714E+005  0.1043930E+01  0.7957747E-01            NaN
         13   -1    0    0    0    0  0.00000000000E+00  0.00000000000E+00  0.74505805969E-08  0.10566000000E+00  0.10566000000E+00 0. -1.
     999900   -1    0    0    0    0 -0.00000000000E+00 -0.00000000000E+00 -0.74505805969E-08  0.93827000000E+00  0.93827000000E+00 0.  1.
     999902    2    1    2    0    0  0.37332693595E-03 -0.24229879787E-01 -0.20956944469E-02  0.10196067933E+01  0.10193166312E+01 0.  0.
     999903    2    3    3    0    0  0.53841253735E-01  0.11340358681E+00 -0.46597542151E-02  0.12730170832E+00  0.20609646479E-01 0.  0.
         14    1    1    2    0    0 -0.37332693595E-03  0.24229879787E-01  0.20956944469E-02  0.24323206670E-01  0.00000000000E+00 0. -1.
     999901    1    3    3    0    0 -0.53467926799E-01 -0.13763346660E+00  0.25640597682E-02  0.89230508501E+00  0.88000000000E+00 0.  1.
        -11    1    4    4    0    0  0.52026025579E-01  0.93046042223E-01 -0.15061126481E-02  0.10661520908E+00  0.51100000000E-03 0. -1.
         11    1    4    4    0    0  0.18152281562E-02  0.20357544587E-01 -0.31536415670E-02  0.20686499245E-01  0.51100000000E-03 0.  1.
</event>
<event>
 8    1  0.1117714E+005  0.1043930E+01  0.7957747E-01            NaN
         13   -1    0    0    0    0  0.00000000000E+00  0.00000000000E+00  0.74505805969E-08  0.10566000000E+00  0.10566000000E+00 0. -1.
     999900   -1    0    0    0    0 -0.00000000000E+00 -0.00000000000E+00 -0.74505805969E-08  0.93827000000E+00  0.93827000000E+00 0.  1.
     999902    2    1    2    0    0 -0.12185842147E-01 -0.19899640365E-01 -0.63781939315E-02  0.10197396756E+01  0.10194527131E+01 0.  0.
     999903    2    3    3    0    0  0.11914808160E+00 -0.17569466319E-01  0.41026477836E-01  0.12872832208E+00  0.19566745447E-01 0.  0.
         14    1    1    2    0    0  0.12185842147E-01  0.19899640365E-01  0.63781939315E-02  0.24190324374E-01  0.00000000000E+00 0. -1.
     999901    1    3    3    0    0 -0.13133392375E+00 -0.23301740456E-02 -0.47404671767E-01  0.89101135354E+00  0.88000000000E+00 0.  1.
        -11    1    4    4    0    0  0.14172092549E-01  0.64853897269E-03 -0.91170357012E-03  0.14225369394E-01  0.51100000000E-03 0.  1.
         11    1    4    4    0    0  0.10497598905E+00 -0.18218005292E-01  0.41938181406E-01  0.11450295269E+00  0.51100000000E-03 0. -1.
</event>
<event>
 8    1  0.1117714E+005  0.1043930E+01  0.7957747E-01            NaN
         13   -1    0    0    0    0  0.00000000000E+00  0.00000000000E+00  0.74505805969E-08  0.10566000000E+00  0.10566000000E+00 0. -1.
     999900   -1    0    0    0    0 -0.00000000000E+00 -0.00000000000E+00 -0.74505805969E-08  0.93827000000E+00  0.93827000000E+00 0. -1.
     999902    2    1    2    0    0 -0.12334200809E-01 -0.49475115720E-02  0.14550780809E-01  0.10242237674E+01  0.10240341743E+01 0.  0.
     999903    2    3    3    0    0  0.34323793906E-01 -0.42198521055E-01 -0.11873943858E+00  0.13218627451E+00  0.20379374066E-01 0.  0.
         14    1    1    2    0    0  0.12334200809E-01  0.49475115720E-02 -0.14550780809E-01  0.19706232580E-01  0.00000000000E+00 0.  1.
     999901    1    3    3    0    0 -0.46657994714E-01  0.37251009483E-01  0.13329021939E+00  0.89203749291E+00  0.88000000000E+00 0.  1.
        -11    1    4    4    0    0  0.85149582095E-02 -0.26544462494E-01 -0.55434947494E-01  0.62051652090E-01  0.51100000000E-03 0. -1.
         11    1    4    4    0    0  0.25808835696E-01 -0.15654058561E-01 -0.63304491082E-01  0.70134622417E-01  0.51100000000E-03 0.  1.
</event>
<event>
 8    1  0.1117714E+005  0.1043930E+01  0.7957747E-01            NaN
         13   -1    0    0    0    0  0.00000000000E+00  0.00000000000E+00  0.74505805969E-08  0.10566000000E+00  0.10566000000E+00 0.  1.
     999900   -1    0    0    0    0 -0.00000000000E+00 -0.00000000000E+00 -0.74505805969E-08  0.93827000000E+00  0.93827000000E+00 0. -1.
     999902    2    1    2    0    0 -0.15203565968E-01 -0.31412652399E-02 -0.18253239401E-01  0.10199675979E+01  0.10196860811E+01 0.  0.
     999903    2    3    3    0    0  0.37174486072E-01 -0.11695513873E+00  0.35362400580E-01  0.12947801628E+00  0.21298132225E-01 0.  0.
         14    1    1    2    0    0  0.15203565968E-01  0.31412652399E-02  0.18253239401E-01  0.23962402093E-01  0.00000000000E+00 0.  1.
     999901    1    3    3    0    0 -0.52378052039E-01  0.11381387349E+00 -0.53615639981E-01  0.89048958163E+00  0.88000000000E+00 0.  1.
        -11    1    4    4    0    0  0.13121675657E-01 -0.73705844977E-01  0.17700446057E-01  0.76930467745E-01  0.51100000000E-03 0. -1.
         11    1    4    4    0    0  0.24052810414E-01 -0.43249293748E-01  0.17661954524E-01  0.52547548536E-01  0.51100000000E-03 0.  1.
</event>
<event>
 8    1  0.1117714E+005  0.1043930E+01  0.7957747E-01            NaN
         13   -1    0    0    0    0  0.00000000000E+00  0.00000000000E+00  0.74505805969E-08  0.10566000000E+00  0.10566000000E+00 0.  1.
     999900   -1    0    0    0    0 -0.00000000000E+00 -0.00000000000E+00 -0.74505805969E-08  0.93827000000E+00  0.93827000000E+00 0.  1.
     999902    2    1    2    0    0 -0.97325072926E-02 -0.18122635968E-01 -0.11900807527E-01  0.10201648816E+01  0.10198880354E+01 0.  0.
     999903    2    3    3    0    0 -0.61354679835E-01 -0.33677004296E-01  0.10847766680E+00  0.13033469322E+00  0.17921794168E-01 0.  0.
         14    1    1    2    0    0  0.97325072926E-02  0.18122635968E-01  0.11900807527E-01  0.23765118397E-01  0.00000000000E+00 0. -1.
     999901    1    3    3    0    0  0.51622172543E-01  0.15554368328E-01 -0.12037847433E+00  0.88983018838E+00  0.88000000000E+00 0.  1.
        -11    1    4    4    0    0 -0.42749835296E-02 -0.89324365639E-02  0.17600822450E-01  0.20201831082E-01  0.51100000000E-03 0. -1.
         11    1    4    4    0    0 -0.57079696306E-01 -0.24744567732E-01  0.90876844353E-01  0.11013286214E+00  0.51100000000E-03 0.  1.
</event>
<event>
 8    1  0.1117714E+005  0.1043930E+01  0.7957747E-01            NaN
         13   -1    0    0    0    0  0.00000000000E+00  0.00000000000E+00  0.74505805969E-08  0.10566000000E+00  0.10566000000E+00 0.  1.
     999900   -1    0    0    0    0 -0.00000000000E+00 -0.00000000000E+00 -0.74505805969E-08  0.93827000000E+00  0.93827000000E+00 0. -1.
     999902    2    1    2    0    0 -0.22620942036E-01 -0.43170524459E-02  0.40958183208E-02  0.10205394103E+01  0.10202713209E+01 0.  0.
     999903    2    3    3    0    0 -0.86326199978E-01  0.93253504515E-01 -0.30427505934E-01  0.13218687135E+00  0.19977660864E-01 0.  0.
         14    1    1    2    0    0  0.22620942036E-01  0.43170524459E-02 -0.40958183208E-02  0.23390589735E-01  0.00000000000E+00 0.  1.
     999901    1    3    3    0    0  0.63705257941E-01 -0.97570556961E-01  0.34523324254E-01  0.88835253891E+00  0.88000000000E+00 0. -1.
        -11    1    4    4    0    0 -0.12561929767E-01  0.17008379728E-01  0.20211656343E-02  0.21246959593E-01  0.51100000000E-03 0.  1.
         11    1    4    4    0    0 -0.73764270211E-01  0.76245124787E-01 -0.32448671568E-01  0.11093991176E+00  0.51100000000E-03 0. -1.
</event>
<event>
 8    1  0.1117714E+005  0.1043930E+01  0.7957747E-01            NaN
         13   -1    0    0    0    0  0.00000000000E+00  0.00000000000E+00  0.74505805969E-08  0.10566000000E+00  0.10566000000E+00 0.  1.
     999900   -1    0    0    0    0 -0.00000000000E+00 -0.00000000000E+00 -0.74505805969E-08  0.93827000000E+00  0.93827000000E+00 0. -1.
     999902    2    1    2    0    0 -0.54081331776E-02  0.29285518629E-03  0.21767636967E-01  0.10214986896E+01  0.10212523729E+01 0.  0.
     999903    2    3    3    0    0 -0.11677951932E+00  0.17522261651E-01  0.59254034330E-01  0.13352027311E+00  0.19290851789E-01 0.  0.
         14    1    1    2    0    0  0.54081331776E-02 -0.29285518629E-03 -0.21767636967E-01  0.22431310434E-01  0.00000000000E+00 0. -1.
     999901    1    3    3    0    0  0.11137138614E+00 -0.17229406465E-01 -0.37486397363E-01  0.88797841645E+00  0.88000000000E+00 0.  1.
        -11    1    4    4    0    0 -0.84045830562E-01  0.12961925724E-01  0.32662390489E-01  0.91097782776E-01  0.51100000000E-03 0.  1.
         11    1    4    4    0    0 -0.32733688756E-01  0.45603359271E-02  0.26591643841E-01  0.42422490338E-01  0.51100000000E-03 0. -1.
</event>
<event>
 8    1  0.1117714E+005  0.1043930E+01  0.7957747E-01            NaN
         13   -1    0    0    0    0  0.00000000000E+00  0.00000000000E+00  0.74505805969E-08  0.10566000000E+00  0.10566000000E+00 0.  1.
     999900   -1    0    0    0    0 -0.00000000000E+00 -0.00000000000E+00 -0.74505805969E-08  0.93827000000E+00  0.93827000000E+00 0.  1.
     999902    2    1    2    0    0  0.20781383752E-02  0.12875375443E-01  0.19589246326E-01  0.10203963534E+01  0.10201249362E+01 0.  0.
     999903    2    3    3    0    0  0.99768415548E-01 -0.16174042031E-01  0.83028975884E-01  0.13224554512E+00  0.19486841510E-01 0.  0.
         14    1    1    2    0    0 -0.20781383752E-02 -0.12875375443E-01 -0.19589246326E-01  0.23533646627E-01  0.00000000000E+00 0. -1.
     999901    1    3    3    0    0 -0.97690277172E-01  0.29049417475E-01 -0.63439729557E-01  0.88815080825E+00  0.88000000000E+00 0. -1.
        -11    1    4    4    0    0  0.77662895564E-01 -0.43917090168E-02  0.65125775380E-01  0.10145166433E+00  0.51100000000E-03 0.  1.
         11    1    4    4    0    0  0.22105519983E-01 -0.11782333015E-01  0.17903200504E-01  0.30793880793E-01  0.51100000000E-03 0. -1.
</event>
<event>
 7    1  0.1117714E+005  0.1043930E+01  0.7957747E-01            NaN
         13   -1    0    0    0    0  0.00000000000E+00  0.00000000000E+00  0.74505805969E-08  0.10566000000E+00  0.10566000000E+00 0. -1.
     999900   -1    0    0    0    0 -0.00000000000E+00 -0.00000000000E+00 -0.74505805969E-08  0.93827000000E+00  0.93827000000E+00 0.  1.
     999903    2    1    2    0    0  0.55003862035E-01 -0.49741840235E-01  0.71371682322E-01  0.10478106859E+00  0.19633639236E-01 0.  0.
         14    1    1    2    0    0 -0.44306387475E-03  0.31148686685E-03 -0.55937123565E-01  0.55939745462E-01  0.00000000000E+00 0.  1.
     999901    1    1    2    0    0 -0.54560798160E-01  0.49430353368E-01 -0.15434558757E-01  0.88320918594E+00  0.88000000000E+00 0.  1.
        -11    1    3    3    0    0  0.34366542065E-01 -0.28237443225E-01  0.29473467571E-01  0.53360648657E-01  0.51100000000E-03 0. -1.
         11    1    3    3    0    0  0.20637319970E-01 -0.21504397010E-01  0.41898214751E-01  0.51420419938E-01  0.51100000000E-03 0.  1.
</event>
<event>
 8    1  0.1117714E+005  0.1043930E+01  0.7957747E-01            NaN
         13   -1    0    0    0    0  0.00000000000E+00  0.00000000000E+00  0.74505805969E-08  0.10566000000E+00  0.10566000000E+00 0.  1.
     999900   -1    0    0    0    0 -0.00000000000E+00 -0.00000000000E+00 -0.74505805969E-08  0.93827000000E+00  0.93827000000E+00 0. -1.
     999902    2    1    2    0    0 -0.22126461626E-02  0.21527130666E-01 -0.93232106645E-02  0.10203665661E+01  0.10200944534E+01 0.  0.
     999903    2    3    3    0    0 -0.42992795721E-01  0.43715246350E-01 -0.11572400332E+00  0.13274251186E+00  0.21659322775E-01 0.  0.
         14    1    1    2    0    0  0.22126461626E-02 -0.21527130666E-01  0.93232106645E-02  0.23563433851E-01  0.00000000000E+00 0.  1.
     999901    1    3    3    0    0  0.40780149558E-01 -0.22188115684E-01  0.10640079266E+00  0.88762405429E+00  0.88000000000E+00 0.  1.
        -11    1    4    4    0    0 -0.83050591128E-02  0.67561655183E-02 -0.70530866603E-02  0.12830702702E-01  0.51100000000E-03 0.  1.
         11    1    4    4    0    0 -0.34687736608E-01  0.36959080832E-01 -0.10867091666E+00  0.11991180916E+00  0.51100000000E-03 0. -1.
</event>
<event>
 8    1  0.1117714E+005  0.1043930E+01  0.7957747E-01            NaN
         13   -1    0    0    0    0  0.00000000000E+00  0.00000000000E+00  0.74505805969E-08  0.10566000000E+00  0.10566000000E+00 0. -1.
     999900   -1    0    0    0    0 -0.00000000000E+00 -0.00000000000E+00 -0.74505805969E-08  0.93827000000E+00  0.93827000000E+00 0.  1.
     999902    2    1    2    0    0 -0.20723259721E-02 -0.23376487487E-01  0.48755072646E-02  0.10199607432E+01  0.10196790634E+01 0.  0.
     999903    2    3    3    0    0 -0.63460849538E-01  0.80461258715E-01  0.75419535145E-01  0.12893476810E+00  0.20851248562E-01 0.  0.
         14    1    1    2    0    0  0.20723259721E-02  0.23376487487E-01 -0.48755072646E-02  0.23969256836E-01  0.00000000000E+00 0. -1.
     999901    1    3    3    0    0  0.61388523566E-01 -0.10383774620E+00 -0.70544027881E-01  0.89102597506E+00  0.88000000000E+00 0. -1.
        -11    1    4    4    0    0 -0.47800965630E-01  0.68524003892E-01  0.52334181825E-01  0.98588027330E-01  0.51100000000E-03 0. -1.
         11    1    4    4    0    0 -0.15659883908E-01  0.11937254823E-01  0.23085353320E-01  0.30346740774E-01  0.51100000000E-03 0.  1.
</event>
<event>
 8    1  0.1117714E+005  0.1043930E+01  0.7957747E-01            NaN
         13   -1    0    0    0    0  0.00000000000E+00  0.00000000000E+00  0.74505805969E-08  0.10566000000E+00  0.10566000000E+00 0. -1.
     999900   -1    0    0    0    0 -0.00000000000E+00 -0.00000000000E+00 -0.74505805969E-08  0.93827000000E+00  0.93827000000E+00 0.  1.
     999902    2    1    2    0    0  0.58449586297E-02 -0.14938640327E-01  0.18035238871E-01  0.10197929671E+01  0.10195072827E+01 0.  0.
     999903    2    3    3    0    0 -0.36766926096E-01  0.12074165958E+00  0.12621124222E-01  0.12835916185E+00  0.19657732339E-01 0.  0.
         14    1    1    2    0    0 -0.58449586297E-02  0.14938640327E-01 -0.18035238871E-01  0.24137032903E-01  0.00000000000E+00 0.  1.
     999901    1    3    3    0    0  0.42611884726E-01 -0.13568029991E+00  0.54141146488E-02  0.89143380525E+00  0.88000000000E+00 0.  1.
        -11    1    4    4    0    0 -0.16501398302E-01  0.69704575733E-01 -0.15304685992E-02  0.71649336906E-01  0.51100000000E-03 0. -1.
         11    1    4    4    0    0 -0.20265527794E-01  0.51037083849E-01  0.14151592821E-01  0.56709824942E-01  0.51100000000E-03 0.  1.
</event>
<event>
 8    1  0.1117714E+005  0.1043930E+01  0.7957747E-01            NaN
         13   -1    0    0    0    0  0.00000000000E+00  0.00000000000E+00  0.74505805969E-08  0.10566000000E+00  0.10566000000E+00 0.  1.
     999900   -1    0    0    0    0 -0.00000000000E+00 -0.00000000000E+00 -0.74505805969E-08  0.93827000000E+00  0.93827000000E+00 0. -1.
     999902    2    1    2    0    0  0.55438378871E-03  0.22940435269E-01  0.49814657660E-02  0.10204483920E+01  0.10201781878E+01 0.  0.
     999903    2    3    3    0    0  0.11502194937E+00 -0.96779842577E-02 -0.57091863796E-01  0.13026870056E+00  0.19665737155E-01 0.  0.
         14    1    1    2    0    0 -0.55438378871E-03 -0.22940435269E-01 -0.49814657660E-02  0.23481607971E-01  0.00000000000E+00 0.  1.
     999901    1    3    3    0    0 -0.11446756558E+00  0.32618419527E-01  0.62073329562E-01  0.89017969147E+00  0.88000000000E+00 0.  1.
        -11    1    4    4    0    0  0.49248999997E-01 -0.13894840052E-01 -0.25687292766E-01  0.57259311133E-01  0.51100000000E-03 0.  1.
         11    1    4    4    0    0  0.65772949373E-01  0.42168557940E-02 -0.31404571030E-01  0.73009389427E-01  0.51100000000E-03 0. -1.
</event>
<event>
 8    1  0.1117714E+005  0.1043930E+01  0.7957747E-01            NaN
         13   -1    0    0    0    0  0.00000000000E+00  0.00000000000E+00  0.74505805969E-08  0.10566000000E+00  0.10566000000E+00 0. -1.
     999900   -1    0    0    0    0 -0.00000000000E+00 -0.00000000000E+00 -0.74505805969E-08  0.93827000000E+00  0.93827000000E+00 0.  1.
     999902    2    1    2    0    0 -0.16589337541E-01 -0.12775740941E-01  0.16067366146E-01  0.10175370856E+01  0.10171947378E+01 0.  0.
     999903    2    3    3    0    0  0.25642660052E-01 -0.12467668031E+00  0.14667492805E-01  0.12944513004E+00  0.18414280291E-01 0.  0.
         14    1    1    2    0    0  0.16589337541E-01  0.12775740941E-01 -0.16067366146E-01  0.26392914419E-01  0.00000000000E+00 0.  1.
     999901    1    3    3    0    0 -0.42231997593E-01  0.11190093937E+00  0.13998733408E-02  0.88809195554E+00  0.88000000000E+00 0.  1.
        -11    1    4    4    0    0  0.18262677390E-01 -0.95410117270E-01  0.18893152633E-01  0.98963772161E-01  0.51100000000E-03 0. -1.
         11    1    4    4    0    0  0.73799826620E-02 -0.29266563039E-01 -0.42256598275E-02  0.30481357879E-01  0.51100000000E-03 0.  1.
</event>
<event>
 8    1  0.1117714E+005  0.1043930E+01  0.7957747E-01            NaN
         13   -1    0    0    0    0  0.00000000000E+00  0.00000000000E+00  0.74505805969E-08  0.10566000000E+00  0.10566000000E+00 0.  1.
     999900   -1    0    0    0    0 -0.00000000000E+00 -0.00000000000E+00 -0.74505805969E-08  0.93827000000E+00  0.93827000000E+00 0.  1.
     999902    2    1    2    0    0 -0.16292020434E-01  0.45677595697E-02 -0.23774169573E-01  0.10147494329E+01  0.10143297817E+01 0.  0.
     999903    2    3    3    0    0 -0.14369207691E-01  0.55447246190E-01  0.10759631258E+00  0.12354203675E+00  0.20119570713E-01 0.  0.
         14    1    1    2    0    0  0.16292020434E-01 -0.45677595697E-02  0.23774169573E-01  0.29180567099E-01  0.00000000000E+00 0.  1.
     999901    1    3    3    0    0 -0.19228127431E-02 -0.50879486620E-01 -0.13137048215E+00  0.89120739615E+00  0.88000000000E+00 0.  1.
        -11    1    4    4    0    0 -0.12224977334E-01  0.54202346863E-01  0.90049865558E-01  0.10581391158E+00  0.51100000000E-03 0.  1.
         11    1    4    4    0    0 -0.21442303571E-02  0.12448993268E-02  0.17546447018E-01  0.17728125172E-01  0.51100000000E-03 0. -1.
</event>
<event>
 8    1  0.1117714E+005  0.1043930E+01  0.7957747E-01            NaN
         13   -1    0    0    0    0  0.00000000000E+00  0.00000000000E+00  0.74505805969E-08  0.10566000000E+00  0.10566000000E+00 0.  1.
     999900   -1    0    0    0    0 -0.00000000000E+00 -0.00000000000E+00 -0.74505805969E-08  0.93827000000E+00  0.93827000000E+00 0. -1.
     999902    2    1    2    0    0  0.12811781955E-01  0.86977765157E-02 -0.16941498507E-01  0.10209777137E+01  0.10207196895E+01 0.  0.
     999903    2    3    3    0    0 -0.64393404028E-01  0.10599369239E+00  0.35611728737E-01  0.13070304955E+00  0.20830713594E-01 0.  0.
         14    1    1    2    0    0 -0.12811781955E-01 -0.86977765157E-02  0.16941498507E-01  0.22952286266E-01  0.00000000000E+00 0.  1.
     999901    1    3    3    0    0  0.77205185983E-01 -0.97295915879E-01 -0.52553227244E-01  0.89027466418E+00  0.88000000000E+00 0. -1.
        -11    1    4    4    0    0 -0.28157535286E-01  0.31285250750E-01  0.18217506634E-01  0.45866680464E-01  0.51100000000E-03 0. -1.
         11    1    4    4    0    0 -0.36235868742E-01  0.74708441644E-01  0.17394222103E-01  0.84836369088E-01  0.51100000000E-03 0.  1.
</event>
<event>
 8    1  0.1117714E+005  0.1043930E+01  0.7957747E-01            NaN
         13   -1    0    0    0    0  0.00000000000E+00  0.00000000000E+00  0.74505805969E-08  0.10566000000E+00  0.10566000000E+00 0.  1.
     999900   -1    0    0    0    0 -0.00000000000E+00 -0.00000000000E+00 -0.74505805969E-08  0.93827000000E+00  0.93827000000E+00 0. -1.
     999902    2    1    2    0    0  0.24438993722E-01 -0.14797180668E-01  0.21964916180E-02  0.10152761077E+01  0.10148716812E+01 0.  0.
     999903    2    3    3    0    0  0.97348386400E-01  0.28795222161E-02  0.81487143998E-01  0.12853192082E+00  0.19882154067E-01 0.  0.
         14    1    1    2    0    0 -0.24438993722E-01  0.14797180668E-01 -0.21964916180E-02  0.28653892324E-01  0.00000000000E+00 0. -1.
     999901    1    3    3    0    0 -0.72909392677E-01 -0.17676702884E-01 -0.79290652380E-01  0.88674418685E+00  0.88000000000E+00 0. -1.
        -11    1    4    4    0    0  0.58821823940E-01  0.27704009726E-02  0.36428666388E-01  0.69245873155E-01  0.51100000000E-03 0. -1.
         11    1    4    4    0    0  0.38526562459E-01  0.10912124355E-03  0.45058477610E-01  0.59286047667E-01  0.51100000000E-03 0.  1.
</event>
<event>
 8    1  0.1117714E+005  0.1043930E+01  0.7957747E-01            NaN
         13   -1    0    0    0    0  0.00000000000E+00  0.00000000000E+00  0.74505805969E-08  0.10566000000E+00  0.10566000000E+00 0. -1.
     999900   -1    0    0    0    0 -0.00000000000E+00 -0.00000000000E+00 -0.74505805969E-08  0.93827000000E+00  0.93827000000E+00 0.  1.
     999902    2    1    2    0    0 -0.14960084214E-01  0.17662568152E-01  0.85956380010E-03  0.10207673300E+01  0.10205044991E+01 0.  0.
     999903    2    3    3    0    0  0.75054610218E-02 -0.93950008930E-01 -0.86047526970E-01  0.12918732205E+00  0.20056199963E-01 0.  0.
         14    1    1    2    0    0  0.14960084214E-01 -0.17662568152E-01 -0.85956380010E-03  0.23162670040E-01  0.00000000000E+00 0. -1.
     999901    1    3    3    0    0 -0.22465545236E-01  0.11161257708E+00  0.86907090770E-01  0.89158000791E+00  0.88000000000E+00 0. -1.
        -11    1    4    4    0    0 -0.58547253272E-03 -0.67473114809E-01 -0.69792933448E-01  0.97078724138E-01  0.51100000000E-03 0. -1.
         11    1    4    4    0    0  0.80909335546E-02 -0.26476894121E-01 -0.16254593522E-01  0.32108597908E-01  0.51100000000E-03 0.  1.
</event>
<event>
 8    1  0.1117714E+005  0.1043930E+01  0.7957747E-01            NaN
         13   -1    0    0    0    0  0.00000000000E+00  0.00000000000E+00  0.74505805969E-08  0.10566000000E+00  0.10566000000E+00 0. -1.
     999900   -1    0    0    0    0 -0.00000000000E+00 -0.00000000000E+00 -0.74505805969E-08  0.93827000000E+00  0.93827000000E+00 0.  1.
     999902    2    1    2    0    0  0.18781820592E-01  0.13142443822E-01 -0.49929769547E-02  0.10204691724E+01  0.10201994517E+01 0.  0.
     999903    2    3    3    0    0  0.11491758104E+00 -0.55451823892E-01  0.26826025893E-01  0.13200999664E+00  0.20640938489E-01 0.  0.
         14    1    1    2    0    0 -0.18781820592E-01 -0.13142443822E-01  0.49929769547E-02  0.23460827633E-01  0.00000000000E+00 0.  1.
     999901    1    3    3    0    0 -0.96135760446E-01  0.68594267714E-01 -0.31819002848E-01  0.88845917573E+00  0.88000000000E+00 0.  1.
        -11    1    4    4    0    0  0.59925267797E-01 -0.37624612718E-01  0.21497126657E-01  0.73952936238E-01  0.51100000000E-03 0. -1.
         11    1    4    4    0    0  0.54992313241E-01 -0.17827211175E-01  0.53288992359E-02  0.58057060397E-01  0.51100000000E-03 0.  1.
</event>
<event>
 8    1  0.1117714E+005  0.1043930E+01  0.7957747E-01            NaN
         13   -1    0    0    0    0  0.00000000000E+00  0.00000000000E+00  0.74505805969E-08  0.10566000000E+00  0.10566000000E+00 0.  1.
     999900   -1    0    0    0    0 -0.00000000000E+00 -0.00000000000E+00 -0.74505805969E-08  0.93827000000E+00  0.93827000000E+00 0. -1.
     999902    2    1    2    0    0 -0.13009999112E-01 -0.13837503359E-01  0.13336493032E-01  0.10207222724E+01  0.10204584061E+01 0.  0.
     999903    2    3    3    0    0  0.35213083508E-01 -0.71311951896E-01  0.10412912502E+00  0.13287539369E+00  0.22082568637E-01 0.  0.
         14    1    1    2    0    0  0.13009999112E-01  0.13837503359E-01 -0.13336493032E-01  0.23207727646E-01  0.00000000000E+00 0. -1.
     999901    1    3    3    0    0 -0.48223082620E-01  0.57474448537E-01 -0.90792631986E-01  0.88784687866E+00  0.88000000000E+00 0.  1.
        -11    1    4    4    0    0  0.60118897648E-02 -0.94819127047E-02  0.46545463327E-02  0.12164514361E-01  0.51100000000E-03 0.  1.
         11    1    4    4    0    0  0.29201193743E-01 -0.61830039191E-01  0.99474578685E-01  0.12071087933E+00  0.51100000000E-03 0. -1.
</event>
<event>
 8    1  0.1117714E+005  0.1043930E+01  0.7957747E-01            NaN
         13   -1    0    0    0    0  0.00000000000E+00  0.00000000000E+00  0.74505805969E-08  0.10566000000E+00  0.10566000000E+00 0.  1.
     999900   -1    0    0    0    0 -0.00000000000E+00 -0.00000000000E+00 -0.74505805969E-08  0.93827000000E+00  0.93827000000E+00 0. -1.
     999902    2    1    2    0    0  0.39692376843E-02  0.15859227445E-01 -0.20460259947E-01  0.10177404567E+01  0.10174034327E+01 0.  0.
     999903    2    3    3    0    0  0.87925121101E-02  0.10968019499E+00  0.63468971421E-01  0.12876927952E+00  0.21122584395E-01 0.  0.
         14    1    1    2    0    0 -0.39692376843E-02 -0.15859227445E-01  0.20460259947E-01  0.26189543334E-01  0.00000000000E+00 0.  1.
     999901    1    3    3    0    0 -0.48232744259E-02 -0.93820967544E-01 -0.83929231367E-01  0.88897117715E+00  0.88000000000E+00 0. -1.
        -11    1    4    4    0    0  0.63090239335E-02  0.20531588324E-01  0.20796042878E-01  0.29901277941E-01  0.51100000000E-03 0.  1.
         11    1    4    4    0    0  0.24834881766E-02  0.89148606666E-01  0.42672928543E-01  0.98868001574E-01  0.51100000000E-03 0. -1.
</event>
<event>
 8    1  0.1117714E+005  0.1043930E+01  0.7957747E-01            NaN
         13   -1    0    0    0    0  0.00000000000E+00  0.00000000000E+00  0.74505805969E-08  0.10566000000E+00  0.10566000000E+00 0.  1.
     999900   -1    0    0    0    0 -0.00000000000E+00 -0.00000000000E+00 -0.74505805969E-08  0.93827000000E+00  0.93827000000E+00 0. -1.
     999902    2    1    2    0    0 -0.42263623722E-02  0.23150712514E-01 -0.96681099886E-03  0.10203768186E+01  0.10201049454E+01 0.  0.
     999903    2    3    3    0    0  0.21630979204E-01  0.10806617112E+00  0.71524340857E-01  0.13294557943E+00  0.20312536820E-01 0.  0.
         14    1    1    2    0    0  0.42263623722E-02 -0.23150712514E-01  0.96681099886E-03  0.23553181363E-01  0.00000000000E+00 0. -1.
     999901    1    3    3    0    0 -0.25857341576E-01 -0.84915458609E-01 -0.72491151856E-01  0.88743123921E+00  0.88000000000E+00 0.  1.
        -11    1    4    4    0    0  0.26566859522E-02  0.52749676323E-01  0.26225626310E-01  0.58971441637E-01  0.51100000000E-03 0. -1.
         11    1    4    4    0    0  0.18974293251E-01  0.55316494801E-01  0.45298714548E-01  0.73974137792E-01  0.51100000000E-03 0.  1.
</event>
<event>
 8    1  0.1117714E+005  0.1043930E+01  0.7957747E-01            NaN
         13   -1    0    0    0    0  0.00000000000E+00  0.00000000000E+00  0.74505805969E-08  0.10566000000E+00  0.10566000000E+00 0.  1.
     999900   -1    0    0    0    0 -0.00000000000E+00 -0.00000000000E+00 -0.74505805969E-08  0.93827000000E+00  0.93827000000E+00 0.  1.
     999902    2    1    2    0    0 -0.17106078444E-01  0.15376111100E-01 -0.38136130832E-02  0.10206150615E+01  0.10203487234E+01 0.  0.
     999903    2    3    3    0    0  0.80100661299E-01 -0.98169112176E-01  0.51949244803E-02  0.12796573409E+00  0.17174147304E-01 0.  0.
         14    1    1    2    0    0  0.17106078444E-01 -0.15376111100E-01  0.38136130832E-02  0.23314938495E-01  0.00000000000E+00 0.  1.
     999901    1    3    3    0    0 -0.97206739743E-01  0.11354522328E+00 -0.90085375635E-02  0.89264932741E+00  0.88000000000E+00 0. -1.
        -11    1    4    4    0    0  0.28665671589E-01 -0.45963621274E-01  0.72060004668E-02  0.54649453538E-01  0.51100000000E-03 0. -1.
         11    1    4    4    0    0  0.51434989711E-01 -0.52205490902E-01 -0.20110759865E-02  0.73316280555E-01  0.51100000000E-03 0.  1.
</event>
<event>
 8    1  0.1117714E+005  0.1043930E+01  0.7957747E-01            NaN
         13   -1    0    0    0    0  0.00000000000E+00  0.00000000000E+00  0.74505805969E-08  0.10566000000E+00  0.10566000000E+00 0.  1.
     999900   -1    0    0    0    0 -0.00000000000E+00 -0.00000000000E+00 -0.74505805969E-08  0.93827000000E+00  0.93827000000E+00 0.  1.
     999902    2    1    2    0    0 -0.55966292752E-02 -0.56322382605E-02  0.21159878566E-01  0.10213294507E+01  0.10210793613E+01 0.  0.
     999903    2    3    3    0    0 -0.14659292347E-01  0.58171627331E-01  0.11776054664E+00  0.13370072529E+00  0.20236218038E-01 0.  0.
         14    1    1    2    0    0  0.55966292752E-02  0.56322382605E-02 -0.21159878566E-01  0.22600549285E-01  0.00000000000E+00 0. -1.
     999901    1    3    3    0    0  0.90626630714E-02 -0.63803865592E-01 -0.96600668071E-01  0.88762872542E+00  0.88000000000E+00 0.  1.
        -11    1    4    4    0    0 -0.88074348554E-02  0.26704698431E-01  0.76317584890E-01  0.81334781683E-01  0.51100000000E-03 0. -1.
         11    1    4    4    0    0 -0.58518574913E-02  0.31466928900E-01  0.41442961747E-01  0.52365943607E-01  0.51100000000E-03 0.  1.
</event>
<event>
 8    1  0.1117714E+005  0.1043930E+01  0.7957747E-01            NaN
         13   -1    0    0    0    0  0.00000000000E+00  0.00000000000E+00  0.74505805969E-08  0.10566000000E+00  0.10566000000E+00 0.  1.
     999900   -1    0    0    0    0 -0.00000000000E+00 -0.00000000000E+00 -0.74505805969E-08  0.93827000000E+00  0.93827000000E+00 0. -1.
     999902    2    1    2    0    0 -0.21915011440E-01 -0.20832002899E-02  0.91296373902E-02  0.10200981363E+01  0.10198197144E+01 0.  0.
     999903    2    3    3    0    0 -0.36637067992E-01 -0.85201924057E-01  0.92045933739E-01  0.13217889817E+00  0.19928988676E-01 0.  0.
         14    1    1    2    0    0  0.21915011440E-01  0.20832002899E-02 -0.91296373902E-02  0.23831863728E-01  0.00000000000E+00 0. -1.
     999901    1    3    3    0    0  0.14722056552E-01  0.83118723767E-01 -0.82916296349E-01  0.88791923810E+00  0.88000000000E+00 0. -1.
        -11    1    4    4    0    0 -0.19852732295E-01 -0.27729855886E-01  0.24997456442E-01  0.42287230183E-01  0.51100000000E-03 0.  1.
         11    1    4    4    0    0 -0.16784335697E-01 -0.57472068171E-01  0.67048477297E-01  0.89891667988E-01  0.51100000000E-03 0. -1.
</event>
<event>
 8    1  0.1117714E+005  0.1043930E+01  0.7957747E-01            NaN
         13   -1    0    0    0    0  0.00000000000E+00  0.00000000000E+00  0.74505805969E-08  0.10566000000E+00  0.10566000000E+00 0.  1.
     999900   -1    0    0    0    0 -0.00000000000E+00 -0.00000000000E+00 -0.74505805969E-08  0.93827000000E+00  0.93827000000E+00 0. -1.
     999902    2    1    2    0    0  0.21706481721E-01 -0.83610201189E-02 -0.31337824630E-02  0.10204587708E+01  0.10201888082E+01 0.  0.
     999903    2    3    3    0    0  0.26053349892E-01  0.33308689544E-01 -0.12283425328E+00  0.13136740169E+00  0.19516521431E-01 0.  0.
         14    1    1    2    0    0 -0.21706481721E-01  0.83610201189E-02  0.31337824630E-02  0.23471229168E-01  0.00000000000E+00 0.  1.
     999901    1    3    3    0    0 -0.43468681711E-02 -0.41669709663E-01  0.11970047082E+00  0.88909136914E+00  0.88000000000E+00 0.  1.
        -11    1    4    4    0    0  0.12042361317E-01  0.16600559062E-01 -0.87259433639E-01  0.89638534723E-01  0.51100000000E-03 0. -1.
         11    1    4    4    0    0  0.14010988575E-01  0.16708130482E-01 -0.35574819640E-01  0.41728866968E-01  0.51100000000E-03 0.  1.
</event>
<event>
 8    1  0.1117714E+005  0.1043930E+01  0.7957747E-01            NaN
         13   -1    0    0    0    0  0.00000000000E+00  0.00000000000E+00  0.74505805969E-08  0.10566000000E+00  0.10566000000E+00 0. -1.
     999900   -1    0    0    0    0 -0.00000000000E+00 -0.00000000000E+00 -0.74505805969E-08  0.93827000000E+00  0.93827000000E+00 0.  1.
     999902    2    1    2    0    0 -0.51586006904E-02 -0.14296654380E-01  0.17408409148E-01  0.10208203008E+01  0.10205586844E+01 0.  0.
     999903    2    3    3    0    0 -0.29090492573E-02  0.85130444286E-01  0.98250031990E-01  0.13153621998E+00  0.19825571101E-01 0.  0.
         14    1    1    2    0    0  0.51586006904E-02  0.14296654380E-01 -0.17408409148E-01  0.23109699189E-01  0.00000000000E+00 0.  1.
     999901    1    3    3    0    0 -0.22495514331E-02 -0.99427098666E-01 -0.80841622841E-01  0.88928408083E+00  0.88000000000E+00 0.  1.
        -11    1    4    4    0    0 -0.10261009928E-01  0.35708211574E-01  0.47614381778E-01  0.60396648679E-01  0.51100000000E-03 0. -1.
         11    1    4    4    0    0  0.73519606703E-02  0.49422232712E-01  0.50635650212E-01  0.71139571304E-01  0.51100000000E-03 0.  1.
</event>
<event>
 7    1  0.1117714E+005  0.1043930E+01  0.7957747E-01            NaN
         13   -1    0    0    0    0  0.00000000000E+00  0.00000000000E+00  0.74505805969E-08  0.10566000000E+00  0.10566000000E+00 0.  1.
     999900   -1    0    0    0    0 -0.00000000000E+00 -0.00000000000E+00 -0.74505805969E-08  0.93827000000E+00  0.93827000000E+00 0.  1.
     999903    2    1    2    0    0  0.62917807169E-02  0.90228601151E-02  0.48016230403E-01  0.53707151247E-01  0.21398626210E-01 0.  0.
         14    1    1    2    0    0 -0.91281713588E-02 -0.35659373976E-02  0.97724715046E-01  0.98214863196E-01  0.00000000000E+00 0.  1.
     999901    1    1    2    0    0  0.28363906419E-02 -0.54569227174E-02 -0.14574094545E+00  0.89200798556E+00  0.88000000000E+00 0.  1.
        -11    1    3    3    0    0 -0.12525347311E-02  0.13570410732E-01  0.19061047520E-01  0.23437353610E-01  0.51100000000E-03 0.  1.
         11    1    3    3    0    0  0.75443154480E-02 -0.45475506167E-02  0.28955182883E-01  0.30269797637E-01  0.51100000000E-03 0. -1.
</event>
<event>
 8    1  0.1117714E+005  0.1043930E+01  0.7957747E-01            NaN
         13   -1    0    0    0    0  0.00000000000E+00  0.00000000000E+00  0.74505805969E-08  0.10566000000E+00  0.10566000000E+00 0.  1.
     999900   -1    0    0    0    0 -0.00000000000E+00 -0.00000000000E+00 -0.74505805969E-08  0.93827000000E+00  0.93827000000E+00 0. -1.
     999902    2    1    2    0    0  0.17720480848E-01  0.75384788510E-02 -0.73218168176E-02  0.10233277403E+01  0.10231203306E+01 0.  0.
     999903    2    3    3    0    0 -0.14809094669E-01 -0.51054106603E-01  0.11887563674E+00  0.13180260790E+00  0.20363677271E-01 0.  0.
         14    1    1    2    0    0 -0.17720480848E-01 -0.75384788510E-02  0.73218168176E-02  0.20602259739E-01  0.00000000000E+00 0.  1.
     999901    1    3    3    0    0  0.32529575517E-01  0.58592585454E-01 -0.12619745356E+00  0.89152513236E+00  0.88000000000E+00 0. -1.
        -11    1    4    4    0    0 -0.11504369654E-01 -0.18938415967E-01  0.68226351180E-01  0.71736394089E-01  0.51100000000E-03 0. -1.
         11    1    4    4    0    0 -0.33047250154E-02 -0.32115690637E-01  0.50649285559E-01  0.60066213807E-01  0.51100000000E-03 0.  1.
</event>
<event>
 8    1  0.1117714E+005  0.1043930E+01  0.7957747E-01            NaN
         13   -1    0    0    0    0  0.00000000000E+00  0.00000000000E+00  0.74505805969E-08  0.10566000000E+00  0.10566000000E+00 0. -1.
     999900   -1    0    0    0    0 -0.00000000000E+00 -0.00000000000E+00 -0.74505805969E-08  0.93827000000E+00  0.93827000000E+00 0. -1.
     999902    2    1    2    0    0 -0.80516076379E-02 -0.14890317144E-01  0.16913811837E-01  0.10200003748E+01  0.10197196368E+01 0.  0.
     999903    2    3    3    0    0 -0.24409263299E-01  0.98609989016E-01 -0.74756768876E-01  0.12783817670E+00  0.20839454411E-01 0.  0.
         14    1    1    2    0    0  0.80516076379E-02  0.14890317144E-01 -0.16913811837E-01  0.23929625176E-01  0.00000000000E+00 0.  1.
     999901    1    3    3    0    0  0.16357655662E-01 -0.11350030616E+00  0.91670580713E-01  0.89216219813E+00  0.88000000000E+00 0.  1.
        -11    1    4    4    0    0 -0.40662695577E-02  0.20692990787E-01 -0.59555124882E-02  0.21919481422E-01  0.51100000000E-03 0. -1.
         11    1    4    4    0    0 -0.20342993742E-01  0.77916998229E-01 -0.68801256388E-01  0.10591869528E+00  0.51100000000E-03 0.  1.
</event>
<event>
 7    1  0.1117714E+005  0.1043930E+01  0.7957747E-01            NaN
         13   -1    0    0    0    0  0.00000000000E+00  0.00000000000E+00  0.74505805969E-08  0.10566000000E+00  0.10566000000E+00 0. -1.
     999900   -1    0    0    0    0 -0.00000000000E+00 -0.00000000000E+00 -0.74505805969E-08  0.93827000000E+00  0.93827000000E+00 0. -1.
     999902    2    1    2    0    0  0.10898873982E-01  0.96601593207E-02 -0.21113332038E-01  0.10182808885E+01  0.10179578041E+01 0.  0.
         14    1    1    2    0    0 -0.10898873982E-01 -0.96601593207E-02  0.21113332038E-01  0.25649111523E-01  0.00000000000E+00 0. -1.
     999901    1    3    3    0    0  0.48205476841E-01  0.61119364646E-01 -0.12920563260E+00  0.89283449767E+00  0.88000000000E+00 0. -1.
        -11    1    3    3    0    0 -0.30206127013E-01 -0.39275487417E-01  0.84369748856E-01  0.97844211193E-01  0.51100000000E-03 0. -1.
         11    1    3    3    0    0 -0.71004758459E-02 -0.12183717909E-01  0.23722551701E-01  0.27602179616E-01  0.51100000000E-03 0.  1.
</event>
<event>
 8    1  0.1117714E+005  0.1043930E+01  0.7957747E-01            NaN
         13   -1    0    0    0    0  0.00000000000E+00  0.00000000000E+00  0.74505805969E-08  0.10566000000E+00  0.10566000000E+00 0.  1.
     999900   -1    0    0    0    0 -0.00000000000E+00 -0.00000000000E+00 -0.74505805969E-08  0.93827000000E+00  0.93827000000E+00 0. -1.
     999902    2    1    2    0    0 -0.22439426611E-01  0.61409379042E-02 -0.59302873932E-02  0.10199215162E+01  0.10196389027E+01 0.  0.
     999903    2    3    3    0    0 -0.47370634219E-01 -0.10179007692E+00 -0.66020393507E-01  0.13094373813E+00  0.13504571545E-01 0.  0.
         14    1    1    2    0    0  0.22439426611E-01 -0.61409379042E-02  0.59302873932E-02  0.24008483782E-01  0.00000000000E+00 0.  1.
     999901    1    3    3    0    0  0.24931207608E-01  0.10793101482E+00  0.60090106114E-01  0.88897777808E+00  0.88000000000E+00 0.  1.
        -11    1    4    4    0    0 -0.24549092739E-01 -0.46621968032E-01 -0.38157842947E-01  0.65058035298E-01  0.51100000000E-03 0. -1.
         11    1    4    4    0    0 -0.22821541480E-01 -0.55168108885E-01 -0.27862550560E-01  0.65885702836E-01  0.51100000000E-03 0.  1.
</event>
<event>
 8    1  0.1117714E+005  0.1043930E+01  0.7957747E-01            NaN
         13   -1    0    0    0    0  0.00000000000E+00  0.00000000000E+00  0.74505805969E-08  0.10566000000E+00  0.10566000000E+00 0. -1.
     999900   -1    0    0    0    0 -0.00000000000E+00 -0.00000000000E+00 -0.74505805969E-08  0.93827000000E+00  0.93827000000E+00 0.  1.
     999902    2    1    2    0    0 -0.16958855103E-01  0.14715616029E-01 -0.60501087597E-02  0.10206758404E+01  0.10204109051E+01 0.  0.
     999903    2    3    3    0    0 -0.12429107714E+00  0.40359068123E-01 -0.18632793134E-01  0.13369437699E+00  0.21210356495E-01 0.  0.
         14    1    1    2    0    0  0.16958855103E-01 -0.14715616029E-01  0.60501087597E-02  0.23254159575E-01  0.00000000000E+00 0.  1.
     999901    1    3    3    0    0  0.10733222204E+00 -0.25643452094E-01  0.12582684374E-01  0.88698146343E+00  0.88000000000E+00 0.  1.
        -11    1    4    4    0    0 -0.88451215757E-01  0.37943434773E-01 -0.10146643577E-01  0.96780872636E-01  0.51100000000E-03 0.  1.
         11    1    4    4    0    0 -0.35839861388E-01  0.24156333490E-02 -0.84861495575E-02  0.36913504359E-01  0.51100000000E-03 0. -1.
</event>
<event>
 8    1  0.1117714E+005  0.1043930E+01  0.7957747E-01            NaN
         13   -1    0    0    0    0  0.00000000000E+00  0.00000000000E+00  0.74505805969E-08  0.10566000000E+00  0.10566000000E+00 0.  1.
     999900   -1    0    0    0    0 -0.00000000000E+00 -0.00000000000E+00 -0.74505805969E-08  0.93827000000E+00  0.93827000000E+00 0.  1.
     999902    2    1    2    0    0 -0.11057072628E-02 -0.27466556945E-02  0.25073452354E-01  0.10186823324E+01  0.10183694073E+01 0.  0.
     999903    2    3    3    0    0  0.49355111527E-01 -0.95535523887E-01  0.72234295114E-01  0.13111249663E+00  0.20241789025E-01 0.  0.
         14    1    1    2    0    0  0.11057072628E-02  0.27466556945E-02 -0.25073452354E-01  0.25247667595E-01  0.00000000000E+00 0. -1.
     999901    1    3    3    0    0 -0.50460818790E-01  0.92788868192E-01 -0.47160842760E-01  0.88756983578E+00  0.88000000000E+00 0.  1.
        -11    1    4    4    0    0  0.14093858953E-01 -0.18107052950E-01  0.24435698395E-01  0.33524121223E-01  0.51100000000E-03 0. -1.
         11    1    4    4    0    0  0.35261252575E-01 -0.77428470936E-01  0.47798596719E-01  0.97588375404E-01  0.51100000000E-03 0.  1.
</event>
<event>
 8    1  0.1117714E+005  0.1043930E+01  0.7957747E-01            NaN
         13   -1    0    0    0    0  0.00000000000E+00  0.00000000000E+00  0.74505805969E-08  0.10566000000E+00  0.10566000000E+00 0. -1.
     999900   -1    0    0    0    0 -0.00000000000E+00 -0.00000000000E+00 -0.74505805969E-08  0.93827000000E+00  0.93827000000E+00 0.  1.
     999902    2    1    2    0    0  0.39301093635E-02  0.23095423855E-01 -0.25302573896E-02  0.10203663295E+01  0.10200942113E+01 0.  0.
     999903    2    3    3    0    0  0.22885802523E-01 -0.94666028815E-01  0.81180881813E-01  0.12838279110E+00  0.20159080086E-01 0.  0.
         14    1    1    2    0    0 -0.39301093635E-02 -0.23095423855E-01  0.25302573896E-02  0.23563670451E-01  0.00000000000E+00 0. -1.
     999901    1    3    3    0    0 -0.18955693159E-01  0.11776145267E+00 -0.83711139203E-01  0.89198353845E+00  0.88000000000E+00 0.  1.
        -11    1    4    4    0    0  0.18244127663E-01 -0.57907861582E-01  0.61521679324E-01  0.86436952602E-01  0.51100000000E-03 0.  1.
         11    1    4    4    0    0  0.46416748597E-02 -0.36758167232E-01  0.19659202489E-01  0.41945838498E-01  0.51100000000E-03 0. -1.
</event>
<event>
 8    1  0.1117714E+005  0.1043930E+01  0.7957747E-01            NaN
         13   -1    0    0    0    0  0.00000000000E+00  0.00000000000E+00  0.74505805969E-08  0.10566000000E+00  0.10566000000E+00 0.  1.
     999900   -1    0    0    0    0 -0.00000000000E+00 -0.00000000000E+00 -0.74505805969E-08  0.93827000000E+00  0.93827000000E+00 0.  1.
     999902    2    1    2    0    0  0.72805306659E-02 -0.74740473565E-02 -0.17046986537E-01  0.10239433229E+01  0.10237482412E+01 0.  0.
     999903    2    3    3    0    0 -0.10033586118E+00 -0.19895768353E-01 -0.85320124641E-01  0.13467575445E+00  0.19872305652E-01 0.  0.
         14    1    1    2    0    0 -0.72805306659E-02  0.74740473565E-02  0.17046986537E-01  0.19986677079E-01  0.00000000000E+00 0.  1.
     999901    1    3    3    0    0  0.10761639184E+00  0.12421720996E-01  0.68273138103E-01  0.88926756847E+00  0.88000000000E+00 0. -1.
        -11    1    4    4    0    0 -0.35719100940E-03 -0.16762330827E-02 -0.44606416950E-02  0.48058077465E-02  0.51100000000E-03 0. -1.
         11    1    4    4    0    0 -0.99978670167E-01 -0.18219535270E-01 -0.80859482946E-01  0.12986994670E+00  0.51100000000E-03 0.  1.
</event>
<event>
 8    1  0.1117714E+005  0.1043930E+01  0.7957747E-01            NaN
         13   -1    0    0    0    0  0.00000000000E+00  0.00000000000E+00  0.74505805969E-08  0.10566000000E+00  0.10566000000E+00 0. -1.
     999900   -1    0    0    0    0 -0.00000000000E+00 -0.00000000000E+00 -0.74505805969E-08  0.93827000000E+00  0.93827000000E+00 0.  1.
     999902    2    1    2    0    0  0.23608676687E-01 -0.82517134426E-02  0.59511051873E-02  0.10182224905E+01  0.10178979144E+01 0.  0.
     999903    2    3    3    0    0  0.78147247352E-01  0.10088471757E+00 -0.11937864810E-01  0.12962515118E+00  0.19376498562E-01 0.  0.
         14    1    1    2    0    0 -0.23608676687E-01  0.82517134426E-02 -0.59511051873E-02  0.25707509459E-01  0.00000000000E+00 0. -1.
     999901    1    3    3    0    0 -0.54538570665E-01 -0.10913643101E+00  0.17888969997E-01  0.88859733936E+00  0.88000000000E+00 0. -1.
        -11    1    4    4    0    0  0.21285911641E-01  0.41729229313E-01 -0.11161561169E-02  0.46860703568E-01  0.51100000000E-03 0. -1.
         11    1    4    4    0    0  0.56861335711E-01  0.59155488253E-01 -0.10821708693E-01  0.82764447617E-01  0.51100000000E-03 0.  1.
</event>
<event>
 8    1  0.1117714E+005  0.1043930E+01  0.7957747E-01            NaN
         13   -1    0    0    0    0  0.00000000000E+00  0.00000000000E+00  0.74505805969E-08  0.10566000000E+00  0.10566000000E+00 0.  1.
     999900   -1    0    0    0    0 -0.00000000000E+00 -0.00000000000E+00 -0.74505805969E-08  0.93827000000E+00  0.93827000000E+00 0. -1.
     999902    2    1    2    0    0 -0.17483023120E-01  0.16927220909E-01  0.83856874078E-02  0.10181907953E+01  0.10178654081E+01 0.  0.
     999903    2    3    3    0    0 -0.45691113308E-01 -0.67896209488E-01 -0.95559497568E-01  0.12757566396E+00  0.21127218500E-01 0.  0.
         14    1    1    2    0    0  0.17483023120E-01 -0.16927220909E-01 -0.83856874078E-02  0.25739204697E-01  0.00000000000E+00 0.  1.
     999901    1    3    3    0    0  0.28208090188E-01  0.84823430397E-01  0.10394518498E+00  0.89061513134E+00  0.88000000000E+00 0.  1.
        -11    1    4    4    0    0 -0.95975436838E-02 -0.31966318776E-01 -0.42288049407E-01  0.53874842222E-01  0.51100000000E-03 0. -1.
         11    1    4    4    0    0 -0.36093569624E-01 -0.35929890712E-01 -0.53271448161E-01  0.73700821738E-01  0.51100000000E-03 0.  1.
</event>
<event>
 8    1  0.1117714E+005  0.1043930E+01  0.7957747E-01            NaN
         13   -1    0    0    0    0  0.00000000000E+00  0.00000000000E+00  0.74505805969E-08  0.10566000000E+00  0.10566000000E+00 0. -1.
     999900   -1    0    0    0    0 -0.00000000000E+00 -0.00000000000E+00 -0.74505805969E-08  0.93827000000E+00  0.93827000000E+00 0.  1.
     999902    2    1    2    0    0  0.20506227006E-01 -0.26295348771E-02 -0.10930054611E-01  0.10205444084E+01  0.10202764349E+01 0.  0.
     999903    2    3    3    0    0  0.14052753247E-01  0.49253881754E-01  0.11745908962E+00  0.12969239568E+00  0.20001375478E-01 0.  0.
         14    1    1    2    0    0 -0.20506227006E-01  0.26295348771E-02  0.10930054611E-01  0.23385591579E-01  0.00000000000E+00 0. -1.
     999901    1    3    3    0    0  0.64534737596E-02 -0.51883416632E-01 -0.12838914423E+00  0.89085201274E+00  0.88000000000E+00 0.  1.
        -11    1    4    4    0    0 -0.31840908771E-02  0.32827282666E-02  0.41250417179E-02  0.61799538639E-02  0.51100000000E-03 0. -1.
         11    1    4    4    0    0  0.17236844124E-01  0.45971153488E-01  0.11333404790E+00  0.12351244182E+00  0.51100000000E-03 0.  1.
</event>
<event>
 8    1  0.1117714E+005  0.1043930E+01  0.7957747E-01            NaN
         13   -1    0    0    0    0  0.00000000000E+00  0.00000000000E+00  0.74505805969E-08  0.10566000000E+00  0.10566000000E+00 0. -1.
     999900   -1    0    0    0    0 -0.00000000000E+00 -0.00000000000E+00 -0.74505805969E-08  0.93827000000E+00  0.93827000000E+00 0. -1.
     999902    2    1    2    0    0  0.20422334219E-01  0.48073246149E-02  0.10234118205E-01  0.10205864938E+01  0.10203194951E+01 0.  0.
     999903    2    3    3    0    0 -0.39623502142E-01 -0.11493883868E+00 -0.38106444165E-01  0.12913741729E+00  0.21057371605E-01 0.  0.
         14    1    1    2    0    0 -0.20422334219E-01 -0.48073246149E-02 -0.10234118205E-01  0.23343506170E-01  0.00000000000E+00 0.  1.
     999901    1    3    3    0    0  0.60045836361E-01  0.11974616330E+00  0.48340562370E-01  0.89144907654E+00  0.88000000000E+00 0.  1.
        -11    1    4    4    0    0 -0.34524692406E-01 -0.77326546041E-01 -0.32768848655E-01  0.90804227168E-01  0.51100000000E-03 0. -1.
         11    1    4    4    0    0 -0.50988097362E-02 -0.37612292639E-01 -0.53375955101E-02  0.38333190125E-01  0.51100000000E-03 0.  1.
</event>
<event>
 8    1  0.1117714E+005  0.1043930E+01  0.7957747E-01            NaN
         13   -1    0    0    0    0  0.00000000000E+00  0.00000000000E+00  0.74505805969E-08  0.10566000000E+00  0.10566000000E+00 0. -1.
     999900   -1    0    0    0    0 -0.00000000000E+00 -0.00000000000E+00 -0.74505805969E-08  0.93827000000E+00  0.93827000000E+00 0. -1.
     999902    2    1    2    0    0  0.22248364449E-01  0.75939594974E-02 -0.38448073548E-02  0.10201089907E+01  0.10198308254E+01 0.  0.
     999903    2    3    3    0    0  0.21785696939E-01 -0.10058771706E+00 -0.77670970312E-01  0.13041590228E+00  0.19570961242E-01 0.  0.
         14    1    1    2    0    0 -0.22248364449E-01 -0.75939594974E-02  0.38448073548E-02  0.23821009322E-01  0.00000000000E+00 0.  1.
     999901    1    3    3    0    0  0.46266750972E-03  0.10818167656E+00  0.73826162957E-01  0.88969308840E+00  0.88000000000E+00 0.  1.
        -11    1    4    4    0    0  0.19738807791E-01 -0.45093856826E-01 -0.36021959060E-01  0.60999336980E-01  0.51100000000E-03 0.  1.
         11    1    4    4    0    0  0.20468891482E-02 -0.55493860235E-01 -0.41649011252E-01  0.69416565302E-01  0.51100000000E-03 0. -1.
</event>
<event>
 8    1  0.1117714E+005  0.1043930E+01  0.7957747E-01            NaN
         13   -1    0    0    0    0  0.00000000000E+00  0.00000000000E+00  0.74505805969E-08  0.10566000000E+00  0.10566000000E+00 0.  1.
     999900   -1    0    0    0    0 -0.00000000000E+00 -0.00000000000E+00 -0.74505805969E-08  0.93827000000E+00  0.93827000000E+00 0. -1.
     999902    2    1    2    0    0  0.18348367083E-01 -0.15343172629E-01  0.15876033839E-02  0.10199592677E+01  0.10196775529E+01 0.  0.
     999903    2    3    3    0    0  0.10846089943E+00 -0.25106306232E-01  0.69364603213E-01  0.13271110123E+00  0.20166677779E-01 0.  0.
         14    1    1    2    0    0 -0.18348367083E-01  0.15343172629E-01 -0.15876033839E-02  0.23970732268E-01  0.00000000000E+00 0.  1.
     999901    1    3    3    0    0 -0.90112532344E-01  0.97631336023E-02 -0.67776999829E-01  0.88724816651E+00  0.88000000000E+00 0.  1.
        -11    1    4    4    0    0  0.53257952767E-01 -0.23206286052E-02  0.35596845770E-01  0.64102974969E-01  0.51100000000E-03 0.  1.
         11    1    4    4    0    0  0.55202946659E-01 -0.22785677627E-01  0.33767757443E-01  0.68608126257E-01  0.51100000000E-03 0. -1.
</event>
<event>
 8    1  0.1117714E+005  0.1043930E+01  0.7957747E-01            NaN
         13   -1    0    0    0    0  0.00000000000E+00  0.00000000000E+00  0.74505805969E-08  0.10566000000E+00  0.10566000000E+00 0. -1.
     999900   -1    0    0    0    0 -0.00000000000E+00 -0.00000000000E+00 -0.74505805969E-08  0.93827000000E+00  0.93827000000E+00 0. -1.
     999902    2    1    2    0    0 -0.14091959593E-01 -0.16851616678E-01 -0.51698556635E-02  0.10213625961E+01  0.10211132479E+01 0.  0.
     999903    2    3    3    0    0 -0.15836801804E-01  0.27150289972E-01  0.12522947000E+00  0.13066444502E+00  0.20070737328E-01 0.  0.
         14    1    1    2    0    0  0.14091959593E-01  0.16851616678E-01  0.51698556635E-02  0.22567403870E-01  0.00000000000E+00 0. -1.
     999901    1    3    3    0    0  0.17448422106E-02 -0.44001906649E-01 -0.13039932567E+00  0.89069815111E+00  0.88000000000E+00 0. -1.
        -11    1    4    4    0    0 -0.12523118674E-02 -0.28703967513E-02  0.53087614643E-02  0.61847822765E-02  0.51100000000E-03 0.  1.
         11    1    4    4    0    0 -0.14584489937E-01  0.30020686723E-01  0.11992070854E+00  0.12447966274E+00  0.51100000000E-03 0. -1.
</event>
<event>
 8    1  0.1117714E+005  0.1043930E+01  0.7957747E-01            NaN
         13   -1    0    0    0    0  0.00000000000E+00  0.00000000000E+00  0.74505805969E-08  0.10566000000E+00  0.10566000000E+00 0.  1.
     999900   -1    0    0    0    0 -0.00000000000E+00 -0.00000000000E+00 -0.74505805969E-08  0.93827000000E+00  0.93827000000E+00 0. -1.
     999902    2    1    2    0    0  0.14281029667E-01  0.15722563158E-01  0.10003701545E-01  0.10204519071E+01  0.10201817847E+01 0.  0.
     999903    2    3    3    0    0 -0.57805821696E-01  0.11655982245E+00 -0.29121384361E-02  0.13167100840E+00  0.20026698963E-01 0.  0.
         14    1    1    2    0    0 -0.14281029667E-01 -0.15722563158E-01 -0.10003701545E-01  0.23478092878E-01  0.00000000000E+00 0. -1.
     999901    1    3    3    0    0  0.72086851363E-01 -0.10083725930E+00  0.12915839981E-01  0.88878089872E+00  0.88000000000E+00 0.  1.
        -11    1    4    4    0    0 -0.35209879228E-01  0.79486615681E-01 -0.10582378498E-01  0.87579138631E-01  0.51100000000E-03 0. -1.
         11    1    4    4    0    0 -0.22595942469E-01  0.37073206774E-01  0.76702400620E-02  0.44091869774E-01  0.51100000000E-03 0.  1.
</event>
<event>
 8    1  0.1117714E+005  0.1043930E+01  0.7957747E-01            NaN
         13   -1    0    0    0    0  0.00000000000E+00  0.00000000000E+00  0.74505805969E-08  0.10566000000E+00  0.10566000000E+00 0.  1.
     999900   -1    0    0    0    0 -0.00000000000E+00 -0.00000000000E+00 -0.74505805969E-08  0.93827000000E+00  0.93827000000E+00 0.  1.
     999902    2    1    2    0    0 -0.11280550184E-01  0.17630052770E-01  0.99945776346E-02  0.10207360104E+01  0.10204724600E+01 0.  0.
     999903    2    3    3    0    0 -0.22554192319E-01 -0.95564858155E-01 -0.80765253959E-01  0.12878448147E+00  0.20520300068E-01 0.  0.
         14    1    1    2    0    0  0.11280550184E-01 -0.17630052770E-01 -0.99945776346E-02  0.23193989636E-01  0.00000000000E+00 0. -1.
     999901    1    3    3    0    0  0.11273642135E-01  0.11319491093E+00  0.90759831594E-01  0.89195152889E+00  0.88000000000E+00 0. -1.
        -11    1    4    4    0    0 -0.18179262751E-01 -0.36468527557E-01 -0.28065782244E-01  0.49481191885E-01  0.51100000000E-03 0. -1.
         11    1    4    4    0    0 -0.43749295672E-02 -0.59096330599E-01 -0.52699471715E-01  0.79303289585E-01  0.51100000000E-03 0.  1.
</event>
<event>
 8    1  0.1117714E+005  0.1043930E+01  0.7957747E-01            NaN
         13   -1    0    0    0    0  0.00000000000E+00  0.00000000000E+00  0.74505805969E-08  0.10566000000E+00  0.10566000000E+00 0. -1.
     999900   -1    0    0    0    0 -0.00000000000E+00 -0.00000000000E+00 -0.74505805969E-08  0.93827000000E+00  0.93827000000E+00 0.  1.
     999902    2    1    2    0    0 -0.18378308526E-01 -0.15039969728E-01 -0.34106304211E-03  0.10201796476E+01  0.10199031494E+01 0.  0.
     999903    2    3    3    0    0 -0.92873781718E-01 -0.12020709230E-01 -0.92461958948E-01  0.13223542026E+00  0.12921135297E-01 0.  0.
         14    1    1    2    0    0  0.18378308526E-01  0.15039969728E-01  0.34106304211E-03  0.23750352370E-01  0.00000000000E+00 0. -1.
     999901    1    3    3    0    0  0.74495473192E-01 -0.30192604986E-02  0.92120895906E-01  0.88794422737E+00  0.88000000000E+00 0. -1.
        -11    1    4    4    0    0 -0.29970262353E-01  0.13497575387E-02 -0.25294046111E-01  0.39243959543E-01  0.51100000000E-03 0. -1.
         11    1    4    4    0    0 -0.62903519365E-01 -0.13370466769E-01 -0.67167912837E-01  0.92991460715E-01  0.51100000000E-03 0.  1.
</event>
<event>
 8    1  0.1117714E+005  0.1043930E+01  0.7957747E-01            NaN
         13   -1    0    0    0    0  0.00000000000E+00  0.00000000000E+00  0.74505805969E-08  0.10566000000E+00  0.10566000000E+00 0. -1.
     999900   -1    0    0    0    0 -0.00000000000E+00 -0.00000000000E+00 -0.74505805969E-08  0.93827000000E+00  0.93827000000E+00 0. -1.
     999902    2    1    2    0    0  0.17414187373E-02 -0.15378804676E-01  0.21858774358E-01  0.10171466808E+01  0.10167939929E+01 0.  0.
     999903    2    3    3    0    0  0.14422722477E-01 -0.69496735756E-01 -0.10290531477E+00  0.12660996403E+00  0.20069080184E-01 0.  0.
         14    1    1    2    0    0 -0.17414187373E-02  0.15378804676E-01 -0.21858774358E-01  0.26783319229E-01  0.00000000000E+00 0.  1.
     999901    1    3    3    0    0 -0.12681303740E-01  0.54117931080E-01  0.12476408913E+00  0.89053671674E+00  0.88000000000E+00 0.  1.
        -11    1    4    4    0    0  0.17133167871E-02 -0.52483760070E-01 -0.73852972378E-01  0.90620103595E-01  0.51100000000E-03 0.  1.
         11    1    4    4    0    0  0.12709405690E-01 -0.17012975686E-01 -0.29052342391E-01  0.35989860435E-01  0.51100000000E-03 0. -1.
</event>
<event>
 8    1  0.1117714E+005  0.1043930E+01  0.7957747E-01            NaN
         13   -1    0    0    0    0  0.00000000000E+00  0.00000000000E+00  0.74505805969E-08  0.10566000000E+00  0.10566000000E+00 0.  1.
     999900   -1    0    0    0    0 -0.00000000000E+00 -0.00000000000E+00 -0.74505805969E-08  0.93827000000E+00  0.93827000000E+00 0.  1.
     999902    2    1    2    0    0  0.11773504111E-01  0.19685722555E-01  0.46408210500E-02  0.10205274298E+01  0.10202590625E+01 0.  0.
     999903    2    3    3    0    0 -0.27480289522E-01  0.11640832958E+00 -0.53296870893E-01  0.13246611482E+00  0.20016233945E-01 0.  0.
         14    1    1    2    0    0 -0.11773504111E-01 -0.19685722555E-01 -0.46408210500E-02  0.23402570192E-01  0.00000000000E+00 0.  1.
     999901    1    3    3    0    0  0.39253793633E-01 -0.96722607026E-01  0.57937691943E-01  0.88806131498E+00  0.88000000000E+00 0. -1.
        -11    1    4    4    0    0 -0.27355421775E-01  0.74629002500E-01 -0.35323630105E-01  0.86981762912E-01  0.51100000000E-03 0.  1.
         11    1    4    4    0    0 -0.12486774733E-03  0.41779327082E-01 -0.17973240789E-01  0.45484351911E-01  0.51100000000E-03 0. -1.
</event>
<event>
 8    1  0.1117714E+005  0.1043930E+01  0.7957747E-01            NaN
         13   -1    0    0    0    0  0.00000000000E+00  0.00000000000E+00  0.74505805969E-08  0.10566000000E+00  0.10566000000E+00 0. -1.
     999900   -1    0    0    0    0 -0.00000000000E+00 -0.00000000000E+00 -0.74505805969E-08  0.93827000000E+00  0.93827000000E+00 0. -1.
     999902    2    1    2    0    0 -0.18524942553E-01  0.22957221962E-02 -0.14120243405E-01  0.10205243359E+01  0.10202558969E+01 0.  0.
     999903    2    3    3    0    0 -0.73460575871E-01  0.74698831362E-01  0.76267374568E-01  0.13123807408E+00  0.20744831894E-01 0.  0.
         14    1    1    2    0    0  0.18524942553E-01 -0.22957221962E-02  0.14120243405E-01  0.23405664075E-01  0.00000000000E+00 0. -1.
     999901    1    3    3    0    0  0.54935633318E-01 -0.72403109165E-01 -0.90387617973E-01  0.88928626185E+00  0.88000000000E+00 0. -1.
        -11    1    4    4    0    0 -0.31952915399E-01  0.23830163960E-01  0.19198625358E-01  0.44246060316E-01  0.51100000000E-03 0. -1.
         11    1    4    4    0    0 -0.41507660472E-01  0.50868667401E-01  0.57068749210E-01  0.86992013763E-01  0.51100000000E-03 0.  1.
</event>
<event>
 8    1  0.1117714E+005  0.1043930E+01  0.7957747E-01            NaN
         13   -1    0    0    0    0  0.00000000000E+00  0.00000000000E+00  0.74505805969E-08  0.10566000000E+00  0.10566000000E+00 0. -1.
     999900   -1    0    0    0    0 -0.00000000000E+00 -0.00000000000E+00 -0.74505805969E-08  0.93827000000E+00  0.93827000000E+00 0.  1.
     999902    2    1    2    0    0  0.86882016603E-02  0.19237155124E-01 -0.10357414822E-01  0.10204176835E+01  0.10201467638E+01 0.  0.
     999903    2    3    3    0    0  0.95922268897E-01  0.86980954384E-01  0.23288607003E-01  0.13287553824E+00  0.18622066250E-01 0.  0.
         14    1    1    2    0    0 -0.86882016603E-02 -0.19237155124E-01  0.10357414822E-01  0.23512316499E-01  0.00000000000E+00 0. -1.
     999901    1    3    3    0    0 -0.87234067237E-01 -0.67743799260E-01 -0.33646021824E-01  0.88754214526E+00  0.88000000000E+00 0.  1.
        -11    1    4    4    0    0  0.24085670998E-01  0.11846850005E-01  0.38208559478E-02  0.27116922090E-01  0.51100000000E-03 0. -1.
         11    1    4    4    0    0  0.71836597899E-01  0.75134104379E-01  0.19467751055E-01  0.10575861615E+00  0.51100000000E-03 0.  1.
</event>
<event>
 8    1  0.1117714E+005  0.1043930E+01  0.7957747E-01            NaN
         13   -1    0    0    0    0  0.00000000000E+00  0.00000000000E+00  0.74505805969E-08  0.10566000000E+00  0.10566000000E+00 0.  1.
     999900   -1    0    0    0    0 -0.00000000000E+00 -0.00000000000E+00 -0.74505805969E-08  0.93827000000E+00  0.93827000000E+00 0.  1.
     999902    2    1    2    0    0 -0.74080829193E-02 -0.75087549649E-02  0.21525062737E-01  0.10199594051E+01  0.10196776935E+01 0.  0.
     999903    2    3    3    0    0  0.10423656965E+00 -0.66671252148E-01 -0.31647268946E-01  0.12934611845E+00  0.20458504572E-01 0.  0.
         14    1    1    2    0    0  0.74080829193E-02  0.75087549649E-02 -0.21525062737E-01  0.23970594892E-01  0.00000000000E+00 0. -1.
     999901    1    3    3    0    0 -0.11164465257E+00  0.59162497183E-01  0.53172331683E-01  0.89061328666E+00  0.88000000000E+00 0. -1.
        -11    1    4    4    0    0  0.54735476788E-01 -0.37802032454E-01 -0.67474600254E-02  0.66863707754E-01  0.51100000000E-03 0. -1.
         11    1    4    4    0    0  0.49501092866E-01 -0.28869219694E-01 -0.24899808921E-01  0.62482410693E-01  0.51100000000E-03 0.  1.
</event>
<event>
 8    1  0.1117714E+005  0.1043930E+01  0.7957747E-01            NaN
         13   -1    0    0    0    0  0.00000000000E+00  0.00000000000E+00  0.74505805969E-08  0.10566000000E+00  0.10566000000E+00 0. -1.
     999900   -1    0    0    0    0 -0.00000000000E+00 -0.00000000000E+00 -0.74505805969E-08  0.93827000000E+00  0.93827000000E+00 0.  1.
     999902    2    1    2    0    0 -0.22474207412E-01  0.70912248564E-02  0.69431214565E-02  0.10193620859E+01  0.10190659840E+01 0.  0.
     999903    2    3    3    0    0 -0.89480541744E-01 -0.44755335421E-01  0.83810117708E-01  0.13195775314E+00  0.19465492126E-01 0.  0.
         14    1    1    2    0    0  0.22474207412E-01 -0.70912248564E-02 -0.69431214565E-02  0.24567914122E-01  0.00000000000E+00 0. -1.
     999901    1    3    3    0    0  0.67006334332E-01  0.51846560277E-01 -0.76866996251E-01  0.88740433274E+00  0.88000000000E+00 0. -1.
        -11    1    4    4    0    0 -0.69643478211E-01 -0.39212749500E-01  0.57110620309E-01  0.98233079223E-01  0.51100000000E-03 0. -1.
         11    1    4    4    0    0 -0.19837063533E-01 -0.55425859206E-02  0.26699497399E-01  0.33724673915E-01  0.51100000000E-03 0.  1.
</event>
<event>
 8    1  0.1117714E+005  0.1043930E+01  0.7957747E-01            NaN
         13   -1    0    0    0    0  0.00000000000E+00  0.00000000000E+00  0.74505805969E-08  0.10566000000E+00  0.10566000000E+00 0. -1.
     999900   -1    0    0    0    0 -0.00000000000E+00 -0.00000000000E+00 -0.74505805969E-08  0.93827000000E+00  0.93827000000E+00 0.  1.
     999902    2    1    2    0    0 -0.14315846618E-01 -0.50686938153E-03  0.19859424568E-01  0.10194433276E+01  0.10191492045E+01 0.  0.
     999903    2    3    3    0    0  0.36905779023E-01  0.86991019413E-01  0.88537631583E-01  0.13096359705E+00  0.19572367334E-01 0.  0.
         14    1    1    2    0    0  0.14315846618E-01  0.50686938153E-03 -0.19859424568E-01  0.24486672398E-01  0.00000000000E+00 0.  1.
     999901    1    3    3    0    0 -0.51221625641E-01 -0.87497888795E-01 -0.68678207015E-01  0.88847973055E+00  0.88000000000E+00 0.  1.
        -11    1    4    4    0    0  0.35445597573E-01  0.75330265397E-01  0.68875837107E-01  0.10805175302E+00  0.51100000000E-03 0. -1.
         11    1    4    4    0    0  0.14601814503E-02  0.11660754016E-01  0.19661794476E-01  0.22911844035E-01  0.51100000000E-03 0.  1.
</event>
<event>
 8    1  0.1117714E+005  0.1043930E+01  0.7957747E-01            NaN
         13   -1    0    0    0    0  0.00000000000E+00  0.00000000000E+00  0.74505805969E-08  0.10566000000E+00  0.10566000000E+00 0. -1.
     999900   -1    0    0    0    0 -0.00000000000E+00 -0.00000000000E+00 -0.74505805969E-08  0.93827000000E+00  0.93827000000E+00 0. -1.
     999902    2    1    2    0    0  0.11835934792E-01 -0.15749419973E-01  0.84094538293E-02  0.10225091574E+01  0.10222847571E+01 0.  0.
     999903    2    3    3    0    0 -0.44411663580E-01  0.37961811228E-01 -0.11496667662E+00  0.13050559342E+00  0.20021943151E-01 0.  0.
         14    1    1    2    0    0 -0.11835934792E-01  0.15749419973E-01 -0.84094538293E-02  0.21420842551E-01  0.00000000000E+00 0.  1.
     999901    1    3    3    0    0  0.56247598372E-01 -0.53711231201E-01  0.12337613045E+00  0.89200356403E+00  0.88000000000E+00 0. -1.
        -11    1    4    4    0    0 -0.36359581052E-01  0.29825484733E-01 -0.71705604964E-01  0.85752746767E-01  0.51100000000E-03 0.  1.
         11    1    4    4    0    0 -0.80520825287E-02  0.81363264949E-02 -0.43261071652E-01  0.44752846651E-01  0.51100000000E-03 0. -1.
</event>
<event>
 8    1  0.1117714E+005  0.1043930E+01  0.7957747E-01            NaN
         13   -1    0    0    0    0  0.00000000000E+00  0.00000000000E+00  0.74505805969E-08  0.10566000000E+00  0.10566000000E+00 0.  1.
     999900   -1    0    0    0    0 -0.00000000000E+00 -0.00000000000E+00 -0.74505805969E-08  0.93827000000E+00  0.93827000000E+00 0. -1.
     999902    2    1    2    0    0  0.93983676385E-02  0.18611119617E-01  0.11469297266E-01  0.10201340367E+01  0.10198564630E+01 0.  0.
     999903    2    3    3    0    0 -0.92589661333E-01 -0.10419263269E-01 -0.86028865252E-01  0.12842208051E+00  0.20244966639E-01 0.  0.
         14    1    1    2    0    0 -0.93983676385E-02 -0.18611119617E-01 -0.11469297266E-01  0.23795963259E-01  0.00000000000E+00 0.  1.
     999901    1    3    3    0    0  0.10198802897E+00  0.29030382886E-01  0.97498162518E-01  0.89171195623E+00  0.88000000000E+00 0.  1.
        -11    1    4    4    0    0 -0.54772524681E-01 -0.12206979212E-01 -0.40499775698E-01  0.69206450234E-01  0.51100000000E-03 0.  1.
         11    1    4    4    0    0 -0.37817136652E-01  0.17877159431E-02 -0.45529089553E-01  0.59215630279E-01  0.51100000000E-03 0. -1.
</event>
<event>
 8    1  0.1117714E+005  0.1043930E+01  0.7957747E-01            NaN
         13   -1    0    0    0    0  0.00000000000E+00  0.00000000000E+00  0.74505805969E-08  0.10566000000E+00  0.10566000000E+00 0. -1.
     999900   -1    0    0    0    0 -0.00000000000E+00 -0.00000000000E+00 -0.74505805969E-08  0.93827000000E+00  0.93827000000E+00 0. -1.
     999902    2    1    2    0    0 -0.82883584646E-02  0.18492802811E-02 -0.22618313146E-01  0.10197700163E+01  0.10194837818E+01 0.  0.
     999903    2    3    3    0    0 -0.29328932427E-01  0.73116640088E-01 -0.10485862259E+00  0.13281724932E+00  0.20949025032E-01 0.  0.
         14    1    1    2    0    0  0.82883584646E-02 -0.18492802811E-02  0.22618313146E-01  0.24159983716E-01  0.00000000000E+00 0. -1.
     999901    1    3    3    0    0  0.21040573962E-01 -0.71267359807E-01  0.82240309446E-01  0.88695276696E+00  0.88000000000E+00 0.  1.
        -11    1    4    4    0    0 -0.26837440293E-01  0.42450703172E-01 -0.57581991904E-01  0.76408489802E-01  0.51100000000E-03 0. -1.
         11    1    4    4    0    0 -0.24914921335E-02  0.30665936917E-01 -0.47276630689E-01  0.56408759518E-01  0.51100000000E-03 0.  1.
</event>
<event>
 8    1  0.1117714E+005  0.1043930E+01  0.7957747E-01            NaN
         13   -1    0    0    0    0  0.00000000000E+00  0.00000000000E+00  0.74505805969E-08  0.10566000000E+00  0.10566000000E+00 0.  1.
     999900   -1    0    0    0    0 -0.00000000000E+00 -0.00000000000E+00 -0.74505805969E-08  0.93827000000E+00  0.93827000000E+00 0. -1.
     999902    2    1    2    0    0 -0.22300632349E-02 -0.19055275356E-01  0.14812386323E-01  0.10196919413E+01  0.10194038315E+01 0.  0.
     999903    2    3    3    0    0  0.43530287212E-01 -0.71421562367E-02 -0.11875652908E+00  0.12835777992E+00  0.20656964143E-01 0.  0.
         14    1    1    2    0    0  0.22300632349E-02  0.19055275356E-01 -0.14812386323E-01  0.24238058699E-01  0.00000000000E+00 0. -1.
     999901    1    3    3    0    0 -0.45760350447E-01 -0.11913119119E-01  0.13356891540E+00  0.89133416138E+00  0.88000000000E+00 0.  1.
        -11    1    4    4    0    0  0.24583061135E-01  0.40979935897E-02 -0.79773562366E-01  0.83577525805E-01  0.51100000000E-03 0.  1.
         11    1    4    4    0    0  0.18947226077E-01 -0.11240149826E-01 -0.38982966711E-01  0.44780254117E-01  0.51100000000E-03 0. -1.
</event>
<event>
 8    1  0.1117714E+005  0.1043930E+01  0.7957747E-01            NaN
         13   -1    0    0    0    0  0.00000000000E+00  0.00000000000E+00  0.74505805969E-08  0.10566000000E+00  0.10566000000E+00 0.  1.
     999900   -1    0    0    0    0 -0.00000000000E+00 -0.00000000000E+00 -0.74505805969E-08  0.93827000000E+00  0.93827000000E+00 0. -1.
     999902    2    1    2    0    0  0.22809334509E-01 -0.90866325530E-02  0.22571518624E-03  0.10193763123E+01  0.10190805574E+01 0.  0.
     999903    2    3    3    0    0  0.53738234448E-02  0.71153820864E-01 -0.10609135452E+00  0.12918203760E+00  0.18462912376E-01 0.  0.
         14    1    1    2    0    0 -0.22809334509E-01  0.90866325530E-02 -0.22571518624E-03  0.24553687692E-01  0.00000000000E+00 0. -1.
     999901    1    3    3    0    0  0.17435511064E-01 -0.80240453417E-01  0.10631706970E+00  0.89019427471E+00  0.88000000000E+00 0.  1.
        -11    1    4    4    0    0 -0.37342473589E-02  0.16603601924E-01 -0.15405327245E-01  0.22961041543E-01  0.51100000000E-03 0. -1.
         11    1    4    4    0    0  0.91080708037E-02  0.54550218939E-01 -0.90686027273E-01  0.10622099606E+00  0.51100000000E-03 0.  1.
</event>
<event>
 8    1  0.1117714E+005  0.1043930E+01  0.7957747E-01            NaN
         13   -1    0    0    0    0  0.00000000000E+00  0.00000000000E+00  0.74505805969E-08  0.10566000000E+00  0.10566000000E+00 0.  1.
     999900   -1    0    0    0    0 -0.00000000000E+00 -0.00000000000E+00 -0.74505805969E-08  0.93827000000E+00  0.93827000000E+00 0.  1.
     999902    2    1    2    0    0  0.81725456687E-02 -0.15157852741E-01 -0.10624014662E-01  0.10236958534E+01  0.10234958620E+01 0.  0.
     999903    2    3    3    0    0 -0.18450016696E-01  0.12237266307E+00 -0.41578018304E-01  0.13207847245E+00  0.20012983212E-01 0.  0.
         14    1    1    2    0    0 -0.81725456687E-02  0.15157852741E-01  0.10624014662E-01  0.20234146633E-01  0.00000000000E+00 0. -1.
     999901    1    3    3    0    0  0.26622562365E-01 -0.13753051581E+00  0.30954003642E-01  0.89161738091E+00  0.88000000000E+00 0. -1.
        -11    1    4    4    0    0 -0.21566262353E-01  0.99329872146E-01 -0.38150552236E-01  0.10856911591E+00  0.51100000000E-03 0. -1.
         11    1    4    4    0    0  0.31162456563E-02  0.23042790923E-01 -0.34274660680E-02  0.23509356545E-01  0.51100000000E-03 0.  1.
</event>
<event>
 8    1  0.1117714E+005  0.1043930E+01  0.7957747E-01            NaN
         13   -1    0    0    0    0  0.00000000000E+00  0.00000000000E+00  0.74505805969E-08  0.10566000000E+00  0.10566000000E+00 0.  1.
     999900   -1    0    0    0    0 -0.00000000000E+00 -0.00000000000E+00 -0.74505805969E-08  0.93827000000E+00  0.93827000000E+00 0. -1.
     999902    2    1    2    0    0  0.11128648590E-01 -0.75531455881E-03 -0.21582454522E-01  0.10196355631E+01  0.10193460953E+01 0.  0.
     999903    2    3    3    0    0 -0.27855582204E-01  0.99694679487E-01 -0.78173534308E-01  0.13125922291E+00  0.20072856173E-01 0.  0.
         14    1    1    2    0    0 -0.11128648590E-01  0.75531455881E-03  0.21582454522E-01  0.24294436868E-01  0.00000000000E+00 0.  1.
     999901    1    3    3    0    0  0.38984230794E-01 -0.10044999405E+00  0.56591079786E-01  0.88837634022E+00  0.88000000000E+00 0.  1.
        -11    1    4    4    0    0 -0.73880034372E-02  0.60952335034E-01 -0.41400450784E-01  0.74054224640E-01  0.51100000000E-03 0. -1.
         11    1    4    4    0    0 -0.20467578767E-01  0.38742344453E-01 -0.36773083524E-01  0.57204998270E-01  0.51100000000E-03 0.  1.
</event>
<event>
 8    1  0.1117714E+005  0.1043930E+01  0.7957747E-01            NaN
         13   -1    0    0    0    0  0.00000000000E+00  0.00000000000E+00  0.74505805969E-08  0.10566000000E+00  0.10566000000E+00 0.  1.
     999900   -1    0    0    0    0 -0.00000000000E+00 -0.00000000000E+00 -0.74505805969E-08  0.93827000000E+00  0.93827000000E+00 0. -1.
     999902    2    1    2    0    0 -0.21900561238E-01  0.70551698346E-02  0.29830073613E-03  0.10209191550E+01  0.10206597974E+01 0.  0.
     999903    2    3    3    0    0  0.78656140854E-01  0.98220589614E-01 -0.26417309696E-01  0.13011249364E+00  0.19932737667E-01 0.  0.
         14    1    1    2    0    0  0.21900561238E-01 -0.70551698346E-02 -0.29830073613E-03  0.23010844993E-01  0.00000000000E+00 0. -1.
     999901    1    3    3    0    0 -0.10055670209E+00 -0.91165419780E-01  0.26715610432E-01  0.89080666137E+00  0.88000000000E+00 0.  1.
        -11    1    4    4    0    0  0.54389869125E-02  0.13042649926E-01  0.19213861185E-02  0.14270463950E-01  0.51100000000E-03 0.  1.
         11    1    4    4    0    0  0.73217153941E-01  0.85177939689E-01 -0.28338695815E-01  0.11584202969E+00  0.51100000000E-03 0. -1.
</event>
<event>
 8    1  0.1117714E+005  0.1043930E+01  0.7957747E-01            NaN
         13   -1    0    0    0    0  0.00000000000E+00  0.00000000000E+00  0.74505805969E-08  0.10566000000E+00  0.10566000000E+00 0.  1.
     999900   -1    0    0    0    0 -0.00000000000E+00 -0.00000000000E+00 -0.74505805969E-08  0.93827000000E+00  0.93827000000E+00 0.  1.
     999902    2    1    2    0    0  0.14894462720E-01 -0.11095617825E-01 -0.14798919950E-01  0.10201820362E+01  0.10199055942E+01 0.  0.
     999903    2    3    3    0    0 -0.33938698593E-01 -0.45563495455E-01 -0.11754267473E+00  0.13219048701E+00  0.20740711009E-01 0.  0.
         14    1    1    2    0    0 -0.14894462720E-01  0.11095617825E-01  0.14798919950E-01  0.23747963835E-01  0.00000000000E+00 0.  1.
     999901    1    3    3    0    0  0.48833161313E-01  0.34467877630E-01  0.10274375478E+00  0.88799154916E+00  0.88000000000E+00 0. -1.
        -11    1    4    4    0    0 -0.23218270881E-01 -0.26280167134E-01 -0.91866791520E-01  0.98333635102E-01  0.51100000000E-03 0. -1.
         11    1    4    4    0    0 -0.10720427712E-01 -0.19283328321E-01 -0.25675883205E-01  0.33856851904E-01  0.51100000000E-03 0.  1.
</event>
<event>
 8    1  0.1117714E+005  0.1043930E+01  0.7957747E-01            NaN
         13   -1    0    0    0    0  0.00000000000E+00  0.00000000000E+00  0.74505805969E-08  0.10566000000E+00  0.10566000000E+00 0.  1.
     999900   -1    0    0    0    0 -0.00000000000E+00 -0.00000000000E+00 -0.74505805969E-08  0.93827000000E+00  0.93827000000E+00 0.  1.
     999902    2    1    2    0    0 -0.21201593039E-01 -0.90235680808E-02  0.17416470215E-01  0.10150463409E+01  0.10146353081E+01 0.  0.
     999903    2    3    3    0    0  0.38568844066E-01  0.55716268159E-01  0.10446341892E+00  0.12637265342E+00  0.21577380963E-01 0.  0.
         14    1    1    2    0    0  0.21201593039E-01  0.90235680808E-02 -0.17416470215E-01  0.28883659101E-01  0.00000000000E+00 0. -1.
     999901    1    3    3    0    0 -0.59770437105E-01 -0.64739836240E-01 -0.87046948702E-01  0.88867368748E+00  0.88000000000E+00 0.  1.
        -11    1    4    4    0    0  0.20087008992E-01  0.16773149472E-01  0.53954773429E-01  0.59968368080E-01  0.51100000000E-03 0.  1.
         11    1    4    4    0    0  0.18481835073E-01  0.38943118687E-01  0.50508645488E-01  0.66404285335E-01  0.51100000000E-03 0. -1.
</event>
<event>
 8    1  0.1117714E+005  0.1043930E+01  0.7957747E-01            NaN
         13   -1    0    0    0    0  0.00000000000E+00  0.00000000000E+00  0.74505805969E-08  0.10566000000E+00  0.10566000000E+00 0.  1.
     999900   -1    0    0    0    0 -0.00000000000E+00 -0.00000000000E+00 -0.74505805969E-08  0.93827000000E+00  0.93827000000E+00 0.  1.
     999902    2    1    2    0    0 -0.88792168221E-02  0.41136427157E-02  0.22055199188E-01  0.10198012960E+01  0.10195158110E+01 0.  0.
     999903    2    3    3    0    0 -0.86063204528E-01  0.83021970541E-01  0.52886050720E-01  0.13236992758E+00  0.20623787281E-01 0.  0.
         14    1    1    2    0    0  0.88792168221E-02 -0.41136427157E-02 -0.22055199188E-01  0.24128704047E-01  0.00000000000E+00 0. -1.
     999901    1    3    3    0    0  0.77183987706E-01 -0.78908327825E-01 -0.30830851532E-01  0.88743136837E+00  0.88000000000E+00 0. -1.
        -11    1    4    4    0    0 -0.77180067393E-01  0.66950086186E-01  0.50079715144E-01  0.11378627260E+00  0.51100000000E-03 0. -1.
         11    1    4    4    0    0 -0.88831371350E-02  0.16071884355E-01  0.28063355760E-02  0.18583654981E-01  0.51100000000E-03 0.  1.
</event>
<event>
 8    1  0.1117714E+005  0.1043930E+01  0.7957747E-01            NaN
         13   -1    0    0    0    0  0.00000000000E+00  0.00000000000E+00  0.74505805969E-08  0.10566000000E+00  0.10566000000E+00 0. -1.
     999900   -1    0    0    0    0 -0.00000000000E+00 -0.00000000000E+00 -0.74505805969E-08  0.93827000000E+00  0.93827000000E+00 0.  1.
     999902    2    1    2    0    0  0.22395420312E-01 -0.64247503622E-02  0.49967192503E-02  0.10201014568E+01  0.10198231134E+01 0.  0.
     999903    2    3    3    0    0  0.11251597291E+00  0.60957953719E-01  0.28916428583E-01  0.13261382572E+00  0.19353311060E-01 0.  0.
         14    1    1    2    0    0 -0.22395420312E-01  0.64247503622E-02 -0.49967192503E-02  0.23828543209E-01  0.00000000000E+00 0.  1.
     999901    1    3    3    0    0 -0.90120552596E-01 -0.67382704082E-01 -0.23919709333E-01  0.88748763107E+00  0.88000000000E+00 0.  1.
        -11    1    4    4    0    0  0.95483282561E-01  0.48348490811E-01  0.17223958129E-01  0.10840461091E+00  0.51100000000E-03 0.  1.
         11    1    4    4    0    0  0.17032690347E-01  0.12609462908E-01  0.11692470455E-01  0.24209214808E-01  0.51100000000E-03 0. -1.
</event>
<event>
 8    1  0.1117714E+005  0.1043930E+01  0.7957747E-01            NaN
         13   -1    0    0    0    0  0.00000000000E+00  0.00000000000E+00  0.74505805969E-08  0.10566000000E+00  0.10566000000E+00 0.  1.
     999900   -1    0    0    0    0 -0.00000000000E+00 -0.00000000000E+00 -0.74505805969E-08  0.93827000000E+00  0.93827000000E+00 0.  1.
     999902    2    1    2    0    0 -0.10807879797E-01  0.15437856273E-01 -0.19145046835E-01  0.10170660746E+01  0.10167112321E+01 0.  0.
     999903    2    3    3    0    0 -0.11514020137E+00  0.53201787373E-01  0.14791929513E-01  0.12944956604E+00  0.21229527069E-01 0.  0.
         14    1    1    2    0    0  0.10807879797E-01 -0.15437856273E-01  0.19145046835E-01  0.26863925445E-01  0.00000000000E+00 0.  1.
     999901    1    3    3    0    0  0.10433232157E+00 -0.37763931100E-01 -0.33936976348E-01  0.88761650851E+00  0.88000000000E+00 0. -1.
        -11    1    4    4    0    0 -0.54273008704E-01  0.33256620644E-01 -0.24525709156E-03  0.63654407251E-01  0.51100000000E-03 0. -1.
         11    1    4    4    0    0 -0.60867192664E-01  0.19945166729E-01  0.15037186605E-01  0.65795158793E-01  0.51100000000E-03 0.  1.
</event>
<event>
 8    1  0.1117714E+005  0.1043930E+01  0.7957747E-01            NaN
         13   -1    0    0    0    0  0.00000000000E+00  0.00000000000E+00  0.74505805969E-08  0.10566000000E+00  0.10566000000E+00 0.  1.
     999900   -1    0    0    0    0 -0.00000000000E+00 -0.00000000000E+00 -0.74505805969E-08  0.93827000000E+00  0.93827000000E+00 0.  1.
     999902    2    1    2    0    0  0.77501506220E-02  0.71339565695E-02 -0.21654859601E-01  0.10198490715E+01  0.10195647295E+01 0.  0.
     999903    2    3    3    0    0 -0.72732083152E-01  0.58369493648E-01 -0.91234388419E-01  0.13196181460E+00  0.19830612034E-01 0.  0.
         14    1    1    2    0    0 -0.77501506220E-02 -0.71339565695E-02  0.21654859601E-01  0.24080928457E-01  0.00000000000E+00 0.  1.
     999901    1    3    3    0    0  0.80482233774E-01 -0.51235537078E-01  0.69579528818E-01  0.88788725694E+00  0.88000000000E+00 0. -1.
        -11    1    4    4    0    0 -0.15031592381E-01  0.23323337567E-01 -0.29043256204E-01  0.40170868757E-01  0.51100000000E-03 0. -1.
         11    1    4    4    0    0 -0.57700490772E-01  0.35046156081E-01 -0.62191132215E-01  0.91790945842E-01  0.51100000000E-03 0.  1.
</event>
<event>
 8    1  0.1117714E+005  0.1043930E+01  0.7957747E-01            NaN
         13   -1    0    0    0    0  0.00000000000E+00  0.00000000000E+00  0.74505805969E-08  0.10566000000E+00  0.10566000000E+00 0. -1.
     999900   -1    0    0    0    0 -0.00000000000E+00 -0.00000000000E+00 -0.74505805969E-08  0.93827000000E+00  0.93827000000E+00 0. -1.
     999902    2    1    2    0    0 -0.12933934856E-01 -0.17366825394E-01 -0.10213680311E-01  0.10199881421E+01  0.10197071136E+01 0.  0.
     999903    2    3    3    0    0 -0.66535014882E-01  0.99619783059E-01 -0.45658110569E-01  0.12992339726E+00  0.21081193340E-01 0.  0.
         14    1    1    2    0    0  0.12933934856E-01  0.17366825394E-01  0.10213680311E-01  0.23941857919E-01  0.00000000000E+00 0. -1.
     999901    1    3    3    0    0  0.53601080025E-01 -0.11698660845E+00  0.35444430258E-01  0.89006474482E+00  0.88000000000E+00 0.  1.
        -11    1    4    4    0    0 -0.47305059413E-01  0.85436780211E-01 -0.34832521335E-01  0.10368595721E+00  0.51100000000E-03 0.  1.
         11    1    4    4    0    0 -0.19229955469E-01  0.14183002849E-01 -0.10825589234E-01  0.26237440050E-01  0.51100000000E-03 0. -1.
</event>
<event>
 8    1  0.1117714E+005  0.1043930E+01  0.7957747E-01            NaN
         13   -1    0    0    0    0  0.00000000000E+00  0.00000000000E+00  0.74505805969E-08  0.10566000000E+00  0.10566000000E+00 0.  1.
     999900   -1    0    0    0    0 -0.00000000000E+00 -0.00000000000E+00 -0.74505805969E-08  0.93827000000E+00  0.93827000000E+00 0. -1.
     999902    2    1    2    0    0  0.11627023737E-02  0.28944669822E-02  0.23986849907E-01  0.10197411847E+01  0.10194542584E+01 0.  0.
     999903    2    3    3    0    0 -0.13227920053E-02  0.11184842751E+00 -0.61089612440E-01  0.12894651274E+00  0.19581672146E-01 0.  0.
         14    1    1    2    0    0 -0.11627023737E-02 -0.28944669822E-02 -0.23986849907E-01  0.24188815274E-01  0.00000000000E+00 0. -1.
     999901    1    3    3    0    0  0.24854943790E-02 -0.10895396053E+00  0.85076462346E-01  0.89079467199E+00  0.88000000000E+00 0. -1.
        -11    1    4    4    0    0 -0.83353352940E-02  0.31364036461E-01 -0.13274008879E-01  0.35066237755E-01  0.51100000000E-03 0.  1.
         11    1    4    4    0    0  0.70125432887E-02  0.80484391049E-01 -0.47815603561E-01  0.93880274983E-01  0.51100000000E-03 0. -1.
</event>
<event>
 8    1  0.1117714E+005  0.1043930E+01  0.7957747E-01            NaN
         13   -1    0    0    0    0  0.00000000000E+00  0.00000000000E+00  0.74505805969E-08  0.10566000000E+00  0.10566000000E+00 0. -1.
     999900   -1    0    0    0    0 -0.00000000000E+00 -0.00000000000E+00 -0.74505805969E-08  0.93827000000E+00  0.93827000000E+00 0. -1.
     999902    2    1    2    0    0 -0.21628342848E-01 -0.59502701982E-02 -0.82456151785E-02  0.10200306046E+01  0.10197505839E+01 0.  0.
     999903    2    3    3    0    0 -0.66985647687E-01  0.66220872348E-01  0.88607457867E-01  0.13062266859E+00  0.18404320937E-01 0.  0.
         14    1    1    2    0    0  0.21628342848E-01  0.59502701982E-02  0.82456151785E-02  0.23899395378E-01  0.00000000000E+00 0. -1.
     999901    1    3    3    0    0  0.45357304839E-01 -0.72171142546E-01 -0.96853073046E-01  0.88940793603E+00  0.88000000000E+00 0.  1.
        -11    1    4    4    0    0 -0.42262314031E-01  0.33865561770E-01  0.60160792107E-01  0.80947893668E-01  0.51100000000E-03 0.  1.
         11    1    4    4    0    0 -0.24723333655E-01  0.32355310578E-01  0.28446665760E-01  0.49674774922E-01  0.51100000000E-03 0. -1.
</event>
<event>
 8    1  0.1117714E+005  0.1043930E+01  0.7957747E-01            NaN
         13   -1    0    0    0    0  0.00000000000E+00  0.00000000000E+00  0.74505805969E-08  0.10566000000E+00  0.10566000000E+00 0. -1.
     999900   -1    0    0    0    0 -0.00000000000E+00 -0.00000000000E+00 -0.74505805969E-08  0.93827000000E+00  0.93827000000E+00 0. -1.
     999902    2    1    2    0    0 -0.65785992609E-02  0.22645829474E-01  0.56499978239E-02  0.10196805869E+01  0.10193922038E+01 0.  0.
     999903    2    3    3    0    0  0.10740778808E+00 -0.62147453909E-01  0.24431675273E-01  0.12808900505E+00  0.20276772148E-01 0.  0.
         14    1    1    2    0    0  0.65785992609E-02 -0.22645829474E-01 -0.56499978239E-02  0.24249413111E-01  0.00000000000E+00 0.  1.
     999901    1    3    3    0    0 -0.11398638734E+00  0.84793283383E-01 -0.18781677449E-01  0.89159158184E+00  0.88000000000E+00 0.  1.
        -11    1    4    4    0    0  0.79430891130E-01 -0.50395804138E-01  0.26313957172E-01  0.97681569416E-01  0.51100000000E-03 0. -1.
         11    1    4    4    0    0  0.27976896953E-01 -0.11751649771E-01 -0.18822818995E-02  0.30407435630E-01  0.51100000000E-03 0.  1.
</event>
<event>
 8    1  0.1117714E+005  0.1043930E+01  0.7957747E-01            NaN
         13   -1    0    0    0    0  0.00000000000E+00  0.00000000000E+00  0.74505805969E-08  0.10566000000E+00  0.10566000000E+00 0.  1.
     999900   -1    0    0    0    0 -0.00000000000E+00 -0.00000000000E+00 -0.74505805969E-08  0.93827000000E+00  0.93827000000E+00 0.  1.
     999902    2    1    2    0    0 -0.13294128829E-01  0.10707027212E-01 -0.26311169716E-01  0.10125667740E+01  0.10120809354E+01 0.  0.
     999903    2    3    3    0    0  0.11448133846E+00  0.23965425725E-01 -0.33589663893E-01  0.12321007861E+00  0.19290916621E-01 0.  0.
         14    1    1    2    0    0  0.13294128829E-01 -0.10707027212E-01  0.26311169716E-01  0.31363225996E-01  0.00000000000E+00 0. -1.
     999901    1    3    3    0    0 -0.12777546729E+00 -0.13258398513E-01  0.72784941773E-02  0.88935669540E+00  0.88000000000E+00 0. -1.
        -11    1    4    4    0    0  0.43019688692E-01  0.16482965883E-01 -0.70351835112E-02  0.46606187438E-01  0.51100000000E-03 0. -1.
         11    1    4    4    0    0  0.71461649767E-01  0.74824598415E-02 -0.26554480382E-01  0.76603891168E-01  0.51100000000E-03 0.  1.
</event>
<event>
 8    1  0.1117714E+005  0.1043930E+01  0.7957747E-01            NaN
         13   -1    0    0    0    0  0.00000000000E+00  0.00000000000E+00  0.74505805969E-08  0.10566000000E+00  0.10566000000E+00 0.  1.
     999900   -1    0    0    0    0 -0.00000000000E+00 -0.00000000000E+00 -0.74505805969E-08  0.93827000000E+00  0.93827000000E+00 0.  1.
     999902    2    1    2    0    0 -0.18086016132E-01 -0.14303576866E-01  0.38323603935E-02  0.10205551572E+01  0.10202874328E+01 0.  0.
     999903    2    3    3    0    0 -0.37108413174E-01  0.13017711658E-02  0.12526644185E+00  0.13187545413E+00  0.17908797021E-01 0.  0.
         14    1    1    2    0    0  0.18086016132E-01  0.14303576866E-01 -0.38323603935E-02  0.23374842821E-01  0.00000000000E+00 0. -1.
     999901    1    3    3    0    0  0.19022397041E-01 -0.15605348032E-01 -0.12143408146E+00  0.88867970305E+00  0.88000000000E+00 0.  1.
        -11    1    4    4    0    0 -0.17580922776E-01  0.66075740685E-02  0.81753462667E-01  0.83884674761E-01  0.51100000000E-03 0. -1.
         11    1    4    4    0    0 -0.19527490398E-01 -0.53058029027E-02  0.43512979185E-01  0.47990779367E-01  0.51100000000E-03 0.  1.
</event>
<event>
 8    1  0.1117714E+005  0.1043930E+01  0.7957747E-01            NaN
         13   -1    0    0    0    0  0.00000000000E+00  0.00000000000E+00  0.74505805969E-08  0.10566000000E+00  0.10566000000E+00 0. -1.
     999900   -1    0    0    0    0 -0.00000000000E+00 -0.00000000000E+00 -0.74505805969E-08  0.93827000000E+00  0.93827000000E+00 0. -1.
     999902    2    1    2    0    0  0.61719654124E-02  0.19434346320E-01 -0.24181977965E-02  0.10233962557E+01  0.10231902372E+01 0.  0.
     999903    2    3    3    0    0  0.12365555088E+00  0.77461846475E-02 -0.47981903090E-01  0.13434335671E+00  0.19879029875E-01 0.  0.
         14    1    1    2    0    0 -0.61719654124E-02 -0.19434346320E-01  0.24181977965E-02  0.20533744289E-01  0.00000000000E+00 0.  1.
     999901    1    3    3    0    0 -0.11748358547E+00  0.11688161672E-01  0.45563705294E-01  0.88905289900E+00  0.88000000000E+00 0. -1.
        -11    1    4    4    0    0  0.69816211887E-01  0.31202783328E-02 -0.37439867404E-01  0.79284578395E-01  0.51100000000E-03 0. -1.
         11    1    4    4    0    0  0.53839338993E-01  0.46259063148E-02 -0.10542035686E-01  0.55058778317E-01  0.51100000000E-03 0.  1.
</event>
<event>
 8    1  0.1117714E+005  0.1043930E+01  0.7957747E-01            NaN
         13   -1    0    0    0    0  0.00000000000E+00  0.00000000000E+00  0.74505805969E-08  0.10566000000E+00  0.10566000000E+00 0.  1.
     999900   -1    0    0    0    0 -0.00000000000E+00 -0.00000000000E+00 -0.74505805969E-08  0.93827000000E+00  0.93827000000E+00 0.  1.
     999902    2    1    2    0    0  0.98702950382E-02 -0.21198093227E-01 -0.64159357305E-02  0.10196823999E+01  0.10193940605E+01 0.  0.
     999903    2    3    3    0    0 -0.75773004448E-01  0.49478932763E-01 -0.89555019960E-01  0.12881645930E+00  0.19592488248E-01 0.  0.
         14    1    1    2    0    0 -0.98702950382E-02  0.21198093227E-01  0.64159357305E-02  0.24247600126E-01  0.00000000000E+00 0.  1.
     999901    1    3    3    0    0  0.85643299486E-01 -0.70677025990E-01  0.83139084230E-01  0.89086594057E+00  0.88000000000E+00 0. -1.
        -11    1    4    4    0    0 -0.26113265784E-01  0.19986239828E-01 -0.45655678107E-01  0.56267703852E-01  0.51100000000E-03 0.  1.
         11    1    4    4    0    0 -0.49659738664E-01  0.29492692935E-01 -0.43899341853E-01  0.72548755447E-01  0.51100000000E-03 0. -1.
</event>
<event>
 8    1  0.1117714E+005  0.1043930E+01  0.7957747E-01            NaN
         13   -1    0    0    0    0  0.00000000000E+00  0.00000000000E+00  0.74505805969E-08  0.10566000000E+00  0.10566000000E+00 0. -1.
     999900   -1    0    0    0    0 -0.00000000000E+00 -0.00000000000E+00 -0.74505805969E-08  0.93827000000E+00  0.93827000000E+00 0. -1.
     999902    2    1    2    0    0  0.13700723312E-02 -0.64650449390E-02 -0.23549750552E-01  0.10194705508E+01  0.10191770893E+01 0.  0.
     999903    2    3    3    0    0 -0.34954967465E-01 -0.11681809002E+00  0.39106534286E-01  0.12962611883E+00  0.20131908820E-01 0.  0.
         14    1    1    2    0    0 -0.13700723312E-02  0.64650449390E-02  0.23549750552E-01  0.24459449203E-01  0.00000000000E+00 0. -1.
     999901    1    3    3    0    0  0.36325039796E-01  0.11035304508E+00 -0.62656284838E-01  0.88984443197E+00  0.88000000000E+00 0. -1.
        -11    1    4    4    0    0 -0.20184312510E-01 -0.36574315886E-01  0.16887402626E-01  0.45061430764E-01  0.51100000000E-03 0. -1.
         11    1    4    4    0    0 -0.14770654955E-01 -0.80243774132E-01  0.22219131660E-01  0.84564688065E-01  0.51100000000E-03 0.  1.
</event>
<event>
 8    1  0.1117714E+005  0.1043930E+01  0.7957747E-01            NaN
         13   -1    0    0    0    0  0.00000000000E+00  0.00000000000E+00  0.74505805969E-08  0.10566000000E+00  0.10566000000E+00 0.  1.
     999900   -1    0    0    0    0 -0.00000000000E+00 -0.00000000000E+00 -0.74505805969E-08  0.93827000000E+00  0.93827000000E+00 0. -1.
     999902    2    1    2    0    0  0.23631668321E-02 -0.23076910372E-01  0.58268247946E-02  0.10200118011E+01  0.10197313343E+01 0.  0.
     999903    2    3    3    0    0 -0.10218420708E+00  0.25663184503E-01 -0.71700453989E-01  0.12910426991E+00  0.20657836052E-01 0.  0.
         14    1    1    2    0    0 -0.23631668321E-02  0.23076910372E-01 -0.58268247946E-02  0.23918198866E-01  0.00000000000E+00 0. -1.
     999901    1    3    3    0    0  0.10454737391E+00 -0.48740094875E-01  0.77527278784E-01  0.89090753123E+00  0.88000000000E+00 0.  1.
        -11    1    4    4    0    0 -0.69005589501E-01  0.10694884927E-01 -0.38018564647E-01  0.79509900798E-01  0.51100000000E-03 0. -1.
         11    1    4    4    0    0 -0.33178617580E-01  0.14968299576E-01 -0.33681889342E-01  0.49594369110E-01  0.51100000000E-03 0.  1.
</event>
<event>
 8    1  0.1117714E+005  0.1043930E+01  0.7957747E-01            NaN
         13   -1    0    0    0    0  0.00000000000E+00  0.00000000000E+00  0.74505805969E-08  0.10566000000E+00  0.10566000000E+00 0. -1.
     999900   -1    0    0    0    0 -0.00000000000E+00 -0.00000000000E+00 -0.74505805969E-08  0.93827000000E+00  0.93827000000E+00 0.  1.
     999902    2    1    2    0    0  0.15202161751E-01 -0.15214331669E-01  0.92804791104E-02  0.10205054637E+01  0.10202365865E+01 0.  0.
     999903    2    3    3    0    0  0.11645160551E+00  0.35357294389E-01  0.47989335856E-01  0.13241351189E+00  0.20475523991E-01 0.  0.
         14    1    1    2    0    0 -0.15202161751E-01  0.15214331669E-01 -0.92804791104E-02  0.23424536336E-01  0.00000000000E+00 0.  1.
     999901    1    3    3    0    0 -0.10124944375E+00 -0.50571626057E-01 -0.38708856746E-01  0.88809195178E+00  0.88000000000E+00 0.  1.
        -11    1    4    4    0    0  0.30581347670E-01  0.18533512613E-01  0.16852723388E-01  0.39534609163E-01  0.51100000000E-03 0.  1.
         11    1    4    4    0    0  0.85870257835E-01  0.16823781775E-01  0.31136612469E-01  0.92878902723E-01  0.51100000000E-03 0. -1.
</event>
<event>
 7    1  0.1117714E+005  0.1043930E+01  0.7957747E-01            NaN
         13   -1    0    0    0    0  0.00000000000E+00  0.00000000000E+00  0.74505805969E-08  0.10566000000E+00  0.10566000000E+00 0.  1.
     999900   -1    0    0    0    0 -0.00000000000E+00 -0.00000000000E+00 -0.74505805969E-08  0.93827000000E+00  0.93827000000E+00 0.  1.
     999902    2    1    2    0    0  0.16551663516E-01 -0.73348538206E-02  0.14902815928E-01  0.10204810860E+01  0.10202116424E+01 0.  0.
         14    1    1    2    0    0 -0.16551663516E-01  0.73348538206E-02 -0.14902815928E-01  0.23448914011E-01  0.00000000000E+00 0.  1.
     999901    1    3    3    0    0 -0.20846626544E-01  0.69277189417E-02  0.12179638142E+00  0.88866019020E+00  0.88000000000E+00 0. -1.
        -11    1    3    3    0    0  0.31840814425E-01  0.16708496010E-02 -0.99306648816E-02  0.33399227950E-01  0.51100000000E-03 0. -1.
         11    1    3    3    0    0  0.55574756356E-02 -0.15933422363E-01 -0.96962900610E-01  0.98421667835E-01  0.51100000000E-03 0.  1.
</event>
<event>
 8    1  0.1117714E+005  0.1043930E+01  0.7957747E-01            NaN
         13   -1    0    0    0    0  0.00000000000E+00  0.00000000000E+00  0.74505805969E-08  0.10566000000E+00  0.10566000000E+00 0.  1.
     999900   -1    0    0    0    0 -0.00000000000E+00 -0.00000000000E+00 -0.74505805969E-08  0.93827000000E+00  0.93827000000E+00 0.  1.
     999902    2    1    2    0    0 -0.22042096966E-01  0.87615689990E-02 -0.77261641368E-03  0.10201978264E+01  0.10199217562E+01 0.  0.
     999903    2    3    3    0    0 -0.76572416493E-01  0.31558117571E-01 -0.10147719663E+00  0.13248466837E+00  0.19882559320E-01 0.  0.
         14    1    1    2    0    0  0.22042096966E-01 -0.87615689990E-02  0.77261641368E-03  0.23732173649E-01  0.00000000000E+00 0. -1.
     999901    1    3    3    0    0  0.54530319527E-01 -0.22796548572E-01  0.10070458022E+00  0.88771315798E+00  0.88000000000E+00 0. -1.
        -11    1    4    4    0    0 -0.58022852114E-01  0.18706243807E-01 -0.84702234939E-01  0.10436141360E+00  0.51100000000E-03 0.  1.
         11    1    4    4    0    0 -0.18549564379E-01  0.12851873765E-01 -0.16774961691E-01  0.28123254766E-01  0.51100000000E-03 0. -1.
</event>
<event>
 8    1  0.1117714E+005  0.1043930E+01  0.7957747E-01            NaN
         13   -1    0    0    0    0  0.00000000000E+00  0.00000000000E+00  0.74505805969E-08  0.10566000000E+00  0.10566000000E+00 0. -1.
     999900   -1    0    0    0    0 -0.00000000000E+00 -0.00000000000E+00 -0.74505805969E-08  0.93827000000E+00  0.93827000000E+00 0. -1.
     999902    2    1    2    0    0 -0.13806060934E-02 -0.56740157582E-02 -0.22907613333E-01  0.10202897953E+01  0.10200158858E+01 0.  0.
     999903    2    3    3    0    0 -0.78342365885E-01 -0.88237827350E-03 -0.10566585496E+00  0.13304969321E+00  0.19966048078E-01 0.  0.
         14    1    1    2    0    0  0.13806060934E-02  0.56740157582E-02  0.22907613333E-01  0.23640204666E-01  0.00000000000E+00 0. -1.
     999901    1    3    3    0    0  0.76961759792E-01 -0.47916374847E-02  0.82758241623E-01  0.88724010212E+00  0.88000000000E+00 0.  1.
        -11    1    4    4    0    0 -0.37883129400E-01  0.24831652084E-02 -0.66843260267E-01  0.76873793758E-01  0.51100000000E-03 0. -1.
         11    1    4    4    0    0 -0.40459236486E-01 -0.33655434819E-02 -0.38822594689E-01  0.56175899453E-01  0.51100000000E-03 0.  1.
</event>
<event>
 8    1  0.1117714E+005  0.1043930E+01  0.7957747E-01            NaN
         13   -1    0    0    0    0  0.00000000000E+00  0.00000000000E+00  0.74505805969E-08  0.10566000000E+00  0.10566000000E+00 0. -1.
     999900   -1    0    0    0    0 -0.00000000000E+00 -0.00000000000E+00 -0.74505805969E-08  0.93827000000E+00  0.93827000000E+00 0. -1.
     999902    2    1    2    0    0 -0.46461339811E-02 -0.92850719886E-02  0.19906527182E-01  0.10214785202E+01  0.10212317554E+01 0.  0.
     999903    2    3    3    0    0 -0.39171502950E-01  0.95920461351E-01  0.80174956878E-01  0.13249455575E+00  0.19789948062E-01 0.  0.
         14    1    1    2    0    0  0.46461339811E-02  0.92850719886E-02 -0.19906527182E-01  0.22451479846E-01  0.00000000000E+00 0.  1.
     999901    1    3    3    0    0  0.34525368969E-01 -0.10520553334E+00 -0.60268429695E-01  0.88898396440E+00  0.88000000000E+00 0.  1.
        -11    1    4    4    0    0 -0.36848312837E-01  0.77371040497E-01  0.57973602725E-01  0.10346630273E+00  0.51100000000E-03 0.  1.
         11    1    4    4    0    0 -0.23231901129E-02  0.18549420854E-01  0.22201354152E-01  0.29028253022E-01  0.51100000000E-03 0. -1.
</event>
<event>
 8    1  0.1117714E+005  0.1043930E+01  0.7957747E-01            NaN
         13   -1    0    0    0    0  0.00000000000E+00  0.00000000000E+00  0.74505805969E-08  0.10566000000E+00  0.10566000000E+00 0. -1.
     999900   -1    0    0    0    0 -0.00000000000E+00 -0.00000000000E+00 -0.74505805969E-08  0.93827000000E+00  0.93827000000E+00 0. -1.
     999902    2    1    2    0    0 -0.55426545844E-02 -0.15404888873E-01 -0.19798017806E-01  0.10182396685E+01  0.10179155316E+01 0.  0.
     999903    2    3    3    0    0 -0.61662459342E-01 -0.89238024584E-01 -0.72962296968E-01  0.13177071535E+00  0.16563233987E-01 0.  0.
         14    1    1    2    0    0  0.55426545844E-02  0.15404888873E-01  0.19798017806E-01  0.25690331451E-01  0.00000000000E+00 0. -1.
     999901    1    3    3    0    0  0.56119804757E-01  0.73833135712E-01  0.53164279162E-01  0.88646895320E+00  0.88000000000E+00 0.  1.
        -11    1    4    4    0    0 -0.14455097509E-01 -0.11161348450E-01 -0.15362127499E-01  0.23870098984E-01  0.51100000000E-03 0. -1.
         11    1    4    4    0    0 -0.47207361833E-01 -0.78076676134E-01 -0.57600169469E-01  0.10790061636E+00  0.51100000000E-03 0.  1.
</event>
<event>
 8    1  0.1117714E+005  0.1043930E+01  0.7957747E-01            NaN
         13   -1    0    0    0    0  0.00000000000E+00  0.00000000000E+00  0.74505805969E-08  0.10566000000E+00  0.10566000000E+00 0.  1.
     999900   -1    0    0    0    0 -0.00000000000E+00 -0.00000000000E+00 -0.74505805969E-08  0.93827000000E+00  0.93827000000E+00 0. -1.
     999902    2    1    2    0    0 -0.20753020517E-01  0.10886480303E-01  0.48099077541E-02  0.10200064023E+01  0.10197258074E+01 0.  0.
     999903    2    3    3    0    0 -0.10064086211E-01  0.85273175240E-01  0.98101632883E-01  0.13188986734E+00  0.19955111788E-01 0.  0.
         14    1    1    2    0    0  0.20753020517E-01 -0.10886480303E-01 -0.48099077541E-02  0.23923597693E-01  0.00000000000E+00 0. -1.
     999901    1    3    3    0    0 -0.10688934305E-01 -0.74386694937E-01 -0.93291725129E-01  0.88811653496E+00  0.88000000000E+00 0.  1.
        -11    1    4    4    0    0  0.91832708510E-03  0.28987929332E-01  0.46147376697E-01  0.54506741497E-01  0.51100000000E-03 0.  1.
         11    1    4    4    0    0 -0.10982413296E-01  0.56285245909E-01  0.51954256186E-01  0.77383125845E-01  0.51100000000E-03 0. -1.
</event>
<event>
 8    1  0.1117714E+005  0.1043930E+01  0.7957747E-01            NaN
         13   -1    0    0    0    0  0.00000000000E+00  0.00000000000E+00  0.74505805969E-08  0.10566000000E+00  0.10566000000E+00 0.  1.
     999900   -1    0    0    0    0 -0.00000000000E+00 -0.00000000000E+00 -0.74505805969E-08  0.93827000000E+00  0.93827000000E+00 0. -1.
     999902    2    1    2    0    0  0.31248098218E-03 -0.12661954906E-02  0.20684192783E-01  0.10232047322E+01  0.10229948129E+01 0.  0.
     999903    2    3    3    0    0 -0.75500370314E-01  0.82553174042E-01  0.71959483310E-01  0.13449643889E+00  0.19894531263E-01 0.  0.
         14    1    1    2    0    0 -0.31248098218E-03  0.12661954906E-02 -0.20684192783E-01  0.20725267826E-01  0.00000000000E+00 0. -1.
     999901    1    3    3    0    0  0.75812851296E-01 -0.83819369533E-01 -0.51275290527E-01  0.88870829328E+00  0.88000000000E+00 0. -1.
        -11    1    4    4    0    0 -0.28436165803E-01  0.19268338492E-01  0.27154839570E-01  0.43789620081E-01  0.51100000000E-03 0.  1.
         11    1    4    4    0    0 -0.47064204510E-01  0.63284835551E-01  0.44804643740E-01  0.90706818810E-01  0.51100000000E-03 0. -1.
</event>
<event>
 8    1  0.1117714E+005  0.1043930E+01  0.7957747E-01            NaN
         13   -1    0    0    0    0  0.00000000000E+00  0.00000000000E+00  0.74505805969E-08  0.10566000000E+00  0.10566000000E+00 0.  1.
     999900   -1    0    0    0    0 -0.00000000000E+00 -0.00000000000E+00 -0.74505805969E-08  0.93827000000E+00  0.93827000000E+00 0. -1.
     999902    2    1    2    0    0  0.72784030085E-02  0.86451248752E-02  0.31680851823E-01  0.10102938631E+01  0.10097337768E+01 0.  0.
     999903    2    3    3    0    0 -0.34981763721E-02 -0.99906522079E-01  0.68845142180E-01  0.12278004392E+00  0.18486081049E-01 0.  0.
         14    1    1    2    0    0 -0.72784030085E-02 -0.86451248752E-02 -0.31680851823E-01  0.33636136917E-01  0.00000000000E+00 0. -1.
     999901    1    3    3    0    0  0.10776579381E-01  0.10855164695E+00 -0.37164290357E-01  0.88751381916E+00  0.88000000000E+00 0.  1.
        -11    1    4    4    0    0 -0.10354820783E-01 -0.44406950315E-01  0.34109116771E-01  0.56946400392E-01  0.51100000000E-03 0.  1.
         11    1    4    4    0    0  0.68566444114E-02 -0.55499571764E-01  0.34736025409E-01  0.65833643533E-01  0.51100000000E-03 0. -1.
</event>
<event>
 8    1  0.1117714E+005  0.1043930E+01  0.7957747E-01            NaN
         13   -1    0    0    0    0  0.00000000000E+00  0.00000000000E+00  0.74505805969E-08  0.10566000000E+00  0.10566000000E+00 0.  1.
     999900   -1    0    0    0    0 -0.00000000000E+00 -0.00000000000E+00 -0.74505805969E-08  0.93827000000E+00  0.93827000000E+00 0. -1.
     999902    2    1    2    0    0  0.36702957523E-02 -0.22380265004E-01 -0.23178049428E-02  0.10211326415E+01  0.10208781279E+01 0.  0.
     999903    2    3    3    0    0  0.16869003521E-01 -0.27448272382E-01  0.12618666959E+00  0.13168714543E+00  0.19505326264E-01 0.  0.
         14    1    1    2    0    0 -0.36702957523E-02  0.22380265004E-01  0.23178049428E-02  0.22797358450E-01  0.00000000000E+00 0.  1.
     999901    1    3    3    0    0 -0.13198707768E-01  0.50680073774E-02 -0.12850447454E+00  0.88944549612E+00  0.88000000000E+00 0. -1.
        -11    1    4    4    0    0  0.94526049453E-02 -0.44313356741E-02  0.65992339669E-01  0.66814957099E-01  0.51100000000E-03 0.  1.
         11    1    4    4    0    0  0.74163985753E-02 -0.23016936707E-01  0.60194329925E-01  0.64872188335E-01  0.51100000000E-03 0. -1.
</event>
<event>
 8    1  0.1117714E+005  0.1043930E+01  0.7957747E-01            NaN
         13   -1    0    0    0    0  0.00000000000E+00  0.00000000000E+00  0.74505805969E-08  0.10566000000E+00  0.10566000000E+00 0.  1.
     999900   -1    0    0    0    0 -0.00000000000E+00 -0.00000000000E+00 -0.74505805969E-08  0.93827000000E+00  0.93827000000E+00 0. -1.
     999902    2    1    2    0    0  0.17102707017E-01  0.62180361408E-02 -0.14865158935E-01  0.10204323509E+01  0.10201617731E+01 0.  0.
     999903    2    3    3    0    0 -0.56526913676E-01 -0.10136615804E+00  0.51217603159E-01  0.12837707725E+00  0.19673360786E-01 0.  0.
         14    1    1    2    0    0 -0.17102707017E-01 -0.62180361408E-02  0.14865158935E-01  0.23497649051E-01  0.00000000000E+00 0. -1.
     999901    1    3    3    0    0  0.73629620693E-01  0.10758419418E+00 -0.66082762094E-01  0.89205527370E+00  0.88000000000E+00 0. -1.
        -11    1    4    4    0    0 -0.13668124788E-01 -0.29786386338E-01  0.23979839890E-01  0.40612070723E-01  0.51100000000E-03 0. -1.
         11    1    4    4    0    0 -0.42858788888E-01 -0.71579771706E-01  0.27237763270E-01  0.87765006531E-01  0.51100000000E-03 0.  1.
</event>
<event>
 8    1  0.1117714E+005  0.1043930E+01  0.7957747E-01            NaN
         13   -1    0    0    0    0  0.00000000000E+00  0.00000000000E+00  0.74505805969E-08  0.10566000000E+00  0.10566000000E+00 0.  1.
     999900   -1    0    0    0    0 -0.00000000000E+00 -0.00000000000E+00 -0.74505805969E-08  0.93827000000E+00  0.93827000000E+00 0.  1.
     999902    2    1    2    0    0 -0.14061475390E-01  0.54162119266E-02  0.18156430665E-01  0.10203351612E+01  0.10200623142E+01 0.  0.
     999903    2    3    3    0    0  0.37368894203E-01 -0.54702749173E-01 -0.10756325272E+00  0.12788638893E+00  0.19906032203E-01 0.  0.
         14    1    1    2    0    0  0.14061475390E-01 -0.54162119266E-02 -0.18156430665E-01  0.23594838764E-01  0.00000000000E+00 0. -1.
     999901    1    3    3    0    0 -0.51430369593E-01  0.60118961099E-01  0.12571968338E+00  0.89244877231E+00  0.88000000000E+00 0. -1.
        -11    1    4    4    0    0  0.15248461310E-01 -0.18250436351E-01 -0.56861743325E-01  0.61636944882E-01  0.51100000000E-03 0. -1.
         11    1    4    4    0    0  0.22120432892E-01 -0.36452312822E-01 -0.50701509390E-01  0.66249444049E-01  0.51100000000E-03 0.  1.
</event>
<event>
 8    1  0.1117714E+005  0.1043930E+01  0.7957747E-01            NaN
         13   -1    0    0    0    0  0.00000000000E+00  0.00000000000E+00  0.74505805969E-08  0.10566000000E+00  0.10566000000E+00 0.  1.
     999900   -1    0    0    0    0 -0.00000000000E+00 -0.00000000000E+00 -0.74505805969E-08  0.93827000000E+00  0.93827000000E+00 0.  1.
     999902    2    1    2    0    0 -0.12294399897E-01  0.19493387409E-01  0.47930007977E-02  0.10203903042E+01  0.10201187459E+01 0.  0.
     999903    2    3    3    0    0 -0.45334032675E-01 -0.75276584443E-01  0.92977659292E-01  0.13030632002E+00  0.24761931002E-01 0.  0.
         14    1    1    2    0    0  0.12294399897E-01 -0.19493387409E-01 -0.47930007977E-02  0.23539695796E-01  0.00000000000E+00 0. -1.
     999901    1    3    3    0    0  0.33039632778E-01  0.94769971852E-01 -0.88184658494E-01  0.89008398418E+00  0.88000000000E+00 0.  1.
        -11    1    4    4    0    0 -0.27389605334E-01 -0.41948984170E-01  0.35195039972E-01  0.61227932456E-01  0.51100000000E-03 0.  1.
         11    1    4    4    0    0 -0.17944427341E-01 -0.33327600273E-01  0.57782619320E-01  0.69078387568E-01  0.51100000000E-03 0. -1.
</event>
<event>
 8    1  0.1117714E+005  0.1043930E+01  0.7957747E-01            NaN
         13   -1    0    0    0    0  0.00000000000E+00  0.00000000000E+00  0.74505805969E-08  0.10566000000E+00  0.10566000000E+00 0.  1.
     999900   -1    0    0    0    0 -0.00000000000E+00 -0.00000000000E+00 -0.74505805969E-08  0.93827000000E+00  0.93827000000E+00 0.  1.
     999902    2    1    2    0    0  0.20545858045E-01  0.36938894872E-03 -0.83336380841E-02  0.10217552789E+01  0.10215146263E+01 0.  0.
     999903    2    3    3    0    0 -0.67051187481E-02  0.12949919346E+00 -0.59170392023E-02  0.13191093181E+00  0.23462371018E-01 0.  0.
         14    1    1    2    0    0 -0.20545858045E-01 -0.36938894872E-03  0.83336380841E-02  0.22174721074E-01  0.00000000000E+00 0.  1.
     999901    1    3    3    0    0  0.27250976793E-01 -0.12912980451E+00 -0.24165988819E-02  0.88984434712E+00  0.88000000000E+00 0.  1.
        -11    1    4    4    0    0 -0.40645226669E-02  0.49174003237E-01 -0.13572586729E-01  0.51176939830E-01  0.51100000000E-03 0. -1.
         11    1    4    4    0    0 -0.26405960812E-02  0.80325190220E-01  0.76555475272E-02  0.80733991977E-01  0.51100000000E-03 0.  1.
</event>
<event>
 8    1  0.1117714E+005  0.1043930E+01  0.7957747E-01            NaN
         13   -1    0    0    0    0  0.00000000000E+00  0.00000000000E+00  0.74505805969E-08  0.10566000000E+00  0.10566000000E+00 0.  1.
     999900   -1    0    0    0    0 -0.00000000000E+00 -0.00000000000E+00 -0.74505805969E-08  0.93827000000E+00  0.93827000000E+00 0.  1.
     999902    2    1    2    0    0 -0.21108837189E-01 -0.65932322569E-02  0.76868627715E-02  0.10205175764E+01  0.10202489805E+01 0.  0.
     999903    2    3    3    0    0 -0.47540697821E-01  0.90769017460E-01 -0.78476683853E-01  0.13057251760E+00  0.19785347228E-01 0.  0.
         14    1    1    2    0    0  0.21108837189E-01  0.65932322569E-02 -0.76868627715E-02  0.23412423589E-01  0.00000000000E+00 0.  1.
     999901    1    3    3    0    0  0.26431860633E-01 -0.97362249717E-01  0.86163546625E-01  0.88994505881E+00  0.88000000000E+00 0. -1.
        -11    1    4    4    0    0 -0.90763227168E-02  0.34172796725E-01 -0.20436644980E-01  0.40842101429E-01  0.51100000000E-03 0. -1.
         11    1    4    4    0    0 -0.38464375105E-01  0.56596220735E-01 -0.58040038873E-01  0.89730416176E-01  0.51100000000E-03 0.  1.
</event>
<event>
 7    1  0.1117714E+005  0.1043930E+01  0.7957747E-01            NaN
         13   -1    0    0    0    0  0.00000000000E+00  0.00000000000E+00  0.74505805969E-08  0.10566000000E+00  0.10566000000E+00 0. -1.
     999900   -1    0    0    0    0 -0.00000000000E+00 -0.00000000000E+00 -0.74505805969E-08  0.93827000000E+00  0.93827000000E+00 0.  1.
     999902    2    1    2    0    0 -0.15249900726E-01 -0.15466963718E-01 -0.10472343361E-01  0.10198165926E+01  0.10195314739E+01 0.  0.
         14    1    1    2    0    0  0.15249900726E-01  0.15466963718E-01  0.10472343361E-01  0.24113407355E-01  0.00000000000E+00 0. -1.
     999901    1    3    3    0    0  0.55804141865E-01  0.19754199623E-01  0.95739527637E-01  0.88716987539E+00  0.88000000000E+00 0. -1.
        -11    1    3    3    0    0 -0.57752024498E-01 -0.30561751519E-01 -0.88364501709E-01  0.10989933245E+00  0.51100000000E-03 0.  1.
         11    1    3    3    0    0 -0.13302018092E-01 -0.46594118214E-02 -0.17847369288E-01  0.22747384803E-01  0.51100000000E-03 0. -1.
</event>
<event>
 8    1  0.1117714E+005  0.1043930E+01  0.7957747E-01            NaN
         13   -1    0    0    0    0  0.00000000000E+00  0.00000000000E+00  0.74505805969E-08  0.10566000000E+00  0.10566000000E+00 0. -1.
     999900   -1    0    0    0    0 -0.00000000000E+00 -0.00000000000E+00 -0.74505805969E-08  0.93827000000E+00  0.93827000000E+00 0. -1.
     999902    2    1    2    0    0 -0.11731890152E-01 -0.19239361333E-01 -0.81263248670E-02  0.10199753047E+01  0.10196939711E+01 0.  0.
     999903    2    3    3    0    0 -0.10078622892E+00 -0.53765753247E-01 -0.65134645130E-01  0.13297322152E+00  0.19767030162E-01 0.  0.
         14    1    1    2    0    0  0.11731890152E-01  0.19239361333E-01  0.81263248670E-02  0.23954695299E-01  0.00000000000E+00 0. -1.
     999901    1    3    3    0    0  0.89054338773E-01  0.34526391913E-01  0.57008320263E-01  0.88700208318E+00  0.88000000000E+00 0.  1.
        -11    1    4    4    0    0 -0.75770792471E-01 -0.46973647259E-01 -0.56936869253E-01  0.10578187335E+00  0.51100000000E-03 0. -1.
         11    1    4    4    0    0 -0.25015436453E-01 -0.67921059874E-02 -0.81977758767E-02  0.27191348165E-01  0.51100000000E-03 0.  1.
</event>
<event>
 8    1  0.1117714E+005  0.1043930E+01  0.7957747E-01            NaN
         13   -1    0    0    0    0  0.00000000000E+00  0.00000000000E+00  0.74505805969E-08  0.10566000000E+00  0.10566000000E+00 0.  1.
     999900   -1    0    0    0    0 -0.00000000000E+00 -0.00000000000E+00 -0.74505805969E-08  0.93827000000E+00  0.93827000000E+00 0. -1.
     999902    2    1    2    0    0 -0.24314753830E-01  0.59431479242E-03 -0.43139792422E-02  0.10192283628E+01  0.10189289890E+01 0.  0.
     999903    2    3    3    0    0  0.12405714198E+00 -0.17232270333E-01  0.25398124178E-03  0.12661821672E+00  0.18573709440E-01 0.  0.
         14    1    1    2    0    0  0.24314753830E-01 -0.59431479242E-03  0.43139792422E-02  0.24701637209E-01  0.00000000000E+00 0.  1.
     999901    1    3    3    0    0 -0.14837189581E+00  0.17826585126E-01 -0.45679604839E-02  0.89261014607E+00  0.88000000000E+00 0.  1.
        -11    1    4    4    0    0  0.16347268784E-01  0.33298643879E-02  0.28444996299E-02  0.16931435045E-01  0.51100000000E-03 0.  1.
         11    1    4    4    0    0  0.10770987319E+00 -0.20562134721E-01 -0.25905183881E-02  0.10968678168E+00  0.51100000000E-03 0. -1.
</event>
<event>
 8    1  0.1117714E+005  0.1043930E+01  0.7957747E-01            NaN
         13   -1    0    0    0    0  0.00000000000E+00  0.00000000000E+00  0.74505805969E-08  0.10566000000E+00  0.10566000000E+00 0.  1.
     999900   -1    0    0    0    0 -0.00000000000E+00 -0.00000000000E+00 -0.74505805969E-08  0.93827000000E+00  0.93827000000E+00 0. -1.
     999902    2    1    2    0    0 -0.99668182857E-02 -0.20414124433E-01 -0.51776427196E-02  0.10206301732E+01  0.10203641843E+01 0.  0.
     999903    2    3    3    0    0  0.43334717116E-03 -0.10848253864E+00 -0.74951507966E-01  0.13342523564E+00  0.20394018246E-01 0.  0.
         14    1    1    2    0    0  0.99668182857E-02  0.20414124433E-01  0.51776427196E-02  0.23299826764E-01  0.00000000000E+00 0. -1.
     999901    1    3    3    0    0 -0.10400165457E-01  0.88068414205E-01  0.69773865247E-01  0.88720493760E+00  0.88000000000E+00 0.  1.
        -11    1    4    4    0    0 -0.80562870813E-02 -0.31898564436E-01 -0.17185175267E-01  0.37121604823E-01  0.51100000000E-03 0.  1.
         11    1    4    4    0    0  0.84896342525E-02 -0.76583974202E-01 -0.57766332699E-01  0.96303630818E-01  0.51100000000E-03 0. -1.
</event>
<event>
 8    1  0.1117714E+005  0.1043930E+01  0.7957747E-01            NaN
         13   -1    0    0    0    0  0.00000000000E+00  0.00000000000E+00  0.74505805969E-08  0.10566000000E+00  0.10566000000E+00 0.  1.
     999900   -1    0    0    0    0 -0.00000000000E+00 -0.00000000000E+00 -0.74505805969E-08  0.93827000000E+00  0.93827000000E+00 0. -1.
     999902    2    1    2    0    0 -0.44360816288E-02 -0.18200751155E-01  0.16340044736E-01  0.10190715362E+01  0.10187683017E+01 0.  0.
     999903    2    3    3    0    0  0.96594804826E-01  0.76867480496E-01 -0.23274391090E-01  0.12732352679E+00  0.20746501275E-01 0.  0.
         14    1    1    2    0    0  0.44360816288E-02  0.18200751155E-01 -0.16340044736E-01  0.24858463846E-01  0.00000000000E+00 0. -1.
     999901    1    3    3    0    0 -0.10103088646E+00 -0.95068231651E-01  0.39614435825E-01  0.89174800937E+00  0.88000000000E+00 0.  1.
        -11    1    4    4    0    0  0.73044482883E-01  0.46962305790E-01 -0.20008131308E-01  0.89115324632E-01  0.51100000000E-03 0.  1.
         11    1    4    4    0    0  0.23550321943E-01  0.29905174706E-01 -0.32662597818E-02  0.38208202153E-01  0.51100000000E-03 0. -1.
</event>
<event>
 8    1  0.1117714E+005  0.1043930E+01  0.7957747E-01            NaN
         13   -1    0    0    0    0  0.00000000000E+00  0.00000000000E+00  0.74505805969E-08  0.10566000000E+00  0.10566000000E+00 0. -1.
     999900   -1    0    0    0    0 -0.00000000000E+00 -0.00000000000E+00 -0.74505805969E-08  0.93827000000E+00  0.93827000000E+00 0. -1.
     999902    2    1    2    0    0 -0.20965062212E-01  0.46069148722E-02  0.83365725270E-02  0.10209027131E+01  0.10206429806E+01 0.  0.
     999903    2    3    3    0    0  0.97963205920E-01  0.38307266937E-01 -0.71512053864E-01  0.12868331758E+00  0.19523984274E-01 0.  0.
         14    1    1    2    0    0  0.20965062212E-01 -0.46069148722E-02 -0.83365725270E-02  0.23027286850E-01  0.00000000000E+00 0. -1.
     999901    1    3    3    0    0 -0.11892826813E+00 -0.33700352065E-01  0.79848626391E-01  0.89221939557E+00  0.88000000000E+00 0.  1.
        -11    1    4    4    0    0  0.78697053401E-01  0.38003721004E-01 -0.62252206835E-01  0.10729914912E+00  0.51100000000E-03 0. -1.
         11    1    4    4    0    0  0.19266152519E-01  0.30354593334E-03 -0.92598470284E-02  0.21384168467E-01  0.51100000000E-03 0.  1.
</event>
<event>
 8    1  0.1117714E+005  0.1043930E+01  0.7957747E-01            NaN
         13   -1    0    0    0    0  0.00000000000E+00  0.00000000000E+00  0.74505805969E-08  0.10566000000E+00  0.10566000000E+00 0.  1.
     999900   -1    0    0    0    0 -0.00000000000E+00 -0.00000000000E+00 -0.74505805969E-08  0.93827000000E+00  0.93827000000E+00 0.  1.
     999902    2    1    2    0    0  0.13313217115E-01  0.12234354178E-01  0.15332981957E-01  0.10202230072E+01  0.10199475295E+01 0.  0.
     999903    2    3    3    0    0 -0.49546264536E-01  0.11392062329E+00  0.39016646919E-01  0.13182426353E+00  0.20557163657E-01 0.  0.
         14    1    1    2    0    0 -0.13313217115E-01 -0.12234354178E-01 -0.15332981957E-01  0.23706992804E-01  0.00000000000E+00 0. -1.
     999901    1    3    3    0    0  0.62859481651E-01 -0.10168626912E+00 -0.23683664962E-01  0.88839874367E+00  0.88000000000E+00 0.  1.
        -11    1    4    4    0    0  0.10195613622E-02  0.87575252325E-02  0.15195222836E-03  0.88327778217E-02  0.51100000000E-03 0.  1.
         11    1    4    4    0    0 -0.50565825898E-01  0.10516309806E+00  0.38864694690E-01  0.12299148571E+00  0.51100000000E-03 0. -1.
</event>
<event>
 8    1  0.1117714E+005  0.1043930E+01  0.7957747E-01            NaN
         13   -1    0    0    0    0  0.00000000000E+00  0.00000000000E+00  0.74505805969E-08  0.10566000000E+00  0.10566000000E+00 0. -1.
     999900   -1    0    0    0    0 -0.00000000000E+00 -0.00000000000E+00 -0.74505805969E-08  0.93827000000E+00  0.93827000000E+00 0.  1.
     999902    2    1    2    0    0  0.34990702972E-03 -0.27395448494E-01  0.20846710545E-01  0.10095029994E+01  0.10089157979E+01 0.  0.
     999903    2    3    3    0    0 -0.35631989281E-01 -0.82583358698E-01  0.84160121584E-01  0.12477197225E+00  0.19886407437E-01 0.  0.
         14    1    1    2    0    0 -0.34990702972E-03  0.27395448494E-01 -0.20846710545E-01  0.34427000649E-01  0.00000000000E+00 0.  1.
     999901    1    3    3    0    0  0.35981896311E-01  0.55187910204E-01 -0.63313411039E-01  0.88473102710E+00  0.88000000000E+00 0. -1.
        -11    1    4    4    0    0 -0.77378423063E-04 -0.20737461844E-01  0.17613066630E-01  0.27212672568E-01  0.51100000000E-03 0. -1.
         11    1    4    4    0    0 -0.35554610858E-01 -0.61845896853E-01  0.66547054953E-01  0.97559299684E-01  0.51100000000E-03 0.  1.
</event>
<event>
 8    1  0.1117714E+005  0.1043930E+01  0.7957747E-01            NaN
         13   -1    0    0    0    0  0.00000000000E+00  0.00000000000E+00  0.74505805969E-08  0.10566000000E+00  0.10566000000E+00 0. -1.
     999900   -1    0    0    0    0 -0.00000000000E+00 -0.00000000000E+00 -0.74505805969E-08  0.93827000000E+00  0.93827000000E+00 0. -1.
     999902    2    1    2    0    0 -0.13431163178E-01  0.39215636157E-02  0.19985514724E-01  0.10195333690E+01  0.10192414311E+01 0.  0.
     999903    2    3    3    0    0  0.87727852348E-01  0.30858647993E-01  0.89378670186E-01  0.13061595834E+00  0.20580322068E-01 0.  0.
         14    1    1    2    0    0  0.13431163178E-01 -0.39215636157E-02 -0.19985514724E-01  0.24396631003E-01  0.00000000000E+00 0.  1.
     999901    1    3    3    0    0 -0.10115901553E+00 -0.26937084377E-01 -0.69393155463E-01  0.88891741065E+00  0.88000000000E+00 0.  1.
        -11    1    4    4    0    0  0.49050671807E-01  0.27183322683E-01  0.57927355925E-01  0.80627173597E-01  0.51100000000E-03 0.  1.
         11    1    4    4    0    0  0.38677180541E-01  0.36753253093E-02  0.31451314261E-01  0.49988784747E-01  0.51100000000E-03 0. -1.
</event>
<event>
 8    1  0.1117714E+005  0.1043930E+01  0.7957747E-01            NaN
         13   -1    0    0    0    0  0.00000000000E+00  0.00000000000E+00  0.74505805969E-08  0.10566000000E+00  0.10566000000E+00 0. -1.
     999900   -1    0    0    0    0 -0.00000000000E+00 -0.00000000000E+00 -0.74505805969E-08  0.93827000000E+00  0.93827000000E+00 0. -1.
     999902    2    1    2    0    0 -0.19919598804E-01  0.11911752471E-01 -0.36787164441E-02  0.10204307826E+01  0.10201601682E+01 0.  0.
     999903    2    3    3    0    0 -0.76388604004E-01  0.86813937297E-01  0.62574746521E-01  0.13296889205E+00  0.19830502244E-01 0.  0.
         14    1    1    2    0    0  0.19919598804E-01 -0.11911752471E-01  0.36787164441E-02  0.23499217394E-01  0.00000000000E+00 0.  1.
     999901    1    3    3    0    0  0.56469005200E-01 -0.74902184826E-01 -0.66253462966E-01  0.88746189056E+00  0.88000000000E+00 0.  1.
        -11    1    4    4    0    0 -0.20863967271E-01  0.15630632709E-01  0.21452784810E-01  0.33765439524E-01  0.51100000000E-03 0. -1.
         11    1    4    4    0    0 -0.55524636733E-01  0.71183304588E-01  0.41121961712E-01  0.99203452522E-01  0.51100000000E-03 0.  1.
</event>
<event>
 8    1  0.1117714E+005  0.1043930E+01  0.7957747E-01            NaN
         13   -1    0    0    0    0  0.00000000000E+00  0.00000000000E+00  0.74505805969E-08  0.10566000000E+00  0.10566000000E+00 0.  1.
     999900   -1    0    0    0    0 -0.00000000000E+00 -0.00000000000E+00 -0.74505805969E-08  0.93827000000E+00  0.93827000000E+00 0. -1.
     999902    2    1    2    0    0  0.61270317463E-03  0.64791520082E-02  0.22905460768E-01  0.10201179243E+01  0.10198399701E+01 0.  0.
     999903    2    3    3    0    0 -0.80856064147E-01 -0.60365189556E-01 -0.76700941323E-01  0.12825091551E+00  0.19585803751E-01 0.  0.
         14    1    1    2    0    0 -0.61270317463E-03 -0.64791520082E-02 -0.22905460768E-01  0.23812075695E-01  0.00000000000E+00 0. -1.
     999901    1    3    3    0    0  0.81468767322E-01  0.66844341565E-01  0.99606402090E-01  0.89186700880E+00  0.88000000000E+00 0.  1.
        -11    1    4    4    0    0 -0.44268335118E-01 -0.44841380454E-01 -0.48430868981E-01  0.79474807873E-01  0.51100000000E-03 0.  1.
         11    1    4    4    0    0 -0.36587729029E-01 -0.15523809102E-01 -0.28270072341E-01  0.48776107632E-01  0.51100000000E-03 0. -1.
</event>
<event>
 8    1  0.1117714E+005  0.1043930E+01  0.7957747E-01            NaN
         13   -1    0    0    0    0  0.00000000000E+00  0.00000000000E+00  0.74505805969E-08  0.10566000000E+00  0.10566000000E+00 0. -1.
     999900   -1    0    0    0    0 -0.00000000000E+00 -0.00000000000E+00 -0.74505805969E-08  0.93827000000E+00  0.93827000000E+00 0. -1.
     999902    2    1    2    0    0 -0.73915367648E-02 -0.21795702347E-01 -0.40807955877E-02  0.10205560754E+01  0.10202883724E+01 0.  0.
     999903    2    3    3    0    0  0.12373578658E-01  0.10632710489E+00  0.67581645197E-01  0.12817632503E+00  0.20083148357E-01 0.  0.
         14    1    1    2    0    0  0.73915367648E-02  0.21795702347E-01  0.40807955877E-02  0.23373924556E-01  0.00000000000E+00 0.  1.
     999901    1    3    3    0    0 -0.19765115423E-01 -0.12812280724E+00 -0.71662440785E-01  0.89237975041E+00  0.88000000000E+00 0.  1.
        -11    1    4    4    0    0  0.22885217092E-02  0.17796925727E-01  0.21013987796E-01  0.27637233962E-01  0.51100000000E-03 0. -1.
         11    1    4    4    0    0  0.10085056949E-01  0.88530179166E-01  0.46567657401E-01  0.10053909107E+00  0.51100000000E-03 0.  1.
</event>
<event>
 8    1  0.1117714E+005  0.1043930E+01  0.7957747E-01            NaN
         13   -1    0    0    0    0  0.00000000000E+00  0.00000000000E+00  0.74505805969E-08  0.10566000000E+00  0.10566000000E+00 0.  1.
     999900   -1    0    0    0    0 -0.00000000000E+00 -0.00000000000E+00 -0.74505805969E-08  0.93827000000E+00  0.93827000000E+00 0.  1.
     999902    2    1    2    0    0  0.17366391288E-01  0.98656806263E-02 -0.14689421175E-01  0.10191368095E+01  0.10188351850E+01 0.  0.
     999903    2    3    3    0    0 -0.66807918107E-02  0.91981167360E-01 -0.91534775341E-01  0.13165361043E+00  0.21187022322E-01 0.  0.
         14    1    1    2    0    0 -0.17366391288E-01 -0.98656806263E-02  0.14689421175E-01  0.24793190497E-01  0.00000000000E+00 0.  1.
     999901    1    3    3    0    0  0.24047183098E-01 -0.82115486734E-01  0.76845354166E-01  0.88748319907E+00  0.88000000000E+00 0. -1.
        -11    1    4    4    0    0 -0.13881526210E-01  0.59864544425E-01 -0.54947114733E-01  0.82437291243E-01  0.51100000000E-03 0. -1.
         11    1    4    4    0    0  0.72007343993E-02  0.32116622935E-01 -0.36587660609E-01  0.49216319188E-01  0.51100000000E-03 0.  1.
</event>
<event>
 8    1  0.1117714E+005  0.1043930E+01  0.7957747E-01            NaN
         13   -1    0    0    0    0  0.00000000000E+00  0.00000000000E+00  0.74505805969E-08  0.10566000000E+00  0.10566000000E+00 0. -1.
     999900   -1    0    0    0    0 -0.00000000000E+00 -0.00000000000E+00 -0.74505805969E-08  0.93827000000E+00  0.93827000000E+00 0.  1.
     999902    2    1    2    0    0 -0.17405342995E-01  0.96135374574E-02 -0.13081353140E-01  0.10201289944E+01  0.10198513016E+01 0.  0.
     999903    2    3    3    0    0  0.16271587313E-01  0.11007267917E+00  0.64654161090E-01  0.13037117064E+00  0.20873963050E-01 0.  0.
         14    1    1    2    0    0  0.17405342995E-01 -0.96135374574E-02  0.13081353140E-01  0.23801005592E-01  0.00000000000E+00 0. -1.
     999901    1    3    3    0    0 -0.33676930308E-01 -0.10045914171E+00 -0.77735514229E-01  0.88975782377E+00  0.88000000000E+00 0. -1.
        -11    1    4    4    0    0  0.83067185634E-02  0.86797130901E-01  0.58519382125E-01  0.10501201222E+00  0.51100000000E-03 0.  1.
         11    1    4    4    0    0  0.79648687500E-02  0.23275548271E-01  0.61347789646E-02  0.25359158414E-01  0.51100000000E-03 0. -1.
</event>
<event>
 8    1  0.1117714E+005  0.1043930E+01  0.7957747E-01            NaN
         13   -1    0    0    0    0  0.00000000000E+00  0.00000000000E+00  0.74505805969E-08  0.10566000000E+00  0.10566000000E+00 0. -1.
     999900   -1    0    0    0    0 -0.00000000000E+00 -0.00000000000E+00 -0.74505805969E-08  0.93827000000E+00  0.93827000000E+00 0. -1.
     999902    2    1    2    0    0  0.18619653305E-01 -0.11659138896E-01  0.91401334340E-02  0.10201356929E+01  0.10198581583E+01 0.  0.
     999903    2    3    3    0    0 -0.18812471250E-01 -0.38969630351E-01  0.12325590656E+00  0.13155849508E+00  0.15590957699E-01 0.  0.
         14    1    1    2    0    0 -0.18619653305E-01  0.11659138896E-01 -0.91401334340E-02  0.23794307054E-01  0.00000000000E+00 0.  1.
     999901    1    3    3    0    0  0.37432124555E-01  0.27310491455E-01 -0.11411577312E+00  0.88857719787E+00  0.88000000000E+00 0. -1.
        -11    1    4    4    0    0 -0.71295511246E-02 -0.30623984553E-01  0.78993663540E-01  0.85023049402E-01  0.51100000000E-03 0.  1.
         11    1    4    4    0    0 -0.11682920125E-01 -0.83456457981E-02  0.44262243018E-01  0.46535445677E-01  0.51100000000E-03 0. -1.
</event>
<event>
 8    1  0.1117714E+005  0.1043930E+01  0.7957747E-01            NaN
         13   -1    0    0    0    0  0.00000000000E+00  0.00000000000E+00  0.74505805969E-08  0.10566000000E+00  0.10566000000E+00 0.  1.
     999900   -1    0    0    0    0 -0.00000000000E+00 -0.00000000000E+00 -0.74505805969E-08  0.93827000000E+00  0.93827000000E+00 0.  1.
     999902    2    1    2    0    0 -0.44278727676E-02  0.21838313750E-01 -0.74391473430E-02  0.10204383224E+01  0.10201678837E+01 0.  0.
     999903    2    3    3    0    0 -0.35388661077E-01  0.11701818161E+00  0.47852424752E-01  0.13304047721E+00  0.21547664864E-01 0.  0.
         14    1    1    2    0    0  0.44278727676E-02 -0.21838313750E-01  0.74391473430E-02  0.23491677630E-01  0.00000000000E+00 0.  1.
     999901    1    3    3    0    0  0.30960788310E-01 -0.95179867856E-01 -0.55291572095E-01  0.88739784516E+00  0.88000000000E+00 0.  1.
        -11    1    4    4    0    0 -0.21336562046E-01  0.45328679629E-01  0.27732208599E-01  0.57264950813E-01  0.51100000000E-03 0.  1.
         11    1    4    4    0    0 -0.14052099031E-01  0.71689501977E-01  0.20120216152E-01  0.75775526392E-01  0.51100000000E-03 0. -1.
</event>
<event>
 8    1  0.1117714E+005  0.1043930E+01  0.7957747E-01            NaN
         13   -1    0    0    0    0  0.00000000000E+00  0.00000000000E+00  0.74505805969E-08  0.10566000000E+00  0.10566000000E+00 0. -1.
     999900   -1    0    0    0    0 -0.00000000000E+00 -0.00000000000E+00 -0.74505805969E-08  0.93827000000E+00  0.93827000000E+00 0.  1.
     999902    2    1    2    0    0 -0.55592204494E-03  0.23276559892E-01  0.36396391789E-02  0.10203640444E+01  0.10200918728E+01 0.  0.
     999903    2    3    3    0    0 -0.10289754121E+00  0.24898691757E-01 -0.74010615570E-01  0.13103508368E+00  0.22017563436E-01 0.  0.
         14    1    1    2    0    0  0.55592204494E-03 -0.23276559892E-01 -0.36396391789E-02  0.23565955594E-01  0.00000000000E+00 0.  1.
     999901    1    3    3    0    0  0.10234161916E+00 -0.16221318658E-02  0.77650254749E-01  0.88932896073E+00  0.88000000000E+00 0. -1.
        -11    1    4    4    0    0 -0.43409307760E-01  0.63045221786E-02 -0.42962128611E-01  0.61401307933E-01  0.51100000000E-03 0.  1.
         11    1    4    4    0    0 -0.59488233450E-01  0.18594169579E-01 -0.31048486959E-01  0.69633775746E-01  0.51100000000E-03 0. -1.
</event>
<event>
 7    1  0.1117714E+005  0.1043930E+01  0.7957747E-01            NaN
         13   -1    0    0    0    0  0.00000000000E+00  0.00000000000E+00  0.74505805969E-08  0.10566000000E+00  0.10566000000E+00 0.  1.
     999900   -1    0    0    0    0 -0.00000000000E+00 -0.00000000000E+00 -0.74505805969E-08  0.93827000000E+00  0.93827000000E+00 0. -1.
     999902    2    1    2    0    0 -0.57123011395E-02 -0.24838193569E-02 -0.22458504275E-01  0.10206236885E+01  0.10203575497E+01 0.  0.
         14    1    1    2    0    0  0.57123011395E-02  0.24838193569E-02  0.22458504275E-01  0.23306311531E-01  0.00000000000E+00 0.  1.
     999901    1    3    3    0    0  0.43758062978E-01  0.32073993456E-01 -0.10798588861E+00  0.88825923089E+00  0.88000000000E+00 0. -1.
        -11    1    3    3    0    0  0.10757945632E-01 -0.38789993335E-01  0.28618153222E-01  0.49392881997E-01  0.51100000000E-03 0. -1.
         11    1    3    3    0    0 -0.60228309750E-01  0.42321805221E-02  0.56909231108E-01  0.82971575576E-01  0.51100000000E-03 0.  1.
</event>
<event>
 8    1  0.1117714E+005  0.1043930E+01  0.7957747E-01            NaN
         13   -1    0    0    0    0  0.00000000000E+00  0.00000000000E+00  0.74505805969E-08  0.10566000000E+00  0.10566000000E+00 0.  1.
     999900   -1    0    0    0    0 -0.00000000000E+00 -0.00000000000E+00 -0.74505805969E-08  0.93827000000E+00  0.93827000000E+00 0.  1.
     999902    2    1    2    0    0 -0.19658195405E-01 -0.24428467031E-02  0.13346206419E-01  0.10200441596E+01  0.10197644601E+01 0.  0.
     999903    2    3    3    0    0 -0.59780474230E-01 -0.25400898005E-01  0.11545721962E+00  0.13293451112E+00  0.11059112337E-01 0.  0.
         14    1    1    2    0    0  0.19658195405E-01  0.24428467031E-02 -0.13346206419E-01  0.23885840416E-01  0.00000000000E+00 0. -1.
     999901    1    3    3    0    0  0.40122278825E-01  0.22958051302E-01 -0.10211101320E+00  0.88710964846E+00  0.88000000000E+00 0.  1.
        -11    1    4    4    0    0 -0.34039084428E-01 -0.11089372684E-01  0.54126927731E-01  0.64896986693E-01  0.51100000000E-03 0. -1.
         11    1    4    4    0    0 -0.25741389802E-01 -0.14311525321E-01  0.61330291891E-01  0.68037524428E-01  0.51100000000E-03 0.  1.
</event>
<event>
 8    1  0.1117714E+005  0.1043930E+01  0.7957747E-01            NaN
         13   -1    0    0    0    0  0.00000000000E+00  0.00000000000E+00  0.74505805969E-08  0.10566000000E+00  0.10566000000E+00 0. -1.
     999900   -1    0    0    0    0 -0.00000000000E+00 -0.00000000000E+00 -0.74505805969E-08  0.93827000000E+00  0.93827000000E+00 0. -1.
     999902    2    1    2    0    0 -0.16783991479E-01  0.13070614552E-01  0.91275919611E-02  0.10207814305E+01  0.10205189232E+01 0.  0.
     999903    2    3    3    0    0  0.27574978594E-01 -0.12357061182E+00 -0.13458512584E-01  0.12884607686E+00  0.19751061009E-01 0.  0.
         14    1    1    2    0    0  0.16783991479E-01 -0.13070614552E-01 -0.91275919611E-02  0.23148569496E-01  0.00000000000E+00 0.  1.
     999901    1    3    3    0    0 -0.44358970073E-01  0.13664122637E+00  0.22586104545E-01  0.89193535365E+00  0.88000000000E+00 0.  1.
        -11    1    4    4    0    0  0.18613875619E-01 -0.10787863153E+00 -0.15833870887E-01  0.11061305572E+00  0.51100000000E-03 0. -1.
         11    1    4    4    0    0  0.89611029753E-02 -0.15691980286E-01  0.23753583033E-02  0.18233021140E-01  0.51100000000E-03 0.  1.
</event>
<event>
 8    1  0.1117714E+005  0.1043930E+01  0.7957747E-01            NaN
         13   -1    0    0    0    0  0.00000000000E+00  0.00000000000E+00  0.74505805969E-08  0.10566000000E+00  0.10566000000E+00 0. -1.
     999900   -1    0    0    0    0 -0.00000000000E+00 -0.00000000000E+00 -0.74505805969E-08  0.93827000000E+00  0.93827000000E+00 0.  1.
     999902    2    1    2    0    0 -0.14110126273E-01  0.19603545757E-01  0.14163667701E-01  0.10159299258E+01  0.10155439971E+01 0.  0.
     999903    2    3    3    0    0 -0.11696200735E+00  0.13646167044E-01  0.49454706702E-01  0.12921720053E+00  0.19621107534E-01 0.  0.
         14    1    1    2    0    0  0.14110126273E-01 -0.19603545757E-01 -0.14163667701E-01  0.28000074150E-01  0.00000000000E+00 0.  1.
     999901    1    3    3    0    0  0.10285188108E+00  0.59573787134E-02 -0.35291039001E-01  0.88671272532E+00  0.88000000000E+00 0. -1.
        -11    1    4    4    0    0 -0.16164840408E-01  0.37835008580E-02  0.14580444259E-01  0.22101299056E-01  0.51100000000E-03 0.  1.
         11    1    4    4    0    0 -0.10079716694E+00  0.98626661857E-02  0.34874262442E-01  0.10711590148E+00  0.51100000000E-03 0. -1.
</event>
<event>
 8    1  0.1117714E+005  0.1043930E+01  0.7957747E-01            NaN
         13   -1    0    0    0    0  0.00000000000E+00  0.00000000000E+00  0.74505805969E-08  0.10566000000E+00  0.10566000000E+00 0. -1.
     999900   -1    0    0    0    0 -0.00000000000E+00 -0.00000000000E+00 -0.74505805969E-08  0.93827000000E+00  0.93827000000E+00 0. -1.
     999902    2    1    2    0    0  0.22094052094E-01  0.19433605406E-02 -0.73639058935E-02  0.10205601284E+01  0.10202925192E+01 0.  0.
     999903    2    3    3    0    0 -0.11391193711E+00  0.52559440355E-01  0.18433447141E-01  0.12830169048E+00  0.19573135161E-01 0.  0.
         14    1    1    2    0    0 -0.22094052094E-01 -0.19433605406E-02  0.73639058935E-02  0.23369871590E-01  0.00000000000E+00 0. -1.
     999901    1    3    3    0    0  0.13600598920E+00 -0.50616079815E-01 -0.25797353035E-01  0.89225843793E+00  0.88000000000E+00 0.  1.
        -11    1    4    4    0    0 -0.10043259485E+00  0.49367329018E-01  0.10681440703E-01  0.11241972060E+00  0.51100000000E-03 0. -1.
         11    1    4    4    0    0 -0.13479342259E-01  0.31921113371E-02  0.77520064382E-02  0.15881969882E-01  0.51100000000E-03 0.  1.
</event>
<event>
 8    1  0.1117714E+005  0.1043930E+01  0.7957747E-01            NaN
         13   -1    0    0    0    0  0.00000000000E+00  0.00000000000E+00  0.74505805969E-08  0.10566000000E+00  0.10566000000E+00 0. -1.
     999900   -1    0    0    0    0 -0.00000000000E+00 -0.00000000000E+00 -0.74505805969E-08  0.93827000000E+00  0.93827000000E+00 0.  1.
     999902    2    1    2    0    0 -0.22447714844E-01  0.71540045812E-02  0.11976208460E-02  0.10203394515E+01  0.10200667048E+01 0.  0.
     999903    2    3    3    0    0  0.34100190063E-01 -0.10653138191E+00 -0.61108523987E-01  0.12904595980E+00  0.20170516657E-01 0.  0.
         14    1    1    2    0    0  0.22447714844E-01 -0.71540045812E-02 -0.11976208460E-02  0.23590548509E-01  0.00000000000E+00 0.  1.
     999901    1    3    3    0    0 -0.56547904907E-01  0.11368538649E+00  0.62306144833E-01  0.89129349169E+00  0.88000000000E+00 0. -1.
        -11    1    4    4    0    0  0.25294917977E-01 -0.58049700564E-01 -0.43015515382E-01  0.76551918954E-01  0.51100000000E-03 0.  1.
         11    1    4    4    0    0  0.88052720863E-02 -0.48481681346E-01 -0.18093008605E-01  0.52494040843E-01  0.51100000000E-03 0. -1.
</event>
<event>
 8    1  0.1117714E+005  0.1043930E+01  0.7957747E-01            NaN
         13   -1    0    0    0    0  0.00000000000E+00  0.00000000000E+00  0.74505805969E-08  0.10566000000E+00  0.10566000000E+00 0.  1.
     999900   -1    0    0    0    0 -0.00000000000E+00 -0.00000000000E+00 -0.74505805969E-08  0.93827000000E+00  0.93827000000E+00 0.  1.
     999902    2    1    2    0    0 -0.13122912187E-01 -0.25404601317E-02 -0.22224528748E-01  0.10179955742E+01  0.10176651683E+01 0.  0.
     999903    2    3    3    0    0 -0.29573862466E-01  0.13069346482E-01  0.12037661890E+00  0.12622801083E+00  0.19938886178E-01 0.  0.
         14    1    1    2    0    0  0.13122912187E-01  0.25404601317E-02  0.22224528748E-01  0.25934425770E-01  0.00000000000E+00 0.  1.
     999901    1    3    3    0    0  0.16450950279E-01 -0.15609806614E-01 -0.14260114764E+00  0.89176756340E+00  0.88000000000E+00 0.  1.
        -11    1    4    4    0    0 -0.10266840154E-01 -0.86483469094E-03  0.66864311408E-01  0.67655400426E-01  0.51100000000E-03 0. -1.
         11    1    4    4    0    0 -0.19307022312E-01  0.13934181173E-01  0.53512307489E-01  0.58572610402E-01  0.51100000000E-03 0.  1.
</event>
<event>
 8    1  0.1117714E+005  0.1043930E+01  0.7957747E-01            NaN
         13   -1    0    0    0    0  0.00000000000E+00  0.00000000000E+00  0.74505805969E-08  0.10566000000E+00  0.10566000000E+00 0. -1.
     999900   -1    0    0    0    0 -0.00000000000E+00 -0.00000000000E+00 -0.74505805969E-08  0.93827000000E+00  0.93827000000E+00 0.  1.
     999902    2    1    2    0    0  0.13144134778E-02  0.23273568268E-01  0.58079622884E-02  0.10199066970E+01  0.10196237303E+01 0.  0.
     999903    2    3    3    0    0  0.62363469016E-01 -0.21240500894E-01 -0.10929540580E+00  0.12920064283E+00  0.20173230582E-01 0.  0.
         14    1    1    2    0    0 -0.13144134778E-02 -0.23273568268E-01 -0.58079622884E-02  0.24023303034E-01  0.00000000000E+00 0.  1.
     999901    1    3    3    0    0 -0.61049055538E-01  0.44514069162E-01  0.11510336809E+00  0.89070605414E+00  0.88000000000E+00 0. -1.
        -11    1    4    4    0    0  0.46014730876E-02 -0.53646862491E-02 -0.23609827075E-01  0.24650323905E-01  0.51100000000E-03 0. -1.
         11    1    4    4    0    0  0.57761995929E-01 -0.15875814645E-01 -0.85685578724E-01  0.10455031892E+00  0.51100000000E-03 0.  1.
</event>
<event>
 8    1  0.1117714E+005  0.1043930E+01  0.7957747E-01            NaN
         13   -1    0    0    0    0  0.00000000000E+00  0.00000000000E+00  0.74505805969E-08  0.10566000000E+00  0.10566000000E+00 0. -1.
     999900   -1    0    0    0    0 -0.00000000000E+00 -0.00000000000E+00 -0.74505805969E-08  0.93827000000E+00  0.93827000000E+00 0.  1.
     999902    2    1    2    0    0 -0.22747303820E-01 -0.19343365051E-02  0.37863379130E-02  0.10207887415E+01  0.10205264019E+01 0.  0.
     999903    2    3    3    0    0 -0.49757153429E-01  0.69042184193E-01  0.98944453894E-01  0.13240691737E+00  0.22338068286E-01 0.  0.
         14    1    1    2    0    0  0.22747303820E-01  0.19343365051E-02 -0.37863379130E-02  0.23141258470E-01  0.00000000000E+00 0. -1.
     999901    1    3    3    0    0  0.27009849609E-01 -0.70976520698E-01 -0.95158115981E-01  0.88838182416E+00  0.88000000000E+00 0.  1.
        -11    1    4    4    0    0 -0.29734687317E-01  0.32898649921E-01  0.36046945206E-01  0.57149944673E-01  0.51100000000E-03 0.  1.
         11    1    4    4    0    0 -0.20022466112E-01  0.36143534272E-01  0.62897508688E-01  0.75256972694E-01  0.51100000000E-03 0. -1.
</event>
<event>
 8    1  0.1117714E+005  0.1043930E+01  0.7957747E-01            NaN
         13   -1    0    0    0    0  0.00000000000E+00  0.00000000000E+00  0.74505805969E-08  0.10566000000E+00  0.10566000000E+00 0. -1.
     999900   -1    0    0    0    0 -0.00000000000E+00 -0.00000000000E+00 -0.74505805969E-08  0.93827000000E+00  0.93827000000E+00 0.  1.
     999902    2    1    2    0    0 -0.19871564748E-01  0.13291121727E-02  0.14708849562E-01  0.10191712464E+01  0.10188704695E+01 0.  0.
     999903    2    3    3    0    0  0.76291628272E-01 -0.80660054023E-01 -0.58383562824E-01  0.12714429399E+00  0.20750282573E-01 0.  0.
         14    1    1    2    0    0  0.19871564748E-01 -0.13291121727E-02 -0.14708849562E-01  0.24758753606E-01  0.00000000000E+00 0.  1.
     999901    1    3    3    0    0 -0.96163193020E-01  0.81989166196E-01  0.73092412386E-01  0.89202695240E+00  0.88000000000E+00 0.  1.
        -11    1    4    4    0    0  0.13399142157E-01 -0.20458488360E-01 -0.21588620635E-01  0.32625395299E-01  0.51100000000E-03 0. -1.
         11    1    4    4    0    0  0.62892486116E-01 -0.60201565664E-01 -0.36794942189E-01  0.94518898692E-01  0.51100000000E-03 0.  1.
</event>
<event>
 8    1  0.1117714E+005  0.1043930E+01  0.7957747E-01            NaN
         13   -1    0    0    0    0  0.00000000000E+00  0.00000000000E+00  0.74505805969E-08  0.10566000000E+00  0.10566000000E+00 0. -1.
     999900   -1    0    0    0    0 -0.00000000000E+00 -0.00000000000E+00 -0.74505805969E-08  0.93827000000E+00  0.93827000000E+00 0.  1.
     999902    2    1    2    0    0  0.84061938088E-02 -0.20441239798E-01 -0.76220447989E-02  0.10205504374E+01  0.10202826037E+01 0.  0.
     999903    2    3    3    0    0  0.11748469411E+00 -0.13407095479E-01  0.54007746083E-01  0.13164896396E+00  0.20789649288E-01 0.  0.
         14    1    1    2    0    0 -0.84061938088E-02  0.20441239798E-01  0.76220447989E-02  0.23379562566E-01  0.00000000000E+00 0. -1.
     999901    1    3    3    0    0 -0.10907850030E+00 -0.70341443192E-02 -0.61629790882E-01  0.88890147347E+00  0.88000000000E+00 0.  1.
        -11    1    4    4    0    0  0.50057523454E-01  0.25706228561E-02  0.29407809464E-01  0.58115782148E-01  0.51100000000E-03 0.  1.
         11    1    4    4    0    0  0.67427170652E-01 -0.15977718335E-01  0.24599936619E-01  0.73533181816E-01  0.51100000000E-03 0. -1.
</event>
<event>
 8    1  0.1117714E+005  0.1043930E+01  0.7957747E-01            NaN
         13   -1    0    0    0    0  0.00000000000E+00  0.00000000000E+00  0.74505805969E-08  0.10566000000E+00  0.10566000000E+00 0. -1.
     999900   -1    0    0    0    0 -0.00000000000E+00 -0.00000000000E+00 -0.74505805969E-08  0.93827000000E+00  0.93827000000E+00 0. -1.
     999902    2    1    2    0    0 -0.20203547191E-01 -0.97016930270E-02  0.93814132736E-02  0.10196335582E+01  0.10193440420E+01 0.  0.
     999903    2    3    3    0    0 -0.64015043721E-01 -0.94208584892E-02 -0.11137059827E+00  0.13030764814E+00  0.19748281168E-01 0.  0.
         14    1    1    2    0    0  0.20203547191E-01  0.97016930270E-02 -0.93814132736E-02  0.24296441750E-01  0.00000000000E+00 0.  1.
     999901    1    3    3    0    0  0.43811496530E-01 -0.28083453776E-03  0.12075201154E+00  0.88932591011E+00  0.88000000000E+00 0.  1.
        -11    1    4    4    0    0 -0.54683891760E-01 -0.12843181511E-01 -0.82830173200E-01  0.10008183673E+00  0.51100000000E-03 0. -1.
         11    1    4    4    0    0 -0.93311519617E-02  0.34223230218E-02 -0.28540425067E-01  0.30225811417E-01  0.51100000000E-03 0.  1.
</event>
<event>
 8    1  0.1117714E+005  0.1043930E+01  0.7957747E-01            NaN
         13   -1    0    0    0    0  0.00000000000E+00  0.00000000000E+00  0.74505805969E-08  0.10566000000E+00  0.10566000000E+00 0.  1.
     999900   -1    0    0    0    0 -0.00000000000E+00 -0.00000000000E+00 -0.74505805969E-08  0.93827000000E+00  0.93827000000E+00 0. -1.
     999902    2    1    2    0    0  0.23594637866E-01 -0.58469300005E-02  0.33158126292E-02  0.10193965914E+01  0.10191013307E+01 0.  0.
     999903    2    3    3    0    0  0.94364007340E-01 -0.71049508371E-01  0.56369726381E-01  0.13256267362E+00  0.21040861752E-01 0.  0.
         14    1    1    2    0    0 -0.23594637866E-01  0.58469300005E-02 -0.33158126292E-02  0.24533408647E-01  0.00000000000E+00 0. -1.
     999901    1    3    3    0    0 -0.70769369474E-01  0.65202578370E-01 -0.53053913751E-01  0.88683391774E+00  0.88000000000E+00 0. -1.
        -11    1    4    4    0    0  0.36924982335E-01 -0.19338859670E-01  0.28072130199E-01  0.50256854544E-01  0.51100000000E-03 0.  1.
         11    1    4    4    0    0  0.57439025005E-01 -0.51710648701E-01  0.28297596182E-01  0.82305819073E-01  0.51100000000E-03 0. -1.
</event>
<event>
 8    1  0.1117714E+005  0.1043930E+01  0.7957747E-01            NaN
         13   -1    0    0    0    0  0.00000000000E+00  0.00000000000E+00  0.74505805969E-08  0.10566000000E+00  0.10566000000E+00 0.  1.
     999900   -1    0    0    0    0 -0.00000000000E+00 -0.00000000000E+00 -0.74505805969E-08  0.93827000000E+00  0.93827000000E+00 0. -1.
     999902    2    1    2    0    0  0.17779957059E-01 -0.10166995722E-01 -0.12678332337E-01  0.10198419369E+01  0.10195574243E+01 0.  0.
     999903    2    3    3    0    0  0.41176566994E-01 -0.86190817468E-01 -0.90317868207E-01  0.13284987356E+00  0.19167809000E-01 0.  0.
         14    1    1    2    0    0 -0.17779957059E-01  0.10166995722E-01  0.12678332337E-01  0.24088063140E-01  0.00000000000E+00 0. -1.
     999901    1    3    3    0    0 -0.23396609935E-01  0.76023821746E-01  0.77639535870E-01  0.88699206330E+00  0.88000000000E+00 0.  1.
        -11    1    4    4    0    0  0.24749843554E-01 -0.30197948896E-01 -0.37625213728E-01  0.54225351106E-01  0.51100000000E-03 0. -1.
         11    1    4    4    0    0  0.16426723440E-01 -0.55992868572E-01 -0.52692654478E-01  0.78624522452E-01  0.51100000000E-03 0.  1.
</event>
<event>
 8    1  0.1117714E+005  0.1043930E+01  0.7957747E-01            NaN
         13   -1    0    0    0    0  0.00000000000E+00  0.00000000000E+00  0.74505805969E-08  0.10566000000E+00  0.10566000000E+00 0. -1.
     999900   -1    0    0    0    0 -0.00000000000E+00 -0.00000000000E+00 -0.74505805969E-08  0.93827000000E+00  0.93827000000E+00 0. -1.
     999902    2    1    2    0    0  0.38146345652E-02  0.14686203135E-01  0.15030271611E-01  0.10225724471E+01  0.10223493848E+01 0.  0.
     999903    2    3    3    0    0 -0.98135046271E-01 -0.65551181314E-01  0.55978667907E-01  0.13211832342E+00  0.19854355835E-01 0.  0.
         14    1    1    2    0    0 -0.38146345652E-02 -0.14686203135E-01 -0.15030271611E-01  0.21357552858E-01  0.00000000000E+00 0.  1.
     999901    1    3    3    0    0  0.10194968084E+00  0.80237384449E-01 -0.40948396296E-01  0.89045412372E+00  0.88000000000E+00 0. -1.
        -11    1    4    4    0    0 -0.43871814914E-01 -0.36631787005E-01  0.35609529111E-01  0.67341841729E-01  0.51100000000E-03 0.  1.
         11    1    4    4    0    0 -0.54263231357E-01 -0.28919394310E-01  0.20369138796E-01  0.64776481695E-01  0.51100000000E-03 0. -1.
</event>
<event>
 8    1  0.1117714E+005  0.1043930E+01  0.7957747E-01            NaN
         13   -1    0    0    0    0  0.00000000000E+00  0.00000000000E+00  0.74505805969E-08  0.10566000000E+00  0.10566000000E+00 0. -1.
     999900   -1    0    0    0    0 -0.00000000000E+00 -0.00000000000E+00 -0.74505805969E-08  0.93827000000E+00  0.93827000000E+00 0. -1.
     999902    2    1    2    0    0 -0.21001942091E-02  0.23497013002E-01  0.34489643295E-02  0.10200885279E+01  0.10198098789E+01 0.  0.
     999903    2    3    3    0    0 -0.11705078784E+00  0.57713927889E-01 -0.13033589241E-02  0.13194044297E+00  0.19359683371E-01 0.  0.
         14    1    1    2    0    0  0.21001942091E-02 -0.23497013002E-01 -0.34489643295E-02  0.23841472074E-01  0.00000000000E+00 0. -1.
     999901    1    3    3    0    0  0.11495059363E+00 -0.34216914887E-01  0.47523232536E-02  0.88814808496E+00  0.88000000000E+00 0.  1.
        -11    1    4    4    0    0 -0.84269188802E-02  0.97465229917E-02  0.25014209021E-02  0.13134911487E-01  0.51100000000E-03 0. -1.
         11    1    4    4    0    0 -0.10862386896E+00  0.47967404897E-01 -0.38047798262E-02  0.11880553148E+00  0.51100000000E-03 0.  1.
</event>
<event>
 8    1  0.1117714E+005  0.1043930E+01  0.7957747E-01            NaN
         13   -1    0    0    0    0  0.00000000000E+00  0.00000000000E+00  0.74505805969E-08  0.10566000000E+00  0.10566000000E+00 0. -1.
     999900   -1    0    0    0    0 -0.00000000000E+00 -0.00000000000E+00 -0.74505805969E-08  0.93827000000E+00  0.93827000000E+00 0.  1.
     999902    2    1    2    0    0 -0.11048971239E-03 -0.19965009083E-01  0.12005349112E-01  0.10206331718E+01  0.10203672521E+01 0.  0.
     999903    2    3    3    0    0  0.57634189950E-01 -0.83788564428E-01 -0.80979170775E-01  0.13155836328E+00  0.20192906430E-01 0.  0.
         14    1    1    2    0    0  0.11048971239E-03  0.19965009083E-01 -0.12005349112E-01  0.23296828174E-01  0.00000000000E+00 0.  1.
     999901    1    3    3    0    0 -0.57744679663E-01  0.63823555345E-01  0.92984519888E-01  0.88907480854E+00  0.88000000000E+00 0. -1.
        -11    1    4    4    0    0  0.51974374774E-01 -0.71289249340E-01 -0.60783598485E-01  0.10713729356E+00  0.51100000000E-03 0. -1.
         11    1    4    4    0    0  0.56598151761E-02 -0.12499315088E-01 -0.20195572290E-01  0.24421069728E-01  0.51100000000E-03 0.  1.
</event>
<event>
 8    1  0.1117714E+005  0.1043930E+01  0.7957747E-01            NaN
         13   -1    0    0    0    0  0.00000000000E+00  0.00000000000E+00  0.74505805969E-08  0.10566000000E+00  0.10566000000E+00 0. -1.
     999900   -1    0    0    0    0 -0.00000000000E+00 -0.00000000000E+00 -0.74505805969E-08  0.93827000000E+00  0.93827000000E+00 0. -1.
     999902    2    1    2    0    0  0.23932940778E-02  0.18349167250E-02  0.15040328250E-01  0.10285903048E+01  0.10284759155E+01 0.  0.
     999903    2    3    3    0    0  0.21274503364E-01 -0.40697942916E-01 -0.12625649837E+00  0.13610482173E+00  0.21792018437E-01 0.  0.
         14    1    1    2    0    0 -0.23932940778E-02 -0.18349167250E-02 -0.15040328250E-01  0.15339695231E-01  0.00000000000E+00 0.  1.
     999901    1    3    3    0    0 -0.18881209286E-01  0.42532859641E-01  0.14129682662E+00  0.89248548303E+00  0.88000000000E+00 0.  1.
        -11    1    4    4    0    0  0.22980312721E-01 -0.37216910375E-01 -0.12421865977E+00  0.13169559501E+00  0.51100000000E-03 0. -1.
         11    1    4    4    0    0 -0.17058093568E-02 -0.34810325409E-02 -0.20378386058E-02  0.44092267231E-02  0.51100000000E-03 0.  1.
</event>
<event>
 8    1  0.1117714E+005  0.1043930E+01  0.7957747E-01            NaN
         13   -1    0    0    0    0  0.00000000000E+00  0.00000000000E+00  0.74505805969E-08  0.10566000000E+00  0.10566000000E+00 0.  1.
     999900   -1    0    0    0    0 -0.00000000000E+00 -0.00000000000E+00 -0.74505805969E-08  0.93827000000E+00  0.93827000000E+00 0.  1.
     999902    2    1    2    0    0  0.17784140499E-01  0.33743434238E-02  0.18002394516E-01  0.10184006433E+01  0.10180806069E+01 0.  0.
     999903    2    3    3    0    0  0.10272099592E+00  0.33298908430E-01  0.73091974127E-01  0.13209109758E+00  0.21099788416E-01 0.  0.
         14    1    1    2    0    0 -0.17784140499E-01 -0.33743434238E-02 -0.18002394516E-01  0.25529356732E-01  0.00000000000E+00 0.  1.
     999901    1    3    3    0    0 -0.84936855425E-01 -0.29924565006E-01 -0.55089579611E-01  0.88630954569E+00  0.88000000000E+00 0.  1.
        -11    1    4    4    0    0  0.14275758865E-01  0.95987439716E-02  0.19439905120E-01  0.25963516886E-01  0.51100000000E-03 0. -1.
         11    1    4    4    0    0  0.88445237059E-01  0.23700164458E-01  0.53652069007E-01  0.10612758069E+00  0.51100000000E-03 0.  1.
</event>
<event>
 8    1  0.1117714E+005  0.1043930E+01  0.7957747E-01            NaN
         13   -1    0    0    0    0  0.00000000000E+00  0.00000000000E+00  0.74505805969E-08  0.10566000000E+00  0.10566000000E+00 0.  1.
     999900   -1    0    0    0    0 -0.00000000000E+00 -0.00000000000E+00 -0.74505805969E-08  0.93827000000E+00  0.93827000000E+00 0.  1.
     999902    2    1    2    0    0  0.73262157649E-02 -0.88563297318E-02  0.20418118419E-01  0.10204990894E+01  0.10202300642E+01 0.  0.
     999903    2    3    3    0    0  0.67875441843E-01  0.57197076422E-01 -0.91605699403E-01  0.12888336664E+00  0.18459059458E-01 0.  0.
         14    1    1    2    0    0 -0.73262157649E-02  0.88563297318E-02 -0.20418118419E-01  0.23430910642E-01  0.00000000000E+00 0. -1.
     999901    1    3    3    0    0 -0.60549226078E-01 -0.66053406154E-01  0.11202381782E+00  0.89161572272E+00  0.88000000000E+00 0. -1.
        -11    1    4    4    0    0  0.31472662512E-01  0.16048143106E-01 -0.41740075090E-01  0.54686071100E-01  0.51100000000E-03 0. -1.
         11    1    4    4    0    0  0.36402779331E-01  0.41148933315E-01 -0.49865624312E-01  0.74197295537E-01  0.51100000000E-03 0.  1.
</event>
<event>
 8    1  0.1117714E+005  0.1043930E+01  0.7957747E-01            NaN
         13   -1    0    0    0    0  0.00000000000E+00  0.00000000000E+00  0.74505805969E-08  0.10566000000E+00  0.10566000000E+00 0. -1.
     999900   -1    0    0    0    0 -0.00000000000E+00 -0.00000000000E+00 -0.74505805969E-08  0.93827000000E+00  0.93827000000E+00 0. -1.
     999902    2    1    2    0    0  0.27265295529E-01 -0.11788316531E-01 -0.56345346288E-02  0.10136957689E+01  0.10132447894E+01 0.  0.
     999903    2    3    3    0    0 -0.94896840730E-01 -0.10328297384E-01 -0.74550911278E-01  0.12258680470E+00  0.18910372994E-01 0.  0.
         14    1    1    2    0    0 -0.27265295529E-01  0.11788316531E-01  0.56345346288E-02  0.30234231053E-01  0.00000000000E+00 0. -1.
     999901    1    3    3    0    0  0.12216213626E+00 -0.14600191467E-02  0.68916376649E-01  0.89110896425E+00  0.88000000000E+00 0.  1.
        -11    1    4    4    0    0 -0.36203731604E-01  0.52126538603E-02 -0.27031916523E-01  0.45484805971E-01  0.51100000000E-03 0. -1.
         11    1    4    4    0    0 -0.58693109126E-01 -0.15540951244E-01 -0.47518994755E-01  0.77101998729E-01  0.51100000000E-03 0.  1.
</event>
<event>
 7    1  0.1117714E+005  0.1043930E+01  0.7957747E-01            NaN
         13   -1    0    0    0    0  0.00000000000E+00  0.00000000000E+00  0.74505805969E-08  0.10566000000E+00  0.10566000000E+00 0. -1.
     999900   -1    0    0    0    0 -0.00000000000E+00 -0.00000000000E+00 -0.74505805969E-08  0.93827000000E+00  0.93827000000E+00 0.  1.
     999903    2    1    2    0    0 -0.90937687887E-01  0.44819258623E-01 -0.34805839842E-01  0.10909491414E+00  0.20293466488E-01 0.  0.
         14    1    1    2    0    0  0.49836490935E-01  0.24684958319E-02 -0.12161347554E-01  0.51358228890E-01  0.00000000000E+00 0.  1.
     999901    1    1    2    0    0  0.41101196952E-01 -0.47287754455E-01  0.46967187395E-01  0.88347685697E+00  0.88000000000E+00 0. -1.
        -11    1    3    3    0    0 -0.38163624092E-01  0.27343758361E-01 -0.22907574013E-01  0.52241376258E-01  0.51100000000E-03 0.  1.
         11    1    3    3    0    0 -0.52774063795E-01  0.17475500262E-01 -0.11898265828E-01  0.56853537881E-01  0.51100000000E-03 0. -1.
</event>
<event>
 8    1  0.1117714E+005  0.1043930E+01  0.7957747E-01            NaN
         13   -1    0    0    0    0  0.00000000000E+00  0.00000000000E+00  0.74505805969E-08  0.10566000000E+00  0.10566000000E+00 0.  1.
     999900   -1    0    0    0    0 -0.00000000000E+00 -0.00000000000E+00 -0.74505805969E-08  0.93827000000E+00  0.93827000000E+00 0.  1.
     999902    2    1    2    0    0  0.69707655431E-02 -0.22243958800E-01  0.10404841204E-02  0.10205961644E+01  0.10203293894E+01 0.  0.
     999903    2    3    3    0    0 -0.65721597656E-01  0.94119531249E-01  0.54022206269E-01  0.12839007592E+00  0.19692594142E-01 0.  0.
         14    1    1    2    0    0 -0.69707655431E-02  0.22243958800E-01 -0.10404841204E-02  0.23333835573E-01  0.00000000000E+00 0.  1.
     999901    1    3    3    0    0  0.72692363199E-01 -0.11636349005E+00 -0.52981722149E-01  0.89220608851E+00  0.88000000000E+00 0.  1.
        -11    1    4    4    0    0 -0.65168121207E-01  0.87104410463E-01  0.47227976478E-01  0.11859513155E+00  0.51100000000E-03 0.  1.
         11    1    4    4    0    0 -0.55347644848E-03  0.70151207863E-02  0.67942297909E-02  0.97949443734E-02  0.51100000000E-03 0. -1.
</event>
<event>
 8    1  0.1117714E+005  0.1043930E+01  0.7957747E-01            NaN
         13   -1    0    0    0    0  0.00000000000E+00  0.00000000000E+00  0.74505805969E-08  0.10566000000E+00  0.10566000000E+00 0. -1.
     999900   -1    0    0    0    0 -0.00000000000E+00 -0.00000000000E+00 -0.74505805969E-08  0.93827000000E+00  0.93827000000E+00 0. -1.
     999902    2    1    2    0    0 -0.17542399850E-01 -0.13099564992E-01 -0.27895178588E-02  0.10218592998E+01  0.10216209243E+01 0.  0.
     999903    2    3    3    0    0 -0.92309222197E-01 -0.74585189519E-01 -0.60605563728E-01  0.13466526531E+00  0.19435954545E-01 0.  0.
         14    1    1    2    0    0  0.17542399850E-01  0.13099564992E-01  0.27895178588E-02  0.22070700155E-01  0.00000000000E+00 0. -1.
     999901    1    3    3    0    0  0.74766822348E-01  0.61485624527E-01  0.57816045869E-01  0.88719403453E+00  0.88000000000E+00 0.  1.
        -11    1    4    4    0    0 -0.64856826847E-01 -0.43863595664E-01 -0.46756521191E-01  0.91196800427E-01  0.51100000000E-03 0.  1.
         11    1    4    4    0    0 -0.27452395351E-01 -0.30721593854E-01 -0.13849042537E-01  0.43468464887E-01  0.51100000000E-03 0. -1.
</event>
<event>
 8    1  0.1117714E+005  0.1043930E+01  0.7957747E-01            NaN
         13   -1    0    0    0    0  0.00000000000E+00  0.00000000000E+00  0.74505805969E-08  0.10566000000E+00  0.10566000000E+00 0. -1.
     999900   -1    0    0    0    0 -0.00000000000E+00 -0.00000000000E+00 -0.74505805969E-08  0.93827000000E+00  0.93827000000E+00 0.  1.
     999902    2    1    2    0    0  0.13714156752E-01  0.17029315075E-01 -0.92682415038E-02  0.10201818218E+01  0.10199053748E+01 0.  0.
     999903    2    3    3    0    0 -0.10983388700E+00  0.66870382430E-01  0.46992333795E-02  0.13004512361E+00  0.18828717403E-01 0.  0.
         14    1    1    2    0    0 -0.13714156752E-01 -0.17029315075E-01  0.92682415038E-02  0.23748178202E-01  0.00000000000E+00 0. -1.
     999901    1    3    3    0    0  0.12354804376E+00 -0.49841067355E-01 -0.13967474883E-01  0.89013669819E+00  0.88000000000E+00 0.  1.
        -11    1    4    4    0    0 -0.47157529896E-01  0.39462573030E-01  0.41695728494E-02  0.61634193065E-01  0.51100000000E-03 0.  1.
         11    1    4    4    0    0 -0.62676357108E-01  0.27407809400E-01  0.52966053010E-03  0.68410930543E-01  0.51100000000E-03 0. -1.
</event>
<event>
 8    1  0.1117714E+005  0.1043930E+01  0.7957747E-01            NaN
         13   -1    0    0    0    0  0.00000000000E+00  0.00000000000E+00  0.74505805969E-08  0.10566000000E+00  0.10566000000E+00 0.  1.
     999900   -1    0    0    0    0 -0.00000000000E+00 -0.00000000000E+00 -0.74505805969E-08  0.93827000000E+00  0.93827000000E+00 0.  1.
     999902    2    1    2    0    0 -0.40888562022E-02 -0.16165737136E-01  0.14580039466E-01  0.10217798905E+01  0.10215397776E+01 0.  0.
     999903    2    3    3    0    0 -0.62330854746E-01  0.11232459771E+00  0.13533667440E-01  0.13054311415E+00  0.18878394887E-01 0.  0.
         14    1    1    2    0    0  0.40888562022E-02  0.16165737136E-01 -0.14580039466E-01  0.22150109549E-01  0.00000000000E+00 0. -1.
     999901    1    3    3    0    0  0.58241998544E-01 -0.12849033484E+00  0.10463720261E-02  0.89123677630E+00  0.88000000000E+00 0.  1.
        -11    1    4    4    0    0 -0.22252258560E-01  0.53828407796E-01 -0.52913770479E-03  0.58251194019E-01  0.51100000000E-03 0. -1.
         11    1    4    4    0    0 -0.40078596187E-01  0.58496189910E-01  0.14062805145E-01  0.72291920128E-01  0.51100000000E-03 0.  1.
</event>
<event>
 8    1  0.1117714E+005  0.1043930E+01  0.7957747E-01            NaN
         13   -1    0    0    0    0  0.00000000000E+00  0.00000000000E+00  0.74505805969E-08  0.10566000000E+00  0.10566000000E+00 0. -1.
     999900   -1    0    0    0    0 -0.00000000000E+00 -0.00000000000E+00 -0.74505805969E-08  0.93827000000E+00  0.93827000000E+00 0.  1.
     999902    2    1    2    0    0 -0.16036073268E-01  0.84255966574E-02  0.14971756872E-01  0.10204289398E+01  0.10201582825E+01 0.  0.
     999903    2    3    3    0    0 -0.12179502238E+00 -0.42825347346E-01  0.22423339483E-01  0.13258484279E+00  0.20196448504E-01 0.  0.
         14    1    1    2    0    0  0.16036073268E-01 -0.84255966574E-02 -0.14971756872E-01  0.23501060162E-01  0.00000000000E+00 0.  1.
     999901    1    3    3    0    0  0.10575894911E+00  0.51250944003E-01 -0.74515826115E-02  0.88784409705E+00  0.88000000000E+00 0.  1.
        -11    1    4    4    0    0 -0.60541021797E-01 -0.30128776729E-01  0.17383195635E-01  0.69824029667E-01  0.51100000000E-03 0.  1.
         11    1    4    4    0    0 -0.61254000584E-01 -0.12696570617E-01  0.50401438484E-02  0.62760813124E-01  0.51100000000E-03 0. -1.
</event>
<event>
 8    1  0.1117714E+005  0.1043930E+01  0.7957747E-01            NaN
         13   -1    0    0    0    0  0.00000000000E+00  0.00000000000E+00  0.74505805969E-08  0.10566000000E+00  0.10566000000E+00 0. -1.
     999900   -1    0    0    0    0 -0.00000000000E+00 -0.00000000000E+00 -0.74505805969E-08  0.93827000000E+00  0.93827000000E+00 0.  1.
     999902    2    1    2    0    0 -0.61893018253E-02  0.86712887303E-03 -0.23174165049E-01  0.10199278898E+01  0.10196454281E+01 0.  0.
     999903    2    3    3    0    0 -0.33125361548E-01  0.12064012131E+00  0.28604231176E-01  0.12989860748E+00  0.20102679810E-01 0.  0.
         14    1    1    2    0    0  0.61893018253E-02 -0.86712887303E-03  0.23174165049E-01  0.24002110226E-01  0.00000000000E+00 0. -1.
     999901    1    3    3    0    0  0.26936059723E-01 -0.11977299244E+00 -0.51778396225E-01  0.89002928230E+00  0.88000000000E+00 0.  1.
        -11    1    4    4    0    0 -0.11280267371E-01  0.30530093704E-01  0.16172027463E-01  0.36347305909E-01  0.51100000000E-03 0.  1.
         11    1    4    4    0    0 -0.21845094177E-01  0.90110027607E-01  0.12432203713E-01  0.93551301568E-01  0.51100000000E-03 0. -1.
</event>
<event>
 7    1  0.1117714E+005  0.1043930E+01  0.7957747E-01            NaN
         13   -1    0    0    0    0  0.00000000000E+00  0.00000000000E+00  0.74505805969E-08  0.10566000000E+00  0.10566000000E+00 0. -1.
     999900   -1    0    0    0    0 -0.00000000000E+00 -0.00000000000E+00 -0.74505805969E-08  0.93827000000E+00  0.93827000000E+00 0. -1.
     999902    2    1    2    0    0 -0.24750698812E-03  0.19083093204E-01 -0.14908747121E-01  0.10197123113E+01  0.10194246914E+01 0.  0.
         14    1    1    2    0    0  0.24750698812E-03 -0.19083093204E-01  0.14908747121E-01  0.24217688715E-01  0.00000000000E+00 0. -1.
     999901    1    3    3    0    0 -0.25456529861E-01  0.16683988492E-01 -0.13571612042E+00  0.89092382151E+00  0.88000000000E+00 0. -1.
        -11    1    3    3    0    0  0.26494344083E-01 -0.11520980735E-01  0.62965630072E-01  0.69279253438E-01  0.51100000000E-03 0.  1.
         11    1    3    3    0    0 -0.12853212100E-02  0.13920085447E-01  0.57841743227E-01  0.59509236342E-01  0.51100000000E-03 0. -1.
</event>
<event>
 8    1  0.1117714E+005  0.1043930E+01  0.7957747E-01            NaN
         13   -1    0    0    0    0  0.00000000000E+00  0.00000000000E+00  0.74505805969E-08  0.10566000000E+00  0.10566000000E+00 0. -1.
     999900   -1    0    0    0    0 -0.00000000000E+00 -0.00000000000E+00 -0.74505805969E-08  0.93827000000E+00  0.93827000000E+00 0. -1.
     999902    2    1    2    0    0  0.14497269658E-01  0.16498511840E-01 -0.89057580626E-02  0.10202301214E+01  0.10199548109E+01 0.  0.
     999903    2    3    3    0    0 -0.44220998491E-01 -0.99987688344E-01  0.63214463384E-01  0.12769541830E+00  0.18894892032E-01 0.  0.
         14    1    1    2    0    0 -0.14497269658E-01 -0.16498511840E-01  0.89057580626E-02  0.23699878631E-01  0.00000000000E+00 0. -1.
     999901    1    3    3    0    0  0.58718268149E-01  0.11648620018E+00 -0.72120221447E-01  0.89253470307E+00  0.88000000000E+00 0.  1.
        -11    1    4    4    0    0 -0.27070547167E-01 -0.71234719534E-01  0.52497229260E-01  0.92538748597E-01  0.51100000000E-03 0.  1.
         11    1    4    4    0    0 -0.17150451325E-01 -0.28752968810E-01  0.10717234124E-01  0.35156669699E-01  0.51100000000E-03 0. -1.
</event>
<event>
 8    1  0.1117714E+005  0.1043930E+01  0.7957747E-01            NaN
         13   -1    0    0    0    0  0.00000000000E+00  0.00000000000E+00  0.74505805969E-08  0.10566000000E+00  0.10566000000E+00 0.  1.
     999900   -1    0    0    0    0 -0.00000000000E+00 -0.00000000000E+00 -0.74505805969E-08  0.93827000000E+00  0.93827000000E+00 0. -1.
     999902    2    1    2    0    0 -0.20203447341E-01 -0.79019669470E-02  0.10120896036E-01  0.10199914766E+01  0.10197105273E+01 0.  0.
     999903    2    3    3    0    0  0.13570987144E-02  0.77077627261E-01  0.10381201664E+00  0.13068589658E+00  0.18949048091E-01 0.  0.
         14    1    1    2    0    0  0.20203447341E-01  0.79019669470E-02 -0.10120896036E-01  0.23938523402E-01  0.00000000000E+00 0. -1.
     999901    1    3    3    0    0 -0.21560546055E-01 -0.84979594208E-01 -0.93691120605E-01  0.88930558002E+00  0.88000000000E+00 0. -1.
        -11    1    4    4    0    0  0.95620788370E-02  0.54613879029E-01  0.71291056903E-01  0.90314921522E-01  0.51100000000E-03 0. -1.
         11    1    4    4    0    0 -0.82049801226E-02  0.22463748232E-01  0.32520959739E-01  0.40370975054E-01  0.51100000000E-03 0.  1.
</event>
<event>
 8    1  0.1117714E+005  0.1043930E+01  0.7957747E-01            NaN
         13   -1    0    0    0    0  0.00000000000E+00  0.00000000000E+00  0.74505805969E-08  0.10566000000E+00  0.10566000000E+00 0. -1.
     999900   -1    0    0    0    0 -0.00000000000E+00 -0.00000000000E+00 -0.74505805969E-08  0.93827000000E+00  0.93827000000E+00 0. -1.
     999902    2    1    2    0    0 -0.13501020689E-01 -0.16648525657E-01 -0.49044821961E-02  0.10219412549E+01  0.10217046655E+01 0.  0.
     999903    2    3    3    0    0  0.27631692976E-01 -0.11966280639E+00  0.47913976205E-01  0.13340671323E+00  0.20467152431E-01 0.  0.
         14    1    1    2    0    0  0.13501020689E-01  0.16648525657E-01  0.49044821961E-02  0.21988745117E-01  0.00000000000E+00 0. -1.
     999901    1    3    3    0    0 -0.41132713665E-01  0.10301428073E+00 -0.52818458401E-01  0.88853454166E+00  0.88000000000E+00 0.  1.
        -11    1    4    4    0    0  0.14817845279E-01 -0.83567472014E-01  0.23813422700E-01  0.88150049003E-01  0.51100000000E-03 0. -1.
         11    1    4    4    0    0  0.12813847697E-01 -0.36095334375E-01  0.24100553505E-01  0.45256664224E-01  0.51100000000E-03 0.  1.
</event>
<event>
 8    1  0.1117714E+005  0.1043930E+01  0.7957747E-01            NaN
         13   -1    0    0    0    0  0.00000000000E+00  0.00000000000E+00  0.74505805969E-08  0.10566000000E+00  0.10566000000E+00 0. -1.
     999900   -1    0    0    0    0 -0.00000000000E+00 -0.00000000000E+00 -0.74505805969E-08  0.93827000000E+00  0.93827000000E+00 0. -1.
     999902    2    1    2    0    0 -0.14176440415E-01 -0.16098908174E-01  0.11082568187E-01  0.10197852361E+01  0.10194993664E+01 0.  0.
     999903    2    3    3    0    0  0.10957574941E+00  0.48778817494E-02 -0.62455723253E-01  0.12784212662E+00  0.20304023804E-01 0.  0.
         14    1    1    2    0    0  0.14176440415E-01  0.16098908174E-01 -0.11082568187E-01  0.24144763922E-01  0.00000000000E+00 0.  1.
     999901    1    3    3    0    0 -0.12375218982E+00 -0.20976789924E-01  0.73538291440E-01  0.89194310946E+00  0.88000000000E+00 0.  1.
        -11    1    4    4    0    0  0.56101884762E-01 -0.62263841160E-02 -0.37673624284E-01  0.67865693990E-01  0.51100000000E-03 0.  1.
         11    1    4    4    0    0  0.53473864647E-01  0.11104265865E-01 -0.24782098969E-01  0.59976432630E-01  0.51100000000E-03 0. -1.
</event>
<event>
 8    1  0.1117714E+005  0.1043930E+01  0.7957747E-01            NaN
         13   -1    0    0    0    0  0.00000000000E+00  0.00000000000E+00  0.74505805969E-08  0.10566000000E+00  0.10566000000E+00 0. -1.
     999900   -1    0    0    0    0 -0.00000000000E+00 -0.00000000000E+00 -0.74505805969E-08  0.93827000000E+00  0.93827000000E+00 0.  1.
     999902    2    1    2    0    0 -0.11689287532E-01 -0.21927507356E-01 -0.55542123014E-05  0.10190813571E+01  0.10187783652E+01 0.  0.
     999903    2    3    3    0    0 -0.19036764283E-01  0.78489879386E-01  0.97494770376E-01  0.12798991947E+00  0.18791744835E-01 0.  0.
         14    1    1    2    0    0  0.11689287532E-01  0.21927507356E-01  0.55542123014E-05  0.24848642874E-01  0.00000000000E+00 0. -1.
     999901    1    3    3    0    0  0.73474767515E-02 -0.10041738674E+00 -0.97500324588E-01  0.89109143766E+00  0.88000000000E+00 0.  1.
        -11    1    4    4    0    0 -0.46284075452E-02  0.10692374719E-01  0.57430040127E-02  0.12999701906E-01  0.51100000000E-03 0. -1.
         11    1    4    4    0    0 -0.14408356738E-01  0.67797504667E-01  0.91751766363E-01  0.11499021756E+00  0.51100000000E-03 0.  1.
</event>
<event>
 8    1  0.1117714E+005  0.1043930E+01  0.7957747E-01            NaN
         13   -1    0    0    0    0  0.00000000000E+00  0.00000000000E+00  0.74505805969E-08  0.10566000000E+00  0.10566000000E+00 0.  1.
     999900   -1    0    0    0    0 -0.00000000000E+00 -0.00000000000E+00 -0.74505805969E-08  0.93827000000E+00  0.93827000000E+00 0. -1.
     999902    2    1    2    0    0 -0.12204514195E-01  0.18575487501E-01  0.84897481090E-02  0.10201376751E+01  0.10198601872E+01 0.  0.
     999903    2    3    3    0    0 -0.12387797814E+00  0.40551232637E-01 -0.13724359956E-01  0.13253001257E+00  0.19638997970E-01 0.  0.
         14    1    1    2    0    0  0.12204514195E-01 -0.18575487501E-01 -0.84897481090E-02  0.23792324930E-01  0.00000000000E+00 0. -1.
     999901    1    3    3    0    0  0.11167346394E+00 -0.21975745136E-01  0.22214108065E-01  0.88760766250E+00  0.88000000000E+00 0.  1.
        -11    1    4    4    0    0 -0.15133863527E-01  0.23786589052E-02 -0.76204216404E-02  0.17117937680E-01  0.51100000000E-03 0.  1.
         11    1    4    4    0    0 -0.10874411461E+00  0.38172573732E-01 -0.61039383153E-02  0.11541207489E+00  0.51100000000E-03 0. -1.
</event>
<event>
 8    1  0.1117714E+005  0.1043930E+01  0.7957747E-01            NaN
         13   -1    0    0    0    0  0.00000000000E+00  0.00000000000E+00  0.74505805969E-08  0.10566000000E+00  0.10566000000E+00 0. -1.
     999900   -1    0    0    0    0 -0.00000000000E+00 -0.00000000000E+00 -0.74505805969E-08  0.93827000000E+00  0.93827000000E+00 0.  1.
     999902    2    1    2    0    0 -0.16698414305E-01  0.37284457879E-02 -0.16651831263E-01  0.10200548700E+01  0.10197754243E+01 0.  0.
     999903    2    3    3    0    0 -0.92433372473E-01 -0.14159606436E-01 -0.90712934932E-01  0.13352183994E+00  0.29237345573E-01 0.  0.
         14    1    1    2    0    0  0.16698414305E-01 -0.37284457879E-02  0.16651831263E-01  0.23875130004E-01  0.00000000000E+00 0. -1.
     999901    1    3    3    0    0  0.75734958167E-01  0.17888052224E-01  0.74061103669E-01  0.88653303005E+00  0.88000000000E+00 0. -1.
        -11    1    4    4    0    0 -0.52055248362E-01  0.49682370423E-02 -0.39364102836E-01  0.65453998918E-01  0.51100000000E-03 0.  1.
         11    1    4    4    0    0 -0.40378124111E-01 -0.19127843479E-01 -0.51348832096E-01  0.68067841023E-01  0.51100000000E-03 0. -1.
</event>
<event>
 8    1  0.1117714E+005  0.1043930E+01  0.7957747E-01            NaN
         13   -1    0    0    0    0  0.00000000000E+00  0.00000000000E+00  0.74505805969E-08  0.10566000000E+00  0.10566000000E+00 0.  1.
     999900   -1    0    0    0    0 -0.00000000000E+00 -0.00000000000E+00 -0.74505805969E-08  0.93827000000E+00  0.93827000000E+00 0.  1.
     999902    2    1    2    0    0 -0.12836430489E-01 -0.16948432482E-01 -0.10579605384E-01  0.10201823399E+01  0.10199059051E+01 0.  0.
     999903    2    3    3    0    0 -0.47134809696E-01  0.10685514397E+00 -0.52978809678E-01  0.12984454056E+00  0.20325805312E-01 0.  0.
         14    1    1    2    0    0  0.12836430489E-01  0.16948432482E-01  0.10579605384E-01  0.23747660125E-01  0.00000000000E+00 0.  1.
     999901    1    3    3    0    0  0.34298379207E-01 -0.12380357645E+00  0.42399204294E-01  0.89033779931E+00  0.88000000000E+00 0.  1.
        -11    1    4    4    0    0 -0.40917216789E-01  0.78308877166E-01 -0.32416550192E-01  0.94114784811E-01  0.51100000000E-03 0. -1.
         11    1    4    4    0    0 -0.62175929073E-02  0.28546266803E-01 -0.20562259486E-01  0.35729755753E-01  0.51100000000E-03 0.  1.
</event>
<event>
 8    1  0.1117714E+005  0.1043930E+01  0.7957747E-01            NaN
         13   -1    0    0    0    0  0.00000000000E+00  0.00000000000E+00  0.74505805969E-08  0.10566000000E+00  0.10566000000E+00 0. -1.
     999900   -1    0    0    0    0 -0.00000000000E+00 -0.00000000000E+00 -0.74505805969E-08  0.93827000000E+00  0.93827000000E+00 0.  1.
     999902    2    1    2    0    0 -0.19062486695E-01 -0.86741504242E-02 -0.14797384826E-01  0.10182866406E+01  0.10179637029E+01 0.  0.
     999903    2    3    3    0    0 -0.17779941368E-01 -0.10613555119E+00  0.68574529789E-01  0.12898846465E+00  0.18832852579E-01 0.  0.
         14    1    1    2    0    0  0.19062486695E-01  0.86741504242E-02  0.14797384826E-01  0.25643359419E-01  0.00000000000E+00 0.  1.
     999901    1    3    3    0    0 -0.12825453264E-02  0.97461400766E-01 -0.83371914615E-01  0.88929817593E+00  0.88000000000E+00 0. -1.
        -11    1    4    4    0    0  0.16870904570E-02 -0.34928652965E-02  0.61398376652E-02  0.72804608196E-02  0.51100000000E-03 0.  1.
         11    1    4    4    0    0 -0.19467031825E-01 -0.10264268589E+00  0.62434692124E-01  0.12170800383E+00  0.51100000000E-03 0. -1.
</event>
<event>
 8    1  0.1117714E+005  0.1043930E+01  0.7957747E-01            NaN
         13   -1    0    0    0    0  0.00000000000E+00  0.00000000000E+00  0.74505805969E-08  0.10566000000E+00  0.10566000000E+00 0.  1.
     999900   -1    0    0    0    0 -0.00000000000E+00 -0.00000000000E+00 -0.74505805969E-08  0.93827000000E+00  0.93827000000E+00 0.  1.
     999902    2    1    2    0    0  0.75810542583E-02 -0.73901978920E-02 -0.21840260320E-01  0.10196589395E+01  0.10193700351E+01 0.  0.
     999903    2    3    3    0    0 -0.63072584101E-01  0.91441982269E-01  0.59496945109E-01  0.12759645430E+00  0.20029520396E-01 0.  0.
         14    1    1    2    0    0 -0.75810542583E-02  0.73901978920E-02  0.21840260320E-01  0.24271060533E-01  0.00000000000E+00 0.  1.
     999901    1    3    3    0    0  0.70653638359E-01 -0.98832180161E-01 -0.81337205429E-01  0.89206248516E+00  0.88000000000E+00 0.  1.
        -11    1    4    4    0    0 -0.50627681559E-01  0.56959609104E-01  0.40667735332E-01  0.86381045533E-01  0.51100000000E-03 0.  1.
         11    1    4    4    0    0 -0.12444902541E-01  0.34482373165E-01  0.18829209777E-01  0.41215408771E-01  0.51100000000E-03 0. -1.
</event>
<event>
 8    1  0.1117714E+005  0.1043930E+01  0.7957747E-01            NaN
         13   -1    0    0    0    0  0.00000000000E+00  0.00000000000E+00  0.74505805969E-08  0.10566000000E+00  0.10566000000E+00 0. -1.
     999900   -1    0    0    0    0 -0.00000000000E+00 -0.00000000000E+00 -0.74505805969E-08  0.93827000000E+00  0.93827000000E+00 0.  1.
     999902    2    1    2    0    0  0.93421685991E-02 -0.20597801718E-01 -0.83909138813E-03  0.10212970677E+01  0.10210462531E+01 0.  0.
     999903    2    3    3    0    0 -0.32106377940E-02 -0.70407000840E-01  0.11078957058E+00  0.13275923090E+00  0.19576273362E-01 0.  0.
         14    1    1    2    0    0 -0.93421685991E-02  0.20597801718E-01  0.83909138813E-03  0.22632932291E-01  0.00000000000E+00 0.  1.
     999901    1    3    3    0    0  0.12552806393E-01  0.49809199122E-01 -0.11162866196E+00  0.88853783681E+00  0.88000000000E+00 0.  1.
        -11    1    4    4    0    0 -0.42300598967E-02 -0.48482074349E-01  0.91022500953E-01  0.10321706129E+00  0.51100000000E-03 0.  1.
         11    1    4    4    0    0  0.10194221027E-02 -0.21924926491E-01  0.19767069624E-01  0.29542169615E-01  0.51100000000E-03 0. -1.
</event>
<event>
 8    1  0.1117714E+005  0.1043930E+01  0.7957747E-01            NaN
         13   -1    0    0    0    0  0.00000000000E+00  0.00000000000E+00  0.74505805969E-08  0.10566000000E+00  0.10566000000E+00 0.  1.
     999900   -1    0    0    0    0 -0.00000000000E+00 -0.00000000000E+00 -0.74505805969E-08  0.93827000000E+00  0.93827000000E+00 0.  1.
     999902    2    1    2    0    0 -0.14195788434E-01  0.66416892232E-02  0.17470007846E-01  0.10204601551E+01  0.10201902247E+01 0.  0.
     999903    2    3    3    0    0 -0.12537097396E+00  0.23974860496E-01 -0.27499050424E-01  0.13215695411E+00  0.20410480115E-01 0.  0.
         14    1    1    2    0    0  0.14195788434E-01 -0.66416892232E-02 -0.17470007846E-01  0.23469844890E-01  0.00000000000E+00 0. -1.
     999901    1    3    3    0    0  0.11117518552E+00 -0.17333171273E-01  0.44969058271E-01  0.88830320100E+00  0.88000000000E+00 0. -1.
        -11    1    4    4    0    0 -0.43821873371E-01 -0.32160509297E-03 -0.47984802117E-02  0.44087941083E-01  0.51100000000E-03 0.  1.
         11    1    4    4    0    0 -0.81549100588E-01  0.24296465589E-01 -0.22700570213E-01  0.88069013028E-01  0.51100000000E-03 0. -1.
</event>
<event>
 7    1  0.1117714E+005  0.1043930E+01  0.7957747E-01            NaN
         13   -1    0    0    0    0  0.00000000000E+00  0.00000000000E+00  0.74505805969E-08  0.10566000000E+00  0.10566000000E+00 0.  1.
     999900   -1    0    0    0    0 -0.00000000000E+00 -0.00000000000E+00 -0.74505805969E-08  0.93827000000E+00  0.93827000000E+00 0. -1.
     999902    2    1    2    0    0 -0.16432106113E-01  0.65506224545E-02  0.33825245539E-02  0.10259198296E+01  0.10257617318E+01 0.  0.
         14    1    1    2    0    0  0.16432106113E-01 -0.65506224545E-02 -0.33825245539E-02  0.18010170411E-01  0.00000000000E+00 0. -1.
     999901    1    3    3    0    0 -0.93715436426E-01  0.28910767156E-01  0.96486209514E-01  0.89068962277E+00  0.88000000000E+00 0.  1.
        -11    1    3    3    0    0  0.10323379682E-01 -0.10613204832E-01 -0.55698199370E-01  0.57634736218E-01  0.51100000000E-03 0. -1.
         11    1    3    3    0    0  0.66959950631E-01 -0.11746939869E-01 -0.37405485590E-01  0.77595470602E-01  0.51100000000E-03 0.  1.
</event>
<event>
 8    1  0.1117714E+005  0.1043930E+01  0.7957747E-01            NaN
         13   -1    0    0    0    0  0.00000000000E+00  0.00000000000E+00  0.74505805969E-08  0.10566000000E+00  0.10566000000E+00 0.  1.
     999900   -1    0    0    0    0 -0.00000000000E+00 -0.00000000000E+00 -0.74505805969E-08  0.93827000000E+00  0.93827000000E+00 0. -1.
     999902    2    1    2    0    0  0.18566958856E-01 -0.12183464335E-01 -0.11327305794E-02  0.10216937269E+01  0.10214517217E+01 0.  0.
     999903    2    3    3    0    0  0.62188512561E-01 -0.92857129664E-01  0.71132272681E-01  0.13398132359E+00  0.20033402894E-01 0.  0.
         14    1    1    2    0    0 -0.18566958856E-01  0.12183464335E-01  0.11327305794E-02  0.22236273135E-01  0.00000000000E+00 0.  1.
     999901    1    3    3    0    0 -0.43621553705E-01  0.80673665329E-01 -0.72265003260E-01  0.88771240327E+00  0.88000000000E+00 0.  1.
        -11    1    4    4    0    0  0.38731970527E-01 -0.72326330797E-01  0.55927745772E-01  0.99294700441E-01  0.51100000000E-03 0. -1.
         11    1    4    4    0    0  0.23456542034E-01 -0.20530798866E-01  0.15204526909E-01  0.34686623153E-01  0.51100000000E-03 0.  1.
</event>
<event>
 8    1  0.1117714E+005  0.1043930E+01  0.7957747E-01            NaN
         13   -1    0    0    0    0  0.00000000000E+00  0.00000000000E+00  0.74505805969E-08  0.10566000000E+00  0.10566000000E+00 0. -1.
     999900   -1    0    0    0    0 -0.00000000000E+00 -0.00000000000E+00 -0.74505805969E-08  0.93827000000E+00  0.93827000000E+00 0.  1.
     999902    2    1    2    0    0 -0.37656282937E-02  0.19364540850E-01 -0.13880328187E-01  0.10198088701E+01  0.10195235665E+01 0.  0.
     999903    2    3    3    0    0  0.66141667302E-01  0.94564074668E-01 -0.62151189863E-01  0.13252533255E+00  0.19573170251E-01 0.  0.
         14    1    1    2    0    0  0.37656282937E-02 -0.19364540850E-01  0.13880328187E-01  0.24121129935E-01  0.00000000000E+00 0. -1.
     999901    1    3    3    0    0 -0.69907295596E-01 -0.75199533818E-01  0.48270861676E-01  0.88728353752E+00  0.88000000000E+00 0. -1.
        -11    1    4    4    0    0  0.29249673560E-01  0.49954333766E-01 -0.21350511328E-01  0.61701574699E-01  0.51100000000E-03 0. -1.
         11    1    4    4    0    0  0.36891993742E-01  0.44609740903E-01 -0.40800678536E-01  0.70823757847E-01  0.51100000000E-03 0.  1.
</event>
<event>
 8    1  0.1117714E+005  0.1043930E+01  0.7957747E-01            NaN
         13   -1    0    0    0    0  0.00000000000E+00  0.00000000000E+00  0.74505805969E-08  0.10566000000E+00  0.10566000000E+00 0. -1.
     999900   -1    0    0    0    0 -0.00000000000E+00 -0.00000000000E+00 -0.74505805969E-08  0.93827000000E+00  0.93827000000E+00 0.  1.
     999902    2    1    2    0    0 -0.78501470894E-02 -0.13211043261E-01 -0.18137722463E-01  0.10201574644E+01  0.10198804433E+01 0.  0.
     999903    2    3    3    0    0 -0.11829487790E+00 -0.51696014865E-01 -0.66151629999E-02  0.13234447677E+00  0.28375060506E-01 0.  0.
         14    1    1    2    0    0  0.78501470894E-02  0.13211043261E-01  0.18137722463E-01  0.23772535614E-01  0.00000000000E+00 0. -1.
     999901    1    3    3    0    0  0.11044473081E+00  0.38484971604E-01 -0.11522559463E-01  0.88781298762E+00  0.88000000000E+00 0. -1.
        -11    1    4    4    0    0 -0.53897179896E-01 -0.22509928046E-01 -0.17109052086E-01  0.60865290976E-01  0.51100000000E-03 0.  1.
         11    1    4    4    0    0 -0.64397698008E-01 -0.29186086819E-01  0.10493889086E-01  0.71479185793E-01  0.51100000000E-03 0. -1.
</event>
<event>
 8    1  0.1117714E+005  0.1043930E+01  0.7957747E-01            NaN
         13   -1    0    0    0    0  0.00000000000E+00  0.00000000000E+00  0.74505805969E-08  0.10566000000E+00  0.10566000000E+00 0. -1.
     999900   -1    0    0    0    0 -0.00000000000E+00 -0.00000000000E+00 -0.74505805969E-08  0.93827000000E+00  0.93827000000E+00 0. -1.
     999902    2    1    2    0    0  0.87995484221E-02  0.18362271639E-01 -0.11881097256E-01  0.10203553199E+01  0.10200829443E+01 0.  0.
     999903    2    3    3    0    0 -0.42429994763E-01  0.86341573433E-01 -0.89506803504E-01  0.13284678364E+00  0.19535308873E-01 0.  0.
         14    1    1    2    0    0 -0.87995484221E-02 -0.18362271639E-01  0.11881097256E-01  0.23574680150E-01  0.00000000000E+00 0.  1.
     999901    1    3    3    0    0  0.51229543185E-01 -0.67979301794E-01  0.77625706248E-01  0.88750853621E+00  0.88000000000E+00 0.  1.
        -11    1    4    4    0    0 -0.35836227226E-01  0.64930996164E-01 -0.78092325324E-01  0.10769838365E+00  0.51100000000E-03 0.  1.
         11    1    4    4    0    0 -0.65937675371E-02  0.21410577269E-01 -0.11414478180E-01  0.25148399998E-01  0.51100000000E-03 0. -1.
</event>
<event>
 8    1  0.1117714E+005  0.1043930E+01  0.7957747E-01            NaN
         13   -1    0    0    0    0  0.00000000000E+00  0.00000000000E+00  0.74505805969E-08  0.10566000000E+00  0.10566000000E+00 0.  1.
     999900   -1    0    0    0    0 -0.00000000000E+00 -0.00000000000E+00 -0.74505805969E-08  0.93827000000E+00  0.93827000000E+00 0. -1.
     999902    2    1    2    0    0 -0.99590783844E-03  0.20855455141E-01 -0.11851564919E-01  0.10199216383E+01  0.10196390277E+01 0.  0.
     999903    2    3    3    0    0 -0.29246403140E-01  0.73260380703E-01  0.10091171739E+00  0.13073103748E+00  0.26172389602E-01 0.  0.
         14    1    1    2    0    0  0.99590783844E-03 -0.20855455141E-01  0.11851564919E-01  0.24008361722E-01  0.00000000000E+00 0.  1.
     999901    1    3    3    0    0  0.28250495301E-01 -0.52404925563E-01 -0.11276328231E+00  0.88919060080E+00  0.88000000000E+00 0. -1.
        -11    1    4    4    0    0 -0.52598069478E-02  0.46081797783E-01  0.49652256299E-01  0.67947077440E-01  0.51100000000E-03 0. -1.
         11    1    4    4    0    0 -0.23986596192E-01  0.27178582921E-01  0.51259461088E-01  0.62783960042E-01  0.51100000000E-03 0.  1.
</event>
<event>
 8    1  0.1117714E+005  0.1043930E+01  0.7957747E-01            NaN
         13   -1    0    0    0    0  0.00000000000E+00  0.00000000000E+00  0.74505805969E-08  0.10566000000E+00  0.10566000000E+00 0. -1.
     999900   -1    0    0    0    0 -0.00000000000E+00 -0.00000000000E+00 -0.74505805969E-08  0.93827000000E+00  0.93827000000E+00 0.  1.
     999902    2    1    2    0    0  0.21749962989E-01  0.80835880631E-02 -0.20639853320E-02  0.10206348219E+01  0.10203689403E+01 0.  0.
     999903    2    3    3    0    0  0.76504689960E-01 -0.10310986715E+00  0.21182471859E-01  0.13164524810E+00  0.19928922270E-01 0.  0.
         14    1    1    2    0    0 -0.21749962989E-01 -0.80835880631E-02  0.20639853320E-02  0.23295178073E-01  0.00000000000E+00 0. -1.
     999901    1    3    3    0    0 -0.54754726970E-01  0.11119345521E+00 -0.23246457191E-01  0.88898957383E+00  0.88000000000E+00 0.  1.
        -11    1    4    4    0    0  0.51824346056E-01 -0.55866862826E-01  0.72361593191E-02  0.76547320846E-01  0.51100000000E-03 0. -1.
         11    1    4    4    0    0  0.24680343904E-01 -0.47243004324E-01  0.13946312540E-01  0.55097927250E-01  0.51100000000E-03 0.  1.
</event>
<event>
 8    1  0.1117714E+005  0.1043930E+01  0.7957747E-01            NaN
         13   -1    0    0    0    0  0.00000000000E+00  0.00000000000E+00  0.74505805969E-08  0.10566000000E+00  0.10566000000E+00 0. -1.
     999900   -1    0    0    0    0 -0.00000000000E+00 -0.00000000000E+00 -0.74505805969E-08  0.93827000000E+00  0.93827000000E+00 0. -1.
     999902    2    1    2    0    0 -0.16826948573E-01  0.52233617706E-02  0.15902620990E-01  0.10201955722E+01  0.10199194491E+01 0.  0.
     999903    2    3    3    0    0 -0.59077474347E-01 -0.56421181206E-01  0.10273462402E+00  0.13276954527E+00  0.19996287497E-01 0.  0.
         14    1    1    2    0    0  0.16826948573E-01 -0.52233617706E-02 -0.15902620990E-01  0.23734427754E-01  0.00000000000E+00 0.  1.
     999901    1    3    3    0    0  0.42250525774E-01  0.61644542976E-01 -0.86832003033E-01  0.88742602698E+00  0.88000000000E+00 0. -1.
        -11    1    4    4    0    0 -0.17830955206E-01 -0.18848324101E-01  0.19063622479E-01  0.32200700428E-01  0.51100000000E-03 0.  1.
         11    1    4    4    0    0 -0.41246519141E-01 -0.37572857104E-01  0.83671001543E-01  0.10056884484E+00  0.51100000000E-03 0. -1.
</event>
<event>
 8    1  0.1117714E+005  0.1043930E+01  0.7957747E-01            NaN
         13   -1    0    0    0    0  0.00000000000E+00  0.00000000000E+00  0.74505805969E-08  0.10566000000E+00  0.10566000000E+00 0.  1.
     999900   -1    0    0    0    0 -0.00000000000E+00 -0.00000000000E+00 -0.74505805969E-08  0.93827000000E+00  0.93827000000E+00 0.  1.
     999902    2    1    2    0    0  0.34217987009E-03 -0.17006249689E-01 -0.19785260086E-01  0.10178381213E+01  0.10175036389E+01 0.  0.
     999903    2    3    3    0    0 -0.11817557008E+00 -0.47024480539E-01 -0.11447314839E-01  0.12934666242E+00  0.20560907780E-01 0.  0.
         14    1    1    2    0    0 -0.34217987009E-03  0.17006249689E-01  0.19785260086E-01  0.26091878664E-01  0.00000000000E+00 0.  1.
     999901    1    3    3    0    0  0.11851774995E+00  0.30018230850E-01 -0.83379452471E-02  0.88849145892E+00  0.88000000000E+00 0. -1.
        -11    1    4    4    0    0 -0.14042105450E-01  0.11074900915E-02 -0.47579079442E-03  0.14103005271E-01  0.51100000000E-03 0. -1.
         11    1    4    4    0    0 -0.10413346463E+00 -0.48131970630E-01 -0.10971524045E-01  0.11524365715E+00  0.51100000000E-03 0.  1.
</event>
<event>
 8    1  0.1117714E+005  0.1043930E+01  0.7957747E-01            NaN
         13   -1    0    0    0    0  0.00000000000E+00  0.00000000000E+00  0.74505805969E-08  0.10566000000E+00  0.10566000000E+00 0.  1.
     999900   -1    0    0    0    0 -0.00000000000E+00 -0.00000000000E+00 -0.74505805969E-08  0.93827000000E+00  0.93827000000E+00 0.  1.
     999902    2    1    2    0    0 -0.22015467336E-01 -0.21336327163E-02 -0.88564169368E-02  0.10201041881E+01  0.10198259093E+01 0.  0.
     999903    2    3    3    0    0  0.92333298483E-01  0.76593725891E-01 -0.41987645082E-01  0.12860471223E+00  0.19600326889E-01 0.  0.
         14    1    1    2    0    0  0.22015467336E-01  0.21336327163E-02  0.88564169368E-02  0.23825811876E-01  0.00000000000E+00 0.  1.
     999901    1    3    3    0    0 -0.11434876582E+00 -0.78727358607E-01  0.33131228146E-01  0.89149947589E+00  0.88000000000E+00 0.  1.
        -11    1    4    4    0    0  0.31069769525E-01  0.18585588146E-01 -0.20219651044E-01  0.41471075154E-01  0.51100000000E-03 0.  1.
         11    1    4    4    0    0  0.61263528958E-01  0.58008137746E-01 -0.21767994038E-01  0.87133637078E-01  0.51100000000E-03 0. -1.
</event>
<event>
 8    1  0.1117714E+005  0.1043930E+01  0.7957747E-01            NaN
         13   -1    0    0    0    0  0.00000000000E+00  0.00000000000E+00  0.74505805969E-08  0.10566000000E+00  0.10566000000E+00 0. -1.
     999900   -1    0    0    0    0 -0.00000000000E+00 -0.00000000000E+00 -0.74505805969E-08  0.93827000000E+00  0.93827000000E+00 0. -1.
     999902    2    1    2    0    0  0.22291075242E-01  0.60474932523E-02  0.35266142753E-02  0.10205654709E+01  0.10202979855E+01 0.  0.
     999903    2    3    3    0    0 -0.38391058958E-01  0.91191859836E-01  0.83122720626E-01  0.13080852395E+00  0.20289271659E-01 0.  0.
         14    1    1    2    0    0 -0.22291075242E-01 -0.60474932523E-02 -0.35266142753E-02  0.23364529063E-01  0.00000000000E+00 0. -1.
     999901    1    3    3    0    0  0.60682134201E-01 -0.85144366584E-01 -0.79596106350E-01  0.88975694699E+00  0.88000000000E+00 0. -1.
        -11    1    4    4    0    0 -0.36240520531E-01  0.86662377528E-01  0.71219482856E-01  0.11788222456E+00  0.51100000000E-03 0. -1.
         11    1    4    4    0    0 -0.21505384274E-02  0.45294823084E-02  0.11903237770E-01  0.12926299390E-01  0.51100000000E-03 0.  1.
</event>
<event>
 8    1  0.1117714E+005  0.1043930E+01  0.7957747E-01            NaN
         13   -1    0    0    0    0  0.00000000000E+00  0.00000000000E+00  0.74505805969E-08  0.10566000000E+00  0.10566000000E+00 0. -1.
     999900   -1    0    0    0    0 -0.00000000000E+00 -0.00000000000E+00 -0.74505805969E-08  0.93827000000E+00  0.93827000000E+00 0.  1.
     999902    2    1    2    0    0  0.21782761945E-01  0.83113732454E-02 -0.83616675616E-02  0.10191613681E+01  0.10188603482E+01 0.  0.
     999903    2    3    3    0    0  0.37993779950E-01  0.96344666258E-01 -0.78447928433E-01  0.13184815294E+00  0.22450744468E-01 0.  0.
         14    1    1    2    0    0 -0.21782761945E-01 -0.83113732454E-02  0.83616675616E-02  0.24768631928E-01  0.00000000000E+00 0. -1.
     999901    1    3    3    0    0 -0.16211018005E-01 -0.88033293013E-01  0.70086260871E-01  0.88731321513E+00  0.88000000000E+00 0. -1.
        -11    1    4    4    0    0  0.17938498148E-01  0.52448960695E-01 -0.55373838330E-01  0.78353087279E-01  0.51100000000E-03 0.  1.
         11    1    4    4    0    0  0.20055281802E-01  0.43895705563E-01 -0.23074090103E-01  0.53495065661E-01  0.51100000000E-03 0. -1.
</event>
<event>
 8    1  0.1117714E+005  0.1043930E+01  0.7957747E-01            NaN
         13   -1    0    0    0    0  0.00000000000E+00  0.00000000000E+00  0.74505805969E-08  0.10566000000E+00  0.10566000000E+00 0.  1.
     999900   -1    0    0    0    0 -0.00000000000E+00 -0.00000000000E+00 -0.74505805969E-08  0.93827000000E+00  0.93827000000E+00 0. -1.
     999902    2    1    2    0    0 -0.19767434575E-01 -0.76722674403E-02 -0.11559261450E-01  0.10197798099E+01  0.10194938102E+01 0.  0.
     999903    2    3    3    0    0  0.71562687581E-01 -0.52402552434E-01  0.90249272676E-01  0.12809210265E+00  0.19884913573E-01 0.  0.
         14    1    1    2    0    0  0.19767434575E-01  0.76722674403E-02  0.11559261450E-01  0.24150190116E-01  0.00000000000E+00 0.  1.
     999901    1    3    3    0    0 -0.91330122155E-01  0.44730284994E-01 -0.10180853413E+00  0.89168770723E+00  0.88000000000E+00 0. -1.
        -11    1    4    4    0    0  0.29385865565E-01 -0.13011787497E-01  0.41866347369E-01  0.52781510701E-01  0.51100000000E-03 0.  1.
         11    1    4    4    0    0  0.42176822016E-01 -0.39390764938E-01  0.48382925307E-01  0.75310591951E-01  0.51100000000E-03 0. -1.
</event>
<event>
 8    1  0.1117714E+005  0.1043930E+01  0.7957747E-01            NaN
         13   -1    0    0    0    0  0.00000000000E+00  0.00000000000E+00  0.74505805969E-08  0.10566000000E+00  0.10566000000E+00 0.  1.
     999900   -1    0    0    0    0 -0.00000000000E+00 -0.00000000000E+00 -0.74505805969E-08  0.93827000000E+00  0.93827000000E+00 0. -1.
     999902    2    1    2    0    0 -0.15211109115E-01  0.33761056328E-02 -0.16554417346E-01  0.10211962220E+01  0.10209431420E+01 0.  0.
     999903    2    3    3    0    0  0.95712800328E-01  0.65188966041E-01 -0.58227143330E-01  0.13110546284E+00  0.19690117481E-01 0.  0.
         14    1    1    2    0    0  0.15211109115E-01 -0.33761056328E-02  0.16554417346E-01  0.22733778028E-01  0.00000000000E+00 0.  1.
     999901    1    3    3    0    0 -0.11092390944E+00 -0.61812860408E-01  0.41672725984E-01  0.89009075913E+00  0.88000000000E+00 0. -1.
        -11    1    4    4    0    0  0.40215353237E-01  0.27828244240E-01 -0.13880251171E-01  0.50839043137E-01  0.51100000000E-03 0. -1.
         11    1    4    4    0    0  0.55497447091E-01  0.37360721801E-01 -0.44346892159E-01  0.80266419705E-01  0.51100000000E-03 0.  1.
</event>
<event>
 8    1  0.1117714E+005  0.1043930E+01  0.7957747E-01            NaN
         13   -1    0    0    0    0  0.00000000000E+00  0.00000000000E+00  0.74505805969E-08  0.10566000000E+00  0.10566000000E+00 0.  1.
     999900   -1    0    0    0    0 -0.00000000000E+00 -0.00000000000E+00 -0.74505805969E-08  0.93827000000E+00  0.93827000000E+00 0. -1.
     999902    2    1    2    0    0 -0.17972315954E-01 -0.17725011954E-01  0.70211718488E-02  0.10177292931E+01  0.10173919780E+01 0.  0.
     999903    2    3    3    0    0 -0.57435133111E-01 -0.99164109267E-01 -0.59049196809E-01  0.13062448859E+00  0.21062627906E-01 0.  0.
         14    1    1    2    0    0  0.17972315954E-01  0.17725011954E-01 -0.70211718488E-02  0.26200706931E-01  0.00000000000E+00 0.  1.
     999901    1    3    3    0    0  0.39462817157E-01  0.81439097313E-01  0.66070368658E-01  0.88710480448E+00  0.88000000000E+00 0.  1.
        -11    1    4    4    0    0 -0.18724475955E-01 -0.20603041463E-01 -0.22176541475E-01  0.35597070528E-01  0.51100000000E-03 0. -1.
         11    1    4    4    0    0 -0.38710657155E-01 -0.78561067804E-01 -0.36872655334E-01  0.95027418066E-01  0.51100000000E-03 0.  1.
</event>
<event>
 8    1  0.1117714E+005  0.1043930E+01  0.7957747E-01            NaN
         13   -1    0    0    0    0  0.00000000000E+00  0.00000000000E+00  0.74505805969E-08  0.10566000000E+00  0.10566000000E+00 0. -1.
     999900   -1    0    0    0    0 -0.00000000000E+00 -0.00000000000E+00 -0.74505805969E-08  0.93827000000E+00  0.93827000000E+00 0.  1.
     999902    2    1    2    0    0 -0.11298437417E-01  0.59285885747E-02 -0.19538930060E-01  0.10205939198E+01  0.10203270929E+01 0.  0.
     999903    2    3    3    0    0  0.12179124313E+00  0.32092652151E-01 -0.26284831064E-01  0.13017664209E+00  0.19799509496E-01 0.  0.
         14    1    1    2    0    0  0.11298437417E-01 -0.59285885747E-02  0.19538930060E-01  0.23336080186E-01  0.00000000000E+00 0. -1.
     999901    1    3    3    0    0 -0.13308968055E+00 -0.26164063576E-01  0.67459010041E-02  0.89041727773E+00  0.88000000000E+00 0.  1.
        -11    1    4    4    0    0  0.70016693142E-01  0.18245082914E-01 -0.50705630076E-02  0.72534075435E-01  0.51100000000E-03 0.  1.
         11    1    4    4    0    0  0.51774549989E-01  0.13847569236E-01 -0.21214268056E-01  0.57642566654E-01  0.51100000000E-03 0. -1.
</event>
<event>
 8    1  0.1117714E+005  0.1043930E+01  0.7957747E-01            NaN
         13   -1    0    0    0    0  0.00000000000E+00  0.00000000000E+00  0.74505805969E-08  0.10566000000E+00  0.10566000000E+00 0.  1.
     999900   -1    0    0    0    0 -0.00000000000E+00 -0.00000000000E+00 -0.74505805969E-08  0.93827000000E+00  0.93827000000E+00 0.  1.
     999902    2    1    2    0    0  0.41422225241E-02 -0.22254008461E-01  0.88841741993E-02  0.10196127746E+01  0.10193227569E+01 0.  0.
     999903    2    3    3    0    0 -0.52114571886E-01  0.97301502619E-01 -0.59900474051E-01  0.12709404931E+00  0.19527405484E-01 0.  0.
         14    1    1    2    0    0 -0.41422225241E-02  0.22254008461E-01 -0.88841741993E-02  0.24317225402E-01  0.00000000000E+00 0.  1.
     999901    1    3    3    0    0  0.56256794410E-01 -0.11955551108E+00  0.68784648250E-01  0.89251872528E+00  0.88000000000E+00 0. -1.
        -11    1    4    4    0    0 -0.44412371450E-01  0.64012915414E-01 -0.40915559628E-01  0.88002592111E-01  0.51100000000E-03 0.  1.
         11    1    4    4    0    0 -0.77022004359E-02  0.33288587205E-01 -0.18984914423E-01  0.39091457204E-01  0.51100000000E-03 0. -1.
</event>
<event>
 8    1  0.1117714E+005  0.1043930E+01  0.7957747E-01            NaN
         13   -1    0    0    0    0  0.00000000000E+00  0.00000000000E+00  0.74505805969E-08  0.10566000000E+00  0.10566000000E+00 0. -1.
     999900   -1    0    0    0    0 -0.00000000000E+00 -0.00000000000E+00 -0.74505805969E-08  0.93827000000E+00  0.93827000000E+00 0. -1.
     999902    2    1    2    0    0 -0.14968880325E-01 -0.14422549719E-02 -0.19646822938E-01  0.10191884332E+01  0.10188880788E+01 0.  0.
     999903    2    3    3    0    0  0.91028403040E-02  0.95304528808E-01 -0.87176984762E-01  0.13098816822E+00  0.19805520145E-01 0.  0.
         14    1    1    2    0    0  0.14968880325E-01  0.14422549719E-02  0.19646822938E-01  0.24741566829E-01  0.00000000000E+00 0. -1.
     999901    1    3    3    0    0 -0.24071720629E-01 -0.96746783780E-01  0.67530161823E-01  0.88820026495E+00  0.88000000000E+00 0.  1.
        -11    1    4    4    0    0  0.95651845729E-02  0.17436987013E-01 -0.17701330213E-01  0.26629673004E-01  0.51100000000E-03 0.  1.
         11    1    4    4    0    0 -0.46234426883E-03  0.77867541795E-01 -0.69475654549E-01  0.10435849521E+00  0.51100000000E-03 0. -1.
</event>
<event>
 8    1  0.1117714E+005  0.1043930E+01  0.7957747E-01            NaN
         13   -1    0    0    0    0  0.00000000000E+00  0.00000000000E+00  0.74505805969E-08  0.10566000000E+00  0.10566000000E+00 0.  1.
     999900   -1    0    0    0    0 -0.00000000000E+00 -0.00000000000E+00 -0.74505805969E-08  0.93827000000E+00  0.93827000000E+00 0. -1.
     999902    2    1    2    0    0 -0.18652360731E-01 -0.37704249058E-03  0.14548084865E-01  0.10202720310E+01  0.10199977048E+01 0.  0.
     999903    2    3    3    0    0 -0.94544266841E-01  0.88412718169E-01 -0.18062077274E-01  0.13195529379E+00  0.18180588471E-01 0.  0.
         14    1    1    2    0    0  0.18652360731E-01  0.37704249058E-03 -0.14548084865E-01  0.23657968956E-01  0.00000000000E+00 0.  1.
     999901    1    3    3    0    0  0.75891906110E-01 -0.88789760659E-01  0.32610162139E-01  0.88831673725E+00  0.88000000000E+00 0. -1.
        -11    1    4    4    0    0 -0.49812902655E-01  0.37314205500E-01 -0.25510617298E-02  0.62293211829E-01  0.51100000000E-03 0. -1.
         11    1    4    4    0    0 -0.44731364187E-01  0.51098512668E-01 -0.15511015544E-01  0.69662081961E-01  0.51100000000E-03 0.  1.
</event>
<event>
 8    1  0.1117714E+005  0.1043930E+01  0.7957747E-01            NaN
         13   -1    0    0    0    0  0.00000000000E+00  0.00000000000E+00  0.74505805969E-08  0.10566000000E+00  0.10566000000E+00 0. -1.
     999900   -1    0    0    0    0 -0.00000000000E+00 -0.00000000000E+00 -0.74505805969E-08  0.93827000000E+00  0.93827000000E+00 0. -1.
     999902    2    1    2    0    0  0.33812435412E-02 -0.13594347323E-01 -0.19433798674E-01  0.10199735475E+01  0.10196921721E+01 0.  0.
     999903    2    3    3    0    0  0.16031482538E-01  0.12571755329E+00 -0.57106789712E-02  0.12881915107E+00  0.22357329711E-01 0.  0.
         14    1    1    2    0    0 -0.33812435412E-02  0.13594347323E-01  0.19433798674E-01  0.23956452532E-01  0.00000000000E+00 0. -1.
     999901    1    3    3    0    0 -0.12650238997E-01 -0.13931190061E+00 -0.13723119703E-01  0.89115439639E+00  0.88000000000E+00 0. -1.
        -11    1    4    4    0    0  0.18934504913E-01  0.10522852557E+00 -0.10913837804E-01  0.10747525784E+00  0.51100000000E-03 0.  1.
         11    1    4    4    0    0 -0.29030223753E-02  0.20489027715E-01  0.52031588333E-02  0.21343893236E-01  0.51100000000E-03 0. -1.
</event>
<event>
 8    1  0.1117714E+005  0.1043930E+01  0.7957747E-01            NaN
         13   -1    0    0    0    0  0.00000000000E+00  0.00000000000E+00  0.74505805969E-08  0.10566000000E+00  0.10566000000E+00 0.  1.
     999900   -1    0    0    0    0 -0.00000000000E+00 -0.00000000000E+00 -0.74505805969E-08  0.93827000000E+00  0.93827000000E+00 0. -1.
     999902    2    1    2    0    0 -0.14741662859E-01  0.14963895631E-01  0.13305923885E-01  0.10190647148E+01  0.10187613119E+01 0.  0.
     999903    2    3    3    0    0 -0.34283465310E-01  0.11380383915E+00 -0.51876566104E-01  0.13092059731E+00  0.17954244373E-01 0.  0.
         14    1    1    2    0    0  0.14741662859E-01 -0.14963895631E-01 -0.13305923885E-01  0.24865285174E-01  0.00000000000E+00 0. -1.
     999901    1    3    3    0    0  0.19541802451E-01 -0.98839943516E-01  0.65182489990E-01  0.88814411752E+00  0.88000000000E+00 0.  1.
        -11    1    4    4    0    0 -0.34420816847E-01  0.95203177576E-01 -0.47391748317E-01  0.11177958929E+00  0.51100000000E-03 0. -1.
         11    1    4    4    0    0  0.13735153660E-03  0.18600661571E-01 -0.44848177867E-02  0.19141008017E-01  0.51100000000E-03 0.  1.
</event>
<event>
 8    1  0.1117714E+005  0.1043930E+01  0.7957747E-01            NaN
         13   -1    0    0    0    0  0.00000000000E+00  0.00000000000E+00  0.74505805969E-08  0.10566000000E+00  0.10566000000E+00 0. -1.
     999900   -1    0    0    0    0 -0.00000000000E+00 -0.00000000000E+00 -0.74505805969E-08  0.93827000000E+00  0.93827000000E+00 0. -1.
     999902    2    1    2    0    0  0.11183613295E-01 -0.47794804795E-02 -0.78824648741E-02  0.10294369019E+01  0.10293348751E+01 0.  0.
     999903    2    3    3    0    0  0.13545647990E-01 -0.13673050323E+00  0.12126074601E-01  0.13937117778E+00  0.19964178333E-01 0.  0.
         14    1    1    2    0    0 -0.11183613295E-01  0.47794804795E-02  0.78824648741E-02  0.14493098098E-01  0.00000000000E+00 0.  1.
     999901    1    3    3    0    0 -0.23620346950E-02  0.13195102275E+00 -0.20008539475E-01  0.89006572413E+00  0.88000000000E+00 0.  1.
        -11    1    4    4    0    0  0.62229771506E-03 -0.68251176083E-01  0.13907763798E-01  0.69658433129E-01  0.51100000000E-03 0. -1.
         11    1    4    4    0    0  0.12923350275E-01 -0.68479327147E-01 -0.17816891966E-02  0.69712744647E-01  0.51100000000E-03 0.  1.
</event>
<event>
 8    1  0.1117714E+005  0.1043930E+01  0.7957747E-01            NaN
         13   -1    0    0    0    0  0.00000000000E+00  0.00000000000E+00  0.74505805969E-08  0.10566000000E+00  0.10566000000E+00 0.  1.
     999900   -1    0    0    0    0 -0.00000000000E+00 -0.00000000000E+00 -0.74505805969E-08  0.93827000000E+00  0.93827000000E+00 0.  1.
     999902    2    1    2    0    0 -0.48853012604E-02  0.37174569112E-02  0.21934922454E-01  0.10211522372E+01  0.10208981659E+01 0.  0.
     999903    2    3    3    0    0  0.53859378710E-01  0.57301014445E-01  0.10603583781E+00  0.13357401586E+00  0.20351409823E-01 0.  0.
         14    1    1    2    0    0  0.48853012604E-02 -0.37174569112E-02 -0.21934922454E-01  0.22777762782E-01  0.00000000000E+00 0. -1.
     999901    1    3    3    0    0 -0.58744679971E-01 -0.53583557533E-01 -0.84100915356E-01  0.88757822136E+00  0.88000000000E+00 0.  1.
        -11    1    4    4    0    0  0.37966388022E-01  0.27883367259E-01  0.53349666779E-01  0.71171460963E-01  0.51100000000E-03 0.  1.
         11    1    4    4    0    0  0.15892990688E-01  0.29417647186E-01  0.52686171031E-01  0.62402554898E-01  0.51100000000E-03 0. -1.
</event>
<event>
 8    1  0.1117714E+005  0.1043930E+01  0.7957747E-01            NaN
         13   -1    0    0    0    0  0.00000000000E+00  0.00000000000E+00  0.74505805969E-08  0.10566000000E+00  0.10566000000E+00 0. -1.
     999900   -1    0    0    0    0 -0.00000000000E+00 -0.00000000000E+00 -0.74505805969E-08  0.93827000000E+00  0.93827000000E+00 0. -1.
     999902    2    1    2    0    0  0.12168696601E-01  0.15849245162E-01  0.15762869412E-01  0.10184791886E+01  0.10181611433E+01 0.  0.
     999903    2    3    3    0    0 -0.60920847954E-01 -0.98642524552E-01  0.48991745944E-01  0.12743788479E+00  0.19963114552E-01 0.  0.
         14    1    1    2    0    0 -0.12168696601E-01 -0.15849245162E-01 -0.15762869412E-01  0.25450811407E-01  0.00000000000E+00 0.  1.
     999901    1    3    3    0    0  0.73089544555E-01  0.11449176971E+00 -0.33228876531E-01  0.89104130381E+00  0.88000000000E+00 0. -1.
        -11    1    4    4    0    0 -0.41913575637E-01 -0.49071880531E-01  0.25866938324E-01  0.69528101518E-01  0.51100000000E-03 0.  1.
         11    1    4    4    0    0 -0.19007272317E-01 -0.49570644021E-01  0.23124807620E-01  0.57909783267E-01  0.51100000000E-03 0. -1.
</event>
<event>
 8    1  0.1117714E+005  0.1043930E+01  0.7957747E-01            NaN
         13   -1    0    0    0    0  0.00000000000E+00  0.00000000000E+00  0.74505805969E-08  0.10566000000E+00  0.10566000000E+00 0. -1.
     999900   -1    0    0    0    0 -0.00000000000E+00 -0.00000000000E+00 -0.74505805969E-08  0.93827000000E+00  0.93827000000E+00 0.  1.
     999902    2    1    2    0    0  0.33954860911E-03  0.99295393881E-02 -0.22054004986E-01  0.10197413626E+01  0.10194544405E+01 0.  0.
     999903    2    3    3    0    0 -0.81851475353E-01 -0.46192133563E-01  0.84238674440E-01  0.12777547739E+00  0.19925890939E-01 0.  0.
         14    1    1    2    0    0 -0.33954860911E-03 -0.99295393881E-02  0.22054004986E-01  0.24188637449E-01  0.00000000000E+00 0. -1.
     999901    1    3    3    0    0  0.82191023962E-01  0.56121672951E-01 -0.10629267943E+00  0.89196588516E+00  0.88000000000E+00 0. -1.
        -11    1    4    4    0    0 -0.72999721600E-01 -0.45896372578E-01  0.70311342794E-01  0.11126267306E+00  0.51100000000E-03 0. -1.
         11    1    4    4    0    0 -0.88517537533E-02 -0.29576098522E-03  0.13927331646E-01  0.16512804330E-01  0.51100000000E-03 0.  1.
</event>
<event>
 8    1  0.1117714E+005  0.1043930E+01  0.7957747E-01            NaN
         13   -1    0    0    0    0  0.00000000000E+00  0.00000000000E+00  0.74505805969E-08  0.10566000000E+00  0.10566000000E+00 0. -1.
     999900   -1    0    0    0    0 -0.00000000000E+00 -0.00000000000E+00 -0.74505805969E-08  0.93827000000E+00  0.93827000000E+00 0. -1.
     999902    2    1    2    0    0  0.34751770365E-02  0.21793950674E-01  0.87287415656E-02  0.10201972363E+01  0.10199211523E+01 0.  0.
     999903    2    3    3    0    0  0.98760201721E-01 -0.77365781617E-01 -0.22771915999E-01  0.12895979331E+00  0.19313894567E-01 0.  0.
         14    1    1    2    0    0 -0.34751770365E-02 -0.21793950674E-01 -0.87287415656E-02  0.23732763656E-01  0.00000000000E+00 0. -1.
     999901    1    3    3    0    0 -0.95285024685E-01  0.99159732291E-01  0.31500657565E-01  0.89123744303E+00  0.88000000000E+00 0.  1.
        -11    1    4    4    0    0  0.96608193750E-01 -0.78008358247E-01 -0.23808510408E-01  0.12643398809E+00  0.51100000000E-03 0.  1.
         11    1    4    4    0    0  0.21520079719E-02  0.64257663031E-03  0.10365944092E-02  0.25258052193E-02  0.51100000000E-03 0. -1.
</event>
<event>
 8    1  0.1117714E+005  0.1043930E+01  0.7957747E-01            NaN
         13   -1    0    0    0    0  0.00000000000E+00  0.00000000000E+00  0.74505805969E-08  0.10566000000E+00  0.10566000000E+00 0.  1.
     999900   -1    0    0    0    0 -0.00000000000E+00 -0.00000000000E+00 -0.74505805969E-08  0.93827000000E+00  0.93827000000E+00 0. -1.
     999902    2    1    2    0    0  0.22983115469E-01  0.89831519758E-03 -0.43081684298E-02  0.10205293401E+01  0.10202610172E+01 0.  0.
     999903    2    3    3    0    0 -0.66608168539E-01 -0.97068337752E-02 -0.10910929690E+00  0.12973062893E+00  0.19857660367E-01 0.  0.
         14    1    1    2    0    0 -0.22983115469E-01 -0.89831519758E-03  0.43081684298E-02  0.23400659864E-01  0.00000000000E+00 0. -1.
     999901    1    3    3    0    0  0.89591284007E-01  0.10605148973E-01  0.10480112847E+00  0.89079871120E+00  0.88000000000E+00 0.  1.
        -11    1    4    4    0    0 -0.50925915515E-01 -0.12311582919E-01 -0.69425640669E-01  0.86978184899E-01  0.51100000000E-03 0.  1.
         11    1    4    4    0    0 -0.15682253023E-01  0.26047491441E-02 -0.39683656230E-01  0.42752444032E-01  0.51100000000E-03 0. -1.
</event>
<event>
 8    1  0.1117714E+005  0.1043930E+01  0.7957747E-01            NaN
         13   -1    0    0    0    0  0.00000000000E+00  0.00000000000E+00  0.74505805969E-08  0.10566000000E+00  0.10566000000E+00 0. -1.
     999900   -1    0    0    0    0 -0.00000000000E+00 -0.00000000000E+00 -0.74505805969E-08  0.93827000000E+00  0.93827000000E+00 0.  1.
     999902    2    1    2    0    0 -0.19038118149E-01  0.70278169735E-02 -0.12894897570E-01  0.10198859043E+01  0.10196024418E+01 0.  0.
     999903    2    3    3    0    0 -0.39257063556E-01  0.10684879893E+00  0.61344145969E-01  0.13090645023E+00  0.20386554293E-01 0.  0.
         14    1    1    2    0    0  0.19038118149E-01 -0.70278169735E-02  0.12894897570E-01  0.24044095687E-01  0.00000000000E+00 0. -1.
     999901    1    3    3    0    0  0.20218945408E-01 -0.99820981957E-01 -0.74239043538E-01  0.88897945408E+00  0.88000000000E+00 0.  1.
        -11    1    4    4    0    0 -0.33873514601E-01  0.73108394594E-01  0.35435167412E-01  0.88023659104E-01  0.51100000000E-03 0.  1.
         11    1    4    4    0    0 -0.53835489559E-02  0.33740404337E-01  0.25908978557E-01  0.42882791129E-01  0.51100000000E-03 0. -1.
</event>
<event>
 8    1  0.1117714E+005  0.1043930E+01  0.7957747E-01            NaN
         13   -1    0    0    0    0  0.00000000000E+00  0.00000000000E+00  0.74505805969E-08  0.10566000000E+00  0.10566000000E+00 0.  1.
     999900   -1    0    0    0    0 -0.00000000000E+00 -0.00000000000E+00 -0.74505805969E-08  0.93827000000E+00  0.93827000000E+00 0.  1.
     999902    2    1    2    0    0  0.14454124651E-01 -0.16554364434E-01 -0.10015827752E-01  0.10197786955E+01  0.10194926691E+01 0.  0.
     999903    2    3    3    0    0  0.38678010374E-01 -0.27307608846E-01 -0.12186047784E+00  0.13230382004E+00  0.20313314586E-01 0.  0.
         14    1    1    2    0    0 -0.14454124651E-01  0.16554364434E-01  0.10015827752E-01  0.24151304453E-01  0.00000000000E+00 0.  1.
     999901    1    3    3    0    0 -0.24223885723E-01  0.10753244412E-01  0.11184465009E+00  0.88747487551E+00  0.88000000000E+00 0. -1.
        -11    1    4    4    0    0  0.39184212869E-01 -0.19797565689E-01 -0.10633522806E+00  0.11504254862E+00  0.51100000000E-03 0.  1.
         11    1    4    4    0    0 -0.50620249547E-03 -0.75100431567E-02 -0.15525249784E-01  0.17261271420E-01  0.51100000000E-03 0. -1.
</event>
<event>
 8    1  0.1117714E+005  0.1043930E+01  0.7957747E-01            NaN
         13   -1    0    0    0    0  0.00000000000E+00  0.00000000000E+00  0.74505805969E-08  0.10566000000E+00  0.10566000000E+00 0.  1.
     999900   -1    0    0    0    0 -0.00000000000E+00 -0.00000000000E+00 -0.74505805969E-08  0.93827000000E+00  0.93827000000E+00 0.  1.
     999902    2    1    2    0    0  0.10010719539E-01  0.11872584818E-01 -0.17691902909E-01  0.10203890526E+01  0.10201174650E+01 0.  0.
     999903    2    3    3    0    0  0.45189333827E-01  0.12186122008E+00 -0.18822333229E-01  0.13284394802E+00  0.20025020522E-01 0.  0.
         14    1    1    2    0    0 -0.10010719539E-01 -0.11872584818E-01  0.17691902909E-01  0.23540947401E-01  0.00000000000E+00 0.  1.
     999901    1    3    3    0    0 -0.35178614288E-01 -0.10998863526E+00  0.11304303194E-02  0.88754510458E+00  0.88000000000E+00 0.  1.
        -11    1    4    4    0    0  0.37973566231E-01  0.75153988422E-01 -0.13530906920E-01  0.85284584018E-01  0.51100000000E-03 0.  1.
         11    1    4    4    0    0  0.72157675962E-02  0.46707231656E-01 -0.52914263087E-02  0.47559364003E-01  0.51100000000E-03 0. -1.
</event>
<event>
 8    1  0.1117714E+005  0.1043930E+01  0.7957747E-01            NaN
         13   -1    0    0    0    0  0.00000000000E+00  0.00000000000E+00  0.74505805969E-08  0.10566000000E+00  0.10566000000E+00 0.  1.
     999900   -1    0    0    0    0 -0.00000000000E+00 -0.00000000000E+00 -0.74505805969E-08  0.93827000000E+00  0.93827000000E+00 0. -1.
     999902    2    1    2    0    0 -0.15069984938E-02 -0.24212871496E-01  0.87088866154E-03  0.10196546496E+01  0.10193656419E+01 0.  0.
     999903    2    3    3    0    0  0.12320310504E+00 -0.34819832203E-01 -0.17979117213E-01  0.13059872319E+00  0.18475714832E-01 0.  0.
         14    1    1    2    0    0  0.15069984938E-02  0.24212871496E-01 -0.87088866154E-03  0.24275350411E-01  0.00000000000E+00 0. -1.
     999901    1    3    3    0    0 -0.12471010353E+00  0.10606960707E-01  0.18850005875E-01  0.88905592640E+00  0.88000000000E+00 0.  1.
        -11    1    4    4    0    0  0.15924643218E-01  0.15471393959E-02 -0.36627536435E-02  0.16421473356E-01  0.51100000000E-03 0.  1.
         11    1    4    4    0    0  0.10727846182E+00 -0.36366971599E-01 -0.14316363569E-01  0.11417724984E+00  0.51100000000E-03 0. -1.
</event>
<event>
 8    1  0.1117714E+005  0.1043930E+01  0.7957747E-01            NaN
         13   -1    0    0    0    0  0.00000000000E+00  0.00000000000E+00  0.74505805969E-08  0.10566000000E+00  0.10566000000E+00 0.  1.
     999900   -1    0    0    0    0 -0.00000000000E+00 -0.00000000000E+00 -0.74505805969E-08  0.93827000000E+00  0.93827000000E+00 0.  1.
     999902    2    1    2    0    0 -0.22965165122E-02  0.30748350794E-01 -0.73434814315E-02  0.10122335998E+01  0.10117372183E+01 0.  0.
     999903    2    3    3    0    0 -0.48652669183E-01 -0.66248609991E-01  0.86136939824E-01  0.12077642617E+00  0.20283297885E-01 0.  0.
         14    1    1    2    0    0  0.22965165122E-02 -0.30748350794E-01  0.73434814315E-02  0.31696400176E-01  0.00000000000E+00 0. -1.
     999901    1    3    3    0    0  0.46356152670E-01  0.96996960784E-01 -0.93480421255E-01  0.89145717365E+00  0.88000000000E+00 0.  1.
        -11    1    4    4    0    0 -0.32463583076E-01 -0.40083068493E-01  0.39802631560E-01  0.65154026783E-01  0.51100000000E-03 0. -1.
         11    1    4    4    0    0 -0.16189086107E-01 -0.26165541497E-01  0.46334308263E-01  0.55622399392E-01  0.51100000000E-03 0.  1.
</event>
<event>
 8    1  0.1117714E+005  0.1043930E+01  0.7957747E-01            NaN
         13   -1    0    0    0    0  0.00000000000E+00  0.00000000000E+00  0.74505805969E-08  0.10566000000E+00  0.10566000000E+00 0.  1.
     999900   -1    0    0    0    0 -0.00000000000E+00 -0.00000000000E+00 -0.74505805969E-08  0.93827000000E+00  0.93827000000E+00 0. -1.
     999902    2    1    2    0    0  0.31011754514E-02  0.29086137735E-02  0.23422980262E-01  0.10201242585E+01  0.10198464539E+01 0.  0.
     999903    2    3    3    0    0  0.96223639205E-01  0.42812470139E-01  0.77201804778E-01  0.13268058539E+00  0.23497292113E-01 0.  0.
         14    1    1    2    0    0 -0.31011754514E-02 -0.29086137735E-02 -0.23422980262E-01  0.23805741484E-01  0.00000000000E+00 0. -1.
     999901    1    3    3    0    0 -0.93122463753E-01 -0.39903856366E-01 -0.53778824516E-01  0.88744367313E+00  0.88000000000E+00 0. -1.
        -11    1    4    4    0    0  0.29695019587E-01  0.25225055919E-01  0.31007681021E-01  0.49797942103E-01  0.51100000000E-03 0. -1.
         11    1    4    4    0    0  0.66528619618E-01  0.17587414220E-01  0.46194123758E-01  0.82882643285E-01  0.51100000000E-03 0.  1.
</event>
<event>
 8    1  0.1117714E+005  0.1043930E+01  0.7957747E-01            NaN
         13   -1    0    0    0    0  0.00000000000E+00  0.00000000000E+00  0.74505805969E-08  0.10566000000E+00  0.10566000000E+00 0. -1.
     999900   -1    0    0    0    0 -0.00000000000E+00 -0.00000000000E+00 -0.74505805969E-08  0.93827000000E+00  0.93827000000E+00 0. -1.
     999902    2    1    2    0    0  0.19338421537E-01  0.14344577785E-01 -0.29407458619E-02  0.10196732598E+01  0.10193847003E+01 0.  0.
     999903    2    3    3    0    0 -0.47911391650E-01 -0.32907544554E-01  0.11272877596E+00  0.12830647854E+00  0.19400195065E-01 0.  0.
         14    1    1    2    0    0 -0.19338421537E-01 -0.14344577785E-01  0.29407458619E-02  0.24256740209E-01  0.00000000000E+00 0. -1.
     999901    1    3    3    0    0  0.67249813187E-01  0.47252122339E-01 -0.11566952182E+00  0.89136678125E+00  0.88000000000E+00 0. -1.
        -11    1    4    4    0    0 -0.16623231616E-01 -0.12804213789E-02  0.34163652486E-01  0.38018253253E-01  0.51100000000E-03 0. -1.
         11    1    4    4    0    0 -0.31288160034E-01 -0.31627123175E-01  0.78565123470E-01  0.90288225287E-01  0.51100000000E-03 0.  1.
</event>
<event>
 8    1  0.1117714E+005  0.1043930E+01  0.7957747E-01            NaN
         13   -1    0    0    0    0  0.00000000000E+00  0.00000000000E+00  0.74505805969E-08  0.10566000000E+00  0.10566000000E+00 0.  1.
     999900   -1    0    0    0    0 -0.00000000000E+00 -0.00000000000E+00 -0.74505805969E-08  0.93827000000E+00  0.93827000000E+00 0.  1.
     999902    2    1    2    0    0  0.40968976420E-02 -0.21366883804E-01 -0.97608313761E-02  0.10200846205E+01  0.10198058790E+01 0.  0.
     999903    2    3    3    0    0 -0.30301036678E-01  0.12223380425E+00  0.42895209990E-02  0.12767115810E+00  0.20549182344E-01 0.  0.
         14    1    1    2    0    0 -0.40968976420E-02  0.21366883804E-01  0.97608313761E-02  0.23845379488E-01  0.00000000000E+00 0.  1.
     999901    1    3    3    0    0  0.34397934320E-01 -0.14360068805E+00 -0.14050352375E-01  0.89241346241E+00  0.88000000000E+00 0. -1.
        -11    1    4    4    0    0 -0.35530930436E-02  0.38543232681E-01 -0.61320807031E-02  0.39192713486E-01  0.51100000000E-03 0.  1.
         11    1    4    4    0    0 -0.26747943634E-01  0.83690571568E-01  0.10421601702E-01  0.88478444612E-01  0.51100000000E-03 0. -1.
</event>
<event>
 7    1  0.1117714E+005  0.1043930E+01  0.7957747E-01            NaN
         13   -1    0    0    0    0  0.00000000000E+00  0.00000000000E+00  0.74505805969E-08  0.10566000000E+00  0.10566000000E+00 0. -1.
     999900   -1    0    0    0    0 -0.00000000000E+00 -0.00000000000E+00 -0.74505805969E-08  0.93827000000E+00  0.93827000000E+00 0. -1.
     999902    2    1    2    0    0 -0.41320605676E-02 -0.22991035883E-01 -0.30327634969E-02  0.10203745482E+01  0.10201026219E+01 0.  0.
         14    1    1    2    0    0  0.41320605676E-02  0.22991035883E-01  0.30327634969E-02  0.23555451810E-01  0.00000000000E+00 0.  1.
     999901    1    3    3    0    0 -0.10236617425E-01  0.10594508944E+00  0.15303915113E-02  0.88641496626E+00  0.88000000000E+00 0. -1.
        -11    1    3    3    0    0 -0.98532974768E-02 -0.10234204320E+00 -0.20132620069E-02  0.10283625636E+00  0.51100000000E-03 0. -1.
         11    1    3    3    0    0  0.15957854334E-01 -0.26594082132E-01 -0.25498930013E-02  0.31123325573E-01  0.51100000000E-03 0.  1.
</event>
<event>
 8    1  0.1117714E+005  0.1043930E+01  0.7957747E-01            NaN
         13   -1    0    0    0    0  0.00000000000E+00  0.00000000000E+00  0.74505805969E-08  0.10566000000E+00  0.10566000000E+00 0.  1.
     999900   -1    0    0    0    0 -0.00000000000E+00 -0.00000000000E+00 -0.74505805969E-08  0.93827000000E+00  0.93827000000E+00 0. -1.
     999902    2    1    2    0    0 -0.93191989219E-02 -0.21182864745E-01 -0.68209402306E-03  0.10207777543E+01  0.10205151627E+01 0.  0.
     999903    2    3    3    0    0  0.19834538873E-01 -0.11838281576E+00 -0.54352258531E-01  0.13332169487E+00  0.20312713221E-01 0.  0.
         14    1    1    2    0    0  0.93191989219E-02  0.21182864745E-01  0.68209402306E-03  0.23152245671E-01  0.00000000000E+00 0.  1.
     999901    1    3    3    0    0 -0.29153737795E-01  0.97199951011E-01  0.53670164508E-01  0.88745605945E+00  0.88000000000E+00 0.  1.
        -11    1    4    4    0    0  0.77795490106E-02 -0.77385797860E-01 -0.25881466110E-01  0.81970692947E-01  0.51100000000E-03 0.  1.
         11    1    4    4    0    0  0.12054989862E-01 -0.40997017896E-01 -0.28470792421E-01  0.51351001928E-01  0.51100000000E-03 0. -1.
</event>
<event>
 7    1  0.1117714E+005  0.1043930E+01  0.7957747E-01            NaN
         13   -1    0    0    0    0  0.00000000000E+00  0.00000000000E+00  0.74505805969E-08  0.10566000000E+00  0.10566000000E+00 0. -1.
     999900   -1    0    0    0    0 -0.00000000000E+00 -0.00000000000E+00 -0.74505805969E-08  0.93827000000E+00  0.93827000000E+00 0.  1.
     999903    2    1    2    0    0 -0.25613193073E-01  0.26138053104E-01  0.76212653094E-01  0.86871994404E-01  0.19978524488E-01 0.  0.
         14    1    1    2    0    0 -0.38869568178E-02 -0.29511507267E-01 -0.70513446870E-01  0.76538772422E-01  0.00000000000E+00 0.  1.
     999901    1    1    2    0    0  0.29500149891E-01  0.33734541631E-02 -0.56992062241E-02  0.88051923317E+00  0.88000000000E+00 0.  1.
        -11    1    3    3    0    0 -0.27261234774E-01  0.16999965266E-01  0.54768501411E-01  0.63498217363E-01  0.51100000000E-03 0.  1.
         11    1    3    3    0    0  0.16480417012E-02  0.91380878382E-02  0.21444151682E-01  0.23373777041E-01  0.51100000000E-03 0. -1.
</event>
<event>
 8    1  0.1117714E+005  0.1043930E+01  0.7957747E-01            NaN
         13   -1    0    0    0    0  0.00000000000E+00  0.00000000000E+00  0.74505805969E-08  0.10566000000E+00  0.10566000000E+00 0. -1.
     999900   -1    0    0    0    0 -0.00000000000E+00 -0.00000000000E+00 -0.74505805969E-08  0.93827000000E+00  0.93827000000E+00 0.  1.
     999902    2    1    2    0    0  0.83939985339E-03  0.39651841772E-02 -0.23209999147E-01  0.10203687747E+01  0.10200967136E+01 0.  0.
     999903    2    3    3    0    0 -0.12752132022E+00  0.70717919969E-02 -0.21571736283E-01  0.13104947918E+00  0.19923072888E-01 0.  0.
         14    1    1    2    0    0 -0.83939985339E-03 -0.39651841772E-02  0.23209999147E-01  0.23561225309E-01  0.00000000000E+00 0. -1.
     999901    1    3    3    0    0  0.12836072007E+00 -0.31066078196E-02 -0.16382628633E-02  0.88931929551E+00  0.88000000000E+00 0. -1.
        -11    1    4    4    0    0 -0.10786700623E+00  0.12074643653E-01 -0.22038241317E-01  0.11075663978E+00  0.51100000000E-03 0.  1.
         11    1    4    4    0    0 -0.19654313986E-01 -0.50028516557E-02  0.46650503331E-03  0.20292839400E-01  0.51100000000E-03 0. -1.
</event>
<event>
 8    1  0.1117714E+005  0.1043930E+01  0.7957747E-01            NaN
         13   -1    0    0    0    0  0.00000000000E+00  0.00000000000E+00  0.74505805969E-08  0.10566000000E+00  0.10566000000E+00 0. -1.
     999900   -1    0    0    0    0 -0.00000000000E+00 -0.00000000000E+00 -0.74505805969E-08  0.93827000000E+00  0.93827000000E+00 0. -1.
     999902    2    1    2    0    0  0.22611207491E-01  0.16844898590E-02 -0.45775136880E-02  0.10207986827E+01  0.10205365710E+01 0.  0.
     999903    2    3    3    0    0 -0.77836046932E-01 -0.19952163152E-01 -0.99682085809E-01  0.12973040508E+00  0.20902649454E-01 0.  0.
         14    1    1    2    0    0 -0.22611207491E-01 -0.16844898590E-02  0.45775136880E-02  0.23131317339E-01  0.00000000000E+00 0. -1.
     999901    1    3    3    0    0  0.10044725442E+00  0.21636653011E-01  0.95104572121E-01  0.89106827758E+00  0.88000000000E+00 0.  1.
        -11    1    4    4    0    0 -0.46265347162E-01 -0.27469228603E-02 -0.64476342948E-01  0.79407102039E-01  0.51100000000E-03 0. -1.
         11    1    4    4    0    0 -0.31570699770E-01 -0.17205240292E-01 -0.35205742861E-01  0.50323303040E-01  0.51100000000E-03 0.  1.
</event>
<event>
 8    1  0.1117714E+005  0.1043930E+01  0.7957747E-01            NaN
         13   -1    0    0    0    0  0.00000000000E+00  0.00000000000E+00  0.74505805969E-08  0.10566000000E+00  0.10566000000E+00 0.  1.
     999900   -1    0    0    0    0 -0.00000000000E+00 -0.00000000000E+00 -0.74505805969E-08  0.93827000000E+00  0.93827000000E+00 0.  1.
     999902    2    1    2    0    0  0.11932069575E-02  0.14565116578E-01 -0.18859165434E-01  0.10200713646E+01  0.10197923094E+01 0.  0.
     999903    2    3    3    0    0  0.10321291997E+00  0.68479767175E-01  0.36220723300E-01  0.13083089904E+00  0.21503441261E-01 0.  0.
         14    1    1    2    0    0 -0.11932069575E-02 -0.14565116578E-01  0.18859165434E-01  0.23858635432E-01  0.00000000000E+00 0.  1.
     999901    1    3    3    0    0 -0.10201971301E+00 -0.53914650596E-01 -0.55079888735E-01  0.88924046553E+00  0.88000000000E+00 0.  1.
        -11    1    4    4    0    0  0.73823736110E-01  0.41477190526E-01  0.32657025488E-01  0.90758160966E-01  0.51100000000E-03 0.  1.
         11    1    4    4    0    0  0.29389183859E-01  0.27002576648E-01  0.35636978119E-02  0.40072738073E-01  0.51100000000E-03 0. -1.
</event>
<event>
 8    1  0.1117714E+005  0.1043930E+01  0.7957747E-01            NaN
         13   -1    0    0    0    0  0.00000000000E+00  0.00000000000E+00  0.74505805969E-08  0.10566000000E+00  0.10566000000E+00 0. -1.
     999900   -1    0    0    0    0 -0.00000000000E+00 -0.00000000000E+00 -0.74505805969E-08  0.93827000000E+00  0.93827000000E+00 0.  1.
     999902    2    1    2    0    0  0.10809270963E-01  0.18979577502E-01 -0.99106967193E-02  0.10199448669E+01  0.10196628094E+01 0.  0.
     999903    2    3    3    0    0 -0.10802383650E+00 -0.61766017234E-01 -0.22886081139E-01  0.12819965715E+00  0.20668556953E-01 0.  0.
         14    1    1    2    0    0 -0.10809270963E-01 -0.18979577502E-01  0.99106967193E-02  0.23985133111E-01  0.00000000000E+00 0. -1.
     999901    1    3    3    0    0  0.11883310746E+00  0.80745594736E-01  0.12975384419E-01  0.89174520974E+00  0.88000000000E+00 0.  1.
        -11    1    4    4    0    0 -0.37832928357E-01 -0.33082803997E-01 -0.10948189021E-01  0.51438568723E-01  0.51100000000E-03 0. -1.
         11    1    4    4    0    0 -0.70190908138E-01 -0.28683213237E-01 -0.11937892118E-01  0.76761088424E-01  0.51100000000E-03 0.  1.
</event>
<event>
 8    1  0.1117714E+005  0.1043930E+01  0.7957747E-01            NaN
         13   -1    0    0    0    0  0.00000000000E+00  0.00000000000E+00  0.74505805969E-08  0.10566000000E+00  0.10566000000E+00 0.  1.
     999900   -1    0    0    0    0 -0.00000000000E+00 -0.00000000000E+00 -0.74505805969E-08  0.93827000000E+00  0.93827000000E+00 0.  1.
     999902    2    1    2    0    0 -0.86798276097E-02 -0.19818627431E-01  0.91946563811E-02  0.10204212972E+01  0.10201504618E+01 0.  0.
     999903    2    3    3    0    0  0.10790548288E+00 -0.11701041296E-01 -0.67648075940E-01  0.12937537509E+00  0.19524802109E-01 0.  0.
         14    1    1    2    0    0  0.86798276097E-02  0.19818627431E-01 -0.91946563811E-02  0.23508702784E-01  0.00000000000E+00 0. -1.
     999901    1    3    3    0    0 -0.11658531049E+00 -0.81175861354E-02  0.76842732321E-01  0.89104592213E+00  0.88000000000E+00 0. -1.
        -11    1    4    4    0    0  0.53480510235E-01 -0.10539697171E-01 -0.23833844142E-01  0.59494230300E-01  0.51100000000E-03 0. -1.
         11    1    4    4    0    0  0.54424972649E-01 -0.11613441248E-02 -0.43814231798E-01  0.69881144790E-01  0.51100000000E-03 0.  1.
</event>
<event>
 8    1  0.1117714E+005  0.1043930E+01  0.7957747E-01            NaN
         13   -1    0    0    0    0  0.00000000000E+00  0.00000000000E+00  0.74505805969E-08  0.10566000000E+00  0.10566000000E+00 0. -1.
     999900   -1    0    0    0    0 -0.00000000000E+00 -0.00000000000E+00 -0.74505805969E-08  0.93827000000E+00  0.93827000000E+00 0. -1.
     999902    2    1    2    0    0 -0.68825479894E-04  0.23134273045E-01  0.57781732534E-02  0.10200849457E+01  0.10198062119E+01 0.  0.
     999903    2    3    3    0    0  0.27950180406E-01 -0.29197252680E-01 -0.12087255829E+00  0.12903833581E+00  0.20174850972E-01 0.  0.
         14    1    1    2    0    0  0.68825479894E-04 -0.23134273045E-01 -0.57781732534E-02  0.23845054255E-01  0.00000000000E+00 0. -1.
     999901    1    3    3    0    0 -0.28019005886E-01  0.52331525725E-01  0.12665073155E+00  0.89104660993E+00  0.88000000000E+00 0.  1.
        -11    1    4    4    0    0  0.10248390438E-01 -0.19593582946E-01 -0.85668521283E-01  0.88477650619E-01  0.51100000000E-03 0.  1.
         11    1    4    4    0    0  0.17701789968E-01 -0.96036697335E-02 -0.35204037010E-01  0.40560685191E-01  0.51100000000E-03 0. -1.
</event>
<event>
 8    1  0.1117714E+005  0.1043930E+01  0.7957747E-01            NaN
         13   -1    0    0    0    0  0.00000000000E+00  0.00000000000E+00  0.74505805969E-08  0.10566000000E+00  0.10566000000E+00 0. -1.
     999900   -1    0    0    0    0 -0.00000000000E+00 -0.00000000000E+00 -0.74505805969E-08  0.93827000000E+00  0.93827000000E+00 0. -1.
     999902    2    1    2    0    0 -0.25098652207E-02  0.67331568625E-02  0.22761170239E-01  0.10200614916E+01  0.10197822027E+01 0.  0.
     999903    2    3    3    0    0  0.33049297773E-02 -0.11101690360E+00  0.67043844867E-01  0.13109588825E+00  0.18856811411E-01 0.  0.
         14    1    1    2    0    0  0.25098652207E-02 -0.67331568625E-02 -0.22761170239E-01  0.23868508446E-01  0.00000000000E+00 0.  1.
     999901    1    3    3    0    0 -0.58147949980E-02  0.11775006046E+00 -0.44282674628E-01  0.88896560330E+00  0.88000000000E+00 0.  1.
        -11    1    4    4    0    0  0.50670406586E-02 -0.69932961106E-01  0.32042540726E-01  0.77092668181E-01  0.51100000000E-03 0. -1.
         11    1    4    4    0    0 -0.17621108813E-02 -0.41083942494E-01  0.35001304141E-01  0.54003220072E-01  0.51100000000E-03 0.  1.
</event>
<event>
 8    1  0.1117714E+005  0.1043930E+01  0.7957747E-01            NaN
         13   -1    0    0    0    0  0.00000000000E+00  0.00000000000E+00  0.74505805969E-08  0.10566000000E+00  0.10566000000E+00 0.  1.
     999900   -1    0    0    0    0 -0.00000000000E+00 -0.00000000000E+00 -0.74505805969E-08  0.93827000000E+00  0.93827000000E+00 0.  1.
     999902    2    1    2    0    0 -0.14324161820E-01 -0.12524659747E-01  0.13654247392E-01  0.10205101967E+01  0.10202414295E+01 0.  0.
     999903    2    3    3    0    0 -0.88168403183E-01 -0.36262977474E-01  0.91777825071E-01  0.13365069652E+00  0.18726148851E-01 0.  0.
         14    1    1    2    0    0  0.14324161820E-01  0.12524659747E-01 -0.13654247392E-01  0.23419803276E-01  0.00000000000E+00 0. -1.
     999901    1    3    3    0    0  0.73844241363E-01  0.23738317727E-01 -0.78123577679E-01  0.88685950020E+00  0.88000000000E+00 0.  1.
        -11    1    4    4    0    0 -0.53081919930E-01 -0.12017582260E-01  0.54085947790E-01  0.76731110876E-01  0.51100000000E-03 0.  1.
         11    1    4    4    0    0 -0.35086483253E-01 -0.24245395214E-01  0.37691877281E-01  0.56919585646E-01  0.51100000000E-03 0. -1.
</event>
<event>
 8    1  0.1117714E+005  0.1043930E+01  0.7957747E-01            NaN
         13   -1    0    0    0    0  0.00000000000E+00  0.00000000000E+00  0.74505805969E-08  0.10566000000E+00  0.10566000000E+00 0.  1.
     999900   -1    0    0    0    0 -0.00000000000E+00 -0.00000000000E+00 -0.74505805969E-08  0.93827000000E+00  0.93827000000E+00 0. -1.
     999902    2    1    2    0    0  0.78325992262E-02  0.21738355637E-01 -0.18649713449E-02  0.10207484592E+01  0.10204851949E+01 0.  0.
     999903    2    3    3    0    0 -0.19894818572E-01 -0.10467111214E+00  0.69141860662E-01  0.12845359008E+00  0.19180260332E-01 0.  0.
         14    1    1    2    0    0 -0.78325992262E-02 -0.21738355637E-01  0.18649713449E-02  0.23181540815E-01  0.00000000000E+00 0. -1.
     999901    1    3    3    0    0  0.27727417798E-01  0.12640946777E+00 -0.71006832007E-01  0.89229486911E+00  0.88000000000E+00 0. -1.
        -11    1    4    4    0    0 -0.10346160893E-01 -0.39052709546E-01  0.15924095125E-01  0.43428045025E-01  0.51100000000E-03 0.  1.
         11    1    4    4    0    0 -0.95486576787E-02 -0.65618402591E-01  0.53217765537E-01  0.85025545055E-01  0.51100000000E-03 0. -1.
</event>
<event>
 8    1  0.1117714E+005  0.1043930E+01  0.7957747E-01            NaN
         13   -1    0    0    0    0  0.00000000000E+00  0.00000000000E+00  0.74505805969E-08  0.10566000000E+00  0.10566000000E+00 0.  1.
     999900   -1    0    0    0    0 -0.00000000000E+00 -0.00000000000E+00 -0.74505805969E-08  0.93827000000E+00  0.93827000000E+00 0. -1.
     999902    2    1    2    0    0 -0.16077677528E-01  0.30895089430E-02  0.14483185103E-01  0.10220713763E+01  0.10218376088E+01 0.  0.
     999903    2    3    3    0    0 -0.10734984298E+00  0.27355629960E-01  0.75327675430E-01  0.13492905127E+00  0.16101891623E-01 0.  0.
         14    1    1    2    0    0  0.16077677528E-01 -0.30895089430E-02 -0.14483185103E-01  0.21858623720E-01  0.00000000000E+00 0.  1.
     999901    1    3    3    0    0  0.91272165451E-01 -0.24266121017E-01 -0.60844490327E-01  0.88714232501E+00  0.88000000000E+00 0.  1.
        -11    1    4    4    0    0 -0.37613155019E-01  0.13261808656E-01  0.35475180428E-01  0.53379533032E-01  0.51100000000E-03 0.  1.
         11    1    4    4    0    0 -0.69736687960E-01  0.14093821304E-01  0.39852495002E-01  0.81549518241E-01  0.51100000000E-03 0. -1.
</event>
<event>
 8    1  0.1117714E+005  0.1043930E+01  0.7957747E-01            NaN
         13   -1    0    0    0    0  0.00000000000E+00  0.00000000000E+00  0.74505805969E-08  0.10566000000E+00  0.10566000000E+00 0.  1.
     999900   -1    0    0    0    0 -0.00000000000E+00 -0.00000000000E+00 -0.74505805969E-08  0.93827000000E+00  0.93827000000E+00 0. -1.
     999902    2    1    2    0    0  0.28609497126E-02 -0.95747513773E-02 -0.22130534207E-01  0.10196478782E+01  0.10193587072E+01 0.  0.
     999903    2    3    3    0    0 -0.19049993845E-01  0.79298851038E-01  0.95439528675E-01  0.12712262566E+00  0.20006206001E-01 0.  0.
         14    1    1    2    0    0 -0.28609497126E-02  0.95747513773E-02  0.22130534207E-01  0.24282121849E-01  0.00000000000E+00 0.  1.
     999901    1    3    3    0    0  0.21910943557E-01 -0.88873602416E-01 -0.11757006288E+00  0.89252525249E+00  0.88000000000E+00 0. -1.
        -11    1    4    4    0    0 -0.21937410468E-01  0.60314585530E-01  0.66794681042E-01  0.92633092047E-01  0.51100000000E-03 0. -1.
         11    1    4    4    0    0  0.28874166238E-02  0.18984265509E-01  0.28644847634E-01  0.34489533610E-01  0.51100000000E-03 0.  1.
</event>
<event>
 8    1  0.1117714E+005  0.1043930E+01  0.7957747E-01            NaN
         13   -1    0    0    0    0  0.00000000000E+00  0.00000000000E+00  0.74505805969E-08  0.10566000000E+00  0.10566000000E+00 0.  1.
     999900   -1    0    0    0    0 -0.00000000000E+00 -0.00000000000E+00 -0.74505805969E-08  0.93827000000E+00  0.93827000000E+00 0. -1.
     999902    2    1    2    0    0 -0.17172419284E-02  0.17078602077E-01  0.16990671904E-01  0.10197781781E+01  0.10194921393E+01 0.  0.
     999903    2    3    3    0    0 -0.42158717043E-01 -0.45994438101E-01  0.11397551276E+00  0.13128519521E+00  0.18776027675E-01 0.  0.
         14    1    1    2    0    0  0.17172419284E-02 -0.17078602077E-01 -0.16990671904E-01  0.24151821888E-01  0.00000000000E+00 0. -1.
     999901    1    3    3    0    0  0.40441475115E-01  0.63073040178E-01 -0.96984840851E-01  0.88849298290E+00  0.88000000000E+00 0. -1.
        -11    1    4    4    0    0 -0.15573135302E-01 -0.52915791422E-02  0.31762676414E-01  0.35772225076E-01  0.51100000000E-03 0.  1.
         11    1    4    4    0    0 -0.26585581742E-01 -0.40702858959E-01  0.82212836341E-01  0.95512970136E-01  0.51100000000E-03 0. -1.
</event>
<event>
 8    1  0.1117714E+005  0.1043930E+01  0.7957747E-01            NaN
         13   -1    0    0    0    0  0.00000000000E+00  0.00000000000E+00  0.74505805969E-08  0.10566000000E+00  0.10566000000E+00 0. -1.
     999900   -1    0    0    0    0 -0.00000000000E+00 -0.00000000000E+00 -0.74505805969E-08  0.93827000000E+00  0.93827000000E+00 0.  1.
     999902    2    1    2    0    0 -0.10585277426E-01 -0.20913471708E-01  0.73953524827E-04  0.10204901436E+01  0.10202209106E+01 0.  0.
     999903    2    3    3    0    0 -0.12137862565E-01 -0.16006351820E-01 -0.12815528434E+00  0.13118185750E+00  0.19528743663E-01 0.  0.
         14    1    1    2    0    0  0.10585277426E-01  0.20913471708E-01 -0.73953524827E-04  0.23439856361E-01  0.00000000000E+00 0. -1.
     999901    1    3    3    0    0  0.15525851386E-02 -0.49071198878E-02  0.12822923786E+00  0.88930828613E+00  0.88000000000E+00 0. -1.
        -11    1    4    4    0    0 -0.15158534893E-01 -0.65438405222E-02 -0.99200992561E-01  0.10056689851E+00  0.51100000000E-03 0. -1.
         11    1    4    4    0    0  0.30206723280E-02 -0.94625112982E-02 -0.28954291774E-01  0.30614958999E-01  0.51100000000E-03 0.  1.
</event>
<event>
 8    1  0.1117714E+005  0.1043930E+01  0.7957747E-01            NaN
         13   -1    0    0    0    0  0.00000000000E+00  0.00000000000E+00  0.74505805969E-08  0.10566000000E+00  0.10566000000E+00 0. -1.
     999900   -1    0    0    0    0 -0.00000000000E+00 -0.00000000000E+00 -0.74505805969E-08  0.93827000000E+00  0.93827000000E+00 0. -1.
     999902    2    1    2    0    0 -0.13552752702E-01  0.19077115304E-01  0.24232940095E-02  0.10204037213E+01  0.10201324761E+01 0.  0.
     999903    2    3    3    0    0  0.65943898049E-02 -0.58344642980E-01  0.11388044174E+00  0.12977319649E+00  0.20609322497E-01 0.  0.
         14    1    1    2    0    0  0.13552752702E-01 -0.19077115304E-01 -0.24232940095E-02  0.23526278668E-01  0.00000000000E+00 0. -1.
     999901    1    3    3    0    0 -0.20147142507E-01  0.77421758284E-01 -0.11145714773E+00  0.89063052485E+00  0.88000000000E+00 0. -1.
        -11    1    4    4    0    0  0.46125692087E-02 -0.11364158936E-01  0.42955515916E-01  0.44675019548E-01  0.51100000000E-03 0. -1.
         11    1    4    4    0    0  0.19818205962E-02 -0.46980484044E-01  0.70924925825E-01  0.85098176938E-01  0.51100000000E-03 0.  1.
</event>
<event>
 8    1  0.1117714E+005  0.1043930E+01  0.7957747E-01            NaN
         13   -1    0    0    0    0  0.00000000000E+00  0.00000000000E+00  0.74505805969E-08  0.10566000000E+00  0.10566000000E+00 0. -1.
     999900   -1    0    0    0    0 -0.00000000000E+00 -0.00000000000E+00 -0.74505805969E-08  0.93827000000E+00  0.93827000000E+00 0. -1.
     999902    2    1    2    0    0 -0.22254998592E-01 -0.43754537846E-02 -0.67657655714E-02  0.10202613469E+01  0.10199867699E+01 0.  0.
     999903    2    3    3    0    0  0.60717178211E-01  0.86056133802E-01 -0.72466096552E-01  0.12931870692E+00  0.19487404001E-01 0.  0.
         14    1    1    2    0    0  0.22254998592E-01  0.43754537846E-02  0.67657655714E-02  0.23668653150E-01  0.00000000000E+00 0.  1.
     999901    1    3    3    0    0 -0.82972176803E-01 -0.90431587587E-01  0.65700330981E-01  0.89094263993E+00  0.88000000000E+00 0.  1.
        -11    1    4    4    0    0  0.42027687960E-01  0.57054168757E-01 -0.59241651620E-01  0.92365248527E-01  0.51100000000E-03 0.  1.
         11    1    4    4    0    0  0.18689490251E-01  0.29001965045E-01 -0.13224444932E-01  0.36953458392E-01  0.51100000000E-03 0. -1.
</event>
<event>
 8    1  0.1117714E+005  0.1043930E+01  0.7957747E-01            NaN
         13   -1    0    0    0    0  0.00000000000E+00  0.00000000000E+00  0.74505805969E-08  0.10566000000E+00  0.10566000000E+00 0. -1.
     999900   -1    0    0    0    0 -0.00000000000E+00 -0.00000000000E+00 -0.74505805969E-08  0.93827000000E+00  0.93827000000E+00 0. -1.
     999902    2    1    2    0    0  0.10313786537E-01 -0.56638331041E-02  0.22891497630E-01  0.10181914324E+01  0.10178660615E+01 0.  0.
     999903    2    3    3    0    0 -0.74185494189E-01  0.59175994660E-01  0.85798714557E-01  0.12953984171E+00  0.20343679061E-01 0.  0.
         14    1    1    2    0    0 -0.10313786537E-01  0.56638331041E-02 -0.22891497630E-01  0.25738567596E-01  0.00000000000E+00 0.  1.
     999901    1    3    3    0    0  0.84499280726E-01 -0.64839827764E-01 -0.62907216927E-01  0.88865159070E+00  0.88000000000E+00 0. -1.
        -11    1    4    4    0    0 -0.25477601505E-01  0.20577373014E-01  0.43111588029E-01  0.54142465791E-01  0.51100000000E-03 0.  1.
         11    1    4    4    0    0 -0.48707892684E-01  0.38598621646E-01  0.42687126528E-01  0.75397375915E-01  0.51100000000E-03 0. -1.
</event>
<event>
 8    1  0.1117714E+005  0.1043930E+01  0.7957747E-01            NaN
         13   -1    0    0    0    0  0.00000000000E+00  0.00000000000E+00  0.74505805969E-08  0.10566000000E+00  0.10566000000E+00 0.  1.
     999900   -1    0    0    0    0 -0.00000000000E+00 -0.00000000000E+00 -0.74505805969E-08  0.93827000000E+00  0.93827000000E+00 0.  1.
     999902    2    1    2    0    0  0.41779117721E-02  0.23160525661E-01  0.40468926165E-02  0.10200502547E+01  0.10197706997E+01 0.  0.
     999903    2    3    3    0    0  0.10651105109E+00  0.56127410145E-01  0.50792031836E-01  0.13227551136E+00  0.20544834705E-01 0.  0.
         14    1    1    2    0    0 -0.41779117721E-02 -0.23160525661E-01 -0.40468926165E-02  0.23879745299E-01  0.00000000000E+00 0. -1.
     999901    1    3    3    0    0 -0.10233313932E+00 -0.32966884484E-01 -0.46745139220E-01  0.88777474334E+00  0.88000000000E+00 0.  1.
        -11    1    4    4    0    0  0.84574764140E-02  0.11624600867E-01  0.74421868878E-02  0.16195910573E-01  0.51100000000E-03 0. -1.
         11    1    4    4    0    0  0.98053574678E-01  0.44502809279E-01  0.43349844948E-01  0.11607960079E+00  0.51100000000E-03 0.  1.
</event>
<event>
 8    1  0.1117714E+005  0.1043930E+01  0.7957747E-01            NaN
         13   -1    0    0    0    0  0.00000000000E+00  0.00000000000E+00  0.74505805969E-08  0.10566000000E+00  0.10566000000E+00 0. -1.
     999900   -1    0    0    0    0 -0.00000000000E+00 -0.00000000000E+00 -0.74505805969E-08  0.93827000000E+00  0.93827000000E+00 0.  1.
     999902    2    1    2    0    0 -0.11804699722E-01  0.18934945889E-01  0.78294536079E-02  0.10202829398E+01  0.10200088695E+01 0.  0.
     999903    2    3    3    0    0 -0.30822761468E-01  0.11272597958E+00  0.61201085704E-01  0.13348703557E+00  0.20396732027E-01 0.  0.
         14    1    1    2    0    0  0.11804699722E-01 -0.18934945889E-01 -0.78294536079E-02  0.23647060180E-01  0.00000000000E+00 0.  1.
     999901    1    3    3    0    0  0.19018061746E-01 -0.93791033695E-01 -0.53371632096E-01  0.88679590425E+00  0.88000000000E+00 0.  1.
        -11    1    4    4    0    0 -0.32858379020E-01  0.93778802591E-01  0.48447460750E-01  0.11055113958E+00  0.51100000000E-03 0.  1.
         11    1    4    4    0    0  0.20356175521E-02  0.18947176993E-01  0.12753624953E-01  0.22935895999E-01  0.51100000000E-03 0. -1.
</event>
<event>
 8    1  0.1117714E+005  0.1043930E+01  0.7957747E-01            NaN
         13   -1    0    0    0    0  0.00000000000E+00  0.00000000000E+00  0.74505805969E-08  0.10566000000E+00  0.10566000000E+00 0.  1.
     999900   -1    0    0    0    0 -0.00000000000E+00 -0.00000000000E+00 -0.74505805969E-08  0.93827000000E+00  0.93827000000E+00 0. -1.
     999902    2    1    2    0    0  0.20201262522E-03  0.62061778288E-03 -0.12724491025E-01  0.10311887816E+01  0.10311100642E+01 0.  0.
     999903    2    3    3    0    0  0.63809017369E-01  0.25566907964E-01  0.11881080849E+00  0.13879329554E+00  0.20550260133E-01 0.  0.
         14    1    1    2    0    0 -0.20201262522E-03 -0.62061778288E-03  0.12724491025E-01  0.12741218442E-01  0.00000000000E+00 0.  1.
     999901    1    3    3    0    0 -0.63607004744E-01 -0.24946290181E-01 -0.13153529952E+00  0.89239548602E+00  0.88000000000E+00 0. -1.
        -11    1    4    4    0    0  0.22476480315E-01  0.17279967162E-01  0.60742501099E-01  0.67035080318E-01  0.51100000000E-03 0.  1.
         11    1    4    4    0    0  0.41332537054E-01  0.82869408015E-02  0.58068307394E-01  0.71758215222E-01  0.51100000000E-03 0. -1.
</event>
<event>
 8    1  0.1117714E+005  0.1043930E+01  0.7957747E-01            NaN
         13   -1    0    0    0    0  0.00000000000E+00  0.00000000000E+00  0.74505805969E-08  0.10566000000E+00  0.10566000000E+00 0. -1.
     999900   -1    0    0    0    0 -0.00000000000E+00 -0.00000000000E+00 -0.74505805969E-08  0.93827000000E+00  0.93827000000E+00 0.  1.
     999902    2    1    2    0    0 -0.22964117537E-01  0.18764821690E-02 -0.56879555254E-02  0.10201976441E+01  0.10199215697E+01 0.  0.
     999903    2    3    3    0    0 -0.22432911007E-01 -0.44931508005E-01 -0.11951234414E+00  0.13163292411E+00  0.22846233845E-01 0.  0.
         14    1    1    2    0    0  0.22964117537E-01 -0.18764821690E-02  0.56879555254E-02  0.23732355923E-01  0.00000000000E+00 0. -1.
     999901    1    3    3    0    0 -0.53120653048E-03  0.46807990174E-01  0.11382438861E+00  0.88856471997E+00  0.88000000000E+00 0. -1.
        -11    1    4    4    0    0 -0.22590330451E-01 -0.30330396517E-01 -0.10222869836E+00  0.10900102693E+00  0.51100000000E-03 0. -1.
         11    1    4    4    0    0  0.15741944409E-03 -0.14601111488E-01 -0.17283645777E-01  0.22631897179E-01  0.51100000000E-03 0.  1.
</event>
<event>
 8    1  0.1117714E+005  0.1043930E+01  0.7957747E-01            NaN
         13   -1    0    0    0    0  0.00000000000E+00  0.00000000000E+00  0.74505805969E-08  0.10566000000E+00  0.10566000000E+00 0.  1.
     999900   -1    0    0    0    0 -0.00000000000E+00 -0.00000000000E+00 -0.74505805969E-08  0.93827000000E+00  0.93827000000E+00 0. -1.
     999902    2    1    2    0    0  0.73707251427E-02  0.13826124835E-01  0.17702762180E-01  0.10202894182E+01  0.10200154998E+01 0.  0.
     999903    2    3    3    0    0 -0.74398777154E-01 -0.70494716421E-01  0.78266497225E-01  0.13042188777E+00  0.19481815565E-01 0.  0.
         14    1    1    2    0    0 -0.73707251427E-02 -0.13826124835E-01 -0.17702762180E-01  0.23640581759E-01  0.00000000000E+00 0. -1.
     999901    1    3    3    0    0  0.81769502296E-01  0.84320841256E-01 -0.60563735045E-01  0.88986753047E+00  0.88000000000E+00 0. -1.
        -11    1    4    4    0    0 -0.36265120440E-01 -0.45786325321E-01  0.37807179668E-01  0.69578664132E-01  0.51100000000E-03 0. -1.
         11    1    4    4    0    0 -0.38133656714E-01 -0.24708391099E-01  0.40459317557E-01  0.60843223643E-01  0.51100000000E-03 0.  1.
</event>
<event>
 8    1  0.1117714E+005  0.1043930E+01  0.7957747E-01            NaN
         13   -1    0    0    0    0  0.00000000000E+00  0.00000000000E+00  0.74505805969E-08  0.10566000000E+00  0.10566000000E+00 0.  1.
     999900   -1    0    0    0    0 -0.00000000000E+00 -0.00000000000E+00 -0.74505805969E-08  0.93827000000E+00  0.93827000000E+00 0. -1.
     999902    2    1    2    0    0  0.23092577605E-01 -0.50088054387E-02 -0.12890821402E-03  0.10203001060E+01  0.10200264381E+01 0.  0.
     999903    2    3    3    0    0  0.99769918533E-01  0.74636497482E-01 -0.41687466061E-01  0.13240940181E+00  0.16424416581E-01 0.  0.
         14    1    1    2    0    0 -0.23092577605E-01  0.50088054387E-02  0.12890821402E-03  0.23629893984E-01  0.00000000000E+00 0. -1.
     999901    1    3    3    0    0 -0.76677340928E-01 -0.79645302920E-01  0.41558557847E-01  0.88789070421E+00  0.88000000000E+00 0.  1.
        -11    1    4    4    0    0  0.73706141957E-01  0.62392213530E-01 -0.35939955340E-01  0.10304040558E+00  0.51100000000E-03 0.  1.
         11    1    4    4    0    0  0.26063776577E-01  0.12244283952E-01 -0.57475107209E-02  0.29368996228E-01  0.51100000000E-03 0. -1.
</event>
<event>
 8    1  0.1117714E+005  0.1043930E+01  0.7957747E-01            NaN
         13   -1    0    0    0    0  0.00000000000E+00  0.00000000000E+00  0.74505805969E-08  0.10566000000E+00  0.10566000000E+00 0. -1.
     999900   -1    0    0    0    0 -0.00000000000E+00 -0.00000000000E+00 -0.74505805969E-08  0.93827000000E+00  0.93827000000E+00 0. -1.
     999902    2    1    2    0    0 -0.16346724039E-01  0.15540477687E-01 -0.51953263014E-02  0.10207845199E+01  0.10205220835E+01 0.  0.
     999903    2    3    3    0    0  0.12352254387E+00 -0.15564112977E-02  0.30037198506E-01  0.12887810860E+00  0.21144557776E-01 0.  0.
         14    1    1    2    0    0  0.16346724039E-01 -0.15540477687E-01  0.51953263014E-02  0.23145480097E-01  0.00000000000E+00 0.  1.
     999901    1    3    3    0    0 -0.13986926790E+00  0.17096888985E-01 -0.35232524808E-01  0.89190641130E+00  0.88000000000E+00 0. -1.
        -11    1    4    4    0    0  0.60334836982E-01 -0.22173529854E-02  0.25438277488E-01  0.65517755535E-01  0.51100000000E-03 0.  1.
         11    1    4    4    0    0  0.63187706884E-01  0.66094168777E-03  0.45989210187E-02  0.63360353066E-01  0.51100000000E-03 0. -1.
</event>
<event>
 8    1  0.1117714E+005  0.1043930E+01  0.7957747E-01            NaN
         13   -1    0    0    0    0  0.00000000000E+00  0.00000000000E+00  0.74505805969E-08  0.10566000000E+00  0.10566000000E+00 0.  1.
     999900   -1    0    0    0    0 -0.00000000000E+00 -0.00000000000E+00 -0.74505805969E-08  0.93827000000E+00  0.93827000000E+00 0. -1.
     999902    2    1    2    0    0 -0.19421822598E-01 -0.13967987246E-01 -0.82030167069E-02  0.10186396591E+01  0.10183256619E+01 0.  0.
     999903    2    3    3    0    0 -0.76815754510E-01  0.96651444304E-01  0.29048285286E-01  0.12907887894E+00  0.23987335918E-01 0.  0.
         14    1    1    2    0    0  0.19421822598E-01  0.13967987246E-01  0.82030167069E-02  0.25290340919E-01  0.00000000000E+00 0.  1.
     999901    1    3    3    0    0  0.57393931912E-01 -0.11061943155E+00 -0.37251301993E-01  0.88956078014E+00  0.88000000000E+00 0. -1.
        -11    1    4    4    0    0 -0.21287741303E-01  0.34548501271E-01  0.20106687982E-01  0.45291355604E-01  0.51100000000E-03 0. -1.
         11    1    4    4    0    0 -0.55528013207E-01  0.62102943033E-01  0.89415973033E-02  0.83787523340E-01  0.51100000000E-03 0.  1.
</event>
<event>
 8    1  0.1117714E+005  0.1043930E+01  0.7957747E-01            NaN
         13   -1    0    0    0    0  0.00000000000E+00  0.00000000000E+00  0.74505805969E-08  0.10566000000E+00  0.10566000000E+00 0. -1.
     999900   -1    0    0    0    0 -0.00000000000E+00 -0.00000000000E+00 -0.74505805969E-08  0.93827000000E+00  0.93827000000E+00 0.  1.
     999902    2    1    2    0    0  0.48825509164E-02 -0.96746038856E-02  0.21087955927E-01  0.10202205262E+01  0.10199449901E+01 0.  0.
     999903    2    3    3    0    0  0.65327825835E-01  0.65548592059E-01 -0.86966281805E-01  0.12837531609E+00  0.18781503140E-01 0.  0.
         14    1    1    2    0    0 -0.48825509164E-02  0.96746038856E-02 -0.21087955927E-01  0.23709473823E-01  0.00000000000E+00 0.  1.
     999901    1    3    3    0    0 -0.60445274919E-01 -0.75223195945E-01  0.10805423773E+00  0.89184521009E+00  0.88000000000E+00 0. -1.
        -11    1    4    4    0    0  0.26444283814E-01  0.21899698383E-01 -0.44059044151E-01  0.55860159579E-01  0.51100000000E-03 0. -1.
         11    1    4    4    0    0  0.38883542021E-01  0.43648893676E-01 -0.42907237654E-01  0.72515156508E-01  0.51100000000E-03 0.  1.
</event>
<event>
 8    1  0.1117714E+005  0.1043930E+01  0.7957747E-01            NaN
         13   -1    0    0    0    0  0.00000000000E+00  0.00000000000E+00  0.74505805969E-08  0.10566000000E+00  0.10566000000E+00 0. -1.
     999900   -1    0    0    0    0 -0.00000000000E+00 -0.00000000000E+00 -0.74505805969E-08  0.93827000000E+00  0.93827000000E+00 0. -1.
     999902    2    1    2    0    0  0.96829600057E-02 -0.69772669045E-02  0.20350262057E-01  0.10203381554E+01  0.10200653784E+01 0.  0.
     999903    2    3    3    0    0  0.52859319533E-01  0.47925895638E-02 -0.11384240448E+00  0.12904112333E+00  0.29570963409E-01 0.  0.
         14    1    1    2    0    0 -0.96829600057E-02  0.69772669045E-02 -0.20350262057E-01  0.23591844644E-01  0.00000000000E+00 0.  1.
     999901    1    3    3    0    0 -0.43176359527E-01 -0.11769856468E-01  0.13419266654E+00  0.89129703202E+00  0.88000000000E+00 0.  1.
        -11    1    4    4    0    0 -0.16287187209E-02 -0.50869814031E-02 -0.10843220930E-01  0.12098209190E-01  0.51100000000E-03 0.  1.
         11    1    4    4    0    0  0.54488038254E-01  0.98795709669E-02 -0.10299918355E+00  0.11694291414E+00  0.51100000000E-03 0. -1.
</event>
<event>
 8    1  0.1117714E+005  0.1043930E+01  0.7957747E-01            NaN
         13   -1    0    0    0    0  0.00000000000E+00  0.00000000000E+00  0.74505805969E-08  0.10566000000E+00  0.10566000000E+00 0.  1.
     999900   -1    0    0    0    0 -0.00000000000E+00 -0.00000000000E+00 -0.74505805969E-08  0.93827000000E+00  0.93827000000E+00 0. -1.
     999902    2    1    2    0    0  0.15639007498E-01 -0.16786867218E-01  0.53625411220E-03  0.10209808162E+01  0.10207228625E+01 0.  0.
     999903    2    3    3    0    0 -0.55836419774E-01  0.56680387129E-01  0.99410836271E-01  0.12953123429E+00  0.23779281552E-01 0.  0.
         14    1    1    2    0    0 -0.15639007498E-01  0.16786867218E-01 -0.53625411220E-03  0.22949183755E-01  0.00000000000E+00 0.  1.
     999901    1    3    3    0    0  0.71475427272E-01 -0.73467254347E-01 -0.98874582159E-01  0.89144958195E+00  0.88000000000E+00 0.  1.
        -11    1    4    4    0    0 -0.34417981658E-01  0.49060871230E-01  0.77329636190E-01  0.97835066829E-01  0.51100000000E-03 0.  1.
         11    1    4    4    0    0 -0.21418438116E-01  0.76195158987E-02  0.22081200082E-01  0.31696167464E-01  0.51100000000E-03 0. -1.
</event>
<event>
 8    1  0.1117714E+005  0.1043930E+01  0.7957747E-01            NaN
         13   -1    0    0    0    0  0.00000000000E+00  0.00000000000E+00  0.74505805969E-08  0.10566000000E+00  0.10566000000E+00 0. -1.
     999900   -1    0    0    0    0 -0.00000000000E+00 -0.00000000000E+00 -0.74505805969E-08  0.93827000000E+00  0.93827000000E+00 0.  1.
     999902    2    1    2    0    0 -0.98198148383E-02 -0.19006007075E-01  0.10518208458E-01  0.10200911708E+01  0.10198125842E+01 0.  0.
     999903    2    3    3    0    0 -0.22918340649E-01  0.12455987768E+00  0.62355884672E-02  0.12835069540E+00  0.19864666629E-01 0.  0.
         14    1    1    2    0    0  0.98198148383E-02  0.19006007075E-01 -0.10518208458E-01  0.23838829198E-01  0.00000000000E+00 0. -1.
     999901    1    3    3    0    0  0.13098525811E-01 -0.14356588475E+00  0.42826199906E-02  0.89174047541E+00  0.88000000000E+00 0.  1.
        -11    1    4    4    0    0 -0.24787862285E-01  0.84666021722E-01  0.28687922863E-02  0.88268139445E-01  0.51100000000E-03 0.  1.
         11    1    4    4    0    0  0.18695216358E-02  0.39893855954E-01  0.33667961809E-02  0.40082555951E-01  0.51100000000E-03 0. -1.
</event>
<event>
 8    1  0.1117714E+005  0.1043930E+01  0.7957747E-01            NaN
         13   -1    0    0    0    0  0.00000000000E+00  0.00000000000E+00  0.74505805969E-08  0.10566000000E+00  0.10566000000E+00 0.  1.
     999900   -1    0    0    0    0 -0.00000000000E+00 -0.00000000000E+00 -0.74505805969E-08  0.93827000000E+00  0.93827000000E+00 0. -1.
     999902    2    1    2    0    0  0.18397278866E-01 -0.80170249346E-02 -0.11863056219E-01  0.10206176715E+01  0.10203513937E+01 0.  0.
     999903    2    3    3    0    0  0.87705172900E-01 -0.93309269587E-01 -0.31833262281E-01  0.13355670384E+00  0.20620848875E-01 0.  0.
         14    1    1    2    0    0 -0.18397278866E-01  0.80170249346E-02  0.11863056219E-01  0.23312328526E-01  0.00000000000E+00 0. -1.
     999901    1    3    3    0    0 -0.69307894035E-01  0.85292244652E-01  0.19970206062E-01  0.88706096764E+00  0.88000000000E+00 0.  1.
        -11    1    4    4    0    0  0.22757165212E-01 -0.35984881824E-01 -0.50311816888E-02  0.42876266145E-01  0.51100000000E-03 0. -1.
         11    1    4    4    0    0  0.64948007689E-01 -0.57324387763E-01 -0.26802080592E-01  0.90680437693E-01  0.51100000000E-03 0.  1.
</event>
<event>
 8    1  0.1117714E+005  0.1043930E+01  0.7957747E-01            NaN
         13   -1    0    0    0    0  0.00000000000E+00  0.00000000000E+00  0.74505805969E-08  0.10566000000E+00  0.10566000000E+00 0. -1.
     999900   -1    0    0    0    0 -0.00000000000E+00 -0.00000000000E+00 -0.74505805969E-08  0.93827000000E+00  0.93827000000E+00 0. -1.
     999902    2    1    2    0    0  0.21966101072E-01  0.24606247959E-02 -0.46796641785E-02  0.10213365601E+01  0.10210866297E+01 0.  0.
     999903    2    3    3    0    0 -0.11738969134E+00  0.44194926367E-01  0.22017659026E-01  0.12899439707E+00  0.20524278722E-01 0.  0.
         14    1    1    2    0    0 -0.21966101072E-01 -0.24606247959E-02  0.46796641785E-02  0.22593439922E-01  0.00000000000E+00 0. -1.
     999901    1    3    3    0    0  0.13935579242E+00 -0.41734301571E-01 -0.26697323205E-01  0.89234216300E+00  0.88000000000E+00 0. -1.
        -11    1    4    4    0    0 -0.72797132701E-01  0.37271364984E-01  0.17522384177E-01  0.83641330965E-01  0.51100000000E-03 0. -1.
         11    1    4    4    0    0 -0.44592558643E-01  0.69235613828E-02  0.44952748487E-02  0.45353066109E-01  0.51100000000E-03 0.  1.
</event>
<event>
 8    1  0.1117714E+005  0.1043930E+01  0.7957747E-01            NaN
         13   -1    0    0    0    0  0.00000000000E+00  0.00000000000E+00  0.74505805969E-08  0.10566000000E+00  0.10566000000E+00 0. -1.
     999900   -1    0    0    0    0 -0.00000000000E+00 -0.00000000000E+00 -0.74505805969E-08  0.93827000000E+00  0.93827000000E+00 0. -1.
     999902    2    1    2    0    0  0.16922816717E-01 -0.15556506058E-01 -0.76691497549E-02  0.10196977392E+01  0.10194097689E+01 0.  0.
     999903    2    3    3    0    0 -0.78151202114E-01 -0.54681460389E-01 -0.87390799154E-01  0.13013302962E+00  0.14134394938E-01 0.  0.
         14    1    1    2    0    0 -0.16922816717E-01  0.15556506058E-01  0.76691497549E-02  0.24232260818E-01  0.00000000000E+00 0. -1.
     999901    1    3    3    0    0  0.95074018831E-01  0.39124954331E-01  0.79721649399E-01  0.88956470956E+00  0.88000000000E+00 0.  1.
        -11    1    4    4    0    0 -0.10966652291E-01 -0.14313808800E-01 -0.16760943947E-01  0.24624031916E-01  0.51100000000E-03 0.  1.
         11    1    4    4    0    0 -0.67184549823E-01 -0.40367651589E-01 -0.70629855208E-01  0.10550899771E+00  0.51100000000E-03 0. -1.
</event>
<event>
 8    1  0.1117714E+005  0.1043930E+01  0.7957747E-01            NaN
         13   -1    0    0    0    0  0.00000000000E+00  0.00000000000E+00  0.74505805969E-08  0.10566000000E+00  0.10566000000E+00 0.  1.
     999900   -1    0    0    0    0 -0.00000000000E+00 -0.00000000000E+00 -0.74505805969E-08  0.93827000000E+00  0.93827000000E+00 0.  1.
     999902    2    1    2    0    0 -0.59362572821E-02  0.27068995444E-02 -0.15324953094E-01  0.10272740508E+01  0.10271390144E+01 0.  0.
     999903    2    3    3    0    0 -0.37071413074E-01  0.13040635425E+00  0.82622330816E-02  0.13719938878E+00  0.19372684092E-01 0.  0.
         14    1    1    2    0    0  0.59362572821E-02 -0.27068995444E-02  0.15324953094E-01  0.16655949177E-01  0.00000000000E+00 0.  1.
     999901    1    3    3    0    0  0.31135155792E-01 -0.12769945471E+00 -0.23587186175E-01  0.89007466204E+00  0.88000000000E+00 0. -1.
        -11    1    4    4    0    0 -0.14236067527E-01  0.83897506333E-01  0.35846419432E-02  0.85173751628E-01  0.51100000000E-03 0. -1.
         11    1    4    4    0    0 -0.22835345547E-01  0.46508847921E-01  0.46775911383E-02  0.52025637152E-01  0.51100000000E-03 0.  1.
</event>
<event>
 8    1  0.1117714E+005  0.1043930E+01  0.7957747E-01            NaN
         13   -1    0    0    0    0  0.00000000000E+00  0.00000000000E+00  0.74505805969E-08  0.10566000000E+00  0.10566000000E+00 0. -1.
     999900   -1    0    0    0    0 -0.00000000000E+00 -0.00000000000E+00 -0.74505805969E-08  0.93827000000E+00  0.93827000000E+00 0.  1.
     999902    2    1    2    0    0  0.18884796192E-01  0.98648780543E-02  0.76310469973E-02  0.10212985125E+01  0.10210477303E+01 0.  0.
     999903    2    3    3    0    0  0.10554005107E+00 -0.71497246161E-01  0.32045923128E-01  0.13297142490E+00  0.20097265053E-01 0.  0.
         14    1    1    2    0    0 -0.18884796192E-01 -0.98648780543E-02 -0.76310469973E-02  0.22631487457E-01  0.00000000000E+00 0. -1.
     999901    1    3    3    0    0 -0.86655254883E-01  0.81362124216E-01 -0.24414876130E-01  0.88832708764E+00  0.88000000000E+00 0.  1.
        -11    1    4    4    0    0  0.22581668525E-01 -0.25946961797E-01  0.92240003313E-02  0.35616286766E-01  0.51100000000E-03 0.  1.
         11    1    4    4    0    0  0.82958382550E-01 -0.45550284364E-01  0.22821922796E-01  0.97355138139E-01  0.51100000000E-03 0. -1.
</event>
<event>
 8    1  0.1117714E+005  0.1043930E+01  0.7957747E-01            NaN
         13   -1    0    0    0    0  0.00000000000E+00  0.00000000000E+00  0.74505805969E-08  0.10566000000E+00  0.10566000000E+00 0.  1.
     999900   -1    0    0    0    0 -0.00000000000E+00 -0.00000000000E+00 -0.74505805969E-08  0.93827000000E+00  0.93827000000E+00 0. -1.
     999902    2    1    2    0    0 -0.22616953831E-01 -0.58121210541E-02 -0.20521231047E-02  0.10204881878E+01  0.10202189093E+01 0.  0.
     999903    2    3    3    0    0 -0.48359868386E-01 -0.96251722773E-01  0.74034844681E-01  0.13221387997E+00  0.19906803460E-01 0.  0.
         14    1    1    2    0    0  0.22616953831E-01  0.58121210541E-02  0.20521231047E-02  0.23441812238E-01  0.00000000000E+00 0.  1.
     999901    1    3    3    0    0  0.25742914555E-01  0.90439601719E-01 -0.76086967786E-01  0.88827430779E+00  0.88000000000E+00 0. -1.
        -11    1    4    4    0    0 -0.36290705207E-01 -0.66856055875E-01  0.41180190903E-01  0.86503275865E-01  0.51100000000E-03 0. -1.
         11    1    4    4    0    0 -0.12069163179E-01 -0.29395666898E-01  0.32854653778E-01  0.45710604109E-01  0.51100000000E-03 0.  1.
</event>
<event>
 8    1  0.1117714E+005  0.1043930E+01  0.7957747E-01            NaN
         13   -1    0    0    0    0  0.00000000000E+00  0.00000000000E+00  0.74505805969E-08  0.10566000000E+00  0.10566000000E+00 0.  1.
     999900   -1    0    0    0    0 -0.00000000000E+00 -0.00000000000E+00 -0.74505805969E-08  0.93827000000E+00  0.93827000000E+00 0. -1.
     999902    2    1    2    0    0  0.95954940737E-02  0.12564663656E-01 -0.17428854627E-01  0.10203989725E+01  0.10201276165E+01 0.  0.
     999903    2    3    3    0    0 -0.80186725087E-01  0.69292891290E-01 -0.75566570211E-01  0.13210908031E+00  0.22607231193E-01 0.  0.
         14    1    1    2    0    0 -0.95954940737E-02 -0.12564663656E-01  0.17428854627E-01  0.23531027451E-01  0.00000000000E+00 0.  1.
     999901    1    3    3    0    0  0.89782219161E-01 -0.56728227635E-01  0.58137715584E-01  0.88828989224E+00  0.88000000000E+00 0.  1.
        -11    1    4    4    0    0 -0.19540224680E-01  0.83863447743E-02 -0.77999104252E-02  0.22655041003E-01  0.51100000000E-03 0. -1.
         11    1    4    4    0    0 -0.60646500407E-01  0.60906546516E-01 -0.67766659786E-01  0.10945403930E+00  0.51100000000E-03 0.  1.
</event>
<event>
 8    1  0.1117714E+005  0.1043930E+01  0.7957747E-01            NaN
         13   -1    0    0    0    0  0.00000000000E+00  0.00000000000E+00  0.74505805969E-08  0.10566000000E+00  0.10566000000E+00 0.  1.
     999900   -1    0    0    0    0 -0.00000000000E+00 -0.00000000000E+00 -0.74505805969E-08  0.93827000000E+00  0.93827000000E+00 0.  1.
     999902    2    1    2    0    0 -0.25172064268E-02 -0.13553373790E-01 -0.19835906059E-01  0.10197743912E+01  0.10194882615E+01 0.  0.
     999903    2    3    3    0    0 -0.38972163561E-01 -0.10123806150E+00 -0.74548158670E-01  0.13297621855E+00  0.18901643048E-01 0.  0.
         14    1    1    2    0    0  0.25172064268E-02  0.13553373790E-01  0.19835906059E-01  0.24155608840E-01  0.00000000000E+00 0.  1.
     999901    1    3    3    0    0  0.36454957134E-01  0.87684687711E-01  0.54712252611E-01  0.88679817261E+00  0.88000000000E+00 0.  1.
        -11    1    4    4    0    0 -0.50283529664E-02 -0.27648172851E-01 -0.11807920255E-01  0.30485962299E-01  0.51100000000E-03 0.  1.
         11    1    4    4    0    0 -0.33943810594E-01 -0.73589888649E-01 -0.62740238414E-01  0.10249025625E+00  0.51100000000E-03 0. -1.
</event>
<event>
 8    1  0.1117714E+005  0.1043930E+01  0.7957747E-01            NaN
         13   -1    0    0    0    0  0.00000000000E+00  0.00000000000E+00  0.74505805969E-08  0.10566000000E+00  0.10566000000E+00 0.  1.
     999900   -1    0    0    0    0 -0.00000000000E+00 -0.00000000000E+00 -0.74505805969E-08  0.93827000000E+00  0.93827000000E+00 0. -1.
     999902    2    1    2    0    0 -0.19884070559E-02 -0.13306762824E-03 -0.23849034415E-01  0.10199978477E+01  0.10197170497E+01 0.  0.
     999903    2    3    3    0    0 -0.76725057027E-01  0.10196511433E+00  0.15988565324E-01  0.13005591706E+00  0.19372362428E-01 0.  0.
         14    1    1    2    0    0  0.19884070559E-02  0.13306762824E-03  0.23849034415E-01  0.23932152267E-01  0.00000000000E+00 0.  1.
     999901    1    3    3    0    0  0.74736649971E-01 -0.10209818196E+00 -0.39837599739E-01  0.88994193067E+00  0.88000000000E+00 0. -1.
        -11    1    4    4    0    0 -0.62672293605E-01  0.70259495908E-01  0.15144215399E-01  0.95361530672E-01  0.51100000000E-03 0.  1.
         11    1    4    4    0    0 -0.14052763422E-01  0.31705618423E-01  0.84434992423E-03  0.34694386393E-01  0.51100000000E-03 0. -1.
</event>
<event>
 8    1  0.1117714E+005  0.1043930E+01  0.7957747E-01            NaN
         13   -1    0    0    0    0  0.00000000000E+00  0.00000000000E+00  0.74505805969E-08  0.10566000000E+00  0.10566000000E+00 0. -1.
     999900   -1    0    0    0    0 -0.00000000000E+00 -0.00000000000E+00 -0.74505805969E-08  0.93827000000E+00  0.93827000000E+00 0.  1.
     999902    2    1    2    0    0  0.19854998364E-01  0.67198653803E-02 -0.11205796220E-02  0.10229387340E+01  0.10227233351E+01 0.  0.
     999903    2    3    3    0    0  0.36771630875E-02 -0.12171524146E+00 -0.47392520155E-01  0.13226573477E+00  0.20495172520E-01 0.  0.
         14    1    1    2    0    0 -0.19854998364E-01 -0.67198653803E-02  0.11205796220E-02  0.20991266028E-01  0.00000000000E+00 0. -1.
     999901    1    3    3    0    0  0.16177835277E-01  0.12843510684E+00  0.46271940533E-01  0.89067299920E+00  0.88000000000E+00 0.  1.
        -11    1    4    4    0    0  0.50463659273E-02 -0.11732234932E+00 -0.49164865953E-01  0.12730846250E+00  0.51100000000E-03 0.  1.
         11    1    4    4    0    0 -0.13692028399E-02 -0.43928921430E-02  0.17723457978E-02  0.49572722765E-02  0.51100000000E-03 0. -1.
</event>
<event>
 8    1  0.1117714E+005  0.1043930E+01  0.7957747E-01            NaN
         13   -1    0    0    0    0  0.00000000000E+00  0.00000000000E+00  0.74505805969E-08  0.10566000000E+00  0.10566000000E+00 0.  1.
     999900   -1    0    0    0    0 -0.00000000000E+00 -0.00000000000E+00 -0.74505805969E-08  0.93827000000E+00  0.93827000000E+00 0.  1.
     999902    2    1    2    0    0 -0.83831473995E-02 -0.12913952642E-01 -0.16881328867E-01  0.10210820986E+01  0.10208264424E+01 0.  0.
     999903    2    3    3    0    0  0.82965600167E-02  0.11528962823E+00  0.53583179118E-01  0.12884915949E+00  0.19246234199E-01 0.  0.
         14    1    1    2    0    0  0.83831473995E-02  0.12913952642E-01  0.16881328867E-01  0.22847901380E-01  0.00000000000E+00 0.  1.
     999901    1    3    3    0    0 -0.16679707416E-01 -0.12820358087E+00 -0.70464507985E-01  0.89223293913E+00  0.88000000000E+00 0.  1.
        -11    1    4    4    0    0 -0.54623134813E-02  0.50133939871E-01  0.19858899809E-01  0.54202267648E-01  0.51100000000E-03 0. -1.
         11    1    4    4    0    0  0.13758873498E-01  0.65155688358E-01  0.33724279309E-01  0.74646891839E-01  0.51100000000E-03 0.  1.
</event>
<event>
 8    1  0.1117714E+005  0.1043930E+01  0.7957747E-01            NaN
         13   -1    0    0    0    0  0.00000000000E+00  0.00000000000E+00  0.74505805969E-08  0.10566000000E+00  0.10566000000E+00 0. -1.
     999900   -1    0    0    0    0 -0.00000000000E+00 -0.00000000000E+00 -0.74505805969E-08  0.93827000000E+00  0.93827000000E+00 0.  1.
     999902    2    1    2    0    0 -0.44969255270E-02 -0.11744667971E-01  0.17016599688E-01  0.10227705050E+01  0.10225516034E+01 0.  0.
     999903    2    3    3    0    0 -0.15100517233E-01 -0.31868116399E-01  0.12916465083E+00  0.13536159432E+00  0.19890996167E-01 0.  0.
         14    1    1    2    0    0  0.44969255270E-02  0.11744667971E-01 -0.17016599688E-01  0.21159495029E-01  0.00000000000E+00 0.  1.
     999901    1    3    3    0    0  0.10603591706E-01  0.20123448428E-01 -0.11214805114E+00  0.88740891065E+00  0.88000000000E+00 0.  1.
        -11    1    4    4    0    0 -0.17808091871E-01 -0.16584744107E-01  0.89917296627E-01  0.93153439157E-01  0.51100000000E-03 0.  1.
         11    1    4    4    0    0  0.27075746383E-02 -0.15283372292E-01  0.39247354203E-01  0.42208155159E-01  0.51100000000E-03 0. -1.
</event>
<event>
 8    1  0.1117714E+005  0.1043930E+01  0.7957747E-01            NaN
         13   -1    0    0    0    0  0.00000000000E+00  0.00000000000E+00  0.74505805969E-08  0.10566000000E+00  0.10566000000E+00 0. -1.
     999900   -1    0    0    0    0 -0.00000000000E+00 -0.00000000000E+00 -0.74505805969E-08  0.93827000000E+00  0.93827000000E+00 0. -1.
     999902    2    1    2    0    0  0.15489624824E-01  0.86466567103E-02 -0.16209217625E-01  0.10199001876E+01  0.10196170657E+01 0.  0.
     999903    2    3    3    0    0  0.12434813643E+00  0.23930895675E-02 -0.42033298675E-01  0.13279468888E+00  0.19986127289E-01 0.  0.
         14    1    1    2    0    0 -0.15489624824E-01 -0.86466567103E-02  0.16209217625E-01  0.24029812430E-01  0.00000000000E+00 0. -1.
     999901    1    3    3    0    0 -0.10885851161E+00  0.62535671428E-02  0.25824081050E-01  0.88710549869E+00  0.88000000000E+00 0.  1.
        -11    1    4    4    0    0  0.68113227566E-01 -0.77558830454E-02 -0.27209870826E-01  0.73757736426E-01  0.51100000000E-03 0. -1.
         11    1    4    4    0    0  0.56234908867E-01  0.10148972613E-01 -0.14823427849E-01  0.59036952450E-01  0.51100000000E-03 0.  1.
</event>
<event>
 8    1  0.1117714E+005  0.1043930E+01  0.7957747E-01            NaN
         13   -1    0    0    0    0  0.00000000000E+00  0.00000000000E+00  0.74505805969E-08  0.10566000000E+00  0.10566000000E+00 0.  1.
     999900   -1    0    0    0    0 -0.00000000000E+00 -0.00000000000E+00 -0.74505805969E-08  0.93827000000E+00  0.93827000000E+00 0. -1.
     999902    2    1    2    0    0  0.15829254914E-01 -0.18716371411E-01  0.19384250323E-03  0.10194166272E+01  0.10191218545E+01 0.  0.
     999903    2    3    3    0    0  0.11544837125E+00  0.27816962491E-01 -0.51605686994E-01  0.13106280652E+00  0.20302770658E-01 0.  0.
         14    1    1    2    0    0 -0.15829254914E-01  0.18716371411E-01 -0.19384250323E-03  0.24513372775E-01  0.00000000000E+00 0.  1.
     999901    1    3    3    0    0 -0.99619116337E-01 -0.46533333901E-01  0.51799529497E-01  0.88835382070E+00  0.88000000000E+00 0. -1.
        -11    1    4    4    0    0  0.95354153398E-01  0.29974988223E-01 -0.39354810356E-01  0.10742428361E+00  0.51100000000E-03 0.  1.
         11    1    4    4    0    0  0.20094217852E-01 -0.21580257325E-02 -0.12250876638E-01  0.23638522914E-01  0.51100000000E-03 0. -1.
</event>
<event>
 8    1  0.1117714E+005  0.1043930E+01  0.7957747E-01            NaN
         13   -1    0    0    0    0  0.00000000000E+00  0.00000000000E+00  0.74505805969E-08  0.10566000000E+00  0.10566000000E+00 0.  1.
     999900   -1    0    0    0    0 -0.00000000000E+00 -0.00000000000E+00 -0.74505805969E-08  0.93827000000E+00  0.93827000000E+00 0. -1.
     999902    2    1    2    0    0 -0.18029817508E-01 -0.10983281021E-01 -0.11563414833E-01  0.10198588691E+01  0.10195747611E+01 0.  0.
     999903    2    3    3    0    0 -0.15588853650E-01  0.89487269994E-01 -0.91576302722E-01  0.13053195947E+00  0.20034704216E-01 0.  0.
         14    1    1    2    0    0  0.18029817508E-01  0.10983281021E-01  0.11563414833E-01  0.24071130924E-01  0.00000000000E+00 0.  1.
     999901    1    3    3    0    0 -0.24409638576E-02 -0.10047055102E+00  0.80012887889E-01  0.88932690961E+00  0.88000000000E+00 0.  1.
        -11    1    4    4    0    0 -0.11320229727E-01  0.29845185808E-01 -0.42622125318E-01  0.53252130517E-01  0.51100000000E-03 0.  1.
         11    1    4    4    0    0 -0.42686239239E-02  0.59642084187E-01 -0.48954177403E-01  0.77279828950E-01  0.51100000000E-03 0. -1.
</event>
<event>
 8    1  0.1117714E+005  0.1043930E+01  0.7957747E-01            NaN
         13   -1    0    0    0    0  0.00000000000E+00  0.00000000000E+00  0.74505805969E-08  0.10566000000E+00  0.10566000000E+00 0.  1.
     999900   -1    0    0    0    0 -0.00000000000E+00 -0.00000000000E+00 -0.74505805969E-08  0.93827000000E+00  0.93827000000E+00 0.  1.
     999902    2    1    2    0    0  0.81533069735E-02 -0.17682893520E-01  0.12295569669E-01  0.10209008408E+01  0.10206410655E+01 0.  0.
     999903    2    3    3    0    0 -0.36399647169E-01  0.97146744342E-01  0.75863369369E-01  0.13005198913E+00  0.19895849145E-01 0.  0.
         14    1    1    2    0    0 -0.81533069735E-02  0.17682893520E-01 -0.12295569669E-01  0.23029159154E-01  0.00000000000E+00 0. -1.
     999901    1    3    3    0    0  0.44552954142E-01 -0.11482963786E+00 -0.63567799700E-01  0.89084885172E+00  0.88000000000E+00 0.  1.
        -11    1    4    4    0    0 -0.31752875497E-02  0.24271378949E-01  0.10365037187E-01  0.26587166152E-01  0.51100000000E-03 0.  1.
         11    1    4    4    0    0 -0.33224359619E-01  0.72875365393E-01  0.65498332183E-01  0.10346482297E+00  0.51100000000E-03 0. -1.
</event>
<event>
 8    1  0.1117714E+005  0.1043930E+01  0.7957747E-01            NaN
         13   -1    0    0    0    0  0.00000000000E+00  0.00000000000E+00  0.74505805969E-08  0.10566000000E+00  0.10566000000E+00 0.  1.
     999900   -1    0    0    0    0 -0.00000000000E+00 -0.00000000000E+00 -0.74505805969E-08  0.93827000000E+00  0.93827000000E+00 0. -1.
     999902    2    1    2    0    0  0.16470047815E-01 -0.49758574241E-02  0.16715951881E-01  0.10199415720E+01  0.10196594361E+01 0.  0.
     999903    2    3    3    0    0 -0.80122319481E-01  0.87816714684E-01 -0.42529200215E-01  0.12783701817E+00  0.20055146152E-01 0.  0.
         14    1    1    2    0    0 -0.16470047815E-01  0.49758574241E-02 -0.16715951881E-01  0.23988428032E-01  0.00000000000E+00 0. -1.
     999901    1    3    3    0    0  0.96592367296E-01 -0.92792572108E-01  0.59245152097E-01  0.89210455380E+00  0.88000000000E+00 0.  1.
        -11    1    4    4    0    0 -0.38863912631E-01  0.42086475837E-01 -0.31122110001E-01  0.65196027527E-01  0.51100000000E-03 0. -1.
         11    1    4    4    0    0 -0.41258406850E-01  0.45730238847E-01 -0.11407090214E-01  0.62640990644E-01  0.51100000000E-03 0.  1.
</event>
<event>
 8    1  0.1117714E+005  0.1043930E+01  0.7957747E-01            NaN
         13   -1    0    0    0    0  0.00000000000E+00  0.00000000000E+00  0.74505805969E-08  0.10566000000E+00  0.10566000000E+00 0.  1.
     999900   -1    0    0    0    0 -0.00000000000E+00 -0.00000000000E+00 -0.74505805969E-08  0.93827000000E+00  0.93827000000E+00 0. -1.
     999902    2    1    2    0    0  0.21674258148E-01 -0.38139891170E-02 -0.69279121216E-02  0.10208580268E+01  0.10205972737E+01 0.  0.
     999903    2    3    3    0    0 -0.10000682882E+00 -0.68166479101E-01 -0.42036704324E-01  0.12946576908E+00  0.18608228556E-01 0.  0.
         14    1    1    2    0    0 -0.21674258148E-01  0.38139891170E-02  0.69279121216E-02  0.23071973163E-01  0.00000000000E+00 0. -1.
     999901    1    3    3    0    0  0.12168108697E+00  0.64352489984E-01  0.35108792203E-01  0.89139225775E+00  0.88000000000E+00 0.  1.
        -11    1    4    4    0    0 -0.58325310210E-01 -0.28534688657E-01 -0.22172385536E-01  0.68614474196E-01  0.51100000000E-03 0. -1.
         11    1    4    4    0    0 -0.41681518612E-01 -0.39631790444E-01 -0.19864318788E-01  0.60851294888E-01  0.51100000000E-03 0.  1.
</event>
<event>
 8    1  0.1117714E+005  0.1043930E+01  0.7957747E-01            NaN
         13   -1    0    0    0    0  0.00000000000E+00  0.00000000000E+00  0.74505805969E-08  0.10566000000E+00  0.10566000000E+00 0. -1.
     999900   -1    0    0    0    0 -0.00000000000E+00 -0.00000000000E+00 -0.74505805969E-08  0.93827000000E+00  0.93827000000E+00 0. -1.
     999902    2    1    2    0    0  0.22880622631E-01 -0.14273691214E-02 -0.58212471265E-02  0.10202773639E+01  0.10200031628E+01 0.  0.
     999903    2    3    3    0    0  0.94251663467E-01  0.85445072280E-01 -0.32470360313E-01  0.13272408566E+00  0.19419633693E-01 0.  0.
         14    1    1    2    0    0 -0.22880622631E-01  0.14273691214E-02  0.58212471265E-02  0.23652636062E-01  0.00000000000E+00 0. -1.
     999901    1    3    3    0    0 -0.71371040836E-01 -0.86872441401E-01  0.26649113187E-01  0.88755327828E+00  0.88000000000E+00 0.  1.
        -11    1    4    4    0    0  0.48866168649E-01  0.32272038008E-01 -0.10966573968E-01  0.59581152567E-01  0.51100000000E-03 0. -1.
         11    1    4    4    0    0  0.45385494818E-01  0.53173034272E-01 -0.21503786345E-01  0.73142933095E-01  0.51100000000E-03 0.  1.
</event>
<event>
 8    1  0.1117714E+005  0.1043930E+01  0.7957747E-01            NaN
         13   -1    0    0    0    0  0.00000000000E+00  0.00000000000E+00  0.74505805969E-08  0.10566000000E+00  0.10566000000E+00 0. -1.
     999900   -1    0    0    0    0 -0.00000000000E+00 -0.00000000000E+00 -0.74505805969E-08  0.93827000000E+00  0.93827000000E+00 0. -1.
     999902    2    1    2    0    0  0.96647308468E-02  0.22282057668E-01  0.51130737353E-02  0.10191098340E+01  0.10188075447E+01 0.  0.
     999903    2    3    3    0    0  0.96611627919E-01 -0.69692990337E-01 -0.44362779126E-01  0.12867902122E+00  0.19982862139E-01 0.  0.
         14    1    1    2    0    0 -0.96647308468E-02 -0.22282057668E-01 -0.51130737353E-02  0.24820165980E-01  0.00000000000E+00 0.  1.
     999901    1    3    3    0    0 -0.86946897072E-01  0.91975048004E-01  0.49475852861E-01  0.89043081280E+00  0.88000000000E+00 0. -1.
        -11    1    4    4    0    0  0.34844632193E-01 -0.13865173041E-01 -0.14993218270E-01  0.40391201161E-01  0.51100000000E-03 0. -1.
         11    1    4    4    0    0  0.61766995726E-01 -0.55827817296E-01 -0.29369560856E-01  0.88287820060E-01  0.51100000000E-03 0.  1.
</event>
<event>
 8    1  0.1117714E+005  0.1043930E+01  0.7957747E-01            NaN
         13   -1    0    0    0    0  0.00000000000E+00  0.00000000000E+00  0.74505805969E-08  0.10566000000E+00  0.10566000000E+00 0. -1.
     999900   -1    0    0    0    0 -0.00000000000E+00 -0.00000000000E+00 -0.74505805969E-08  0.93827000000E+00  0.93827000000E+00 0.  1.
     999902    2    1    2    0    0 -0.22112263037E-01  0.28214377789E-02  0.53478488047E-02  0.10210059477E+01  0.10207485650E+01 0.  0.
     999903    2    3    3    0    0 -0.85178485743E-01  0.44794996426E-01 -0.90625606060E-01  0.13255221669E+00  0.97531296618E-02 0.  0.
         14    1    1    2    0    0  0.22112263037E-01 -0.28214377789E-02 -0.53478488047E-02  0.22924052316E-01  0.00000000000E+00 0. -1.
     999901    1    3    3    0    0  0.63066222706E-01 -0.41973558647E-01  0.95973454865E-01  0.88845373099E+00  0.88000000000E+00 0. -1.
        -11    1    4    4    0    0 -0.58497710142E-01  0.26981264834E-01 -0.64680121078E-01  0.91289374670E-01  0.51100000000E-03 0.  1.
         11    1    4    4    0    0 -0.26680775601E-01  0.17813731592E-01 -0.25945484983E-01  0.41262842024E-01  0.51100000000E-03 0. -1.
</event>
<event>
 8    1  0.1117714E+005  0.1043930E+01  0.7957747E-01            NaN
         13   -1    0    0    0    0  0.00000000000E+00  0.00000000000E+00  0.74505805969E-08  0.10566000000E+00  0.10566000000E+00 0.  1.
     999900   -1    0    0    0    0 -0.00000000000E+00 -0.00000000000E+00 -0.74505805969E-08  0.93827000000E+00  0.93827000000E+00 0.  1.
     999902    2    1    2    0    0  0.64980170460E-02 -0.22863285221E-01  0.14311972974E-02  0.10201181886E+01  0.10198402406E+01 0.  0.
     999903    2    3    3    0    0 -0.43580735324E-01 -0.10028161628E+00 -0.71732555515E-01  0.13228125867E+00  0.19927087561E-01 0.  0.
         14    1    1    2    0    0 -0.64980170460E-02  0.22863285221E-01 -0.14311972974E-02  0.23811811403E-01  0.00000000000E+00 0.  1.
     999901    1    3    3    0    0  0.50078752370E-01  0.77418331058E-01  0.73163752813E-01  0.88783692993E+00  0.88000000000E+00 0. -1.
        -11    1    4    4    0    0 -0.27897115770E-01 -0.48484004436E-01 -0.27244429775E-01  0.62221120443E-01  0.51100000000E-03 0.  1.
         11    1    4    4    0    0 -0.15683619554E-01 -0.51797611843E-01 -0.44488125740E-01  0.70060138223E-01  0.51100000000E-03 0. -1.
</event>
<event>
 8    1  0.1117714E+005  0.1043930E+01  0.7957747E-01            NaN
         13   -1    0    0    0    0  0.00000000000E+00  0.00000000000E+00  0.74505805969E-08  0.10566000000E+00  0.10566000000E+00 0.  1.
     999900   -1    0    0    0    0 -0.00000000000E+00 -0.00000000000E+00 -0.74505805969E-08  0.93827000000E+00  0.93827000000E+00 0.  1.
     999902    2    1    2    0    0  0.13734785445E-02  0.42989315650E-02  0.21760118999E-01  0.10217068131E+01  0.10214650958E+01 0.  0.
     999903    2    3    3    0    0 -0.78584352166E-01 -0.92412514380E-01  0.48275356007E-01  0.13240966579E+00  0.22050768189E-01 0.  0.
         14    1    1    2    0    0 -0.13734785445E-02 -0.42989315650E-02 -0.21760118999E-01  0.22223186872E-01  0.00000000000E+00 0. -1.
     999901    1    3    3    0    0  0.79957830710E-01  0.96711445945E-01 -0.26515237008E-01  0.88929714734E+00  0.88000000000E+00 0. -1.
        -11    1    4    4    0    0 -0.60837247228E-01 -0.57726288519E-01  0.38228123844E-01  0.92169114187E-01  0.51100000000E-03 0.  1.
         11    1    4    4    0    0 -0.17747104938E-01 -0.34686225862E-01  0.10047232163E-01  0.40240551603E-01  0.51100000000E-03 0. -1.
</event>
<event>
 8    1  0.1117714E+005  0.1043930E+01  0.7957747E-01            NaN
         13   -1    0    0    0    0  0.00000000000E+00  0.00000000000E+00  0.74505805969E-08  0.10566000000E+00  0.10566000000E+00 0.  1.
     999900   -1    0    0    0    0 -0.00000000000E+00 -0.00000000000E+00 -0.74505805969E-08  0.93827000000E+00  0.93827000000E+00 0. -1.
     999902    2    1    2    0    0 -0.72325753850E-02 -0.16612441757E-01  0.13928820864E-01  0.10210762165E+01  0.10208204272E+01 0.  0.
     999903    2    3    3    0    0 -0.82760294043E-01 -0.74427779649E-01  0.71465746271E-01  0.13408267239E+00  0.21955625495E-01 0.  0.
         14    1    1    2    0    0  0.72325753850E-02  0.16612441757E-01 -0.13928820864E-01  0.22853783461E-01  0.00000000000E+00 0. -1.
     999901    1    3    3    0    0  0.75527718658E-01  0.57815337892E-01 -0.57536925407E-01  0.88699354415E+00  0.88000000000E+00 0. -1.
        -11    1    4    4    0    0 -0.30969605040E-01 -0.27332241111E-01  0.39394765818E-01  0.57082191052E-01  0.51100000000E-03 0.  1.
         11    1    4    4    0    0 -0.51790689003E-01 -0.47095538538E-01  0.32070980453E-01  0.77000481335E-01  0.51100000000E-03 0. -1.
</event>
<event>
 8    1  0.1117714E+005  0.1043930E+01  0.7957747E-01            NaN
         13   -1    0    0    0    0  0.00000000000E+00  0.00000000000E+00  0.74505805969E-08  0.10566000000E+00  0.10566000000E+00 0.  1.
     999900   -1    0    0    0    0 -0.00000000000E+00 -0.00000000000E+00 -0.74505805969E-08  0.93827000000E+00  0.93827000000E+00 0. -1.
     999902    2    1    2    0    0 -0.76922248126E-02  0.15298449369E-01  0.14440737888E-01  0.10215302726E+01  0.10212846567E+01 0.  0.
     999903    2    3    3    0    0  0.85993976855E-01 -0.90157322606E-01  0.31800228482E-01  0.13012723464E+00  0.19963361131E-01 0.  0.
         14    1    1    2    0    0  0.76922248126E-02 -0.15298449369E-01 -0.14440737888E-01  0.22399727373E-01  0.00000000000E+00 0. -1.
     999901    1    3    3    0    0 -0.93686201668E-01  0.10545577197E+00 -0.17359490594E-01  0.89140303799E+00  0.88000000000E+00 0.  1.
        -11    1    4    4    0    0  0.52338617938E-01 -0.67641669286E-01  0.24612109606E-01  0.88998558481E-01  0.51100000000E-03 0. -1.
         11    1    4    4    0    0  0.33655358917E-01 -0.22515653320E-01  0.71881188759E-02  0.41128676155E-01  0.51100000000E-03 0.  1.
</event>
<event>
 8    1  0.1117714E+005  0.1043930E+01  0.7957747E-01            NaN
         13   -1    0    0    0    0  0.00000000000E+00  0.00000000000E+00  0.74505805969E-08  0.10566000000E+00  0.10566000000E+00 0.  1.
     999900   -1    0    0    0    0 -0.00000000000E+00 -0.00000000000E+00 -0.74505805969E-08  0.93827000000E+00  0.93827000000E+00 0.  1.
     999902    2    1    2    0    0  0.21044722418E-01 -0.51421573856E-03  0.96222499076E-02  0.10207841051E+01  0.10205216591E+01 0.  0.
     999903    2    3    3    0    0 -0.11315214642E+00  0.57894706361E-01  0.59936413917E-03  0.12865081106E+00  0.19886344158E-01 0.  0.
         14    1    1    2    0    0 -0.21044722418E-01  0.51421573856E-03 -0.96222499076E-02  0.23145894944E-01  0.00000000000E+00 0. -1.
     999901    1    3    3    0    0  0.13419686884E+00 -0.58408922100E-01  0.90228857684E-02  0.89213329400E+00  0.88000000000E+00 0.  1.
        -11    1    4    4    0    0 -0.86119143406E-01  0.39685888321E-01 -0.73139520715E-02  0.95106422542E-01  0.51100000000E-03 0.  1.
         11    1    4    4    0    0 -0.27033003019E-01  0.18208818040E-01  0.79133162107E-02  0.33544388518E-01  0.51100000000E-03 0. -1.
</event>
<event>
 8    1  0.1117714E+005  0.1043930E+01  0.7957747E-01            NaN
         13   -1    0    0    0    0  0.00000000000E+00  0.00000000000E+00  0.74505805969E-08  0.10566000000E+00  0.10566000000E+00 0.  1.
     999900   -1    0    0    0    0 -0.00000000000E+00 -0.00000000000E+00 -0.74505805969E-08  0.93827000000E+00  0.93827000000E+00 0.  1.
     999902    2    1    2    0    0  0.10789797714E-02  0.21939510241E-01 -0.70129830399E-02  0.10208716341E+01  0.10206111919E+01 0.  0.
     999903    2    3    3    0    0 -0.23795078203E-01 -0.83902542070E-01  0.92597274224E-01  0.12860291776E+00  0.18937078730E-01 0.  0.
         14    1    1    2    0    0 -0.10789797714E-02 -0.21939510241E-01  0.70129830399E-02  0.23058365902E-01  0.00000000000E+00 0. -1.
     999901    1    3    3    0    0  0.24874057975E-01  0.10584205231E+00 -0.99610257264E-01  0.89226871633E+00  0.88000000000E+00 0.  1.
        -11    1    4    4    0    0 -0.56523334042E-02 -0.51722566354E-01  0.49219728353E-01  0.71624126685E-01  0.51100000000E-03 0.  1.
         11    1    4    4    0    0 -0.18142744799E-01 -0.32179975715E-01  0.43377545871E-01  0.56978791078E-01  0.51100000000E-03 0. -1.
</event>
<event>
 8    1  0.1117714E+005  0.1043930E+01  0.7957747E-01            NaN
         13   -1    0    0    0    0  0.00000000000E+00  0.00000000000E+00  0.74505805969E-08  0.10566000000E+00  0.10566000000E+00 0.  1.
     999900   -1    0    0    0    0 -0.00000000000E+00 -0.00000000000E+00 -0.74505805969E-08  0.93827000000E+00  0.93827000000E+00 0.  1.
     999902    2    1    2    0    0  0.13786389186E-01  0.16359307620E-01 -0.12312663807E-01  0.10192461356E+01  0.10189471977E+01 0.  0.
     999903    2    3    3    0    0  0.79604311537E-01 -0.75235393592E-01  0.63753569335E-01  0.12879250960E+00  0.22929938137E-01 0.  0.
         14    1    1    2    0    0 -0.13786389186E-01 -0.16359307620E-01  0.12312663807E-01  0.24683864418E-01  0.00000000000E+00 0.  1.
     999901    1    3    3    0    0 -0.65817922351E-01  0.91594701212E-01 -0.76066233141E-01  0.89045362598E+00  0.88000000000E+00 0.  1.
        -11    1    4    4    0    0  0.62122704354E-01 -0.45043416455E-01  0.39554280700E-01  0.86330423402E-01  0.51100000000E-03 0.  1.
         11    1    4    4    0    0  0.17481607183E-01 -0.30191977138E-01  0.24199288634E-01  0.42462086202E-01  0.51100000000E-03 0. -1.
</event>
<event>
 8    1  0.1117714E+005  0.1043930E+01  0.7957747E-01            NaN
         13   -1    0    0    0    0  0.00000000000E+00  0.00000000000E+00  0.74505805969E-08  0.10566000000E+00  0.10566000000E+00 0.  1.
     999900   -1    0    0    0    0 -0.00000000000E+00 -0.00000000000E+00 -0.74505805969E-08  0.93827000000E+00  0.93827000000E+00 0. -1.
     999902    2    1    2    0    0  0.19942003242E-01 -0.74813745481E-02  0.11813383261E-01  0.10195740873E+01  0.10192831349E+01 0.  0.
     999903    2    3    3    0    0  0.61666890958E-02  0.56511336615E-01  0.11626567809E+00  0.13098244418E+00  0.20177550899E-01 0.  0.
         14    1    1    2    0    0 -0.19942003242E-01  0.74813745481E-02 -0.11813383261E-01  0.24355912680E-01  0.00000000000E+00 0. -1.
     999901    1    3    3    0    0  0.13775314146E-01 -0.63992711163E-01 -0.10445229483E+00  0.88859164314E+00  0.88000000000E+00 0. -1.
        -11    1    4    4    0    0  0.52287547912E-03  0.50804891954E-01  0.88213888286E-01  0.10180059751E+00  0.51100000000E-03 0. -1.
         11    1    4    4    0    0  0.56438136167E-02  0.57064446603E-02  0.28051789809E-01  0.29181846673E-01  0.51100000000E-03 0.  1.
</event>
<event>
 8    1  0.1117714E+005  0.1043930E+01  0.7957747E-01            NaN
         13   -1    0    0    0    0  0.00000000000E+00  0.00000000000E+00  0.74505805969E-08  0.10566000000E+00  0.10566000000E+00 0.  1.
     999900   -1    0    0    0    0 -0.00000000000E+00 -0.00000000000E+00 -0.74505805969E-08  0.93827000000E+00  0.93827000000E+00 0.  1.
     999902    2    1    2    0    0  0.67260769457E-02  0.21143490460E-01  0.34922669959E-03  0.10217397035E+01  0.10214987090E+01 0.  0.
     999903    2    3    3    0    0  0.31759624078E-01  0.86931237134E-01  0.94753831562E-01  0.13389572197E+00  0.19597501276E-01 0.  0.
         14    1    1    2    0    0 -0.67260769457E-02 -0.21143490460E-01 -0.34922669959E-03  0.22190296510E-01  0.00000000000E+00 0. -1.
     999901    1    3    3    0    0 -0.25033547132E-01 -0.65787746674E-01 -0.94404604862E-01  0.88784398152E+00  0.88000000000E+00 0.  1.
        -11    1    4    4    0    0  0.31754023231E-01  0.64081988274E-01  0.75677034452E-01  0.10412537576E+00  0.51100000000E-03 0. -1.
         11    1    4    4    0    0  0.56008468563E-05  0.22849248860E-01  0.19076797110E-01  0.29770346215E-01  0.51100000000E-03 0.  1.
</event>
<event>
 8    1  0.1117714E+005  0.1043930E+01  0.7957747E-01            NaN
         13   -1    0    0    0    0  0.00000000000E+00  0.00000000000E+00  0.74505805969E-08  0.10566000000E+00  0.10566000000E+00 0.  1.
     999900   -1    0    0    0    0 -0.00000000000E+00 -0.00000000000E+00 -0.74505805969E-08  0.93827000000E+00  0.93827000000E+00 0. -1.
     999902    2    1    2    0    0 -0.21378529371E-01 -0.10419847070E-02  0.99489810304E-02  0.10203268334E+01  0.10200537915E+01 0.  0.
     999903    2    3    3    0    0 -0.76014568725E-01  0.38534704108E-01  0.10033144996E+00  0.13312877108E+00  0.19842675187E-01 0.  0.
         14    1    1    2    0    0  0.21378529371E-01  0.10419847070E-02 -0.99489810304E-02  0.23603166604E-01  0.00000000000E+00 0. -1.
     999901    1    3    3    0    0  0.54636039354E-01 -0.39576688815E-01 -0.90382468927E-01  0.88719806232E+00  0.88000000000E+00 0. -1.
        -11    1    4    4    0    0 -0.48266151341E-01  0.14380797890E-01  0.63759046350E-01  0.81252112746E-01  0.51100000000E-03 0. -1.
         11    1    4    4    0    0 -0.27748417383E-01  0.24153906218E-01  0.36572403608E-01  0.51876658331E-01  0.51100000000E-03 0.  1.
</event>
<event>
 8    1  0.1117714E+005  0.1043930E+01  0.7957747E-01            NaN
         13   -1    0    0    0    0  0.00000000000E+00  0.00000000000E+00  0.74505805969E-08  0.10566000000E+00  0.10566000000E+00 0. -1.
     999900   -1    0    0    0    0 -0.00000000000E+00 -0.00000000000E+00 -0.74505805969E-08  0.93827000000E+00  0.93827000000E+00 0. -1.
     999902    2    1    2    0    0 -0.13560899336E-01  0.98978526504E-02 -0.15790632321E-01  0.10208820164E+01  0.10206218114E+01 0.  0.
     999903    2    3    3    0    0 -0.49293150835E-01 -0.57330495158E-01 -0.10739703171E+00  0.13285714236E+00  0.20007435143E-01 0.  0.
         14    1    1    2    0    0  0.13560899336E-01 -0.98978526504E-02  0.15790632321E-01  0.23047983578E-01  0.00000000000E+00 0.  1.
     999901    1    3    3    0    0  0.35732251499E-01  0.67228347809E-01  0.91606399389E-01  0.88802487406E+00  0.88000000000E+00 0.  1.
        -11    1    4    4    0    0 -0.28647734566E-01 -0.30373463672E-01 -0.42312629055E-01  0.59446275659E-01  0.51100000000E-03 0.  1.
         11    1    4    4    0    0 -0.20645416269E-01 -0.26957031487E-01 -0.65084402656E-01  0.73410866700E-01  0.51100000000E-03 0. -1.
</event>
<event>
 8    1  0.1117714E+005  0.1043930E+01  0.7957747E-01            NaN
         13   -1    0    0    0    0  0.00000000000E+00  0.00000000000E+00  0.74505805969E-08  0.10566000000E+00  0.10566000000E+00 0.  1.
     999900   -1    0    0    0    0 -0.00000000000E+00 -0.00000000000E+00 -0.74505805969E-08  0.93827000000E+00  0.93827000000E+00 0. -1.
     999902    2    1    2    0    0  0.65736944671E-02 -0.16643259264E-01 -0.15564633733E-01  0.10202135635E+01  0.10199378637E+01 0.  0.
     999903    2    3    3    0    0  0.10926487052E+00  0.17503828518E-01  0.65016773438E-01  0.12992997696E+00  0.20234182545E-01 0.  0.
         14    1    1    2    0    0 -0.65736944671E-02  0.16643259264E-01  0.15564633733E-01  0.23716436518E-01  0.00000000000E+00 0.  1.
     999901    1    3    3    0    0 -0.10269117605E+00 -0.34147087782E-01 -0.80581407171E-01  0.89028358652E+00  0.88000000000E+00 0. -1.
        -11    1    4    4    0    0  0.77911832182E-01  0.98423544682E-02  0.35477361115E-01  0.86174415044E-01  0.51100000000E-03 0. -1.
         11    1    4    4    0    0  0.31353038337E-01  0.76614740500E-02  0.29539412323E-01  0.43755561920E-01  0.51100000000E-03 0.  1.
</event>
<event>
 8    1  0.1117714E+005  0.1043930E+01  0.7957747E-01            NaN
         13   -1    0    0    0    0  0.00000000000E+00  0.00000000000E+00  0.74505805969E-08  0.10566000000E+00  0.10566000000E+00 0.  1.
     999900   -1    0    0    0    0 -0.00000000000E+00 -0.00000000000E+00 -0.74505805969E-08  0.93827000000E+00  0.93827000000E+00 0. -1.
     999902    2    1    2    0    0  0.11895561851E-01  0.87412382006E-02 -0.27392212679E-01  0.10128133332E+01  0.10123352216E+01 0.  0.
     999903    2    3    3    0    0 -0.66206628442E-01 -0.94626097792E-01 -0.37731285655E-01  0.12326757569E+00  0.20828568522E-01 0.  0.
         14    1    1    2    0    0 -0.11895561851E-01 -0.87412382006E-02  0.27392212679E-01  0.31116666796E-01  0.00000000000E+00 0.  1.
     999901    1    3    3    0    0  0.78102190293E-01  0.10336733599E+00  0.10339072976E-01  0.88954575751E+00  0.88000000000E+00 0.  1.
        -11    1    4    4    0    0 -0.15426310593E-02 -0.85564285676E-02 -0.73795812965E-02  0.11415407199E-01  0.51100000000E-03 0. -1.
         11    1    4    4    0    0 -0.64663997383E-01 -0.86069669225E-01 -0.30351704358E-01  0.11185216849E+00  0.51100000000E-03 0.  1.
</event>
<event>
 8    1  0.1117714E+005  0.1043930E+01  0.7957747E-01            NaN
         13   -1    0    0    0    0  0.00000000000E+00  0.00000000000E+00  0.74505805969E-08  0.10566000000E+00  0.10566000000E+00 0.  1.
     999900   -1    0    0    0    0 -0.00000000000E+00 -0.00000000000E+00 -0.74505805969E-08  0.93827000000E+00  0.93827000000E+00 0. -1.
     999902    2    1    2    0    0  0.17412505521E-01  0.15266567949E-01  0.48284245433E-02  0.10202746173E+01  0.10200003518E+01 0.  0.
     999903    2    3    3    0    0 -0.10337193084E+00  0.22365646689E-02  0.74109623890E-01  0.12923110233E+00  0.22752651441E-01 0.  0.
         14    1    1    2    0    0 -0.17412505521E-01 -0.15266567949E-01 -0.48284245433E-02  0.23655382665E-01  0.00000000000E+00 0. -1.
     999901    1    3    3    0    0  0.12078443637E+00  0.13030003280E-01 -0.69281199346E-01  0.89104351501E+00  0.88000000000E+00 0. -1.
        -11    1    4    4    0    0 -0.75209917141E-01 -0.75274339761E-02  0.58498110185E-01  0.95579725439E-01  0.51100000000E-03 0. -1.
         11    1    4    4    0    0 -0.28162013704E-01  0.97639986450E-02  0.15611513705E-01  0.33651376889E-01  0.51100000000E-03 0.  1.
</event>
<event>
 8    1  0.1117714E+005  0.1043930E+01  0.7957747E-01            NaN
         13   -1    0    0    0    0  0.00000000000E+00  0.00000000000E+00  0.74505805969E-08  0.10566000000E+00  0.10566000000E+00 0.  1.
     999900   -1    0    0    0    0 -0.00000000000E+00 -0.00000000000E+00 -0.74505805969E-08  0.93827000000E+00  0.93827000000E+00 0. -1.
     999902    2    1    2    0    0 -0.16585169154E-01  0.16257971223E-01 -0.68730011176E-02  0.10197096035E+01  0.10194219184E+01 0.  0.
     999903    2    3    3    0    0 -0.37826408064E-01 -0.10198839537E+00  0.65278152041E-01  0.12862084113E+00  0.21204096372E-01 0.  0.
         14    1    1    2    0    0  0.16585169154E-01 -0.16257971223E-01  0.68730011176E-02  0.24220396539E-01  0.00000000000E+00 0.  1.
     999901    1    3    3    0    0  0.21241238910E-01  0.11824636659E+00 -0.72151153158E-01  0.89108876233E+00  0.88000000000E+00 0. -1.
        -11    1    4    4    0    0 -0.56993101839E-04 -0.19362315864E-01  0.16828559842E-01  0.25658606182E-01  0.51100000000E-03 0.  1.
         11    1    4    4    0    0 -0.37769414962E-01 -0.82626079506E-01  0.48449592199E-01  0.10296223495E+00  0.51100000000E-03 0. -1.
</event>
<event>
 8    1  0.1117714E+005  0.1043930E+01  0.7957747E-01            NaN
         13   -1    0    0    0    0  0.00000000000E+00  0.00000000000E+00  0.74505805969E-08  0.10566000000E+00  0.10566000000E+00 0. -1.
     999900   -1    0    0    0    0 -0.00000000000E+00 -0.00000000000E+00 -0.74505805969E-08  0.93827000000E+00  0.93827000000E+00 0. -1.
     999902    2    1    2    0    0  0.70508750425E-03  0.20903102595E-01  0.11192806252E-01  0.10202083694E+01  0.10199325474E+01 0.  0.
     999903    2    3    3    0    0 -0.33614166086E-01  0.11920288708E+00  0.46886707011E-01  0.13335172183E+00  0.15654966287E-01 0.  0.
         14    1    1    2    0    0 -0.70508750425E-03 -0.20903102595E-01 -0.11192806252E-01  0.23721630599E-01  0.00000000000E+00 0.  1.
     999901    1    3    3    0    0  0.34319253590E-01 -0.98299784487E-01 -0.35693900759E-01  0.88685664758E+00  0.88000000000E+00 0. -1.
        -11    1    4    4    0    0 -0.83428246274E-03  0.25841430930E-01  0.10845095038E-01  0.28041982582E-01  0.51100000000E-03 0.  1.
         11    1    4    4    0    0 -0.32779883623E-01  0.93361456151E-01  0.36041611973E-01  0.10530973924E+00  0.51100000000E-03 0. -1.
</event>
<event>
 8    1  0.1117714E+005  0.1043930E+01  0.7957747E-01            NaN
         13   -1    0    0    0    0  0.00000000000E+00  0.00000000000E+00  0.74505805969E-08  0.10566000000E+00  0.10566000000E+00 0.  1.
     999900   -1    0    0    0    0 -0.00000000000E+00 -0.00000000000E+00 -0.74505805969E-08  0.93827000000E+00  0.93827000000E+00 0. -1.
     999902    2    1    2    0    0  0.17633160100E-01 -0.13571588696E-01 -0.91719735742E-03  0.10216598943E+01  0.10214171440E+01 0.  0.
     999903    2    3    3    0    0  0.69364206329E-01 -0.47623926047E-03  0.11110343367E+00  0.13295510022E+00  0.22835625220E-01 0.  0.
         14    1    1    2    0    0 -0.17633160100E-01  0.13571588696E-01  0.91719735742E-03  0.22270105654E-01  0.00000000000E+00 0. -1.
     999901    1    3    3    0    0 -0.51731046229E-01 -0.13095349436E-01 -0.11202063103E+00  0.88870479412E+00  0.88000000000E+00 0. -1.
        -11    1    4    4    0    0  0.28342107556E-01 -0.98359980777E-02  0.56991962245E-01  0.64407816299E-01  0.51100000000E-03 0.  1.
         11    1    4    4    0    0  0.41022098773E-01  0.93597588173E-02  0.54111471423E-01  0.68547283924E-01  0.51100000000E-03 0. -1.
</event>
<event>
 8    1  0.1117714E+005  0.1043930E+01  0.7957747E-01            NaN
         13   -1    0    0    0    0  0.00000000000E+00  0.00000000000E+00  0.74505805969E-08  0.10566000000E+00  0.10566000000E+00 0. -1.
     999900   -1    0    0    0    0 -0.00000000000E+00 -0.00000000000E+00 -0.74505805969E-08  0.93827000000E+00  0.93827000000E+00 0. -1.
     999902    2    1    2    0    0 -0.14565071696E-01  0.16447417677E-01  0.96053303884E-02  0.10199524848E+01  0.10196706086E+01 0.  0.
     999903    2    3    3    0    0 -0.48011634415E-01  0.45006630614E-01  0.11360348241E+00  0.13273778882E+00  0.19566694307E-01 0.  0.
         14    1    1    2    0    0  0.14565071696E-01 -0.16447417677E-01 -0.96053303884E-02  0.23977515168E-01  0.00000000000E+00 0.  1.
     999901    1    3    3    0    0  0.33446562718E-01 -0.28559212937E-01 -0.10399815202E+00  0.88721469602E+00  0.88000000000E+00 0. -1.
        -11    1    4    4    0    0 -0.94788240742E-02  0.97676836258E-02  0.41735597022E-01  0.43901901200E-01  0.51100000000E-03 0.  1.
         11    1    4    4    0    0 -0.38532810340E-01  0.35238946988E-01  0.71867885388E-01  0.88835887617E-01  0.51100000000E-03 0. -1.
</event>
<event>
 8    1  0.1117714E+005  0.1043930E+01  0.7957747E-01            NaN
         13   -1    0    0    0    0  0.00000000000E+00  0.00000000000E+00  0.74505805969E-08  0.10566000000E+00  0.10566000000E+00 0. -1.
     999900   -1    0    0    0    0 -0.00000000000E+00 -0.00000000000E+00 -0.74505805969E-08  0.93827000000E+00  0.93827000000E+00 0. -1.
     999902    2    1    2    0    0 -0.91864535602E-02 -0.11639289036E-01  0.17944378515E-01  0.10206520126E+01  0.10203865278E+01 0.  0.
     999903    2    3    3    0    0 -0.70637317930E-01  0.26547626273E-01 -0.10276652713E+00  0.12946989203E+00  0.22518585640E-01 0.  0.
         14    1    1    2    0    0  0.91864535602E-02  0.11639289036E-01 -0.17944378515E-01  0.23277987425E-01  0.00000000000E+00 0.  1.
     999901    1    3    3    0    0  0.61450864370E-01 -0.38186915309E-01  0.12071090565E+00  0.89118212054E+00  0.88000000000E+00 0.  1.
        -11    1    4    4    0    0 -0.25574347922E-01  0.16596210904E-01 -0.56013771623E-01  0.63775271230E-01  0.51100000000E-03 0. -1.
         11    1    4    4    0    0 -0.45062970008E-01  0.99514153686E-02 -0.46752755508E-01  0.65694620802E-01  0.51100000000E-03 0.  1.
</event>
<event>
 8    1  0.1117714E+005  0.1043930E+01  0.7957747E-01            NaN
         13   -1    0    0    0    0  0.00000000000E+00  0.00000000000E+00  0.74505805969E-08  0.10566000000E+00  0.10566000000E+00 0.  1.
     999900   -1    0    0    0    0 -0.00000000000E+00 -0.00000000000E+00 -0.74505805969E-08  0.93827000000E+00  0.93827000000E+00 0.  1.
     999902    2    1    2    0    0 -0.10710578316E-01 -0.20916326272E-01 -0.14938726598E-02  0.10203834324E+01  0.10201117136E+01 0.  0.
     999903    2    3    3    0    0  0.42721810562E-01 -0.10766423997E+00  0.60782719494E-01  0.13231891068E+00  0.19925196849E-01 0.  0.
         14    1    1    2    0    0  0.10710578316E-01  0.20916326272E-01  0.14938726598E-02  0.23546567650E-01  0.00000000000E+00 0.  1.
     999901    1    3    3    0    0 -0.53432388878E-01  0.86747913699E-01 -0.62276592153E-01  0.88806452167E+00  0.88000000000E+00 0. -1.
        -11    1    4    4    0    0  0.71857235574E-02 -0.42111735154E-01  0.18092212481E-01  0.46396359062E-01  0.51100000000E-03 0. -1.
         11    1    4    4    0    0  0.35536087004E-01 -0.65552504816E-01  0.42690507012E-01  0.85922551622E-01  0.51100000000E-03 0.  1.
</event>
<event>
 8    1  0.1117714E+005  0.1043930E+01  0.7957747E-01            NaN
         13   -1    0    0    0    0  0.00000000000E+00  0.00000000000E+00  0.74505805969E-08  0.10566000000E+00  0.10566000000E+00 0.  1.
     999900   -1    0    0    0    0 -0.00000000000E+00 -0.00000000000E+00 -0.74505805969E-08  0.93827000000E+00  0.93827000000E+00 0.  1.
     999902    2    1    2    0    0 -0.58257411426E-02  0.21088025638E-01 -0.64990746382E-02  0.10211071593E+01  0.10208520700E+01 0.  0.
     999903    2    3    3    0    0  0.25796566502E-01 -0.78257127918E-01  0.96984839464E-01  0.12893097137E+00  0.20675961411E-01 0.  0.
         14    1    1    2    0    0  0.58257411426E-02 -0.21088025638E-01  0.64990746382E-02  0.22822840672E-01  0.00000000000E+00 0. -1.
     999901    1    3    3    0    0 -0.31622307645E-01  0.99345153556E-01 -0.10348391410E+00  0.89217618795E+00  0.88000000000E+00 0.  1.
        -11    1    4    4    0    0  0.12470608701E-01 -0.28044373790E-01  0.51124870899E-01  0.59632344647E-01  0.51100000000E-03 0. -1.
         11    1    4    4    0    0  0.13325957801E-01 -0.50212754128E-01  0.45859968565E-01  0.69298626726E-01  0.51100000000E-03 0.  1.
</event>
<event>
 8    1  0.1117714E+005  0.1043930E+01  0.7957747E-01            NaN
         13   -1    0    0    0    0  0.00000000000E+00  0.00000000000E+00  0.74505805969E-08  0.10566000000E+00  0.10566000000E+00 0.  1.
     999900   -1    0    0    0    0 -0.00000000000E+00 -0.00000000000E+00 -0.74505805969E-08  0.93827000000E+00  0.93827000000E+00 0.  1.
     999902    2    1    2    0    0 -0.56724734422E-02  0.16506806363E-01  0.15934385616E-01  0.10202962052E+01  0.10200224459E+01 0.  0.
     999903    2    3    3    0    0 -0.18233777022E-01 -0.10804647130E+00 -0.62925497280E-01  0.12794527287E+00  0.20096369248E-01 0.  0.
         14    1    1    2    0    0  0.56724734422E-02 -0.16506806363E-01 -0.15934385616E-01  0.23633794791E-01  0.00000000000E+00 0. -1.
     999901    1    3    3    0    0  0.12561303579E-01  0.12455327766E+00  0.78859882896E-01  0.89235093234E+00  0.88000000000E+00 0. -1.
        -11    1    4    4    0    0  0.95973469437E-03 -0.54563917704E-01 -0.31256499415E-01  0.62891748923E-01  0.51100000000E-03 0. -1.
         11    1    4    4    0    0 -0.19193511716E-01 -0.53482553591E-01 -0.31668997865E-01  0.65053523943E-01  0.51100000000E-03 0.  1.
</event>
<event>
 8    1  0.1117714E+005  0.1043930E+01  0.7957747E-01            NaN
         13   -1    0    0    0    0  0.00000000000E+00  0.00000000000E+00  0.74505805969E-08  0.10566000000E+00  0.10566000000E+00 0. -1.
     999900   -1    0    0    0    0 -0.00000000000E+00 -0.00000000000E+00 -0.74505805969E-08  0.93827000000E+00  0.93827000000E+00 0. -1.
     999902    2    1    2    0    0  0.23231515032E-01 -0.45152655235E-02  0.19603747188E-03  0.10202629481E+01  0.10199884088E+01 0.  0.
     999903    2    3    3    0    0  0.12051143821E+00 -0.15355070730E-01 -0.51350802250E-01  0.13333681732E+00  0.19570820720E-01 0.  0.
         14    1    1    2    0    0 -0.23231515032E-01  0.45152655235E-02 -0.19603747188E-03  0.23667051868E-01  0.00000000000E+00 0.  1.
     999901    1    3    3    0    0 -0.97279923182E-01  0.10839805206E-01  0.51546839722E-01  0.88692613081E+00  0.88000000000E+00 0.  1.
        -11    1    4    4    0    0  0.69075298134E-01 -0.10969164519E-01 -0.39659075475E-01  0.80404121605E-01  0.51100000000E-03 0. -1.
         11    1    4    4    0    0  0.51436140080E-01 -0.43859062110E-02 -0.11691726775E-01  0.52932695715E-01  0.51100000000E-03 0.  1.
</event>
<event>
 8    1  0.1117714E+005  0.1043930E+01  0.7957747E-01            NaN
         13   -1    0    0    0    0  0.00000000000E+00  0.00000000000E+00  0.74505805969E-08  0.10566000000E+00  0.10566000000E+00 0. -1.
     999900   -1    0    0    0    0 -0.00000000000E+00 -0.00000000000E+00 -0.74505805969E-08  0.93827000000E+00  0.93827000000E+00 0. -1.
     999902    2    1    2    0    0  0.64777005068E-02  0.34786334699E-02  0.22568635638E-01  0.10201938502E+01  0.10199176864E+01 0.  0.
     999903    2    3    3    0    0 -0.48502524841E-01 -0.10496943143E+00  0.59221974854E-01  0.13107784241E+00  0.17409250871E-01 0.  0.
         14    1    1    2    0    0 -0.64777005068E-02 -0.34786334699E-02 -0.22568635638E-01  0.23736149840E-01  0.00000000000E+00 0.  1.
     999901    1    3    3    0    0  0.54980225348E-01  0.10844806490E+00 -0.36653339216E-01  0.88911600775E+00  0.88000000000E+00 0. -1.
        -11    1    4    4    0    0 -0.20019128676E-01 -0.29924061632E-01  0.12032823188E-01  0.37963995211E-01  0.51100000000E-03 0.  1.
         11    1    4    4    0    0 -0.28483396166E-01 -0.75045369793E-01  0.47189151666E-01  0.93113847201E-01  0.51100000000E-03 0. -1.
</event>
<event>
 8    1  0.1117714E+005  0.1043930E+01  0.7957747E-01            NaN
         13   -1    0    0    0    0  0.00000000000E+00  0.00000000000E+00  0.74505805969E-08  0.10566000000E+00  0.10566000000E+00 0.  1.
     999900   -1    0    0    0    0 -0.00000000000E+00 -0.00000000000E+00 -0.74505805969E-08  0.93827000000E+00  0.93827000000E+00 0. -1.
     999902    2    1    2    0    0  0.21097337515E-01  0.11293386052E-01  0.27598600717E-03  0.10199985482E+01  0.10197177668E+01 0.  0.
     999903    2    3    3    0    0 -0.52561407993E-01 -0.51166724371E-02 -0.11589491429E+00  0.12916153788E+00  0.21498599106E-01 0.  0.
         14    1    1    2    0    0 -0.21097337515E-01 -0.11293386052E-01 -0.27598600717E-03  0.23931451837E-01  0.00000000000E+00 0. -1.
     999901    1    3    3    0    0  0.73658745509E-01  0.16410058489E-01  0.11617090029E+00  0.89083701028E+00  0.88000000000E+00 0.  1.
        -11    1    4    4    0    0 -0.32059375510E-01 -0.58006776190E-02 -0.92349961997E-01  0.97929709592E-01  0.51100000000E-03 0. -1.
         11    1    4    4    0    0 -0.20502032483E-01  0.68400518189E-03 -0.23544952290E-01  0.31231828291E-01  0.51100000000E-03 0.  1.
</event>
<event>
 8    1  0.1117714E+005  0.1043930E+01  0.7957747E-01            NaN
         13   -1    0    0    0    0  0.00000000000E+00  0.00000000000E+00  0.74505805969E-08  0.10566000000E+00  0.10566000000E+00 0.  1.
     999900   -1    0    0    0    0 -0.00000000000E+00 -0.00000000000E+00 -0.74505805969E-08  0.93827000000E+00  0.93827000000E+00 0.  1.
     999902    2    1    2    0    0  0.24065307766E-02  0.23589316246E-01  0.93983184933E-03  0.10201996288E+01  0.10199236011E+01 0.  0.
     999903    2    3    3    0    0 -0.35527225990E-01 -0.79028545158E-01 -0.92655821290E-01  0.12849926344E+00  0.20475955364E-01 0.  0.
         14    1    1    2    0    0 -0.24065307766E-02 -0.23589316246E-01 -0.93983184933E-03  0.23730371157E-01  0.00000000000E+00 0. -1.
     999901    1    3    3    0    0  0.37933756767E-01  0.10261786140E+00  0.93595653139E-01  0.89170036541E+00  0.88000000000E+00 0. -1.
        -11    1    4    4    0    0 -0.14190975295E-01 -0.21594942942E-01 -0.16124956848E-01  0.30463103828E-01  0.51100000000E-03 0. -1.
         11    1    4    4    0    0 -0.21336250695E-01 -0.57433602216E-01 -0.76530864442E-01  0.98036159607E-01  0.51100000000E-03 0.  1.
</event>
<event>
 8    1  0.1117714E+005  0.1043930E+01  0.7957747E-01            NaN
         13   -1    0    0    0    0  0.00000000000E+00  0.00000000000E+00  0.74505805969E-08  0.10566000000E+00  0.10566000000E+00 0. -1.
     999900   -1    0    0    0    0 -0.00000000000E+00 -0.00000000000E+00 -0.74505805969E-08  0.93827000000E+00  0.93827000000E+00 0. -1.
     999902    2    1    2    0    0 -0.18633102477E-01  0.61148580154E-02 -0.13156134766E-01  0.10203150073E+01  0.10200416885E+01 0.  0.
     999903    2    3    3    0    0  0.62686938202E-01  0.90284657147E-01  0.64926935372E-01  0.12913911564E+00  0.19504684412E-01 0.  0.
         14    1    1    2    0    0  0.18633102477E-01 -0.61148580154E-02  0.13156134766E-01  0.23614992662E-01  0.00000000000E+00 0. -1.
     999901    1    3    3    0    0 -0.81320040679E-01 -0.84169799132E-01 -0.78083070138E-01  0.89117589170E+00  0.88000000000E+00 0. -1.
        -11    1    4    4    0    0  0.42080640140E-01  0.66943230183E-01  0.36959667409E-01  0.87283758385E-01  0.51100000000E-03 0. -1.
         11    1    4    4    0    0  0.20606298062E-01  0.23341426965E-01  0.27967267963E-01  0.41855357254E-01  0.51100000000E-03 0.  1.
</event>
<event>
 8    1  0.1117714E+005  0.1043930E+01  0.7957747E-01            NaN
         13   -1    0    0    0    0  0.00000000000E+00  0.00000000000E+00  0.74505805969E-08  0.10566000000E+00  0.10566000000E+00 0.  1.
     999900   -1    0    0    0    0 -0.00000000000E+00 -0.00000000000E+00 -0.74505805969E-08  0.93827000000E+00  0.93827000000E+00 0.  1.
     999902    2    1    2    0    0  0.11242056820E-01  0.37037192389E-02  0.29118407093E-02  0.10317406524E+01  0.10316686453E+01 0.  0.
     999903    2    3    3    0    0 -0.26850445643E-02 -0.12697148832E+00 -0.56031373272E-01  0.14003202486E+00  0.18452232491E-01 0.  0.
         14    1    1    2    0    0 -0.11242056820E-01 -0.37037192389E-02 -0.29118407093E-02  0.12189347565E-01  0.00000000000E+00 0.  1.
     999901    1    3    3    0    0  0.13927101384E-01  0.13067520756E+00  0.58943213981E-01  0.89170862758E+00  0.88000000000E+00 0. -1.
        -11    1    4    4    0    0 -0.10256057438E-01 -0.60056474690E-01 -0.24452613927E-01  0.65651795979E-01  0.51100000000E-03 0. -1.
         11    1    4    4    0    0  0.75710128734E-02 -0.66915013630E-01 -0.31578759345E-01  0.74380228877E-01  0.51100000000E-03 0.  1.
</event>
<event>
 8    1  0.1117714E+005  0.1043930E+01  0.7957747E-01            NaN
         13   -1    0    0    0    0  0.00000000000E+00  0.00000000000E+00  0.74505805969E-08  0.10566000000E+00  0.10566000000E+00 0.  1.
     999900   -1    0    0    0    0 -0.00000000000E+00 -0.00000000000E+00 -0.74505805969E-08  0.93827000000E+00  0.93827000000E+00 0.  1.
     999902    2    1    2    0    0 -0.45925988148E-02  0.21734887000E-01 -0.10568184718E-01  0.10193295162E+01  0.10190326191E+01 0.  0.
     999903    2    3    3    0    0 -0.16138079303E-02 -0.11214085655E+00  0.55660564336E-01  0.12673899688E+00  0.19659573364E-01 0.  0.
         14    1    1    2    0    0  0.45925988148E-02 -0.21734887000E-01  0.10568184718E-01  0.24600483837E-01  0.00000000000E+00 0.  1.
     999901    1    3    3    0    0 -0.29787908845E-02  0.13387574355E+00 -0.66228749054E-01  0.89259051928E+00  0.88000000000E+00 0.  1.
        -11    1    4    4    0    0  0.25963164741E-02 -0.46693549537E-01  0.33435132593E-01  0.57490848316E-01  0.51100000000E-03 0. -1.
         11    1    4    4    0    0 -0.42101244044E-02 -0.65447307013E-01  0.22225431743E-01  0.69248148567E-01  0.51100000000E-03 0.  1.
</event>
<event>
 8    1  0.1117714E+005  0.1043930E+01  0.7957747E-01            NaN
         13   -1    0    0    0    0  0.00000000000E+00  0.00000000000E+00  0.74505805969E-08  0.10566000000E+00  0.10566000000E+00 0.  1.
     999900   -1    0    0    0    0 -0.00000000000E+00 -0.00000000000E+00 -0.74505805969E-08  0.93827000000E+00  0.93827000000E+00 0. -1.
     999902    2    1    2    0    0 -0.93918384691E-02  0.17880686000E-01 -0.39655277200E-02  0.10233472166E+01  0.10231402029E+01 0.  0.
     999903    2    3    3    0    0  0.59402404061E-01 -0.36386371580E-02 -0.11772268691E+00  0.13310207041E+00  0.17766396542E-01 0.  0.
         14    1    1    2    0    0  0.93918384691E-02 -0.17880686000E-01  0.39655277200E-02  0.20582783382E-01  0.00000000000E+00 0. -1.
     999901    1    3    3    0    0 -0.68794242530E-01  0.21519323158E-01  0.11375715919E+00  0.89024514621E+00  0.88000000000E+00 0.  1.
        -11    1    4    4    0    0  0.48020799386E-01 -0.87902082857E-02 -0.10139660947E+00  0.11253798678E+00  0.51100000000E-03 0.  1.
         11    1    4    4    0    0  0.11381604675E-01  0.51515711277E-02 -0.16326077438E-01  0.20564083631E-01  0.51100000000E-03 0. -1.
</event>
<event>
 8    1  0.1117714E+005  0.1043930E+01  0.7957747E-01            NaN
         13   -1    0    0    0    0  0.00000000000E+00  0.00000000000E+00  0.74505805969E-08  0.10566000000E+00  0.10566000000E+00 0. -1.
     999900   -1    0    0    0    0 -0.00000000000E+00 -0.00000000000E+00 -0.74505805969E-08  0.93827000000E+00  0.93827000000E+00 0. -1.
     999902    2    1    2    0    0  0.22052690153E-01 -0.37192090018E-02  0.63856242178E-02  0.10206721012E+01  0.10204070797E+01 0.  0.
     999903    2    3    3    0    0  0.12321559770E+00 -0.44724678237E-01 -0.17518230777E-01  0.13360571327E+00  0.19005731973E-01 0.  0.
         14    1    1    2    0    0 -0.22052690153E-01  0.37192090018E-02 -0.63856242178E-02  0.23257898771E-01  0.00000000000E+00 0.  1.
     999901    1    3    3    0    0 -0.10116290755E+00  0.41005469236E-01  0.23903854995E-01  0.88706638796E+00  0.88000000000E+00 0. -1.
        -11    1    4    4    0    0  0.10103148749E+00 -0.37674328016E-01 -0.21591594457E-01  0.10996897075E+00  0.51100000000E-03 0.  1.
         11    1    4    4    0    0  0.22184110206E-01 -0.70503502219E-02  0.40733636800E-02  0.23636742511E-01  0.51100000000E-03 0. -1.
</event>
<event>
 8    1  0.1117714E+005  0.1043930E+01  0.7957747E-01            NaN
         13   -1    0    0    0    0  0.00000000000E+00  0.00000000000E+00  0.74505805969E-08  0.10566000000E+00  0.10566000000E+00 0.  1.
     999900   -1    0    0    0    0 -0.00000000000E+00 -0.00000000000E+00 -0.74505805969E-08  0.93827000000E+00  0.93827000000E+00 0. -1.
     999902    2    1    2    0    0 -0.79984199732E-02 -0.64159693404E-02  0.22127701439E-01  0.10195419998E+01  0.10192502709E+01 0.  0.
     999903    2    3    3    0    0  0.26561142073E-01  0.52089279221E-01 -0.11098104298E+00  0.12694177274E+00  0.19458532505E-01 0.  0.
         14    1    1    2    0    0  0.79984199732E-02  0.64159693404E-02 -0.22127701439E-01  0.24388000238E-01  0.00000000000E+00 0. -1.
     999901    1    3    3    0    0 -0.34559562046E-01 -0.58505248561E-01  0.13310874442E+00  0.89260022702E+00  0.88000000000E+00 0.  1.
        -11    1    4    4    0    0  0.15536702978E-01  0.26254258887E-01 -0.77166951951E-01  0.82979966519E-01  0.51100000000E-03 0. -1.
         11    1    4    4    0    0  0.11024439095E-01  0.25835020333E-01 -0.33814091031E-01  0.43961806221E-01  0.51100000000E-03 0.  1.
</event>
<event>
 8    1  0.1117714E+005  0.1043930E+01  0.7957747E-01            NaN
         13   -1    0    0    0    0  0.00000000000E+00  0.00000000000E+00  0.74505805969E-08  0.10566000000E+00  0.10566000000E+00 0.  1.
     999900   -1    0    0    0    0 -0.00000000000E+00 -0.00000000000E+00 -0.74505805969E-08  0.93827000000E+00  0.93827000000E+00 0. -1.
     999902    2    1    2    0    0  0.19289846058E-01 -0.13123748608E-01 -0.18187694192E-02  0.10205283150E+01  0.10202599683E+01 0.  0.
     999903    2    3    3    0    0 -0.95778182804E-01 -0.85803541596E-01 -0.54685820241E-02  0.13005859362E+00  0.18698244104E-01 0.  0.
         14    1    1    2    0    0 -0.19289846058E-01  0.13123748608E-01  0.18187694192E-02  0.23401684996E-01  0.00000000000E+00 0.  1.
     999901    1    3    3    0    0  0.11506802886E+00  0.72679792988E-01  0.36498126049E-02  0.89046972139E+00  0.88000000000E+00 0.  1.
        -11    1    4    4    0    0 -0.22237031656E-01 -0.29126859210E-01 -0.64130528192E-02  0.37205481744E-01  0.51100000000E-03 0. -1.
         11    1    4    4    0    0 -0.73541151148E-01 -0.56676682385E-01  0.94447079512E-03  0.92853111873E-01  0.51100000000E-03 0.  1.
</event>
<event>
 8    1  0.1117714E+005  0.1043930E+01  0.7957747E-01            NaN
         13   -1    0    0    0    0  0.00000000000E+00  0.00000000000E+00  0.74505805969E-08  0.10566000000E+00  0.10566000000E+00 0. -1.
     999900   -1    0    0    0    0 -0.00000000000E+00 -0.00000000000E+00 -0.74505805969E-08  0.93827000000E+00  0.93827000000E+00 0. -1.
     999902    2    1    2    0    0  0.23132368765E-01 -0.78551319022E-02 -0.14414305986E-01  0.10155648489E+01  0.10151686463E+01 0.  0.
     999903    2    3    3    0    0 -0.31777326612E-01  0.31362901392E-01 -0.11660828363E+00  0.12708483342E+00  0.23656563667E-01 0.  0.
         14    1    1    2    0    0 -0.23132368765E-01  0.78551319022E-02  0.14414305986E-01  0.28365151135E-01  0.00000000000E+00 0.  1.
     999901    1    3    3    0    0  0.54909695376E-01 -0.39218033294E-01  0.10219397764E+00  0.88848001545E+00  0.88000000000E+00 0.  1.
        -11    1    4    4    0    0 -0.74691674646E-02  0.12403437007E-01 -0.67975285033E-01  0.69502044636E-01  0.51100000000E-03 0. -1.
         11    1    4    4    0    0 -0.24308159147E-01  0.18959464385E-01 -0.48632998592E-01  0.57582788783E-01  0.51100000000E-03 0.  1.
</event>
<event>
 8    1  0.1117714E+005  0.1043930E+01  0.7957747E-01            NaN
         13   -1    0    0    0    0  0.00000000000E+00  0.00000000000E+00  0.74505805969E-08  0.10566000000E+00  0.10566000000E+00 0. -1.
     999900   -1    0    0    0    0 -0.00000000000E+00 -0.00000000000E+00 -0.74505805969E-08  0.93827000000E+00  0.93827000000E+00 0. -1.
     999902    2    1    2    0    0  0.52489533371E-02  0.14166557790E-01  0.18798889780E-01  0.10198127629E+01  0.10195275524E+01 0.  0.
     999903    2    3    3    0    0  0.55143233914E-01 -0.10968634103E+00  0.36997797795E-01  0.12955427228E+00  0.18536525294E-01 0.  0.
         14    1    1    2    0    0 -0.52489533371E-02 -0.14166557790E-01 -0.18798889780E-01  0.24117237150E-01  0.00000000000E+00 0.  1.
     999901    1    3    3    0    0 -0.49894280577E-01  0.12385289882E+00 -0.18198908015E-01  0.89025849057E+00  0.88000000000E+00 0. -1.
        -11    1    4    4    0    0  0.16069031035E-01 -0.25890131878E-01  0.14953703896E-02  0.30512455501E-01  0.51100000000E-03 0.  1.
         11    1    4    4    0    0  0.39074202880E-01 -0.83796209148E-01  0.35502427405E-01  0.99041816780E-01  0.51100000000E-03 0. -1.
</event>
<event>
 8    1  0.1117714E+005  0.1043930E+01  0.7957747E-01            NaN
         13   -1    0    0    0    0  0.00000000000E+00  0.00000000000E+00  0.74505805969E-08  0.10566000000E+00  0.10566000000E+00 0.  1.
     999900   -1    0    0    0    0 -0.00000000000E+00 -0.00000000000E+00 -0.74505805969E-08  0.93827000000E+00  0.93827000000E+00 0. -1.
     999902    2    1    2    0    0  0.35712854721E-01 -0.43143449206E-02  0.15242504885E-03  0.10079571658E+01  0.10073150467E+01 0.  0.
     999903    2    3    3    0    0 -0.95353325037E-02  0.75544150423E-01  0.88697798779E-01  0.11876367681E+00  0.20968313973E-01 0.  0.
         14    1    1    2    0    0 -0.35712854721E-01  0.43143449206E-02 -0.15242504885E-03  0.35972834164E-01  0.00000000000E+00 0.  1.
     999901    1    3    3    0    0  0.45248187224E-01 -0.79858495344E-01 -0.88545373731E-01  0.88919348903E+00  0.88000000000E+00 0. -1.
        -11    1    4    4    0    0 -0.99414369949E-03  0.66565865051E-01  0.74686656242E-01  0.10005178886E+00  0.51100000000E-03 0.  1.
         11    1    4    4    0    0 -0.85411888042E-02  0.89782853717E-02  0.14011142537E-01  0.18711887949E-01  0.51100000000E-03 0. -1.
</event>
<event>
 8    1  0.1117714E+005  0.1043930E+01  0.7957747E-01            NaN
         13   -1    0    0    0    0  0.00000000000E+00  0.00000000000E+00  0.74505805969E-08  0.10566000000E+00  0.10566000000E+00 0.  1.
     999900   -1    0    0    0    0 -0.00000000000E+00 -0.00000000000E+00 -0.74505805969E-08  0.93827000000E+00  0.93827000000E+00 0.  1.
     999902    2    1    2    0    0  0.15995995868E-01 -0.17525623482E-01  0.25769417362E-02  0.10200624490E+01  0.10197831828E+01 0.  0.
     999903    2    3    3    0    0  0.12263779249E+00  0.11341267587E-01 -0.43206481303E-01  0.13197355029E+00  0.19533700383E-01 0.  0.
         14    1    1    2    0    0 -0.15995995868E-01  0.17525623482E-01 -0.25769417362E-02  0.23867551005E-01  0.00000000000E+00 0. -1.
     999901    1    3    3    0    0 -0.10664179662E+00 -0.28866891069E-01  0.45783423040E-01  0.88808889871E+00  0.88000000000E+00 0.  1.
        -11    1    4    4    0    0  0.69069659212E-01 -0.26598721335E-02 -0.27766052541E-01  0.74490989644E-01  0.51100000000E-03 0. -1.
         11    1    4    4    0    0  0.53568133279E-01  0.14001139721E-01 -0.15440428762E-01  0.57482560641E-01  0.51100000000E-03 0.  1.
</event>
<event>
 8    1  0.1117714E+005  0.1043930E+01  0.7957747E-01            NaN
         13   -1    0    0    0    0  0.00000000000E+00  0.00000000000E+00  0.74505805969E-08  0.10566000000E+00  0.10566000000E+00 0. -1.
     999900   -1    0    0    0    0 -0.00000000000E+00 -0.00000000000E+00 -0.74505805969E-08  0.93827000000E+00  0.93827000000E+00 0. -1.
     999902    2    1    2    0    0  0.14860915027E-01  0.22461354987E-02  0.17900579573E-01  0.10205564536E+01  0.10202887593E+01 0.  0.
     999903    2    3    3    0    0 -0.54645182543E-01 -0.46348969906E-01  0.10874341997E+00  0.13182420852E+00  0.20449146170E-01 0.  0.
         14    1    1    2    0    0 -0.14860915027E-01 -0.22461354987E-02 -0.17900579573E-01  0.23373546355E-01  0.00000000000E+00 0.  1.
     999901    1    3    3    0    0  0.69506097570E-01  0.48595105404E-01 -0.90842840399E-01  0.88873224512E+00  0.88000000000E+00 0. -1.
        -11    1    4    4    0    0 -0.43831343546E-01 -0.26352372228E-01  0.67016144613E-01  0.84303374540E-01  0.51100000000E-03 0. -1.
         11    1    4    4    0    0 -0.10813838997E-01 -0.19996597678E-01  0.41727275359E-01  0.47520833983E-01  0.51100000000E-03 0.  1.
</event>
<event>
 8    1  0.1117714E+005  0.1043930E+01  0.7957747E-01            NaN
         13   -1    0    0    0    0  0.00000000000E+00  0.00000000000E+00  0.74505805969E-08  0.10566000000E+00  0.10566000000E+00 0.  1.
     999900   -1    0    0    0    0 -0.00000000000E+00 -0.00000000000E+00 -0.74505805969E-08  0.93827000000E+00  0.93827000000E+00 0. -1.
     999902    2    1    2    0    0 -0.19378470229E-01 -0.54855204377E-02  0.12957925928E-01  0.10199816412E+01  0.10197004583E+01 0.  0.
     999903    2    3    3    0    0 -0.34143894050E-01  0.89050442444E-01 -0.85126025667E-01  0.12937761723E+00  0.19908309685E-01 0.  0.
         14    1    1    2    0    0  0.19378470229E-01  0.54855204377E-02 -0.12957925928E-01  0.23948358759E-01  0.00000000000E+00 0.  1.
     999901    1    3    3    0    0  0.14765423821E-01 -0.94535962882E-01  0.98083951595E-01  0.89060402401E+00  0.88000000000E+00 0.  1.
        -11    1    4    4    0    0  0.15537423511E-03  0.80037446370E-03 -0.57346520147E-02  0.58148168643E-02  0.51100000000E-03 0. -1.
         11    1    4    4    0    0 -0.34299268285E-01  0.88250067981E-01 -0.79391373653E-01  0.12356280037E+00  0.51100000000E-03 0.  1.
</event>
<event>
 8    1  0.1117714E+005  0.1043930E+01  0.7957747E-01            NaN
         13   -1    0    0    0    0  0.00000000000E+00  0.00000000000E+00  0.74505805969E-08  0.10566000000E+00  0.10566000000E+00 0.  1.
     999900   -1    0    0    0    0 -0.00000000000E+00 -0.00000000000E+00 -0.74505805969E-08  0.93827000000E+00  0.93827000000E+00 0. -1.
     999902    2    1    2    0    0 -0.22003985569E-01  0.95047984983E-02 -0.32661167853E-02  0.10197394214E+01  0.10194524527E+01 0.  0.
     999903    2    3    3    0    0  0.11801047496E+00  0.43963844218E-01  0.67811314101E-02  0.12794772922E+00  0.21571876847E-01 0.  0.
         14    1    1    2    0    0  0.22003985569E-01 -0.95047984983E-02  0.32661167853E-02  0.24190578626E-01  0.00000000000E+00 0. -1.
     999901    1    3    3    0    0 -0.14001446053E+00 -0.34459045719E-01 -0.10047248195E-01  0.89179169215E+00  0.88000000000E+00 0. -1.
        -11    1    4    4    0    0  0.60756934656E-01  0.33643808124E-01  0.66451466070E-02  0.69769119446E-01  0.51100000000E-03 0.  1.
         11    1    4    4    0    0  0.57253540309E-01  0.10320036094E-01  0.13598480311E-03  0.58178609779E-01  0.51100000000E-03 0. -1.
</event>
<event>
 8    1  0.1117714E+005  0.1043930E+01  0.7957747E-01            NaN
         13   -1    0    0    0    0  0.00000000000E+00  0.00000000000E+00  0.74505805969E-08  0.10566000000E+00  0.10566000000E+00 0. -1.
     999900   -1    0    0    0    0 -0.00000000000E+00 -0.00000000000E+00 -0.74505805969E-08  0.93827000000E+00  0.93827000000E+00 0. -1.
     999902    2    1    2    0    0  0.17759379000E-01  0.12565943625E-01  0.83821331818E-02  0.10206156560E+01  0.10203493316E+01 0.  0.
     999903    2    3    3    0    0  0.48851242627E-01  0.12225225969E+00 -0.28857065674E-02  0.13318974010E+00  0.19978004432E-01 0.  0.
         14    1    1    2    0    0 -0.17759379000E-01 -0.12565943625E-01 -0.83821331818E-02  0.23314344047E-01  0.00000000000E+00 0.  1.
     999901    1    3    3    0    0 -0.31091863627E-01 -0.10968631606E+00  0.11267839749E-01  0.88742591585E+00  0.88000000000E+00 0. -1.
        -11    1    4    4    0    0  0.90110597242E-02  0.39937875180E-01  0.56888508999E-02  0.41338326245E-01  0.51100000000E-03 0. -1.
         11    1    4    4    0    0  0.39840182903E-01  0.82314384506E-01 -0.85745574673E-02  0.91851413855E-01  0.51100000000E-03 0.  1.
</event>
<event>
 8    1  0.1117714E+005  0.1043930E+01  0.7957747E-01            NaN
         13   -1    0    0    0    0  0.00000000000E+00  0.00000000000E+00  0.74505805969E-08  0.10566000000E+00  0.10566000000E+00 0. -1.
     999900   -1    0    0    0    0 -0.00000000000E+00 -0.00000000000E+00 -0.74505805969E-08  0.93827000000E+00  0.93827000000E+00 0.  1.
     999902    2    1    2    0    0  0.22025179338E-01 -0.10292496892E-01  0.39688669511E-02  0.10192967720E+01  0.10189990743E+01 0.  0.
     999903    2    3    3    0    0 -0.87037872932E-01 -0.92447614097E-01  0.35699133402E-02  0.12876638407E+00  0.21115982292E-01 0.  0.
         14    1    1    2    0    0 -0.22025179338E-01  0.10292496892E-01 -0.39688669511E-02  0.24633228006E-01  0.00000000000E+00 0.  1.
     999901    1    3    3    0    0  0.10906305227E+00  0.82155117205E-01  0.39895361084E-03  0.89053038792E+00  0.88000000000E+00 0. -1.
        -11    1    4    4    0    0 -0.49562231936E-01 -0.40254526097E-01  0.80345227774E-02  0.64355702024E-01  0.51100000000E-03 0. -1.
         11    1    4    4    0    0 -0.37475640996E-01 -0.52193088000E-01 -0.44646094372E-02  0.64410682045E-01  0.51100000000E-03 0.  1.
</event>
<event>
 8    1  0.1117714E+005  0.1043930E+01  0.7957747E-01            NaN
         13   -1    0    0    0    0  0.00000000000E+00  0.00000000000E+00  0.74505805969E-08  0.10566000000E+00  0.10566000000E+00 0.  1.
     999900   -1    0    0    0    0 -0.00000000000E+00 -0.00000000000E+00 -0.74505805969E-08  0.93827000000E+00  0.93827000000E+00 0. -1.
     999902    2    1    2    0    0 -0.11654027595E-01 -0.82685266495E-02 -0.17293465752E-01  0.10214967914E+01  0.10212504325E+01 0.  0.
     999903    2    3    3    0    0 -0.22501013161E-01 -0.12477024271E+00 -0.36227048906E-01  0.13355040361E+00  0.21199107857E-01 0.  0.
         14    1    1    2    0    0  0.11654027595E-01  0.82685266495E-02  0.17293465752E-01  0.22433208639E-01  0.00000000000E+00 0.  1.
     999901    1    3    3    0    0  0.10846985566E-01  0.11650171606E+00  0.18933583154E-01  0.88794638775E+00  0.88000000000E+00 0. -1.
        -11    1    4    4    0    0 -0.56710835985E-02 -0.84495004061E-01 -0.27443183694E-01  0.89022223926E-01  0.51100000000E-03 0.  1.
         11    1    4    4    0    0 -0.16829929562E-01 -0.40275238649E-01 -0.87838652118E-02  0.44528179688E-01  0.51100000000E-03 0. -1.
</event>
<event>
 8    1  0.1117714E+005  0.1043930E+01  0.7957747E-01            NaN
         13   -1    0    0    0    0  0.00000000000E+00  0.00000000000E+00  0.74505805969E-08  0.10566000000E+00  0.10566000000E+00 0.  1.
     999900   -1    0    0    0    0 -0.00000000000E+00 -0.00000000000E+00 -0.74505805969E-08  0.93827000000E+00  0.93827000000E+00 0.  1.
     999902    2    1    2    0    0  0.28662463090E-02 -0.20711737031E-01 -0.10830855762E-01  0.10203822006E+01  0.10201104531E+01 0.  0.
     999903    2    3    3    0    0  0.12510267685E+00  0.15976767561E-01 -0.29876229878E-01  0.13097199291E+00  0.18845077810E-01 0.  0.
         14    1    1    2    0    0 -0.28662463090E-02  0.20711737031E-01  0.10830855762E-01  0.23547799372E-01  0.00000000000E+00 0. -1.
     999901    1    3    3    0    0 -0.12223643054E+00 -0.36688504592E-01  0.19045374116E-01  0.88941020772E+00  0.88000000000E+00 0. -1.
        -11    1    4    4    0    0  0.36731135726E-01 -0.87382939915E-04 -0.16069668801E-01  0.40095876894E-01  0.51100000000E-03 0. -1.
         11    1    4    4    0    0  0.88371541124E-01  0.16064150501E-01 -0.13806561077E-01  0.90876116014E-01  0.51100000000E-03 0.  1.
</event>
<event>
 8    1  0.1117714E+005  0.1043930E+01  0.7957747E-01            NaN
         13   -1    0    0    0    0  0.00000000000E+00  0.00000000000E+00  0.74505805969E-08  0.10566000000E+00  0.10566000000E+00 0. -1.
     999900   -1    0    0    0    0 -0.00000000000E+00 -0.00000000000E+00 -0.74505805969E-08  0.93827000000E+00  0.93827000000E+00 0.  1.
     999902    2    1    2    0    0 -0.11253481103E-01 -0.68800651822E-02 -0.20983277934E-01  0.10191454466E+01  0.10188440348E+01 0.  0.
     999903    2    3    3    0    0 -0.89023128265E-01 -0.39171355610E-01  0.82464309763E-01  0.12909362292E+00  0.20131781521E-01 0.  0.
         14    1    1    2    0    0  0.11253481103E-01  0.68800651822E-02  0.20983277934E-01  0.24784553389E-01  0.00000000000E+00 0. -1.
     999901    1    3    3    0    0  0.77769647162E-01  0.32291290428E-01 -0.10344758770E+00  0.89005182369E+00  0.88000000000E+00 0.  1.
        -11    1    4    4    0    0 -0.68577847870E-01 -0.20393440607E-01  0.58615420177E-01  0.92492390183E-01  0.51100000000E-03 0. -1.
         11    1    4    4    0    0 -0.20445280395E-01 -0.18777915003E-01  0.23848889586E-01  0.36601232736E-01  0.51100000000E-03 0.  1.
</event>
<event>
 8    1  0.1117714E+005  0.1043930E+01  0.7957747E-01            NaN
         13   -1    0    0    0    0  0.00000000000E+00  0.00000000000E+00  0.74505805969E-08  0.10566000000E+00  0.10566000000E+00 0. -1.
     999900   -1    0    0    0    0 -0.00000000000E+00 -0.00000000000E+00 -0.74505805969E-08  0.93827000000E+00  0.93827000000E+00 0.  1.
     999902    2    1    2    0    0 -0.13112153668E-01 -0.18222051359E-01  0.42664462029E-02  0.10210788667E+01  0.10208231373E+01 0.  0.
     999903    2    3    3    0    0 -0.63856602607E-01  0.84987310550E-01  0.73788794971E-01  0.13087634567E+00  0.19578634825E-01 0.  0.
         14    1    1    2    0    0  0.13112153668E-01  0.18222051359E-01 -0.42664462029E-02  0.22851133293E-01  0.00000000000E+00 0. -1.
     999901    1    3    3    0    0  0.50744448939E-01 -0.10320936191E+00 -0.69522348768E-01  0.89020252104E+00  0.88000000000E+00 0. -1.
        -11    1    4    4    0    0 -0.23601027949E-01  0.45226301150E-01  0.41228310006E-01  0.65593151341E-01  0.51100000000E-03 0.  1.
         11    1    4    4    0    0 -0.40255574658E-01  0.39761009399E-01  0.32560484965E-01  0.65283194328E-01  0.51100000000E-03 0. -1.
</event>
<event>
 8    1  0.1117714E+005  0.1043930E+01  0.7957747E-01            NaN
         13   -1    0    0    0    0  0.00000000000E+00  0.00000000000E+00  0.74505805969E-08  0.10566000000E+00  0.10566000000E+00 0.  1.
     999900   -1    0    0    0    0 -0.00000000000E+00 -0.00000000000E+00 -0.74505805969E-08  0.93827000000E+00  0.93827000000E+00 0. -1.
     999902    2    1    2    0    0  0.12114715384E-01  0.18571024032E-01  0.75447521458E-02  0.10205083744E+01  0.10202395648E+01 0.  0.
     999903    2    3    3    0    0 -0.98474963179E-01  0.83538244857E-01  0.10797573852E-01  0.13120449063E+00  0.20544440421E-01 0.  0.
         14    1    1    2    0    0 -0.12114715384E-01 -0.18571024032E-01 -0.75447521458E-02  0.23421625635E-01  0.00000000000E+00 0.  1.
     999901    1    3    3    0    0  0.11058967856E+00 -0.64967220825E-01 -0.32528217066E-02  0.88930388374E+00  0.88000000000E+00 0.  1.
        -11    1    4    4    0    0 -0.38198776378E-01  0.45292683074E-01  0.76895051613E-02  0.59749169596E-01  0.51100000000E-03 0.  1.
         11    1    4    4    0    0 -0.60276186801E-01  0.38245561783E-01  0.31080686911E-02  0.71455321029E-01  0.51100000000E-03 0. -1.
</event>
<event>
 8    1  0.1117714E+005  0.1043930E+01  0.7957747E-01            NaN
         13   -1    0    0    0    0  0.00000000000E+00  0.00000000000E+00  0.74505805969E-08  0.10566000000E+00  0.10566000000E+00 0. -1.
     999900   -1    0    0    0    0 -0.00000000000E+00 -0.00000000000E+00 -0.74505805969E-08  0.93827000000E+00  0.93827000000E+00 0. -1.
     999902    2    1    2    0    0  0.74554702481E-02 -0.11420218232E-01 -0.24646608832E-01  0.10157615647E+01  0.10153709153E+01 0.  0.
     999903    2    3    3    0    0 -0.84302689529E-01  0.77236396646E-01 -0.50260547635E-01  0.12619109018E+00  0.18046167585E-01 0.  0.
         14    1    1    2    0    0 -0.74554702481E-02  0.11420218232E-01  0.24646608832E-01  0.28168435313E-01  0.00000000000E+00 0. -1.
     999901    1    3    3    0    0  0.91758159777E-01 -0.88656614878E-01  0.25613938804E-01  0.88957047450E+00  0.88000000000E+00 0.  1.
        -11    1    4    4    0    0 -0.30032860187E-01  0.17699131893E-01 -0.19574936424E-01  0.39983386772E-01  0.51100000000E-03 0. -1.
         11    1    4    4    0    0 -0.54269829342E-01  0.59537264753E-01 -0.30685611211E-01  0.86207703411E-01  0.51100000000E-03 0.  1.
</event>
<event>
 8    1  0.1117714E+005  0.1043930E+01  0.7957747E-01            NaN
         13   -1    0    0    0    0  0.00000000000E+00  0.00000000000E+00  0.74505805969E-08  0.10566000000E+00  0.10566000000E+00 0. -1.
     999900   -1    0    0    0    0 -0.00000000000E+00 -0.00000000000E+00 -0.74505805969E-08  0.93827000000E+00  0.93827000000E+00 0. -1.
     999902    2    1    2    0    0 -0.10623365423E-01 -0.20308639249E-01  0.69036406571E-02  0.10199934803E+01  0.10197125786E+01 0.  0.
     999903    2    3    3    0    0 -0.32995366502E-01 -0.48107800030E-01  0.11764043931E+00  0.13233592338E+00  0.16445942416E-01 0.  0.
         14    1    1    2    0    0  0.10623365423E-01  0.20308639249E-01 -0.69036406571E-02  0.23936519701E-01  0.00000000000E+00 0. -1.
     999901    1    3    3    0    0  0.22372001079E-01  0.27799160781E-01 -0.11073679866E+00  0.88765755692E+00  0.88000000000E+00 0. -1.
        -11    1    4    4    0    0 -0.23625206567E-01 -0.21699914865E-01  0.71198224208E-01  0.78092796991E-01  0.51100000000E-03 0.  1.
         11    1    4    4    0    0 -0.93701599358E-02 -0.26407885165E-01  0.46442215104E-01  0.54243126393E-01  0.51100000000E-03 0. -1.
</event>
<event>
 8    1  0.1117714E+005  0.1043930E+01  0.7957747E-01            NaN
         13   -1    0    0    0    0  0.00000000000E+00  0.00000000000E+00  0.74505805969E-08  0.10566000000E+00  0.10566000000E+00 0. -1.
     999900   -1    0    0    0    0 -0.00000000000E+00 -0.00000000000E+00 -0.74505805969E-08  0.93827000000E+00  0.93827000000E+00 0. -1.
     999902    2    1    2    0    0  0.15940872502E-02 -0.22234823711E-01  0.10376849753E-01  0.10193412320E+01  0.10190446211E+01 0.  0.
     999903    2    3    3    0    0  0.24799134786E-01  0.51987876624E-01  0.11513240229E+00  0.12972265687E+00  0.15961241971E-01 0.  0.
         14    1    1    2    0    0 -0.15940872502E-02  0.22234823711E-01 -0.10376849753E-01  0.24588767973E-01  0.00000000000E+00 0. -1.
     999901    1    3    3    0    0 -0.23205047536E-01 -0.74222700335E-01 -0.10475555254E+00  0.88961857516E+00  0.88000000000E+00 0. -1.
        -11    1    4    4    0    0  0.17674654985E-01  0.21592682922E-01  0.44967796956E-01  0.52924486476E-01  0.51100000000E-03 0.  1.
         11    1    4    4    0    0  0.71244798007E-02  0.30395193702E-01  0.70164605339E-01  0.76798170394E-01  0.51100000000E-03 0. -1.
</event>
<event>
 8    1  0.1117714E+005  0.1043930E+01  0.7957747E-01            NaN
         13   -1    0    0    0    0  0.00000000000E+00  0.00000000000E+00  0.74505805969E-08  0.10566000000E+00  0.10566000000E+00 0.  1.
     999900   -1    0    0    0    0 -0.00000000000E+00 -0.00000000000E+00 -0.74505805969E-08  0.93827000000E+00  0.93827000000E+00 0. -1.
     999902    2    1    2    0    0  0.22445244469E-01 -0.68707816953E-02  0.65726010205E-02  0.10195538698E+01  0.10192624283E+01 0.  0.
     999903    2    3    3    0    0 -0.92806086794E-01  0.76448246919E-01 -0.36057506020E-01  0.12711773430E+00  0.20036727012E-01 0.  0.
         14    1    1    2    0    0 -0.22445244469E-01  0.68707816953E-02 -0.65726010205E-02  0.24376130221E-01  0.00000000000E+00 0. -1.
     999901    1    3    3    0    0  0.11525133126E+00 -0.83319028614E-01  0.42630107040E-01  0.89243613548E+00  0.88000000000E+00 0.  1.
        -11    1    4    4    0    0 -0.68222803273E-01  0.53708720546E-01 -0.34976492348E-01  0.93608726554E-01  0.51100000000E-03 0.  1.
         11    1    4    4    0    0 -0.24583283522E-01  0.22739526373E-01 -0.10810136720E-02  0.33509007743E-01  0.51100000000E-03 0. -1.
</event>
<event>
 8    1  0.1117714E+005  0.1043930E+01  0.7957747E-01            NaN
         13   -1    0    0    0    0  0.00000000000E+00  0.00000000000E+00  0.74505805969E-08  0.10566000000E+00  0.10566000000E+00 0.  1.
     999900   -1    0    0    0    0 -0.00000000000E+00 -0.00000000000E+00 -0.74505805969E-08  0.93827000000E+00  0.93827000000E+00 0. -1.
     999902    2    1    2    0    0 -0.15343934995E-01 -0.17761460302E-01  0.48751151172E-02  0.10199576709E+01  0.10196759181E+01 0.  0.
     999903    2    3    3    0    0  0.28041235418E-01  0.61238886110E-01 -0.10709927998E+00  0.12829540702E+00  0.21282472431E-01 0.  0.
         14    1    1    2    0    0  0.15343934995E-01  0.17761460302E-01 -0.48751151172E-02  0.23972329061E-01  0.00000000000E+00 0.  1.
     999901    1    3    3    0    0 -0.43385170414E-01 -0.79000346412E-01  0.11197439510E+00  0.89166226392E+00  0.88000000000E+00 0.  1.
        -11    1    4    4    0    0  0.25096446450E-01  0.40117469011E-01 -0.86727957619E-01  0.98799001503E-01  0.51100000000E-03 0.  1.
         11    1    4    4    0    0  0.29447889683E-02  0.21121417099E-01 -0.20371322365E-01  0.29496405514E-01  0.51100000000E-03 0. -1.
</event>
<event>
 8    1  0.1117714E+005  0.1043930E+01  0.7957747E-01            NaN
         13   -1    0    0    0    0  0.00000000000E+00  0.00000000000E+00  0.74505805969E-08  0.10566000000E+00  0.10566000000E+00 0. -1.
     999900   -1    0    0    0    0 -0.00000000000E+00 -0.00000000000E+00 -0.74505805969E-08  0.93827000000E+00  0.93827000000E+00 0.  1.
     999902    2    1    2    0    0  0.13176593305E-02  0.23381228443E-01 -0.13338963909E-02  0.10204737141E+01  0.10202040991E+01 0.  0.
     999903    2    3    3    0    0 -0.47537215714E-01  0.15865344317E-01 -0.11937342558E+00  0.13121749803E+00  0.21366352646E-01 0.  0.
         14    1    1    2    0    0 -0.13176593305E-02 -0.23381228443E-01  0.13338963909E-02  0.23456285921E-01  0.00000000000E+00 0.  1.
     999901    1    3    3    0    0  0.48854875044E-01  0.75158841257E-02  0.11803952919E+00  0.88925621605E+00  0.88000000000E+00 0. -1.
        -11    1    4    4    0    0 -0.26376884874E-01 -0.16112834569E-02 -0.48879582411E-01  0.55568075257E-01  0.51100000000E-03 0. -1.
         11    1    4    4    0    0 -0.21160330839E-01  0.17476627774E-01 -0.70493843174E-01  0.75649422774E-01  0.51100000000E-03 0.  1.
</event>
<event>
 8    1  0.1117714E+005  0.1043930E+01  0.7957747E-01            NaN
         13   -1    0    0    0    0  0.00000000000E+00  0.00000000000E+00  0.74505805969E-08  0.10566000000E+00  0.10566000000E+00 0. -1.
     999900   -1    0    0    0    0 -0.00000000000E+00 -0.00000000000E+00 -0.74505805969E-08  0.93827000000E+00  0.93827000000E+00 0.  1.
     999902    2    1    2    0    0  0.15673189198E-01  0.14536423494E-01  0.74126609241E-02  0.10213047042E+01  0.10210540607E+01 0.  0.
     999903    2    3    3    0    0  0.11133586716E+00 -0.49488190474E-01  0.48970812343E-01  0.13283547058E+00  0.20059049586E-01 0.  0.
         14    1    1    2    0    0 -0.15673189198E-01 -0.14536423494E-01 -0.74126609241E-02  0.22625295791E-01  0.00000000000E+00 0. -1.
     999901    1    3    3    0    0 -0.95662677966E-01  0.64024613968E-01 -0.41558151418E-01  0.88846923363E+00  0.88000000000E+00 0.  1.
        -11    1    4    4    0    0  0.58000706036E-01 -0.28351455805E-01  0.36349085266E-01  0.74090512669E-01  0.51100000000E-03 0. -1.
         11    1    4    4    0    0  0.53335161128E-01 -0.21136734669E-01  0.12621727077E-01  0.58744957915E-01  0.51100000000E-03 0.  1.
</event>
<event>
 8    1  0.1117714E+005  0.1043930E+01  0.7957747E-01            NaN
         13   -1    0    0    0    0  0.00000000000E+00  0.00000000000E+00  0.74505805969E-08  0.10566000000E+00  0.10566000000E+00 0.  1.
     999900   -1    0    0    0    0 -0.00000000000E+00 -0.00000000000E+00 -0.74505805969E-08  0.93827000000E+00  0.93827000000E+00 0.  1.
     999902    2    1    2    0    0 -0.26916727694E-02  0.23697781229E-01  0.24554785921E-02  0.10199537761E+01  0.10196719306E+01 0.  0.
     999903    2    3    3    0    0 -0.14606659469E-01  0.29403778075E-01  0.12559249616E+00  0.13128215485E+00  0.19585515719E-01 0.  0.
         14    1    1    2    0    0  0.26916727694E-02 -0.23697781229E-01 -0.24554785921E-02  0.23976223902E-01  0.00000000000E+00 0. -1.
     999901    1    3    3    0    0  0.11914986699E-01 -0.57059968463E-02 -0.12313701757E+00  0.88867162124E+00  0.88000000000E+00 0.  1.
        -11    1    4    4    0    0 -0.83306996400E-02  0.17404237167E-01  0.10409872517E+00  0.10587310201E+00  0.51100000000E-03 0.  1.
         11    1    4    4    0    0 -0.62759598288E-02  0.11999540909E-01  0.21493770993E-01  0.25409052841E-01  0.51100000000E-03 0. -1.
</event>
<event>
 8    1  0.1117714E+005  0.1043930E+01  0.7957747E-01            NaN
         13   -1    0    0    0    0  0.00000000000E+00  0.00000000000E+00  0.74505805969E-08  0.10566000000E+00  0.10566000000E+00 0. -1.
     999900   -1    0    0    0    0 -0.00000000000E+00 -0.00000000000E+00 -0.74505805969E-08  0.93827000000E+00  0.93827000000E+00 0.  1.
     999902    2    1    2    0    0  0.12143692979E-02  0.10189982475E-01 -0.21547674553E-01  0.10200634394E+01  0.10197841966E+01 0.  0.
     999903    2    3    3    0    0  0.11349069626E+00 -0.59565105189E-01 -0.10001292978E-01  0.13011677540E+00  0.20055161094E-01 0.  0.
         14    1    1    2    0    0 -0.12143692979E-02 -0.10189982475E-01  0.21547674553E-01  0.23866560587E-01  0.00000000000E+00 0. -1.
     999901    1    3    3    0    0 -0.11227632696E+00  0.69755087664E-01 -0.11546381575E-01  0.88994666401E+00  0.88000000000E+00 0.  1.
        -11    1    4    4    0    0  0.70669506468E-01 -0.38627730555E-01 -0.15871862911E-01  0.82088110379E-01  0.51100000000E-03 0.  1.
         11    1    4    4    0    0  0.42821189793E-01 -0.20937374634E-01  0.58705699329E-02  0.48028665026E-01  0.51100000000E-03 0. -1.
</event>
<event>
 8    1  0.1117714E+005  0.1043930E+01  0.7957747E-01            NaN
         13   -1    0    0    0    0  0.00000000000E+00  0.00000000000E+00  0.74505805969E-08  0.10566000000E+00  0.10566000000E+00 0.  1.
     999900   -1    0    0    0    0 -0.00000000000E+00 -0.00000000000E+00 -0.74505805969E-08  0.93827000000E+00  0.93827000000E+00 0. -1.
     999902    2    1    2    0    0  0.18242375239E-01 -0.14274891145E-01 -0.62756393899E-02  0.10199312413E+01  0.10196488594E+01 0.  0.
     999903    2    3    3    0    0  0.52220419790E-02 -0.46024253219E-03  0.12769385676E+00  0.12958962171E+00  0.21453844744E-01 0.  0.
         14    1    1    2    0    0 -0.18242375239E-01  0.14274891145E-01  0.62756393899E-02  0.23998758745E-01  0.00000000000E+00 0.  1.
     999901    1    3    3    0    0  0.13020333260E-01 -0.13814648613E-01 -0.13396949615E+00  0.89034161954E+00  0.88000000000E+00 0. -1.
        -11    1    4    4    0    0  0.10252429961E-01 -0.79438792672E-02  0.70028085197E-01  0.71220863343E-01  0.51100000000E-03 0. -1.
         11    1    4    4    0    0 -0.50303879823E-02  0.74836367350E-02  0.57665771566E-01  0.58368758367E-01  0.51100000000E-03 0.  1.
</event>
<event>
 8    1  0.1117714E+005  0.1043930E+01  0.7957747E-01            NaN
         13   -1    0    0    0    0  0.00000000000E+00  0.00000000000E+00  0.74505805969E-08  0.10566000000E+00  0.10566000000E+00 0.  1.
     999900   -1    0    0    0    0 -0.00000000000E+00 -0.00000000000E+00 -0.74505805969E-08  0.93827000000E+00  0.93827000000E+00 0. -1.
     999902    2    1    2    0    0 -0.83561218399E-02  0.45741166565E-03 -0.22313697674E-01  0.10200986110E+01  0.10198202004E+01 0.  0.
     999903    2    3    3    0    0  0.27455466737E-01  0.10948348040E+00 -0.64671651080E-01  0.13163738520E+00  0.20138112973E-01 0.  0.
         14    1    1    2    0    0  0.83561218399E-02 -0.45741166565E-03  0.22313697674E-01  0.23831388997E-01  0.00000000000E+00 0.  1.
     999901    1    3    3    0    0 -0.35811588577E-01 -0.10902606874E+00  0.42357953405E-01  0.88846122580E+00  0.88000000000E+00 0. -1.
        -11    1    4    4    0    0  0.73046815687E-02  0.68731346286E-01 -0.36740811771E-01  0.78278379555E-01  0.51100000000E-03 0.  1.
         11    1    4    4    0    0  0.20150785169E-01  0.40752134115E-01 -0.27930839308E-01  0.53359005644E-01  0.51100000000E-03 0. -1.
</event>
<event>
 8    1  0.1117714E+005  0.1043930E+01  0.7957747E-01            NaN
         13   -1    0    0    0    0  0.00000000000E+00  0.00000000000E+00  0.74505805969E-08  0.10566000000E+00  0.10566000000E+00 0. -1.
     999900   -1    0    0    0    0 -0.00000000000E+00 -0.00000000000E+00 -0.74505805969E-08  0.93827000000E+00  0.93827000000E+00 0.  1.
     999902    2    1    2    0    0 -0.18300230491E-01  0.14013911886E-01  0.38177374764E-02  0.10205662828E+01  0.10202988162E+01 0.  0.
     999903    2    3    3    0    0 -0.42793689690E-01  0.70764094274E-01 -0.10111703210E+00  0.13217908195E+00  0.20194024137E-01 0.  0.
         14    1    1    2    0    0  0.18300230491E-01 -0.14013911886E-01 -0.38177374764E-02  0.23363717209E-01  0.00000000000E+00 0. -1.
     999901    1    3    3    0    0  0.24493459199E-01 -0.56750182388E-01  0.10493476957E+00  0.88838720084E+00  0.88000000000E+00 0. -1.
        -11    1    4    4    0    0 -0.40740527170E-01  0.51679582727E-01 -0.75305453357E-01  0.10000871088E+00  0.51100000000E-03 0. -1.
         11    1    4    4    0    0 -0.20531625204E-02  0.19084511547E-01 -0.25811578739E-01  0.32170371078E-01  0.51100000000E-03 0.  1.
</event>
<event>
 8    1  0.1117714E+005  0.1043930E+01  0.7957747E-01            NaN
         13   -1    0    0    0    0  0.00000000000E+00  0.00000000000E+00  0.74505805969E-08  0.10566000000E+00  0.10566000000E+00 0. -1.
     999900   -1    0    0    0    0 -0.00000000000E+00 -0.00000000000E+00 -0.74505805969E-08  0.93827000000E+00  0.93827000000E+00 0.  1.
     999902    2    1    2    0    0  0.21847780044E-01 -0.10342199224E-01 -0.25370758729E-02  0.10196251994E+01  0.10193354815E+01 0.  0.
     999903    2    3    3    0    0  0.39730255979E-01  0.98772288154E-01 -0.72007977700E-01  0.12998934104E+00  0.19432492999E-01 0.  0.
         14    1    1    2    0    0 -0.21847780044E-01  0.10342199224E-01  0.25370758729E-02  0.24304800588E-01  0.00000000000E+00 0.  1.
     999901    1    3    3    0    0 -0.17882475936E-01 -0.10911448738E+00  0.69470901827E-01  0.88963585837E+00  0.88000000000E+00 0. -1.
        -11    1    4    4    0    0  0.23152624755E-01  0.71959334658E-01 -0.42071232579E-01  0.86512655775E-01  0.51100000000E-03 0. -1.
         11    1    4    4    0    0  0.16577631225E-01  0.26812953495E-01 -0.29936745121E-01  0.43476685265E-01  0.51100000000E-03 0.  1.
</event>
<event>
 8    1  0.1117714E+005  0.1043930E+01  0.7957747E-01            NaN
         13   -1    0    0    0    0  0.00000000000E+00  0.00000000000E+00  0.74505805969E-08  0.10566000000E+00  0.10566000000E+00 0. -1.
     999900   -1    0    0    0    0 -0.00000000000E+00 -0.00000000000E+00 -0.74505805969E-08  0.93827000000E+00  0.93827000000E+00 0.  1.
     999902    2    1    2    0    0 -0.14414667039E-01  0.18717287902E-01  0.29053711708E-02  0.10201274650E+01  0.10198497360E+01 0.  0.
     999903    2    3    3    0    0  0.62097492899E-01  0.11402782669E+00 -0.50128107093E-02  0.13164510328E+00  0.21139088546E-01 0.  0.
         14    1    1    2    0    0  0.14414667039E-01 -0.18717287902E-01 -0.29053711708E-02  0.23802535030E-01  0.00000000000E+00 0. -1.
     999901    1    3    3    0    0 -0.76512159938E-01 -0.95310538784E-01  0.79181818802E-02  0.88848236169E+00  0.88000000000E+00 0. -1.
        -11    1    4    4    0    0  0.42896579878E-01  0.96178546297E-01 -0.31818336268E-02  0.10536040300E+00  0.51100000000E-03 0.  1.
         11    1    4    4    0    0  0.19200913020E-01  0.17849280388E-01 -0.18309770826E-02  0.26284700289E-01  0.51100000000E-03 0. -1.
</event>
<event>
 8    1  0.1117714E+005  0.1043930E+01  0.7957747E-01            NaN
         13   -1    0    0    0    0  0.00000000000E+00  0.00000000000E+00  0.74505805969E-08  0.10566000000E+00  0.10566000000E+00 0. -1.
     999900   -1    0    0    0    0 -0.00000000000E+00 -0.00000000000E+00 -0.74505805969E-08  0.93827000000E+00  0.93827000000E+00 0.  1.
     999902    2    1    2    0    0  0.36472740813E-02 -0.30879075856E-02 -0.22786687326E-01  0.10206475839E+01  0.10203819969E+01 0.  0.
     999903    2    3    3    0    0  0.93073654663E-01 -0.38479455396E-01 -0.84951901822E-01  0.13322764208E+00  0.19733355277E-01 0.  0.
         14    1    1    2    0    0 -0.36472740813E-02  0.30879075856E-02  0.22786687326E-01  0.23282416128E-01  0.00000000000E+00 0. -1.
     999901    1    3    3    0    0 -0.89426380582E-01  0.35391547811E-01  0.62165214496E-01  0.88741994179E+00  0.88000000000E+00 0. -1.
        -11    1    4    4    0    0  0.57303667109E-01 -0.24920588354E-01 -0.39981103693E-01  0.74185549547E-01  0.51100000000E-03 0.  1.
         11    1    4    4    0    0  0.35769987554E-01 -0.13558867043E-01 -0.44970798129E-01  0.59042092531E-01  0.51100000000E-03 0. -1.
</event>
<event>
 8    1  0.1117714E+005  0.1043930E+01  0.7957747E-01            NaN
         13   -1    0    0    0    0  0.00000000000E+00  0.00000000000E+00  0.74505805969E-08  0.10566000000E+00  0.10566000000E+00 0.  1.
     999900   -1    0    0    0    0 -0.00000000000E+00 -0.00000000000E+00 -0.74505805969E-08  0.93827000000E+00  0.93827000000E+00 0.  1.
     999902    2    1    2    0    0  0.89085925539E-02  0.91182345388E-02  0.20322076746E-01  0.10199405851E+01  0.10196584257E+01 0.  0.
     999903    2    3    3    0    0  0.77634934096E-01  0.84579019843E-01 -0.58616928619E-01  0.13053122679E+00  0.20534440752E-01 0.  0.
         14    1    1    2    0    0 -0.89085925539E-02 -0.91182345388E-02 -0.20322076746E-01  0.23989414867E-01  0.00000000000E+00 0. -1.
     999901    1    3    3    0    0 -0.68726341542E-01 -0.75460785304E-01  0.78939005365E-01  0.88940935834E+00  0.88000000000E+00 0. -1.
        -11    1    4    4    0    0  0.34575145132E-01  0.27113156590E-01 -0.14595967412E-01  0.46301914722E-01  0.51100000000E-03 0.  1.
         11    1    4    4    0    0  0.43059788963E-01  0.57465863253E-01 -0.44020961207E-01  0.84229312068E-01  0.51100000000E-03 0. -1.
</event>
<event>
 8    1  0.1117714E+005  0.1043930E+01  0.7957747E-01            NaN
         13   -1    0    0    0    0  0.00000000000E+00  0.00000000000E+00  0.74505805969E-08  0.10566000000E+00  0.10566000000E+00 0. -1.
     999900   -1    0    0    0    0 -0.00000000000E+00 -0.00000000000E+00 -0.74505805969E-08  0.93827000000E+00  0.93827000000E+00 0. -1.
     999902    2    1    2    0    0 -0.20401715350E-01  0.90033006920E-02 -0.39485082063E-02  0.10212831431E+01  0.10210320162E+01 0.  0.
     999903    2    3    3    0    0 -0.11473271146E+00 -0.28818496293E-02 -0.66222760062E-01  0.13397390943E+00  0.19790258236E-01 0.  0.
         14    1    1    2    0    0  0.20401715350E-01 -0.90033006920E-02  0.39485082063E-02  0.22646856948E-01  0.00000000000E+00 0.  1.
     999901    1    3    3    0    0  0.94330996113E-01  0.11885150321E-01  0.62274251855E-01  0.88730923362E+00  0.88000000000E+00 0.  1.
        -11    1    4    4    0    0 -0.19814537551E-01 -0.80331012512E-02 -0.11299197854E-01  0.24188418866E-01  0.51100000000E-03 0.  1.
         11    1    4    4    0    0 -0.94918173912E-01  0.51512516219E-02 -0.54923562207E-01  0.10978549056E+00  0.51100000000E-03 0. -1.
</event>
<event>
 8    1  0.1117714E+005  0.1043930E+01  0.7957747E-01            NaN
         13   -1    0    0    0    0  0.00000000000E+00  0.00000000000E+00  0.74505805969E-08  0.10566000000E+00  0.10566000000E+00 0.  1.
     999900   -1    0    0    0    0 -0.00000000000E+00 -0.00000000000E+00 -0.74505805969E-08  0.93827000000E+00  0.93827000000E+00 0.  1.
     999902    2    1    2    0    0  0.16941938317E-01 -0.10813366857E-01 -0.14235180500E-01  0.10193007787E+01  0.10190031791E+01 0.  0.
     999903    2    3    3    0    0 -0.97644146397E-01 -0.66368665840E-01  0.45425201370E-01  0.12813540506E+00  0.20397401286E-01 0.  0.
         14    1    1    2    0    0 -0.16941938317E-01  0.10813366857E-01  0.14235180500E-01  0.24629221275E-01  0.00000000000E+00 0.  1.
     999901    1    3    3    0    0  0.11458608471E+00  0.55555298983E-01 -0.59660381871E-01  0.89116537367E+00  0.88000000000E+00 0.  1.
        -11    1    4    4    0    0 -0.43448967562E-01 -0.19647401348E-01  0.12093111011E-01  0.49196926905E-01  0.51100000000E-03 0. -1.
         11    1    4    4    0    0 -0.54195178835E-01 -0.46721264492E-01  0.33332090359E-01  0.78938478155E-01  0.51100000000E-03 0.  1.
</event>
<event>
 8    1  0.1117714E+005  0.1043930E+01  0.7957747E-01            NaN
         13   -1    0    0    0    0  0.00000000000E+00  0.00000000000E+00  0.74505805969E-08  0.10566000000E+00  0.10566000000E+00 0. -1.
     999900   -1    0    0    0    0 -0.00000000000E+00 -0.00000000000E+00 -0.74505805969E-08  0.93827000000E+00  0.93827000000E+00 0.  1.
     999902    2    1    2    0    0  0.42312884335E-03 -0.17043197014E-02  0.26701149284E-01  0.10171711675E+01  0.10168191328E+01 0.  0.
     999903    2    3    3    0    0  0.35936585990E-01  0.51875208663E-02 -0.11753207023E+00  0.12469599994E+00  0.20419507427E-01 0.  0.
         14    1    1    2    0    0 -0.42312884335E-03  0.17043197014E-02 -0.26701149284E-01  0.26758832500E-01  0.00000000000E+00 0.  1.
     999901    1    3    3    0    0 -0.35513457147E-01 -0.68918405677E-02  0.14423321951E+00  0.89247516756E+00  0.88000000000E+00 0. -1.
        -11    1    4    4    0    0  0.12346045822E-01  0.10778636235E-01 -0.61361672468E-01  0.63514721251E-01  0.51100000000E-03 0.  1.
         11    1    4    4    0    0  0.23590540168E-01 -0.55911153684E-02 -0.56170397758E-01  0.61181278687E-01  0.51100000000E-03 0. -1.
</event>
<event>
 8    1  0.1117714E+005  0.1043930E+01  0.7957747E-01            NaN
         13   -1    0    0    0    0  0.00000000000E+00  0.00000000000E+00  0.74505805969E-08  0.10566000000E+00  0.10566000000E+00 0.  1.
     999900   -1    0    0    0    0 -0.00000000000E+00 -0.00000000000E+00 -0.74505805969E-08  0.93827000000E+00  0.93827000000E+00 0. -1.
     999902    2    1    2    0    0 -0.17113231446E-01 -0.16809091109E-01  0.13918776304E-02  0.10199019839E+01  0.10196189049E+01 0.  0.
     999903    2    3    3    0    0 -0.53344129299E-01 -0.11127003894E+00  0.45277957993E-01  0.13301893824E+00  0.20428576929E-01 0.  0.
         14    1    1    2    0    0  0.17113231446E-01  0.16809091109E-01 -0.13918776304E-02  0.24028016101E-01  0.00000000000E+00 0.  1.
     999901    1    3    3    0    0  0.36230897853E-01  0.94460947828E-01 -0.43886080363E-01  0.88688304566E+00  0.88000000000E+00 0. -1.
        -11    1    4    4    0    0 -0.28787649792E-01 -0.37571768735E-01  0.19096890237E-01  0.51042324831E-01  0.51100000000E-03 0. -1.
         11    1    4    4    0    0 -0.24556479507E-01 -0.73698270201E-01  0.26181067756E-01  0.81976613411E-01  0.51100000000E-03 0.  1.
</event>
<event>
 8    1  0.1117714E+005  0.1043930E+01  0.7957747E-01            NaN
         13   -1    0    0    0    0  0.00000000000E+00  0.00000000000E+00  0.74505805969E-08  0.10566000000E+00  0.10566000000E+00 0. -1.
     999900   -1    0    0    0    0 -0.00000000000E+00 -0.00000000000E+00 -0.74505805969E-08  0.93827000000E+00  0.93827000000E+00 0. -1.
     999902    2    1    2    0    0  0.15356626526E-01 -0.38446817190E-02  0.19079642604E-01  0.10191380594E+01  0.10188364657E+01 0.  0.
     999903    2    3    3    0    0 -0.12545127276E+00  0.34785939772E-02  0.11857732070E-01  0.12788464380E+00  0.21534945021E-01 0.  0.
         14    1    1    2    0    0 -0.15356626526E-01  0.38446817190E-02 -0.19079642604E-01  0.24791940579E-01  0.00000000000E+00 0.  1.
     999901    1    3    3    0    0  0.14080789928E+00 -0.73232756962E-02  0.72219105340E-02  0.89125341562E+00  0.88000000000E+00 0.  1.
        -11    1    4    4    0    0 -0.11132459487E+00  0.83142086927E-02  0.14936478192E-01  0.11263059527E+00  0.51100000000E-03 0. -1.
         11    1    4    4    0    0 -0.14126677888E-01 -0.48356147156E-02 -0.30787461221E-02  0.15254048528E-01  0.51100000000E-03 0.  1.
</event>
<event>
 8    1  0.1117714E+005  0.1043930E+01  0.7957747E-01            NaN
         13   -1    0    0    0    0  0.00000000000E+00  0.00000000000E+00  0.74505805969E-08  0.10566000000E+00  0.10566000000E+00 0. -1.
     999900   -1    0    0    0    0 -0.00000000000E+00 -0.00000000000E+00 -0.74505805969E-08  0.93827000000E+00  0.93827000000E+00 0. -1.
     999902    2    1    2    0    0 -0.14379361617E-01 -0.67145201736E-02 -0.17809894343E-01  0.10200753745E+01  0.10197964142E+01 0.  0.
     999903    2    3    3    0    0  0.93484106099E-01  0.57342796832E-01  0.62371574772E-01  0.12756938823E+00  0.18874878308E-01 0.  0.
         14    1    1    2    0    0  0.14379361617E-01  0.67145201736E-02  0.17809894343E-01  0.23854625509E-01  0.00000000000E+00 0. -1.
     999901    1    3    3    0    0 -0.10786346772E+00 -0.64057317006E-01 -0.80181469116E-01  0.89250598627E+00  0.88000000000E+00 0. -1.
        -11    1    4    4    0    0  0.49365771923E-01  0.22208587305E-01  0.37932430730E-01  0.66100916860E-01  0.51100000000E-03 0. -1.
         11    1    4    4    0    0  0.44118334175E-01  0.35134209527E-01  0.24439144042E-01  0.61468471366E-01  0.51100000000E-03 0.  1.
</event>
<event>
 8    1  0.1117714E+005  0.1043930E+01  0.7957747E-01            NaN
         13   -1    0    0    0    0  0.00000000000E+00  0.00000000000E+00  0.74505805969E-08  0.10566000000E+00  0.10566000000E+00 0.  1.
     999900   -1    0    0    0    0 -0.00000000000E+00 -0.00000000000E+00 -0.74505805969E-08  0.93827000000E+00  0.93827000000E+00 0. -1.
     999902    2    1    2    0    0 -0.28869937564E-02  0.73186105033E-02  0.28144757524E-01  0.10147063081E+01  0.10142853975E+01 0.  0.
     999903    2    3    3    0    0 -0.10484256110E+00  0.59422419826E-01  0.35407827864E-01  0.12725912834E+00  0.20449569092E-01 0.  0.
         14    1    1    2    0    0  0.28869937564E-02 -0.73186105033E-02 -0.28144757524E-01  0.29223691908E-01  0.00000000000E+00 0. -1.
     999901    1    3    3    0    0  0.10195556734E+00 -0.52103809323E-01 -0.72630703401E-02  0.88744717975E+00  0.88000000000E+00 0.  1.
        -11    1    4    4    0    0 -0.28698798957E-01  0.21300757412E-01  0.19204709286E-01  0.40576166745E-01  0.51100000000E-03 0.  1.
         11    1    4    4    0    0 -0.76143762142E-01  0.38121662414E-01  0.16203118578E-01  0.86682961596E-01  0.51100000000E-03 0. -1.
</event>
<event>
 8    1  0.1117714E+005  0.1043930E+01  0.7957747E-01            NaN
         13   -1    0    0    0    0  0.00000000000E+00  0.00000000000E+00  0.74505805969E-08  0.10566000000E+00  0.10566000000E+00 0.  1.
     999900   -1    0    0    0    0 -0.00000000000E+00 -0.00000000000E+00 -0.74505805969E-08  0.93827000000E+00  0.93827000000E+00 0. -1.
     999902    2    1    2    0    0  0.12045180158E-01  0.88675601628E-02 -0.17647880956E-01  0.10207963083E+01  0.10205341422E+01 0.  0.
     999903    2    3    3    0    0 -0.35789783541E-01  0.91768521953E-01  0.82393470154E-01  0.12997139559E+00  0.20037702471E-01 0.  0.
         14    1    1    2    0    0 -0.12045180158E-01 -0.88675601628E-02  0.17647880956E-01  0.23133691675E-01  0.00000000000E+00 0.  1.
     999901    1    3    3    0    0  0.47834963699E-01 -0.82900961790E-01 -0.10004135111E+00  0.89082491274E+00  0.88000000000E+00 0. -1.
        -11    1    4    4    0    0 -0.30005829467E-01  0.65008124697E-01  0.69200029341E-01  0.99575655963E-01  0.51100000000E-03 0.  1.
         11    1    4    4    0    0 -0.57839540743E-02  0.26760397255E-01  0.13193440813E-01  0.30395739627E-01  0.51100000000E-03 0. -1.
</event>
<event>
 8    1  0.1117714E+005  0.1043930E+01  0.7957747E-01            NaN
         13   -1    0    0    0    0  0.00000000000E+00  0.00000000000E+00  0.74505805969E-08  0.10566000000E+00  0.10566000000E+00 0.  1.
     999900   -1    0    0    0    0 -0.00000000000E+00 -0.00000000000E+00 -0.74505805969E-08  0.93827000000E+00  0.93827000000E+00 0.  1.
     999902    2    1    2    0    0 -0.12647522267E-01  0.13006712300E-01 -0.16524716133E-01  0.10193902236E+01  0.10190948078E+01 0.  0.
     999903    2    3    3    0    0  0.60289031588E-02  0.10871104535E+00  0.68113310928E-01  0.12996809439E+00  0.19946011645E-01 0.  0.
         14    1    1    2    0    0  0.12647522267E-01 -0.13006712300E-01  0.16524716133E-01  0.24539776438E-01  0.00000000000E+00 0.  1.
     999901    1    3    3    0    0 -0.18676425426E-01 -0.95704333048E-01 -0.84638027062E-01  0.88942212917E+00  0.88000000000E+00 0.  1.
        -11    1    4    4    0    0 -0.72564621432E-02  0.40640141846E-01  0.27252271127E-01  0.49469432731E-01  0.51100000000E-03 0.  1.
         11    1    4    4    0    0  0.13285365302E-01  0.68070903502E-01  0.40861039801E-01  0.80498661662E-01  0.51100000000E-03 0. -1.
</event>
<event>
 8    1  0.1117714E+005  0.1043930E+01  0.7957747E-01            NaN
         13   -1    0    0    0    0  0.00000000000E+00  0.00000000000E+00  0.74505805969E-08  0.10566000000E+00  0.10566000000E+00 0.  1.
     999900   -1    0    0    0    0 -0.00000000000E+00 -0.00000000000E+00 -0.74505805969E-08  0.93827000000E+00  0.93827000000E+00 0. -1.
     999902    2    1    2    0    0  0.20102768870E-01 -0.42022657501E-02 -0.11882847517E-01  0.10202027494E+01  0.10199267952E+01 0.  0.
     999903    2    3    3    0    0  0.12641403453E+00  0.85529050741E-02  0.32466863276E-01  0.13260392316E+00  0.21818407712E-01 0.  0.
         14    1    1    2    0    0 -0.20102768870E-01  0.42022657501E-02  0.11882847517E-01  0.23727250553E-01  0.00000000000E+00 0.  1.
     999901    1    3    3    0    0 -0.10631126566E+00 -0.12755170824E-01 -0.44349710793E-01  0.88759882629E+00  0.88000000000E+00 0. -1.
        -11    1    4    4    0    0  0.30104830065E-01  0.11452335355E-01  0.80746649657E-02  0.33210210984E-01  0.51100000000E-03 0. -1.
         11    1    4    4    0    0  0.96309204460E-01 -0.28994302809E-02  0.24392198310E-01  0.99393712171E-01  0.51100000000E-03 0.  1.
</event>
<event>
 8    1  0.1117714E+005  0.1043930E+01  0.7957747E-01            NaN
         13   -1    0    0    0    0  0.00000000000E+00  0.00000000000E+00  0.74505805969E-08  0.10566000000E+00  0.10566000000E+00 0. -1.
     999900   -1    0    0    0    0 -0.00000000000E+00 -0.00000000000E+00 -0.74505805969E-08  0.93827000000E+00  0.93827000000E+00 0.  1.
     999902    2    1    2    0    0  0.13937758695E-01 -0.85288771234E-02  0.17845478147E-01  0.10197336376E+01  0.10194465301E+01 0.  0.
     999903    2    3    3    0    0  0.99687488836E-01 -0.84778871980E-01  0.46675743444E-02  0.13218604166E+00  0.18064074703E-01 0.  0.
         14    1    1    2    0    0 -0.13937758695E-01  0.85288771234E-02 -0.17845478147E-01  0.24196362386E-01  0.00000000000E+00 0.  1.
     999901    1    3    3    0    0 -0.85749730140E-01  0.76249994856E-01  0.13177903803E-01  0.88754759595E+00  0.88000000000E+00 0.  1.
        -11    1    4    4    0    0  0.68223990859E-01 -0.59952716086E-01 -0.49748716798E-02  0.90960714399E-01  0.51100000000E-03 0.  1.
         11    1    4    4    0    0  0.31463497977E-01 -0.24826155894E-01  0.96424460242E-02  0.41225327260E-01  0.51100000000E-03 0. -1.
</event>
<event>
 8    1  0.1117714E+005  0.1043930E+01  0.7957747E-01            NaN
         13   -1    0    0    0    0  0.00000000000E+00  0.00000000000E+00  0.74505805969E-08  0.10566000000E+00  0.10566000000E+00 0. -1.
     999900   -1    0    0    0    0 -0.00000000000E+00 -0.00000000000E+00 -0.74505805969E-08  0.93827000000E+00  0.93827000000E+00 0. -1.
     999902    2    1    2    0    0 -0.12039907491E-01  0.22884265330E-01  0.59909155408E-02  0.10173868268E+01  0.10170405181E+01 0.  0.
     999903    2    3    3    0    0 -0.36769410228E-01 -0.95880432563E-01  0.71381519633E-01  0.12666098077E+00  0.20065787461E-01 0.  0.
         14    1    1    2    0    0  0.12039907491E-01 -0.22884265330E-01 -0.59909155408E-02  0.26543173154E-01  0.00000000000E+00 0.  1.
     999901    1    3    3    0    0  0.24729502737E-01  0.11876469789E+00 -0.65390604092E-01  0.89072584608E+00  0.88000000000E+00 0. -1.
        -11    1    4    4    0    0 -0.26509086332E-02 -0.14551133290E-01  0.18991057626E-01  0.24076631561E-01  0.51100000000E-03 0.  1.
         11    1    4    4    0    0 -0.34118501594E-01 -0.81329299273E-01  0.52390462007E-01  0.10258434920E+00  0.51100000000E-03 0. -1.
</event>
<event>
 8    1  0.1117714E+005  0.1043930E+01  0.7957747E-01            NaN
         13   -1    0    0    0    0  0.00000000000E+00  0.00000000000E+00  0.74505805969E-08  0.10566000000E+00  0.10566000000E+00 0.  1.
     999900   -1    0    0    0    0 -0.00000000000E+00 -0.00000000000E+00 -0.74505805969E-08  0.93827000000E+00  0.93827000000E+00 0. -1.
     999902    2    1    2    0    0 -0.11638133321E-01  0.54548197695E-02 -0.19628683499E-01  0.10204675529E+01  0.10201977946E+01 0.  0.
     999903    2    3    3    0    0 -0.36623784007E-01 -0.11892459948E+00 -0.36443319322E-01  0.13121097881E+00  0.20095858289E-01 0.  0.
         14    1    1    2    0    0  0.11638133321E-01 -0.54548197695E-02  0.19628683499E-01  0.23462447055E-01  0.00000000000E+00 0.  1.
     999901    1    3    3    0    0  0.24985650686E-01  0.12437941925E+00  0.16814635824E-01  0.88925657414E+00  0.88000000000E+00 0.  1.
        -11    1    4    4    0    0 -0.33516888907E-01 -0.11431654547E+00 -0.38600639129E-01  0.12522749248E+00  0.51100000000E-03 0.  1.
         11    1    4    4    0    0 -0.31068951003E-02 -0.46080540060E-02  0.21573198063E-02  0.59834863277E-02  0.51100000000E-03 0. -1.
</event>
<event>
 8    1  0.1117714E+005  0.1043930E+01  0.7957747E-01            NaN
         13   -1    0    0    0    0  0.00000000000E+00  0.00000000000E+00  0.74505805969E-08  0.10566000000E+00  0.10566000000E+00 0. -1.
     999900   -1    0    0    0    0 -0.00000000000E+00 -0.00000000000E+00 -0.74505805969E-08  0.93827000000E+00  0.93827000000E+00 0. -1.
     999902    2    1    2    0    0  0.33353077606E-02 -0.18718804553E-02  0.23594891584E-01  0.10200271315E+01  0.10197470284E+01 0.  0.
     999903    2    3    3    0    0  0.10272150359E+00  0.20989834580E-01 -0.70471274228E-01  0.12915749036E+00  0.26891938728E-01 0.  0.
         14    1    1    2    0    0 -0.33353077606E-02  0.18718804553E-02 -0.23594891584E-01  0.23902868513E-01  0.00000000000E+00 0.  1.
     999901    1    3    3    0    0 -0.99386195829E-01 -0.22861715035E-01  0.94066165813E-01  0.89086964113E+00  0.88000000000E+00 0.  1.
        -11    1    4    4    0    0  0.61959495988E-01  0.13604939029E-01 -0.26518541251E-01  0.68757309867E-01  0.51100000000E-03 0. -1.
         11    1    4    4    0    0  0.40762007601E-01  0.73848955502E-02 -0.43952732978E-01  0.60400180490E-01  0.51100000000E-03 0.  1.
</event>
<event>
 8    1  0.1117714E+005  0.1043930E+01  0.7957747E-01            NaN
         13   -1    0    0    0    0  0.00000000000E+00  0.00000000000E+00  0.74505805969E-08  0.10566000000E+00  0.10566000000E+00 0. -1.
     999900   -1    0    0    0    0 -0.00000000000E+00 -0.00000000000E+00 -0.74505805969E-08  0.93827000000E+00  0.93827000000E+00 0. -1.
     999902    2    1    2    0    0 -0.21216447829E-01 -0.89658497090E-02  0.46281496347E-02  0.10204365139E+01  0.10201660331E+01 0.  0.
     999903    2    3    3    0    0  0.38505816472E-01  0.24090706256E-02  0.12285557360E+00  0.13045119862E+00  0.20869157468E-01 0.  0.
         14    1    1    2    0    0  0.21216447829E-01  0.89658497090E-02 -0.46281496347E-02  0.23493486087E-01  0.00000000000E+00 0.  1.
     999901    1    3    3    0    0 -0.59722264301E-01 -0.11374920335E-01 -0.11822742396E+00  0.88998531530E+00  0.88000000000E+00 0. -1.
        -11    1    4    4    0    0  0.33020837959E-01  0.55455195732E-02  0.74477469998E-01  0.81659556606E-01  0.51100000000E-03 0. -1.
         11    1    4    4    0    0  0.54849785126E-02 -0.31364489476E-02  0.48378103598E-01  0.48791642010E-01  0.51100000000E-03 0.  1.
</event>
<event>
 8    1  0.1117714E+005  0.1043930E+01  0.7957747E-01            NaN
         13   -1    0    0    0    0  0.00000000000E+00  0.00000000000E+00  0.74505805969E-08  0.10566000000E+00  0.10566000000E+00 0.  1.
     999900   -1    0    0    0    0 -0.00000000000E+00 -0.00000000000E+00 -0.74505805969E-08  0.93827000000E+00  0.93827000000E+00 0.  1.
     999902    2    1    2    0    0  0.18998805526E-01  0.14394826429E-02  0.13917921447E-01  0.10203347619E+01  0.10200619056E+01 0.  0.
     999903    2    3    3    0    0 -0.11557727708E+00 -0.52163923074E-01 -0.31005951726E-02  0.12832933762E+00  0.19483925566E-01 0.  0.
         14    1    1    2    0    0 -0.18998805526E-01 -0.14394826429E-02 -0.13917921447E-01  0.23595238060E-01  0.00000000000E+00 0. -1.
     999901    1    3    3    0    0  0.13457608260E+00  0.53603405717E-01  0.17018516620E-01  0.89200542432E+00  0.88000000000E+00 0. -1.
        -11    1    4    4    0    0 -0.37384322486E-01 -0.10086827577E-01  0.55157502822E-02  0.39115422540E-01  0.51100000000E-03 0.  1.
         11    1    4    4    0    0 -0.78192954593E-01 -0.42077095497E-01 -0.86163454548E-02  0.89213915077E-01  0.51100000000E-03 0. -1.
</event>
<event>
 8    1  0.1117714E+005  0.1043930E+01  0.7957747E-01            NaN
         13   -1    0    0    0    0  0.00000000000E+00  0.00000000000E+00  0.74505805969E-08  0.10566000000E+00  0.10566000000E+00 0. -1.
     999900   -1    0    0    0    0 -0.00000000000E+00 -0.00000000000E+00 -0.74505805969E-08  0.93827000000E+00  0.93827000000E+00 0.  1.
     999902    2    1    2    0    0 -0.34291720626E-03 -0.23336794846E-01 -0.16233326968E-03  0.10205901213E+01  0.10203232065E+01 0.  0.
     999903    2    3    3    0    0  0.34723188867E-01 -0.12728622087E+00 -0.10411497333E-01  0.13371912711E+00  0.19102979105E-01 0.  0.
         14    1    1    2    0    0  0.34291720626E-03  0.23336794846E-01  0.16233326968E-03  0.23339878705E-01  0.00000000000E+00 0. -1.
     999901    1    3    3    0    0 -0.35066106074E-01  0.10394942602E+00  0.10249164063E-01  0.88687099419E+00  0.88000000000E+00 0.  1.
        -11    1    4    4    0    0  0.11489422495E-01 -0.16825353235E-01 -0.29626425247E-02  0.20594603966E-01  0.51100000000E-03 0. -1.
         11    1    4    4    0    0  0.23233766372E-01 -0.11046086763E+00 -0.74488548081E-02  0.11312452314E+00  0.51100000000E-03 0.  1.
</event>
<event>
 8    1  0.1117714E+005  0.1043930E+01  0.7957747E-01            NaN
         13   -1    0    0    0    0  0.00000000000E+00  0.00000000000E+00  0.74505805969E-08  0.10566000000E+00  0.10566000000E+00 0. -1.
     999900   -1    0    0    0    0 -0.00000000000E+00 -0.00000000000E+00 -0.74505805969E-08  0.93827000000E+00  0.93827000000E+00 0. -1.
     999902    2    1    2    0    0 -0.14792332138E-01  0.96841584990E-02 -0.13570259663E-01  0.10216421566E+01  0.10213990152E+01 0.  0.
     999903    2    3    3    0    0  0.99647206955E-01  0.83196355724E-01  0.20247828852E-02  0.13105602568E+00  0.17899236314E-01 0.  0.
         14    1    1    2    0    0  0.14792332138E-01 -0.96841584990E-02  0.13570259663E-01  0.22287843396E-01  0.00000000000E+00 0. -1.
     999901    1    3    3    0    0 -0.11443953909E+00 -0.73512197225E-01 -0.15595042548E-01  0.89058613093E+00  0.88000000000E+00 0. -1.
        -11    1    4    4    0    0  0.62010284924E-01  0.49500708060E-01  0.97730284123E-02  0.79946036426E-01  0.51100000000E-03 0.  1.
         11    1    4    4    0    0  0.37636922031E-01  0.33695647663E-01 -0.77482455271E-02  0.51109989250E-01  0.51100000000E-03 0. -1.
</event>
<event>
 8    1  0.1117714E+005  0.1043930E+01  0.7957747E-01            NaN
         13   -1    0    0    0    0  0.00000000000E+00  0.00000000000E+00  0.74505805969E-08  0.10566000000E+00  0.10566000000E+00 0.  1.
     999900   -1    0    0    0    0 -0.00000000000E+00 -0.00000000000E+00 -0.74505805969E-08  0.93827000000E+00  0.93827000000E+00 0.  1.
     999902    2    1    2    0    0  0.23203231204E-02 -0.19107940624E-01  0.13641451614E-01  0.10203379145E+01  0.10200651319E+01 0.  0.
     999903    2    3    3    0    0 -0.11898806997E+00  0.31234565722E-01 -0.34403928128E-01  0.12929445168E+00  0.19991650135E-01 0.  0.
         14    1    1    2    0    0 -0.23203231204E-02  0.19107940624E-01 -0.13641451614E-01  0.23592085462E-01  0.00000000000E+00 0. -1.
     999901    1    3    3    0    0  0.12130839309E+00 -0.50342506347E-01  0.48045379743E-01  0.89104346285E+00  0.88000000000E+00 0. -1.
        -11    1    4    4    0    0 -0.93365427123E-01  0.15810272067E-01 -0.25017732322E-01  0.97944962792E-01  0.51100000000E-03 0. -1.
         11    1    4    4    0    0 -0.25622642845E-01  0.15424293655E-01 -0.93861958063E-02  0.31349488893E-01  0.51100000000E-03 0.  1.
</event>
<event>
 8    1  0.1117714E+005  0.1043930E+01  0.7957747E-01            NaN
         13   -1    0    0    0    0  0.00000000000E+00  0.00000000000E+00  0.74505805969E-08  0.10566000000E+00  0.10566000000E+00 0. -1.
     999900   -1    0    0    0    0 -0.00000000000E+00 -0.00000000000E+00 -0.74505805969E-08  0.93827000000E+00  0.93827000000E+00 0. -1.
     999902    2    1    2    0    0  0.16484072420E-01 -0.16368012144E-01  0.38182707279E-02  0.10203882147E+01  0.10201166075E+01 0.  0.
     999903    2    3    3    0    0  0.31347884933E-01 -0.36323027826E-01  0.12152840200E+00  0.13220196699E+00  0.20153296032E-01 0.  0.
         14    1    1    2    0    0 -0.16484072420E-01  0.16368012144E-01 -0.38182707279E-02  0.23541785328E-01  0.00000000000E+00 0.  1.
     999901    1    3    3    0    0 -0.14863812514E-01  0.19955015683E-01 -0.11771013128E+00  0.88818624769E+00  0.88000000000E+00 0. -1.
        -11    1    4    4    0    0  0.76511511236E-02 -0.17131409540E-01  0.27056417648E-01  0.32929259986E-01  0.51100000000E-03 0. -1.
         11    1    4    4    0    0  0.23696733810E-01 -0.19191618287E-01  0.94471984357E-01  0.99272706999E-01  0.51100000000E-03 0.  1.
</event>
<event>
 8    1  0.1117714E+005  0.1043930E+01  0.7957747E-01            NaN
         13   -1    0    0    0    0  0.00000000000E+00  0.00000000000E+00  0.74505805969E-08  0.10566000000E+00  0.10566000000E+00 0.  1.
     999900   -1    0    0    0    0 -0.00000000000E+00 -0.00000000000E+00 -0.74505805969E-08  0.93827000000E+00  0.93827000000E+00 0.  1.
     999902    2    1    2    0    0  0.50204630557E-02  0.11168380936E-01 -0.20477170157E-01  0.10200709916E+01  0.10197919277E+01 0.  0.
     999903    2    3    3    0    0 -0.21334812021E-01 -0.40250504516E-01  0.11745967392E+00  0.12745401037E+00  0.19299545204E-01 0.  0.
         14    1    1    2    0    0 -0.50204630557E-02 -0.11168380936E-01  0.20477170157E-01  0.23859008355E-01  0.00000000000E+00 0.  1.
     999901    1    3    3    0    0  0.26355275077E-01  0.51418885452E-01 -0.13793684407E+00  0.89261698127E+00  0.88000000000E+00 0.  1.
        -11    1    4    4    0    0 -0.23078036955E-01 -0.41303509512E-01  0.11108199597E+00  0.12073958190E+00  0.51100000000E-03 0.  1.
         11    1    4    4    0    0  0.17432249338E-02  0.10530049959E-02  0.63776779456E-02  0.67144284693E-02  0.51100000000E-03 0. -1.
</event>
<event>
 8    1  0.1117714E+005  0.1043930E+01  0.7957747E-01            NaN
         13   -1    0    0    0    0  0.00000000000E+00  0.00000000000E+00  0.74505805969E-08  0.10566000000E+00  0.10566000000E+00 0. -1.
     999900   -1    0    0    0    0 -0.00000000000E+00 -0.00000000000E+00 -0.74505805969E-08  0.93827000000E+00  0.93827000000E+00 0. -1.
     999902    2    1    2    0    0 -0.14254806037E-01  0.11317091162E-01  0.14171148143E-01  0.10208627616E+01  0.10206021167E+01 0.  0.
     999903    2    3    3    0    0 -0.11710091819E+00  0.40894278342E-01  0.46906970060E-01  0.13377552417E+00  0.17625549156E-01 0.  0.
         14    1    1    2    0    0  0.14254806037E-01 -0.11317091162E-01 -0.14171148143E-01  0.23067238396E-01  0.00000000000E+00 0.  1.
     999901    1    3    3    0    0  0.10284611216E+00 -0.29577187181E-01 -0.32735821917E-01  0.88708723744E+00  0.88000000000E+00 0.  1.
        -11    1    4    4    0    0 -0.53398158333E-01  0.10788492859E-01  0.25370966536E-01  0.60097437179E-01  0.51100000000E-03 0. -1.
         11    1    4    4    0    0 -0.63702759861E-01  0.30105785484E-01  0.21536003524E-01  0.73678086988E-01  0.51100000000E-03 0.  1.
</event>
<event>
 8    1  0.1117714E+005  0.1043930E+01  0.7957747E-01            NaN
         13   -1    0    0    0    0  0.00000000000E+00  0.00000000000E+00  0.74505805969E-08  0.10566000000E+00  0.10566000000E+00 0. -1.
     999900   -1    0    0    0    0 -0.00000000000E+00 -0.00000000000E+00 -0.74505805969E-08  0.93827000000E+00  0.93827000000E+00 0. -1.
     999902    2    1    2    0    0 -0.61314996385E-02 -0.17147828410E-01  0.12080281371E-01  0.10220764761E+01  0.10218428189E+01 0.  0.
     999903    2    3    3    0    0  0.85516855362E-01 -0.96979852780E-01  0.26683742095E-01  0.13360259687E+00  0.20479438504E-01 0.  0.
         14    1    1    2    0    0  0.61314996385E-02  0.17147828410E-01 -0.12080281371E-01  0.21853523858E-01  0.00000000000E+00 0.  1.
     999901    1    3    3    0    0 -0.91648355000E-01  0.79832024370E-01 -0.14603460724E-01  0.88847387928E+00  0.88000000000E+00 0. -1.
        -11    1    4    4    0    0  0.72344830417E-01 -0.74370542554E-01  0.14602061858E-01  0.10477706533E+00  0.51100000000E-03 0.  1.
         11    1    4    4    0    0  0.13172024944E-01 -0.22609310226E-01  0.12081680236E-01  0.28825531536E-01  0.51100000000E-03 0. -1.
</event>
<event>
 8    1  0.1117714E+005  0.1043930E+01  0.7957747E-01            NaN
         13   -1    0    0    0    0  0.00000000000E+00  0.00000000000E+00  0.74505805969E-08  0.10566000000E+00  0.10566000000E+00 0. -1.
     999900   -1    0    0    0    0 -0.00000000000E+00 -0.00000000000E+00 -0.74505805969E-08  0.93827000000E+00  0.93827000000E+00 0.  1.
     999902    2    1    2    0    0  0.24015668264E-02  0.20181231449E-01 -0.12566315012E-01  0.10200351910E+01  0.10197552789E+01 0.  0.
     999903    2    3    3    0    0 -0.18714846984E-01  0.19330961749E-01 -0.12788744746E+00  0.13225954955E+00  0.20333658033E-01 0.  0.
         14    1    1    2    0    0 -0.24015668264E-02 -0.20181231449E-01  0.12566315012E-01  0.23894809039E-01  0.00000000000E+00 0. -1.
     999901    1    3    3    0    0  0.21116413810E-01  0.85026970015E-03  0.11532113245E+00  0.88777564141E+00  0.88000000000E+00 0. -1.
        -11    1    4    4    0    0 -0.12671597063E-01 -0.79353330817E-03 -0.48151907828E-01  0.49800265217E-01  0.51100000000E-03 0. -1.
         11    1    4    4    0    0 -0.60432499213E-02  0.20124495057E-01 -0.79735539636E-01  0.82459284334E-01  0.51100000000E-03 0.  1.
</event>
<event>
 8    1  0.1117714E+005  0.1043930E+01  0.7957747E-01            NaN
         13   -1    0    0    0    0  0.00000000000E+00  0.00000000000E+00  0.74505805969E-08  0.10566000000E+00  0.10566000000E+00 0.  1.
     999900   -1    0    0    0    0 -0.00000000000E+00 -0.00000000000E+00 -0.74505805969E-08  0.93827000000E+00  0.93827000000E+00 0.  1.
     999902    2    1    2    0    0  0.11388177820E-01 -0.17448726349E-02 -0.20670398168E-01  0.10202656696E+01  0.10199911941E+01 0.  0.
     999903    2    3    3    0    0  0.32862055007E-01 -0.12256215559E+00  0.24126682786E-01  0.13062263906E+00  0.19462280743E-01 0.  0.
         14    1    1    2    0    0 -0.11388177820E-01  0.17448726349E-02  0.20670398168E-01  0.23664330436E-01  0.00000000000E+00 0.  1.
     999901    1    3    3    0    0 -0.21473877187E-01  0.12081728295E+00 -0.44797080954E-01  0.88964303050E+00  0.88000000000E+00 0.  1.
        -11    1    4    4    0    0  0.63398244393E-02 -0.22780994071E-01 -0.30776895817E-02  0.23851632207E-01  0.51100000000E-03 0. -1.
         11    1    4    4    0    0  0.26522230568E-01 -0.99781161515E-01  0.27204372368E-01  0.10677100685E+00  0.51100000000E-03 0.  1.
</event>
<event>
 8    1  0.1117714E+005  0.1043930E+01  0.7957747E-01            NaN
         13   -1    0    0    0    0  0.00000000000E+00  0.00000000000E+00  0.74505805969E-08  0.10566000000E+00  0.10566000000E+00 0.  1.
     999900   -1    0    0    0    0 -0.00000000000E+00 -0.00000000000E+00 -0.74505805969E-08  0.93827000000E+00  0.93827000000E+00 0. -1.
     999902    2    1    2    0    0  0.36598243497E-02 -0.99364362600E-02  0.22571396804E-01  0.10189981923E+01  0.10186931437E+01 0.  0.
     999903    2    3    3    0    0 -0.84946127589E-01  0.38728871472E-01 -0.83822137839E-01  0.12684410749E+00  0.18641532510E-01 0.  0.
         14    1    1    2    0    0 -0.36598243497E-02  0.99364362600E-02 -0.22571396804E-01  0.24931807666E-01  0.00000000000E+00 0. -1.
     999901    1    3    3    0    0  0.88605951938E-01 -0.48665307732E-01  0.10639353464E+00  0.89215408485E+00  0.88000000000E+00 0. -1.
        -11    1    4    4    0    0 -0.57263921110E-01  0.34207841219E-01 -0.53267068935E-01  0.85363779296E-01  0.51100000000E-03 0. -1.
         11    1    4    4    0    0 -0.27682206479E-01  0.45210302537E-02 -0.30555068904E-01  0.41480328191E-01  0.51100000000E-03 0.  1.
</event>
<event>
 8    1  0.1117714E+005  0.1043930E+01  0.7957747E-01            NaN
         13   -1    0    0    0    0  0.00000000000E+00  0.00000000000E+00  0.74505805969E-08  0.10566000000E+00  0.10566000000E+00 0. -1.
     999900   -1    0    0    0    0 -0.00000000000E+00 -0.00000000000E+00 -0.74505805969E-08  0.93827000000E+00  0.93827000000E+00 0.  1.
     999902    2    1    2    0    0  0.18350702660E-01 -0.10336735423E-01  0.85338927705E-02  0.10212050421E+01  0.10209521606E+01 0.  0.
     999903    2    3    3    0    0  0.22334064433E-01 -0.99053313413E-01  0.84183804572E-01  0.13350610237E+00  0.20654226816E-01 0.  0.
         14    1    1    2    0    0 -0.18350702660E-01  0.10336735423E-01 -0.85338927705E-02  0.22724957935E-01  0.00000000000E+00 0. -1.
     999901    1    3    3    0    0 -0.39833617728E-02  0.88716577990E-01 -0.75649911801E-01  0.88769893970E+00  0.88000000000E+00 0.  1.
        -11    1    4    4    0    0  0.23535625511E-01 -0.67587442599E-01  0.64655659097E-01  0.96450004871E-01  0.51100000000E-03 0.  1.
         11    1    4    4    0    0 -0.12015610782E-02 -0.31465870814E-01  0.19528145475E-01  0.37056097498E-01  0.51100000000E-03 0. -1.
</event>
<event>
 8    1  0.1117714E+005  0.1043930E+01  0.7957747E-01            NaN
         13   -1    0    0    0    0  0.00000000000E+00  0.00000000000E+00  0.74505805969E-08  0.10566000000E+00  0.10566000000E+00 0.  1.
     999900   -1    0    0    0    0 -0.00000000000E+00 -0.00000000000E+00 -0.74505805969E-08  0.93827000000E+00  0.93827000000E+00 0.  1.
     999902    2    1    2    0    0  0.19120443973E-01 -0.56448423214E-02  0.10862559225E-01  0.10212264581E+01  0.10209740584E+01 0.  0.
     999903    2    3    3    0    0  0.71287532706E-01 -0.94728266815E-01 -0.56538596932E-01  0.13263196254E+00  0.18419220678E-01 0.  0.
         14    1    1    2    0    0 -0.19120443973E-01  0.56448423214E-02 -0.10862559225E-01  0.22703541915E-01  0.00000000000E+00 0. -1.
     999901    1    3    3    0    0 -0.52167088733E-01  0.89083424493E-01  0.67401156157E-01  0.88859449555E+00  0.88000000000E+00 0.  1.
        -11    1    4    4    0    0  0.34221831002E-01 -0.32098634229E-01 -0.26592479318E-01  0.53934007026E-01  0.51100000000E-03 0. -1.
         11    1    4    4    0    0  0.37065701704E-01 -0.62629632585E-01 -0.29946117614E-01  0.78697955512E-01  0.51100000000E-03 0.  1.
</event>
<event>
 8    1  0.1117714E+005  0.1043930E+01  0.7957747E-01            NaN
         13   -1    0    0    0    0  0.00000000000E+00  0.00000000000E+00  0.74505805969E-08  0.10566000000E+00  0.10566000000E+00 0.  1.
     999900   -1    0    0    0    0 -0.00000000000E+00 -0.00000000000E+00 -0.74505805969E-08  0.93827000000E+00  0.93827000000E+00 0.  1.
     999902    2    1    2    0    0 -0.14400537415E-01 -0.19833408768E-02 -0.18200856016E-01  0.10206366473E+01  0.10203708079E+01 0.  0.
     999903    2    3    3    0    0 -0.70061587246E-02  0.11823986333E+00  0.49293446049E-01  0.12987081027E+00  0.20170076762E-01 0.  0.
         14    1    1    2    0    0  0.14400537415E-01  0.19833408768E-02  0.18200856016E-01  0.23293352670E-01  0.00000000000E+00 0.  1.
     999901    1    3    3    0    0 -0.73943786903E-02 -0.12022320420E+00 -0.67494302065E-01  0.89076583706E+00  0.88000000000E+00 0. -1.
        -11    1    4    4    0    0  0.35147257510E-02  0.87232803280E-01  0.33469747049E-01  0.93500804027E-01  0.51100000000E-03 0.  1.
         11    1    4    4    0    0 -0.10520884476E-01  0.31007060047E-01  0.15823699000E-01  0.36370006241E-01  0.51100000000E-03 0. -1.
</event>
<event>
 8    1  0.1117714E+005  0.1043930E+01  0.7957747E-01            NaN
         13   -1    0    0    0    0  0.00000000000E+00  0.00000000000E+00  0.74505805969E-08  0.10566000000E+00  0.10566000000E+00 0. -1.
     999900   -1    0    0    0    0 -0.00000000000E+00 -0.00000000000E+00 -0.74505805969E-08  0.93827000000E+00  0.93827000000E+00 0. -1.
     999902    2    1    2    0    0 -0.95672646828E-02 -0.18455816123E-02 -0.20661815378E-01  0.10210859780E+01  0.10208304096E+01 0.  0.
     999903    2    3    3    0    0  0.52835294580E-01  0.99785703784E-01  0.59556277818E-01  0.12942576245E+00  0.21338292465E-01 0.  0.
         14    1    1    2    0    0  0.95672646828E-02  0.18455816123E-02  0.20661815378E-01  0.22844021969E-01  0.00000000000E+00 0. -1.
     999901    1    3    3    0    0 -0.62402559262E-01 -0.10163128540E+00 -0.80218093196E-01  0.89166021558E+00  0.88000000000E+00 0.  1.
        -11    1    4    4    0    0  0.46816799212E-01  0.68189579149E-01  0.41662698211E-01  0.92615727262E-01  0.51100000000E-03 0. -1.
         11    1    4    4    0    0  0.60184953673E-02  0.31596124635E-01  0.17893579607E-01  0.36810035188E-01  0.51100000000E-03 0.  1.
</event>
<event>
 8    1  0.1117714E+005  0.1043930E+01  0.7957747E-01            NaN
         13   -1    0    0    0    0  0.00000000000E+00  0.00000000000E+00  0.74505805969E-08  0.10566000000E+00  0.10566000000E+00 0.  1.
     999900   -1    0    0    0    0 -0.00000000000E+00 -0.00000000000E+00 -0.74505805969E-08  0.93827000000E+00  0.93827000000E+00 0.  1.
     999902    2    1    2    0    0  0.17051593670E-01  0.11522894934E-02  0.15596755157E-01  0.10207925112E+01  0.10205302580E+01 0.  0.
     999903    2    3    3    0    0  0.17980972754E-01 -0.53928890876E-01  0.11892614090E+00  0.13303592171E+00  0.17985795033E-01 0.  0.
         14    1    1    2    0    0 -0.17051593670E-01 -0.11522894934E-02 -0.15596755157E-01  0.23137488827E-01  0.00000000000E+00 0. -1.
     999901    1    3    3    0    0 -0.92937908389E-03  0.55081180370E-01 -0.10332938575E+00  0.88775658946E+00  0.88000000000E+00 0.  1.
        -11    1    4    4    0    0  0.62706088880E-02 -0.35301519431E-01  0.88465198344E-01  0.95456116875E-01  0.51100000000E-03 0. -1.
         11    1    4    4    0    0  0.11710363866E-01 -0.18627371445E-01  0.30460942559E-01  0.37579804835E-01  0.51100000000E-03 0.  1.
</event>
<event>
 8    1  0.1117714E+005  0.1043930E+01  0.7957747E-01            NaN
         13   -1    0    0    0    0  0.00000000000E+00  0.00000000000E+00  0.74505805969E-08  0.10566000000E+00  0.10566000000E+00 0.  1.
     999900   -1    0    0    0    0 -0.00000000000E+00 -0.00000000000E+00 -0.74505805969E-08  0.93827000000E+00  0.93827000000E+00 0.  1.
     999902    2    1    2    0    0 -0.30326672184E-03  0.83467582739E-02  0.21799069689E-01  0.10205856263E+01  0.10203186075E+01 0.  0.
     999903    2    3    3    0    0  0.71936387650E-02  0.52056023433E-01 -0.11580483520E+00  0.12878882315E+00  0.20352471573E-01 0.  0.
         14    1    1    2    0    0  0.30326672184E-03 -0.83467582739E-02 -0.21799069689E-01  0.23344373705E-01  0.00000000000E+00 0. -1.
     999901    1    3    3    0    0 -0.74969054869E-02 -0.43709265159E-01  0.13760390489E+00  0.89179680314E+00  0.88000000000E+00 0. -1.
        -11    1    4    4    0    0  0.13455582465E-02  0.23154406234E-01 -0.29161615323E-01  0.37263896525E-01  0.51100000000E-03 0.  1.
         11    1    4    4    0    0  0.58480805186E-02  0.28901617199E-01 -0.86643219878E-01  0.91524926628E-01  0.51100000000E-03 0. -1.
</event>
<event>
 8    1  0.1117714E+005  0.1043930E+01  0.7957747E-01            NaN
         13   -1    0    0    0    0  0.00000000000E+00  0.00000000000E+00  0.74505805969E-08  0.10566000000E+00  0.10566000000E+00 0.  1.
     999900   -1    0    0    0    0 -0.00000000000E+00 -0.00000000000E+00 -0.74505805969E-08  0.93827000000E+00  0.93827000000E+00 0.  1.
     999902    2    1    2    0    0 -0.14064337390E-01 -0.18491285783E-01 -0.48103920418E-02  0.10202050531E+01  0.10199291530E+01 0.  0.
     999903    2    3    3    0    0 -0.12823134505E+00  0.23044621419E-01  0.36524186481E-02  0.13181833749E+00  0.19707904656E-01 0.  0.
         14    1    1    2    0    0  0.14064337390E-01  0.18491285783E-01  0.48103920418E-02  0.23724946949E-01  0.00000000000E+00 0. -1.
     999901    1    3    3    0    0  0.11416700766E+00 -0.41535907203E-01 -0.84628106899E-02  0.88838671556E+00  0.88000000000E+00 0. -1.
        -11    1    4    4    0    0 -0.55073023483E-01  0.13696032353E-01 -0.74238386980E-02  0.57236297223E-01  0.51100000000E-03 0.  1.
         11    1    4    4    0    0 -0.73158321568E-01  0.93485890663E-02  0.11076257346E-01  0.74582040264E-01  0.51100000000E-03 0. -1.
</event>
<event>
 8    1  0.1117714E+005  0.1043930E+01  0.7957747E-01            NaN
         13   -1    0    0    0    0  0.00000000000E+00  0.00000000000E+00  0.74505805969E-08  0.10566000000E+00  0.10566000000E+00 0.  1.
     999900   -1    0    0    0    0 -0.00000000000E+00 -0.00000000000E+00 -0.74505805969E-08  0.93827000000E+00  0.93827000000E+00 0. -1.
     999902    2    1    2    0    0 -0.20302521179E-01  0.48211171231E-02  0.12753722109E-01  0.10194740608E+01  0.10191806845E+01 0.  0.
     999903    2    3    3    0    0 -0.11515282067E+00 -0.60305563138E-01  0.11424022496E-01  0.13198331044E+00  0.19802850573E-01 0.  0.
         14    1    1    2    0    0  0.20302521179E-01 -0.48211171231E-02 -0.12753722109E-01  0.24455939241E-01  0.00000000000E+00 0. -1.
     999901    1    3    3    0    0  0.94850299495E-01  0.65126680261E-01  0.13296996132E-02  0.88749075032E+00  0.88000000000E+00 0. -1.
        -11    1    4    4    0    0 -0.55903446460E-01 -0.40221663764E-01  0.40983162619E-02  0.68993006017E-01  0.51100000000E-03 0.  1.
         11    1    4    4    0    0 -0.59249374214E-01 -0.20083899373E-01  0.73257062338E-02  0.62990304425E-01  0.51100000000E-03 0. -1.
</event>
<event>
 8    1  0.1117714E+005  0.1043930E+01  0.7957747E-01            NaN
         13   -1    0    0    0    0  0.00000000000E+00  0.00000000000E+00  0.74505805969E-08  0.10566000000E+00  0.10566000000E+00 0.  1.
     999900   -1    0    0    0    0 -0.00000000000E+00 -0.00000000000E+00 -0.74505805969E-08  0.93827000000E+00  0.93827000000E+00 0.  1.
     999902    2    1    2    0    0  0.14580410130E-01 -0.13495965204E-01 -0.13358715304E-01  0.10199887237E+01  0.10197077090E+01 0.  0.
     999903    2    3    3    0    0  0.70897449976E-01  0.76410795015E-01  0.73763179254E-01  0.12934566443E+00  0.20596997006E-01 0.  0.
         14    1    1    2    0    0 -0.14580410130E-01  0.13495965204E-01  0.13358715304E-01  0.23941276301E-01  0.00000000000E+00 0.  1.
     999901    1    3    3    0    0 -0.56317039845E-01 -0.89906760219E-01 -0.87121894558E-01  0.89064305927E+00  0.88000000000E+00 0.  1.
        -11    1    4    4    0    0  0.58583722741E-02  0.25818853229E-02  0.10695778440E-01  0.12475874917E-01  0.51100000000E-03 0.  1.
         11    1    4    4    0    0  0.65039077702E-01  0.73828909692E-01  0.63067400814E-01  0.11686978951E+00  0.51100000000E-03 0. -1.
</event>
<event>
 8    1  0.1117714E+005  0.1043930E+01  0.7957747E-01            NaN
         13   -1    0    0    0    0  0.00000000000E+00  0.00000000000E+00  0.74505805969E-08  0.10566000000E+00  0.10566000000E+00 0. -1.
     999900   -1    0    0    0    0 -0.00000000000E+00 -0.00000000000E+00 -0.74505805969E-08  0.93827000000E+00  0.93827000000E+00 0.  1.
     999902    2    1    2    0    0  0.19813837052E-01 -0.62578026751E-02 -0.12468057286E-01  0.10196977759E+01  0.10194098064E+01 0.  0.
     999903    2    3    3    0    0 -0.27368536598E-01 -0.11823690024E+00 -0.44293277502E-01  0.13077801611E+00  0.20297627743E-01 0.  0.
         14    1    1    2    0    0 -0.19813837052E-01  0.62578026751E-02  0.12468057286E-01  0.24232224115E-01  0.00000000000E+00 0. -1.
     999901    1    3    3    0    0  0.47182373650E-01  0.11197909757E+00  0.31825220216E-01  0.88891975977E+00  0.88000000000E+00 0. -1.
        -11    1    4    4    0    0 -0.56905324717E-02 -0.69050733381E-01 -0.25691059175E-01  0.73896397631E-01  0.51100000000E-03 0.  1.
         11    1    4    4    0    0 -0.21678004126E-01 -0.49186166860E-01 -0.18602218327E-01  0.56881618480E-01  0.51100000000E-03 0. -1.
</event>
<event>
 8    1  0.1117714E+005  0.1043930E+01  0.7957747E-01            NaN
         13   -1    0    0    0    0  0.00000000000E+00  0.00000000000E+00  0.74505805969E-08  0.10566000000E+00  0.10566000000E+00 0. -1.
     999900   -1    0    0    0    0 -0.00000000000E+00 -0.00000000000E+00 -0.74505805969E-08  0.93827000000E+00  0.93827000000E+00 0.  1.
     999902    2    1    2    0    0  0.10305021392E-01 -0.10974998540E-01  0.17322535331E-01  0.10209797432E+01  0.10207217651E+01 0.  0.
     999903    2    3    3    0    0  0.44249327876E-01 -0.80458088532E-01  0.95716064691E-01  0.13411692334E+00  0.19856410983E-01 0.  0.
         14    1    1    2    0    0 -0.10305021392E-01  0.10974998540E-01 -0.17322535331E-01  0.22950256843E-01  0.00000000000E+00 0.  1.
     999901    1    3    3    0    0 -0.33944306484E-01  0.69483089992E-01 -0.78393529360E-01  0.88686281982E+00  0.88000000000E+00 0.  1.
        -11    1    4    4    0    0  0.70572541332E-02 -0.20310998417E-01  0.34122942950E-01  0.40335813481E-01  0.51100000000E-03 0.  1.
         11    1    4    4    0    0  0.37192073743E-01 -0.60147090116E-01  0.61593121741E-01  0.93781109854E-01  0.51100000000E-03 0. -1.
</event>
<event>
 8    1  0.1117714E+005  0.1043930E+01  0.7957747E-01            NaN
         13   -1    0    0    0    0  0.00000000000E+00  0.00000000000E+00  0.74505805969E-08  0.10566000000E+00  0.10566000000E+00 0. -1.
     999900   -1    0    0    0    0 -0.00000000000E+00 -0.00000000000E+00 -0.74505805969E-08  0.93827000000E+00  0.93827000000E+00 0. -1.
     999902    2    1    2    0    0  0.95246577423E-02 -0.20105363416E-01 -0.10349683727E-01  0.10193930748E+01  0.10190977285E+01 0.  0.
     999903    2    3    3    0    0  0.46377187955E-01  0.84404873776E-01  0.80924160652E-01  0.12775894958E+00  0.22329423189E-01 0.  0.
         14    1    1    2    0    0 -0.95246577423E-02  0.20105363416E-01  0.10349683727E-01  0.24536925163E-01  0.00000000000E+00 0. -1.
     999901    1    3    3    0    0 -0.36852530213E-01 -0.10451023719E+00 -0.91273844379E-01  0.89163412526E+00  0.88000000000E+00 0. -1.
        -11    1    4    4    0    0  0.14108845440E-01  0.31718472231E-01  0.16309409146E-01  0.38358557690E-01  0.51100000000E-03 0.  1.
         11    1    4    4    0    0  0.32268342515E-01  0.52686401545E-01  0.64614751506E-01  0.89400391887E-01  0.51100000000E-03 0. -1.
</event>
<event>
 8    1  0.1117714E+005  0.1043930E+01  0.7957747E-01            NaN
         13   -1    0    0    0    0  0.00000000000E+00  0.00000000000E+00  0.74505805969E-08  0.10566000000E+00  0.10566000000E+00 0. -1.
     999900   -1    0    0    0    0 -0.00000000000E+00 -0.00000000000E+00 -0.74505805969E-08  0.93827000000E+00  0.93827000000E+00 0. -1.
     999902    2    1    2    0    0 -0.22440075912E-01 -0.79456969675E-02 -0.21566113458E-02  0.10200272370E+01  0.10197471364E+01 0.  0.
     999903    2    3    3    0    0 -0.82046197983E-01  0.84145115526E-01 -0.55519729939E-01  0.13161222700E+00  0.20672658611E-01 0.  0.
         14    1    1    2    0    0  0.22440075912E-01  0.79456969675E-02  0.21566113458E-02  0.23902763015E-01  0.00000000000E+00 0. -1.
     999901    1    3    3    0    0  0.59606122071E-01 -0.92090812494E-01  0.53363118593E-01  0.88841500998E+00  0.88000000000E+00 0.  1.
        -11    1    4    4    0    0 -0.64145047407E-01  0.71035142413E-01 -0.36680047707E-01  0.10250007603E+00  0.51100000000E-03 0.  1.
         11    1    4    4    0    0 -0.17901150576E-01  0.13109973113E-01 -0.18839682232E-01  0.29112150978E-01  0.51100000000E-03 0. -1.
</event>
<event>
 8    1  0.1117714E+005  0.1043930E+01  0.7957747E-01            NaN
         13   -1    0    0    0    0  0.00000000000E+00  0.00000000000E+00  0.74505805969E-08  0.10566000000E+00  0.10566000000E+00 0. -1.
     999900   -1    0    0    0    0 -0.00000000000E+00 -0.00000000000E+00 -0.74505805969E-08  0.93827000000E+00  0.93827000000E+00 0. -1.
     999902    2    1    2    0    0 -0.11281360512E-01 -0.20130392317E-01  0.15111599304E-01  0.10163462689E+01  0.10159718874E+01 0.  0.
     999903    2    3    3    0    0  0.73342345587E-01  0.11106188536E-01 -0.97927103029E-01  0.12454211781E+00  0.20459093831E-01 0.  0.
         14    1    1    2    0    0  0.11281360512E-01  0.20130392317E-01 -0.15111599304E-01  0.27583731135E-01  0.00000000000E+00 0.  1.
     999901    1    3    3    0    0 -0.84623706099E-01 -0.31236580853E-01  0.11303870233E+00  0.89180415106E+00  0.88000000000E+00 0.  1.
        -11    1    4    4    0    0  0.60645288696E-01  0.40932965980E-02 -0.67531691228E-01  0.90859212847E-01  0.51100000000E-03 0. -1.
         11    1    4    4    0    0  0.12697056890E-01  0.70128919381E-02 -0.30395411801E-01  0.33682904961E-01  0.51100000000E-03 0.  1.
</event>
<event>
 8    1  0.1117714E+005  0.1043930E+01  0.7957747E-01            NaN
         13   -1    0    0    0    0  0.00000000000E+00  0.00000000000E+00  0.74505805969E-08  0.10566000000E+00  0.10566000000E+00 0. -1.
     999900   -1    0    0    0    0 -0.00000000000E+00 -0.00000000000E+00 -0.74505805969E-08  0.93827000000E+00  0.93827000000E+00 0.  1.
     999902    2    1    2    0    0  0.20957582164E-02  0.22598797190E-01  0.59084794726E-02  0.10204777514E+01  0.10202082302E+01 0.  0.
     999903    2    3    3    0    0 -0.10221052044E+00  0.52374905022E-01  0.62097472408E-01  0.13203888497E+00  0.19698982220E-01 0.  0.
         14    1    1    2    0    0 -0.20957582164E-02 -0.22598797190E-01 -0.59084794726E-02  0.23452248647E-01  0.00000000000E+00 0.  1.
     999901    1    3    3    0    0  0.10430627866E+00 -0.29776107832E-01 -0.56188992936E-01  0.88843886638E+00  0.88000000000E+00 0.  1.
        -11    1    4    4    0    0 -0.42309364502E-01  0.11985206509E-01  0.18938465405E-01  0.47881667603E-01  0.51100000000E-03 0.  1.
         11    1    4    4    0    0 -0.59901155940E-01  0.40389698513E-01  0.43159007004E-01  0.84157217371E-01  0.51100000000E-03 0. -1.
</event>
<event>
 8    1  0.1117714E+005  0.1043930E+01  0.7957747E-01            NaN
         13   -1    0    0    0    0  0.00000000000E+00  0.00000000000E+00  0.74505805969E-08  0.10566000000E+00  0.10566000000E+00 0.  1.
     999900   -1    0    0    0    0 -0.00000000000E+00 -0.00000000000E+00 -0.74505805969E-08  0.93827000000E+00  0.93827000000E+00 0. -1.
     999902    2    1    2    0    0 -0.74615286583E-02 -0.17442198684E-01  0.14334701748E-01  0.10201521031E+01  0.10198749557E+01 0.  0.
     999903    2    3    3    0    0  0.66877661772E-01  0.10583795226E+00 -0.15559344552E-01  0.12795371441E+00  0.21348677814E-01 0.  0.
         14    1    1    2    0    0  0.74615286583E-02  0.17442198684E-01 -0.14334701748E-01  0.23777896859E-01  0.00000000000E+00 0. -1.
     999901    1    3    3    0    0 -0.74339190431E-01 -0.12328015095E+00  0.29894046300E-01  0.89219838873E+00  0.88000000000E+00 0. -1.
        -11    1    4    4    0    0  0.18173514721E-01  0.46489036334E-01 -0.10504270927E-01  0.51010861249E-01  0.51100000000E-03 0. -1.
         11    1    4    4    0    0  0.48704147051E-01  0.59348915930E-01 -0.50550736255E-02  0.76942853160E-01  0.51100000000E-03 0.  1.
</event>
<event>
 8    1  0.1117714E+005  0.1043930E+01  0.7957747E-01            NaN
         13   -1    0    0    0    0  0.00000000000E+00  0.00000000000E+00  0.74505805969E-08  0.10566000000E+00  0.10566000000E+00 0. -1.
     999900   -1    0    0    0    0 -0.00000000000E+00 -0.00000000000E+00 -0.74505805969E-08  0.93827000000E+00  0.93827000000E+00 0.  1.
     999902    2    1    2    0    0 -0.10626844342E-02 -0.17770731052E-01  0.17168494509E-04  0.10261275149E+01  0.10259730739E+01 0.  0.
     999903    2    3    3    0    0  0.16378781218E-01 -0.13388620811E+00 -0.24237589877E-01  0.13799728683E+00  0.16186698648E-01 0.  0.
         14    1    1    2    0    0  0.10626844342E-02  0.17770731052E-01 -0.17168494509E-04  0.17802485082E-01  0.00000000000E+00 0. -1.
     999901    1    3    3    0    0 -0.17441465653E-01  0.11611547706E+00  0.24254758372E-01  0.88813022809E+00  0.88000000000E+00 0. -1.
        -11    1    4    4    0    0  0.11208637916E-01 -0.12528429545E+00 -0.23017838620E-01  0.12787443163E+00  0.51100000000E-03 0.  1.
         11    1    4    4    0    0  0.51701433021E-02 -0.86019126644E-02 -0.12197512576E-02  0.10122855199E-01  0.51100000000E-03 0. -1.
</event>
<event>
 8    1  0.1117714E+005  0.1043930E+01  0.7957747E-01            NaN
         13   -1    0    0    0    0  0.00000000000E+00  0.00000000000E+00  0.74505805969E-08  0.10566000000E+00  0.10566000000E+00 0. -1.
     999900   -1    0    0    0    0 -0.00000000000E+00 -0.00000000000E+00 -0.74505805969E-08  0.93827000000E+00  0.93827000000E+00 0. -1.
     999902    2    1    2    0    0 -0.15091919808E-01  0.81563951348E-03  0.17563284980E-01  0.10207588910E+01  0.10204958664E+01 0.  0.
     999903    2    3    3    0    0 -0.10148892969E+00  0.81632853886E-01 -0.13505590345E-01  0.13229890856E+00  0.18885829377E-01 0.  0.
         14    1    1    2    0    0  0.15091919808E-01 -0.81563951348E-03 -0.17563284980E-01  0.23171108963E-01  0.00000000000E+00 0.  1.
     999901    1    3    3    0    0  0.86397009883E-01 -0.80817214372E-01  0.31068875325E-01  0.88845998248E+00  0.88000000000E+00 0.  1.
        -11    1    4    4    0    0 -0.30737899864E-01  0.34654172487E-01 -0.14387984461E-03  0.46325068605E-01  0.51100000000E-03 0. -1.
         11    1    4    4    0    0 -0.70751029827E-01  0.46978681398E-01 -0.13361710500E-01  0.85973839951E-01  0.51100000000E-03 0.  1.
</event>
<event>
 8    1  0.1117714E+005  0.1043930E+01  0.7957747E-01            NaN
         13   -1    0    0    0    0  0.00000000000E+00  0.00000000000E+00  0.74505805969E-08  0.10566000000E+00  0.10566000000E+00 0.  1.
     999900   -1    0    0    0    0 -0.00000000000E+00 -0.00000000000E+00 -0.74505805969E-08  0.93827000000E+00  0.93827000000E+00 0. -1.
     999902    2    1    2    0    0 -0.14684024709E-01 -0.18434578370E-01 -0.34287659508E-02  0.10201138144E+01  0.10198357631E+01 0.  0.
     999903    2    3    3    0    0 -0.85487830872E-01 -0.99274075931E-01 -0.16495940889E-01  0.13348031942E+00  0.19528651448E-01 0.  0.
         14    1    1    2    0    0  0.14684024709E-01  0.18434578370E-01  0.34287659508E-02  0.23816185616E-01  0.00000000000E+00 0.  1.
     999901    1    3    3    0    0  0.70803806163E-01  0.80839497560E-01  0.13067174939E-01  0.88663349497E+00  0.88000000000E+00 0. -1.
        -11    1    4    4    0    0 -0.61805109550E-01 -0.57523039626E-01 -0.11646489384E-01  0.85233053977E-01  0.51100000000E-03 0.  1.
         11    1    4    4    0    0 -0.23682721322E-01 -0.41751036305E-01 -0.48494515055E-02  0.48247265442E-01  0.51100000000E-03 0. -1.
</event>
<event>
 8    1  0.1117714E+005  0.1043930E+01  0.7957747E-01            NaN
         13   -1    0    0    0    0  0.00000000000E+00  0.00000000000E+00  0.74505805969E-08  0.10566000000E+00  0.10566000000E+00 0.  1.
     999900   -1    0    0    0    0 -0.00000000000E+00 -0.00000000000E+00 -0.74505805969E-08  0.93827000000E+00  0.93827000000E+00 0. -1.
     999902    2    1    2    0    0 -0.21171787495E-01 -0.95210387461E-02 -0.14482509454E-02  0.10206707611E+01  0.10204057087E+01 0.  0.
     999903    2    3    3    0    0 -0.68789021379E-01  0.14133282516E-01 -0.11036916250E+00  0.13236299186E+00  0.20172517077E-01 0.  0.
         14    1    1    2    0    0  0.21171787495E-01  0.95210387461E-02  0.14482509454E-02  0.23259238924E-01  0.00000000000E+00 0. -1.
     999901    1    3    3    0    0  0.47617233885E-01 -0.23654321262E-01  0.10892091156E+00  0.88830776922E+00  0.88000000000E+00 0.  1.
        -11    1    4    4    0    0 -0.47424993290E-01  0.68136894035E-02 -0.89937066223E-01  0.10190433432E+00  0.51100000000E-03 0.  1.
         11    1    4    4    0    0 -0.21364028089E-01  0.73195931125E-02 -0.20432096279E-01  0.30458657536E-01  0.51100000000E-03 0. -1.
</event>
<event>
 8    1  0.1117714E+005  0.1043930E+01  0.7957747E-01            NaN
         13   -1    0    0    0    0  0.00000000000E+00  0.00000000000E+00  0.74505805969E-08  0.10566000000E+00  0.10566000000E+00 0.  1.
     999900   -1    0    0    0    0 -0.00000000000E+00 -0.00000000000E+00 -0.74505805969E-08  0.93827000000E+00  0.93827000000E+00 0.  1.
     999902    2    1    2    0    0 -0.35880208560E-02  0.94226085885E-02 -0.23347881078E-01  0.10184980713E+01  0.10181805038E+01 0.  0.
     999903    2    3    3    0    0  0.11746790486E+00 -0.10359707058E-01 -0.50222175049E-01  0.12958406824E+00  0.19071750689E-01 0.  0.
         14    1    1    2    0    0  0.35880208560E-02 -0.94226085885E-02  0.23347881078E-01  0.25431928695E-01  0.00000000000E+00 0.  1.
     999901    1    3    3    0    0 -0.12105592571E+00  0.19782315647E-01  0.26874293970E-01  0.88891400306E+00  0.88000000000E+00 0.  1.
        -11    1    4    4    0    0  0.72976876311E-01 -0.92830077385E-03 -0.22747939739E-01  0.76447472828E-01  0.51100000000E-03 0. -1.
         11    1    4    4    0    0  0.44491028546E-01 -0.94314062845E-02 -0.27474235310E-01  0.53136595416E-01  0.51100000000E-03 0.  1.
</event>
<event>
 8    1  0.1117714E+005  0.1043930E+01  0.7957747E-01            NaN
         13   -1    0    0    0    0  0.00000000000E+00  0.00000000000E+00  0.74505805969E-08  0.10566000000E+00  0.10566000000E+00 0.  1.
     999900   -1    0    0    0    0 -0.00000000000E+00 -0.00000000000E+00 -0.74505805969E-08  0.93827000000E+00  0.93827000000E+00 0. -1.
     999902    2    1    2    0    0 -0.15854328716E-02 -0.19039696013E-01 -0.13200166365E-01  0.10207078551E+01  0.10204436572E+01 0.  0.
     999903    2    3    3    0    0 -0.60902499295E-01  0.10965000863E+00 -0.24124904968E-01  0.12930508174E+00  0.20138379015E-01 0.  0.
         14    1    1    2    0    0  0.15854328716E-02  0.19039696013E-01  0.13200166365E-01  0.23222144899E-01  0.00000000000E+00 0.  1.
     999901    1    3    3    0    0  0.59317066424E-01 -0.12868970465E+00  0.10924738603E-01  0.89140277337E+00  0.88000000000E+00 0.  1.
        -11    1    4    4    0    0 -0.54944008555E-01  0.86633543532E-01 -0.24688217978E-01  0.10551769600E+00  0.51100000000E-03 0. -1.
         11    1    4    4    0    0 -0.59584907400E-02  0.23016465101E-01  0.56331300955E-03  0.23787385736E-01  0.51100000000E-03 0.  1.
</event>
<event>
 8    1  0.1117714E+005  0.1043930E+01  0.7957747E-01            NaN
         13   -1    0    0    0    0  0.00000000000E+00  0.00000000000E+00  0.74505805969E-08  0.10566000000E+00  0.10566000000E+00 0.  1.
     999900   -1    0    0    0    0 -0.00000000000E+00 -0.00000000000E+00 -0.74505805969E-08  0.93827000000E+00  0.93827000000E+00 0. -1.
     999902    2    1    2    0    0  0.79506888841E-02 -0.23238211556E-01 -0.16364109910E-01  0.10144170872E+01  0.10139876798E+01 0.  0.
     999903    2    3    3    0    0  0.21124032849E-01  0.75927499159E-01 -0.95266517224E-01  0.12524164608E+00  0.19963735031E-01 0.  0.
         14    1    1    2    0    0 -0.79506888841E-02  0.23238211556E-01  0.16364109910E-01  0.29512912822E-01  0.00000000000E+00 0.  1.
     999901    1    3    3    0    0 -0.13173343965E-01 -0.99165710716E-01  0.78902407313E-01  0.88917544110E+00  0.88000000000E+00 0.  1.
        -11    1    4    4    0    0  0.20455719863E-01  0.56701967926E-01 -0.59916011906E-01  0.84992583474E-01  0.51100000000E-03 0.  1.
         11    1    4    4    0    0  0.66831298607E-03  0.19225531233E-01 -0.35350505317E-01  0.40249062606E-01  0.51100000000E-03 0. -1.
</event>
<event>
 8    1  0.1117714E+005  0.1043930E+01  0.7957747E-01            NaN
         13   -1    0    0    0    0  0.00000000000E+00  0.00000000000E+00  0.74505805969E-08  0.10566000000E+00  0.10566000000E+00 0.  1.
     999900   -1    0    0    0    0 -0.00000000000E+00 -0.00000000000E+00 -0.74505805969E-08  0.93827000000E+00  0.93827000000E+00 0. -1.
     999902    2    1    2    0    0 -0.21108475774E-01  0.57798092697E-02 -0.10234650740E-01  0.10197696602E+01  0.10194834171E+01 0.  0.
     999903    2    3    3    0    0  0.26786343118E-02  0.12736483414E+00 -0.21720189979E-01  0.13101735357E+00  0.21559318785E-01 0.  0.
         14    1    1    2    0    0  0.21108475774E-01 -0.57798092697E-02  0.10234650740E-01  0.24160339825E-01  0.00000000000E+00 0. -1.
     999901    1    3    3    0    0 -0.23787110085E-01 -0.12158502487E+00  0.11485539239E-01  0.88875230660E+00  0.88000000000E+00 0. -1.
        -11    1    4    4    0    0  0.70408722798E-02  0.86032247058E-01 -0.23337963979E-01  0.89420596621E-01  0.51100000000E-03 0. -1.
         11    1    4    4    0    0 -0.43622379680E-02  0.41332587085E-01  0.16177739998E-02  0.41596756952E-01  0.51100000000E-03 0.  1.
</event>
<event>
 8    1  0.1117714E+005  0.1043930E+01  0.7957747E-01            NaN
         13   -1    0    0    0    0  0.00000000000E+00  0.00000000000E+00  0.74505805969E-08  0.10566000000E+00  0.10566000000E+00 0. -1.
     999900   -1    0    0    0    0 -0.00000000000E+00 -0.00000000000E+00 -0.74505805969E-08  0.93827000000E+00  0.93827000000E+00 0. -1.
     999902    2    1    2    0    0  0.10720375574E-02  0.20341840241E-01 -0.12392257357E-01  0.10200865990E+01  0.10198079043E+01 0.  0.
     999903    2    3    3    0    0 -0.29284844926E-01 -0.11992129388E+00  0.25881710818E-01  0.12764041925E+00  0.19583023314E-01 0.  0.
         14    1    1    2    0    0 -0.10720375574E-02 -0.20341840241E-01  0.12392257357E-01  0.23843401001E-01  0.00000000000E+00 0. -1.
     999901    1    3    3    0    0  0.30356882483E-01  0.14026313413E+00 -0.38273968174E-01  0.89244617975E+00  0.88000000000E+00 0. -1.
        -11    1    4    4    0    0 -0.16986003992E-01 -0.36804112962E-01  0.13396215366E-01  0.42694106966E-01  0.51100000000E-03 0.  1.
         11    1    4    4    0    0 -0.12298840934E-01 -0.83117180923E-01  0.12485495451E-01  0.84946312284E-01  0.51100000000E-03 0. -1.
</event>
<event>
 8    1  0.1117714E+005  0.1043930E+01  0.7957747E-01            NaN
         13   -1    0    0    0    0  0.00000000000E+00  0.00000000000E+00  0.74505805969E-08  0.10566000000E+00  0.10566000000E+00 0.  1.
     999900   -1    0    0    0    0 -0.00000000000E+00 -0.00000000000E+00 -0.74505805969E-08  0.93827000000E+00  0.93827000000E+00 0. -1.
     999902    2    1    2    0    0  0.12695733683E-01  0.20315348781E-01  0.69255889290E-03  0.10199638846E+01  0.10196822795E+01 0.  0.
     999903    2    3    3    0    0 -0.25342047194E-01  0.12387994433E+00  0.33647705625E-01  0.13246259450E+00  0.20632762376E-01 0.  0.
         14    1    1    2    0    0 -0.12695733683E-01 -0.20315348781E-01 -0.69255889290E-03  0.23966115406E-01  0.00000000000E+00 0.  1.
     999901    1    3    3    0    0  0.38037780878E-01 -0.10356459555E+00 -0.32955146732E-01  0.88750129010E+00  0.88000000000E+00 0. -1.
        -11    1    4    4    0    0 -0.17369635847E-01  0.37849531496E-01  0.12991356266E-01  0.43627144561E-01  0.51100000000E-03 0.  1.
         11    1    4    4    0    0 -0.79724113477E-02  0.86030412837E-01  0.20656349358E-01  0.88835449936E-01  0.51100000000E-03 0. -1.
</event>
<event>
 8    1  0.1117714E+005  0.1043930E+01  0.7957747E-01            NaN
         13   -1    0    0    0    0  0.00000000000E+00  0.00000000000E+00  0.74505805969E-08  0.10566000000E+00  0.10566000000E+00 0. -1.
     999900   -1    0    0    0    0 -0.00000000000E+00 -0.00000000000E+00 -0.74505805969E-08  0.93827000000E+00  0.93827000000E+00 0. -1.
     999902    2    1    2    0    0  0.48382687107E-02 -0.25117717329E-01  0.20929587898E-03  0.10183496878E+01  0.10180283563E+01 0.  0.
     999903    2    3    3    0    0 -0.12450338299E+00 -0.73917132333E-02  0.21790657261E-01  0.12845686883E+00  0.21693423075E-01 0.  0.
         14    1    1    2    0    0 -0.48382687107E-02  0.25117717329E-01 -0.20929587898E-03  0.25580312209E-01  0.00000000000E+00 0.  1.
     999901    1    3    3    0    0  0.12934165170E+00 -0.17726004096E-01 -0.21581361382E-01  0.88989281896E+00  0.88000000000E+00 0.  1.
        -11    1    4    4    0    0 -0.49961415370E-01 -0.38768839739E-02  0.19562486920E-01  0.53797074926E-01  0.51100000000E-03 0.  1.
         11    1    4    4    0    0 -0.74541967619E-01 -0.35148292594E-02  0.22281703411E-02  0.74659793900E-01  0.51100000000E-03 0. -1.
</event>
<event>
 8    1  0.1117714E+005  0.1043930E+01  0.7957747E-01            NaN
         13   -1    0    0    0    0  0.00000000000E+00  0.00000000000E+00  0.74505805969E-08  0.10566000000E+00  0.10566000000E+00 0.  1.
     999900   -1    0    0    0    0 -0.00000000000E+00 -0.00000000000E+00 -0.74505805969E-08  0.93827000000E+00  0.93827000000E+00 0. -1.
     999902    2    1    2    0    0  0.19718088008E-01 -0.52447716822E-02 -0.12132794742E-01  0.10201915221E+01  0.10199153036E+01 0.  0.
     999903    2    3    3    0    0  0.15077153526E-01 -0.51229466834E-01  0.11590565151E+00  0.12972536655E+00  0.23297464358E-01 0.  0.
         14    1    1    2    0    0 -0.19718088008E-01  0.52447716822E-02  0.12132794742E-01  0.23738477898E-01  0.00000000000E+00 0.  1.
     999901    1    3    3    0    0  0.46409344811E-02  0.45984695152E-01 -0.12803844625E+00  0.89046615555E+00  0.88000000000E+00 0. -1.
        -11    1    4    4    0    0  0.16226986284E-01 -0.43384808803E-01  0.11126912010E+00  0.12052649056E+00  0.51100000000E-03 0.  1.
         11    1    4    4    0    0 -0.11498327576E-02 -0.78446580308E-02  0.46365314081E-02  0.91988759906E-02  0.51100000000E-03 0. -1.
</event>
<event>
 8    1  0.1117714E+005  0.1043930E+01  0.7957747E-01            NaN
         13   -1    0    0    0    0  0.00000000000E+00  0.00000000000E+00  0.74505805969E-08  0.10566000000E+00  0.10566000000E+00 0.  1.
     999900   -1    0    0    0    0 -0.00000000000E+00 -0.00000000000E+00 -0.74505805969E-08  0.93827000000E+00  0.93827000000E+00 0.  1.
     999902    2    1    2    0    0  0.73053136265E-02  0.15624928622E-01  0.16467404624E-01  0.10200829579E+01  0.10198041771E+01 0.  0.
     999903    2    3    3    0    0 -0.11934487334E+00  0.33505250263E-01 -0.31810369520E-01  0.12952654799E+00  0.19985655825E-01 0.  0.
         14    1    1    2    0    0 -0.73053136265E-02 -0.15624928622E-01 -0.16467404624E-01  0.23847042095E-01  0.00000000000E+00 0.  1.
     999901    1    3    3    0    0  0.12665018696E+00 -0.17880321640E-01  0.48277774144E-01  0.89055640991E+00  0.88000000000E+00 0. -1.
        -11    1    4    4    0    0 -0.95825094204E-01  0.30190470855E-01 -0.32968281324E-01  0.10574063507E+00  0.51100000000E-03 0.  1.
         11    1    4    4    0    0 -0.23519779134E-01  0.33147794080E-02  0.11579118043E-02  0.23785912927E-01  0.51100000000E-03 0. -1.
</event>
<event>
 8    1  0.1117714E+005  0.1043930E+01  0.7957747E-01            NaN
         13   -1    0    0    0    0  0.00000000000E+00  0.00000000000E+00  0.74505805969E-08  0.10566000000E+00  0.10566000000E+00 0. -1.
     999900   -1    0    0    0    0 -0.00000000000E+00 -0.00000000000E+00 -0.74505805969E-08  0.93827000000E+00  0.93827000000E+00 0. -1.
     999902    2    1    2    0    0 -0.16322876486E-02  0.17435481013E-01  0.16395364033E-01  0.10199410792E+01  0.10196589315E+01 0.  0.
     999903    2    3    3    0    0  0.45353553322E-01  0.82293830075E-01 -0.87875238292E-01  0.13017333801E+00  0.19844927701E-01 0.  0.
         14    1    1    2    0    0  0.16322876486E-02 -0.17435481013E-01 -0.16395364033E-01  0.23988920836E-01  0.00000000000E+00 0.  1.
     999901    1    3    3    0    0 -0.46985840970E-01 -0.64858349063E-01  0.10427060233E+00  0.88976774116E+00  0.88000000000E+00 0.  1.
        -11    1    4    4    0    0  0.12141439078E-01  0.42467692697E-01 -0.39771530908E-01  0.59438668034E-01  0.51100000000E-03 0.  1.
         11    1    4    4    0    0  0.33212114244E-01  0.39826137378E-01 -0.48103707384E-01  0.70734669973E-01  0.51100000000E-03 0. -1.
</event>
<event>
 8    1  0.1117714E+005  0.1043930E+01  0.7957747E-01            NaN
         13   -1    0    0    0    0  0.00000000000E+00  0.00000000000E+00  0.74505805969E-08  0.10566000000E+00  0.10566000000E+00 0.  1.
     999900   -1    0    0    0    0 -0.00000000000E+00 -0.00000000000E+00 -0.74505805969E-08  0.93827000000E+00  0.93827000000E+00 0. -1.
     999902    2    1    2    0    0 -0.20972237045E-01  0.10009209424E-01 -0.49302501819E-02  0.10201744456E+01  0.10198978248E+01 0.  0.
     999903    2    3    3    0    0 -0.10187286859E+00 -0.54924224196E-01 -0.60918946883E-01  0.13231409779E+00  0.20028744958E-01 0.  0.
         14    1    1    2    0    0  0.20972237045E-01 -0.10009209424E-01  0.49302501819E-02  0.23755554442E-01  0.00000000000E+00 0.  1.
     999901    1    3    3    0    0  0.80900631549E-01  0.64933433620E-01  0.55988696701E-01  0.88786034777E+00  0.88000000000E+00 0.  1.
        -11    1    4    4    0    0 -0.52094457095E-01 -0.38977223108E-01 -0.30812498786E-01  0.71991163233E-01  0.51100000000E-03 0. -1.
         11    1    4    4    0    0 -0.49778411500E-01 -0.15947001087E-01 -0.30106448097E-01  0.60322934553E-01  0.51100000000E-03 0.  1.
</event>
<event>
 8    1  0.1117714E+005  0.1043930E+01  0.7957747E-01            NaN
         13   -1    0    0    0    0  0.00000000000E+00  0.00000000000E+00  0.74505805969E-08  0.10566000000E+00  0.10566000000E+00 0.  1.
     999900   -1    0    0    0    0 -0.00000000000E+00 -0.00000000000E+00 -0.74505805969E-08  0.93827000000E+00  0.93827000000E+00 0.  1.
     999902    2    1    2    0    0  0.88862586420E-02  0.99960034538E-02  0.51130399090E-02  0.10296111713E+01  0.10295116003E+01 0.  0.
     999903    2    3    3    0    0 -0.10263316205E+00 -0.78070994156E-01  0.39338774780E-01  0.13755524359E+00  0.27299446119E-01 0.  0.
         14    1    1    2    0    0 -0.88862586420E-02 -0.99960034538E-02 -0.51130399090E-02  0.14318828682E-01  0.00000000000E+00 0. -1.
     999901    1    3    3    0    0  0.11151942069E+00  0.88066997609E-01 -0.34225734871E-01  0.89205592772E+00  0.88000000000E+00 0.  1.
        -11    1    4    4    0    0 -0.12734065609E-01 -0.26394124486E-02  0.10467011436E-01  0.16701568023E-01  0.51100000000E-03 0. -1.
         11    1    4    4    0    0 -0.89899096441E-01 -0.75431581707E-01  0.28871763344E-01  0.12085367557E+00  0.51100000000E-03 0.  1.
</event>
<event>
 8    1  0.1117714E+005  0.1043930E+01  0.7957747E-01            NaN
         13   -1    0    0    0    0  0.00000000000E+00  0.00000000000E+00  0.74505805969E-08  0.10566000000E+00  0.10566000000E+00 0. -1.
     999900   -1    0    0    0    0 -0.00000000000E+00 -0.00000000000E+00 -0.74505805969E-08  0.93827000000E+00  0.93827000000E+00 0.  1.
     999902    2    1    2    0    0 -0.59879142346E-02 -0.34962953838E-02  0.22915149045E-01  0.10199887541E+01  0.10197077401E+01 0.  0.
     999903    2    3    3    0    0  0.41431817748E-01  0.70891120534E-01 -0.95766632267E-01  0.12765054255E+00  0.19526050908E-01 0.  0.
         14    1    1    2    0    0  0.59879142346E-02  0.34962953838E-02 -0.22915149045E-01  0.23941245875E-01  0.00000000000E+00 0.  1.
     999901    1    3    3    0    0 -0.47419731983E-01 -0.74387415918E-01  0.11868178131E+00  0.89233821158E+00  0.88000000000E+00 0. -1.
        -11    1    4    4    0    0  0.18431831899E-01  0.27805804350E-01 -0.53541824881E-01  0.63086316387E-01  0.51100000000E-03 0.  1.
         11    1    4    4    0    0  0.22999985849E-01  0.43085316184E-01 -0.42224807387E-01  0.64564226160E-01  0.51100000000E-03 0. -1.
</event>
<event>
 8    1  0.1117714E+005  0.1043930E+01  0.7957747E-01            NaN
         13   -1    0    0    0    0  0.00000000000E+00  0.00000000000E+00  0.74505805969E-08  0.10566000000E+00  0.10566000000E+00 0. -1.
     999900   -1    0    0    0    0 -0.00000000000E+00 -0.00000000000E+00 -0.74505805969E-08  0.93827000000E+00  0.93827000000E+00 0.  1.
     999902    2    1    2    0    0 -0.95974193858E-02  0.20871091762E-01 -0.51470849290E-02  0.10203884322E+01  0.10201168302E+01 0.  0.
     999903    2    3    3    0    0 -0.46901856438E-01 -0.11779148613E+00 -0.78525949121E-02  0.12874598633E+00  0.20958230032E-01 0.  0.
         14    1    1    2    0    0  0.95974193858E-02 -0.20871091762E-01  0.51470849290E-02  0.23541567779E-01  0.00000000000E+00 0.  1.
     999901    1    3    3    0    0  0.37304437052E-01  0.13866257790E+00  0.27055099831E-02  0.89164244589E+00  0.88000000000E+00 0. -1.
        -11    1    4    4    0    0 -0.46125759607E-01 -0.10626562040E+00 -0.21799098410E-02  0.11586621986E+00  0.51100000000E-03 0. -1.
         11    1    4    4    0    0 -0.77609683044E-03 -0.11525865737E-01 -0.56726850711E-02  0.12879766465E-01  0.51100000000E-03 0.  1.
</event>
<event>
 8    1  0.1117714E+005  0.1043930E+01  0.7957747E-01            NaN
         13   -1    0    0    0    0  0.00000000000E+00  0.00000000000E+00  0.74505805969E-08  0.10566000000E+00  0.10566000000E+00 0.  1.
     999900   -1    0    0    0    0 -0.00000000000E+00 -0.00000000000E+00 -0.74505805969E-08  0.93827000000E+00  0.93827000000E+00 0. -1.
     999902    2    1    2    0    0  0.24413440260E-03  0.95376041700E-02 -0.21554066250E-01  0.10203587619E+01  0.10200864668E+01 0.  0.
     999903    2    3    3    0    0  0.11974350082E-01 -0.79385439655E-01 -0.10272709357E+00  0.13208292293E+00  0.21156788220E-01 0.  0.
         14    1    1    2    0    0 -0.24413440260E-03 -0.95376041700E-02  0.21554066250E-01  0.23571238126E-01  0.00000000000E+00 0.  1.
     999901    1    3    3    0    0 -0.11730215679E-01  0.88923043825E-01  0.81173027321E-01  0.88827583894E+00  0.88000000000E+00 0.  1.
        -11    1    4    4    0    0  0.15812008990E-02 -0.45228925587E-01 -0.71644965391E-01  0.84743248066E-01  0.51100000000E-03 0.  1.
         11    1    4    4    0    0  0.10393149183E-01 -0.34156514068E-01 -0.31082128180E-01  0.47339674866E-01  0.51100000000E-03 0. -1.
</event>
<event>
 8    1  0.1117714E+005  0.1043930E+01  0.7957747E-01            NaN
         13   -1    0    0    0    0  0.00000000000E+00  0.00000000000E+00  0.74505805969E-08  0.10566000000E+00  0.10566000000E+00 0.  1.
     999900   -1    0    0    0    0 -0.00000000000E+00 -0.00000000000E+00 -0.74505805969E-08  0.93827000000E+00  0.93827000000E+00 0.  1.
     999902    2    1    2    0    0  0.11604379471E-01  0.21496892944E-01 -0.16592731502E-02  0.10194446734E+01  0.10191505831E+01 0.  0.
     999903    2    3    3    0    0  0.41055948045E-01 -0.23187257749E-01 -0.11955731398E+00  0.12997066244E+00  0.19369614784E-01 0.  0.
         14    1    1    2    0    0 -0.11604379471E-01 -0.21496892944E-01  0.16592731502E-02  0.24485326556E-01  0.00000000000E+00 0.  1.
     999901    1    3    3    0    0 -0.29451568574E-01  0.44684150693E-01  0.11789804083E+00  0.88947401100E+00  0.88000000000E+00 0. -1.
        -11    1    4    4    0    0  0.18525245920E-01 -0.69570474050E-04 -0.38788533092E-01  0.42988382115E-01  0.51100000000E-03 0. -1.
         11    1    4    4    0    0  0.22530702125E-01 -0.23117687275E-01 -0.80768780892E-01  0.86982280327E-01  0.51100000000E-03 0.  1.
</event>
<event>
 8    1  0.1117714E+005  0.1043930E+01  0.7957747E-01            NaN
         13   -1    0    0    0    0  0.00000000000E+00  0.00000000000E+00  0.74505805969E-08  0.10566000000E+00  0.10566000000E+00 0. -1.
     999900   -1    0    0    0    0 -0.00000000000E+00 -0.00000000000E+00 -0.74505805969E-08  0.93827000000E+00  0.93827000000E+00 0.  1.
     999902    2    1    2    0    0 -0.11867954712E-01 -0.20641721025E-01  0.36673865594E-02  0.10198389494E+01  0.10195543654E+01 0.  0.
     999903    2    3    3    0    0 -0.90416078448E-01  0.93677271058E-02  0.92163596212E-01  0.13141227607E+00  0.22632637550E-01 0.  0.
         14    1    1    2    0    0  0.11867954712E-01  0.20641721025E-01 -0.36673865594E-02  0.24091050622E-01  0.00000000000E+00 0.  1.
     999901    1    3    3    0    0  0.78548123735E-01 -0.30009448130E-01 -0.88496209653E-01  0.88842667331E+00  0.88000000000E+00 0.  1.
        -11    1    4    4    0    0 -0.45276166853E-01  0.13654085201E-01  0.56774107035E-01  0.73891309897E-01  0.51100000000E-03 0.  1.
         11    1    4    4    0    0 -0.45139911594E-01 -0.42863580949E-02  0.35389489177E-01  0.57520966175E-01  0.51100000000E-03 0. -1.
</event>
<event>
 8    1  0.1117714E+005  0.1043930E+01  0.7957747E-01            NaN
         13   -1    0    0    0    0  0.00000000000E+00  0.00000000000E+00  0.74505805969E-08  0.10566000000E+00  0.10566000000E+00 0.  1.
     999900   -1    0    0    0    0 -0.00000000000E+00 -0.00000000000E+00 -0.74505805969E-08  0.93827000000E+00  0.93827000000E+00 0. -1.
     999902    2    1    2    0    0  0.15814872963E-01  0.12741950045E-01 -0.13144634532E-01  0.10197380816E+01  0.10194510808E+01 0.  0.
     999903    2    3    3    0    0 -0.71594906232E-01 -0.10092244085E+00  0.18902571726E-01  0.12755699760E+00  0.24542020173E-01 0.  0.
         14    1    1    2    0    0 -0.15814872963E-01 -0.12741950045E-01  0.13144634532E-01  0.24191918377E-01  0.00000000000E+00 0.  1.
     999901    1    3    3    0    0  0.87409779195E-01  0.11366439089E+00 -0.32047206258E-01  0.89218108402E+00  0.88000000000E+00 0. -1.
        -11    1    4    4    0    0 -0.38444983419E-01 -0.63494366612E-01  0.35970394656E-03  0.74228982544E-01  0.51100000000E-03 0.  1.
         11    1    4    4    0    0 -0.33149922813E-01 -0.37428074237E-01  0.18542867779E-01  0.53328015058E-01  0.51100000000E-03 0. -1.
</event>
<event>
 8    1  0.1117714E+005  0.1043930E+01  0.7957747E-01            NaN
         13   -1    0    0    0    0  0.00000000000E+00  0.00000000000E+00  0.74505805969E-08  0.10566000000E+00  0.10566000000E+00 0. -1.
     999900   -1    0    0    0    0 -0.00000000000E+00 -0.00000000000E+00 -0.74505805969E-08  0.93827000000E+00  0.93827000000E+00 0.  1.
     999902    2    1    2    0    0  0.85792534521E-02  0.22230737270E-01 -0.63728737817E-02  0.10192637723E+01  0.10189652667E+01 0.  0.
     999903    2    3    3    0    0  0.84403192294E-01 -0.66681700142E-01  0.67145117505E-01  0.12850028725E+00  0.20820879325E-01 0.  0.
         14    1    1    2    0    0 -0.85792534521E-02 -0.22230737270E-01  0.63728737817E-02  0.24666227713E-01  0.00000000000E+00 0. -1.
     999901    1    3    3    0    0 -0.75823938842E-01  0.88912437413E-01 -0.73517991286E-01  0.89076348503E+00  0.88000000000E+00 0.  1.
        -11    1    4    4    0    0  0.36397409474E-01 -0.41826138031E-01  0.35997156541E-01  0.66107893924E-01  0.51100000000E-03 0.  1.
         11    1    4    4    0    0  0.48005782820E-01 -0.24855562111E-01  0.31147960964E-01  0.62392393328E-01  0.51100000000E-03 0. -1.
</event>
<event>
 8    1  0.1117714E+005  0.1043930E+01  0.7957747E-01            NaN
         13   -1    0    0    0    0  0.00000000000E+00  0.00000000000E+00  0.74505805969E-08  0.10566000000E+00  0.10566000000E+00 0. -1.
     999900   -1    0    0    0    0 -0.00000000000E+00 -0.00000000000E+00 -0.74505805969E-08  0.93827000000E+00  0.93827000000E+00 0. -1.
     999902    2    1    2    0    0  0.12778700824E-01 -0.31977571106E-02  0.20357088158E-01  0.10196826933E+01  0.10193943609E+01 0.  0.
     999903    2    3    3    0    0 -0.33643750041E-01 -0.39948429171E-01 -0.11446669842E+00  0.12744779748E+00  0.20311009962E-01 0.  0.
         14    1    1    2    0    0 -0.12778700824E-01  0.31977571106E-02 -0.20357088158E-01  0.24247306728E-01  0.00000000000E+00 0.  1.
     999901    1    3    3    0    0  0.46422450866E-01  0.36750672060E-01  0.13482378658E+00  0.89223489579E+00  0.88000000000E+00 0.  1.
        -11    1    4    4    0    0 -0.12406495833E-01 -0.25329567707E-01 -0.42588559363E-01  0.51083800257E-01  0.51100000000E-03 0. -1.
         11    1    4    4    0    0 -0.21237254209E-01 -0.14618861463E-01 -0.71878139056E-01  0.76363997223E-01  0.51100000000E-03 0.  1.
</event>
<event>
 8    1  0.1117714E+005  0.1043930E+01  0.7957747E-01            NaN
         13   -1    0    0    0    0  0.00000000000E+00  0.00000000000E+00  0.74505805969E-08  0.10566000000E+00  0.10566000000E+00 0.  1.
     999900   -1    0    0    0    0 -0.00000000000E+00 -0.00000000000E+00 -0.74505805969E-08  0.93827000000E+00  0.93827000000E+00 0.  1.
     999902    2    1    2    0    0  0.43859760960E-02  0.26169423903E-01 -0.30695757559E-03  0.10173938029E+01  0.10170476785E+01 0.  0.
     999903    2    3    3    0    0 -0.10481220009E+00 -0.63320294494E-01  0.20129212878E-01  0.12590612017E+00  0.21262852653E-01 0.  0.
         14    1    1    2    0    0 -0.43859760960E-02 -0.26169423903E-01  0.30695757559E-03  0.26536197103E-01  0.00000000000E+00 0.  1.
     999901    1    3    3    0    0  0.10919817619E+00  0.89489718398E-01 -0.20436170453E-01  0.89148768272E+00  0.88000000000E+00 0.  1.
        -11    1    4    4    0    0 -0.54732655668E-01 -0.22495911492E-01  0.15238912385E-01  0.61108225322E-01  0.51100000000E-03 0.  1.
         11    1    4    4    0    0 -0.50079544426E-01 -0.40824383002E-01  0.48903004928E-02  0.64797894853E-01  0.51100000000E-03 0. -1.
</event>
<event>
 8    1  0.1117714E+005  0.1043930E+01  0.7957747E-01            NaN
         13   -1    0    0    0    0  0.00000000000E+00  0.00000000000E+00  0.74505805969E-08  0.10566000000E+00  0.10566000000E+00 0.  1.
     999900   -1    0    0    0    0 -0.00000000000E+00 -0.00000000000E+00 -0.74505805969E-08  0.93827000000E+00  0.93827000000E+00 0. -1.
     999902    2    1    2    0    0 -0.16114649087E-01  0.93210169271E-02 -0.12876464880E-01  0.10212944832E+01  0.10210436107E+01 0.  0.
     999903    2    3    3    0    0 -0.11894617107E+00 -0.32561063568E-01  0.44226946430E-01  0.13248110002E+00  0.19667348576E-01 0.  0.
         14    1    1    2    0    0  0.16114649087E-01 -0.93210169271E-02  0.12876464880E-01  0.22635516773E-01  0.00000000000E+00 0.  1.
     999901    1    3    3    0    0  0.10283152198E+00  0.41882080495E-01 -0.57103411310E-01  0.88881338320E+00  0.88000000000E+00 0. -1.
        -11    1    4    4    0    0 -0.69047559780E-01 -0.14018486094E-01  0.34161446309E-01  0.78302930972E-01  0.51100000000E-03 0. -1.
         11    1    4    4    0    0 -0.49898611290E-01 -0.18542577474E-01  0.10065500121E-01  0.54178169051E-01  0.51100000000E-03 0.  1.
</event>
<event>
 8    1  0.1117714E+005  0.1043930E+01  0.7957747E-01            NaN
         13   -1    0    0    0    0  0.00000000000E+00  0.00000000000E+00  0.74505805969E-08  0.10566000000E+00  0.10566000000E+00 0.  1.
     999900   -1    0    0    0    0 -0.00000000000E+00 -0.00000000000E+00 -0.74505805969E-08  0.93827000000E+00  0.93827000000E+00 0.  1.
     999902    2    1    2    0    0  0.24153197861E-01  0.30154522141E-02 -0.38210571763E-02  0.10192912014E+01  0.10189933674E+01 0.  0.
     999903    2    3    3    0    0 -0.26796104617E-01 -0.11557866737E+00 -0.45923490854E-01  0.12887949238E+00  0.20603324274E-01 0.  0.
         14    1    1    2    0    0 -0.24153197861E-01 -0.30154522141E-02  0.38210571763E-02  0.24638798609E-01  0.00000000000E+00 0.  1.
     999901    1    3    3    0    0  0.50949302478E-01  0.11859411958E+00  0.42102433677E-01  0.89041170901E+00  0.88000000000E+00 0. -1.
        -11    1    4    4    0    0 -0.66083059197E-02 -0.69182055619E-01 -0.31193277149E-01  0.76178134573E-01  0.51100000000E-03 0. -1.
         11    1    4    4    0    0 -0.20187798698E-01 -0.46396611747E-01 -0.14730213705E-01  0.52701357807E-01  0.51100000000E-03 0.  1.
</event>
<event>
 8    1  0.1117714E+005  0.1043930E+01  0.7957747E-01            NaN
         13   -1    0    0    0    0  0.00000000000E+00  0.00000000000E+00  0.74505805969E-08  0.10566000000E+00  0.10566000000E+00 0.  1.
     999900   -1    0    0    0    0 -0.00000000000E+00 -0.00000000000E+00 -0.74505805969E-08  0.93827000000E+00  0.93827000000E+00 0. -1.
     999902    2    1    2    0    0  0.47447976104E-02  0.22873114397E-01 -0.55519851029E-02  0.10199192315E+01  0.10196365635E+01 0.  0.
     999903    2    3    3    0    0 -0.99923346175E-01  0.40306868441E-01  0.70673877616E-01  0.13027338157E+00  0.19158241424E-01 0.  0.
         14    1    1    2    0    0 -0.47447976104E-02 -0.22873114397E-01  0.55519851029E-02  0.24010768525E-01  0.00000000000E+00 0.  1.
     999901    1    3    3    0    0  0.10466814379E+00 -0.17433754044E-01 -0.76225862719E-01  0.88964584990E+00  0.88000000000E+00 0. -1.
        -11    1    4    4    0    0 -0.35745139581E-01  0.17194972472E-01  0.15695924872E-01  0.42661519671E-01  0.51100000000E-03 0.  1.
         11    1    4    4    0    0 -0.64178206593E-01  0.23111895969E-01  0.54977952744E-01  0.87611861901E-01  0.51100000000E-03 0. -1.
</event>
<event>
 8    1  0.1117714E+005  0.1043930E+01  0.7957747E-01            NaN
         13   -1    0    0    0    0  0.00000000000E+00  0.00000000000E+00  0.74505805969E-08  0.10566000000E+00  0.10566000000E+00 0.  1.
     999900   -1    0    0    0    0 -0.00000000000E+00 -0.00000000000E+00 -0.74505805969E-08  0.93827000000E+00  0.93827000000E+00 0. -1.
     999902    2    1    2    0    0 -0.14057323468E-01  0.13080917226E-01  0.13076737860E-01  0.10206981294E+01  0.10204337076E+01 0.  0.
     999903    2    3    3    0    0  0.41060701468E-01  0.11917369354E+00  0.34988496662E-01  0.13234358361E+00  0.20056888734E-01 0.  0.
         14    1    1    2    0    0  0.14057323468E-01 -0.13080917226E-01 -0.13076737860E-01  0.23231870601E-01  0.00000000000E+00 0. -1.
     999901    1    3    3    0    0 -0.55118024936E-01 -0.10609277631E+00 -0.21911758801E-01  0.88835454579E+00  0.88000000000E+00 0.  1.
        -11    1    4    4    0    0  0.36915478161E-01  0.78961231003E-01  0.25441582591E-01  0.90802884178E-01  0.51100000000E-03 0. -1.
         11    1    4    4    0    0  0.41452233070E-02  0.40212462538E-01  0.95469140706E-02  0.41540699427E-01  0.51100000000E-03 0.  1.
</event>
<event>
 8    1  0.1117714E+005  0.1043930E+01  0.7957747E-01            NaN
         13   -1    0    0    0    0  0.00000000000E+00  0.00000000000E+00  0.74505805969E-08  0.10566000000E+00  0.10566000000E+00 0.  1.
     999900   -1    0    0    0    0 -0.00000000000E+00 -0.00000000000E+00 -0.74505805969E-08  0.93827000000E+00  0.93827000000E+00 0.  1.
     999902    2    1    2    0    0  0.12352700219E-01  0.15912969190E-01 -0.18460562032E-01  0.10166059421E+01  0.10162386714E+01 0.  0.
     999903    2    3    3    0    0 -0.48445817073E-01 -0.96461507928E-01 -0.62475392661E-01  0.12629038670E+00  0.19856167362E-01 0.  0.
         14    1    1    2    0    0 -0.12352700219E-01 -0.15912969190E-01  0.18460562032E-01  0.27324057929E-01  0.00000000000E+00 0.  1.
     999901    1    3    3    0    0  0.60798517292E-01  0.11237447712E+00  0.44014830629E-01  0.89031555537E+00  0.88000000000E+00 0. -1.
        -11    1    4    4    0    0 -0.28126562650E-01 -0.48742485345E-01 -0.43239607433E-01  0.70970826232E-01  0.51100000000E-03 0. -1.
         11    1    4    4    0    0 -0.20319254423E-01 -0.47719022583E-01 -0.19235785229E-01  0.55319560473E-01  0.51100000000E-03 0.  1.
</event>
<event>
 8    1  0.1117714E+005  0.1043930E+01  0.7957747E-01            NaN
         13   -1    0    0    0    0  0.00000000000E+00  0.00000000000E+00  0.74505805969E-08  0.10566000000E+00  0.10566000000E+00 0.  1.
     999900   -1    0    0    0    0 -0.00000000000E+00 -0.00000000000E+00 -0.74505805969E-08  0.93827000000E+00  0.93827000000E+00 0. -1.
     999902    2    1    2    0    0  0.69268808530E-02 -0.14709940859E-01 -0.12543264366E-01  0.10233947250E+01  0.10231886755E+01 0.  0.
     999903    2    3    3    0    0  0.46517609159E-02 -0.13351375375E+00  0.87599864363E-02  0.13515300642E+00  0.18494227819E-01 0.  0.
         14    1    1    2    0    0 -0.69268808530E-02  0.14709940859E-01  0.12543264366E-01  0.20535275002E-01  0.00000000000E+00 0.  1.
     999901    1    3    3    0    0  0.22751199370E-02  0.11880381289E+00 -0.21303250803E-01  0.88824171858E+00  0.88000000000E+00 0. -1.
        -11    1    4    4    0    0  0.54638187725E-02 -0.10628584712E+00 -0.34211577154E-03  0.10642796990E+00  0.51100000000E-03 0. -1.
         11    1    4    4    0    0 -0.81205785655E-03 -0.27227906633E-01  0.91021022078E-02  0.28725036521E-01  0.51100000000E-03 0.  1.
</event>
<event>
 8    1  0.1117714E+005  0.1043930E+01  0.7957747E-01            NaN
         13   -1    0    0    0    0  0.00000000000E+00  0.00000000000E+00  0.74505805969E-08  0.10566000000E+00  0.10566000000E+00 0. -1.
     999900   -1    0    0    0    0 -0.00000000000E+00 -0.00000000000E+00 -0.74505805969E-08  0.93827000000E+00  0.93827000000E+00 0. -1.
     999902    2    1    2    0    0  0.16705477066E-02  0.22651678738E-01 -0.18093064695E-02  0.10211448542E+01  0.10208906163E+01 0.  0.
     999903    2    3    3    0    0  0.66896284066E-01  0.34838635272E-01  0.10616632464E+00  0.13206574888E+00  0.21936959941E-01 0.  0.
         14    1    1    2    0    0 -0.16705477066E-02 -0.22651678738E-01  0.18093064695E-02  0.22785145801E-01  0.00000000000E+00 0. -1.
     999901    1    3    3    0    0 -0.65225736359E-01 -0.12186956534E-01 -0.10797563111E+00  0.88907910531E+00  0.88000000000E+00 0. -1.
        -11    1    4    4    0    0  0.57273738398E-01  0.19771467969E-01  0.84294762527E-01  0.10381262046E+00  0.51100000000E-03 0.  1.
         11    1    4    4    0    0  0.96225456682E-02  0.15067167303E-01  0.21871562113E-01  0.28253128427E-01  0.51100000000E-03 0. -1.
</event>
<event>
 8    1  0.1117714E+005  0.1043930E+01  0.7957747E-01            NaN
         13   -1    0    0    0    0  0.00000000000E+00  0.00000000000E+00  0.74505805969E-08  0.10566000000E+00  0.10566000000E+00 0. -1.
     999900   -1    0    0    0    0 -0.00000000000E+00 -0.00000000000E+00 -0.74505805969E-08  0.93827000000E+00  0.93827000000E+00 0. -1.
     999902    2    1    2    0    0 -0.26731428719E-03 -0.35914790762E-02  0.24240052691E-01  0.10194238715E+01  0.10191292752E+01 0.  0.
     999903    2    3    3    0    0 -0.42766336715E-01 -0.12134142748E+00  0.58987005129E-02  0.13037515381E+00  0.20253011708E-01 0.  0.
         14    1    1    2    0    0  0.26731428719E-03  0.35914790762E-02 -0.24240052691E-01  0.24506128485E-01  0.00000000000E+00 0.  1.
     999901    1    3    3    0    0  0.42499022428E-01  0.11774994841E+00  0.18341352178E-01  0.88904871771E+00  0.88000000000E+00 0. -1.
        -11    1    4    4    0    0  0.81424685354E-03 -0.17095665327E-01 -0.11837751563E-02  0.17163543210E-01  0.51100000000E-03 0.  1.
         11    1    4    4    0    0 -0.43580583569E-01 -0.10424576216E+00  0.70824756691E-02  0.11321161060E+00  0.51100000000E-03 0. -1.
</event>
<event>
 8    1  0.1117714E+005  0.1043930E+01  0.7957747E-01            NaN
         13   -1    0    0    0    0  0.00000000000E+00  0.00000000000E+00  0.74505805969E-08  0.10566000000E+00  0.10566000000E+00 0.  1.
     999900   -1    0    0    0    0 -0.00000000000E+00 -0.00000000000E+00 -0.74505805969E-08  0.93827000000E+00  0.93827000000E+00 0. -1.
     999902    2    1    2    0    0 -0.48189470043E-03 -0.14508176926E-01  0.18933641016E-01  0.10200720415E+01  0.10197930024E+01 0.  0.
     999903    2    3    3    0    0  0.51960612866E-02 -0.56641652681E-01 -0.11413017926E+00  0.12905383227E+00  0.19847365930E-01 0.  0.
         14    1    1    2    0    0  0.48189470043E-03  0.14508176926E-01 -0.18933641016E-01  0.23857958470E-01  0.00000000000E+00 0. -1.
     999901    1    3    3    0    0 -0.56779559870E-02  0.42133475755E-01  0.13306382028E+00  0.89101820926E+00  0.88000000000E+00 0.  1.
        -11    1    4    4    0    0  0.49476116541E-02 -0.14931741958E-01 -0.51114233773E-01  0.53482350305E-01  0.51100000000E-03 0. -1.
         11    1    4    4    0    0  0.24844963252E-03 -0.41709910724E-01 -0.63015945488E-01  0.75571481966E-01  0.51100000000E-03 0.  1.
</event>
<event>
 8    1  0.1117714E+005  0.1043930E+01  0.7957747E-01            NaN
         13   -1    0    0    0    0  0.00000000000E+00  0.00000000000E+00  0.74505805969E-08  0.10566000000E+00  0.10566000000E+00 0.  1.
     999900   -1    0    0    0    0 -0.00000000000E+00 -0.00000000000E+00 -0.74505805969E-08  0.93827000000E+00  0.93827000000E+00 0.  1.
     999902    2    1    2    0    0 -0.19984582967E-01 -0.59072907159E-02  0.12059343043E-01  0.10198528865E+01  0.10195686356E+01 0.  0.
     999903    2    3    3    0    0 -0.12895776970E+00 -0.33734188895E-02  0.24066654827E-01  0.13304639607E+00  0.21923806939E-01 0.  0.
         14    1    1    2    0    0  0.19984582967E-01  0.59072907159E-02 -0.12059343043E-01  0.24077113502E-01  0.00000000000E+00 0. -1.
     999901    1    3    3    0    0  0.10897318673E+00 -0.25338718264E-02 -0.12007311784E-01  0.88680649043E+00  0.88000000000E+00 0.  1.
        -11    1    4    4    0    0 -0.73257970773E-01  0.66342407148E-02  0.67809113816E-02  0.73871410653E-01  0.51100000000E-03 0. -1.
         11    1    4    4    0    0 -0.55699798928E-01 -0.10007659604E-01  0.17285743446E-01  0.59174985415E-01  0.51100000000E-03 0.  1.
</event>
<event>
 8    1  0.1117714E+005  0.1043930E+01  0.7957747E-01            NaN
         13   -1    0    0    0    0  0.00000000000E+00  0.00000000000E+00  0.74505805969E-08  0.10566000000E+00  0.10566000000E+00 0. -1.
     999900   -1    0    0    0    0 -0.00000000000E+00 -0.00000000000E+00 -0.74505805969E-08  0.93827000000E+00  0.93827000000E+00 0.  1.
     999902    2    1    2    0    0 -0.22335944047E-01  0.72345162285E-03  0.70844908721E-03  0.10215711163E+01  0.10213264052E+01 0.  0.
     999903    2    3    3    0    0 -0.13006985168E+00 -0.25745663878E-01 -0.10062068795E-01  0.13454055712E+00  0.20467309472E-01 0.  0.
         14    1    1    2    0    0  0.22335944047E-01 -0.72345162285E-03 -0.70844908721E-03  0.22358883667E-01  0.00000000000E+00 0.  1.
     999901    1    3    3    0    0  0.10773390763E+00  0.26469115500E-01  0.10770517882E-01  0.88703055922E+00  0.88000000000E+00 0. -1.
        -11    1    4    4    0    0 -0.39313755929E-01 -0.10322831844E-01  0.60035467232E-02  0.41090582337E-01  0.51100000000E-03 0. -1.
         11    1    4    4    0    0 -0.90756095748E-01 -0.15422832034E-01 -0.16065615518E-01  0.93449974780E-01  0.51100000000E-03 0.  1.
</event>
<event>
 8    1  0.1117714E+005  0.1043930E+01  0.7957747E-01            NaN
         13   -1    0    0    0    0  0.00000000000E+00  0.00000000000E+00  0.74505805969E-08  0.10566000000E+00  0.10566000000E+00 0. -1.
     999900   -1    0    0    0    0 -0.00000000000E+00 -0.00000000000E+00 -0.74505805969E-08  0.93827000000E+00  0.93827000000E+00 0.  1.
     999902    2    1    2    0    0  0.18370647546E-01 -0.76642563095E-02  0.10103187584E-01  0.10216074572E+01  0.10213635498E+01 0.  0.
     999903    2    3    3    0    0  0.12040286673E+00  0.38093158396E-01 -0.37617771949E-01  0.13324851811E+00  0.19802317473E-01 0.  0.
         14    1    1    2    0    0 -0.18370647546E-01  0.76642563095E-02 -0.10103187584E-01  0.22322542763E-01  0.00000000000E+00 0.  1.
     999901    1    3    3    0    0 -0.10203221919E+00 -0.45757414705E-01  0.47720959533E-01  0.88835893913E+00  0.88000000000E+00 0. -1.
        -11    1    4    4    0    0  0.40073350967E-01  0.20957354569E-01 -0.18828958025E-01  0.48988518548E-01  0.51100000000E-03 0. -1.
         11    1    4    4    0    0  0.80329515767E-01  0.17135803826E-01 -0.18788813924E-01  0.84259999559E-01  0.51100000000E-03 0.  1.
</event>
<event>
 8    1  0.1155306E+005  0.1043930E+01  0.7957747E-01            NaN
         13   -1    0    0    0    0  0.00000000000E+00  0.00000000000E+00  0.74505805969E-08  0.10566000000E+00  0.10566000000E+00 0.  1.
     999900   -1    0    0    0    0 -0.00000000000E+00 -0.00000000000E+00 -0.74505805969E-08  0.93827000000E+00  0.93827000000E+00 0.  1.
     999902    2    1    2    0    0  0.67976005782E-02 -0.98772781008E-02  0.19449187764E-01  0.10210818294E+01  0.10208261671E+01 0.  0.
     999903    2    3    3    0    0  0.88293096793E-01 -0.94470776808E-01  0.25905112069E-01  0.13325343667E+00  0.19105102504E-01 0.  0.
         14    1    1    2    0    0 -0.67976005782E-02  0.98772781008E-02 -0.19449187764E-01  0.22848170627E-01  0.00000000000E+00 0. -1.
     999901    1    3    3    0    0 -0.81495496215E-01  0.84593498707E-01 -0.64559243047E-02  0.88782839270E+00  0.88000000000E+00 0.  1.
        -11    1    4    4    0    0  0.50864300219E-01 -0.49752674731E-01  0.23327121097E-01  0.74879378866E-01  0.51100000000E-03 0. -1.
         11    1    4    4    0    0  0.37428796574E-01 -0.44718102077E-01  0.25779909717E-02  0.58374057807E-01  0.51100000000E-03 0.  1.
</event>
<event>
 8    1  0.1117714E+005  0.1043930E+01  0.7957747E-01            NaN
         13   -1    0    0    0    0  0.00000000000E+00  0.00000000000E+00  0.74505805969E-08  0.10566000000E+00  0.10566000000E+00 0. -1.
     999900   -1    0    0    0    0 -0.00000000000E+00 -0.00000000000E+00 -0.74505805969E-08  0.93827000000E+00  0.93827000000E+00 0.  1.
     999902    2    1    2    0    0  0.13422849014E-01 -0.24671628412E-01 -0.24087317040E-02  0.10157402126E+01  0.10153489624E+01 0.  0.
     999903    2    3    3    0    0 -0.11555580018E+00  0.17436691546E-02 -0.43167618452E-01  0.12501323608E+00  0.20215899028E-01 0.  0.
         14    1    1    2    0    0 -0.13422849014E-01  0.24671628412E-01  0.24087317040E-02  0.28189787380E-01  0.00000000000E+00 0. -1.
     999901    1    3    3    0    0  0.12897864920E+00 -0.26415297566E-01  0.40758886748E-01  0.89072697654E+00  0.88000000000E+00 0. -1.
        -11    1    4    4    0    0 -0.39922731837E-01 -0.31886286971E-02 -0.24502397067E-01  0.46953385962E-01  0.51100000000E-03 0. -1.
         11    1    4    4    0    0 -0.75633068345E-01  0.49322978517E-02 -0.18665221384E-01  0.78059850113E-01  0.51100000000E-03 0.  1.
</event>
<event>
 8    1  0.1117714E+005  0.1043930E+01  0.7957747E-01            NaN
         13   -1    0    0    0    0  0.00000000000E+00  0.00000000000E+00  0.74505805969E-08  0.10566000000E+00  0.10566000000E+00 0.  1.
     999900   -1    0    0    0    0 -0.00000000000E+00 -0.00000000000E+00 -0.74505805969E-08  0.93827000000E+00  0.93827000000E+00 0.  1.
     999902    2    1    2    0    0 -0.23420543498E-02  0.22348215335E-02 -0.23803847500E-01  0.10199070360E+01  0.10196240774E+01 0.  0.
     999903    2    3    3    0    0 -0.28918286489E-01 -0.78896766091E-01  0.94344240309E-01  0.12791622811E+00  0.20018959529E-01 0.  0.
         14    1    1    2    0    0  0.23420543498E-02 -0.22348215335E-02  0.23803847500E-01  0.24022964048E-01  0.00000000000E+00 0.  1.
     999901    1    3    3    0    0  0.26576232139E-01  0.81131587625E-01 -0.11814808781E+00  0.89199080784E+00  0.88000000000E+00 0.  1.
        -11    1    4    4    0    0 -0.11714970717E-01 -0.58324951178E-01  0.62661646763E-01  0.86404765869E-01  0.51100000000E-03 0.  1.
         11    1    4    4    0    0 -0.17203315772E-01 -0.20571814914E-01  0.31682593546E-01  0.41511462239E-01  0.51100000000E-03 0. -1.
</event>
<event>
 8    1  0.1117714E+005  0.1043930E+01  0.7957747E-01            NaN
         13   -1    0    0    0    0  0.00000000000E+00  0.00000000000E+00  0.74505805969E-08  0.10566000000E+00  0.10566000000E+00 0. -1.
     999900   -1    0    0    0    0 -0.00000000000E+00 -0.00000000000E+00 -0.74505805969E-08  0.93827000000E+00  0.93827000000E+00 0. -1.
     999902    2    1    2    0    0  0.10648770327E-01 -0.82004069541E-02 -0.22867789752E-01  0.10174049403E+01  0.10170591103E+01 0.  0.
     999903    2    3    3    0    0  0.82145004021E-01 -0.26178566785E-02  0.94503219382E-01  0.12672046751E+00  0.19301905400E-01 0.  0.
         14    1    1    2    0    0 -0.10648770327E-01  0.82004069541E-02  0.22867789752E-01  0.26525059695E-01  0.00000000000E+00 0. -1.
     999901    1    3    3    0    0 -0.71496233694E-01 -0.55825502755E-02 -0.11737100913E+00  0.89068447280E+00  0.88000000000E+00 0. -1.
        -11    1    4    4    0    0  0.55899627287E-01 -0.87621594319E-02  0.55122949349E-01  0.78995850743E-01  0.51100000000E-03 0. -1.
         11    1    4    4    0    0  0.26245376734E-01  0.61443027534E-02  0.39380270033E-01  0.47724616763E-01  0.51100000000E-03 0.  1.
</event>
<event>
 8    1  0.1117714E+005  0.1043930E+01  0.7957747E-01            NaN
         13   -1    0    0    0    0  0.00000000000E+00  0.00000000000E+00  0.74505805969E-08  0.10566000000E+00  0.10566000000E+00 0.  1.
     999900   -1    0    0    0    0 -0.00000000000E+00 -0.00000000000E+00 -0.74505805969E-08  0.93827000000E+00  0.93827000000E+00 0.  1.
     999902    2    1    2    0    0  0.11463187872E-01 -0.66294269334E-02  0.29897889140E-01  0.10112307989E+01  0.10107019793E+01 0.  0.
     999903    2    3    3    0    0 -0.48559039176E-01  0.69694837542E-01  0.88220506715E-01  0.12397120396E+00  0.19252297026E-01 0.  0.
         14    1    1    2    0    0 -0.11463187872E-01  0.66294269334E-02 -0.29897889140E-01  0.32699201102E-01  0.00000000000E+00 0. -1.
     999901    1    3    3    0    0  0.60022227049E-01 -0.76324264475E-01 -0.58322617574E-01  0.88725959494E+00  0.88000000000E+00 0. -1.
        -11    1    4    4    0    0 -0.27808398449E-01  0.23456895493E-01  0.35256426446E-01  0.50663692100E-01  0.51100000000E-03 0. -1.
         11    1    4    4    0    0 -0.20750640727E-01  0.46237942049E-01  0.52964080269E-01  0.73307511861E-01  0.51100000000E-03 0.  1.
</event>
<event>
 8    1  0.1117714E+005  0.1043930E+01  0.7957747E-01            NaN
         13   -1    0    0    0    0  0.00000000000E+00  0.00000000000E+00  0.74505805969E-08  0.10566000000E+00  0.10566000000E+00 0. -1.
     999900   -1    0    0    0    0 -0.00000000000E+00 -0.00000000000E+00 -0.74505805969E-08  0.93827000000E+00  0.93827000000E+00 0.  1.
     999902    2    1    2    0    0 -0.17155771454E-01  0.10006725350E-01  0.11773204045E-01  0.10208418346E+01  0.10205807111E+01 0.  0.
     999903    2    3    3    0    0  0.21657853837E-01  0.12816299965E+00 -0.68839128081E-02  0.13190117819E+00  0.21347492620E-01 0.  0.
         14    1    1    2    0    0  0.17155771454E-01 -0.10006725350E-01 -0.11773204045E-01  0.23088165364E-01  0.00000000000E+00 0.  1.
     999901    1    3    3    0    0 -0.38813625290E-01 -0.11815627430E+00  0.18657116853E-01  0.88894065644E+00  0.88000000000E+00 0. -1.
        -11    1    4    4    0    0  0.28380478768E-02  0.28656627219E-01  0.71131553976E-02  0.29666730525E-01  0.51100000000E-03 0. -1.
         11    1    4    4    0    0  0.18819805960E-01  0.99506372432E-01 -0.13997068206E-01  0.10223444767E+00  0.51100000000E-03 0.  1.
</event>
<event>
 8    1  0.1117714E+005  0.1043930E+01  0.7957747E-01            NaN
         13   -1    0    0    0    0  0.00000000000E+00  0.00000000000E+00  0.74505805969E-08  0.10566000000E+00  0.10566000000E+00 0. -1.
     999900   -1    0    0    0    0 -0.00000000000E+00 -0.00000000000E+00 -0.74505805969E-08  0.93827000000E+00  0.93827000000E+00 0. -1.
     999902    2    1    2    0    0  0.25112612833E-02 -0.20970286894E-01  0.10852536108E-01  0.10201847498E+01  0.10199083718E+01 0.  0.
     999903    2    3    3    0    0 -0.43774338095E-01 -0.89014215377E-01  0.86539341375E-01  0.13311044324E+00  0.19738522754E-01 0.  0.
         14    1    1    2    0    0 -0.25112612833E-02  0.20970286894E-01 -0.10852536108E-01  0.23745250170E-01  0.00000000000E+00 0.  1.
     999901    1    3    3    0    0  0.46285599378E-01  0.68043928483E-01 -0.75686805266E-01  0.88707430659E+00  0.88000000000E+00 0. -1.
        -11    1    4    4    0    0 -0.14391993297E-01 -0.13585314969E-01  0.21866044596E-01  0.29497038515E-01  0.51100000000E-03 0.  1.
         11    1    4    4    0    0 -0.29382344798E-01 -0.75428900408E-01  0.64673296778E-01  0.10361340473E+00  0.51100000000E-03 0. -1.
</event>
<event>
 8    1  0.1117714E+005  0.1043930E+01  0.7957747E-01            NaN
         13   -1    0    0    0    0  0.00000000000E+00  0.00000000000E+00  0.74505805969E-08  0.10566000000E+00  0.10566000000E+00 0.  1.
     999900   -1    0    0    0    0 -0.00000000000E+00 -0.00000000000E+00 -0.74505805969E-08  0.93827000000E+00  0.93827000000E+00 0.  1.
     999902    2    1    2    0    0  0.23737120047E-01 -0.85294218280E-04  0.22456669721E-02  0.10200867376E+01  0.10198080462E+01 0.  0.
     999903    2    3    3    0    0  0.10449161229E+00  0.79230595026E-01  0.70825374119E-02  0.13282370238E+00  0.19899481116E-01 0.  0.
         14    1    1    2    0    0 -0.23737120047E-01  0.85294218280E-04 -0.22456669721E-02  0.23843262431E-01  0.00000000000E+00 0. -1.
     999901    1    3    3    0    0 -0.80754492247E-01 -0.79315889244E-01 -0.48368704398E-02  0.88726303519E+00  0.88000000000E+00 0. -1.
        -11    1    4    4    0    0  0.31147217991E-01  0.14488397084E-01 -0.29275416635E-02  0.34480348894E-01  0.51100000000E-03 0.  1.
         11    1    4    4    0    0  0.73344394303E-01  0.64742197941E-01  0.10010079075E-01  0.98343353482E-01  0.51100000000E-03 0. -1.
</event>
<event>
 8    1  0.1117714E+005  0.1043930E+01  0.7957747E-01            NaN
         13   -1    0    0    0    0  0.00000000000E+00  0.00000000000E+00  0.74505805969E-08  0.10566000000E+00  0.10566000000E+00 0.  1.
     999900   -1    0    0    0    0 -0.00000000000E+00 -0.00000000000E+00 -0.74505805969E-08  0.93827000000E+00  0.93827000000E+00 0.  1.
     999902    2    1    2    0    0  0.17498719974E-01 -0.95757084723E-02 -0.10668336450E-01  0.10213089303E+01  0.10210583814E+01 0.  0.
     999903    2    3    3    0    0  0.37189783871E-01 -0.10496527181E+00  0.68778346358E-01  0.13237772809E+00  0.19814480927E-01 0.  0.
         14    1    1    2    0    0 -0.17498719974E-01  0.95757084723E-02  0.10668336450E-01  0.22621069738E-01  0.00000000000E+00 0.  1.
     999901    1    3    3    0    0 -0.19691063897E-01  0.95389563341E-01 -0.79446682808E-01  0.88893120218E+00  0.88000000000E+00 0.  1.
        -11    1    4    4    0    0  0.31958232647E-01 -0.72020637494E-01  0.55934712819E-01  0.96629467959E-01  0.51100000000E-03 0.  1.
         11    1    4    4    0    0  0.52315512239E-02 -0.32944634319E-01  0.12843633539E-01  0.35748260127E-01  0.51100000000E-03 0. -1.
</event>
<event>
 8    1  0.1117714E+005  0.1043930E+01  0.7957747E-01            NaN
         13   -1    0    0    0    0  0.00000000000E+00  0.00000000000E+00  0.74505805969E-08  0.10566000000E+00  0.10566000000E+00 0.  1.
     999900   -1    0    0    0    0 -0.00000000000E+00 -0.00000000000E+00 -0.74505805969E-08  0.93827000000E+00  0.93827000000E+00 0. -1.
     999902    2    1    2    0    0 -0.14846505161E-01 -0.37856468130E-02  0.19469846460E-01  0.10191545130E+01  0.10188533243E+01 0.  0.
     999903    2    3    3    0    0 -0.10347400173E+00 -0.78021350220E-01  0.11265287893E-01  0.13155489173E+00  0.19636259902E-01 0.  0.
         14    1    1    2    0    0  0.14846505161E-01  0.37856468130E-02 -0.19469846460E-01  0.24775487048E-01  0.00000000000E+00 0. -1.
     999901    1    3    3    0    0  0.88627496570E-01  0.74235703407E-01  0.82045585672E-02  0.88759962122E+00  0.88000000000E+00 0.  1.
        -11    1    4    4    0    0 -0.90399398930E-01 -0.64523802352E-01  0.15887077884E-01  0.11219640262E+00  0.51100000000E-03 0. -1.
         11    1    4    4    0    0 -0.13074602800E-01 -0.13497547868E-01 -0.46217899914E-02  0.19358489109E-01  0.51100000000E-03 0.  1.
</event>
<event>
 8    1  0.1117714E+005  0.1043930E+01  0.7957747E-01            NaN
         13   -1    0    0    0    0  0.00000000000E+00  0.00000000000E+00  0.74505805969E-08  0.10566000000E+00  0.10566000000E+00 0. -1.
     999900   -1    0    0    0    0 -0.00000000000E+00 -0.00000000000E+00 -0.74505805969E-08  0.93827000000E+00  0.93827000000E+00 0.  1.
     999902    2    1    2    0    0 -0.14778256501E-01  0.17809530535E-01  0.39859598146E-02  0.10204467268E+01  0.10201764838E+01 0.  0.
     999903    2    3    3    0    0  0.10321061566E+00  0.68360910442E-01  0.35065452599E-01  0.13059126057E+00  0.22334863092E-01 0.  0.
         14    1    1    2    0    0  0.14778256501E-01 -0.17809530535E-01 -0.39859598146E-02  0.23483273170E-01  0.00000000000E+00 0.  1.
     999901    1    3    3    0    0 -0.11798887216E+00 -0.50551379907E-01 -0.31079492785E-01  0.88985546626E+00  0.88000000000E+00 0.  1.
        -11    1    4    4    0    0  0.45116074561E-01  0.17074861509E-01  0.11521057566E-01  0.49598457312E-01  0.51100000000E-03 0. -1.
         11    1    4    4    0    0  0.58094541100E-01  0.51286048933E-01  0.23544395034E-01  0.80992803256E-01  0.51100000000E-03 0.  1.
</event>
<event>
 8    1  0.1117714E+005  0.1043930E+01  0.7957747E-01            NaN
         13   -1    0    0    0    0  0.00000000000E+00  0.00000000000E+00  0.74505805969E-08  0.10566000000E+00  0.10566000000E+00 0. -1.
     999900   -1    0    0    0    0 -0.00000000000E+00 -0.00000000000E+00 -0.74505805969E-08  0.93827000000E+00  0.93827000000E+00 0.  1.
     999902    2    1    2    0    0 -0.14538064836E-01  0.90813221620E-02  0.16225568324E-01  0.10203271441E+01  0.10200541094E+01 0.  0.
     999903    2    3    3    0    0 -0.25016607429E-01  0.98838706724E-01  0.83073697072E-01  0.13317729186E+00  0.20976923674E-01 0.  0.
         14    1    1    2    0    0  0.14538064836E-01 -0.90813221620E-02 -0.16225568324E-01  0.23602855946E-01  0.00000000000E+00 0. -1.
     999901    1    3    3    0    0  0.10478542594E-01 -0.89757384562E-01 -0.66848128748E-01  0.88714985220E+00  0.88000000000E+00 0. -1.
        -11    1    4    4    0    0 -0.19969765335E-01  0.70845942739E-01  0.71007758904E-01  0.10227561819E+00  0.51100000000E-03 0. -1.
         11    1    4    4    0    0 -0.50468420939E-02  0.27992763985E-01  0.12065938168E-01  0.30901673668E-01  0.51100000000E-03 0.  1.
</event>
<event>
 8    1  0.1117714E+005  0.1043930E+01  0.7957747E-01            NaN
         13   -1    0    0    0    0  0.00000000000E+00  0.00000000000E+00  0.74505805969E-08  0.10566000000E+00  0.10566000000E+00 0. -1.
     999900   -1    0    0    0    0 -0.00000000000E+00 -0.00000000000E+00 -0.74505805969E-08  0.93827000000E+00  0.93827000000E+00 0.  1.
     999902    2    1    2    0    0 -0.88105029459E-02 -0.18367561870E-01 -0.69744771131E-02  0.10223978003E+01  0.10221710358E+01 0.  0.
     999903    2    3    3    0    0 -0.69824492679E-01  0.10687882901E+00  0.20449759112E-01  0.13101603358E+00  0.21176981365E-01 0.  0.
         14    1    1    2    0    0  0.88105029459E-02  0.18367561870E-01  0.69744771131E-02  0.21532199661E-01  0.00000000000E+00 0. -1.
     999901    1    3    3    0    0  0.61013989733E-01 -0.12524639088E+00 -0.27424236225E-01  0.89138176676E+00  0.88000000000E+00 0. -1.
        -11    1    4    4    0    0 -0.62125048072E-01  0.89937378271E-01  0.24367249087E-01  0.11199231026E+00  0.51100000000E-03 0.  1.
         11    1    4    4    0    0 -0.76994446069E-02  0.16941450740E-01 -0.39174899745E-02  0.19023723325E-01  0.51100000000E-03 0. -1.
</event>
<event>
 8    1  0.1117714E+005  0.1043930E+01  0.7957747E-01            NaN
         13   -1    0    0    0    0  0.00000000000E+00  0.00000000000E+00  0.74505805969E-08  0.10566000000E+00  0.10566000000E+00 0. -1.
     999900   -1    0    0    0    0 -0.00000000000E+00 -0.00000000000E+00 -0.74505805969E-08  0.93827000000E+00  0.93827000000E+00 0.  1.
     999902    2    1    2    0    0  0.19891495657E-01 -0.12634995883E-01 -0.13004932551E-02  0.10203290254E+01  0.10200560347E+01 0.  0.
     999903    2    3    3    0    0 -0.63784305948E-01  0.10831644952E+00  0.16126255875E-01  0.12795321693E+00  0.17637422487E-01 0.  0.
         14    1    1    2    0    0 -0.19891495657E-01  0.12634995883E-01  0.13004932551E-02  0.23600974623E-01  0.00000000000E+00 0.  1.
     999901    1    3    3    0    0  0.83675801605E-01 -0.12095144540E+00 -0.17426749130E-01  0.89237580845E+00  0.88000000000E+00 0.  1.
        -11    1    4    4    0    0 -0.29947239484E-01  0.39906939207E-01  0.13022967651E-01  0.51568010985E-01  0.51100000000E-03 0.  1.
         11    1    4    4    0    0 -0.33837066464E-01  0.68409510313E-01  0.31032882236E-02  0.76385205943E-01  0.51100000000E-03 0. -1.
</event>
<event>
 8    1  0.1117714E+005  0.1043930E+01  0.7957747E-01            NaN
         13   -1    0    0    0    0  0.00000000000E+00  0.00000000000E+00  0.74505805969E-08  0.10566000000E+00  0.10566000000E+00 0. -1.
     999900   -1    0    0    0    0 -0.00000000000E+00 -0.00000000000E+00 -0.74505805969E-08  0.93827000000E+00  0.93827000000E+00 0.  1.
     999902    2    1    2    0    0  0.20928636310E-01  0.91336723794E-02  0.12148822605E-01  0.10180644693E+01  0.10177358390E+01 0.  0.
     999903    2    3    3    0    0 -0.84928267787E-01  0.42322018758E-01 -0.80898266934E-01  0.12623213562E+00  0.19648372186E-01 0.  0.
         14    1    1    2    0    0 -0.20928636310E-01 -0.91336723794E-02 -0.12148822605E-01  0.25865530724E-01  0.00000000000E+00 0.  1.
     999901    1    3    3    0    0  0.10585690410E+00 -0.33188346378E-01  0.93047089539E-01  0.89183233365E+00  0.88000000000E+00 0. -1.
        -11    1    4    4    0    0 -0.18591574349E-01  0.14653317632E-01 -0.29707046911E-01  0.37988631346E-01  0.51100000000E-03 0.  1.
         11    1    4    4    0    0 -0.66336693438E-01  0.27668701126E-01 -0.51191220023E-01  0.88243504275E-01  0.51100000000E-03 0. -1.
</event>
<event>
 8    1  0.1117714E+005  0.1043930E+01  0.7957747E-01            NaN
         13   -1    0    0    0    0  0.00000000000E+00  0.00000000000E+00  0.74505805969E-08  0.10566000000E+00  0.10566000000E+00 0.  1.
     999900   -1    0    0    0    0 -0.00000000000E+00 -0.00000000000E+00 -0.74505805969E-08  0.93827000000E+00  0.93827000000E+00 0. -1.
     999902    2    1    2    0    0  0.21704836429E-01 -0.34000303472E-02  0.78520295548E-02  0.10205994514E+01  0.10203327524E+01 0.  0.
     999903    2    3    3    0    0 -0.33965493470E-01  0.90929636456E-01  0.84551235049E-01  0.13049831118E+00  0.21425320033E-01 0.  0.
         14    1    1    2    0    0 -0.21704836429E-01  0.34000303472E-02 -0.78520295548E-02  0.23330548620E-01  0.00000000000E+00 0.  1.
     999901    1    3    3    0    0  0.55670329899E-01 -0.94329666804E-01 -0.76699205494E-01  0.89010114020E+00  0.88000000000E+00 0. -1.
        -11    1    4    4    0    0 -0.28983144432E-01  0.68888710807E-01  0.75242664836E-01  0.10605374520E+00  0.51100000000E-03 0. -1.
         11    1    4    4    0    0 -0.49823490376E-02  0.22040925650E-01  0.93085702129E-02  0.24444565978E-01  0.51100000000E-03 0.  1.
</event>
<event>
 8    1  0.1117714E+005  0.1043930E+01  0.7957747E-01            NaN
         13   -1    0    0    0    0  0.00000000000E+00  0.00000000000E+00  0.74505805969E-08  0.10566000000E+00  0.10566000000E+00 0. -1.
     999900   -1    0    0    0    0 -0.00000000000E+00 -0.00000000000E+00 -0.74505805969E-08  0.93827000000E+00  0.93827000000E+00 0.  1.
     999902    2    1    2    0    0  0.12359336871E-01  0.18555373398E-01 -0.48293310657E-02  0.10211182151E+01  0.10208633757E+01 0.  0.
     999903    2    3    3    0    0  0.10320032516E-01  0.13094131374E+00 -0.15820446354E-01  0.13390033719E+00  0.20661148606E-01 0.  0.
         14    1    1    2    0    0 -0.12359336871E-01 -0.18555373398E-01  0.48293310657E-02  0.22811784857E-01  0.00000000000E+00 0. -1.
     999901    1    3    3    0    0  0.20393043551E-02 -0.11238594034E+00  0.10991115289E-01  0.88721787796E+00  0.88000000000E+00 0.  1.
        -11    1    4    4    0    0  0.14688066879E-01  0.11612884851E+00 -0.10361552484E-01  0.11751285740E+00  0.51100000000E-03 0. -1.
         11    1    4    4    0    0 -0.43680343629E-02  0.14812465232E-01 -0.54588938707E-02  0.16387479786E-01  0.51100000000E-03 0.  1.
</event>
<event>
 8    1  0.1117714E+005  0.1043930E+01  0.7957747E-01            NaN
         13   -1    0    0    0    0  0.00000000000E+00  0.00000000000E+00  0.74505805969E-08  0.10566000000E+00  0.10566000000E+00 0. -1.
     999900   -1    0    0    0    0 -0.00000000000E+00 -0.00000000000E+00 -0.74505805969E-08  0.93827000000E+00  0.93827000000E+00 0. -1.
     999902    2    1    2    0    0 -0.23303767890E-01 -0.36799079576E-03  0.58440066256E-02  0.10199018201E+01  0.10196187372E+01 0.  0.
     999903    2    3    3    0    0  0.39879161853E-01  0.86968153795E-01 -0.84190767275E-01  0.12876437546E+00  0.18394884283E-01 0.  0.
         14    1    1    2    0    0  0.23303767890E-01  0.36799079576E-03 -0.58440066256E-02  0.24028179884E-01  0.00000000000E+00 0.  1.
     999901    1    3    3    0    0 -0.63182929743E-01 -0.87336144591E-01  0.90034773901E-01  0.89113744466E+00  0.88000000000E+00 0.  1.
        -11    1    4    4    0    0  0.41946054230E-02  0.29332348319E-01 -0.26015840925E-01  0.39434331142E-01  0.51100000000E-03 0. -1.
         11    1    4    4    0    0  0.35684556430E-01  0.57635805476E-01 -0.58174926350E-01  0.89330044315E-01  0.51100000000E-03 0.  1.
</event>
<event>
 7    1  0.1117714E+005  0.1043930E+01  0.7957747E-01            NaN
         13   -1    0    0    0    0  0.00000000000E+00  0.00000000000E+00  0.74505805969E-08  0.10566000000E+00  0.10566000000E+00 0.  1.
     999900   -1    0    0    0    0 -0.00000000000E+00 -0.00000000000E+00 -0.74505805969E-08  0.93827000000E+00  0.93827000000E+00 0.  1.
     999902    2    1    2    0    0  0.28903965340E-01 -0.10139696169E-01  0.76557034990E-02  0.10123568714E+01  0.10118644043E+01 0.  0.
         14    1    1    2    0    0 -0.28903965340E-01  0.10139696169E-01 -0.76557034990E-02  0.31573128556E-01  0.00000000000E+00 0. -1.
     999901    1    3    3    0    0 -0.49892350787E-01  0.42318911702E-01  0.80274122410E-01  0.88607227227E+00  0.88000000000E+00 0. -1.
        -11    1    3    3    0    0  0.51950165894E-01 -0.49101053716E-01 -0.68326325119E-01  0.98886202463E-01  0.51100000000E-03 0.  1.
         11    1    3    3    0    0  0.26846150233E-01 -0.33575541548E-02 -0.42920937918E-02  0.27398396711E-01  0.51100000000E-03 0. -1.
</event>
<event>
 8    1  0.1117714E+005  0.1043930E+01  0.7957747E-01            NaN
         13   -1    0    0    0    0  0.00000000000E+00  0.00000000000E+00  0.74505805969E-08  0.10566000000E+00  0.10566000000E+00 0. -1.
     999900   -1    0    0    0    0 -0.00000000000E+00 -0.00000000000E+00 -0.74505805969E-08  0.93827000000E+00  0.93827000000E+00 0.  1.
     999902    2    1    2    0    0 -0.26678199202E-01 -0.58991568939E-02  0.97503289128E-03  0.10165899734E+01  0.10162222675E+01 0.  0.
     999903    2    3    3    0    0 -0.11881896758E+00 -0.43680193456E-01 -0.24318173408E-01  0.13061194084E+00  0.21028532359E-01 0.  0.
         14    1    1    2    0    0  0.26678199202E-01  0.58991568939E-02 -0.97503289128E-03  0.27340026588E-01  0.00000000000E+00 0. -1.
     999901    1    3    3    0    0  0.92140768382E-01  0.37781036562E-01  0.25293206299E-01  0.88597803258E+00  0.88000000000E+00 0. -1.
        -11    1    4    4    0    0 -0.45498781957E-01 -0.12846653770E-01  0.51835682617E-03  0.47283247429E-01  0.51100000000E-03 0. -1.
         11    1    4    4    0    0 -0.73320185626E-01 -0.30833539686E-01 -0.24836530234E-01  0.83328693407E-01  0.51100000000E-03 0.  1.
</event>
<event>
 8    1  0.1117714E+005  0.1043930E+01  0.7957747E-01            NaN
         13   -1    0    0    0    0  0.00000000000E+00  0.00000000000E+00  0.74505805969E-08  0.10566000000E+00  0.10566000000E+00 0.  1.
     999900   -1    0    0    0    0 -0.00000000000E+00 -0.00000000000E+00 -0.74505805969E-08  0.93827000000E+00  0.93827000000E+00 0. -1.
     999902    2    1    2    0    0  0.22088188898E-01 -0.82914834549E-03  0.60701605747E-02  0.10210079053E+01  0.10207505671E+01 0.  0.
     999903    2    3    3    0    0 -0.93970903239E-01  0.81928456924E-01  0.24991185375E-01  0.12933726024E+00  0.23680473596E-01 0.  0.
         14    1    1    2    0    0 -0.22088188898E-01  0.82914834549E-03 -0.60701605747E-02  0.22922094694E-01  0.00000000000E+00 0. -1.
     999901    1    3    3    0    0  0.11605909214E+00 -0.82757605269E-01 -0.18921024800E-01  0.89167064507E+00  0.88000000000E+00 0.  1.
        -11    1    4    4    0    0 -0.74707680121E-01  0.61441114992E-01  0.94145563382E-02  0.97186125927E-01  0.51100000000E-03 0. -1.
         11    1    4    4    0    0 -0.19263223118E-01  0.20487341931E-01  0.15576629037E-01  0.32151134311E-01  0.51100000000E-03 0.  1.
</event>
<event>
 8    1  0.1117714E+005  0.1043930E+01  0.7957747E-01            NaN
         13   -1    0    0    0    0  0.00000000000E+00  0.00000000000E+00  0.74505805969E-08  0.10566000000E+00  0.10566000000E+00 0.  1.
     999900   -1    0    0    0    0 -0.00000000000E+00 -0.00000000000E+00 -0.74505805969E-08  0.93827000000E+00  0.93827000000E+00 0. -1.
     999902    2    1    2    0    0 -0.19012913754E-01 -0.13238780876E-01 -0.78294565630E-02  0.10194748043E+01  0.10191814460E+01 0.  0.
     999903    2    3    3    0    0  0.81721920405E-01 -0.51640045350E-01 -0.84077926461E-01  0.12962313511E+00  0.19694996322E-01 0.  0.
         14    1    1    2    0    0  0.19012913754E-01  0.13238780876E-01  0.78294565630E-02  0.24455195738E-01  0.00000000000E+00 0.  1.
     999901    1    3    3    0    0 -0.10073483416E+00  0.38401264474E-01  0.76248469898E-01  0.88985166915E+00  0.88000000000E+00 0. -1.
        -11    1    4    4    0    0  0.48204353814E-01 -0.41559380269E-01 -0.54773301410E-01  0.83971527813E-01  0.51100000000E-03 0. -1.
         11    1    4    4    0    0  0.33517566591E-01 -0.10080665081E-01 -0.29304625051E-01  0.45651607299E-01  0.51100000000E-03 0.  1.
</event>
<event>
 8    1  0.1117714E+005  0.1043930E+01  0.7957747E-01            NaN
         13   -1    0    0    0    0  0.00000000000E+00  0.00000000000E+00  0.74505805969E-08  0.10566000000E+00  0.10566000000E+00 0.  1.
     999900   -1    0    0    0    0 -0.00000000000E+00 -0.00000000000E+00 -0.74505805969E-08  0.93827000000E+00  0.93827000000E+00 0. -1.
     999902    2    1    2    0    0  0.14693573793E-01  0.18348122666E-01 -0.48230166698E-02  0.10199338293E+01  0.10196515091E+01 0.  0.
     999903    2    3    3    0    0 -0.12138322708E+00  0.35239350551E-01 -0.24675338903E-01  0.12909359451E+00  0.89768674079E-02 0.  0.
         14    1    1    2    0    0 -0.14693573793E-01 -0.18348122666E-01  0.48230166698E-02  0.23996170652E-01  0.00000000000E+00 0.  1.
     999901    1    3    3    0    0  0.13607680087E+00 -0.16891227885E-01  0.19852322233E-01  0.89084023484E+00  0.88000000000E+00 0.  1.
        -11    1    4    4    0    0 -0.64215109892E-01  0.20238983123E-01 -0.17392541471E-01  0.69541055472E-01  0.51100000000E-03 0.  1.
         11    1    4    4    0    0 -0.57168117189E-01  0.15000367427E-01 -0.72827974319E-02  0.59552539034E-01  0.51100000000E-03 0. -1.
</event>
<event>
 8    1  0.1117714E+005  0.1043930E+01  0.7957747E-01            NaN
         13   -1    0    0    0    0  0.00000000000E+00  0.00000000000E+00  0.74505805969E-08  0.10566000000E+00  0.10566000000E+00 0. -1.
     999900   -1    0    0    0    0 -0.00000000000E+00 -0.00000000000E+00 -0.74505805969E-08  0.93827000000E+00  0.93827000000E+00 0. -1.
     999902    2    1    2    0    0  0.13935712449E-02  0.49640729348E-02  0.23477244724E-01  0.10198932556E+01  0.10196099685E+01 0.  0.
     999903    2    3    3    0    0  0.10259301226E+00  0.76101835109E-01 -0.16796957870E-01  0.13032936276E+00  0.19666965539E-01 0.  0.
         14    1    1    2    0    0 -0.13935712449E-02 -0.49640729348E-02 -0.23477244724E-01  0.24036744387E-01  0.00000000000E+00 0.  1.
     999901    1    3    3    0    0 -0.10119944101E+00 -0.71137762174E-01  0.40274202593E-01  0.88956389285E+00  0.88000000000E+00 0. -1.
        -11    1    4    4    0    0  0.81153114730E-01  0.56267239954E-01 -0.51681570135E-02  0.98887821749E-01  0.51100000000E-03 0.  1.
         11    1    4    4    0    0  0.21439897527E-01  0.19834595156E-01 -0.11628800856E-01  0.31441541014E-01  0.51100000000E-03 0. -1.
</event>
<event>
 8    1  0.1117714E+005  0.1043930E+01  0.7957747E-01            NaN
         13   -1    0    0    0    0  0.00000000000E+00  0.00000000000E+00  0.74505805969E-08  0.10566000000E+00  0.10566000000E+00 0.  1.
     999900   -1    0    0    0    0 -0.00000000000E+00 -0.00000000000E+00 -0.74505805969E-08  0.93827000000E+00  0.93827000000E+00 0.  1.
     999902    2    1    2    0    0 -0.14540011733E-01 -0.11178692697E-01 -0.14066148632E-01  0.10208165483E+01  0.10205548460E+01 0.  0.
     999903    2    3    3    0    0  0.10463833325E+00  0.34677852301E-01 -0.65746595746E-01  0.13009932649E+00  0.21248192305E-01 0.  0.
         14    1    1    2    0    0  0.14540011733E-01  0.11178692697E-01  0.14066148632E-01  0.23113451688E-01  0.00000000000E+00 0.  1.
     999901    1    3    3    0    0 -0.11917834498E+00 -0.45856544998E-01  0.51680447113E-01  0.89071722182E+00  0.88000000000E+00 0. -1.
        -11    1    4    4    0    0  0.57942179577E-01  0.19821594701E-01 -0.48597053768E-01  0.78180090474E-01  0.51100000000E-03 0. -1.
         11    1    4    4    0    0  0.46696153672E-01  0.14856257601E-01 -0.17149541977E-01  0.51919236018E-01  0.51100000000E-03 0.  1.
</event>
<event>
 8    1  0.1117714E+005  0.1043930E+01  0.7957747E-01            NaN
         13   -1    0    0    0    0  0.00000000000E+00  0.00000000000E+00  0.74505805969E-08  0.10566000000E+00  0.10566000000E+00 0. -1.
     999900   -1    0    0    0    0 -0.00000000000E+00 -0.00000000000E+00 -0.74505805969E-08  0.93827000000E+00  0.93827000000E+00 0.  1.
     999902    2    1    2    0    0 -0.54818882141E-02 -0.21505546108E-01 -0.83338612820E-02  0.10202236115E+01  0.10199481480E+01 0.  0.
     999903    2    3    3    0    0 -0.12363182668E+00  0.48348437036E-02 -0.39666054510E-01  0.13138452009E+00  0.19501075740E-01 0.  0.
         14    1    1    2    0    0  0.54818882141E-02  0.21505546108E-01  0.83338612820E-02  0.23706388499E-01  0.00000000000E+00 0. -1.
     999901    1    3    3    0    0  0.11814993847E+00 -0.26340389811E-01  0.31332193228E-01  0.88883909142E+00  0.88000000000E+00 0. -1.
        -11    1    4    4    0    0 -0.76395387677E-01  0.12226926310E-01 -0.22371409014E-01  0.80538773566E-01  0.51100000000E-03 0.  1.
         11    1    4    4    0    0 -0.47236439007E-01 -0.73920826060E-02 -0.17294645496E-01  0.50845746520E-01  0.51100000000E-03 0. -1.
</event>
<event>
 8    1  0.1117714E+005  0.1043930E+01  0.7957747E-01            NaN
         13   -1    0    0    0    0  0.00000000000E+00  0.00000000000E+00  0.74505805969E-08  0.10566000000E+00  0.10566000000E+00 0.  1.
     999900   -1    0    0    0    0 -0.00000000000E+00 -0.00000000000E+00 -0.74505805969E-08  0.93827000000E+00  0.93827000000E+00 0. -1.
     999902    2    1    2    0    0 -0.26023845751E-01  0.59417446381E-03 -0.17939260382E-01  0.10123165432E+01  0.10118227972E+01 0.  0.
     999903    2    3    3    0    0  0.54893879485E-01  0.75562956986E-02 -0.10888969154E+00  0.12390890568E+00  0.20640164053E-01 0.  0.
         14    1    1    2    0    0  0.26023845751E-01 -0.59417446381E-03  0.17939260382E-01  0.31613456850E-01  0.00000000000E+00 0.  1.
     999901    1    3    3    0    0 -0.80917725236E-01 -0.69621212348E-02  0.90950431162E-01  0.88840763747E+00  0.88000000000E+00 0.  1.
        -11    1    4    4    0    0  0.17539583243E-01  0.10855639052E-01 -0.28330944657E-01  0.35048329857E-01  0.51100000000E-03 0. -1.
         11    1    4    4    0    0  0.37354296242E-01 -0.32993433536E-02 -0.80558746887E-01  0.88860575821E-01  0.51100000000E-03 0.  1.
</event>
<event>
 8    1  0.1117714E+005  0.1043930E+01  0.7957747E-01            NaN
         13   -1    0    0    0    0  0.00000000000E+00  0.00000000000E+00  0.74505805969E-08  0.10566000000E+00  0.10566000000E+00 0. -1.
     999900   -1    0    0    0    0 -0.00000000000E+00 -0.00000000000E+00 -0.74505805969E-08  0.93827000000E+00  0.93827000000E+00 0. -1.
     999902    2    1    2    0    0 -0.17096545985E-01 -0.12977431214E-01  0.82498102020E-02  0.10209351098E+01  0.10206761159E+01 0.  0.
     999903    2    3    3    0    0  0.89789946755E-01 -0.18733055083E-01 -0.87992171565E-01  0.12923988803E+00  0.23391547813E-01 0.  0.
         14    1    1    2    0    0  0.17096545985E-01  0.12977431214E-01 -0.82498102020E-02  0.22994890169E-01  0.00000000000E+00 0.  1.
     999901    1    3    3    0    0 -0.10688649274E+00  0.57556238688E-02  0.96241981767E-01  0.89169522181E+00  0.88000000000E+00 0.  1.
        -11    1    4    4    0    0  0.34393357255E-01  0.42302340581E-02 -0.30588992970E-01  0.46224944731E-01  0.51100000000E-03 0.  1.
         11    1    4    4    0    0  0.55396589501E-01 -0.22963289141E-01 -0.57403178594E-01  0.83014943294E-01  0.51100000000E-03 0. -1.
</event>
<event>
 8    1  0.1117714E+005  0.1043930E+01  0.7957747E-01            NaN
         13   -1    0    0    0    0  0.00000000000E+00  0.00000000000E+00  0.74505805969E-08  0.10566000000E+00  0.10566000000E+00 0. -1.
     999900   -1    0    0    0    0 -0.00000000000E+00 -0.00000000000E+00 -0.74505805969E-08  0.93827000000E+00  0.93827000000E+00 0.  1.
     999902    2    1    2    0    0 -0.46978014288E-02  0.22770028777E-01 -0.12468954669E-01  0.10175478398E+01  0.10172057746E+01 0.  0.
     999903    2    3    3    0    0  0.12237264369E-01 -0.35650005834E-01  0.11829450184E+00  0.12580865229E+00  0.20336033819E-01 0.  0.
         14    1    1    2    0    0  0.46978014288E-02 -0.22770028777E-01  0.12468954669E-01  0.26382160247E-01  0.00000000000E+00 0. -1.
     999901    1    3    3    0    0 -0.16935065798E-01  0.58420034611E-01 -0.13076345651E+00  0.89173918746E+00  0.88000000000E+00 0. -1.
        -11    1    4    4    0    0  0.17513400941E-01 -0.30248136054E-01  0.90956011501E-01  0.97441911396E-01  0.51100000000E-03 0.  1.
         11    1    4    4    0    0 -0.52761365715E-02 -0.54018697802E-02  0.27338490335E-01  0.28366740895E-01  0.51100000000E-03 0. -1.
</event>
<event>
 8    1  0.1117714E+005  0.1043930E+01  0.7957747E-01            NaN
         13   -1    0    0    0    0  0.00000000000E+00  0.00000000000E+00  0.74505805969E-08  0.10566000000E+00  0.10566000000E+00 0.  1.
     999900   -1    0    0    0    0 -0.00000000000E+00 -0.00000000000E+00 -0.74505805969E-08  0.93827000000E+00  0.93827000000E+00 0. -1.
     999902    2    1    2    0    0 -0.22448871363E-01  0.65222999337E-02  0.49633159462E-02  0.10200317422E+01  0.10197517484E+01 0.  0.
     999903    2    3    3    0    0 -0.64057393560E-01  0.86700742193E-01  0.74089190701E-01  0.13271092179E+00  0.22419014651E-01 0.  0.
         14    1    1    2    0    0  0.22448871363E-01 -0.65222999337E-02 -0.49633159462E-02  0.23898257825E-01  0.00000000000E+00 0.  1.
     999901    1    3    3    0    0  0.41608522197E-01 -0.80178442259E-01 -0.69125874755E-01  0.88732082038E+00  0.88000000000E+00 0. -1.
        -11    1    4    4    0    0 -0.40735673890E-01  0.65643391829E-01  0.61928378982E-01  0.99014318472E-01  0.51100000000E-03 0.  1.
         11    1    4    4    0    0 -0.23321719671E-01  0.21057350363E-01  0.12160811719E-01  0.33696603321E-01  0.51100000000E-03 0. -1.
</event>
<event>
 8    1  0.1117714E+005  0.1043930E+01  0.7957747E-01            NaN
         13   -1    0    0    0    0  0.00000000000E+00  0.00000000000E+00  0.74505805969E-08  0.10566000000E+00  0.10566000000E+00 0.  1.
     999900   -1    0    0    0    0 -0.00000000000E+00 -0.00000000000E+00 -0.74505805969E-08  0.93827000000E+00  0.93827000000E+00 0.  1.
     999902    2    1    2    0    0  0.19624369142E-01  0.99721548078E-02  0.13383759519E-02  0.10218766332E+01  0.10216386360E+01 0.  0.
     999903    2    3    3    0    0 -0.11726117280E+00  0.40744292783E-01 -0.33648061382E-01  0.13007585566E+00  0.19423082979E-01 0.  0.
         14    1    1    2    0    0 -0.19624369142E-01 -0.99721548078E-02 -0.13383759519E-02  0.22053366771E-01  0.00000000000E+00 0.  1.
     999901    1    3    3    0    0  0.13688554194E+00 -0.30772137975E-01  0.34986437334E-01  0.89180077756E+00  0.88000000000E+00 0.  1.
        -11    1    4    4    0    0 -0.13525037690E-01  0.11492729459E-01 -0.66777791779E-02  0.18970064067E-01  0.51100000000E-03 0.  1.
         11    1    4    4    0    0 -0.10373613511E+00  0.29251563324E-01 -0.26970282205E-01  0.11110579160E+00  0.51100000000E-03 0. -1.
</event>
<event>
 8    1  0.1117714E+005  0.1043930E+01  0.7957747E-01            NaN
         13   -1    0    0    0    0  0.00000000000E+00  0.00000000000E+00  0.74505805969E-08  0.10566000000E+00  0.10566000000E+00 0.  1.
     999900   -1    0    0    0    0 -0.00000000000E+00 -0.00000000000E+00 -0.74505805969E-08  0.93827000000E+00  0.93827000000E+00 0.  1.
     999902    2    1    2    0    0 -0.84203691318E-02  0.19658956089E-01 -0.10564320068E-01  0.10200766558E+01  0.10197977259E+01 0.  0.
     999903    2    3    3    0    0 -0.55519397911E-01  0.10549459287E+00 -0.56564862146E-01  0.13345265155E+00  0.19962813095E-01 0.  0.
         14    1    1    2    0    0  0.84203691318E-02 -0.19658956089E-01  0.10564320068E-01  0.23853344196E-01  0.00000000000E+00 0. -1.
     999901    1    3    3    0    0  0.47099028779E-01 -0.85835636779E-01  0.46000542078E-01  0.88662400426E+00  0.88000000000E+00 0.  1.
        -11    1    4    4    0    0 -0.11581199952E-01  0.34513844374E-01 -0.25176517157E-01  0.44265650147E-01  0.51100000000E-03 0.  1.
         11    1    4    4    0    0 -0.43938197958E-01  0.70980748494E-01 -0.31388344989E-01  0.89187001400E-01  0.51100000000E-03 0. -1.
</event>
<event>
 8    1  0.1117714E+005  0.1043930E+01  0.7957747E-01            NaN
         13   -1    0    0    0    0  0.00000000000E+00  0.00000000000E+00  0.74505805969E-08  0.10566000000E+00  0.10566000000E+00 0.  1.
     999900   -1    0    0    0    0 -0.00000000000E+00 -0.00000000000E+00 -0.74505805969E-08  0.93827000000E+00  0.93827000000E+00 0. -1.
     999902    2    1    2    0    0  0.13433894478E-01  0.17975134448E-01  0.78891865120E-02  0.10201431498E+01  0.10198657911E+01 0.  0.
     999903    2    3    3    0    0 -0.44137557481E-02  0.75738416343E-02  0.12979554148E+00  0.13149930387E+00  0.19192186224E-01 0.  0.
         14    1    1    2    0    0 -0.13433894478E-01 -0.17975134448E-01 -0.78891865120E-02  0.23786850214E-01  0.00000000000E+00 0. -1.
     999901    1    3    3    0    0  0.17847650226E-01  0.10401292814E-01 -0.12190635497E+00  0.88864384592E+00  0.88000000000E+00 0. -1.
        -11    1    4    4    0    0 -0.74312032386E-03  0.80479084295E-02  0.19165817827E-01  0.20806507441E-01  0.51100000000E-03 0.  1.
         11    1    4    4    0    0 -0.36706354242E-02 -0.47406679516E-03  0.11062972365E+00  0.11069279643E+00  0.51100000000E-03 0. -1.
</event>
<event>
 8    1  0.1117714E+005  0.1043930E+01  0.7957747E-01            NaN
         13   -1    0    0    0    0  0.00000000000E+00  0.00000000000E+00  0.74505805969E-08  0.10566000000E+00  0.10566000000E+00 0. -1.
     999900   -1    0    0    0    0 -0.00000000000E+00 -0.00000000000E+00 -0.74505805969E-08  0.93827000000E+00  0.93827000000E+00 0.  1.
     999902    2    1    2    0    0 -0.35820763028E-02 -0.71318565639E-02 -0.21720911374E-01  0.10207892861E+01  0.10205269590E+01 0.  0.
     999903    2    3    3    0    0 -0.80855620808E-01 -0.67355501884E-01  0.74250888189E-01  0.13016665308E+00  0.18861816666E-01 0.  0.
         14    1    1    2    0    0  0.35820763028E-02  0.71318565639E-02  0.21720911374E-01  0.23140713896E-01  0.00000000000E+00 0. -1.
     999901    1    3    3    0    0  0.77273544505E-01  0.60223645320E-01 -0.95971799563E-01  0.89062263302E+00  0.88000000000E+00 0.  1.
        -11    1    4    4    0    0 -0.39822858810E-01 -0.22255731128E-01  0.36744864128E-01  0.58580063269E-01  0.51100000000E-03 0.  1.
         11    1    4    4    0    0 -0.41032761998E-01 -0.45099770756E-01  0.37506024061E-01  0.71586589815E-01  0.51100000000E-03 0. -1.
</event>
<event>
 8    1  0.1117714E+005  0.1043930E+01  0.7957747E-01            NaN
         13   -1    0    0    0    0  0.00000000000E+00  0.00000000000E+00  0.74505805969E-08  0.10566000000E+00  0.10566000000E+00 0. -1.
     999900   -1    0    0    0    0 -0.00000000000E+00 -0.00000000000E+00 -0.74505805969E-08  0.93827000000E+00  0.93827000000E+00 0. -1.
     999902    2    1    2    0    0 -0.22795491365E-01 -0.12595286556E-01  0.19512075007E-03  0.10178855430E+01  0.10175522910E+01 0.  0.
     999903    2    3    3    0    0 -0.61274507875E-01 -0.10920383787E+00 -0.33899852458E-01  0.13110692680E+00  0.18967939726E-01 0.  0.
         14    1    1    2    0    0  0.22795491365E-01  0.12595286556E-01 -0.19512075007E-03  0.26044457032E-01  0.00000000000E+00 0. -1.
     999901    1    3    3    0    0  0.38479016510E-01  0.96608551311E-01  0.34094973208E-01  0.88677861617E+00  0.88000000000E+00 0. -1.
        -11    1    4    4    0    0 -0.15725192674E-01 -0.26109785045E-01 -0.56464177783E-04  0.30483878837E-01  0.51100000000E-03 0. -1.
         11    1    4    4    0    0 -0.45549315201E-01 -0.83094052822E-01 -0.33843388280E-01  0.10062304796E+00  0.51100000000E-03 0.  1.
</event>
<event>
 8    1  0.1117714E+005  0.1043930E+01  0.7957747E-01            NaN
         13   -1    0    0    0    0  0.00000000000E+00  0.00000000000E+00  0.74505805969E-08  0.10566000000E+00  0.10566000000E+00 0.  1.
     999900   -1    0    0    0    0 -0.00000000000E+00 -0.00000000000E+00 -0.74505805969E-08  0.93827000000E+00  0.93827000000E+00 0. -1.
     999902    2    1    2    0    0 -0.10929123569E-01  0.11408966041E-01  0.17233823834E-01  0.10205502025E+01  0.10202823633E+01 0.  0.
     999903    2    3    3    0    0 -0.85874526100E-01 -0.73537109295E-01 -0.60836058830E-01  0.12986083146E+00  0.19510735927E-01 0.  0.
         14    1    1    2    0    0  0.10929123569E-01 -0.11408966041E-01 -0.17233823834E-01  0.23379797520E-01  0.00000000000E+00 0. -1.
     999901    1    3    3    0    0  0.74945402531E-01  0.84946075336E-01  0.78069882664E-01  0.89068937102E+00  0.88000000000E+00 0.  1.
        -11    1    4    4    0    0 -0.94885510689E-02 -0.96859211954E-02 -0.78133461707E-03  0.13591220533E-01  0.51100000000E-03 0.  1.
         11    1    4    4    0    0 -0.76385975031E-01 -0.63851188099E-01 -0.60054724212E-01  0.11626961092E+00  0.51100000000E-03 0. -1.
</event>
<event>
 8    1  0.1117714E+005  0.1043930E+01  0.7957747E-01            NaN
         13   -1    0    0    0    0  0.00000000000E+00  0.00000000000E+00  0.74505805969E-08  0.10566000000E+00  0.10566000000E+00 0.  1.
     999900   -1    0    0    0    0 -0.00000000000E+00 -0.00000000000E+00 -0.74505805969E-08  0.93827000000E+00  0.93827000000E+00 0.  1.
     999902    2    1    2    0    0 -0.22305863732E-01  0.78740879649E-02 -0.53708323204E-04  0.10202750702E+01  0.10200008153E+01 0.  0.
     999903    2    3    3    0    0 -0.68120037300E-01 -0.37423907754E-03  0.11130618426E+00  0.13203636409E+00  0.20101125613E-01 0.  0.
         14    1    1    2    0    0  0.22305863732E-01 -0.78740879649E-02  0.53708323204E-04  0.23654929776E-01  0.00000000000E+00 0.  1.
     999901    1    3    3    0    0  0.45814173568E-01  0.82483270424E-02 -0.11135989258E+00  0.88823870613E+00  0.88000000000E+00 0.  1.
        -11    1    4    4    0    0 -0.15091128982E-01  0.70635751614E-02  0.35548453976E-01  0.39263086597E-01  0.51100000000E-03 0.  1.
         11    1    4    4    0    0 -0.53028908318E-01 -0.74378142389E-02  0.75757730284E-01  0.92773277493E-01  0.51100000000E-03 0. -1.
</event>
<event>
 8    1  0.1117714E+005  0.1043930E+01  0.7957747E-01            NaN
         13   -1    0    0    0    0  0.00000000000E+00  0.00000000000E+00  0.74505805969E-08  0.10566000000E+00  0.10566000000E+00 0. -1.
     999900   -1    0    0    0    0 -0.00000000000E+00 -0.00000000000E+00 -0.74505805969E-08  0.93827000000E+00  0.93827000000E+00 0.  1.
     999902    2    1    2    0    0  0.58858242840E-02  0.91021344175E-02 -0.19995839438E-01  0.10211852122E+01  0.10209318842E+01 0.  0.
     999903    2    3    3    0    0 -0.10359504487E+00 -0.30892424128E-01 -0.73130558526E-01  0.13191083168E+00  0.19134098748E-01 0.  0.
         14    1    1    2    0    0 -0.58858242840E-02 -0.91021344175E-02  0.19995839438E-01  0.22744787827E-01  0.00000000000E+00 0. -1.
     999901    1    3    3    0    0  0.10948086915E+00  0.39994558546E-01  0.53134719088E-01  0.88927438049E+00  0.88000000000E+00 0.  1.
        -11    1    4    4    0    0 -0.77473867553E-01 -0.18765752092E-01 -0.44485032060E-01  0.91288185454E-01  0.51100000000E-03 0.  1.
         11    1    4    4    0    0 -0.26121177317E-01 -0.12126672036E-01 -0.28645526466E-01  0.40622646229E-01  0.51100000000E-03 0. -1.
</event>
<event>
 8    1  0.1117714E+005  0.1043930E+01  0.7957747E-01            NaN
         13   -1    0    0    0    0  0.00000000000E+00  0.00000000000E+00  0.74505805969E-08  0.10566000000E+00  0.10566000000E+00 0.  1.
     999900   -1    0    0    0    0 -0.00000000000E+00 -0.00000000000E+00 -0.74505805969E-08  0.93827000000E+00  0.93827000000E+00 0. -1.
     999902    2    1    2    0    0  0.90223057152E-03  0.62101350304E-02  0.18000701035E-01  0.10248668147E+01  0.10246895055E+01 0.  0.
     999903    2    3    3    0    0  0.10761567076E-01 -0.11932834638E+00  0.57590557291E-01  0.13502161828E+00  0.23645285735E-01 0.  0.
         14    1    1    2    0    0 -0.90223057152E-03 -0.62101350304E-02 -0.18000701035E-01  0.19063185328E-01  0.00000000000E+00 0. -1.
     999901    1    3    3    0    0 -0.98593365042E-02  0.12553848141E+00 -0.39589856256E-01  0.88984519640E+00  0.88000000000E+00 0. -1.
        -11    1    4    4    0    0  0.35674247742E-02 -0.76061982155E-01  0.48334676735E-01  0.90192315332E-01  0.51100000000E-03 0. -1.
         11    1    4    4    0    0  0.71941423015E-02 -0.43266364223E-01  0.92558805552E-02  0.44829302944E-01  0.51100000000E-03 0.  1.
</event>
<event>
 8    1  0.1117714E+005  0.1043930E+01  0.7957747E-01            NaN
         13   -1    0    0    0    0  0.00000000000E+00  0.00000000000E+00  0.74505805969E-08  0.10566000000E+00  0.10566000000E+00 0. -1.
     999900   -1    0    0    0    0 -0.00000000000E+00 -0.00000000000E+00 -0.74505805969E-08  0.93827000000E+00  0.93827000000E+00 0. -1.
     999902    2    1    2    0    0 -0.14122521200E-01 -0.17835377015E-01  0.67634550880E-02  0.10201962560E+01  0.10199201489E+01 0.  0.
     999903    2    3    3    0    0 -0.11862328457E+00  0.13035254922E-01  0.53438289599E-01  0.13224808995E+00  0.19811738601E-01 0.  0.
         14    1    1    2    0    0  0.14122521200E-01  0.17835377015E-01 -0.67634550880E-02  0.23733743974E-01  0.00000000000E+00 0.  1.
     999901    1    3    3    0    0  0.10450076337E+00 -0.30870631937E-01 -0.46674834511E-01  0.88794816608E+00  0.88000000000E+00 0. -1.
        -11    1    4    4    0    0 -0.86317271924E-01  0.77031053064E-02  0.28992706141E-01  0.91382971029E-01  0.51100000000E-03 0. -1.
         11    1    4    4    0    0 -0.32306012649E-01  0.53321496154E-02  0.24445583458E-01  0.40865118920E-01  0.51100000000E-03 0.  1.
</event>
<event>
 8    1  0.1117714E+005  0.1043930E+01  0.7957747E-01            NaN
         13   -1    0    0    0    0  0.00000000000E+00  0.00000000000E+00  0.74505805969E-08  0.10566000000E+00  0.10566000000E+00 0. -1.
     999900   -1    0    0    0    0 -0.00000000000E+00 -0.00000000000E+00 -0.74505805969E-08  0.93827000000E+00  0.93827000000E+00 0. -1.
     999902    2    1    2    0    0  0.91696207937E-02  0.15671035250E-01 -0.12793964701E-01  0.10217185430E+01  0.10214770835E+01 0.  0.
     999903    2    3    3    0    0 -0.78957559005E-01 -0.84735019215E-01  0.53477878308E-01  0.12917177512E+00  0.20276696340E-01 0.  0.
         14    1    1    2    0    0 -0.91696207937E-02 -0.15671035250E-01  0.12793964701E-01  0.22211457045E-01  0.00000000000E+00 0. -1.
     999901    1    3    3    0    0  0.88127179799E-01  0.10040605446E+00 -0.66271843009E-01  0.89254676783E+00  0.88000000000E+00 0. -1.
        -11    1    4    4    0    0 -0.58918169862E-01 -0.70476624345E-01  0.49184930496E-01  0.10420040224E+00  0.51100000000E-03 0.  1.
         11    1    4    4    0    0 -0.20039389143E-01 -0.14258394870E-01  0.42929478118E-02  0.24971372878E-01  0.51100000000E-03 0. -1.
</event>
<event>
 8    1  0.1117714E+005  0.1043930E+01  0.7957747E-01            NaN
         13   -1    0    0    0    0  0.00000000000E+00  0.00000000000E+00  0.74505805969E-08  0.10566000000E+00  0.10566000000E+00 0.  1.
     999900   -1    0    0    0    0 -0.00000000000E+00 -0.00000000000E+00 -0.74505805969E-08  0.93827000000E+00  0.93827000000E+00 0. -1.
     999902    2    1    2    0    0  0.21544335143E-01 -0.38268106115E-02 -0.12188661717E-01  0.10188827181E+01  0.10185748018E+01 0.  0.
     999903    2    3    3    0    0  0.44259038798E-01 -0.11231129826E+00  0.44223039127E-01  0.13013802933E+00  0.20187601556E-01 0.  0.
         14    1    1    2    0    0 -0.21544335143E-01  0.38268106115E-02  0.12188661717E-01  0.25047281901E-01  0.00000000000E+00 0. -1.
     999901    1    3    3    0    0 -0.22714703655E-01  0.10848448765E+00 -0.56411700844E-01  0.88874468877E+00  0.88000000000E+00 0. -1.
        -11    1    4    4    0    0  0.76241049354E-02 -0.40732867901E-01  0.93157897000E-02  0.42477506545E-01  0.51100000000E-03 0. -1.
         11    1    4    4    0    0  0.36634933863E-01 -0.71578430357E-01  0.34907249427E-01  0.87660522785E-01  0.51100000000E-03 0.  1.
</event>
<event>
 8    1  0.1117714E+005  0.1043930E+01  0.7957747E-01            NaN
         13   -1    0    0    0    0  0.00000000000E+00  0.00000000000E+00  0.74505805969E-08  0.10566000000E+00  0.10566000000E+00 0. -1.
     999900   -1    0    0    0    0 -0.00000000000E+00 -0.00000000000E+00 -0.74505805969E-08  0.93827000000E+00  0.93827000000E+00 0. -1.
     999902    2    1    2    0    0 -0.64882225137E-02 -0.11276998459E-01  0.32773624928E-01  0.10086684315E+01  0.10080518967E+01 0.  0.
     999903    2    3    3    0    0  0.11739181327E+00 -0.13110513768E-02 -0.74822145425E-03  0.11930388440E+00  0.21220280838E-01 0.  0.
         14    1    1    2    0    0  0.64882225137E-02  0.11276998459E-01 -0.32773624928E-01  0.35261568549E-01  0.00000000000E+00 0.  1.
     999901    1    3    3    0    0 -0.12388003578E+00 -0.99659470827E-02  0.33521846382E-01  0.88936454705E+00  0.88000000000E+00 0.  1.
        -11    1    4    4    0    0  0.42428978075E-01  0.93950407710E-02  0.22655822869E-02  0.43518719601E-01  0.51100000000E-03 0. -1.
         11    1    4    4    0    0  0.74962835195E-01 -0.10706092148E-01 -0.30138037411E-02  0.75785164799E-01  0.51100000000E-03 0.  1.
</event>
<event>
 8    1  0.1117714E+005  0.1043930E+01  0.7957747E-01            NaN
         13   -1    0    0    0    0  0.00000000000E+00  0.00000000000E+00  0.74505805969E-08  0.10566000000E+00  0.10566000000E+00 0.  1.
     999900   -1    0    0    0    0 -0.00000000000E+00 -0.00000000000E+00 -0.74505805969E-08  0.93827000000E+00  0.93827000000E+00 0.  1.
     999902    2    1    2    0    0  0.58654483690E-02  0.25360287337E-02 -0.22825150780E-01  0.10202272062E+01  0.10199518272E+01 0.  0.
     999903    2    3    3    0    0  0.91023901479E-01 -0.63592786437E-01  0.62971404691E-01  0.12950500973E+00  0.21834756917E-01 0.  0.
         14    1    1    2    0    0 -0.58654483690E-02 -0.25360287337E-02  0.22825150780E-01  0.23702793811E-01  0.00000000000E+00 0.  1.
     999901    1    3    3    0    0 -0.85158453110E-01  0.66128815170E-01 -0.85796555471E-01  0.89072219646E+00  0.88000000000E+00 0.  1.
        -11    1    4    4    0    0  0.17365866076E-01 -0.73815814094E-02  0.29501206950E-02  0.19105637435E-01  0.51100000000E-03 0.  1.
         11    1    4    4    0    0  0.73658035403E-01 -0.56211205027E-01  0.60021283996E-01  0.11039937230E+00  0.51100000000E-03 0. -1.
</event>
<event>
 8    1  0.1117714E+005  0.1043930E+01  0.7957747E-01            NaN
         13   -1    0    0    0    0  0.00000000000E+00  0.00000000000E+00  0.74505805969E-08  0.10566000000E+00  0.10566000000E+00 0. -1.
     999900   -1    0    0    0    0 -0.00000000000E+00 -0.00000000000E+00 -0.74505805969E-08  0.93827000000E+00  0.93827000000E+00 0. -1.
     999902    2    1    2    0    0  0.11485406260E-01 -0.24423071177E-02  0.20409150728E-01  0.10203840268E+01  0.10201123219E+01 0.  0.
     999903    2    3    3    0    0 -0.11669255208E+00 -0.52933256586E-01  0.32989283657E-02  0.12950149542E+00  0.18457329855E-01 0.  0.
         14    1    1    2    0    0 -0.11485406260E-01  0.24423071177E-02 -0.20409150728E-01  0.23545973212E-01  0.00000000000E+00 0.  1.
     999901    1    3    3    0    0  0.12817795834E+00  0.50490949468E-01  0.17110222363E-01  0.89088253136E+00  0.88000000000E+00 0. -1.
        -11    1    4    4    0    0 -0.72507807581E-01 -0.23401037917E-01 -0.79214722897E-03  0.76196321132E-01  0.51100000000E-03 0.  1.
         11    1    4    4    0    0 -0.44184744496E-01 -0.29532218669E-01  0.40910755947E-02  0.53305174292E-01  0.51100000000E-03 0. -1.
</event>
<event>
 8    1  0.1117714E+005  0.1043930E+01  0.7957747E-01            NaN
         13   -1    0    0    0    0  0.00000000000E+00  0.00000000000E+00  0.74505805969E-08  0.10566000000E+00  0.10566000000E+00 0. -1.
     999900   -1    0    0    0    0 -0.00000000000E+00 -0.00000000000E+00 -0.74505805969E-08  0.93827000000E+00  0.93827000000E+00 0.  1.
     999902    2    1    2    0    0 -0.22967676170E-01 -0.11590961289E-01 -0.98748514127E-03  0.10181843274E+01  0.10178587745E+01 0.  0.
     999903    2    3    3    0    0 -0.56772534916E-01 -0.11660605364E+00 -0.81872667646E-02  0.13126675795E+00  0.18542867585E-01 0.  0.
         14    1    1    2    0    0  0.22967676170E-01  0.11590961289E-01  0.98748514127E-03  0.25745672629E-01  0.00000000000E+00 0. -1.
     999901    1    3    3    0    0  0.33804858746E-01  0.10501509235E+00  0.71997816234E-02  0.88691756942E+00  0.88000000000E+00 0. -1.
        -11    1    4    4    0    0 -0.24812012057E-01 -0.70109532323E-01 -0.83758274941E-02  0.74842488414E-01  0.51100000000E-03 0. -1.
         11    1    4    4    0    0 -0.31960522859E-01 -0.46496521318E-01  0.18856072946E-03  0.56424269533E-01  0.51100000000E-03 0.  1.
</event>
<event>
 8    1  0.1117714E+005  0.1043930E+01  0.7957747E-01            NaN
         13   -1    0    0    0    0  0.00000000000E+00  0.00000000000E+00  0.74505805969E-08  0.10566000000E+00  0.10566000000E+00 0. -1.
     999900   -1    0    0    0    0 -0.00000000000E+00 -0.00000000000E+00 -0.74505805969E-08  0.93827000000E+00  0.93827000000E+00 0.  1.
     999902    2    1    2    0    0  0.18627783257E-01  0.85123288202E-02 -0.10029333837E-01  0.10211255796E+01  0.10208709065E+01 0.  0.
     999903    2    3    3    0    0 -0.88345521950E-01 -0.89736510071E-01 -0.21366114971E-01  0.12914763990E+00  0.19105746096E-01 0.  0.
         14    1    1    2    0    0 -0.18627783257E-01 -0.85123288202E-02  0.10029333837E-01  0.22804420366E-01  0.00000000000E+00 0.  1.
     999901    1    3    3    0    0  0.10697330521E+00  0.98248838891E-01  0.11336781134E-01  0.89197793974E+00  0.88000000000E+00 0.  1.
        -11    1    4    4    0    0 -0.63896168757E-01 -0.74465337448E-01 -0.20841116295E-01  0.10031161504E+00  0.51100000000E-03 0.  1.
         11    1    4    4    0    0 -0.24449353192E-01 -0.15271172623E-01 -0.52499867529E-03  0.28836024855E-01  0.51100000000E-03 0. -1.
</event>
<event>
 8    1  0.1117714E+005  0.1043930E+01  0.7957747E-01            NaN
         13   -1    0    0    0    0  0.00000000000E+00  0.00000000000E+00  0.74505805969E-08  0.10566000000E+00  0.10566000000E+00 0. -1.
     999900   -1    0    0    0    0 -0.00000000000E+00 -0.00000000000E+00 -0.74505805969E-08  0.93827000000E+00  0.93827000000E+00 0. -1.
     999902    2    1    2    0    0  0.47793918915E-02  0.15829166934E-01  0.16512524449E-01  0.10205618898E+01  0.10202943214E+01 0.  0.
     999903    2    3    3    0    0  0.84557783084E-01 -0.95901086168E-01  0.10335695683E-01  0.12989562545E+00  0.20469731253E-01 0.  0.
         14    1    1    2    0    0 -0.47793918915E-02 -0.15829166934E-01 -0.16512524449E-01  0.23368110244E-01  0.00000000000E+00 0.  1.
     999901    1    3    3    0    0 -0.79778391193E-01  0.11173025310E+00  0.61768287660E-02  0.89066626431E+00  0.88000000000E+00 0.  1.
        -11    1    4    4    0    0  0.10321311398E-01 -0.14397554990E-01  0.84499240887E-02  0.19633680163E-01  0.51100000000E-03 0.  1.
         11    1    4    4    0    0  0.74236471686E-01 -0.81503531178E-01  0.18857715945E-02  0.11026194529E+00  0.51100000000E-03 0. -1.
</event>
<event>
 8    1  0.1117714E+005  0.1043930E+01  0.7957747E-01            NaN
         13   -1    0    0    0    0  0.00000000000E+00  0.00000000000E+00  0.74505805969E-08  0.10566000000E+00  0.10566000000E+00 0. -1.
     999900   -1    0    0    0    0 -0.00000000000E+00 -0.00000000000E+00 -0.74505805969E-08  0.93827000000E+00  0.93827000000E+00 0.  1.
     999902    2    1    2    0    0 -0.75332513406E-02  0.47909535674E-02 -0.23138348167E-01  0.10191290672E+01  0.10188272520E+01 0.  0.
     999903    2    3    3    0    0  0.89832477364E-01  0.45822041232E-01  0.74759503718E-01  0.12741856222E+00  0.21839714998E-01 0.  0.
         14    1    1    2    0    0  0.75332513406E-02 -0.47909535674E-02  0.23138348167E-01  0.24800932800E-01  0.00000000000E+00 0. -1.
     999901    1    3    3    0    0 -0.97365728704E-01 -0.41031087665E-01 -0.97897851885E-01  0.89171050498E+00  0.88000000000E+00 0.  1.
        -11    1    4    4    0    0  0.53091932051E-01  0.17044143456E-01  0.48269934488E-01  0.73752991611E-01  0.51100000000E-03 0. -1.
         11    1    4    4    0    0  0.36740545312E-01  0.28777897777E-01  0.26489569230E-01  0.53665570614E-01  0.51100000000E-03 0.  1.
</event>
<event>
 8    1  0.1117714E+005  0.1043930E+01  0.7957747E-01            NaN
         13   -1    0    0    0    0  0.00000000000E+00  0.00000000000E+00  0.74505805969E-08  0.10566000000E+00  0.10566000000E+00 0. -1.
     999900   -1    0    0    0    0 -0.00000000000E+00 -0.00000000000E+00 -0.74505805969E-08  0.93827000000E+00  0.93827000000E+00 0. -1.
     999902    2    1    2    0    0  0.25906847713E-01 -0.31593749369E-02 -0.13670903302E-01  0.10144674813E+01  0.10140395607E+01 0.  0.
     999903    2    3    3    0    0  0.49202511302E-02 -0.40969627209E-01 -0.11856380458E+00  0.12718366364E+00  0.20386007857E-01 0.  0.
         14    1    1    2    0    0 -0.25906847713E-01  0.31593749369E-02  0.13670903302E-01  0.29462518656E-01  0.00000000000E+00 0. -1.
     999901    1    3    3    0    0  0.20986596583E-01  0.37810252272E-01  0.10489290128E+00  0.88728381770E+00  0.88000000000E+00 0.  1.
        -11    1    4    4    0    0  0.65130508406E-02 -0.77262386039E-02 -0.12861261275E-01  0.16364221852E-01  0.51100000000E-03 0. -1.
         11    1    4    4    0    0 -0.15927997104E-02 -0.33243388605E-01 -0.10570254331E+00  0.11081944179E+00  0.51100000000E-03 0.  1.
</event>
<event>
 7    1  0.1117714E+005  0.1043930E+01  0.7957747E-01            NaN
         13   -1    0    0    0    0  0.00000000000E+00  0.00000000000E+00  0.74505805969E-08  0.10566000000E+00  0.10566000000E+00 0.  1.
     999900   -1    0    0    0    0 -0.00000000000E+00 -0.00000000000E+00 -0.74505805969E-08  0.93827000000E+00  0.93827000000E+00 0.  1.
     999903    2    1    2    0    0 -0.66415470280E-01  0.86075942235E-01 -0.14847751237E-01  0.11165372207E+00  0.20640140752E-01 0.  0.
         14    1    1    2    0    0 -0.71726586283E-02  0.38451698792E-01  0.10331404313E-01  0.40456372636E-01  0.00000000000E+00 0.  1.
     999901    1    1    2    0    0  0.73588128908E-01 -0.12452764103E+00  0.45163469239E-02  0.89181990530E+00  0.88000000000E+00 0.  1.
        -11    1    3    3    0    0 -0.32805074364E-01  0.48018052723E-01  0.18955124665E-02  0.58187287098E-01  0.51100000000E-03 0.  1.
         11    1    3    3    0    0 -0.33610395916E-01  0.38057889512E-01 -0.16743263704E-01  0.53466434968E-01  0.51100000000E-03 0. -1.
</event>
<event>
 8    1  0.1117714E+005  0.1043930E+01  0.7957747E-01            NaN
         13   -1    0    0    0    0  0.00000000000E+00  0.00000000000E+00  0.74505805969E-08  0.10566000000E+00  0.10566000000E+00 0.  1.
     999900   -1    0    0    0    0 -0.00000000000E+00 -0.00000000000E+00 -0.74505805969E-08  0.93827000000E+00  0.93827000000E+00 0.  1.
     999902    2    1    2    0    0 -0.22688322813E-01 -0.10590252101E-01  0.62287969568E-03  0.10188840141E+01  0.10185761301E+01 0.  0.
     999903    2    3    3    0    0 -0.16103703396E-01  0.45563271373E-01  0.11815577305E+00  0.12927142625E+00  0.20370910065E-01 0.  0.
         14    1    1    2    0    0  0.22688322813E-01  0.10590252101E-01 -0.62287969568E-03  0.25045985921E-01  0.00000000000E+00 0.  1.
     999901    1    3    3    0    0 -0.65846194176E-02 -0.56153523475E-01 -0.11753289336E+00  0.88961258783E+00  0.88000000000E+00 0.  1.
        -11    1    4    4    0    0 -0.11569269701E-02  0.27683629110E-01  0.49011029865E-01  0.56303321129E-01  0.51100000000E-03 0.  1.
         11    1    4    4    0    0 -0.14946776426E-01  0.17879642263E-01  0.69144743186E-01  0.72968105116E-01  0.51100000000E-03 0. -1.
</event>
<event>
 8    1  0.1117714E+005  0.1043930E+01  0.7957747E-01            NaN
         13   -1    0    0    0    0  0.00000000000E+00  0.00000000000E+00  0.74505805969E-08  0.10566000000E+00  0.10566000000E+00 0. -1.
     999900   -1    0    0    0    0 -0.00000000000E+00 -0.00000000000E+00 -0.74505805969E-08  0.93827000000E+00  0.93827000000E+00 0. -1.
     999902    2    1    2    0    0 -0.13933576854E-01  0.58206175220E-02 -0.17325618713E-01  0.10209473714E+01  0.10206886567E+01 0.  0.
     999903    2    3    3    0    0 -0.11589785174E+00 -0.28070420099E-01 -0.56505927642E-01  0.13354644040E+00  0.20529767717E-01 0.  0.
         14    1    1    2    0    0  0.13933576854E-01 -0.58206175220E-02  0.17325618713E-01  0.22982628572E-01  0.00000000000E+00 0.  1.
     999901    1    3    3    0    0  0.10196427488E+00  0.33891037621E-01  0.39180308929E-01  0.88740093103E+00  0.88000000000E+00 0. -1.
        -11    1    4    4    0    0 -0.59152492467E-01 -0.24102209615E-01 -0.25682018125E-01  0.68845922533E-01  0.51100000000E-03 0.  1.
         11    1    4    4    0    0 -0.56745359271E-01 -0.39682104836E-02 -0.30823909517E-01  0.64700517866E-01  0.51100000000E-03 0. -1.
</event>
<event>
 8    1  0.1117714E+005  0.1043930E+01  0.7957747E-01            NaN
         13   -1    0    0    0    0  0.00000000000E+00  0.00000000000E+00  0.74505805969E-08  0.10566000000E+00  0.10566000000E+00 0. -1.
     999900   -1    0    0    0    0 -0.00000000000E+00 -0.00000000000E+00 -0.74505805969E-08  0.93827000000E+00  0.93827000000E+00 0. -1.
     999902    2    1    2    0    0  0.14407636136E-01  0.17053230636E-01 -0.52732518292E-02  0.10209909538E+01  0.10207332306E+01 0.  0.
     999903    2    3    3    0    0  0.77215715162E-01 -0.90580995641E-01 -0.50754309061E-01  0.13104797363E+00  0.20745796291E-01 0.  0.
         14    1    1    2    0    0 -0.14407636136E-01 -0.17053230636E-01  0.52732518292E-02  0.22939046165E-01  0.00000000000E+00 0. -1.
     999901    1    3    3    0    0 -0.62808079026E-01  0.10763422628E+00  0.45481057232E-01  0.88994298021E+00  0.88000000000E+00 0. -1.
        -11    1    4    4    0    0  0.23589096325E-01 -0.34541180514E-01 -0.83798437548E-02  0.42661710222E-01  0.51100000000E-03 0.  1.
         11    1    4    4    0    0  0.53626618836E-01 -0.56039815127E-01 -0.42374465306E-01  0.88386263403E-01  0.51100000000E-03 0. -1.
</event>
<event>
 8    1  0.1117714E+005  0.1043930E+01  0.7957747E-01            NaN
         13   -1    0    0    0    0  0.00000000000E+00  0.00000000000E+00  0.74505805969E-08  0.10566000000E+00  0.10566000000E+00 0.  1.
     999900   -1    0    0    0    0 -0.00000000000E+00 -0.00000000000E+00 -0.74505805969E-08  0.93827000000E+00  0.93827000000E+00 0.  1.
     999902    2    1    2    0    0 -0.21983382740E-01 -0.23084444612E-02 -0.68081495019E-02  0.10208010369E+01  0.10205389792E+01 0.  0.
     999903    2    3    3    0    0  0.89639559833E-01 -0.30900065572E-01 -0.86060992437E-01  0.12975772979E+00  0.20988312975E-01 0.  0.
         14    1    1    2    0    0  0.21983382740E-01  0.23084444612E-02  0.68081495019E-02  0.23128963059E-01  0.00000000000E+00 0. -1.
     999901    1    3    3    0    0 -0.11162294257E+00  0.28591621111E-01  0.79252842935E-01  0.89104330715E+00  0.88000000000E+00 0. -1.
        -11    1    4    4    0    0  0.63972788170E-01 -0.28000196484E-01 -0.52306999675E-01  0.87251429590E-01  0.51100000000E-03 0. -1.
         11    1    4    4    0    0  0.25666771662E-01 -0.28998690876E-02 -0.33753992762E-01  0.42506300200E-01  0.51100000000E-03 0.  1.
</event>
<event>
 8    1  0.1117714E+005  0.1043930E+01  0.7957747E-01            NaN
         13   -1    0    0    0    0  0.00000000000E+00  0.00000000000E+00  0.74505805969E-08  0.10566000000E+00  0.10566000000E+00 0. -1.
     999900   -1    0    0    0    0 -0.00000000000E+00 -0.00000000000E+00 -0.74505805969E-08  0.93827000000E+00  0.93827000000E+00 0.  1.
     999902    2    1    2    0    0  0.19975879060E-01 -0.19817702395E-01 -0.61042874475E-03  0.10157848460E+01  0.10153948511E+01 0.  0.
     999903    2    3    3    0    0  0.12134471772E+00  0.24603096377E-01  0.24637935598E-01  0.12849327680E+00  0.23950812971E-01 0.  0.
         14    1    1    2    0    0 -0.19975879060E-01  0.19817702395E-01  0.61042874475E-03  0.28145154035E-01  0.00000000000E+00 0. -1.
     999901    1    3    3    0    0 -0.10136883866E+00 -0.44420798772E-01 -0.25248364343E-01  0.88729156917E+00  0.88000000000E+00 0. -1.
        -11    1    4    4    0    0  0.83177912629E-01  0.11780388713E-01  0.26766568283E-01  0.88170590370E-01  0.51100000000E-03 0.  1.
         11    1    4    4    0    0  0.38166805089E-01  0.12822707664E-01 -0.21286326847E-02  0.40322686427E-01  0.51100000000E-03 0. -1.
</event>
<event>
 8    1  0.1117714E+005  0.1043930E+01  0.7957747E-01            NaN
         13   -1    0    0    0    0  0.00000000000E+00  0.00000000000E+00  0.74505805969E-08  0.10566000000E+00  0.10566000000E+00 0.  1.
     999900   -1    0    0    0    0 -0.00000000000E+00 -0.00000000000E+00 -0.74505805969E-08  0.93827000000E+00  0.93827000000E+00 0.  1.
     999902    2    1    2    0    0 -0.13930227886E-03  0.70236614759E-02 -0.22813866707E-01  0.10200590189E+01  0.10197796714E+01 0.  0.
     999903    2    3    3    0    0 -0.11834030746E-01  0.12741440489E+00 -0.23106011745E-01  0.13178497157E+00  0.21422327038E-01 0.  0.
         14    1    1    2    0    0  0.13930227886E-03 -0.70236614759E-02  0.22813866707E-01  0.23870981123E-01  0.00000000000E+00 0.  1.
     999901    1    3    3    0    0  0.11694728467E-01 -0.12039074341E+00  0.29214503870E-03  0.88827404731E+00  0.88000000000E+00 0. -1.
        -11    1    4    4    0    0  0.60374883232E-02  0.45192363051E-01 -0.76653955748E-02  0.46236569441E-01  0.51100000000E-03 0.  1.
         11    1    4    4    0    0 -0.17871519069E-01  0.82222041838E-01 -0.15440616171E-01  0.85548402127E-01  0.51100000000E-03 0. -1.
</event>
<event>
 8    1  0.1117714E+005  0.1043930E+01  0.7957747E-01            NaN
         13   -1    0    0    0    0  0.00000000000E+00  0.00000000000E+00  0.74505805969E-08  0.10566000000E+00  0.10566000000E+00 0.  1.
     999900   -1    0    0    0    0 -0.00000000000E+00 -0.00000000000E+00 -0.74505805969E-08  0.93827000000E+00  0.93827000000E+00 0.  1.
     999902    2    1    2    0    0 -0.15532208671E-01 -0.13533009937E-01  0.10614281625E-01  0.10207555563E+01  0.10204924551E+01 0.  0.
     999903    2    3    3    0    0 -0.12062519476E+00  0.44372830962E-01  0.25154212425E-01  0.13249375275E+00  0.20061764061E-01 0.  0.
         14    1    1    2    0    0  0.15532208671E-01  0.13533009937E-01 -0.10614281625E-01  0.23174443652E-01  0.00000000000E+00 0. -1.
     999901    1    3    3    0    0  0.10509298609E+00 -0.57905840899E-01 -0.14539930800E-01  0.88826180359E+00  0.88000000000E+00 0. -1.
        -11    1    4    4    0    0 -0.37665798225E-01  0.56975913962E-02  0.23908326975E-02  0.38172661758E-01  0.51100000000E-03 0. -1.
         11    1    4    4    0    0 -0.82959396537E-01  0.38675239566E-01  0.22763379727E-01  0.94321090997E-01  0.51100000000E-03 0.  1.
</event>
<event>
 8    1  0.1117714E+005  0.1043930E+01  0.7957747E-01            NaN
         13   -1    0    0    0    0  0.00000000000E+00  0.00000000000E+00  0.74505805969E-08  0.10566000000E+00  0.10566000000E+00 0.  1.
     999900   -1    0    0    0    0 -0.00000000000E+00 -0.00000000000E+00 -0.74505805969E-08  0.93827000000E+00  0.93827000000E+00 0. -1.
     999902    2    1    2    0    0 -0.18390504226E-01  0.13742235505E-01 -0.21232171270E-02  0.10208742473E+01  0.10206138648E+01 0.  0.
     999903    2    3    3    0    0 -0.87403173152E-01 -0.44618520241E-01  0.85623482243E-01  0.13190393871E+00  0.20907924550E-01 0.  0.
         14    1    1    2    0    0  0.18390504226E-01 -0.13742235505E-01  0.21232171270E-02  0.23055752716E-01  0.00000000000E+00 0.  1.
     999901    1    3    3    0    0  0.69012668926E-01  0.58360755746E-01 -0.87746699370E-01  0.88897030858E+00  0.88000000000E+00 0.  1.
        -11    1    4    4    0    0 -0.53779163489E-01 -0.24332135745E-01  0.64021195949E-01  0.87081719708E-01  0.51100000000E-03 0. -1.
         11    1    4    4    0    0 -0.33624009663E-01 -0.20286384496E-01  0.21602286294E-01  0.44822218997E-01  0.51100000000E-03 0.  1.
</event>
<event>
 8    1  0.1117714E+005  0.1043930E+01  0.7957747E-01            NaN
         13   -1    0    0    0    0  0.00000000000E+00  0.00000000000E+00  0.74505805969E-08  0.10566000000E+00  0.10566000000E+00 0. -1.
     999900   -1    0    0    0    0 -0.00000000000E+00 -0.00000000000E+00 -0.74505805969E-08  0.93827000000E+00  0.93827000000E+00 0.  1.
     999902    2    1    2    0    0  0.12293117566E-01  0.19585015058E-01 -0.60046112562E-02  0.10200396482E+01  0.10197598418E+01 0.  0.
     999903    2    3    3    0    0  0.72980204151E-01  0.10460328618E+00 -0.33706132702E-01  0.13342902157E+00  0.19981059494E-01 0.  0.
         14    1    1    2    0    0 -0.12293117566E-01 -0.19585015058E-01  0.60046112562E-02  0.23890351832E-01  0.00000000000E+00 0.  1.
     999901    1    3    3    0    0 -0.60687086584E-01 -0.85018271122E-01  0.27701521446E-01  0.88661062660E+00  0.88000000000E+00 0.  1.
        -11    1    4    4    0    0  0.23415745005E-01  0.40715013805E-01 -0.21475853324E-01  0.51647680106E-01  0.51100000000E-03 0. -1.
         11    1    4    4    0    0  0.49564459145E-01  0.63888272374E-01 -0.12230279378E-01  0.81781341466E-01  0.51100000000E-03 0.  1.
</event>
<event>
 8    1  0.1117714E+005  0.1043930E+01  0.7957747E-01            NaN
         13   -1    0    0    0    0  0.00000000000E+00  0.00000000000E+00  0.74505805969E-08  0.10566000000E+00  0.10566000000E+00 0.  1.
     999900   -1    0    0    0    0 -0.00000000000E+00 -0.00000000000E+00 -0.74505805969E-08  0.93827000000E+00  0.93827000000E+00 0.  1.
     999902    2    1    2    0    0  0.19946382649E-01 -0.11485447318E-01  0.41978005337E-02  0.10205335214E+01  0.10202652955E+01 0.  0.
     999903    2    3    3    0    0 -0.22567597658E-02  0.12774319089E+00  0.55635236276E-03  0.12930355481E+00  0.19891806737E-01 0.  0.
         14    1    1    2    0    0 -0.19946382649E-01  0.11485447318E-01 -0.41978005337E-02  0.23396478586E-01  0.00000000000E+00 0. -1.
     999901    1    3    3    0    0  0.22203142415E-01 -0.13922863821E+00  0.36414481709E-02  0.89122996661E+00  0.88000000000E+00 0.  1.
        -11    1    4    4    0    0  0.62130959124E-02  0.43387006247E-01  0.65077645962E-02  0.44313056687E-01  0.51100000000E-03 0.  1.
         11    1    4    4    0    0 -0.84698556782E-02  0.84356184641E-01 -0.59514122334E-02  0.84990498122E-01  0.51100000000E-03 0. -1.
</event>
<event>
 8    1  0.1117714E+005  0.1043930E+01  0.7957747E-01            NaN
         13   -1    0    0    0    0  0.00000000000E+00  0.00000000000E+00  0.74505805969E-08  0.10566000000E+00  0.10566000000E+00 0.  1.
     999900   -1    0    0    0    0 -0.00000000000E+00 -0.00000000000E+00 -0.74505805969E-08  0.93827000000E+00  0.93827000000E+00 0.  1.
     999902    2    1    2    0    0  0.13939637164E-02  0.13399346952E-01  0.18378105206E-01  0.10211431533E+01  0.10208888769E+01 0.  0.
     999903    2    3    3    0    0  0.57083674249E-01  0.43534927483E-01 -0.10653465665E+00  0.13006925332E+00  0.20360299967E-01 0.  0.
         14    1    1    2    0    0 -0.13939637164E-02 -0.13399346952E-01 -0.18378105206E-01  0.22786846744E-01  0.00000000000E+00 0. -1.
     999901    1    3    3    0    0 -0.55689710533E-01 -0.30135580530E-01  0.12491276186E+00  0.89107389994E+00  0.88000000000E+00 0. -1.
        -11    1    4    4    0    0  0.38080921876E-01  0.33405049036E-01 -0.58244848626E-01  0.77193117727E-01  0.51100000000E-03 0. -1.
         11    1    4    4    0    0  0.19002752373E-01  0.10129878447E-01 -0.48289808025E-01  0.52876135592E-01  0.51100000000E-03 0.  1.
</event>
<event>
 8    1  0.1117714E+005  0.1043930E+01  0.7957747E-01            NaN
         13   -1    0    0    0    0  0.00000000000E+00  0.00000000000E+00  0.74505805969E-08  0.10566000000E+00  0.10566000000E+00 0.  1.
     999900   -1    0    0    0    0 -0.00000000000E+00 -0.00000000000E+00 -0.74505805969E-08  0.93827000000E+00  0.93827000000E+00 0. -1.
     999902    2    1    2    0    0  0.10281144508E-01 -0.96398881189E-02 -0.19864394296E-01  0.10195738193E+01  0.10192828604E+01 0.  0.
     999903    2    3    3    0    0 -0.71876570328E-01 -0.13530008428E-01 -0.10741787617E+00  0.13141244024E+00  0.19527591726E-01 0.  0.
         14    1    1    2    0    0 -0.10281144508E-01  0.96398881189E-02  0.19864394296E-01  0.24356180655E-01  0.00000000000E+00 0.  1.
     999901    1    3    3    0    0  0.82157714836E-01  0.38901203091E-02  0.87553481877E-01  0.88816137910E+00  0.88000000000E+00 0. -1.
        -11    1    4    4    0    0 -0.53991953570E-01 -0.81360830427E-02 -0.92857589822E-01  0.10772242109E+00  0.51100000000E-03 0.  1.
         11    1    4    4    0    0 -0.17884616758E-01 -0.53939253853E-02 -0.14560286350E-01  0.23690019148E-01  0.51100000000E-03 0. -1.
</event>
<event>
 8    1  0.1117714E+005  0.1043930E+01  0.7957747E-01            NaN
         13   -1    0    0    0    0  0.00000000000E+00  0.00000000000E+00  0.74505805969E-08  0.10566000000E+00  0.10566000000E+00 0.  1.
     999900   -1    0    0    0    0 -0.00000000000E+00 -0.00000000000E+00 -0.74505805969E-08  0.93827000000E+00  0.93827000000E+00 0. -1.
     999902    2    1    2    0    0 -0.22390589317E-02 -0.57190098441E-03 -0.24998478616E-01  0.10188249330E+01  0.10185155766E+01 0.  0.
     999903    2    3    3    0    0  0.11647005158E-01  0.15342734366E-02  0.12407747092E+00  0.12617668343E+00  0.19680699375E-01 0.  0.
         14    1    1    2    0    0  0.22390589317E-02  0.57190098441E-03  0.24998478616E-01  0.25105066993E-01  0.00000000000E+00 0.  1.
     999901    1    3    3    0    0 -0.13886064090E-01 -0.21061744210E-02 -0.14907594953E+00  0.89264824958E+00  0.88000000000E+00 0. -1.
        -11    1    4    4    0    0 -0.29742167423E-02 -0.57068201533E-02  0.29194865303E-01  0.29900084324E-01  0.51100000000E-03 0.  1.
         11    1    4    4    0    0  0.14621221900E-01  0.72410935899E-02  0.94882605613E-01  0.96276599105E-01  0.51100000000E-03 0. -1.
</event>
<event>
 8    1  0.1117714E+005  0.1043930E+01  0.7957747E-01            NaN
         13   -1    0    0    0    0  0.00000000000E+00  0.00000000000E+00  0.74505805969E-08  0.10566000000E+00  0.10566000000E+00 0. -1.
     999900   -1    0    0    0    0 -0.00000000000E+00 -0.00000000000E+00 -0.74505805969E-08  0.93827000000E+00  0.93827000000E+00 0.  1.
     999902    2    1    2    0    0  0.16568725926E-01 -0.29898243338E-02 -0.21783755459E-01  0.10163983141E+01  0.10160253634E+01 0.  0.
     999903    2    3    3    0    0  0.10516228169E+00 -0.70840897953E-01  0.11440797702E-01  0.12872919934E+00  0.19046695200E-01 0.  0.
         14    1    1    2    0    0 -0.16568725926E-01  0.29898243338E-02  0.21783755459E-01  0.27531685932E-01  0.00000000000E+00 0. -1.
     999901    1    3    3    0    0 -0.88593555760E-01  0.67851073619E-01 -0.33224553161E-01  0.88766911473E+00  0.88000000000E+00 0.  1.
        -11    1    4    4    0    0  0.31440965147E-02 -0.35652051270E-02 -0.30460314419E-02  0.56688146059E-02  0.51100000000E-03 0.  1.
         11    1    4    4    0    0  0.10201818517E+00 -0.67275692826E-01  0.14486829144E-01  0.12306038473E+00  0.51100000000E-03 0. -1.
</event>
<event>
 8    1  0.1117714E+005  0.1043930E+01  0.7957747E-01            NaN
         13   -1    0    0    0    0  0.00000000000E+00  0.00000000000E+00  0.74505805969E-08  0.10566000000E+00  0.10566000000E+00 0. -1.
     999900   -1    0    0    0    0 -0.00000000000E+00 -0.00000000000E+00 -0.74505805969E-08  0.93827000000E+00  0.93827000000E+00 0. -1.
     999902    2    1    2    0    0  0.39585345153E-02  0.21512138176E-01  0.96859688011E-02  0.10200080420E+01  0.10197274860E+01 0.  0.
     999903    2    3    3    0    0  0.80277952804E-01  0.82401059836E-01  0.63593829089E-01  0.13296905084E+00  0.20052656024E-01 0.  0.
         14    1    1    2    0    0 -0.39585345153E-02 -0.21512138176E-01 -0.96859688011E-02  0.23921958031E-01  0.00000000000E+00 0. -1.
     999901    1    3    3    0    0 -0.76319418289E-01 -0.60888921661E-01 -0.53907860288E-01  0.88703899113E+00  0.88000000000E+00 0. -1.
        -11    1    4    4    0    0  0.12332995481E-01  0.19766318725E-01  0.20356400123E-01  0.30942758126E-01  0.51100000000E-03 0.  1.
         11    1    4    4    0    0  0.67944957323E-01  0.62634741111E-01  0.43237428966E-01  0.10202629271E+00  0.51100000000E-03 0. -1.
</event>
<event>
 8    1  0.1117714E+005  0.1043930E+01  0.7957747E-01            NaN
         13   -1    0    0    0    0  0.00000000000E+00  0.00000000000E+00  0.74505805969E-08  0.10566000000E+00  0.10566000000E+00 0. -1.
     999900   -1    0    0    0    0 -0.00000000000E+00 -0.00000000000E+00 -0.74505805969E-08  0.93827000000E+00  0.93827000000E+00 0.  1.
     999902    2    1    2    0    0  0.19488925325E-01  0.11576675119E-01  0.91687077495E-02  0.10194779486E+01  0.10191846667E+01 0.  0.
     999903    2    3    3    0    0  0.44843004325E-01  0.12138315964E+00  0.18822207918E-01  0.13223870044E+00  0.19698525353E-01 0.  0.
         14    1    1    2    0    0 -0.19488925325E-01 -0.11576675119E-01 -0.91687077495E-02  0.24452051426E-01  0.00000000000E+00 0.  1.
     999901    1    3    3    0    0 -0.25354079000E-01 -0.10980648452E+00 -0.96535001688E-02  0.88723924813E+00  0.88000000000E+00 0.  1.
        -11    1    4    4    0    0  0.12574663329E-01  0.58415437308E-01  0.13641762551E-01  0.61293101408E-01  0.51100000000E-03 0.  1.
         11    1    4    4    0    0  0.32268340995E-01  0.62967722336E-01  0.51804453676E-02  0.70945599031E-01  0.51100000000E-03 0. -1.
</event>
<event>
 8    1  0.1117714E+005  0.1043930E+01  0.7957747E-01            NaN
         13   -1    0    0    0    0  0.00000000000E+00  0.00000000000E+00  0.74505805969E-08  0.10566000000E+00  0.10566000000E+00 0.  1.
     999900   -1    0    0    0    0 -0.00000000000E+00 -0.00000000000E+00 -0.74505805969E-08  0.93827000000E+00  0.93827000000E+00 0.  1.
     999902    2    1    2    0    0 -0.11734202230E-01 -0.19497073623E-01 -0.53514959115E-02  0.10205533901E+01  0.10202856248E+01 0.  0.
     999903    2    3    3    0    0 -0.95626032226E-01 -0.89303181574E-01 -0.18347076244E-01  0.13371652971E+00  0.20593659988E-01 0.  0.
         14    1    1    2    0    0  0.11734202230E-01  0.19497073623E-01  0.53514959115E-02  0.23376609898E-01  0.00000000000E+00 0. -1.
     999901    1    3    3    0    0  0.83891829996E-01  0.69806107952E-01  0.12995580332E-01  0.88683686040E+00  0.88000000000E+00 0. -1.
        -11    1    4    4    0    0 -0.38647374694E-01 -0.41316851252E-01  0.15911250732E-02  0.56599421976E-01  0.51100000000E-03 0. -1.
         11    1    4    4    0    0 -0.56978657532E-01 -0.47986330323E-01 -0.19938201317E-01  0.77117107731E-01  0.51100000000E-03 0.  1.
</event>
<event>
 8    1  0.1117714E+005  0.1043930E+01  0.7957747E-01            NaN
         13   -1    0    0    0    0  0.00000000000E+00  0.00000000000E+00  0.74505805969E-08  0.10566000000E+00  0.10566000000E+00 0. -1.
     999900   -1    0    0    0    0 -0.00000000000E+00 -0.00000000000E+00 -0.74505805969E-08  0.93827000000E+00  0.93827000000E+00 0. -1.
     999902    2    1    2    0    0  0.18934600399E-01 -0.10381483586E-01 -0.81359599394E-03  0.10223208299E+01  0.10220924239E+01 0.  0.
     999903    2    3    3    0    0 -0.55646516346E-01 -0.10597569210E+00 -0.53120628396E-01  0.13246880776E+00  0.19970021793E-01 0.  0.
         14    1    1    2    0    0 -0.18934600399E-01  0.10381483586E-01  0.81359599394E-03  0.21609170094E-01  0.00000000000E+00 0. -1.
     999901    1    3    3    0    0  0.74581116745E-01  0.95594208516E-01  0.52307032402E-01  0.88985202215E+00  0.88000000000E+00 0.  1.
        -11    1    4    4    0    0 -0.22624782205E-02 -0.18094026187E-01 -0.48496943221E-02  0.18875731705E-01  0.51100000000E-03 0.  1.
         11    1    4    4    0    0 -0.53384038125E-01 -0.87881665914E-01 -0.48270934074E-01  0.11359307606E+00  0.51100000000E-03 0. -1.
</event>
<event>
 8    1  0.1117714E+005  0.1043930E+01  0.7957747E-01            NaN
         13   -1    0    0    0    0  0.00000000000E+00  0.00000000000E+00  0.74505805969E-08  0.10566000000E+00  0.10566000000E+00 0. -1.
     999900   -1    0    0    0    0 -0.00000000000E+00 -0.00000000000E+00 -0.74505805969E-08  0.93827000000E+00  0.93827000000E+00 0.  1.
     999902    2    1    2    0    0 -0.13219032067E-01  0.18124852004E-01 -0.94037347897E-02  0.10196054590E+01  0.10193152646E+01 0.  0.
     999903    2    3    3    0    0 -0.55671684201E-02  0.12685552400E+00  0.30419468783E-01  0.13198684852E+00  0.19283847308E-01 0.  0.
         14    1    1    2    0    0  0.13219032067E-01 -0.18124852004E-01  0.94037347897E-02  0.24324541043E-01  0.00000000000E+00 0. -1.
     999901    1    3    3    0    0 -0.76518636472E-02 -0.10873067200E+00 -0.39823203573E-01  0.88761861044E+00  0.88000000000E+00 0.  1.
        -11    1    4    4    0    0 -0.12120364849E-01  0.57471354374E-01  0.14174769093E-01  0.60423877876E-01  0.51100000000E-03 0.  1.
         11    1    4    4    0    0  0.65531964284E-02  0.69384169628E-01  0.16244699690E-01  0.71562970645E-01  0.51100000000E-03 0. -1.
</event>
<event>
 8    1  0.1117714E+005  0.1043930E+01  0.7957747E-01            NaN
         13   -1    0    0    0    0  0.00000000000E+00  0.00000000000E+00  0.74505805969E-08  0.10566000000E+00  0.10566000000E+00 0. -1.
     999900   -1    0    0    0    0 -0.00000000000E+00 -0.00000000000E+00 -0.74505805969E-08  0.93827000000E+00  0.93827000000E+00 0. -1.
     999902    2    1    2    0    0  0.23949783241E-01  0.58772606188E-04  0.22645189244E-02  0.10198733249E+01  0.10195895621E+01 0.  0.
     999903    2    3    3    0    0  0.69892724286E-01  0.17728089969E-02  0.11014049458E+00  0.13209468250E+00  0.20735014837E-01 0.  0.
         14    1    1    2    0    0 -0.23949783241E-01 -0.58772606188E-04 -0.22645189244E-02  0.24056675112E-01  0.00000000000E+00 0. -1.
     999901    1    3    3    0    0 -0.45942941046E-01 -0.17140363907E-02 -0.10787597565E+00  0.88777864239E+00  0.88000000000E+00 0. -1.
        -11    1    4    4    0    0  0.20549539777E-01 -0.88988000562E-02  0.35868626266E-01  0.42288198102E-01  0.51100000000E-03 0. -1.
         11    1    4    4    0    0  0.49343184509E-01  0.10671609053E-01  0.74271868309E-01  0.89806484401E-01  0.51100000000E-03 0.  1.
</event>
<event>
 8    1  0.1117714E+005  0.1043930E+01  0.7957747E-01            NaN
         13   -1    0    0    0    0  0.00000000000E+00  0.00000000000E+00  0.74505805969E-08  0.10566000000E+00  0.10566000000E+00 0.  1.
     999900   -1    0    0    0    0 -0.00000000000E+00 -0.00000000000E+00 -0.74505805969E-08  0.93827000000E+00  0.93827000000E+00 0. -1.
     999902    2    1    2    0    0  0.23288871232E-01 -0.44874449495E-03 -0.44305572390E-02  0.10202191853E+01  0.10199436177E+01 0.  0.
     999903    2    3    3    0    0 -0.23819654406E-01 -0.11667002288E+00  0.47673809536E-01  0.12980273008E+00  0.19916988880E-01 0.  0.
         14    1    1    2    0    0 -0.23288871232E-01  0.44874449495E-03  0.44305572390E-02  0.23710814670E-01  0.00000000000E+00 0. -1.
     999901    1    3    3    0    0  0.47108525638E-01  0.11622127839E+00 -0.52104366775E-01  0.89041645525E+00  0.88000000000E+00 0.  1.
        -11    1    4    4    0    0 -0.62374993363E-02 -0.82217825281E-02  0.82498953955E-03  0.10365608262E-01  0.51100000000E-03 0. -1.
         11    1    4    4    0    0 -0.17582155070E-01 -0.10844824035E+00  0.46848819996E-01  0.11943712182E+00  0.51100000000E-03 0.  1.
</event>
<event>
 8    1  0.1117714E+005  0.1043930E+01  0.7957747E-01            NaN
         13   -1    0    0    0    0  0.00000000000E+00  0.00000000000E+00  0.74505805969E-08  0.10566000000E+00  0.10566000000E+00 0. -1.
     999900   -1    0    0    0    0 -0.00000000000E+00 -0.00000000000E+00 -0.74505805969E-08  0.93827000000E+00  0.93827000000E+00 0.  1.
     999902    2    1    2    0    0 -0.60572106574E-02  0.22002574567E-01  0.36243823950E-02  0.10208228748E+01  0.10205613173E+01 0.  0.
     999903    2    3    3    0    0  0.12934340745E+00 -0.22546663372E-02  0.24515565937E-02  0.13013599565E+00  0.13948715445E-01 0.  0.
         14    1    1    2    0    0  0.60572106574E-02 -0.22002574567E-01 -0.36243823950E-02  0.23107125228E-01  0.00000000000E+00 0. -1.
     999901    1    3    3    0    0 -0.13540061811E+00  0.24257240905E-01  0.11728258013E-02  0.89068687912E+00  0.88000000000E+00 0. -1.
        -11    1    4    4    0    0  0.97215393596E-01  0.11818350337E-02 -0.34551074539E-02  0.97285293722E-01  0.51100000000E-03 0.  1.
         11    1    4    4    0    0  0.32128013856E-01 -0.34365013709E-02  0.59066640476E-02  0.32850701928E-01  0.51100000000E-03 0. -1.
</event>
<event>
 8    1  0.1117714E+005  0.1043930E+01  0.7957747E-01            NaN
         13   -1    0    0    0    0  0.00000000000E+00  0.00000000000E+00  0.74505805969E-08  0.10566000000E+00  0.10566000000E+00 0. -1.
     999900   -1    0    0    0    0 -0.00000000000E+00 -0.00000000000E+00 -0.74505805969E-08  0.93827000000E+00  0.93827000000E+00 0. -1.
     999902    2    1    2    0    0  0.27581474686E-02 -0.18646446809E-01  0.13238384475E-01  0.10208962817E+01  0.10206364023E+01 0.  0.
     999903    2    3    3    0    0 -0.12758396808E-01  0.97054632751E-01  0.83870338128E-01  0.13038161261E+00  0.19564070665E-01 0.  0.
         14    1    1    2    0    0 -0.27581474686E-02  0.18646446809E-01 -0.13238384475E-01  0.23033718319E-01  0.00000000000E+00 0.  1.
     999901    1    3    3    0    0  0.15516544276E-01 -0.11570107956E+00 -0.70631953653E-01  0.89051466907E+00  0.88000000000E+00 0.  1.
        -11    1    4    4    0    0 -0.10863733406E-01  0.38021152980E-01  0.43772508574E-01  0.58990867135E-01  0.51100000000E-03 0.  1.
         11    1    4    4    0    0 -0.18946634019E-02  0.59033479771E-01  0.40097829554E-01  0.71390745473E-01  0.51100000000E-03 0. -1.
</event>
<event>
 8    1  0.1117714E+005  0.1043930E+01  0.7957747E-01            NaN
         13   -1    0    0    0    0  0.00000000000E+00  0.00000000000E+00  0.74505805969E-08  0.10566000000E+00  0.10566000000E+00 0.  1.
     999900   -1    0    0    0    0 -0.00000000000E+00 -0.00000000000E+00 -0.74505805969E-08  0.93827000000E+00  0.93827000000E+00 0.  1.
     999902    2    1    2    0    0  0.18047367783E-01  0.78990683575E-02  0.11928220350E-01  0.10208999065E+01  0.10206401099E+01 0.  0.
     999903    2    3    3    0    0  0.42473075906E-01 -0.11991831897E+00  0.25382487550E-01  0.13122866554E+00  0.19807235688E-01 0.  0.
         14    1    1    2    0    0 -0.18047367783E-01 -0.78990683575E-02 -0.11928220350E-01  0.23030093476E-01  0.00000000000E+00 0. -1.
     999901    1    3    3    0    0 -0.24425708123E-01  0.12781738732E+00 -0.13454267199E-01  0.88967124098E+00  0.88000000000E+00 0. -1.
        -11    1    4    4    0    0  0.22296490794E-01 -0.81196211116E-01  0.93882567966E-02  0.84725195119E-01  0.51100000000E-03 0.  1.
         11    1    4    4    0    0  0.20176585112E-01 -0.38722107851E-01  0.15994230753E-01  0.46503470425E-01  0.51100000000E-03 0. -1.
</event>
<event>
 8    1  0.1117714E+005  0.1043930E+01  0.7957747E-01            NaN
         13   -1    0    0    0    0  0.00000000000E+00  0.00000000000E+00  0.74505805969E-08  0.10566000000E+00  0.10566000000E+00 0. -1.
     999900   -1    0    0    0    0 -0.00000000000E+00 -0.00000000000E+00 -0.74505805969E-08  0.93827000000E+00  0.93827000000E+00 0.  1.
     999902    2    1    2    0    0 -0.17838923686E-02 -0.13163809435E-01 -0.19817295454E-01  0.10200722266E+01  0.10197931919E+01 0.  0.
     999903    2    3    3    0    0  0.76925113814E-02  0.12199043552E+00 -0.38033419466E-01  0.12951717537E+00  0.19680361543E-01 0.  0.
         14    1    1    2    0    0  0.17838923686E-02  0.13163809435E-01  0.19817295454E-01  0.23857773365E-01  0.00000000000E+00 0. -1.
     999901    1    3    3    0    0 -0.94764037500E-02 -0.13515424495E+00  0.18216124013E-01  0.89055505126E+00  0.88000000000E+00 0.  1.
        -11    1    4    4    0    0 -0.61810055498E-02  0.25637596775E-01 -0.61923451513E-02  0.27094232919E-01  0.51100000000E-03 0. -1.
         11    1    4    4    0    0  0.13873516931E-01  0.96352838744E-01 -0.31841074315E-01  0.10242294245E+00  0.51100000000E-03 0.  1.
</event>
<event>
 8    1  0.1117714E+005  0.1043930E+01  0.7957747E-01            NaN
         13   -1    0    0    0    0  0.00000000000E+00  0.00000000000E+00  0.74505805969E-08  0.10566000000E+00  0.10566000000E+00 0.  1.
     999900   -1    0    0    0    0 -0.00000000000E+00 -0.00000000000E+00 -0.74505805969E-08  0.93827000000E+00  0.93827000000E+00 0.  1.
     999902    2    1    2    0    0  0.21248322195E-01  0.59338529179E-02  0.72783070383E-02  0.10206990818E+01  0.10204346819E+01 0.  0.
     999903    2    3    3    0    0  0.58113719556E-01 -0.35728107974E-01 -0.11008018581E+00  0.13116673706E+00  0.20817384683E-01 0.  0.
         14    1    1    2    0    0 -0.21248322195E-01 -0.59338529179E-02 -0.72783070383E-02  0.23230918189E-01  0.00000000000E+00 0. -1.
     999901    1    3    3    0    0 -0.36865397361E-01  0.41661960891E-01  0.11735849284E+00  0.88953234475E+00  0.88000000000E+00 0. -1.
        -11    1    4    4    0    0  0.51700731227E-01 -0.37193402885E-01 -0.91789599008E-01  0.11172245269E+00  0.51100000000E-03 0.  1.
         11    1    4    4    0    0  0.64129883285E-02  0.14652949118E-02 -0.18290586799E-01  0.19444284377E-01  0.51100000000E-03 0. -1.
</event>
<event>
 8    1  0.1117714E+005  0.1043930E+01  0.7957747E-01            NaN
         13   -1    0    0    0    0  0.00000000000E+00  0.00000000000E+00  0.74505805969E-08  0.10566000000E+00  0.10566000000E+00 0. -1.
     999900   -1    0    0    0    0 -0.00000000000E+00 -0.00000000000E+00 -0.74505805969E-08  0.93827000000E+00  0.93827000000E+00 0. -1.
     999902    2    1    2    0    0 -0.76767401396E-02  0.23319473565E-01 -0.13563430788E-02  0.10193419978E+01  0.10190454056E+01 0.  0.
     999903    2    3    3    0    0  0.66088028392E-02  0.84350944563E-01 -0.98953523181E-01  0.13173052492E+00  0.20059245309E-01 0.  0.
         14    1    1    2    0    0  0.76767401396E-02 -0.23319473565E-01  0.13563430788E-02  0.24588002218E-01  0.00000000000E+00 0. -1.
     999901    1    3    3    0    0 -0.14285542979E-01 -0.61031470998E-01  0.97597180103E-01  0.88761147286E+00  0.88000000000E+00 0.  1.
        -11    1    4    4    0    0  0.81449016789E-02  0.16958932754E-01 -0.29087445766E-01  0.34645135961E-01  0.51100000000E-03 0. -1.
         11    1    4    4    0    0 -0.15360988397E-02  0.67392011809E-01 -0.69866077415E-01  0.97085388961E-01  0.51100000000E-03 0.  1.
</event>
<event>
 8    1  0.1117714E+005  0.1043930E+01  0.7957747E-01            NaN
         13   -1    0    0    0    0  0.00000000000E+00  0.00000000000E+00  0.74505805969E-08  0.10566000000E+00  0.10566000000E+00 0.  1.
     999900   -1    0    0    0    0 -0.00000000000E+00 -0.00000000000E+00 -0.74505805969E-08  0.93827000000E+00  0.93827000000E+00 0. -1.
     999902    2    1    2    0    0 -0.22924624333E-01  0.14550727419E-01  0.89889911490E-02  0.10153281813E+01  0.10149252444E+01 0.  0.
     999903    2    3    3    0    0  0.65896583364E-01 -0.98604399172E-01 -0.25180316114E-01  0.12299369743E+00  0.20693333505E-01 0.  0.
         14    1    1    2    0    0  0.22924624333E-01 -0.14550727419E-01 -0.89889911490E-02  0.28601818668E-01  0.00000000000E+00 0.  1.
     999901    1    3    3    0    0 -0.88821207697E-01  0.11315512659E+00  0.34169307263E-01  0.89233448391E+00  0.88000000000E+00 0. -1.
        -11    1    4    4    0    0  0.35995281201E-01 -0.54233820794E-01 -0.24290250605E-01  0.69478377803E-01  0.51100000000E-03 0. -1.
         11    1    4    4    0    0  0.29901302163E-01 -0.44370578378E-01 -0.89006550860E-03  0.53515319622E-01  0.51100000000E-03 0.  1.
</event>
<event>
 8    1  0.1117714E+005  0.1043930E+01  0.7957747E-01            NaN
         13   -1    0    0    0    0  0.00000000000E+00  0.00000000000E+00  0.74505805969E-08  0.10566000000E+00  0.10566000000E+00 0. -1.
     999900   -1    0    0    0    0 -0.00000000000E+00 -0.00000000000E+00 -0.74505805969E-08  0.93827000000E+00  0.93827000000E+00 0. -1.
     999902    2    1    2    0    0  0.95067714562E-02 -0.21766175062E-01 -0.68639418816E-02  0.10192063518E+01  0.10189064377E+01 0.  0.
     999903    2    3    3    0    0  0.45530040528E-01 -0.71365896048E-01  0.97781871073E-01  0.13088852898E+00  0.20110619053E-01 0.  0.
         14    1    1    2    0    0 -0.95067714562E-02  0.21766175062E-01  0.68639418816E-02  0.24723648163E-01  0.00000000000E+00 0.  1.
     999901    1    3    3    0    0 -0.36023269072E-01  0.49599720987E-01 -0.10464581295E+00  0.88831782286E+00  0.88000000000E+00 0. -1.
        -11    1    4    4    0    0  0.19666284399E-01 -0.46729295636E-01  0.49795619559E-01  0.71065143784E-01  0.51100000000E-03 0.  1.
         11    1    4    4    0    0  0.25863756129E-01 -0.24636600412E-01  0.47986251514E-01  0.59823385196E-01  0.51100000000E-03 0. -1.
</event>
<event>
 7    1  0.1117714E+005  0.1043930E+01  0.7957747E-01            NaN
         13   -1    0    0    0    0  0.00000000000E+00  0.00000000000E+00  0.74505805969E-08  0.10566000000E+00  0.10566000000E+00 0.  1.
     999900   -1    0    0    0    0 -0.00000000000E+00 -0.00000000000E+00 -0.74505805969E-08  0.93827000000E+00  0.93827000000E+00 0.  1.
     999903    2    1    2    0    0 -0.99254559428E-01  0.23308537168E-02 -0.63591163967E-01  0.11953088167E+00  0.19669648984E-01 0.  0.
         14    1    1    2    0    0  0.12378120452E-03  0.56207019116E-02  0.38014823057E-01  0.38428301860E-01  0.00000000000E+00 0.  1.
     999901    1    1    2    0    0  0.99130778223E-01 -0.79515556284E-02  0.25576340909E-01  0.88597081647E+00  0.88000000000E+00 0. -1.
        -11    1    3    3    0    0 -0.86688068162E-01 -0.39565681551E-02 -0.51000940874E-01  0.10065700514E+00  0.51100000000E-03 0.  1.
         11    1    3    3    0    0 -0.12566491266E-01  0.62874218719E-02 -0.12590223093E-01  0.18873876525E-01  0.51100000000E-03 0. -1.
</event>
<event>
 8    1  0.1117714E+005  0.1043930E+01  0.7957747E-01            NaN
         13   -1    0    0    0    0  0.00000000000E+00  0.00000000000E+00  0.74505805969E-08  0.10566000000E+00  0.10566000000E+00 0. -1.
     999900   -1    0    0    0    0 -0.00000000000E+00 -0.00000000000E+00 -0.74505805969E-08  0.93827000000E+00  0.93827000000E+00 0. -1.
     999902    2    1    2    0    0  0.12994213913E-01 -0.28398635751E-02 -0.19149333402E-01  0.10206145247E+01  0.10203481742E+01 0.  0.
     999903    2    3    3    0    0 -0.88606647930E-01  0.81941908074E-01  0.39975721204E-01  0.12875889957E+00  0.20376004921E-01 0.  0.
         14    1    1    2    0    0 -0.12994213913E-01  0.28398635751E-02  0.19149333402E-01  0.23315475335E-01  0.00000000000E+00 0. -1.
     999901    1    3    3    0    0  0.10160086184E+00 -0.84781771649E-01 -0.59125054606E-01  0.89185562509E+00  0.88000000000E+00 0. -1.
        -11    1    4    4    0    0 -0.65545170035E-02  0.11415334799E-01  0.98397863355E-02  0.16442447441E-01  0.51100000000E-03 0. -1.
         11    1    4    4    0    0 -0.82052130927E-01  0.70526573275E-01  0.30135934869E-01  0.11231645213E+00  0.51100000000E-03 0.  1.
</event>
<event>
 8    1  0.1128562E+005  0.1043930E+01  0.7957747E-01            NaN
         13   -1    0    0    0    0  0.00000000000E+00  0.00000000000E+00  0.74505805969E-08  0.10566000000E+00  0.10566000000E+00 0. -1.
     999900   -1    0    0    0    0 -0.00000000000E+00 -0.00000000000E+00 -0.74505805969E-08  0.93827000000E+00  0.93827000000E+00 0. -1.
     999902    2    1    2    0    0 -0.71868650070E-02 -0.17844325689E-01 -0.13888832268E-01  0.10202029975E+01  0.10199270490E+01 0.  0.
     999903    2    3    3    0    0 -0.36095542463E-01 -0.10129132678E+00  0.73293520414E-01  0.13149614126E+00  0.18880518143E-01 0.  0.
         14    1    1    2    0    0  0.71868650070E-02  0.17844325689E-01  0.13888832268E-01  0.23727002543E-01  0.00000000000E+00 0. -1.
     999901    1    3    3    0    0  0.28908677456E-01  0.83447001096E-01 -0.87182352682E-01  0.88870685619E+00  0.88000000000E+00 0. -1.
        -11    1    4    4    0    0 -0.19928884489E-01 -0.46597715704E-01  0.45231605102E-01  0.67931338621E-01  0.51100000000E-03 0. -1.
         11    1    4    4    0    0 -0.16166657975E-01 -0.54693611080E-01  0.28061915312E-01  0.63564802643E-01  0.51100000000E-03 0.  1.
</event>
<event>
 8    1  0.1117714E+005  0.1043930E+01  0.7957747E-01            NaN
         13   -1    0    0    0    0  0.00000000000E+00  0.00000000000E+00  0.74505805969E-08  0.10566000000E+00  0.10566000000E+00 0. -1.
     999900   -1    0    0    0    0 -0.00000000000E+00 -0.00000000000E+00 -0.74505805969E-08  0.93827000000E+00  0.93827000000E+00 0. -1.
     999902    2    1    2    0    0 -0.21085144840E-01 -0.10537030214E-01 -0.58898313784E-03  0.10203512121E+01  0.10200787405E+01 0.  0.
     999903    2    3    3    0    0  0.12098895057E+00 -0.25397654767E-01  0.27943989589E-01  0.12837586641E+00  0.20399252333E-01 0.  0.
         14    1    1    2    0    0  0.21085144840E-01  0.10537030214E-01  0.58898313784E-03  0.23578787920E-01  0.00000000000E+00 0. -1.
     999901    1    3    3    0    0 -0.14207409541E+00  0.14860624553E-01 -0.28532972727E-01  0.89197534567E+00  0.88000000000E+00 0. -1.
        -11    1    4    4    0    0  0.63133853319E-01 -0.50463839083E-02  0.77763740145E-02  0.63812871266E-01  0.51100000000E-03 0.  1.
         11    1    4    4    0    0  0.57855097249E-01 -0.20351270858E-01  0.20167615575E-01  0.64562995146E-01  0.51100000000E-03 0. -1.
</event>
<event>
 8    1  0.1117714E+005  0.1043930E+01  0.7957747E-01            NaN
         13   -1    0    0    0    0  0.00000000000E+00  0.00000000000E+00  0.74505805969E-08  0.10566000000E+00  0.10566000000E+00 0.  1.
     999900   -1    0    0    0    0 -0.00000000000E+00 -0.00000000000E+00 -0.74505805969E-08  0.93827000000E+00  0.93827000000E+00 0.  1.
     999902    2    1    2    0    0 -0.71159819765E-04  0.19234237757E-01 -0.13376069782E-01  0.10205018074E+01  0.10202328453E+01 0.  0.
     999903    2    3    3    0    0 -0.13033289808E-01 -0.11359656678E+00  0.53883081925E-01  0.12790120638E+00  0.19526531886E-01 0.  0.
         14    1    1    2    0    0  0.71159819765E-04 -0.19234237757E-01  0.13376069782E-01  0.23428192602E-01  0.00000000000E+00 0.  1.
     999901    1    3    3    0    0  0.12962129988E-01  0.13283080454E+00 -0.67259151707E-01  0.89260060102E+00  0.88000000000E+00 0.  1.
        -11    1    4    4    0    0 -0.10293589053E-01 -0.10949708341E+00  0.47451418521E-01  0.11978091456E+00  0.51100000000E-03 0. -1.
         11    1    4    4    0    0 -0.27397007547E-02 -0.40994833690E-02  0.64316634040E-02  0.81202918212E-02  0.51100000000E-03 0.  1.
</event>
<event>
 8    1  0.1117714E+005  0.1043930E+01  0.7957747E-01            NaN
         13   -1    0    0    0    0  0.00000000000E+00  0.00000000000E+00  0.74505805969E-08  0.10566000000E+00  0.10566000000E+00 0.  1.
     999900   -1    0    0    0    0 -0.00000000000E+00 -0.00000000000E+00 -0.74505805969E-08  0.93827000000E+00  0.93827000000E+00 0.  1.
     999902    2    1    2    0    0  0.84866150309E-02 -0.67895824393E-02  0.18560931844E-01  0.10224211819E+01  0.10221949149E+01 0.  0.
     999903    2    3    3    0    0 -0.12544213964E+00 -0.89207645354E-02 -0.30375408009E-01  0.13094139043E+00  0.20190886044E-01 0.  0.
         14    1    1    2    0    0 -0.84866150309E-02  0.67895824393E-02 -0.18560931844E-01  0.21508818083E-01  0.00000000000E+00 0. -1.
     999901    1    3    3    0    0  0.13392875467E+00  0.21311820962E-02  0.48936339853E-01  0.89147979148E+00  0.88000000000E+00 0. -1.
        -11    1    4    4    0    0 -0.70591626483E-01 -0.12429637774E-01 -0.10253803708E-01  0.72409082553E-01  0.51100000000E-03 0. -1.
         11    1    4    4    0    0 -0.54850513159E-01  0.35088732387E-02 -0.20121604301E-01  0.58532307881E-01  0.51100000000E-03 0.  1.
</event>
<event>
 8    1  0.1400257E+005  0.1043930E+01  0.7957747E-01            NaN
         13   -1    0    0    0    0  0.00000000000E+00  0.00000000000E+00  0.74505805969E-08  0.10566000000E+00  0.10566000000E+00 0.  1.
     999900   -1    0    0    0    0 -0.00000000000E+00 -0.00000000000E+00 -0.74505805969E-08  0.93827000000E+00  0.93827000000E+00 0.  1.
     999902    2    1    2    0    0 -0.21029867156E-01  0.90420541015E-02  0.62834498221E-02  0.10201919336E+01  0.10199157247E+01 0.  0.
     999903    2    3    3    0    0  0.19320353349E-01  0.11622957927E+00  0.55494812410E-01  0.13140677167E+00  0.17477822670E-01 0.  0.
         14    1    1    2    0    0  0.21029867156E-01 -0.90420541015E-02 -0.62834498221E-02  0.23738066405E-01  0.00000000000E+00 0.  1.
     999901    1    3    3    0    0 -0.40350220505E-01 -0.10718752517E+00 -0.49211362587E-01  0.88878516192E+00  0.88000000000E+00 0.  1.
        -11    1    4    4    0    0 -0.33721286879E-03  0.49989863934E-01  0.24576953044E-01  0.55708060014E-01  0.51100000000E-03 0. -1.
         11    1    4    4    0    0  0.19657566218E-01  0.66239715339E-01  0.30917859366E-01  0.75698711658E-01  0.51100000000E-03 0.  1.
</event>
<event>
 8    1  0.1117714E+005  0.1043930E+01  0.7957747E-01            NaN
         13   -1    0    0    0    0  0.00000000000E+00  0.00000000000E+00  0.74505805969E-08  0.10566000000E+00  0.10566000000E+00 0. -1.
     999900   -1    0    0    0    0 -0.00000000000E+00 -0.00000000000E+00 -0.74505805969E-08  0.93827000000E+00  0.93827000000E+00 0.  1.
     999902    2    1    2    0    0  0.25782041082E-02 -0.17839289663E-01 -0.14835200389E-01  0.10205853954E+01  0.10203183713E+01 0.  0.
     999903    2    3    3    0    0 -0.70056876405E-03  0.10879081019E+00  0.64288747710E-01  0.12800120797E+00  0.20379768886E-01 0.  0.
         14    1    1    2    0    0 -0.25782041082E-02  0.17839289663E-01  0.14835200389E-01  0.23344604573E-01  0.00000000000E+00 0. -1.
     999901    1    3    3    0    0  0.32787728722E-02 -0.12663009986E+00 -0.79123948099E-01  0.89258418746E+00  0.88000000000E+00 0.  1.
        -11    1    4    4    0    0 -0.89818213543E-02  0.38054718943E-01  0.27788407179E-01  0.47971777570E-01  0.51100000000E-03 0. -1.
         11    1    4    4    0    0  0.82812525903E-02  0.70736091249E-01  0.36500340531E-01  0.80029430396E-01  0.51100000000E-03 0.  1.
</event>
<event>
 8    1  0.1117714E+005  0.1043930E+01  0.7957747E-01            NaN
         13   -1    0    0    0    0  0.00000000000E+00  0.00000000000E+00  0.74505805969E-08  0.10566000000E+00  0.10566000000E+00 0. -1.
     999900   -1    0    0    0    0 -0.00000000000E+00 -0.00000000000E+00 -0.74505805969E-08  0.93827000000E+00  0.93827000000E+00 0.  1.
     999902    2    1    2    0    0  0.46890106986E-02 -0.22570890882E-01 -0.44259388618E-02  0.10204561662E+01  0.10201861430E+01 0.  0.
     999903    2    3    3    0    0 -0.11575745645E+00 -0.55372105437E-01 -0.19324629865E-01  0.13152127430E+00  0.21413675245E-01 0.  0.
         14    1    1    2    0    0 -0.46890106986E-02  0.22570890882E-01  0.44259388618E-02  0.23473833759E-01  0.00000000000E+00 0. -1.
     999901    1    3    3    0    0  0.12044646715E+00  0.32801214555E-01  0.14898691003E-01  0.88893489195E+00  0.88000000000E+00 0.  1.
        -11    1    4    4    0    0 -0.93805646017E-01 -0.35017053374E-01 -0.15915790075E-01  0.10138671879E+00  0.51100000000E-03 0. -1.
         11    1    4    4    0    0 -0.21951810437E-01 -0.20355052063E-01 -0.34088397900E-02  0.30134555508E-01  0.51100000000E-03 0.  1.
</event>
<event>
 8    1  0.1117714E+005  0.1043930E+01  0.7957747E-01            NaN
         13   -1    0    0    0    0  0.00000000000E+00  0.00000000000E+00  0.74505805969E-08  0.10566000000E+00  0.10566000000E+00 0.  1.
     999900   -1    0    0    0    0 -0.00000000000E+00 -0.00000000000E+00 -0.74505805969E-08  0.93827000000E+00  0.93827000000E+00 0. -1.
     999902    2    1    2    0    0 -0.19283969734E-01 -0.38324947622E-02 -0.11859938127E-01  0.10209687797E+01  0.10207105523E+01 0.  0.
     999903    2    3    3    0    0  0.64953108064E-01 -0.82283398920E-01 -0.75604219064E-01  0.13118579325E+00  0.22455521053E-01 0.  0.
         14    1    1    2    0    0  0.19283969734E-01  0.38324947622E-02  0.11859938127E-01  0.22961220290E-01  0.00000000000E+00 0.  1.
     999901    1    3    3    0    0 -0.84237077799E-01  0.78450904158E-01  0.63744280938E-01  0.88978298646E+00  0.88000000000E+00 0.  1.
        -11    1    4    4    0    0  0.32690583527E-01 -0.50687025253E-01 -0.31436530210E-01  0.68017389930E-01  0.51100000000E-03 0.  1.
         11    1    4    4    0    0  0.32262524537E-01 -0.31596373667E-01 -0.44167688855E-01  0.63168403322E-01  0.51100000000E-03 0. -1.
</event>
<event>
 8    1  0.1117714E+005  0.1043930E+01  0.7957747E-01            NaN
         13   -1    0    0    0    0  0.00000000000E+00  0.00000000000E+00  0.74505805969E-08  0.10566000000E+00  0.10566000000E+00 0. -1.
     999900   -1    0    0    0    0 -0.00000000000E+00 -0.00000000000E+00 -0.74505805969E-08  0.93827000000E+00  0.93827000000E+00 0. -1.
     999902    2    1    2    0    0 -0.11600113632E-01  0.16437735880E-01  0.11831387006E-01  0.10205902589E+01  0.10203233473E+01 0.  0.
     999903    2    3    3    0    0  0.64988884957E-01  0.66877159757E-01  0.91564737701E-01  0.13223930492E+00  0.20174808803E-01 0.  0.
         14    1    1    2    0    0  0.11600113632E-01 -0.16437735880E-01 -0.11831387006E-01  0.23339741122E-01  0.00000000000E+00 0.  1.
     999901    1    3    3    0    0 -0.76588998589E-01 -0.50439423877E-01 -0.79733350695E-01  0.88835095396E+00  0.88000000000E+00 0. -1.
        -11    1    4    4    0    0  0.12592013263E-01  0.68903498268E-02  0.23135320083E-01  0.27231229775E-01  0.51100000000E-03 0.  1.
         11    1    4    4    0    0  0.52396871693E-01  0.59986809931E-01  0.68429417619E-01  0.10500807514E+00  0.51100000000E-03 0. -1.
</event>
<event>
 8    1  0.1117714E+005  0.1043930E+01  0.7957747E-01            NaN
         13   -1    0    0    0    0  0.00000000000E+00  0.00000000000E+00  0.74505805969E-08  0.10566000000E+00  0.10566000000E+00 0. -1.
     999900   -1    0    0    0    0 -0.00000000000E+00 -0.00000000000E+00 -0.74505805969E-08  0.93827000000E+00  0.93827000000E+00 0.  1.
     999902    2    1    2    0    0  0.11823331385E-01 -0.16433384344E-01 -0.10719369279E-01  0.10210225304E+01  0.10207655242E+01 0.  0.
     999903    2    3    3    0    0  0.69372684782E-01  0.38106886534E-01  0.10155509597E+00  0.13035304918E+00  0.20341477751E-01 0.  0.
         14    1    1    2    0    0 -0.11823331385E-01  0.16433384344E-01  0.10719369279E-01  0.22907469607E-01  0.00000000000E+00 0.  1.
     999901    1    3    3    0    0 -0.57549353396E-01 -0.54540270878E-01 -0.11227446525E+00  0.89066948122E+00  0.88000000000E+00 0.  1.
        -11    1    4    4    0    0  0.33967287794E-01  0.21204482672E-01  0.67071489068E-01  0.78116915532E-01  0.51100000000E-03 0.  1.
         11    1    4    4    0    0  0.35405396988E-01  0.16902403862E-01  0.34483606902E-01  0.52236133644E-01  0.51100000000E-03 0. -1.
</event>
<event>
 8    1  0.1117714E+005  0.1043930E+01  0.7957747E-01            NaN
         13   -1    0    0    0    0  0.00000000000E+00  0.00000000000E+00  0.74505805969E-08  0.10566000000E+00  0.10566000000E+00 0. -1.
     999900   -1    0    0    0    0 -0.00000000000E+00 -0.00000000000E+00 -0.74505805969E-08  0.93827000000E+00  0.93827000000E+00 0.  1.
     999902    2    1    2    0    0 -0.13624292009E-01  0.10407287830E-01  0.16441956904E-01  0.10201756126E+01  0.10198990194E+01 0.  0.
     999903    2    3    3    0    0  0.99584773707E-01  0.77882755484E-01  0.23116635071E-01  0.13033642343E+00  0.21687639338E-01 0.  0.
         14    1    1    2    0    0  0.13624292009E-01 -0.10407287830E-01 -0.16441956904E-01  0.23754387374E-01  0.00000000000E+00 0.  1.
     999901    1    3    3    0    0 -0.11320906572E+00 -0.67475467654E-01 -0.66746781670E-02  0.88983918919E+00  0.88000000000E+00 0.  1.
        -11    1    4    4    0    0  0.18515975728E-01  0.26324005664E-01  0.63301429493E-02  0.32804366510E-01  0.51100000000E-03 0.  1.
         11    1    4    4    0    0  0.81068797979E-01  0.51558749819E-01  0.16786492121E-01  0.97532056922E-01  0.51100000000E-03 0. -1.
</event>
<event>
 8    1  0.1117714E+005  0.1043930E+01  0.7957747E-01            NaN
         13   -1    0    0    0    0  0.00000000000E+00  0.00000000000E+00  0.74505805969E-08  0.10566000000E+00  0.10566000000E+00 0.  1.
     999900   -1    0    0    0    0 -0.00000000000E+00 -0.00000000000E+00 -0.74505805969E-08  0.93827000000E+00  0.93827000000E+00 0.  1.
     999902    2    1    2    0    0 -0.16660801286E-01 -0.15344290056E-01  0.46479357936E-02  0.10208078711E+01  0.10205459700E+01 0.  0.
     999903    2    3    3    0    0 -0.36883561882E-01  0.11937420569E+00 -0.28580054568E-01  0.12970623130E+00  0.19907003741E-01 0.  0.
         14    1    1    2    0    0  0.16660801286E-01  0.15344290056E-01 -0.46479357936E-02  0.23122128880E-01  0.00000000000E+00 0. -1.
     999901    1    3    3    0    0  0.20222760596E-01 -0.13471849575E+00  0.33227990362E-01  0.89110163982E+00  0.88000000000E+00 0.  1.
        -11    1    4    4    0    0 -0.25690636490E-01  0.67055845701E-01 -0.25166422428E-01  0.76092740684E-01  0.51100000000E-03 0.  1.
         11    1    4    4    0    0 -0.11192925392E-01  0.52318359989E-01 -0.34136321399E-02  0.53613490618E-01  0.51100000000E-03 0. -1.
</event>
<event>
 8    1  0.1117714E+005  0.1043930E+01  0.7957747E-01            NaN
         13   -1    0    0    0    0  0.00000000000E+00  0.00000000000E+00  0.74505805969E-08  0.10566000000E+00  0.10566000000E+00 0. -1.
     999900   -1    0    0    0    0 -0.00000000000E+00 -0.00000000000E+00 -0.74505805969E-08  0.93827000000E+00  0.93827000000E+00 0. -1.
     999902    2    1    2    0    0 -0.80873984093E-02 -0.46066693600E-02 -0.20774248380E-01  0.10211660634E+01  0.10209123038E+01 0.  0.
     999903    2    3    3    0    0  0.12183397925E+00 -0.14952774491E-01  0.37645720096E-01  0.12965078083E+00  0.18028332252E-01 0.  0.
         14    1    1    2    0    0  0.80873984093E-02  0.46066693600E-02  0.20774248380E-01  0.22763936641E-01  0.00000000000E+00 0.  1.
     999901    1    3    3    0    0 -0.12992137766E+00  0.10346105131E-01 -0.58419968476E-01  0.89151528253E+00  0.88000000000E+00 0. -1.
        -11    1    4    4    0    0  0.76838110985E-01 -0.19539618249E-02  0.18565597148E-01  0.79075001012E-01  0.51100000000E-03 0. -1.
         11    1    4    4    0    0  0.44995868265E-01 -0.12998812666E-01  0.19080122948E-01  0.50575779820E-01  0.51100000000E-03 0.  1.
</event>
<event>
 8    1  0.1117714E+005  0.1043930E+01  0.7957747E-01            NaN
         13   -1    0    0    0    0  0.00000000000E+00  0.00000000000E+00  0.74505805969E-08  0.10566000000E+00  0.10566000000E+00 0. -1.
     999900   -1    0    0    0    0 -0.00000000000E+00 -0.00000000000E+00 -0.74505805969E-08  0.93827000000E+00  0.93827000000E+00 0.  1.
     999902    2    1    2    0    0  0.13373839905E-01 -0.96223730123E-02 -0.11636725599E-01  0.10237591537E+01  0.10235604241E+01 0.  0.
     999903    2    3    3    0    0  0.50739743100E-01 -0.11746412934E+00  0.38454346123E-01  0.13497618215E+00  0.19170023478E-01 0.  0.
         14    1    1    2    0    0 -0.13373839905E-01  0.96223730123E-02  0.11636725599E-01  0.20170846260E-01  0.00000000000E+00 0. -1.
     999901    1    3    3    0    0 -0.37365903195E-01  0.10784175633E+00 -0.50091071722E-01  0.88878297159E+00  0.88000000000E+00 0. -1.
        -11    1    4    4    0    0  0.28157390039E-01 -0.45041579935E-01  0.21065775233E-01  0.57145520769E-01  0.51100000000E-03 0. -1.
         11    1    4    4    0    0  0.22582353061E-01 -0.72422549403E-01  0.17388570890E-01  0.77830661377E-01  0.51100000000E-03 0.  1.
</event>
<event>
 8    1  0.1117714E+005  0.1043930E+01  0.7957747E-01            NaN
         13   -1    0    0    0    0  0.00000000000E+00  0.00000000000E+00  0.74505805969E-08  0.10566000000E+00  0.10566000000E+00 0.  1.
     999900   -1    0    0    0    0 -0.00000000000E+00 -0.00000000000E+00 -0.74505805969E-08  0.93827000000E+00  0.93827000000E+00 0.  1.
     999902    2    1    2    0    0  0.12946391164E-01  0.44644498439E-02 -0.18209686151E-01  0.10211455091E+01  0.10208912859E+01 0.  0.
     999903    2    3    3    0    0 -0.67948658963E-01  0.58930265161E-01 -0.96391734155E-01  0.13231314761E+00  0.11207417645E-01 0.  0.
         14    1    1    2    0    0 -0.12946391164E-01 -0.44644498439E-02  0.18209686151E-01  0.22784490916E-01  0.00000000000E+00 0.  1.
     999901    1    3    3    0    0  0.80895050127E-01 -0.54465815317E-01  0.78182048004E-01  0.88883236147E+00  0.88000000000E+00 0.  1.
        -11    1    4    4    0    0 -0.56051921960E-01  0.53381620055E-01 -0.80188011408E-01  0.11145310049E+00  0.51100000000E-03 0.  1.
         11    1    4    4    0    0 -0.11896737003E-01  0.55486451057E-02 -0.16203722747E-01  0.20860047116E-01  0.51100000000E-03 0. -1.
</event>
<event>
 8    1  0.1117714E+005  0.1043930E+01  0.7957747E-01            NaN
         13   -1    0    0    0    0  0.00000000000E+00  0.00000000000E+00  0.74505805969E-08  0.10566000000E+00  0.10566000000E+00 0.  1.
     999900   -1    0    0    0    0 -0.00000000000E+00 -0.00000000000E+00 -0.74505805969E-08  0.93827000000E+00  0.93827000000E+00 0. -1.
     999902    2    1    2    0    0  0.18493106747E-01 -0.13425441609E-01  0.34359654184E-02  0.10208206223E+01  0.10205590133E+01 0.  0.
     999903    2    3    3    0    0  0.10880541134E+00  0.69434791082E-01  0.18824345586E-01  0.13219306658E+00  0.21467256834E-01 0.  0.
         14    1    1    2    0    0 -0.18493106747E-01  0.13425441609E-01 -0.34359654184E-02  0.23109377705E-01  0.00000000000E+00 0.  1.
     999901    1    3    3    0    0 -0.90312304596E-01 -0.82860232691E-01 -0.15388380167E-01  0.88862755571E+00  0.88000000000E+00 0.  1.
        -11    1    4    4    0    0  0.38056149041E-01  0.13476403266E-01  0.97240647033E-02  0.41529537442E-01  0.51100000000E-03 0. -1.
         11    1    4    4    0    0  0.70749262303E-01  0.55958387817E-01  0.91002808826E-02  0.90663529143E-01  0.51100000000E-03 0.  1.
</event>
<event>
 8    1  0.1117714E+005  0.1043930E+01  0.7957747E-01            NaN
         13   -1    0    0    0    0  0.00000000000E+00  0.00000000000E+00  0.74505805969E-08  0.10566000000E+00  0.10566000000E+00 0. -1.
     999900   -1    0    0    0    0 -0.00000000000E+00 -0.00000000000E+00 -0.74505805969E-08  0.93827000000E+00  0.93827000000E+00 0.  1.
     999902    2    1    2    0    0 -0.22226899551E-01  0.46883167250E-02  0.22576002213E-02  0.10211021193E+01  0.10208469160E+01 0.  0.
     999903    2    3    3    0    0 -0.53827985345E-02  0.12358990771E+00  0.41841147989E-01  0.13206434210E+00  0.19668985273E-01 0.  0.
         14    1    1    2    0    0  0.22226899551E-01 -0.46883167250E-02 -0.22576002213E-02  0.22827880675E-01  0.00000000000E+00 0.  1.
     999901    1    3    3    0    0 -0.16844101016E-01 -0.11890159099E+00 -0.39583547767E-01  0.88903777722E+00  0.88000000000E+00 0.  1.
        -11    1    4    4    0    0 -0.12532477868E-01  0.92269094046E-01  0.30284397483E-01  0.97918611966E-01  0.51100000000E-03 0. -1.
         11    1    4    4    0    0  0.71496793332E-02  0.31320813664E-01  0.11556750506E-01  0.34145730135E-01  0.51100000000E-03 0.  1.
</event>
<event>
 8    1  0.1117714E+005  0.1043930E+01  0.7957747E-01            NaN
         13   -1    0    0    0    0  0.00000000000E+00  0.00000000000E+00  0.74505805969E-08  0.10566000000E+00  0.10566000000E+00 0.  1.
     999900   -1    0    0    0    0 -0.00000000000E+00 -0.00000000000E+00 -0.74505805969E-08  0.93827000000E+00  0.93827000000E+00 0.  1.
     999902    2    1    2    0    0 -0.10260443629E-01 -0.52713654256E-02  0.20950507809E-01  0.10200137341E+01  0.10197333132E+01 0.  0.
     999903    2    3    3    0    0  0.42211652373E-01 -0.11847038137E+00 -0.25885609661E-01  0.12997948759E+00  0.20187806961E-01 0.  0.
         14    1    1    2    0    0  0.10260443629E-01  0.52713654256E-02 -0.20950507809E-01  0.23916265895E-01  0.00000000000E+00 0. -1.
     999901    1    3    3    0    0 -0.52472096002E-01  0.11319901594E+00  0.46836117470E-01  0.89003424651E+00  0.88000000000E+00 0.  1.
        -11    1    4    4    0    0  0.12954248397E-01 -0.65899392130E-01 -0.11887708757E-01  0.68206459922E-01  0.51100000000E-03 0.  1.
         11    1    4    4    0    0  0.29257403976E-01 -0.52570989236E-01 -0.13997900904E-01  0.61773027669E-01  0.51100000000E-03 0. -1.
</event>
<event>
 8    1  0.1117714E+005  0.1043930E+01  0.7957747E-01            NaN
         13   -1    0    0    0    0  0.00000000000E+00  0.00000000000E+00  0.74505805969E-08  0.10566000000E+00  0.10566000000E+00 0. -1.
     999900   -1    0    0    0    0 -0.00000000000E+00 -0.00000000000E+00 -0.74505805969E-08  0.93827000000E+00  0.93827000000E+00 0. -1.
     999902    2    1    2    0    0 -0.10355867004E-01 -0.11289209210E-01 -0.17683838805E-01  0.10205332399E+01  0.10202650075E+01 0.  0.
     999903    2    3    3    0    0 -0.10324987147E+00 -0.51918200234E-01 -0.63679672100E-01  0.13351823012E+00  0.20395628498E-01 0.  0.
         14    1    1    2    0    0  0.10355867004E-01  0.11289209210E-01  0.17683838805E-01  0.23396760051E-01  0.00000000000E+00 0. -1.
     999901    1    3    3    0    0  0.92894004467E-01  0.40628991024E-01  0.45995833294E-01  0.88701500983E+00  0.88000000000E+00 0.  1.
        -11    1    4    4    0    0 -0.65359496013E-01 -0.41845295603E-01 -0.36190899881E-01  0.85632557117E-01  0.51100000000E-03 0. -1.
         11    1    4    4    0    0 -0.37890375458E-01 -0.10072904632E-01 -0.27488772219E-01  0.47885673005E-01  0.51100000000E-03 0.  1.
</event>
<event>
 7    1  0.1117714E+005  0.1043930E+01  0.7957747E-01            NaN
         13   -1    0    0    0    0  0.00000000000E+00  0.00000000000E+00  0.74505805969E-08  0.10566000000E+00  0.10566000000E+00 0. -1.
     999900   -1    0    0    0    0 -0.00000000000E+00 -0.00000000000E+00 -0.74505805969E-08  0.93827000000E+00  0.93827000000E+00 0. -1.
     999902    2    1    2    0    0  0.34300373150E-03 -0.54354136205E-02  0.26593025298E-01  0.10167850121E+01  0.10164226043E+01 0.  0.
         14    1    1    2    0    0 -0.34300373150E-03  0.54354136205E-02 -0.26593025298E-01  0.27144987885E-01  0.00000000000E+00 0.  1.
     999901    1    3    3    0    0  0.49424135230E-01  0.28418574685E-01 -0.83467277496E-01  0.88578617450E+00  0.88000000000E+00 0. -1.
        -11    1    3    3    0    0 -0.14421673764E-01 -0.31144139423E-01  0.69940893515E-01  0.77909767046E-01  0.51100000000E-03 0. -1.
         11    1    3    3    0    0 -0.34659457735E-01 -0.27098488834E-02  0.40119409279E-01  0.53089070564E-01  0.51100000000E-03 0.  1.
</event>
<event>
 8    1  0.1117714E+005  0.1043930E+01  0.7957747E-01            NaN
         13   -1    0    0    0    0  0.00000000000E+00  0.00000000000E+00  0.74505805969E-08  0.10566000000E+00  0.10566000000E+00 0.  1.
     999900   -1    0    0    0    0 -0.00000000000E+00 -0.00000000000E+00 -0.74505805969E-08  0.93827000000E+00  0.93827000000E+00 0. -1.
     999902    2    1    2    0    0 -0.13369291591E-01 -0.17146412681E-01 -0.46332480305E-02  0.10216992912E+01  0.10214574084E+01 0.  0.
     999903    2    3    3    0    0  0.64875712253E-01  0.22497650685E-02  0.11152596285E+00  0.13041288686E+00  0.18856330132E-01 0.  0.
         14    1    1    2    0    0  0.13369291591E-01  0.17146412681E-01  0.46332480305E-02  0.22230708778E-01  0.00000000000E+00 0.  1.
     999901    1    3    3    0    0 -0.78245003844E-01 -0.19396177749E-01 -0.11615921088E+00  0.89128640437E+00  0.88000000000E+00 0. -1.
        -11    1    4    4    0    0  0.11063791245E-01 -0.15251008936E-02  0.35302987305E-01  0.37031006509E-01  0.51100000000E-03 0. -1.
         11    1    4    4    0    0  0.53811921008E-01  0.37748659622E-02  0.76222975541E-01  0.93381880346E-01  0.51100000000E-03 0.  1.
</event>
<event>
 8    1  0.1117714E+005  0.1043930E+01  0.7957747E-01            NaN
         13   -1    0    0    0    0  0.00000000000E+00  0.00000000000E+00  0.74505805969E-08  0.10566000000E+00  0.10566000000E+00 0.  1.
     999900   -1    0    0    0    0 -0.00000000000E+00 -0.00000000000E+00 -0.74505805969E-08  0.93827000000E+00  0.93827000000E+00 0. -1.
     999902    2    1    2    0    0  0.23084144406E-01 -0.52112955756E-03 -0.38265610209E-02  0.10205250461E+01  0.10202566235E+01 0.  0.
     999903    2    3    3    0    0 -0.45155333071E-01 -0.10238284622E+00 -0.63064400849E-01  0.13005238660E+00  0.20377764876E-01 0.  0.
         14    1    1    2    0    0 -0.23084144406E-01  0.52112955756E-03  0.38265610209E-02  0.23404953925E-01  0.00000000000E+00 0.  1.
     999901    1    3    3    0    0  0.68239477477E-01  0.10186171666E+00  0.59237839828E-01  0.89047265948E+00  0.88000000000E+00 0.  1.
        -11    1    4    4    0    0 -0.33039193434E-01 -0.82894289527E-01 -0.40970229763E-01  0.98193036346E-01  0.51100000000E-03 0. -1.
         11    1    4    4    0    0 -0.12116139637E-01 -0.19488556690E-01 -0.22094171087E-01  0.31859350254E-01  0.51100000000E-03 0.  1.
</event>
<event>
 8    1  0.1117714E+005  0.1043930E+01  0.7957747E-01            NaN
         13   -1    0    0    0    0  0.00000000000E+00  0.00000000000E+00  0.74505805969E-08  0.10566000000E+00  0.10566000000E+00 0. -1.
     999900   -1    0    0    0    0 -0.00000000000E+00 -0.00000000000E+00 -0.74505805969E-08  0.93827000000E+00  0.93827000000E+00 0.  1.
     999902    2    1    2    0    0  0.17403553747E-01 -0.69480858078E-02  0.15539773389E-01  0.10195857166E+01  0.10192950452E+01 0.  0.
     999903    2    3    3    0    0  0.98416086789E-01 -0.59788407828E-01 -0.58983003827E-01  0.13115520466E+00  0.21501467855E-01 0.  0.
         14    1    1    2    0    0 -0.17403553747E-01  0.69480858078E-02 -0.15539773389E-01  0.24344283444E-01  0.00000000000E+00 0.  1.
     999901    1    3    3    0    0 -0.81012533042E-01  0.52840322020E-01  0.74522777216E-01  0.88843051189E+00  0.88000000000E+00 0. -1.
        -11    1    4    4    0    0  0.45141216807E-01 -0.38096648937E-01 -0.36221475278E-01  0.69291705906E-01  0.51100000000E-03 0.  1.
         11    1    4    4    0    0  0.53274869982E-01 -0.21691758891E-01 -0.22761528549E-01  0.61863498756E-01  0.51100000000E-03 0. -1.
</event>
<event>
 8    1  0.1117714E+005  0.1043930E+01  0.7957747E-01            NaN
         13   -1    0    0    0    0  0.00000000000E+00  0.00000000000E+00  0.74505805969E-08  0.10566000000E+00  0.10566000000E+00 0.  1.
     999900   -1    0    0    0    0 -0.00000000000E+00 -0.00000000000E+00 -0.74505805969E-08  0.93827000000E+00  0.93827000000E+00 0. -1.
     999902    2    1    2    0    0  0.93705664884E-02 -0.41482058251E-02  0.23045253580E-01  0.10187090000E+01  0.10183967438E+01 0.  0.
     999903    2    3    3    0    0 -0.44169756054E-01 -0.40434972299E-01  0.11537581356E+00  0.13151779860E+00  0.19984960838E-01 0.  0.
         14    1    1    2    0    0 -0.93705664884E-02  0.41482058251E-02 -0.23045253580E-01  0.25220999989E-01  0.00000000000E+00 0. -1.
     999901    1    3    3    0    0  0.53540322543E-01  0.36286766474E-01 -0.92330559975E-01  0.88719120141E+00  0.88000000000E+00 0. -1.
        -11    1    4    4    0    0 -0.50288558937E-02 -0.16365631762E-01  0.29064858402E-01  0.33736484842E-01  0.51100000000E-03 0. -1.
         11    1    4    4    0    0 -0.39140900161E-01 -0.24069340536E-01  0.86310955154E-01  0.97781313756E-01  0.51100000000E-03 0.  1.
</event>
<event>
 8    1  0.1117714E+005  0.1043930E+01  0.7957747E-01            NaN
         13   -1    0    0    0    0  0.00000000000E+00  0.00000000000E+00  0.74505805969E-08  0.10566000000E+00  0.10566000000E+00 0. -1.
     999900   -1    0    0    0    0 -0.00000000000E+00 -0.00000000000E+00 -0.74505805969E-08  0.93827000000E+00  0.93827000000E+00 0.  1.
     999902    2    1    2    0    0  0.50936293866E-02  0.21327248244E-01 -0.69912170170E-02  0.10209153592E+01  0.10206559150E+01 0.  0.
     999903    2    3    3    0    0  0.83419895812E-02 -0.12378929997E+00  0.26524612933E-01  0.12839495307E+00  0.19706072838E-01 0.  0.
         14    1    1    2    0    0 -0.50936293866E-02 -0.21327248244E-01  0.69912170170E-02  0.23014640849E-01  0.00000000000E+00 0. -1.
     999901    1    3    3    0    0 -0.32483601946E-02  0.14511654821E+00 -0.33515829950E-01  0.89252040608E+00  0.88000000000E+00 0.  1.
        -11    1    4    4    0    0  0.66056088836E-03 -0.49239075120E-01  0.20042615717E-01  0.53168509713E-01  0.51100000000E-03 0. -1.
         11    1    4    4    0    0  0.76814286929E-02 -0.74550224848E-01  0.64819972155E-02  0.75226443360E-01  0.51100000000E-03 0.  1.
</event>
<event>
 8    1  0.1117714E+005  0.1043930E+01  0.7957747E-01            NaN
         13   -1    0    0    0    0  0.00000000000E+00  0.00000000000E+00  0.74505805969E-08  0.10566000000E+00  0.10566000000E+00 0.  1.
     999900   -1    0    0    0    0 -0.00000000000E+00 -0.00000000000E+00 -0.74505805969E-08  0.93827000000E+00  0.93827000000E+00 0.  1.
     999902    2    1    2    0    0 -0.15434304061E-01 -0.69531121459E-02 -0.16110077504E-01  0.10205612579E+01  0.10202936749E+01 0.  0.
     999903    2    3    3    0    0  0.22189522206E-01  0.10336826530E+00  0.70623962620E-01  0.12864806014E+00  0.19626668453E-01 0.  0.
         14    1    1    2    0    0  0.15434304061E-01  0.69531121459E-02  0.16110077504E-01  0.23368742104E-01  0.00000000000E+00 0.  1.
     999901    1    3    3    0    0 -0.37623826267E-01 -0.11032137744E+00 -0.86734040123E-01  0.89191319776E+00  0.88000000000E+00 0.  1.
        -11    1    4    4    0    0  0.24930775512E-01  0.82445016214E-01  0.52863983417E-01  0.10106228837E+00  0.51100000000E-03 0. -1.
         11    1    4    4    0    0 -0.27412533057E-02  0.20923249081E-01  0.17759979203E-01  0.27585771769E-01  0.51100000000E-03 0.  1.
</event>
<event>
 8    1  0.1117714E+005  0.1043930E+01  0.7957747E-01            NaN
         13   -1    0    0    0    0  0.00000000000E+00  0.00000000000E+00  0.74505805969E-08  0.10566000000E+00  0.10566000000E+00 0.  1.
     999900   -1    0    0    0    0 -0.00000000000E+00 -0.00000000000E+00 -0.74505805969E-08  0.93827000000E+00  0.93827000000E+00 0.  1.
     999902    2    1    2    0    0  0.23069490626E-01  0.32254333945E-02 -0.71736573857E-02  0.10195565272E+01  0.10192651499E+01 0.  0.
     999903    2    3    3    0    0  0.97783427665E-02 -0.11420744143E+00 -0.58500753842E-01  0.13017381677E+00  0.19594098777E-01 0.  0.
         14    1    1    2    0    0 -0.23069490626E-01 -0.32254333945E-02  0.71736573857E-02  0.24373472847E-01  0.00000000000E+00 0.  1.
     999901    1    3    3    0    0  0.13291147860E-01  0.11743287482E+00  0.51327096456E-01  0.88938271038E+00  0.88000000000E+00 0. -1.
        -11    1    4    4    0    0  0.11788181219E-01 -0.34727891819E-01 -0.15932055009E-01  0.39988488149E-01  0.51100000000E-03 0. -1.
         11    1    4    4    0    0 -0.20098384522E-02 -0.79479549610E-01 -0.42568698833E-01  0.90185328619E-01  0.51100000000E-03 0.  1.
</event>
<event>
 8    1  0.1117714E+005  0.1043930E+01  0.7957747E-01            NaN
         13   -1    0    0    0    0  0.00000000000E+00  0.00000000000E+00  0.74505805969E-08  0.10566000000E+00  0.10566000000E+00 0. -1.
     999900   -1    0    0    0    0 -0.00000000000E+00 -0.00000000000E+00 -0.74505805969E-08  0.93827000000E+00  0.93827000000E+00 0.  1.
     999902    2    1    2    0    0 -0.38105345600E-02 -0.57240334252E-02  0.22664031553E-01  0.10202457635E+01  0.10199708206E+01 0.  0.
     999903    2    3    3    0    0  0.80085386139E-01  0.58848376308E-01 -0.78324748282E-01  0.12816569128E+00  0.20368548298E-01 0.  0.
         14    1    1    2    0    0  0.38105345600E-02  0.57240334252E-02 -0.22664031553E-01  0.23684236498E-01  0.00000000000E+00 0.  1.
     999901    1    3    3    0    0 -0.83895920699E-01 -0.64572409734E-01  0.10098877983E+00  0.89208007223E+00  0.88000000000E+00 0. -1.
        -11    1    4    4    0    0  0.27871956938E-01  0.12310073016E-01 -0.32466925216E-01  0.44528038753E-01  0.51100000000E-03 0. -1.
         11    1    4    4    0    0  0.52213429200E-01  0.46538303293E-01 -0.45857823066E-01  0.83637652523E-01  0.51100000000E-03 0.  1.
</event>
<event>
 8    1  0.1117714E+005  0.1043930E+01  0.7957747E-01            NaN
         13   -1    0    0    0    0  0.00000000000E+00  0.00000000000E+00  0.74505805969E-08  0.10566000000E+00  0.10566000000E+00 0. -1.
     999900   -1    0    0    0    0 -0.00000000000E+00 -0.00000000000E+00 -0.74505805969E-08  0.93827000000E+00  0.93827000000E+00 0. -1.
     999902    2    1    2    0    0 -0.17781489983E-01 -0.33878433624E-02 -0.18049625763E-01  0.10183673738E+01  0.10180464921E+01 0.  0.
     999903    2    3    3    0    0  0.14058676134E-01  0.18789996936E-01 -0.12707120194E+00  0.13079126052E+00  0.20212696648E-01 0.  0.
         14    1    1    2    0    0  0.17781489983E-01  0.33878433624E-02  0.18049625763E-01  0.25562626211E-01  0.00000000000E+00 0. -1.
     999901    1    3    3    0    0 -0.31840166117E-01 -0.22177840298E-01  0.10902157618E+00  0.88757611327E+00  0.88000000000E+00 0.  1.
        -11    1    4    4    0    0  0.11909491648E-01  0.13068356500E-02 -0.71324555609E-01  0.72325632832E-01  0.51100000000E-03 0.  1.
         11    1    4    4    0    0  0.21491844859E-02  0.17483161286E-01 -0.55746646331E-01  0.58465627685E-01  0.51100000000E-03 0. -1.
</event>
<event>
 8    1  0.1117714E+005  0.1043930E+01  0.7957747E-01            NaN
         13   -1    0    0    0    0  0.00000000000E+00  0.00000000000E+00  0.74505805969E-08  0.10566000000E+00  0.10566000000E+00 0.  1.
     999900   -1    0    0    0    0 -0.00000000000E+00 -0.00000000000E+00 -0.74505805969E-08  0.93827000000E+00  0.93827000000E+00 0. -1.
     999902    2    1    2    0    0 -0.16109268176E-01 -0.12266317997E-01  0.12235949978E-01  0.10202722412E+01  0.10199979199E+01 0.  0.
     999903    2    3    3    0    0 -0.53068718840E-01 -0.11136110009E+00  0.46232506753E-01  0.13328771898E+00  0.20262966647E-01 0.  0.
         14    1    1    2    0    0  0.16109268176E-01  0.12266317997E-01 -0.12235949978E-01  0.23657758774E-01  0.00000000000E+00 0. -1.
     999901    1    3    3    0    0  0.36959450664E-01  0.99094782095E-01 -0.33996556775E-01  0.88698452225E+00  0.88000000000E+00 0. -1.
        -11    1    4    4    0    0  0.33412941499E-04 -0.14819147457E-01  0.56563692954E-02  0.15870219985E-01  0.51100000000E-03 0.  1.
         11    1    4    4    0    0 -0.53102131781E-01 -0.96541952635E-01  0.40576137457E-01  0.11741749899E+00  0.51100000000E-03 0. -1.
</event>
<event>
 8    1  0.1117714E+005  0.1043930E+01  0.7957747E-01            NaN
         13   -1    0    0    0    0  0.00000000000E+00  0.00000000000E+00  0.74505805969E-08  0.10566000000E+00  0.10566000000E+00 0.  1.
     999900   -1    0    0    0    0 -0.00000000000E+00 -0.00000000000E+00 -0.74505805969E-08  0.93827000000E+00  0.93827000000E+00 0.  1.
     999902    2    1    2    0    0 -0.18551757238E-01  0.13024238675E-01 -0.19416035039E-02  0.10211798722E+01  0.10209264240E+01 0.  0.
     999903    2    3    3    0    0 -0.34886307277E-01 -0.74656031956E-01  0.99767356794E-01  0.13084321680E+00  0.19386705712E-01 0.  0.
         14    1    1    2    0    0  0.18551757238E-01 -0.13024238675E-01  0.19416035039E-02  0.22750127777E-01  0.00000000000E+00 0. -1.
     999901    1    3    3    0    0  0.16334550039E-01  0.87680270631E-01 -0.10170896030E+00  0.89033665542E+00  0.88000000000E+00 0.  1.
        -11    1    4    4    0    0 -0.25043286221E-01 -0.30893205476E-01  0.45343837519E-01  0.60314849343E-01  0.51100000000E-03 0.  1.
         11    1    4    4    0    0 -0.98430210565E-02 -0.43762826480E-01  0.54423519275E-01  0.70528367458E-01  0.51100000000E-03 0. -1.
</event>
<event>
 8    1  0.1117714E+005  0.1043930E+01  0.7957747E-01            NaN
         13   -1    0    0    0    0  0.00000000000E+00  0.00000000000E+00  0.74505805969E-08  0.10566000000E+00  0.10566000000E+00 0.  1.
     999900   -1    0    0    0    0 -0.00000000000E+00 -0.00000000000E+00 -0.74505805969E-08  0.93827000000E+00  0.93827000000E+00 0. -1.
     999902    2    1    2    0    0 -0.11033940121E-01 -0.19624088697E-01  0.14459442440E-01  0.10171731660E+01  0.10168211846E+01 0.  0.
     999903    2    3    3    0    0  0.81250157220E-01 -0.49538706042E-01  0.84788401029E-01  0.12905301567E+00  0.20246887639E-01 0.  0.
         14    1    1    2    0    0  0.11033940121E-01  0.19624088697E-01 -0.14459442440E-01  0.26756834033E-01  0.00000000000E+00 0.  1.
     999901    1    3    3    0    0 -0.92284097341E-01  0.29914617345E-01 -0.70328958588E-01  0.88812015030E+00  0.88000000000E+00 0. -1.
        -11    1    4    4    0    0  0.56885987279E-01 -0.40609535050E-01  0.71132189483E-01  0.99725620516E-01  0.51100000000E-03 0.  1.
         11    1    4    4    0    0  0.24364169942E-01 -0.89291709916E-02  0.13656211546E-01  0.29327395151E-01  0.51100000000E-03 0. -1.
</event>
<event>
 8    1  0.1117714E+005  0.1043930E+01  0.7957747E-01            NaN
         13   -1    0    0    0    0  0.00000000000E+00  0.00000000000E+00  0.74505805969E-08  0.10566000000E+00  0.10566000000E+00 0.  1.
     999900   -1    0    0    0    0 -0.00000000000E+00 -0.00000000000E+00 -0.74505805969E-08  0.93827000000E+00  0.93827000000E+00 0.  1.
     999902    2    1    2    0    0  0.21909955716E-01 -0.51564983864E-02 -0.56323253551E-02  0.10207274414E+01  0.10204636941E+01 0.  0.
     999903    2    3    3    0    0  0.10797351427E+00  0.64222546026E-01 -0.38984504954E-01  0.13318434062E+00  0.20867720495E-01 0.  0.
         14    1    1    2    0    0 -0.21909955716E-01  0.51564983864E-02  0.56323253551E-02  0.23202558566E-01  0.00000000000E+00 0. -1.
     999901    1    3    3    0    0 -0.86063558553E-01 -0.69379044413E-01  0.33352179599E-01  0.88754310081E+00  0.88000000000E+00 0. -1.
        -11    1    4    4    0    0  0.91127350702E-01  0.44516970394E-01 -0.31008746196E-01  0.10605544852E+00  0.51100000000E-03 0.  1.
         11    1    4    4    0    0  0.16846163567E-01  0.19705575633E-01 -0.79757587582E-02  0.27128892103E-01  0.51100000000E-03 0. -1.
</event>
<event>
 8    1  0.1117714E+005  0.1043930E+01  0.7957747E-01            NaN
         13   -1    0    0    0    0  0.00000000000E+00  0.00000000000E+00  0.74505805969E-08  0.10566000000E+00  0.10566000000E+00 0. -1.
     999900   -1    0    0    0    0 -0.00000000000E+00 -0.00000000000E+00 -0.74505805969E-08  0.93827000000E+00  0.93827000000E+00 0.  1.
     999902    2    1    2    0    0 -0.19911358833E-01 -0.44937608676E-02 -0.99322665366E-02  0.10212296472E+01  0.10209773192E+01 0.  0.
     999903    2    3    3    0    0 -0.48946480638E-02 -0.61831101554E-01 -0.11586331684E+00  0.13289724342E+00  0.19756680381E-01 0.  0.
         14    1    1    2    0    0  0.19911358833E-01  0.44937608676E-02  0.99322665366E-02  0.22700352769E-01  0.00000000000E+00 0.  1.
     999901    1    3    3    0    0 -0.15016710769E-01  0.57337340686E-01  0.10593105031E+00  0.88833240381E+00  0.88000000000E+00 0. -1.
        -11    1    4    4    0    0  0.70755902153E-02 -0.30710498541E-01 -0.50748464761E-01  0.59739990744E-01  0.51100000000E-03 0. -1.
         11    1    4    4    0    0 -0.11970238279E-01 -0.31120603012E-01 -0.65114852084E-01  0.73157252677E-01  0.51100000000E-03 0.  1.
</event>
<event>
 7    1  0.1117714E+005  0.1043930E+01  0.7957747E-01            NaN
         13   -1    0    0    0    0  0.00000000000E+00  0.00000000000E+00  0.74505805969E-08  0.10566000000E+00  0.10566000000E+00 0. -1.
     999900   -1    0    0    0    0 -0.00000000000E+00 -0.00000000000E+00 -0.74505805969E-08  0.93827000000E+00  0.93827000000E+00 0. -1.
     999902    2    1    2    0    0 -0.81987666892E-02  0.42777907205E-02 -0.25258481680E-01  0.10170318557E+01  0.10166760966E+01 0.  0.
         14    1    1    2    0    0  0.81987666892E-02 -0.42777907205E-02  0.25258481680E-01  0.26898144275E-01  0.00000000000E+00 0. -1.
     999901    1    3    3    0    0  0.50926638593E-01 -0.95672871089E-01  0.49141754032E-02  0.88666282763E+00  0.88000000000E+00 0.  1.
        -11    1    3    3    0    0 -0.22390788953E-03  0.17891251137E-01  0.11307101295E-01  0.21172119938E-01  0.51100000000E-03 0. -1.
         11    1    3    3    0    0 -0.58901497392E-01  0.82059410672E-01 -0.41479758377E-01  0.10919690816E+00  0.51100000000E-03 0.  1.
</event>
<event>
 8    1  0.1117714E+005  0.1043930E+01  0.7957747E-01            NaN
         13   -1    0    0    0    0  0.00000000000E+00  0.00000000000E+00  0.74505805969E-08  0.10566000000E+00  0.10566000000E+00 0.  1.
     999900   -1    0    0    0    0 -0.00000000000E+00 -0.00000000000E+00 -0.74505805969E-08  0.93827000000E+00  0.93827000000E+00 0. -1.
     999902    2    1    2    0    0  0.85387150111E-02 -0.10673319960E-01  0.17683643639E-01  0.10215795936E+01  0.10213350701E+01 0.  0.
     999903    2    3    3    0    0 -0.91543306838E-01  0.18947280835E-01 -0.86926508886E-01  0.12925842100E+00  0.20306279204E-01 0.  0.
         14    1    1    2    0    0 -0.85387150111E-02  0.10673319960E-01 -0.17683643639E-01  0.22350406381E-01  0.00000000000E+00 0.  1.
     999901    1    3    3    0    0  0.10008202185E+00 -0.29620600795E-01  0.10461015253E+00  0.89232117262E+00  0.88000000000E+00 0. -1.
        -11    1    4    4    0    0 -0.28864086134E-01  0.54452533969E-02 -0.40780508384E-01  0.50260294845E-01  0.51100000000E-03 0.  1.
         11    1    4    4    0    0 -0.62679220704E-01  0.13502027438E-01 -0.46146000502E-01  0.78998126157E-01  0.51100000000E-03 0. -1.
</event>
<event>
 8    1  0.1117714E+005  0.1043930E+01  0.7957747E-01            NaN
         13   -1    0    0    0    0  0.00000000000E+00  0.00000000000E+00  0.74505805969E-08  0.10566000000E+00  0.10566000000E+00 0. -1.
     999900   -1    0    0    0    0 -0.00000000000E+00 -0.00000000000E+00 -0.74505805969E-08  0.93827000000E+00  0.93827000000E+00 0.  1.
     999902    2    1    2    0    0  0.64584644436E-02 -0.27678529979E-01 -0.95674468861E-02  0.10139408549E+01  0.10134972661E+01 0.  0.
     999903    2    3    3    0    0 -0.67004539881E-02 -0.42962611658E-01 -0.11776270793E+00  0.12708518749E+00  0.19796651591E-01 0.  0.
         14    1    1    2    0    0 -0.64584644436E-02  0.27678529979E-01  0.95674468861E-02  0.29989145115E-01  0.00000000000E+00 0. -1.
     999901    1    3    3    0    0  0.13158918432E-01  0.15284081679E-01  0.10819526105E+00  0.88685566740E+00  0.88000000000E+00 0. -1.
        -11    1    4    4    0    0 -0.87242955098E-02 -0.42664591617E-01 -0.98383523740E-01  0.10759163339E+00  0.51100000000E-03 0. -1.
         11    1    4    4    0    0  0.20238415217E-02 -0.29802004103E-03 -0.19379184193E-01  0.19493554100E-01  0.51100000000E-03 0.  1.
</event>
<event>
 8    1  0.1117714E+005  0.1043930E+01  0.7957747E-01            NaN
         13   -1    0    0    0    0  0.00000000000E+00  0.00000000000E+00  0.74505805969E-08  0.10566000000E+00  0.10566000000E+00 0.  1.
     999900   -1    0    0    0    0 -0.00000000000E+00 -0.00000000000E+00 -0.74505805969E-08  0.93827000000E+00  0.93827000000E+00 0.  1.
     999902    2    1    2    0    0  0.19709755978E-01  0.59330149499E-02  0.13287523217E-01  0.10194303384E+01  0.10191358994E+01 0.  0.
     999903    2    3    3    0    0 -0.10021373330E+00 -0.39200566641E-01 -0.64063869010E-01  0.12679271797E+00  0.19817599487E-01 0.  0.
         14    1    1    2    0    0 -0.19709755978E-01 -0.59330149499E-02 -0.13287523217E-01  0.24499661638E-01  0.00000000000E+00 0. -1.
     999901    1    3    3    0    0  0.11992348928E+00  0.45133581591E-01  0.77351392227E-01  0.89263762040E+00  0.88000000000E+00 0. -1.
        -11    1    4    4    0    0 -0.40953110028E-01 -0.19801951126E-01 -0.16597442160E-01  0.48425310496E-01  0.51100000000E-03 0.  1.
         11    1    4    4    0    0 -0.59260623273E-01 -0.19398615515E-01 -0.47466426850E-01  0.78367407469E-01  0.51100000000E-03 0. -1.
</event>
<event>
 8    1  0.1117714E+005  0.1043930E+01  0.7957747E-01            NaN
         13   -1    0    0    0    0  0.00000000000E+00  0.00000000000E+00  0.74505805969E-08  0.10566000000E+00  0.10566000000E+00 0.  1.
     999900   -1    0    0    0    0 -0.00000000000E+00 -0.00000000000E+00 -0.74505805969E-08  0.93827000000E+00  0.93827000000E+00 0.  1.
     999902    2    1    2    0    0 -0.60702024795E-02 -0.21553092485E-02 -0.22586914018E-01  0.10204425267E+01  0.10201721859E+01 0.  0.
     999903    2    3    3    0    0 -0.62511525933E-01  0.21011587351E-01 -0.11430563466E+00  0.13357463814E+00  0.20669498333E-01 0.  0.
         14    1    1    2    0    0  0.60702024795E-02  0.21553092485E-02  0.22586914018E-01  0.23487473277E-01  0.00000000000E+00 0.  1.
     999901    1    3    3    0    0  0.56441323453E-01 -0.23166896599E-01  0.91718720640E-01  0.88686788859E+00  0.88000000000E+00 0. -1.
        -11    1    4    4    0    0 -0.23869495659E-01  0.18498686536E-01 -0.45320417615E-01  0.54462423747E-01  0.51100000000E-03 0.  1.
         11    1    4    4    0    0 -0.38642030274E-01  0.25129008143E-02 -0.68985217042E-01  0.79112214389E-01  0.51100000000E-03 0. -1.
</event>
<event>
 8    1  0.1117714E+005  0.1043930E+01  0.7957747E-01            NaN
         13   -1    0    0    0    0  0.00000000000E+00  0.00000000000E+00  0.74505805969E-08  0.10566000000E+00  0.10566000000E+00 0.  1.
     999900   -1    0    0    0    0 -0.00000000000E+00 -0.00000000000E+00 -0.74505805969E-08  0.93827000000E+00  0.93827000000E+00 0. -1.
     999902    2    1    2    0    0  0.87135137473E-02  0.95397822213E-02 -0.20521927914E-01  0.10196795919E+01  0.10193911849E+01 0.  0.
     999903    2    3    3    0    0 -0.31425279646E-02 -0.12520801965E+00 -0.25468051485E-01  0.12933022231E+00  0.19767677874E-01 0.  0.
         14    1    1    2    0    0 -0.87135137473E-02 -0.95397822213E-02  0.20521927914E-01  0.24250408078E-01  0.00000000000E+00 0. -1.
     999901    1    3    3    0    0  0.11856041712E-01  0.13474780187E+00  0.49461235717E-02  0.89034936961E+00  0.88000000000E+00 0. -1.
        -11    1    4    4    0    0 -0.25260197068E-02 -0.11207479615E+00 -0.28825353690E-01  0.11575103820E+00  0.51100000000E-03 0. -1.
         11    1    4    4    0    0 -0.61650825778E-03 -0.13133223503E-01  0.33573022049E-02  0.13579184111E-01  0.51100000000E-03 0.  1.
</event>
<event>
 8    1  0.1117714E+005  0.1043930E+01  0.7957747E-01            NaN
         13   -1    0    0    0    0  0.00000000000E+00  0.00000000000E+00  0.74505805969E-08  0.10566000000E+00  0.10566000000E+00 0.  1.
     999900   -1    0    0    0    0 -0.00000000000E+00 -0.00000000000E+00 -0.74505805969E-08  0.93827000000E+00  0.93827000000E+00 0. -1.
     999902    2    1    2    0    0 -0.10693338805E-01 -0.19978057391E-01 -0.63332478393E-02  0.10204017128E+01  0.10201304206E+01 0.  0.
     999903    2    3    3    0    0  0.91889969587E-01  0.68238544169E-01 -0.57132290112E-01  0.12861359519E+00  0.13307624653E-01 0.  0.
         14    1    1    2    0    0  0.10693338805E-01  0.19978057391E-01  0.63332478393E-02  0.23528287233E-01  0.00000000000E+00 0.  1.
     999901    1    3    3    0    0 -0.10258330839E+00 -0.88216601560E-01  0.50799042273E-01  0.89178811757E+00  0.88000000000E+00 0.  1.
        -11    1    4    4    0    0  0.28007797318E-01  0.15045506491E-01 -0.11724165969E-01  0.33889838666E-01  0.51100000000E-03 0. -1.
         11    1    4    4    0    0  0.63882172269E-01  0.53193037678E-01 -0.45408124143E-01  0.94723756526E-01  0.51100000000E-03 0.  1.
</event>
<event>
 8    1  0.1117714E+005  0.1043930E+01  0.7957747E-01            NaN
         13   -1    0    0    0    0  0.00000000000E+00  0.00000000000E+00  0.74505805969E-08  0.10566000000E+00  0.10566000000E+00 0. -1.
     999900   -1    0    0    0    0 -0.00000000000E+00 -0.00000000000E+00 -0.74505805969E-08  0.93827000000E+00  0.93827000000E+00 0. -1.
     999902    2    1    2    0    0 -0.17016205233E-01 -0.14256425210E-01 -0.51654827238E-02  0.10211379156E+01  0.10208835210E+01 0.  0.
     999903    2    3    3    0    0 -0.84564095310E-01  0.64283260366E-01  0.74757124357E-01  0.13146447955E+00  0.20269631517E-01 0.  0.
         14    1    1    2    0    0  0.17016205233E-01  0.14256425210E-01  0.51654827238E-02  0.22792084417E-01  0.00000000000E+00 0. -1.
     999901    1    3    3    0    0  0.67547890076E-01 -0.78539685576E-01 -0.79922607081E-01  0.88967343604E+00  0.88000000000E+00 0. -1.
        -11    1    4    4    0    0 -0.95783030025E-02  0.15612704066E-01  0.85523049782E-02  0.20221361431E-01  0.51100000000E-03 0. -1.
         11    1    4    4    0    0 -0.74985792307E-01  0.48670556300E-01  0.66204819379E-01  0.11124311812E+00  0.51100000000E-03 0.  1.
</event>
<event>
 8    1  0.1117714E+005  0.1043930E+01  0.7957747E-01            NaN
         13   -1    0    0    0    0  0.00000000000E+00  0.00000000000E+00  0.74505805969E-08  0.10566000000E+00  0.10566000000E+00 0.  1.
     999900   -1    0    0    0    0 -0.00000000000E+00 -0.00000000000E+00 -0.74505805969E-08  0.93827000000E+00  0.93827000000E+00 0. -1.
     999902    2    1    2    0    0  0.17693092131E-01  0.11781525737E-01 -0.20569467357E-01  0.10143503982E+01  0.10139190192E+01 0.  0.
     999903    2    3    3    0    0  0.75448142479E-01 -0.86142909329E-01 -0.49517329134E-01  0.12656505275E+00  0.21300790148E-01 0.  0.
         14    1    1    2    0    0 -0.17693092131E-01 -0.11781525737E-01  0.20569467357E-01  0.29579601844E-01  0.00000000000E+00 0.  1.
     999901    1    3    3    0    0 -0.57755050348E-01  0.97924435066E-01  0.28947861776E-01  0.88778534541E+00  0.88000000000E+00 0.  1.
        -11    1    4    4    0    0  0.47246560325E-01 -0.64285345628E-01 -0.26351051977E-01  0.84020724743E-01  0.51100000000E-03 0. -1.
         11    1    4    4    0    0  0.28201582154E-01 -0.21857563701E-01 -0.23166277156E-01  0.42544328003E-01  0.51100000000E-03 0.  1.
</event>
<event>
 8    1  0.1117714E+005  0.1043930E+01  0.7957747E-01            NaN
         13   -1    0    0    0    0  0.00000000000E+00  0.00000000000E+00  0.74505805969E-08  0.10566000000E+00  0.10566000000E+00 0. -1.
     999900   -1    0    0    0    0 -0.00000000000E+00 -0.00000000000E+00 -0.74505805969E-08  0.93827000000E+00  0.93827000000E+00 0.  1.
     999902    2    1    2    0    0 -0.23371044786E-01 -0.70159619361E-02  0.30841775068E-02  0.10193344393E+01  0.10190376625E+01 0.  0.
     999903    2    3    3    0    0  0.36576796190E-01  0.18417499091E-01 -0.12014006223E+00  0.12836596743E+00  0.19160395296E-01 0.  0.
         14    1    1    2    0    0  0.23371044786E-01  0.70159619361E-02 -0.30841775068E-02  0.24595560721E-01  0.00000000000E+00 0.  1.
     999901    1    3    3    0    0 -0.59947840976E-01 -0.25433461027E-01  0.12322423974E+00  0.89096847185E+00  0.88000000000E+00 0. -1.
        -11    1    4    4    0    0  0.27724671507E-01  0.36302349835E-02 -0.73412895694E-01  0.78559215827E-01  0.51100000000E-03 0. -1.
         11    1    4    4    0    0  0.88521246826E-02  0.14787264107E-01 -0.46727166538E-01  0.49806751599E-01  0.51100000000E-03 0.  1.
</event>
<event>
 8    1  0.1117714E+005  0.1043930E+01  0.7957747E-01            NaN
         13   -1    0    0    0    0  0.00000000000E+00  0.00000000000E+00  0.74505805969E-08  0.10566000000E+00  0.10566000000E+00 0. -1.
     999900   -1    0    0    0    0 -0.00000000000E+00 -0.00000000000E+00 -0.74505805969E-08  0.93827000000E+00  0.93827000000E+00 0.  1.
     999902    2    1    2    0    0 -0.16559946840E-01 -0.15186421902E-01 -0.80482026153E-02  0.10200630183E+01  0.10197837656E+01 0.  0.
     999903    2    3    3    0    0 -0.50865964704E-01  0.37168073168E-01 -0.11377603996E+00  0.13152699113E+00  0.19635429689E-01 0.  0.
         14    1    1    2    0    0  0.16559946840E-01  0.15186421902E-01  0.80482026153E-02  0.23866981687E-01  0.00000000000E+00 0. -1.
     999901    1    3    3    0    0  0.34306017864E-01 -0.52354495070E-01  0.10572783734E+00  0.88853602718E+00  0.88000000000E+00 0. -1.
        -11    1    4    4    0    0 -0.13949073728E-01  0.15333475338E-01 -0.22054563049E-01  0.30271389068E-01  0.51100000000E-03 0.  1.
         11    1    4    4    0    0 -0.36916890976E-01  0.21834597829E-01 -0.91721476907E-01  0.10125560206E+00  0.51100000000E-03 0. -1.
</event>
<event>
 8    1  0.1117714E+005  0.1043930E+01  0.7957747E-01            NaN
         13   -1    0    0    0    0  0.00000000000E+00  0.00000000000E+00  0.74505805969E-08  0.10566000000E+00  0.10566000000E+00 0.  1.
     999900   -1    0    0    0    0 -0.00000000000E+00 -0.00000000000E+00 -0.74505805969E-08  0.93827000000E+00  0.93827000000E+00 0.  1.
     999902    2    1    2    0    0 -0.12221645639E-01 -0.40682655487E-02  0.20123062289E-01  0.10200373852E+01  0.10197575252E+01 0.  0.
     999903    2    3    3    0    0 -0.12239724259E+00  0.16617126942E-01 -0.38701671753E-01  0.13097782759E+00  0.20003950167E-01 0.  0.
         14    1    1    2    0    0  0.12221645639E-01  0.40682655487E-02 -0.20123062289E-01  0.23892614813E-01  0.00000000000E+00 0. -1.
     999901    1    3    3    0    0  0.11017559695E+00 -0.20685392491E-01  0.58824734042E-01  0.88905955760E+00  0.88000000000E+00 0.  1.
        -11    1    4    4    0    0 -0.83751101924E-01  0.37156205308E-02 -0.31735237822E-01  0.89640612169E-01  0.51100000000E-03 0.  1.
         11    1    4    4    0    0 -0.38646140663E-01  0.12901506411E-01 -0.69664339314E-02  0.41337215419E-01  0.51100000000E-03 0. -1.
</event>
<event>
 8    1  0.1117714E+005  0.1043930E+01  0.7957747E-01            NaN
         13   -1    0    0    0    0  0.00000000000E+00  0.00000000000E+00  0.74505805969E-08  0.10566000000E+00  0.10566000000E+00 0. -1.
     999900   -1    0    0    0    0 -0.00000000000E+00 -0.00000000000E+00 -0.74505805969E-08  0.93827000000E+00  0.93827000000E+00 0. -1.
     999902    2    1    2    0    0 -0.20938843421E-01  0.55465539791E-02  0.17599160169E-02  0.10221976111E+01  0.10219665647E+01 0.  0.
     999903    2    3    3    0    0  0.48946348167E-01 -0.11553855518E-01 -0.11910529269E+00  0.13102716570E+00  0.21279352152E-01 0.  0.
         14    1    1    2    0    0  0.20938843421E-01 -0.55465539791E-02 -0.17599160169E-02  0.21732388945E-01  0.00000000000E+00 0.  1.
     999901    1    3    3    0    0 -0.69885191588E-01  0.17100409497E-01  0.12086520870E+00  0.89117044536E+00  0.88000000000E+00 0.  1.
        -11    1    4    4    0    0  0.25716963914E-01 -0.92018813356E-03 -0.82227635259E-01  0.86161790258E-01  0.51100000000E-03 0. -1.
         11    1    4    4    0    0  0.23229384253E-01 -0.10633667384E-01 -0.36877657428E-01  0.44865375437E-01  0.51100000000E-03 0.  1.
</event>
<event>
 8    1  0.1117714E+005  0.1043930E+01  0.7957747E-01            NaN
         13   -1    0    0    0    0  0.00000000000E+00  0.00000000000E+00  0.74505805969E-08  0.10566000000E+00  0.10566000000E+00 0. -1.
     999900   -1    0    0    0    0 -0.00000000000E+00 -0.00000000000E+00 -0.74505805969E-08  0.93827000000E+00  0.93827000000E+00 0.  1.
     999902    2    1    2    0    0 -0.11928603065E-01 -0.10030396100E-02  0.21683151133E-01  0.10191619419E+01  0.10188609361E+01 0.  0.
     999903    2    3    3    0    0  0.11098800513E+00  0.37296312231E-01  0.50014754061E-01  0.12934285205E+00  0.22775986564E-01 0.  0.
         14    1    1    2    0    0  0.11928603065E-01  0.10030396100E-02 -0.21683151133E-01  0.24768058111E-01  0.00000000000E+00 0.  1.
     999901    1    3    3    0    0 -0.12291660819E+00 -0.38299351841E-01 -0.28331602928E-01  0.88981908984E+00  0.88000000000E+00 0. -1.
        -11    1    4    4    0    0  0.40143053548E-01  0.24952352746E-01  0.22416991949E-01  0.52315077222E-01  0.51100000000E-03 0.  1.
         11    1    4    4    0    0  0.70844951579E-01  0.12343959485E-01  0.27597762112E-01  0.77027774826E-01  0.51100000000E-03 0. -1.
</event>
<event>
 8    1  0.1117714E+005  0.1043930E+01  0.7957747E-01            NaN
         13   -1    0    0    0    0  0.00000000000E+00  0.00000000000E+00  0.74505805969E-08  0.10566000000E+00  0.10566000000E+00 0.  1.
     999900   -1    0    0    0    0 -0.00000000000E+00 -0.00000000000E+00 -0.74505805969E-08  0.93827000000E+00  0.93827000000E+00 0. -1.
     999902    2    1    2    0    0 -0.24175406646E-01  0.10992988600E-01 -0.24017354569E-01  0.10081231654E+01  0.10074870655E+01 0.  0.
     999903    2    3    3    0    0 -0.85066351988E-01 -0.56229603753E-01  0.59091768182E-01  0.11956607074E+00  0.20153303146E-01 0.  0.
         14    1    1    2    0    0  0.24175406646E-01 -0.10992988600E-01  0.24017354569E-01  0.35806834618E-01  0.00000000000E+00 0.  1.
     999901    1    3    3    0    0  0.60890945342E-01  0.67222592353E-01 -0.83109122751E-01  0.88855709464E+00  0.88000000000E+00 0.  1.
        -11    1    4    4    0    0 -0.64255025972E-01 -0.47305021522E-01  0.54011413206E-01  0.96353346083E-01  0.51100000000E-03 0.  1.
         11    1    4    4    0    0 -0.20811326016E-01 -0.89245822305E-02  0.50803549759E-02  0.23212724662E-01  0.51100000000E-03 0. -1.
</event>
<event>
 8    1  0.1117714E+005  0.1043930E+01  0.7957747E-01            NaN
         13   -1    0    0    0    0  0.00000000000E+00  0.00000000000E+00  0.74505805969E-08  0.10566000000E+00  0.10566000000E+00 0.  1.
     999900   -1    0    0    0    0 -0.00000000000E+00 -0.00000000000E+00 -0.74505805969E-08  0.93827000000E+00  0.93827000000E+00 0. -1.
     999902    2    1    2    0    0 -0.23059267576E-01  0.67588876953E-03  0.33593530124E-02  0.10206175162E+01  0.10203512349E+01 0.  0.
     999903    2    3    3    0    0  0.89892751054E-01 -0.79495616369E-03  0.90416773175E-01  0.12913598737E+00  0.20483449791E-01 0.  0.
         14    1    1    2    0    0  0.23059267576E-01 -0.67588876953E-03 -0.33593530124E-02  0.23312483768E-01  0.00000000000E+00 0.  1.
     999901    1    3    3    0    0 -0.11295201863E+00  0.14708449332E-02 -0.87057420162E-01  0.89148152886E+00  0.88000000000E+00 0.  1.
        -11    1    4    4    0    0  0.68816501832E-01  0.74896818756E-02  0.63298000684E-01  0.93801408682E-01  0.51100000000E-03 0.  1.
         11    1    4    4    0    0  0.21076249222E-01 -0.82846380393E-02  0.27118772491E-01  0.35334578688E-01  0.51100000000E-03 0. -1.
</event>
<event>
 8    1  0.1117714E+005  0.1043930E+01  0.7957747E-01            NaN
         13   -1    0    0    0    0  0.00000000000E+00  0.00000000000E+00  0.74505805969E-08  0.10566000000E+00  0.10566000000E+00 0.  1.
     999900   -1    0    0    0    0 -0.00000000000E+00 -0.00000000000E+00 -0.74505805969E-08  0.93827000000E+00  0.93827000000E+00 0. -1.
     999902    2    1    2    0    0 -0.10368532743E-01 -0.18302195268E-01  0.82806314830E-02  0.10213236805E+01  0.10210734620E+01 0.  0.
     999903    2    3    3    0    0 -0.43057829109E-01 -0.24551231715E-01 -0.11996753417E+00  0.13140501426E+00  0.20453090066E-01 0.  0.
         14    1    1    2    0    0  0.10368532743E-01  0.18302195268E-01 -0.82806314830E-02  0.22606319484E-01  0.00000000000E+00 0. -1.
     999901    1    3    3    0    0  0.32689296366E-01  0.62490364471E-02  0.12824816565E+00  0.88991866625E+00  0.88000000000E+00 0.  1.
        -11    1    4    4    0    0 -0.26974247086E-01 -0.67961639944E-02 -0.47153953652E-01  0.54749925269E-01  0.51100000000E-03 0. -1.
         11    1    4    4    0    0 -0.16083582023E-01 -0.17755067721E-01 -0.72813580514E-01  0.76655088994E-01  0.51100000000E-03 0.  1.
</event>
<event>
 8    1  0.1117714E+005  0.1043930E+01  0.7957747E-01            NaN
         13   -1    0    0    0    0  0.00000000000E+00  0.00000000000E+00  0.74505805969E-08  0.10566000000E+00  0.10566000000E+00 0.  1.
     999900   -1    0    0    0    0 -0.00000000000E+00 -0.00000000000E+00 -0.74505805969E-08  0.93827000000E+00  0.93827000000E+00 0.  1.
     999902    2    1    2    0    0 -0.21391329213E-01 -0.91326601892E-02 -0.10303075560E-01  0.10184908999E+01  0.10181731510E+01 0.  0.
     999903    2    3    3    0    0  0.46271293779E-01  0.51270791918E-01 -0.10662279446E+00  0.12860085286E+00  0.20000808137E-01 0.  0.
         14    1    1    2    0    0  0.21391329213E-01  0.91326601892E-02  0.10303075560E-01  0.25439100095E-01  0.00000000000E+00 0. -1.
     999901    1    3    3    0    0 -0.67662622992E-01 -0.60403452107E-01  0.96319718903E-01  0.88989004704E+00  0.88000000000E+00 0. -1.
        -11    1    4    4    0    0  0.16751760281E-01  0.83774654318E-02 -0.38862851864E-01  0.43143780265E-01  0.51100000000E-03 0.  1.
         11    1    4    4    0    0  0.29519533498E-01  0.42893326486E-01 -0.67759942598E-01  0.85457072597E-01  0.51100000000E-03 0. -1.
</event>
<event>
 8    1  0.1117714E+005  0.1043930E+01  0.7957747E-01            NaN
         13   -1    0    0    0    0  0.00000000000E+00  0.00000000000E+00  0.74505805969E-08  0.10566000000E+00  0.10566000000E+00 0. -1.
     999900   -1    0    0    0    0 -0.00000000000E+00 -0.00000000000E+00 -0.74505805969E-08  0.93827000000E+00  0.93827000000E+00 0.  1.
     999902    2    1    2    0    0  0.28031386086E-02 -0.22827543265E-01 -0.54044225532E-02  0.10203045455E+01  0.10200309816E+01 0.  0.
     999903    2    3    3    0    0  0.12924599019E+00 -0.81736386502E-02  0.55703384052E-02  0.13107849042E+00  0.19473254279E-01 0.  0.
         14    1    1    2    0    0 -0.28031386086E-02  0.22827543265E-01  0.54044225532E-02  0.23625454508E-01  0.00000000000E+00 0. -1.
     999901    1    3    3    0    0 -0.12644285158E+00 -0.14653904615E-01 -0.10974760958E-01  0.88922605507E+00  0.88000000000E+00 0. -1.
        -11    1    4    4    0    0  0.34809681801E-01 -0.68969341023E-04  0.99032829870E-02  0.36194679703E-01  0.51100000000E-03 0.  1.
         11    1    4    4    0    0  0.94436308390E-01 -0.81046693092E-02 -0.43329445818E-02  0.94883810719E-01  0.51100000000E-03 0. -1.
</event>
<event>
 8    1  0.1117714E+005  0.1043930E+01  0.7957747E-01            NaN
         13   -1    0    0    0    0  0.00000000000E+00  0.00000000000E+00  0.74505805969E-08  0.10566000000E+00  0.10566000000E+00 0.  1.
     999900   -1    0    0    0    0 -0.00000000000E+00 -0.00000000000E+00 -0.74505805969E-08  0.93827000000E+00  0.93827000000E+00 0.  1.
     999902    2    1    2    0    0 -0.31320519477E-02  0.18207227067E-01  0.14727340205E-01  0.10203035865E+01  0.10200300001E+01 0.  0.
     999903    2    3    3    0    0  0.26445711865E-01  0.12765964754E+00  0.16978746080E-01  0.13302699752E+00  0.20286521770E-01 0.  0.
         14    1    1    2    0    0  0.31320519477E-02 -0.18207227067E-01 -0.14727340205E-01  0.23626413532E-01  0.00000000000E+00 0. -1.
     999901    1    3    3    0    0 -0.29577763812E-01 -0.10945242047E+00 -0.22514058742E-02  0.88727658894E+00  0.88000000000E+00 0.  1.
        -11    1    4    4    0    0  0.20981865702E-01  0.91086454863E-01  0.21070814089E-01  0.95818689593E-01  0.51100000000E-03 0.  1.
         11    1    4    4    0    0  0.54638461625E-02  0.36573192677E-01 -0.40920680092E-02  0.37208307931E-01  0.51100000000E-03 0. -1.
</event>
<event>
 8    1  0.1117714E+005  0.1043930E+01  0.7957747E-01            NaN
         13   -1    0    0    0    0  0.00000000000E+00  0.00000000000E+00  0.74505805969E-08  0.10566000000E+00  0.10566000000E+00 0. -1.
     999900   -1    0    0    0    0 -0.00000000000E+00 -0.00000000000E+00 -0.74505805969E-08  0.93827000000E+00  0.93827000000E+00 0.  1.
     999902    2    1    2    0    0 -0.20784144031E-01 -0.19714307553E-02  0.10214345977E-01  0.10206877960E+01  0.10204231362E+01 0.  0.
     999903    2    3    3    0    0 -0.70111541453E-01  0.10467980460E+00  0.36362563074E-01  0.13249220528E+00  0.18933006400E-01 0.  0.
         14    1    1    2    0    0  0.20784144031E-01  0.19714307553E-02 -0.10214345977E-01  0.23242203985E-01  0.00000000000E+00 0.  1.
     999901    1    3    3    0    0  0.49327397422E-01 -0.10665123536E+00 -0.26148217097E-01  0.88819559073E+00  0.88000000000E+00 0.  1.
        -11    1    4    4    0    0 -0.25426062466E-01  0.40560592445E-01  0.44782427544E-02  0.48082866920E-01  0.51100000000E-03 0. -1.
         11    1    4    4    0    0 -0.44685478987E-01  0.64119212154E-01  0.31884320320E-01  0.84409338363E-01  0.51100000000E-03 0.  1.
</event>
<event>
 8    1  0.1117714E+005  0.1043930E+01  0.7957747E-01            NaN
         13   -1    0    0    0    0  0.00000000000E+00  0.00000000000E+00  0.74505805969E-08  0.10566000000E+00  0.10566000000E+00 0. -1.
     999900   -1    0    0    0    0 -0.00000000000E+00 -0.00000000000E+00 -0.74505805969E-08  0.93827000000E+00  0.93827000000E+00 0.  1.
     999902    2    1    2    0    0 -0.23669030278E-01  0.41442082472E-03 -0.35053056841E-02  0.10199992268E+01  0.10197184615E+01 0.  0.
     999903    2    3    3    0    0  0.69879991127E-01 -0.34122804758E-01 -0.10086897509E+00  0.12903125683E+00  0.20662433064E-01 0.  0.
         14    1    1    2    0    0  0.23669030278E-01 -0.41442082472E-03  0.35053056841E-02  0.23930773219E-01  0.00000000000E+00 0. -1.
     999901    1    3    3    0    0 -0.93549021406E-01  0.34537225583E-01  0.97363669401E-01  0.89096796995E+00  0.88000000000E+00 0. -1.
        -11    1    4    4    0    0  0.18966657280E-01  0.19570778268E-03 -0.26432887111E-01  0.32538147334E-01  0.51100000000E-03 0. -1.
         11    1    4    4    0    0  0.50913333847E-01 -0.34318512541E-01 -0.74436087975E-01  0.96493109497E-01  0.51100000000E-03 0.  1.
</event>
<event>
 8    1  0.1117714E+005  0.1043930E+01  0.7957747E-01            NaN
         13   -1    0    0    0    0  0.00000000000E+00  0.00000000000E+00  0.74505805969E-08  0.10566000000E+00  0.10566000000E+00 0.  1.
     999900   -1    0    0    0    0 -0.00000000000E+00 -0.00000000000E+00 -0.74505805969E-08  0.93827000000E+00  0.93827000000E+00 0. -1.
     999902    2    1    2    0    0 -0.18968572673E-01 -0.12681237921E-01  0.49891178102E-02  0.10205738051E+01  0.10203065127E+01 0.  0.
     999903    2    3    3    0    0  0.77477462950E-01 -0.89303135065E-01 -0.50857721000E-01  0.13024149504E+00  0.19963267427E-01 0.  0.
         14    1    1    2    0    0  0.18968572673E-01  0.12681237921E-01 -0.49891178102E-02  0.23356194916E-01  0.00000000000E+00 0.  1.
     999901    1    3    3    0    0 -0.96446035623E-01  0.76621897144E-01  0.55846838810E-01  0.89033231005E+00  0.88000000000E+00 0.  1.
        -11    1    4    4    0    0  0.17429875996E-01 -0.24547174975E-01 -0.22147274965E-01  0.37378165898E-01  0.51100000000E-03 0. -1.
         11    1    4    4    0    0  0.60047586954E-01 -0.64755960090E-01 -0.28710446034E-01  0.92863329138E-01  0.51100000000E-03 0.  1.
</event>
<event>
 8    1  0.1117714E+005  0.1043930E+01  0.7957747E-01            NaN
         13   -1    0    0    0    0  0.00000000000E+00  0.00000000000E+00  0.74505805969E-08  0.10566000000E+00  0.10566000000E+00 0. -1.
     999900   -1    0    0    0    0 -0.00000000000E+00 -0.00000000000E+00 -0.74505805969E-08  0.93827000000E+00  0.93827000000E+00 0. -1.
     999902    2    1    2    0    0  0.13754533742E-01 -0.13163502360E-01 -0.19413764690E-01  0.10167388387E+01  0.10163751802E+01 0.  0.
     999903    2    3    3    0    0  0.11312303689E+00 -0.58428241697E-01  0.11491583231E-01  0.12945188593E+00  0.20372858979E-01 0.  0.
         14    1    1    2    0    0 -0.13754533742E-01  0.13163502360E-01  0.19413764690E-01  0.27191161289E-01  0.00000000000E+00 0. -1.
     999901    1    3    3    0    0 -0.99368503147E-01  0.45264739338E-01 -0.30905347921E-01  0.88728695278E+00  0.88000000000E+00 0. -1.
        -11    1    4    4    0    0  0.34565142004E-01 -0.13896071141E-01 -0.52007667993E-02  0.37618598209E-01  0.51100000000E-03 0. -1.
         11    1    4    4    0    0  0.78557894884E-01 -0.44532170556E-01  0.16692350030E-01  0.91833287720E-01  0.51100000000E-03 0.  1.
</event>
<event>
 8    1  0.1117714E+005  0.1043930E+01  0.7957747E-01            NaN
         13   -1    0    0    0    0  0.00000000000E+00  0.00000000000E+00  0.74505805969E-08  0.10566000000E+00  0.10566000000E+00 0.  1.
     999900   -1    0    0    0    0 -0.00000000000E+00 -0.00000000000E+00 -0.74505805969E-08  0.93827000000E+00  0.93827000000E+00 0.  1.
     999902    2    1    2    0    0 -0.37072859875E-02 -0.13983213576E-01  0.18292914820E-01  0.10206082298E+01  0.10203417338E+01 0.  0.
     999903    2    3    3    0    0 -0.18522954254E-01 -0.12767856302E+00  0.25781053686E-01  0.13313867613E+00  0.20404143325E-01 0.  0.
         14    1    1    2    0    0  0.37072859875E-02  0.13983213576E-01 -0.18292914820E-01  0.23321770171E-01  0.00000000000E+00 0. -1.
     999901    1    3    3    0    0  0.14815668266E-01  0.11369534944E+00 -0.74881388661E-02  0.88746955369E+00  0.88000000000E+00 0.  1.
        -11    1    4    4    0    0 -0.14762479553E-01 -0.46606840738E-01  0.37180708632E-02  0.49032780648E-01  0.51100000000E-03 0.  1.
         11    1    4    4    0    0 -0.37604747010E-02 -0.81071722281E-01  0.22062982823E-01  0.84105895487E-01  0.51100000000E-03 0. -1.
</event>
<event>
 8    1  0.1117714E+005  0.1043930E+01  0.7957747E-01            NaN
         13   -1    0    0    0    0  0.00000000000E+00  0.00000000000E+00  0.74505805969E-08  0.10566000000E+00  0.10566000000E+00 0. -1.
     999900   -1    0    0    0    0 -0.00000000000E+00 -0.00000000000E+00 -0.74505805969E-08  0.93827000000E+00  0.93827000000E+00 0.  1.
     999902    2    1    2    0    0 -0.10763739217E-01  0.59521428102E-02 -0.19722058922E-01  0.10206868140E+01  0.10204221316E+01 0.  0.
     999903    2    3    3    0    0 -0.74004848865E-01 -0.77206186676E-01 -0.75846142828E-01  0.13273148942E+00  0.20676024383E-01 0.  0.
         14    1    1    2    0    0  0.10763739217E-01 -0.59521428102E-02  0.19722058922E-01  0.23243185971E-01  0.00000000000E+00 0. -1.
     999901    1    3    3    0    0  0.63241109648E-01  0.83158329487E-01  0.56124083907E-01  0.88795532461E+00  0.88000000000E+00 0. -1.
        -11    1    4    4    0    0 -0.73270403943E-01 -0.70767932990E-01 -0.74200459274E-01  0.12602627389E+00  0.51100000000E-03 0. -1.
         11    1    4    4    0    0 -0.73444492188E-03 -0.64382536862E-02 -0.16456835540E-02  0.67052155246E-02  0.51100000000E-03 0.  1.
</event>
<event>
 8    1  0.1117714E+005  0.1043930E+01  0.7957747E-01            NaN
         13   -1    0    0    0    0  0.00000000000E+00  0.00000000000E+00  0.74505805969E-08  0.10566000000E+00  0.10566000000E+00 0. -1.
     999900   -1    0    0    0    0 -0.00000000000E+00 -0.00000000000E+00 -0.74505805969E-08  0.93827000000E+00  0.93827000000E+00 0.  1.
     999902    2    1    2    0    0 -0.11725591719E-02 -0.23330566926E-01 -0.41328176170E-02  0.10202072171E+01  0.10199313680E+01 0.  0.
     999903    2    3    3    0    0  0.11054185867E+00  0.67609082599E-04 -0.66588784009E-01  0.13064084320E+00  0.20333633876E-01 0.  0.
         14    1    1    2    0    0  0.11725591719E-02  0.23330566926E-01  0.41328176170E-02  0.23722782922E-01  0.00000000000E+00 0.  1.
     999901    1    3    3    0    0 -0.11171441784E+00 -0.23398176009E-01  0.62455966392E-01  0.88956637388E+00  0.88000000000E+00 0. -1.
        -11    1    4    4    0    0  0.12049948298E-01 -0.60574092051E-02 -0.54651449369E-02  0.14560988649E-01  0.51100000000E-03 0. -1.
         11    1    4    4    0    0  0.98491910375E-01  0.61250182877E-02 -0.61123639072E-01  0.11607985455E+00  0.51100000000E-03 0.  1.
</event>
<event>
 8    1  0.1117714E+005  0.1043930E+01  0.7957747E-01            NaN
         13   -1    0    0    0    0  0.00000000000E+00  0.00000000000E+00  0.74505805969E-08  0.10566000000E+00  0.10566000000E+00 0. -1.
     999900   -1    0    0    0    0 -0.00000000000E+00 -0.00000000000E+00 -0.74505805969E-08  0.93827000000E+00  0.93827000000E+00 0. -1.
     999902    2    1    2    0    0  0.12180637418E-01  0.19884559497E-01  0.16292939388E-02  0.10205544095E+01  0.10202866678E+01 0.  0.
     999903    2    3    3    0    0  0.15095351039E-01 -0.23499945326E-01  0.12612769453E+00  0.13072826770E+00  0.20039151515E-01 0.  0.
         14    1    1    2    0    0 -0.12180637418E-01 -0.19884559497E-01 -0.16292939388E-02  0.23375590539E-01  0.00000000000E+00 0.  1.
     999901    1    3    3    0    0 -0.29147136213E-02  0.43384504824E-01 -0.12449840060E+00  0.88982614176E+00  0.88000000000E+00 0. -1.
        -11    1    4    4    0    0  0.13834973598E-02 -0.47792615589E-02  0.67323227217E-01  0.67508765727E-01  0.51100000000E-03 0. -1.
         11    1    4    4    0    0  0.13711853680E-01 -0.18720683768E-01  0.58804467317E-01  0.63219501971E-01  0.51100000000E-03 0.  1.
</event>
<event>
 8    1  0.1117714E+005  0.1043930E+01  0.7957747E-01            NaN
         13   -1    0    0    0    0  0.00000000000E+00  0.00000000000E+00  0.74505805969E-08  0.10566000000E+00  0.10566000000E+00 0.  1.
     999900   -1    0    0    0    0 -0.00000000000E+00 -0.00000000000E+00 -0.74505805969E-08  0.93827000000E+00  0.93827000000E+00 0.  1.
     999902    2    1    2    0    0  0.78053586762E-02  0.12174001482E-01  0.21835607842E-01  0.10177398548E+01  0.10174028152E+01 0.  0.
     999903    2    3    3    0    0  0.68995388106E-01  0.93999323941E-01 -0.51203461315E-01  0.12882236215E+00  0.19420866585E-01 0.  0.
         14    1    1    2    0    0 -0.78053586762E-02 -0.12174001482E-01 -0.21835607842E-01  0.26190145207E-01  0.00000000000E+00 0. -1.
     999901    1    3    3    0    0 -0.61190029430E-01 -0.81825322459E-01  0.73039069157E-01  0.88891749264E+00  0.88000000000E+00 0. -1.
        -11    1    4    4    0    0  0.40603076304E-01  0.64906930846E-01 -0.25376430161E-01  0.80658191189E-01  0.51100000000E-03 0.  1.
         11    1    4    4    0    0  0.28392311802E-01  0.29092393095E-01 -0.25827031154E-01  0.48164170964E-01  0.51100000000E-03 0. -1.
</event>
<event>
 8    1  0.1117714E+005  0.1043930E+01  0.7957747E-01            NaN
         13   -1    0    0    0    0  0.00000000000E+00  0.00000000000E+00  0.74505805969E-08  0.10566000000E+00  0.10566000000E+00 0. -1.
     999900   -1    0    0    0    0 -0.00000000000E+00 -0.00000000000E+00 -0.74505805969E-08  0.93827000000E+00  0.93827000000E+00 0.  1.
     999902    2    1    2    0    0  0.14152615053E-01 -0.18652095056E-01  0.96803696376E-02  0.10185941219E+01  0.10182789787E+01 0.  0.
     999903    2    3    3    0    0  0.10432054497E+00 -0.89145781054E-02  0.76817292752E-01  0.13138927449E+00  0.19999979470E-01 0.  0.
         14    1    1    2    0    0 -0.14152615053E-01  0.18652095056E-01 -0.96803696376E-02  0.25335878101E-01  0.00000000000E+00 0. -1.
     999901    1    3    3    0    0 -0.90167929920E-01 -0.97375169503E-02 -0.67136923115E-01  0.88720484741E+00  0.88000000000E+00 0.  1.
        -11    1    4    4    0    0  0.28073498495E-01 -0.11340682180E-01  0.20562759327E-01  0.36603559693E-01  0.51100000000E-03 0.  1.
         11    1    4    4    0    0  0.76247046478E-01  0.24261040743E-02  0.56254533426E-01  0.94785714797E-01  0.51100000000E-03 0. -1.
</event>
<event>
 8    1  0.1117714E+005  0.1043930E+01  0.7957747E-01            NaN
         13   -1    0    0    0    0  0.00000000000E+00  0.00000000000E+00  0.74505805969E-08  0.10566000000E+00  0.10566000000E+00 0.  1.
     999900   -1    0    0    0    0 -0.00000000000E+00 -0.00000000000E+00 -0.74505805969E-08  0.93827000000E+00  0.93827000000E+00 0.  1.
     999902    2    1    2    0    0 -0.14645765728E-01 -0.10829514188E-01 -0.15180265630E-01  0.10202188782E+01  0.10199433034E+01 0.  0.
     999903    2    3    3    0    0 -0.54733941318E-01 -0.55647589759E-01 -0.10615641671E+00  0.13348758759E+00  0.21384402104E-01 0.  0.
         14    1    1    2    0    0  0.14645765728E-01  0.10829514188E-01  0.15180265630E-01  0.23711121777E-01  0.00000000000E+00 0.  1.
     999901    1    3    3    0    0  0.40088175589E-01  0.44818075571E-01  0.90976151083E-01  0.88673129063E+00  0.88000000000E+00 0. -1.
        -11    1    4    4    0    0 -0.10939605889E-01 -0.19176839345E-01 -0.43517430152E-01  0.48800143364E-01  0.51100000000E-03 0.  1.
         11    1    4    4    0    0 -0.43794335428E-01 -0.36470750414E-01 -0.62638986561E-01  0.84687444227E-01  0.51100000000E-03 0. -1.
</event>
<event>
 8    1  0.1117714E+005  0.1043930E+01  0.7957747E-01            NaN
         13   -1    0    0    0    0  0.00000000000E+00  0.00000000000E+00  0.74505805969E-08  0.10566000000E+00  0.10566000000E+00 0. -1.
     999900   -1    0    0    0    0 -0.00000000000E+00 -0.00000000000E+00 -0.74505805969E-08  0.93827000000E+00  0.93827000000E+00 0. -1.
     999902    2    1    2    0    0 -0.12112201272E-01  0.42805803839E-02  0.24584856094E-01  0.10161911475E+01  0.10158124848E+01 0.  0.
     999903    2    3    3    0    0 -0.57939630417E-01  0.12374196705E-01  0.11441255489E+00  0.13039507879E+00  0.20062959400E-01 0.  0.
         14    1    1    2    0    0  0.12112201272E-01 -0.42805803839E-02 -0.24584856094E-01  0.27738852486E-01  0.00000000000E+00 0.  1.
     999901    1    3    3    0    0  0.45827429145E-01 -0.80936163211E-02 -0.89827698798E-01  0.88579606872E+00  0.88000000000E+00 0. -1.
        -11    1    4    4    0    0 -0.14349017150E-01  0.83071516458E-02  0.48567967894E-01  0.51322623549E-01  0.51100000000E-03 0.  1.
         11    1    4    4    0    0 -0.43590613267E-01  0.40670450592E-02  0.65844586998E-01  0.79072455245E-01  0.51100000000E-03 0. -1.
</event>
<event>
 8    1  0.1117714E+005  0.1043930E+01  0.7957747E-01            NaN
         13   -1    0    0    0    0  0.00000000000E+00  0.00000000000E+00  0.74505805969E-08  0.10566000000E+00  0.10566000000E+00 0.  1.
     999900   -1    0    0    0    0 -0.00000000000E+00 -0.00000000000E+00 -0.74505805969E-08  0.93827000000E+00  0.93827000000E+00 0. -1.
     999902    2    1    2    0    0 -0.43293414235E-02  0.21662622206E-01  0.88539181103E-02  0.10201307508E+01  0.10198530994E+01 0.  0.
     999903    2    3    3    0    0  0.84926543115E-01  0.37278736245E-02 -0.95335144989E-01  0.12932009244E+00  0.20210929485E-01 0.  0.
         14    1    1    2    0    0  0.43293414235E-02 -0.21662622206E-01 -0.88539181103E-02  0.23799249230E-01  0.00000000000E+00 0.  1.
     999901    1    3    3    0    0 -0.89255884538E-01  0.17934748581E-01  0.10418906310E+00  0.89081065833E+00  0.88000000000E+00 0.  1.
        -11    1    4    4    0    0  0.22533316365E-01  0.15124250362E-02 -0.39782276497E-01  0.45748534624E-01  0.51100000000E-03 0. -1.
         11    1    4    4    0    0  0.62393226750E-01  0.22154485883E-02 -0.55552868491E-01  0.83571557813E-01  0.51100000000E-03 0.  1.
</event>
<event>
 8    1  0.1117714E+005  0.1043930E+01  0.7957747E-01            NaN
         13   -1    0    0    0    0  0.00000000000E+00  0.00000000000E+00  0.74505805969E-08  0.10566000000E+00  0.10566000000E+00 0.  1.
     999900   -1    0    0    0    0 -0.00000000000E+00 -0.00000000000E+00 -0.74505805969E-08  0.93827000000E+00  0.93827000000E+00 0.  1.
     999902    2    1    2    0    0  0.67075361076E-02 -0.14013064281E-01  0.17628826451E-01  0.10204324994E+01  0.10201619251E+01 0.  0.
     999903    2    3    3    0    0  0.12489074117E+00  0.29234351112E-01 -0.17744573698E-01  0.13077588796E+00  0.18306241038E-01 0.  0.
         14    1    1    2    0    0 -0.67075361076E-02  0.14013064281E-01 -0.17628826451E-01  0.23497500574E-01  0.00000000000E+00 0. -1.
     999901    1    3    3    0    0 -0.11818320506E+00 -0.43247415393E-01  0.35373400149E-01  0.88965661147E+00  0.88000000000E+00 0. -1.
        -11    1    4    4    0    0  0.55412659309E-01  0.12169841716E-01 -0.16997878718E-01  0.59227163203E-01  0.51100000000E-03 0.  1.
         11    1    4    4    0    0  0.69478081856E-01  0.17064509396E-01 -0.74669498051E-03  0.71548724752E-01  0.51100000000E-03 0. -1.
</event>
<event>
 8    1  0.1117714E+005  0.1043930E+01  0.7957747E-01            NaN
         13   -1    0    0    0    0  0.00000000000E+00  0.00000000000E+00  0.74505805969E-08  0.10566000000E+00  0.10566000000E+00 0. -1.
     999900   -1    0    0    0    0 -0.00000000000E+00 -0.00000000000E+00 -0.74505805969E-08  0.93827000000E+00  0.93827000000E+00 0.  1.
     999902    2    1    2    0    0  0.14296047555E-01 -0.17171727530E-01  0.42782700926E-02  0.10211803012E+01  0.10209268626E+01 0.  0.
     999903    2    3    3    0    0 -0.12134932451E-01 -0.11115441420E+00 -0.68341763101E-01  0.13280818807E+00  0.21560562470E-01 0.  0.
         14    1    1    2    0    0 -0.14296047555E-01  0.17171727530E-01 -0.42782700926E-02  0.22749698834E-01  0.00000000000E+00 0.  1.
     999901    1    3    3    0    0  0.26430980005E-01  0.93982686671E-01  0.72620033193E-01  0.88837211309E+00  0.88000000000E+00 0. -1.
        -11    1    4    4    0    0 -0.22353783827E-02 -0.49392508336E-01 -0.18377095667E-01  0.52750313387E-01  0.51100000000E-03 0.  1.
         11    1    4    4    0    0 -0.98995540678E-02 -0.61761905865E-01 -0.49964667433E-01  0.80057874688E-01  0.51100000000E-03 0. -1.
</event>
<event>
 8    1  0.1117714E+005  0.1043930E+01  0.7957747E-01            NaN
         13   -1    0    0    0    0  0.00000000000E+00  0.00000000000E+00  0.74505805969E-08  0.10566000000E+00  0.10566000000E+00 0.  1.
     999900   -1    0    0    0    0 -0.00000000000E+00 -0.00000000000E+00 -0.74505805969E-08  0.93827000000E+00  0.93827000000E+00 0.  1.
     999902    2    1    2    0    0  0.96271908182E-02  0.10340815933E-01 -0.19316609433E-01  0.10199978735E+01  0.10197170761E+01 0.  0.
     999903    2    3    3    0    0 -0.51886873480E-01 -0.12789877079E-01  0.11458082375E+00  0.12744673680E+00  0.16064773779E-01 0.  0.
         14    1    1    2    0    0 -0.96271908182E-02 -0.10340815933E-01  0.19316609433E-01  0.23932126466E-01  0.00000000000E+00 0.  1.
     999901    1    3    3    0    0  0.61514064299E-01  0.23130693012E-01 -0.13389743318E+00  0.89255113673E+00  0.88000000000E+00 0.  1.
        -11    1    4    4    0    0 -0.36902424921E-01 -0.10267379317E-01  0.96486095553E-01  0.10381250310E+00  0.51100000000E-03 0. -1.
         11    1    4    4    0    0 -0.14984448559E-01 -0.25224977623E-02  0.18094728192E-01  0.23634233708E-01  0.51100000000E-03 0.  1.
</event>
<event>
 8    1  0.1117714E+005  0.1043930E+01  0.7957747E-01            NaN
         13   -1    0    0    0    0  0.00000000000E+00  0.00000000000E+00  0.74505805969E-08  0.10566000000E+00  0.10566000000E+00 0. -1.
     999900   -1    0    0    0    0 -0.00000000000E+00 -0.00000000000E+00 -0.74505805969E-08  0.93827000000E+00  0.93827000000E+00 0. -1.
     999902    2    1    2    0    0  0.58370338312E-02  0.16332208005E-01 -0.16332988264E-01  0.10201060942E+01  0.10198278604E+01 0.  0.
     999903    2    3    3    0    0  0.84379665185E-01 -0.75662602738E-01 -0.62624370465E-01  0.13062597513E+00  0.17221389388E-01 0.  0.
         14    1    1    2    0    0 -0.58370338312E-02 -0.16332208005E-01  0.16332988264E-01  0.23823905807E-01  0.00000000000E+00 0. -1.
     999901    1    3    3    0    0 -0.78542631354E-01  0.91994810743E-01  0.46291382201E-01  0.88948011906E+00  0.88000000000E+00 0.  1.
        -11    1    4    4    0    0  0.50922297244E-01 -0.43253420362E-01 -0.27357556548E-01  0.72198585519E-01  0.51100000000E-03 0.  1.
         11    1    4    4    0    0  0.33457367941E-01 -0.32409182376E-01 -0.35266813917E-01  0.58427389611E-01  0.51100000000E-03 0. -1.
</event>
<event>
 8    1  0.1117714E+005  0.1043930E+01  0.7957747E-01            NaN
         13   -1    0    0    0    0  0.00000000000E+00  0.00000000000E+00  0.74505805969E-08  0.10566000000E+00  0.10566000000E+00 0.  1.
     999900   -1    0    0    0    0 -0.00000000000E+00 -0.00000000000E+00 -0.74505805969E-08  0.93827000000E+00  0.93827000000E+00 0. -1.
     999902    2    1    2    0    0 -0.48609834395E-02 -0.36186210485E-02  0.22885913760E-01  0.10202553590E+01  0.10199806414E+01 0.  0.
     999903    2    3    3    0    0 -0.55322401053E-01  0.31996144040E-01  0.11531057124E+00  0.13326207634E+00  0.19440469637E-01 0.  0.
         14    1    1    2    0    0  0.48609834395E-02  0.36186210485E-02 -0.22885913760E-01  0.23674641009E-01  0.00000000000E+00 0. -1.
     999901    1    3    3    0    0  0.50461417613E-01 -0.35614765088E-01 -0.92424657477E-01  0.88699328265E+00  0.88000000000E+00 0. -1.
        -11    1    4    4    0    0 -0.32870995146E-01  0.29560125072E-01  0.76030900679E-01  0.87950339938E-01  0.51100000000E-03 0. -1.
         11    1    4    4    0    0 -0.22451405906E-01  0.24360189681E-02  0.39279670558E-01  0.45311736401E-01  0.51100000000E-03 0.  1.
</event>
<event>
 8    1  0.1117714E+005  0.1043930E+01  0.7957747E-01            NaN
         13   -1    0    0    0    0  0.00000000000E+00  0.00000000000E+00  0.74505805969E-08  0.10566000000E+00  0.10566000000E+00 0.  1.
     999900   -1    0    0    0    0 -0.00000000000E+00 -0.00000000000E+00 -0.74505805969E-08  0.93827000000E+00  0.93827000000E+00 0. -1.
     999902    2    1    2    0    0 -0.19759769351E-01  0.26688812038E-02 -0.83569060370E-02  0.10223103494E+01  0.10220817195E+01 0.  0.
     999903    2    3    3    0    0  0.23317324582E-01  0.12841886447E+00 -0.91196667592E-02  0.13232761022E+00  0.19807213995E-01 0.  0.
         14    1    1    2    0    0  0.19759769351E-01 -0.26688812038E-02  0.83569060370E-02  0.21619650557E-01  0.00000000000E+00 0.  1.
     999901    1    3    3    0    0 -0.43077093933E-01 -0.12574998327E+00  0.76276072222E-03  0.88998273922E+00  0.88000000000E+00 0.  1.
        -11    1    4    4    0    0  0.22996826391E-01  0.11421094203E+00 -0.22295818504E-02  0.11652564292E+00  0.51100000000E-03 0. -1.
         11    1    4    4    0    0  0.32049819109E-03  0.14207922447E-01 -0.68900849088E-02  0.15801967295E-01  0.51100000000E-03 0.  1.
</event>
<event>
 8    1  0.1117714E+005  0.1043930E+01  0.7957747E-01            NaN
         13   -1    0    0    0    0  0.00000000000E+00  0.00000000000E+00  0.74505805969E-08  0.10566000000E+00  0.10566000000E+00 0.  1.
     999900   -1    0    0    0    0 -0.00000000000E+00 -0.00000000000E+00 -0.74505805969E-08  0.93827000000E+00  0.93827000000E+00 0.  1.
     999902    2    1    2    0    0 -0.21894886308E-01  0.22805203624E-02  0.89628089435E-02  0.10201619802E+01  0.10198850657E+01 0.  0.
     999903    2    3    3    0    0 -0.20162895910E-02  0.16229305990E-01 -0.12699400578E+00  0.12939041429E+00  0.18626486746E-01 0.  0.
         14    1    1    2    0    0  0.21894886308E-01 -0.22805203624E-02 -0.89628089435E-02  0.23768019769E-01  0.00000000000E+00 0. -1.
     999901    1    3    3    0    0 -0.19878596717E-01 -0.13948785628E-01  0.13595681472E+00  0.89077156595E+00  0.88000000000E+00 0. -1.
        -11    1    4    4    0    0 -0.34440132170E-02 -0.10085686596E-02 -0.62813511183E-01  0.62918016068E-01  0.51100000000E-03 0.  1.
         11    1    4    4    0    0  0.14277236259E-02  0.17237874650E-01 -0.64180494597E-01  0.66472398218E-01  0.51100000000E-03 0. -1.
</event>
<event>
 8    1  0.1117714E+005  0.1043930E+01  0.7957747E-01            NaN
         13   -1    0    0    0    0  0.00000000000E+00  0.00000000000E+00  0.74505805969E-08  0.10566000000E+00  0.10566000000E+00 0.  1.
     999900   -1    0    0    0    0 -0.00000000000E+00 -0.00000000000E+00 -0.74505805969E-08  0.93827000000E+00  0.93827000000E+00 0.  1.
     999902    2    1    2    0    0  0.64138802887E-02 -0.14257358242E-01 -0.18145937487E-01  0.10199782741E+01  0.10196970111E+01 0.  0.
     999903    2    3    3    0    0  0.34893247696E-01  0.35976469703E-01 -0.12063318822E+00  0.13215050458E+00  0.19988613087E-01 0.  0.
         14    1    1    2    0    0 -0.64138802887E-02  0.14257358242E-01  0.18145937487E-01  0.23951725860E-01  0.00000000000E+00 0.  1.
     999901    1    3    3    0    0 -0.28479367407E-01 -0.50233827945E-01  0.10248725074E+00  0.88782776956E+00  0.88000000000E+00 0. -1.
        -11    1    4    4    0    0  0.31253397188E-01  0.37470220884E-01 -0.10162719092E+00  0.11273481869E+00  0.51100000000E-03 0.  1.
         11    1    4    4    0    0  0.36398505083E-02 -0.14937511806E-02 -0.19005997300E-01  0.19415685892E-01  0.51100000000E-03 0. -1.
</event>
<event>
 8    1  0.1117714E+005  0.1043930E+01  0.7957747E-01            NaN
         13   -1    0    0    0    0  0.00000000000E+00  0.00000000000E+00  0.74505805969E-08  0.10566000000E+00  0.10566000000E+00 0.  1.
     999900   -1    0    0    0    0 -0.00000000000E+00 -0.00000000000E+00 -0.74505805969E-08  0.93827000000E+00  0.93827000000E+00 0. -1.
     999902    2    1    2    0    0  0.12630458047E-01 -0.14697342341E-01  0.14444331918E-01  0.10197602034E+01  0.10194737336E+01 0.  0.
     999903    2    3    3    0    0  0.12169897557E+00  0.88365793991E-02  0.46465474381E-01  0.13213689336E+00  0.20307449064E-01 0.  0.
         14    1    1    2    0    0 -0.12630458047E-01  0.14697342341E-01 -0.14444331918E-01  0.24169796584E-01  0.00000000000E+00 0. -1.
     999901    1    3    3    0    0 -0.10906851752E+00 -0.23533921740E-01 -0.32021142462E-01  0.88762331005E+00  0.88000000000E+00 0. -1.
        -11    1    4    4    0    0  0.93034109229E-02  0.30486250896E-02  0.95641747534E-02  0.13696062553E-01  0.51100000000E-03 0. -1.
         11    1    4    4    0    0  0.11239556465E+00  0.57879543095E-02  0.36901299627E-01  0.11844083081E+00  0.51100000000E-03 0.  1.
</event>
<event>
 8    1  0.1117714E+005  0.1043930E+01  0.7957747E-01            NaN
         13   -1    0    0    0    0  0.00000000000E+00  0.00000000000E+00  0.74505805969E-08  0.10566000000E+00  0.10566000000E+00 0.  1.
     999900   -1    0    0    0    0 -0.00000000000E+00 -0.00000000000E+00 -0.74505805969E-08  0.93827000000E+00  0.93827000000E+00 0.  1.
     999902    2    1    2    0    0  0.13644517661E-01  0.19317285538E-01  0.98868036347E-02  0.10182964425E+01  0.10179737549E+01 0.  0.
     999903    2    3    3    0    0 -0.42600742775E-02 -0.11592898128E+00  0.47576258417E-01  0.12698694403E+00  0.20112350851E-01 0.  0.
         14    1    1    2    0    0 -0.13644517661E-01 -0.19317285538E-01 -0.98868036347E-02  0.25633557476E-01  0.00000000000E+00 0.  1.
     999901    1    3    3    0    0  0.17904591939E-01  0.13524626682E+00 -0.37689454783E-01  0.89130949849E+00  0.88000000000E+00 0.  1.
        -11    1    4    4    0    0 -0.11965996971E-01 -0.56777737293E-01  0.25440141902E-01  0.63358965242E-01  0.51100000000E-03 0.  1.
         11    1    4    4    0    0  0.77059226933E-02 -0.59151243985E-01  0.22136116515E-01  0.63627978790E-01  0.51100000000E-03 0. -1.
</event>
<event>
 8    1  0.1117714E+005  0.1043930E+01  0.7957747E-01            NaN
         13   -1    0    0    0    0  0.00000000000E+00  0.00000000000E+00  0.74505805969E-08  0.10566000000E+00  0.10566000000E+00 0. -1.
     999900   -1    0    0    0    0 -0.00000000000E+00 -0.00000000000E+00 -0.74505805969E-08  0.93827000000E+00  0.93827000000E+00 0. -1.
     999902    2    1    2    0    0  0.12809031320E-01  0.14653680568E-01  0.12360088938E-01  0.10208741236E+01  0.10206137383E+01 0.  0.
     999903    2    3    3    0    0  0.35114507685E-01  0.43226681145E-01 -0.11657501236E+00  0.13074030728E+00  0.20042949567E-01 0.  0.
         14    1    1    2    0    0 -0.12809031320E-01 -0.14653680568E-01 -0.12360088938E-01  0.23055876389E-01  0.00000000000E+00 0.  1.
     999901    1    3    3    0    0 -0.22305476366E-01 -0.28573000577E-01  0.12893510130E+00  0.89013381634E+00  0.88000000000E+00 0.  1.
        -11    1    4    4    0    0  0.82737238471E-02  0.11716961349E-01 -0.13668073336E-01  0.19819662946E-01  0.51100000000E-03 0.  1.
         11    1    4    4    0    0  0.26840783838E-01  0.31509719796E-01 -0.10290693902E+00  0.11092064433E+00  0.51100000000E-03 0. -1.
</event>
<event>
 8    1  0.1117714E+005  0.1043930E+01  0.7957747E-01            NaN
         13   -1    0    0    0    0  0.00000000000E+00  0.00000000000E+00  0.74505805969E-08  0.10566000000E+00  0.10566000000E+00 0. -1.
     999900   -1    0    0    0    0 -0.00000000000E+00 -0.00000000000E+00 -0.74505805969E-08  0.93827000000E+00  0.93827000000E+00 0. -1.
     999902    2    1    2    0    0 -0.51700795096E-02  0.20441569871E-01 -0.86950779479E-02  0.10211222846E+01  0.10208675371E+01 0.  0.
     999903    2    3    3    0    0 -0.51308550366E-01  0.79422869437E-01  0.90473533820E-01  0.13239174853E+00  0.20038842963E-01 0.  0.
         14    1    1    2    0    0  0.51700795096E-02 -0.20441569871E-01  0.86950779479E-02  0.22807715393E-01  0.00000000000E+00 0. -1.
     999901    1    3    3    0    0  0.46138470856E-01 -0.58981299566E-01 -0.99168611768E-01  0.88873053607E+00  0.88000000000E+00 0. -1.
        -11    1    4    4    0    0 -0.51623711732E-01  0.72501016459E-01  0.79150092842E-01  0.11910668881E+00  0.51100000000E-03 0.  1.
         11    1    4    4    0    0  0.31516136593E-03  0.69218529785E-02  0.11323440978E-01  0.13285059726E-01  0.51100000000E-03 0. -1.
</event>
<event>
 8    1  0.1117714E+005  0.1043930E+01  0.7957747E-01            NaN
         13   -1    0    0    0    0  0.00000000000E+00  0.00000000000E+00  0.74505805969E-08  0.10566000000E+00  0.10566000000E+00 0. -1.
     999900   -1    0    0    0    0 -0.00000000000E+00 -0.00000000000E+00 -0.74505805969E-08  0.93827000000E+00  0.93827000000E+00 0. -1.
     999902    2    1    2    0    0  0.53633890490E-02  0.23291060724E-01 -0.19782362653E-01  0.10129045053E+01  0.10124292348E+01 0.  0.
     999903    2    3    3    0    0  0.11827037953E+00  0.36010066808E-01  0.13173576946E-03  0.12537628997E+00  0.20846801860E-01 0.  0.
         14    1    1    2    0    0 -0.53633890490E-02 -0.23291060724E-01  0.19782362653E-01  0.31025494740E-01  0.00000000000E+00 0.  1.
     999901    1    3    3    0    0 -0.11290699048E+00 -0.12719006085E-01 -0.19914098423E-01  0.88752821529E+00  0.88000000000E+00 0. -1.
        -11    1    4    4    0    0  0.89946569076E-01  0.19799991454E-01  0.56501530289E-02  0.92274646033E-01  0.51100000000E-03 0.  1.
         11    1    4    4    0    0  0.28323810452E-01  0.16210075354E-01 -0.55184172595E-02  0.33101643940E-01  0.51100000000E-03 0. -1.
</event>
<event>
 8    1  0.1117714E+005  0.1043930E+01  0.7957747E-01            NaN
         13   -1    0    0    0    0  0.00000000000E+00  0.00000000000E+00  0.74505805969E-08  0.10566000000E+00  0.10566000000E+00 0.  1.
     999900   -1    0    0    0    0 -0.00000000000E+00 -0.00000000000E+00 -0.74505805969E-08  0.93827000000E+00  0.93827000000E+00 0.  1.
     999902    2    1    2    0    0  0.15750367197E-01 -0.98848545912E-02  0.16039114364E-01  0.10193731760E+01  0.10190773446E+01 0.  0.
     999903    2    3    3    0    0  0.11148925453E+00  0.15944982418E-01 -0.62497765713E-01  0.13032809468E+00  0.19883289559E-01 0.  0.
         14    1    1    2    0    0 -0.15750367197E-01  0.98848545912E-02 -0.16039114364E-01  0.24556824036E-01  0.00000000000E+00 0. -1.
     999901    1    3    3    0    0 -0.95738887331E-01 -0.25829837009E-01  0.78536880078E-01  0.88904508129E+00  0.88000000000E+00 0. -1.
        -11    1    4    4    0    0  0.12757413648E-01  0.81469726777E-02 -0.10840185209E-01  0.18625130957E-01  0.51100000000E-03 0.  1.
         11    1    4    4    0    0  0.98731840880E-01  0.77980097402E-02 -0.51657580504E-01  0.11170296372E+00  0.51100000000E-03 0. -1.
</event>
<event>
 8    1  0.1117714E+005  0.1043930E+01  0.7957747E-01            NaN
         13   -1    0    0    0    0  0.00000000000E+00  0.00000000000E+00  0.74505805969E-08  0.10566000000E+00  0.10566000000E+00 0.  1.
     999900   -1    0    0    0    0 -0.00000000000E+00 -0.00000000000E+00 -0.74505805969E-08  0.93827000000E+00  0.93827000000E+00 0.  1.
     999902    2    1    2    0    0 -0.12806546490E-02 -0.21896538012E-01 -0.38884445047E-02  0.10216540387E+01  0.10214111593E+01 0.  0.
     999903    2    3    3    0    0  0.11091131645E-01 -0.11837548330E+00 -0.59738262523E-01  0.13453485266E+00  0.19879595645E-01 0.  0.
         14    1    1    2    0    0  0.12806546490E-02  0.21896538012E-01  0.38884445047E-02  0.22275961346E-01  0.00000000000E+00 0. -1.
     999901    1    3    3    0    0 -0.12371786294E-01  0.96478945292E-01  0.55849818018E-01  0.88711918599E+00  0.88000000000E+00 0. -1.
        -11    1    4    4    0    0  0.11226141614E-01 -0.49756852224E-01 -0.33716318590E-01  0.61145906314E-01  0.51100000000E-03 0. -1.
         11    1    4    4    0    0 -0.13500996876E-03 -0.68618631081E-01 -0.26021943933E-01  0.73388946348E-01  0.51100000000E-03 0.  1.
</event>
<event>
 8    1  0.1117714E+005  0.1043930E+01  0.7957747E-01            NaN
         13   -1    0    0    0    0  0.00000000000E+00  0.00000000000E+00  0.74505805969E-08  0.10566000000E+00  0.10566000000E+00 0. -1.
     999900   -1    0    0    0    0 -0.00000000000E+00 -0.00000000000E+00 -0.74505805969E-08  0.93827000000E+00  0.93827000000E+00 0.  1.
     999902    2    1    2    0    0  0.19390413460E-01 -0.17660183437E-01 -0.42552298577E-02  0.10173597686E+01  0.10170127441E+01 0.  0.
     999903    2    3    3    0    0 -0.12037475547E+00  0.74159482486E-02 -0.29100543017E-01  0.12563088360E+00  0.19778758019E-01 0.  0.
         14    1    1    2    0    0 -0.19390413460E-01  0.17660183437E-01  0.42552298577E-02  0.26570231356E-01  0.00000000000E+00 0.  1.
     999901    1    3    3    0    0  0.13976516893E+00 -0.25076131686E-01  0.24845313159E-01  0.89172888504E+00  0.88000000000E+00 0.  1.
        -11    1    4    4    0    0 -0.31732384639E-01  0.57661823513E-02  0.19606615381E-03  0.32256668407E-01  0.51100000000E-03 0. -1.
         11    1    4    4    0    0 -0.88642370830E-01  0.16497658973E-02 -0.29296609171E-01  0.93374215198E-01  0.51100000000E-03 0.  1.
</event>
<event>
 8    1  0.1117714E+005  0.1043930E+01  0.7957747E-01            NaN
         13   -1    0    0    0    0  0.00000000000E+00  0.00000000000E+00  0.74505805969E-08  0.10566000000E+00  0.10566000000E+00 0.  1.
     999900   -1    0    0    0    0 -0.00000000000E+00 -0.00000000000E+00 -0.74505805969E-08  0.93827000000E+00  0.93827000000E+00 0. -1.
     999902    2    1    2    0    0  0.10888249803E-01 -0.18706124207E-01 -0.10583540285E-01  0.10198367563E+01  0.10195521199E+01 0.  0.
     999903    2    3    3    0    0  0.12751637875E+00 -0.23214284660E-01 -0.16552011747E-01  0.13211040961E+00  0.19490032631E-01 0.  0.
         14    1    1    2    0    0 -0.10888249803E-01  0.18706124207E-01  0.10583540285E-01  0.24093243692E-01  0.00000000000E+00 0.  1.
     999901    1    3    3    0    0 -0.11662812895E+00  0.45081604533E-02  0.59684714616E-02  0.88772634670E+00  0.88000000000E+00 0. -1.
        -11    1    4    4    0    0  0.10402508623E+00 -0.19096227964E-01 -0.21039679874E-01  0.10783697760E+00  0.51100000000E-03 0. -1.
         11    1    4    4    0    0  0.23491292517E-01 -0.41180566957E-02  0.44876681275E-02  0.24273432005E-01  0.51100000000E-03 0.  1.
</event>
<event>
 8    1  0.1117714E+005  0.1043930E+01  0.7957747E-01            NaN
         13   -1    0    0    0    0  0.00000000000E+00  0.00000000000E+00  0.74505805969E-08  0.10566000000E+00  0.10566000000E+00 0.  1.
     999900   -1    0    0    0    0 -0.00000000000E+00 -0.00000000000E+00 -0.74505805969E-08  0.93827000000E+00  0.93827000000E+00 0.  1.
     999902    2    1    2    0    0  0.17315118135E-01 -0.55171070227E-02 -0.17322331911E-01  0.10188239257E+01  0.10185145441E+01 0.  0.
     999903    2    3    3    0    0 -0.10009856994E-01 -0.73987924699E-01 -0.10610614241E+00  0.13128943498E+00  0.20099553263E-01 0.  0.
         14    1    1    2    0    0 -0.17315118135E-01  0.55171070227E-02  0.17322331911E-01  0.25106074340E-01  0.00000000000E+00 0.  1.
     999901    1    3    3    0    0  0.27324975129E-01  0.68470817676E-01  0.88783810502E-01  0.88753449068E+00  0.88000000000E+00 0.  1.
        -11    1    4    4    0    0  0.14655266704E-02 -0.54825345429E-01 -0.78786645020E-01  0.95997723016E-01  0.51100000000E-03 0.  1.
         11    1    4    4    0    0 -0.11475383665E-01 -0.19162579270E-01 -0.27319497393E-01  0.35291711964E-01  0.51100000000E-03 0. -1.
</event>
<event>
 8    1  0.1117714E+005  0.1043930E+01  0.7957747E-01            NaN
         13   -1    0    0    0    0  0.00000000000E+00  0.00000000000E+00  0.74505805969E-08  0.10566000000E+00  0.10566000000E+00 0. -1.
     999900   -1    0    0    0    0 -0.00000000000E+00 -0.00000000000E+00 -0.74505805969E-08  0.93827000000E+00  0.93827000000E+00 0. -1.
     999902    2    1    2    0    0 -0.93204376277E-02 -0.18108667105E-01  0.12102388598E-01  0.10202390272E+01  0.10199639261E+01 0.  0.
     999903    2    3    3    0    0  0.42952785553E-01  0.89649633209E-01  0.81166191288E-01  0.12944491520E+00  0.16912626712E-01 0.  0.
         14    1    1    2    0    0  0.93204376277E-02  0.18108667105E-01 -0.12102388598E-01  0.23690972788E-01  0.00000000000E+00 0.  1.
     999901    1    3    3    0    0 -0.52273223181E-01 -0.10775830031E+00 -0.69063802690E-01  0.89079411201E+00  0.88000000000E+00 0.  1.
        -11    1    4    4    0    0  0.27850809029E-01  0.43436960289E-01  0.48909424964E-01  0.71097328037E-01  0.51100000000E-03 0.  1.
         11    1    4    4    0    0  0.15101976524E-01  0.46212672919E-01  0.32256766324E-01  0.58347587165E-01  0.51100000000E-03 0. -1.
</event>
<event>
 8    1  0.1117714E+005  0.1043930E+01  0.7957747E-01            NaN
         13   -1    0    0    0    0  0.00000000000E+00  0.00000000000E+00  0.74505805969E-08  0.10566000000E+00  0.10566000000E+00 0. -1.
     999900   -1    0    0    0    0 -0.00000000000E+00 -0.00000000000E+00 -0.74505805969E-08  0.93827000000E+00  0.93827000000E+00 0.  1.
     999902    2    1    2    0    0  0.21850288103E-01 -0.91254073760E-02  0.79309881101E-02  0.10189578411E+01  0.10186517919E+01 0.  0.
     999903    2    3    3    0    0 -0.95195155524E-02  0.12450163704E+00 -0.19475250449E-01  0.12789591644E+00  0.19667263673E-01 0.  0.
         14    1    1    2    0    0 -0.21850288103E-01  0.91254073760E-02 -0.79309881101E-02  0.24972158945E-01  0.00000000000E+00 0.  1.
     999901    1    3    3    0    0  0.31369803655E-01 -0.13362704442E+00  0.27406238559E-01  0.89106192461E+00  0.88000000000E+00 0. -1.
        -11    1    4    4    0    0 -0.79835006916E-02  0.46926443567E-01 -0.16020602711E-01  0.50226967073E-01  0.51100000000E-03 0.  1.
         11    1    4    4    0    0 -0.15360148608E-02  0.77575193474E-01 -0.34546477387E-02  0.77668949370E-01  0.51100000000E-03 0. -1.
</event>
<event>
 8    1  0.1117714E+005  0.1043930E+01  0.7957747E-01            NaN
         13   -1    0    0    0    0  0.00000000000E+00  0.00000000000E+00  0.74505805969E-08  0.10566000000E+00  0.10566000000E+00 0. -1.
     999900   -1    0    0    0    0 -0.00000000000E+00 -0.00000000000E+00 -0.74505805969E-08  0.93827000000E+00  0.93827000000E+00 0.  1.
     999902    2    1    2    0    0 -0.35034402422E-02 -0.20303261882E-01  0.12451667160E-01  0.10198563515E+01  0.10195721834E+01 0.  0.
     999903    2    3    3    0    0  0.92229735370E-02 -0.10828464434E+00  0.74299801904E-01  0.13321782480E+00  0.20393647080E-01 0.  0.
         14    1    1    2    0    0  0.35034402422E-02  0.20303261882E-01 -0.12451667160E-01  0.24073648491E-01  0.00000000000E+00 0.  1.
     999901    1    3    3    0    0 -0.12726413779E-01  0.87981382460E-01 -0.61848134744E-01  0.88663852671E+00  0.88000000000E+00 0. -1.
        -11    1    4    4    0    0 -0.85543043853E-03 -0.31314246111E-01  0.11523035624E-01  0.33381959824E-01  0.51100000000E-03 0.  1.
         11    1    4    4    0    0  0.10078403975E-01 -0.76970398231E-01  0.62776766280E-01  0.99835864979E-01  0.51100000000E-03 0. -1.
</event>
<event>
 7    1  0.1117714E+005  0.1043930E+01  0.7957747E-01            NaN
         13   -1    0    0    0    0  0.00000000000E+00  0.00000000000E+00  0.74505805969E-08  0.10566000000E+00  0.10566000000E+00 0.  1.
     999900   -1    0    0    0    0 -0.00000000000E+00 -0.00000000000E+00 -0.74505805969E-08  0.93827000000E+00  0.93827000000E+00 0. -1.
     999903    2    1    2    0    0  0.11494750565E-01  0.11644329035E+00  0.21632399294E-01  0.12072581737E+00  0.20386101181E-01 0.  0.
         14    1    1    2    0    0  0.12686948005E-01 -0.35652446025E-01  0.79882827403E-02  0.38676455607E-01  0.00000000000E+00 0. -1.
     999901    1    1    2    0    0 -0.24181698570E-01 -0.80790844327E-01 -0.29620682034E-01  0.88452772703E+00  0.88000000000E+00 0.  1.
        -11    1    3    3    0    0 -0.14071429477E-02  0.81149691635E-01  0.13586071238E-01  0.82292739391E-01  0.51100000000E-03 0.  1.
         11    1    3    3    0    0  0.12901893512E-01  0.35293598716E-01  0.80463280565E-02  0.38433077976E-01  0.51100000000E-03 0. -1.
</event>
<event>
 8    1  0.1117714E+005  0.1043930E+01  0.7957747E-01            NaN
         13   -1    0    0    0    0  0.00000000000E+00  0.00000000000E+00  0.74505805969E-08  0.10566000000E+00  0.10566000000E+00 0.  1.
     999900   -1    0    0    0    0 -0.00000000000E+00 -0.00000000000E+00 -0.74505805969E-08  0.93827000000E+00  0.93827000000E+00 0. -1.
     999902    2    1    2    0    0 -0.15912181873E-01 -0.15242469599E-01  0.62929177357E-02  0.10210142581E+01  0.10207570642E+01 0.  0.
     999903    2    3    3    0    0  0.47787244235E-01  0.13097676990E-01 -0.11798934966E+00  0.12955093148E+00  0.20168970174E-01 0.  0.
         14    1    1    2    0    0  0.15912181873E-01  0.15242469599E-01 -0.62929177357E-02  0.22915741861E-01  0.00000000000E+00 0. -1.
     999901    1    3    3    0    0 -0.63699426108E-01 -0.28340146589E-01  0.12428226740E+00  0.89146332666E+00  0.88000000000E+00 0.  1.
        -11    1    4    4    0    0  0.49377003449E-01  0.12486019967E-01 -0.10804247729E+00  0.11944633601E+00  0.51100000000E-03 0. -1.
         11    1    4    4    0    0 -0.15897592139E-02  0.61165702295E-03 -0.99468723698E-02  0.10104595470E-01  0.51100000000E-03 0.  1.
</event>
<event>
 8    1  0.1117714E+005  0.1043930E+01  0.7957747E-01            NaN
         13   -1    0    0    0    0  0.00000000000E+00  0.00000000000E+00  0.74505805969E-08  0.10566000000E+00  0.10566000000E+00 0.  1.
     999900   -1    0    0    0    0 -0.00000000000E+00 -0.00000000000E+00 -0.74505805969E-08  0.93827000000E+00  0.93827000000E+00 0.  1.
     999902    2    1    2    0    0  0.83624124448E-03  0.74850460603E-02  0.22132469384E-01  0.10205511332E+01  0.10202833155E+01 0.  0.
     999903    2    3    3    0    0  0.56991113594E-01 -0.62124883679E-01  0.10033712813E+00  0.13256752933E+00  0.19978046719E-01 0.  0.
         14    1    1    2    0    0 -0.83624124448E-03 -0.74850460603E-02 -0.22132469384E-01  0.23378866845E-01  0.00000000000E+00 0. -1.
     999901    1    3    3    0    0 -0.56154872349E-01  0.69609929739E-01 -0.78204658749E-01  0.88798360382E+00  0.88000000000E+00 0.  1.
        -11    1    4    4    0    0  0.13662313563E-01 -0.78131999696E-02  0.10206517651E-01  0.18765367815E-01  0.51100000000E-03 0. -1.
         11    1    4    4    0    0  0.43328800031E-01 -0.54311683709E-01  0.90130610481E-01  0.11380216152E+00  0.51100000000E-03 0.  1.
</event>
<event>
 8    1  0.1117714E+005  0.1043930E+01  0.7957747E-01            NaN
         13   -1    0    0    0    0  0.00000000000E+00  0.00000000000E+00  0.74505805969E-08  0.10566000000E+00  0.10566000000E+00 0.  1.
     999900   -1    0    0    0    0 -0.00000000000E+00 -0.00000000000E+00 -0.74505805969E-08  0.93827000000E+00  0.93827000000E+00 0.  1.
     999902    2    1    2    0    0  0.22997097014E-01  0.52722018232E-03  0.31295784976E-02  0.10207149468E+01  0.10204509121E+01 0.  0.
     999903    2    3    3    0    0 -0.66789074885E-01 -0.10003217222E+00 -0.42760939587E-01  0.12926686213E+00  0.20352092942E-01 0.  0.
         14    1    1    2    0    0 -0.22997097014E-01 -0.52722018232E-03 -0.31295784976E-02  0.23215053171E-01  0.00000000000E+00 0. -1.
     999901    1    3    3    0    0  0.89786171899E-01  0.10055939240E+00  0.45890518085E-01  0.89144808470E+00  0.88000000000E+00 0. -1.
        -11    1    4    4    0    0 -0.44635118739E-01 -0.74969889155E-01 -0.22320600298E-01  0.90062469561E-01  0.51100000000E-03 0.  1.
         11    1    4    4    0    0 -0.22153956145E-01 -0.25062283065E-01 -0.20440339289E-01  0.39204392567E-01  0.51100000000E-03 0. -1.
</event>
<event>
 8    1  0.1117714E+005  0.1043930E+01  0.7957747E-01            NaN
         13   -1    0    0    0    0  0.00000000000E+00  0.00000000000E+00  0.74505805969E-08  0.10566000000E+00  0.10566000000E+00 0.  1.
     999900   -1    0    0    0    0 -0.00000000000E+00 -0.00000000000E+00 -0.74505805969E-08  0.93827000000E+00  0.93827000000E+00 0. -1.
     999902    2    1    2    0    0  0.12551038066E-01 -0.97469383559E-02  0.16174148884E-01  0.10212554668E+01  0.10210037189E+01 0.  0.
     999903    2    3    3    0    0  0.10132757064E+00  0.32921654194E-01 -0.73281773731E-01  0.13125308275E+00  0.22495365805E-01 0.  0.
         14    1    1    2    0    0 -0.12551038066E-01  0.97469383559E-02 -0.16174148884E-01  0.22674533203E-01  0.00000000000E+00 0. -1.
     999901    1    3    3    0    0 -0.88776532574E-01 -0.42668592550E-01  0.89455922615E-01  0.89000238405E+00  0.88000000000E+00 0. -1.
        -11    1    4    4    0    0  0.77292243205E-01  0.16823558270E-01 -0.46109565292E-01  0.91561324285E-01  0.51100000000E-03 0. -1.
         11    1    4    4    0    0  0.24035327435E-01  0.16098095924E-01 -0.27172208439E-01  0.39691758461E-01  0.51100000000E-03 0.  1.
</event>
<event>
 8    1  0.1117714E+005  0.1043930E+01  0.7957747E-01            NaN
         13   -1    0    0    0    0  0.00000000000E+00  0.00000000000E+00  0.74505805969E-08  0.10566000000E+00  0.10566000000E+00 0.  1.
     999900   -1    0    0    0    0 -0.00000000000E+00 -0.00000000000E+00 -0.74505805969E-08  0.93827000000E+00  0.93827000000E+00 0. -1.
     999902    2    1    2    0    0  0.11453788155E-01 -0.78877656015E-02 -0.19687780172E-01  0.10198257515E+01  0.10195408518E+01 0.  0.
     999903    2    3    3    0    0 -0.10065050728E+00  0.61220027222E-01  0.46016585473E-01  0.12760362456E+00  0.16933473152E-01 0.  0.
         14    1    1    2    0    0 -0.11453788155E-01  0.78877656015E-02  0.19687780172E-01  0.24104248534E-01  0.00000000000E+00 0.  1.
     999901    1    3    3    0    0  0.11210429543E+00 -0.69107792823E-01 -0.65704365645E-01  0.89222212691E+00  0.88000000000E+00 0.  1.
        -11    1    4    4    0    0 -0.35385156299E-01  0.14873885728E-01  0.90943166206E-02  0.39450088451E-01  0.51100000000E-03 0.  1.
         11    1    4    4    0    0 -0.65265350978E-01  0.46346141493E-01  0.36922268852E-01  0.88153536105E-01  0.51100000000E-03 0. -1.
</event>
<event>
 8    1  0.1117714E+005  0.1043930E+01  0.7957747E-01            NaN
         13   -1    0    0    0    0  0.00000000000E+00  0.00000000000E+00  0.74505805969E-08  0.10566000000E+00  0.10566000000E+00 0.  1.
     999900   -1    0    0    0    0 -0.00000000000E+00 -0.00000000000E+00 -0.74505805969E-08  0.93827000000E+00  0.93827000000E+00 0.  1.
     999902    2    1    2    0    0  0.12528362385E-01  0.68150464589E-02  0.19056327934E-01  0.10201277237E+01  0.10198500009E+01 0.  0.
     999903    2    3    3    0    0  0.10765824916E+00 -0.71664253833E-01  0.28445582863E-04  0.13132473303E+00  0.22806157221E-01 0.  0.
         14    1    1    2    0    0 -0.12528362385E-01 -0.68150464589E-02 -0.19056327934E-01  0.23802276290E-01  0.00000000000E+00 0. -1.
     999901    1    3    3    0    0 -0.95129886774E-01  0.78479300292E-01  0.19027882351E-01  0.88880299068E+00  0.88000000000E+00 0.  1.
        -11    1    4    4    0    0  0.42191608604E-01 -0.28163695934E-01  0.11142605039E-01  0.51939814914E-01  0.51100000000E-03 0. -1.
         11    1    4    4    0    0  0.65466640555E-01 -0.43500557899E-01 -0.11114159456E-01  0.79384918117E-01  0.51100000000E-03 0.  1.
</event>
<event>
 8    1  0.1117714E+005  0.1043930E+01  0.7957747E-01            NaN
         13   -1    0    0    0    0  0.00000000000E+00  0.00000000000E+00  0.74505805969E-08  0.10566000000E+00  0.10566000000E+00 0.  1.
     999900   -1    0    0    0    0 -0.00000000000E+00 -0.00000000000E+00 -0.74505805969E-08  0.93827000000E+00  0.93827000000E+00 0. -1.
     999902    2    1    2    0    0 -0.60503752598E-02  0.22260014361E-01 -0.25114928224E-02  0.10207260590E+01  0.10204622799E+01 0.  0.
     999903    2    3    3    0    0 -0.57149350280E-01 -0.98660820084E-01 -0.57482564791E-01  0.12929194918E+00  0.20301655392E-01 0.  0.
         14    1    1    2    0    0  0.60503752598E-02 -0.22260014361E-01  0.25114928224E-02  0.23203940966E-01  0.00000000000E+00 0.  1.
     999901    1    3    3    0    0  0.51098975021E-01  0.12092083445E+00  0.54971071969E-01  0.89143410985E+00  0.88000000000E+00 0.  1.
        -11    1    4    4    0    0 -0.43221120361E-01 -0.73108591798E-01 -0.52259326162E-01  0.99720758781E-01  0.51100000000E-03 0. -1.
         11    1    4    4    0    0 -0.13928229920E-01 -0.25552228286E-01 -0.52232386293E-02  0.29571190403E-01  0.51100000000E-03 0.  1.
</event>
<event>
 8    1  0.1117714E+005  0.1043930E+01  0.7957747E-01            NaN
         13   -1    0    0    0    0  0.00000000000E+00  0.00000000000E+00  0.74505805969E-08  0.10566000000E+00  0.10566000000E+00 0. -1.
     999900   -1    0    0    0    0 -0.00000000000E+00 -0.00000000000E+00 -0.74505805969E-08  0.93827000000E+00  0.93827000000E+00 0.  1.
     999902    2    1    2    0    0 -0.22781524456E-01 -0.27662435598E-02 -0.20355280417E-02  0.10208910475E+01  0.10206310486E+01 0.  0.
     999903    2    3    3    0    0  0.99250047470E-01  0.66784587680E-01 -0.43290284385E-01  0.12879745506E+00  0.20099319222E-01 0.  0.
         14    1    1    2    0    0  0.22781524456E-01  0.27662435598E-02  0.20355280417E-02  0.23038952545E-01  0.00000000000E+00 0.  1.
     999901    1    3    3    0    0 -0.12203157193E+00 -0.69550831239E-01  0.41254756343E-01  0.89209359240E+00  0.88000000000E+00 0. -1.
        -11    1    4    4    0    0  0.72540843319E-01  0.41567727566E-01 -0.22483812406E-01  0.86578478075E-01  0.51100000000E-03 0. -1.
         11    1    4    4    0    0  0.26709204151E-01  0.25216860114E-01 -0.20806471979E-01  0.42218976984E-01  0.51100000000E-03 0.  1.
</event>
<event>
 8    1  0.1117714E+005  0.1043930E+01  0.7957747E-01            NaN
         13   -1    0    0    0    0  0.00000000000E+00  0.00000000000E+00  0.74505805969E-08  0.10566000000E+00  0.10566000000E+00 0.  1.
     999900   -1    0    0    0    0 -0.00000000000E+00 -0.00000000000E+00 -0.74505805969E-08  0.93827000000E+00  0.93827000000E+00 0.  1.
     999902    2    1    2    0    0  0.16725882255E-01 -0.77729258689E-02  0.18819122754E-01  0.10175798028E+01  0.10172385768E+01 0.  0.
     999903    2    3    3    0    0  0.11654915765E+00  0.52623152792E-01 -0.49901836294E-02  0.12955995179E+00  0.20198436005E-01 0.  0.
         14    1    1    2    0    0 -0.16725882255E-01  0.77729258689E-02 -0.18819122754E-01  0.26350197247E-01  0.00000000000E+00 0.  1.
     999901    1    3    3    0    0 -0.99823275396E-01 -0.60396078661E-01  0.23809306383E-01  0.88801985096E+00  0.88000000000E+00 0.  1.
        -11    1    4    4    0    0  0.47580372484E-01  0.17084424630E-01  0.70381739348E-02  0.51044749231E-01  0.51100000000E-03 0.  1.
         11    1    4    4    0    0  0.68968785167E-01  0.35538728161E-01 -0.12028357564E-01  0.78515202562E-01  0.51100000000E-03 0. -1.
</event>
<event>
 8    1  0.1117714E+005  0.1043930E+01  0.7957747E-01            NaN
         13   -1    0    0    0    0  0.00000000000E+00  0.00000000000E+00  0.74505805969E-08  0.10566000000E+00  0.10566000000E+00 0. -1.
     999900   -1    0    0    0    0 -0.00000000000E+00 -0.00000000000E+00 -0.74505805969E-08  0.93827000000E+00  0.93827000000E+00 0.  1.
     999902    2    1    2    0    0  0.85173630976E-02  0.18871540974E-01  0.10531424877E-01  0.10207008923E+01  0.10204365341E+01 0.  0.
     999903    2    3    3    0    0  0.63539697280E-01  0.25937092942E-01 -0.10959438947E+00  0.13080899410E+00  0.19749349685E-01 0.  0.
         14    1    1    2    0    0 -0.85173630976E-02 -0.18871540974E-01 -0.10531424877E-01  0.23229107663E-01  0.00000000000E+00 0.  1.
     999901    1    3    3    0    0 -0.55022334183E-01 -0.70655519680E-02  0.12012581434E+00  0.88989189824E+00  0.88000000000E+00 0. -1.
        -11    1    4    4    0    0  0.88489339678E-02  0.11776044958E-01 -0.26590460938E-01  0.30402180861E-01  0.51100000000E-03 0. -1.
         11    1    4    4    0    0  0.54690763312E-01  0.14161047984E-01 -0.83003928529E-01  0.10040681323E+00  0.51100000000E-03 0.  1.
</event>
<event>
 8    1  0.1117714E+005  0.1043930E+01  0.7957747E-01            NaN
         13   -1    0    0    0    0  0.00000000000E+00  0.00000000000E+00  0.74505805969E-08  0.10566000000E+00  0.10566000000E+00 0.  1.
     999900   -1    0    0    0    0 -0.00000000000E+00 -0.00000000000E+00 -0.74505805969E-08  0.93827000000E+00  0.93827000000E+00 0. -1.
     999902    2    1    2    0    0 -0.22747543470E-01 -0.82990206545E-02  0.23344054975E-02  0.10196035961E+01  0.10193133568E+01 0.  0.
     999903    2    3    3    0    0 -0.11688200272E-01  0.26449189963E-01  0.12546192548E+00  0.13028355619E+00  0.19923267587E-01 0.  0.
         14    1    1    2    0    0  0.22747543470E-01  0.82990206545E-02 -0.23344054975E-02  0.24326403901E-01  0.00000000000E+00 0. -1.
     999901    1    3    3    0    0 -0.11059343198E-01 -0.34748210618E-01 -0.12312751998E+00  0.88932003991E+00  0.88000000000E+00 0. -1.
        -11    1    4    4    0    0  0.10952894602E-02 -0.23676156313E-02  0.20988874174E-01  0.21156540900E-01  0.51100000000E-03 0.  1.
         11    1    4    4    0    0 -0.12783489732E-01  0.28816805594E-01  0.10447305131E+00  0.10912701529E+00  0.51100000000E-03 0. -1.
</event>
<event>
 8    1  0.1117714E+005  0.1043930E+01  0.7957747E-01            NaN
         13   -1    0    0    0    0  0.00000000000E+00  0.00000000000E+00  0.74505805969E-08  0.10566000000E+00  0.10566000000E+00 0.  1.
     999900   -1    0    0    0    0 -0.00000000000E+00 -0.00000000000E+00 -0.74505805969E-08  0.93827000000E+00  0.93827000000E+00 0.  1.
     999902    2    1    2    0    0  0.55289923957E-02  0.14045292380E-01  0.18433559538E-01  0.10201048848E+01  0.10198266225E+01 0.  0.
     999903    2    3    3    0    0  0.36196634532E-01 -0.10582881471E+00 -0.59171440031E-01  0.12806629724E+00  0.19742917685E-01 0.  0.
         14    1    1    2    0    0 -0.55289923957E-02 -0.14045292380E-01 -0.18433559538E-01  0.23825115156E-01  0.00000000000E+00 0. -1.
     999901    1    3    3    0    0 -0.30667642136E-01  0.11987410709E+00  0.77604999569E-01  0.89203858761E+00  0.88000000000E+00 0.  1.
        -11    1    4    4    0    0  0.23258418950E-01 -0.38288376885E-01 -0.22781603932E-01  0.50261480831E-01  0.51100000000E-03 0.  1.
         11    1    4    4    0    0  0.12938215582E-01 -0.67540437822E-01 -0.36389836098E-01  0.77804816405E-01  0.51100000000E-03 0. -1.
</event>
<event>
 8    1  0.1117714E+005  0.1043930E+01  0.7957747E-01            NaN
         13   -1    0    0    0    0  0.00000000000E+00  0.00000000000E+00  0.74505805969E-08  0.10566000000E+00  0.10566000000E+00 0.  1.
     999900   -1    0    0    0    0 -0.00000000000E+00 -0.00000000000E+00 -0.74505805969E-08  0.93827000000E+00  0.93827000000E+00 0. -1.
     999902    2    1    2    0    0 -0.11167610856E-01  0.19022262454E-01  0.15529518595E-01  0.10169535668E+01  0.10165957058E+01 0.  0.
     999903    2    3    3    0    0 -0.10322324165E+00 -0.25438619724E-01 -0.66226043399E-01  0.12727104975E+00  0.22580307561E-01 0.  0.
         14    1    1    2    0    0  0.11167610856E-01 -0.19022262454E-01 -0.15529518595E-01  0.26976433213E-01  0.00000000000E+00 0. -1.
     999901    1    3    3    0    0  0.92055630796E-01  0.44460882178E-01  0.81755561995E-01  0.88968251704E+00  0.88000000000E+00 0.  1.
        -11    1    4    4    0    0 -0.72879512005E-01 -0.20818194379E-01 -0.35014595321E-01  0.83493134411E-01  0.51100000000E-03 0.  1.
         11    1    4    4    0    0 -0.30343729646E-01 -0.46204253441E-02 -0.31211448079E-01  0.43777915338E-01  0.51100000000E-03 0. -1.
</event>
<event>
 8    1  0.1117714E+005  0.1043930E+01  0.7957747E-01            NaN
         13   -1    0    0    0    0  0.00000000000E+00  0.00000000000E+00  0.74505805969E-08  0.10566000000E+00  0.10566000000E+00 0. -1.
     999900   -1    0    0    0    0 -0.00000000000E+00 -0.00000000000E+00 -0.74505805969E-08  0.93827000000E+00  0.93827000000E+00 0. -1.
     999902    2    1    2    0    0 -0.16792687499E-01 -0.11725178437E-01 -0.12049263758E-01  0.10201674471E+01  0.10198906614E+01 0.  0.
     999903    2    3    3    0    0  0.98326183559E-01  0.21192098353E-01  0.76020788018E-01  0.12770331023E+00  0.20293640093E-01 0.  0.
         14    1    1    2    0    0  0.16792687499E-01  0.11725178437E-01  0.12049263758E-01  0.23762552892E-01  0.00000000000E+00 0. -1.
     999901    1    3    3    0    0 -0.11511887106E+00 -0.32917276791E-01 -0.88070051776E-01  0.89246413687E+00  0.88000000000E+00 0. -1.
        -11    1    4    4    0    0  0.39316396631E-01  0.15870304024E-01  0.23242179187E-01  0.48353961660E-01  0.51100000000E-03 0. -1.
         11    1    4    4    0    0  0.59009786928E-01  0.53217943296E-02  0.52778608831E-01  0.79349348575E-01  0.51100000000E-03 0.  1.
</event>
<event>
 8    1  0.1117714E+005  0.1043930E+01  0.7957747E-01            NaN
         13   -1    0    0    0    0  0.00000000000E+00  0.00000000000E+00  0.74505805969E-08  0.10566000000E+00  0.10566000000E+00 0.  1.
     999900   -1    0    0    0    0 -0.00000000000E+00 -0.00000000000E+00 -0.74505805969E-08  0.93827000000E+00  0.93827000000E+00 0.  1.
     999902    2    1    2    0    0 -0.28277559405E-01  0.37754012458E-02  0.46337798157E-02  0.10150276483E+01  0.10146160756E+01 0.  0.
     999903    2    3    3    0    0 -0.24902601880E-01 -0.11821831296E+00  0.29015941974E-01  0.12627101877E+00  0.22510801677E-01 0.  0.
         14    1    1    2    0    0  0.28277559405E-01 -0.37754012458E-02 -0.46337798157E-02  0.28902351735E-01  0.00000000000E+00 0.  1.
     999901    1    3    3    0    0 -0.33749575250E-02  0.12199371421E+00 -0.24382162158E-01  0.88875662950E+00  0.88000000000E+00 0.  1.
        -11    1    4    4    0    0  0.13368523042E-02 -0.46500353405E-01  0.10799929887E-01  0.47759497981E-01  0.51100000000E-03 0.  1.
         11    1    4    4    0    0 -0.26239454184E-01 -0.71717959556E-01  0.18216012087E-01  0.78511520786E-01  0.51100000000E-03 0. -1.
</event>
<event>
 8    1  0.1117714E+005  0.1043930E+01  0.7957747E-01            NaN
         13   -1    0    0    0    0  0.00000000000E+00  0.00000000000E+00  0.74505805969E-08  0.10566000000E+00  0.10566000000E+00 0.  1.
     999900   -1    0    0    0    0 -0.00000000000E+00 -0.00000000000E+00 -0.74505805969E-08  0.93827000000E+00  0.93827000000E+00 0.  1.
     999902    2    1    2    0    0  0.82442232163E-02 -0.10590801066E-01  0.20030462369E-01  0.10198187639E+01  0.10195336971E+01 0.  0.
     999903    2    3    3    0    0  0.11922929644E+00  0.46512046565E-01 -0.14222120421E-01  0.13035169811E+00  0.20255885267E-01 0.  0.
         14    1    1    2    0    0 -0.82442232163E-02  0.10590801066E-01 -0.20030462369E-01  0.24111236102E-01  0.00000000000E+00 0. -1.
     999901    1    3    3    0    0 -0.11098507322E+00 -0.57102847631E-01  0.34252582790E-01  0.88946706578E+00  0.88000000000E+00 0. -1.
        -11    1    4    4    0    0  0.78094413701E-01  0.28250453312E-01  0.32734848965E-03  0.83049345823E-01  0.51100000000E-03 0. -1.
         11    1    4    4    0    0  0.41134882735E-01  0.18261593253E-01 -0.14549468911E-01  0.47302352292E-01  0.51100000000E-03 0.  1.
</event>
<event>
 8    1  0.1117714E+005  0.1043930E+01  0.7957747E-01            NaN
         13   -1    0    0    0    0  0.00000000000E+00  0.00000000000E+00  0.74505805969E-08  0.10566000000E+00  0.10566000000E+00 0.  1.
     999900   -1    0    0    0    0 -0.00000000000E+00 -0.00000000000E+00 -0.74505805969E-08  0.93827000000E+00  0.93827000000E+00 0.  1.
     999902    2    1    2    0    0  0.18280156058E-01 -0.13158624556E-01 -0.81514954081E-02  0.10199767041E+01  0.10196954038E+01 0.  0.
     999903    2    3    3    0    0  0.79181857708E-01 -0.88417111484E-01  0.55377983896E-01  0.13239073541E+00  0.19319252829E-01 0.  0.
         14    1    1    2    0    0 -0.18280156058E-01  0.13158624556E-01  0.81514954081E-02  0.23953295871E-01  0.00000000000E+00 0. -1.
     999901    1    3    3    0    0 -0.60901701650E-01  0.75258486928E-01 -0.63529479304E-01  0.88758596871E+00  0.88000000000E+00 0. -1.
        -11    1    4    4    0    0  0.49276873503E-01 -0.66971881501E-01  0.34018977356E-01  0.89838717240E-01  0.51100000000E-03 0.  1.
         11    1    4    4    0    0  0.29904984205E-01 -0.21445229984E-01  0.21359006540E-01  0.42552018174E-01  0.51100000000E-03 0. -1.
</event>
<event>
 8    1  0.1117714E+005  0.1043930E+01  0.7957747E-01            NaN
         13   -1    0    0    0    0  0.00000000000E+00  0.00000000000E+00  0.74505805969E-08  0.10566000000E+00  0.10566000000E+00 0. -1.
     999900   -1    0    0    0    0 -0.00000000000E+00 -0.00000000000E+00 -0.74505805969E-08  0.93827000000E+00  0.93827000000E+00 0. -1.
     999902    2    1    2    0    0  0.11992818005E-01 -0.15882067827E-01 -0.11638187129E-01  0.10208753874E+01  0.10206150310E+01 0.  0.
     999903    2    3    3    0    0  0.72656974890E-01 -0.15939999582E-02  0.10682580892E+00  0.13075291989E+00  0.20074754626E-01 0.  0.
         14    1    1    2    0    0 -0.11992818005E-01  0.15882067827E-01  0.11638187129E-01  0.23054612593E-01  0.00000000000E+00 0. -1.
     999901    1    3    3    0    0 -0.60664156886E-01 -0.14288067869E-01 -0.11846399605E+00  0.89012246751E+00  0.88000000000E+00 0. -1.
        -11    1    4    4    0    0  0.52497354406E-01 -0.76332269170E-02  0.86611462664E-01  0.10156793273E+00  0.51100000000E-03 0. -1.
         11    1    4    4    0    0  0.20159620484E-01  0.60392269588E-02  0.20214346256E-01  0.29184987166E-01  0.51100000000E-03 0.  1.
</event>
<event>
 8    1  0.1117714E+005  0.1043930E+01  0.7957747E-01            NaN
         13   -1    0    0    0    0  0.00000000000E+00  0.00000000000E+00  0.74505805969E-08  0.10566000000E+00  0.10566000000E+00 0. -1.
     999900   -1    0    0    0    0 -0.00000000000E+00 -0.00000000000E+00 -0.74505805969E-08  0.93827000000E+00  0.93827000000E+00 0.  1.
     999902    2    1    2    0    0  0.53747697515E-02 -0.75627608255E-02 -0.19707713487E-01  0.10221474962E+01  0.10219153715E+01 0.  0.
     999903    2    3    3    0    0  0.60386707745E-01 -0.61628975244E-01 -0.10167085961E+00  0.13497928994E+00  0.20922713882E-01 0.  0.
         14    1    1    2    0    0 -0.53747697515E-02  0.75627608255E-02  0.19707713487E-01  0.21782503807E-01  0.00000000000E+00 0. -1.
     999901    1    3    3    0    0 -0.55011937994E-01  0.54066214418E-01  0.81963146127E-01  0.88716820625E+00  0.88000000000E+00 0. -1.
        -11    1    4    4    0    0  0.28478834817E-01 -0.33609568776E-01 -0.36592820543E-01  0.57270784717E-01  0.51100000000E-03 0. -1.
         11    1    4    4    0    0  0.31907872928E-01 -0.28019406468E-01 -0.65078039072E-01  0.77708505223E-01  0.51100000000E-03 0.  1.
</event>
<event>
 8    1  0.1117714E+005  0.1043930E+01  0.7957747E-01            NaN
         13   -1    0    0    0    0  0.00000000000E+00  0.00000000000E+00  0.74505805969E-08  0.10566000000E+00  0.10566000000E+00 0. -1.
     999900   -1    0    0    0    0 -0.00000000000E+00 -0.00000000000E+00 -0.74505805969E-08  0.93827000000E+00  0.93827000000E+00 0. -1.
     999902    2    1    2    0    0  0.15327553973E-01  0.15009613038E-01  0.72003000859E-02  0.10213011088E+01  0.10210503847E+01 0.  0.
     999903    2    3    3    0    0  0.17894089791E-01  0.99324967109E-01  0.85583551824E-01  0.13379922140E+00  0.19799994023E-01 0.  0.
         14    1    1    2    0    0 -0.15327553973E-01 -0.15009613038E-01 -0.72003000859E-02  0.22628891172E-01  0.00000000000E+00 0. -1.
     999901    1    3    3    0    0 -0.25665358178E-02 -0.84315354071E-01 -0.78383251738E-01  0.88750188743E+00  0.88000000000E+00 0. -1.
        -11    1    4    4    0    0  0.74742027495E-02  0.33678068117E-01  0.17643757582E-01  0.38750990715E-01  0.51100000000E-03 0. -1.
         11    1    4    4    0    0  0.10419887041E-01  0.65646898993E-01  0.67939794242E-01  0.95048230683E-01  0.51100000000E-03 0.  1.
</event>
<event>
 8    1  0.1117714E+005  0.1043930E+01  0.7957747E-01            NaN
         13   -1    0    0    0    0  0.00000000000E+00  0.00000000000E+00  0.74505805969E-08  0.10566000000E+00  0.10566000000E+00 0. -1.
     999900   -1    0    0    0    0 -0.00000000000E+00 -0.00000000000E+00 -0.74505805969E-08  0.93827000000E+00  0.93827000000E+00 0. -1.
     999902    2    1    2    0    0 -0.16316406433E-01  0.13301107936E-01  0.11249804653E-01  0.10200615544E+01  0.10197822670E+01 0.  0.
     999903    2    3    3    0    0  0.89845865921E-01  0.88171595549E-01 -0.24195426428E-01  0.12981867607E+00  0.20517312498E-01 0.  0.
         14    1    1    2    0    0  0.16316406433E-01 -0.13301107936E-01 -0.11249804653E-01  0.23868445612E-01  0.00000000000E+00 0.  1.
     999901    1    3    3    0    0 -0.10616227235E+00 -0.74870487613E-01  0.35445231081E-01  0.89024287832E+00  0.88000000000E+00 0.  1.
        -11    1    4    4    0    0  0.52506055259E-01  0.37347209569E-01 -0.13847464218E-01  0.65906853116E-01  0.51100000000E-03 0.  1.
         11    1    4    4    0    0  0.37339810662E-01  0.50824385980E-01 -0.10347962211E-01  0.63911822955E-01  0.51100000000E-03 0. -1.
</event>
<event>
 8    1  0.1117714E+005  0.1043930E+01  0.7957747E-01            NaN
         13   -1    0    0    0    0  0.00000000000E+00  0.00000000000E+00  0.74505805969E-08  0.10566000000E+00  0.10566000000E+00 0.  1.
     999900   -1    0    0    0    0 -0.00000000000E+00 -0.00000000000E+00 -0.74505805969E-08  0.93827000000E+00  0.93827000000E+00 0. -1.
     999902    2    1    2    0    0 -0.16342146385E-01  0.15945191306E-01  0.76674834022E-02  0.10198446273E+01  0.10195601791E+01 0.  0.
     999903    2    3    3    0    0 -0.64312977761E-01 -0.11034241596E+00 -0.80519218445E-02  0.12939706566E+00  0.19161400974E-01 0.  0.
         14    1    1    2    0    0  0.16342146385E-01 -0.15945191306E-01 -0.76674834022E-02  0.24085372656E-01  0.00000000000E+00 0. -1.
     999901    1    3    3    0    0  0.47970831376E-01  0.12628760727E+00  0.15719405247E-01  0.89044756169E+00  0.88000000000E+00 0.  1.
        -11    1    4    4    0    0 -0.25139328548E-01 -0.56006763713E-01  0.31839578455E-02  0.61474727572E-01  0.51100000000E-03 0.  1.
         11    1    4    4    0    0 -0.39173649213E-01 -0.54335652246E-01 -0.11235879690E-01  0.67922338086E-01  0.51100000000E-03 0. -1.
</event>
<event>
 8    1  0.1117714E+005  0.1043930E+01  0.7957747E-01            NaN
         13   -1    0    0    0    0  0.00000000000E+00  0.00000000000E+00  0.74505805969E-08  0.10566000000E+00  0.10566000000E+00 0.  1.
     999900   -1    0    0    0    0 -0.00000000000E+00 -0.00000000000E+00 -0.74505805969E-08  0.93827000000E+00  0.93827000000E+00 0. -1.
     999902    2    1    2    0    0 -0.17182556608E-01 -0.11101651382E-01 -0.12859165615E-01  0.10197671141E+01  0.10194808100E+01 0.  0.
     999903    2    3    3    0    0 -0.51588557055E-01 -0.11661681198E-01 -0.11995696268E+00  0.13260646087E+00  0.19935559727E-01 0.  0.
         14    1    1    2    0    0  0.17182556608E-01  0.11101651382E-01  0.12859165615E-01  0.24162885907E-01  0.00000000000E+00 0.  1.
     999901    1    3    3    0    0  0.34406000446E-01  0.56002981557E-03  0.10709779706E+00  0.88716065323E+00  0.88000000000E+00 0. -1.
        -11    1    4    4    0    0 -0.20971070810E-01 -0.13453951609E-01 -0.42074270429E-01  0.48900920011E-01  0.51100000000E-03 0.  1.
         11    1    4    4    0    0 -0.30617486245E-01  0.17922704107E-02 -0.77882692247E-01  0.83705540855E-01  0.51100000000E-03 0. -1.
</event>
<event>
 8    1  0.1117714E+005  0.1043930E+01  0.7957747E-01            NaN
         13   -1    0    0    0    0  0.00000000000E+00  0.00000000000E+00  0.74505805969E-08  0.10566000000E+00  0.10566000000E+00 0. -1.
     999900   -1    0    0    0    0 -0.00000000000E+00 -0.00000000000E+00 -0.74505805969E-08  0.93827000000E+00  0.93827000000E+00 0. -1.
     999902    2    1    2    0    0 -0.22844456350E-01  0.50508986942E-02 -0.46646771307E-02  0.10200733452E+01  0.10197943370E+01 0.  0.
     999903    2    3    3    0    0 -0.10126263401E-02 -0.18041328470E-02  0.12828951693E+00  0.12979224470E+00  0.19584338721E-01 0.  0.
         14    1    1    2    0    0  0.22844456350E-01 -0.50508986942E-02  0.46646771307E-02  0.23856654759E-01  0.00000000000E+00 0. -1.
     999901    1    3    3    0    0 -0.21831830010E-01  0.68550315412E-02 -0.13295419406E+00  0.89028110054E+00  0.88000000000E+00 0. -1.
        -11    1    4    4    0    0  0.11207488390E-02  0.49868544967E-02  0.11057479747E+00  0.11069404570E+00  0.51100000000E-03 0.  1.
         11    1    4    4    0    0 -0.21333751791E-02 -0.67909873438E-02  0.17714719457E-01  0.19098199004E-01  0.51100000000E-03 0. -1.
</event>
<event>
 8    1  0.1117714E+005  0.1043930E+01  0.7957747E-01            NaN
         13   -1    0    0    0    0  0.00000000000E+00  0.00000000000E+00  0.74505805969E-08  0.10566000000E+00  0.10566000000E+00 0. -1.
     999900   -1    0    0    0    0 -0.00000000000E+00 -0.00000000000E+00 -0.74505805969E-08  0.93827000000E+00  0.93827000000E+00 0.  1.
     999902    2    1    2    0    0 -0.13706633179E-01 -0.20934981107E-02  0.23047188660E-01  0.10170333937E+01  0.10166776758E+01 0.  0.
     999903    2    3    3    0    0 -0.34674105517E-01  0.12076585738E+00  0.15017283815E-01  0.12821477577E+00  0.20659719533E-01 0.  0.
         14    1    1    2    0    0  0.13706633179E-01  0.20934981107E-02 -0.23047188660E-01  0.26896606340E-01  0.00000000000E+00 0.  1.
     999901    1    3    3    0    0  0.20967472338E-01 -0.12285935549E+00  0.80299048455E-02  0.88881861789E+00  0.88000000000E+00 0. -1.
        -11    1    4    4    0    0 -0.27545781013E-01  0.86600697408E-01  0.18113923227E-02  0.90895506524E-01  0.51100000000E-03 0.  1.
         11    1    4    4    0    0 -0.71283245039E-02  0.34165159974E-01  0.13205891492E-01  0.37319269251E-01  0.51100000000E-03 0. -1.
</event>
<event>
 8    1  0.1117714E+005  0.1043930E+01  0.7957747E-01            NaN
         13   -1    0    0    0    0  0.00000000000E+00  0.00000000000E+00  0.74505805969E-08  0.10566000000E+00  0.10566000000E+00 0. -1.
     999900   -1    0    0    0    0 -0.00000000000E+00 -0.00000000000E+00 -0.74505805969E-08  0.93827000000E+00  0.93827000000E+00 0.  1.
     999902    2    1    2    0    0 -0.17489738566E-01  0.95339259711E-02 -0.13388597750E-01  0.10199291407E+01  0.10196467088E+01 0.  0.
     999903    2    3    3    0    0 -0.80838500884E-01  0.86684135921E-01  0.54347342058E-01  0.13169866486E+00  0.18490594716E-01 0.  0.
         14    1    1    2    0    0  0.17489738566E-01 -0.95339259711E-02  0.13388597750E-01  0.24000859344E-01  0.00000000000E+00 0. -1.
     999901    1    3    3    0    0  0.63348762318E-01 -0.77150209949E-01 -0.67735939808E-01  0.88823047579E+00  0.88000000000E+00 0.  1.
        -11    1    4    4    0    0 -0.75657671771E-01  0.75418526483E-01  0.52886420616E-01  0.11920265115E+00  0.51100000000E-03 0.  1.
         11    1    4    4    0    0 -0.51808291130E-02  0.11265609438E-01  0.14609214424E-02  0.12496013715E-01  0.51100000000E-03 0. -1.
</event>
<event>
 8    1  0.1117714E+005  0.1043930E+01  0.7957747E-01            NaN
         13   -1    0    0    0    0  0.00000000000E+00  0.00000000000E+00  0.74505805969E-08  0.10566000000E+00  0.10566000000E+00 0.  1.
     999900   -1    0    0    0    0 -0.00000000000E+00 -0.00000000000E+00 -0.74505805969E-08  0.93827000000E+00  0.93827000000E+00 0. -1.
     999902    2    1    2    0    0 -0.34946603200E-02  0.10850344197E-01  0.21141146341E-01  0.10199114512E+01  0.10196285978E+01 0.  0.
     999903    2    3    3    0    0 -0.21945904640E-02 -0.82087816125E-01 -0.95105120596E-01  0.12741361564E+00  0.21119178568E-01 0.  0.
         14    1    1    2    0    0  0.34946603200E-02 -0.10850344197E-01 -0.21141146341E-01  0.24018548843E-01  0.00000000000E+00 0. -1.
     999901    1    3    3    0    0 -0.13000698560E-02  0.92938160322E-01  0.11624626694E+00  0.89249783552E+00  0.88000000000E+00 0.  1.
        -11    1    4    4    0    0  0.81984451533E-02 -0.57331191583E-01 -0.66197439016E-01  0.87957046816E-01  0.51100000000E-03 0.  1.
         11    1    4    4    0    0 -0.10393035617E-01 -0.24756624542E-01 -0.28907681580E-01  0.39456568824E-01  0.51100000000E-03 0. -1.
</event>
<event>
 8    1  0.1117714E+005  0.1043930E+01  0.7957747E-01            NaN
         13   -1    0    0    0    0  0.00000000000E+00  0.00000000000E+00  0.74505805969E-08  0.10566000000E+00  0.10566000000E+00 0.  1.
     999900   -1    0    0    0    0 -0.00000000000E+00 -0.00000000000E+00 -0.74505805969E-08  0.93827000000E+00  0.93827000000E+00 0.  1.
     999902    2    1    2    0    0 -0.30251120161E-01 -0.13711235525E-01 -0.74134320931E-02  0.10098993193E+01  0.10093257888E+01 0.  0.
     999903    2    3    3    0    0  0.48193479655E-01 -0.72012079067E-01  0.80762029794E-01  0.12010863852E+00  0.19880356590E-01 0.  0.
         14    1    1    2    0    0  0.30251120161E-01  0.13711235525E-01  0.74134320931E-02  0.34030680657E-01  0.00000000000E+00 0.  1.
     999901    1    3    3    0    0 -0.78444599816E-01  0.58300843542E-01 -0.88175461887E-01  0.88979068082E+00  0.88000000000E+00 0. -1.
        -11    1    4    4    0    0  0.99419170981E-02 -0.30677795898E-01  0.24518467858E-01  0.40514013179E-01  0.51100000000E-03 0. -1.
         11    1    4    4    0    0  0.38251562557E-01 -0.41334283169E-01  0.56243561935E-01  0.79594625342E-01  0.51100000000E-03 0.  1.
</event>
<event>
 8    1  0.1117714E+005  0.1043930E+01  0.7957747E-01            NaN
         13   -1    0    0    0    0  0.00000000000E+00  0.00000000000E+00  0.74505805969E-08  0.10566000000E+00  0.10566000000E+00 0. -1.
     999900   -1    0    0    0    0 -0.00000000000E+00 -0.00000000000E+00 -0.74505805969E-08  0.93827000000E+00  0.93827000000E+00 0.  1.
     999902    2    1    2    0    0 -0.14360470326E-01 -0.13261702378E-01 -0.12931540003E-01  0.10204924109E+01  0.10202232305E+01 0.  0.
     999903    2    3    3    0    0  0.86466045912E-02  0.54602637965E-01  0.11425808680E+00  0.12846545199E+00  0.19805305145E-01 0.  0.
         14    1    1    2    0    0  0.14360470326E-01  0.13261702378E-01  0.12931540003E-01  0.23437589142E-01  0.00000000000E+00 0. -1.
     999901    1    3    3    0    0 -0.23007074917E-01 -0.67864340343E-01 -0.12718962680E+00  0.89202695887E+00  0.88000000000E+00 0.  1.
        -11    1    4    4    0    0  0.13588933099E-01  0.40447999382E-01  0.72904723627E-01  0.84475201124E-01  0.51100000000E-03 0.  1.
         11    1    4    4    0    0 -0.49423285077E-02  0.14154638583E-01  0.41353363170E-01  0.43990250863E-01  0.51100000000E-03 0. -1.
</event>
<event>
 8    1  0.1117714E+005  0.1043930E+01  0.7957747E-01            NaN
         13   -1    0    0    0    0  0.00000000000E+00  0.00000000000E+00  0.74505805969E-08  0.10566000000E+00  0.10566000000E+00 0. -1.
     999900   -1    0    0    0    0 -0.00000000000E+00 -0.00000000000E+00 -0.74505805969E-08  0.93827000000E+00  0.93827000000E+00 0.  1.
     999902    2    1    2    0    0 -0.28796718210E-02  0.13940643563E-01  0.18821278438E-01  0.10203318099E+01  0.10200588845E+01 0.  0.
     999903    2    3    3    0    0 -0.12659605888E+00  0.20971109417E-01 -0.16409953759E-01  0.13095201951E+00  0.20317363963E-01 0.  0.
         14    1    1    2    0    0  0.28796718210E-02 -0.13940643563E-01 -0.18821278438E-01  0.23598190074E-01  0.00000000000E+00 0.  1.
     999901    1    3    3    0    0  0.12371638706E+00 -0.70304658543E-02  0.35231232197E-01  0.88937979041E+00  0.88000000000E+00 0. -1.
        -11    1    4    4    0    0 -0.61818477748E-01  0.40363099345E-02 -0.16037666106E-01  0.63994404788E-01  0.51100000000E-03 0. -1.
         11    1    4    4    0    0 -0.64777581128E-01  0.16934799483E-01 -0.37228765275E-03  0.66957614723E-01  0.51100000000E-03 0.  1.
</event>
<event>
 8    1  0.1117714E+005  0.1043930E+01  0.7957747E-01            NaN
         13   -1    0    0    0    0  0.00000000000E+00  0.00000000000E+00  0.74505805969E-08  0.10566000000E+00  0.10566000000E+00 0. -1.
     999900   -1    0    0    0    0 -0.00000000000E+00 -0.00000000000E+00 -0.74505805969E-08  0.93827000000E+00  0.93827000000E+00 0. -1.
     999902    2    1    2    0    0  0.42139884890E-02 -0.15475347988E-02  0.23636247317E-01  0.10198712230E+01  0.10195874101E+01 0.  0.
     999903    2    3    3    0    0  0.10835621796E+00  0.46234556841E-01  0.54492794169E-01  0.13190677624E+00  0.23478262002E-01 0.  0.
         14    1    1    2    0    0 -0.42139884890E-02  0.15475347988E-02 -0.23636247317E-01  0.24058776988E-01  0.00000000000E+00 0.  1.
     999901    1    3    3    0    0 -0.10414222947E+00 -0.47782091640E-01 -0.30856546852E-01  0.88796444677E+00  0.88000000000E+00 0.  1.
        -11    1    4    4    0    0  0.70072521783E-01  0.19822222978E-01  0.25820612141E-01  0.77266059594E-01  0.51100000000E-03 0.  1.
         11    1    4    4    0    0  0.38283696173E-01  0.26412333864E-01  0.28672182028E-01  0.54640716650E-01  0.51100000000E-03 0. -1.
</event>
<event>
 8    1  0.1117714E+005  0.1043930E+01  0.7957747E-01            NaN
         13   -1    0    0    0    0  0.00000000000E+00  0.00000000000E+00  0.74505805969E-08  0.10566000000E+00  0.10566000000E+00 0. -1.
     999900   -1    0    0    0    0 -0.00000000000E+00 -0.00000000000E+00 -0.74505805969E-08  0.93827000000E+00  0.93827000000E+00 0. -1.
     999902    2    1    2    0    0 -0.42662324705E-02 -0.68736374402E-02 -0.22520568733E-01  0.10200004441E+01  0.10197197077E+01 0.  0.
     999903    2    3    3    0    0  0.12176065020E+00 -0.38067978190E-01 -0.18771231614E-01  0.13046690362E+00  0.19860183890E-01 0.  0.
         14    1    1    2    0    0  0.42662324705E-02  0.68736374402E-02  0.22520568733E-01  0.23929555934E-01  0.00000000000E+00 0. -1.
     999901    1    3    3    0    0 -0.12602688267E+00  0.31194340749E-01 -0.37493371194E-02  0.88953354045E+00  0.88000000000E+00 0.  1.
        -11    1    4    4    0    0  0.82311991396E-01 -0.30204954623E-01 -0.45471260300E-02  0.87798295470E-01  0.51100000000E-03 0.  1.
         11    1    4    4    0    0  0.39448658801E-01 -0.78630235670E-02 -0.14224105584E-01  0.42668608150E-01  0.51100000000E-03 0. -1.
</event>
<event>
 8    1  0.1117714E+005  0.1043930E+01  0.7957747E-01            NaN
         13   -1    0    0    0    0  0.00000000000E+00  0.00000000000E+00  0.74505805969E-08  0.10566000000E+00  0.10566000000E+00 0.  1.
     999900   -1    0    0    0    0 -0.00000000000E+00 -0.00000000000E+00 -0.74505805969E-08  0.93827000000E+00  0.93827000000E+00 0.  1.
     999902    2    1    2    0    0  0.56951197884E-02  0.18395031124E-01 -0.15518943850E-01  0.10191984578E+01  0.10188983498E+01 0.  0.
     999903    2    3    3    0    0 -0.31094611322E-01 -0.96041346765E-01 -0.77606930874E-01  0.12885914778E+00  0.19774455888E-01 0.  0.
         14    1    1    2    0    0 -0.56951197884E-02 -0.18395031124E-01  0.15518943850E-01  0.24731542162E-01  0.00000000000E+00 0. -1.
     999901    1    3    3    0    0  0.36789731111E-01  0.11443637789E+00  0.62087987024E-01  0.89033931006E+00  0.88000000000E+00 0.  1.
        -11    1    4    4    0    0 -0.25679022844E-01 -0.53278065429E-01 -0.51762575370E-01  0.78597645003E-01  0.51100000000E-03 0. -1.
         11    1    4    4    0    0 -0.54155884783E-02 -0.42763281335E-01 -0.25844355504E-01  0.50261502778E-01  0.51100000000E-03 0.  1.
</event>
<event>
 8    1  0.1117714E+005  0.1043930E+01  0.7957747E-01            NaN
         13   -1    0    0    0    0  0.00000000000E+00  0.00000000000E+00  0.74505805969E-08  0.10566000000E+00  0.10566000000E+00 0. -1.
     999900   -1    0    0    0    0 -0.00000000000E+00 -0.00000000000E+00 -0.74505805969E-08  0.93827000000E+00  0.93827000000E+00 0.  1.
     999902    2    1    2    0    0  0.68475099954E-02 -0.15070511472E-01 -0.17800410322E-01  0.10196223198E+01  0.10193325325E+01 0.  0.
     999903    2    3    3    0    0  0.35486416565E-01  0.96952652630E-02  0.12101433275E+00  0.12793680149E+00  0.19237268913E-01 0.  0.
         14    1    1    2    0    0 -0.68475099954E-02  0.15070511472E-01  0.17800410322E-01  0.24307680202E-01  0.00000000000E+00 0. -1.
     999901    1    3    3    0    0 -0.28638906569E-01 -0.24765776735E-01 -0.13881474307E+00  0.89168551831E+00  0.88000000000E+00 0.  1.
        -11    1    4    4    0    0  0.32210175638E-01  0.55045027409E-02  0.77688032541E-01  0.84282183682E-01  0.51100000000E-03 0. -1.
         11    1    4    4    0    0  0.32762409271E-02  0.41907625221E-02  0.43326300209E-01  0.43654617808E-01  0.51100000000E-03 0.  1.
</event>
<event>
 8    1  0.1117714E+005  0.1043930E+01  0.7957747E-01            NaN
         13   -1    0    0    0    0  0.00000000000E+00  0.00000000000E+00  0.74505805969E-08  0.10566000000E+00  0.10566000000E+00 0.  1.
     999900   -1    0    0    0    0 -0.00000000000E+00 -0.00000000000E+00 -0.74505805969E-08  0.93827000000E+00  0.93827000000E+00 0. -1.
     999902    2    1    2    0    0 -0.17143286263E-01 -0.39871191301E-02 -0.15181088410E-01  0.10206866175E+01  0.10204219306E+01 0.  0.
     999903    2    3    3    0    0  0.61766941917E-01 -0.11101545235E+00 -0.22720623856E-01  0.13066485780E+00  0.20432634165E-01 0.  0.
         14    1    1    2    0    0  0.17143286263E-01  0.39871191301E-02  0.15181088410E-01  0.23243382460E-01  0.00000000000E+00 0.  1.
     999901    1    3    3    0    0 -0.78910228180E-01  0.10702833322E+00  0.75395354461E-02  0.89002175974E+00  0.88000000000E+00 0. -1.
        -11    1    4    4    0    0  0.91539558473E-03 -0.57929990942E-02 -0.52031440252E-02  0.78568833725E-02  0.51100000000E-03 0.  1.
         11    1    4    4    0    0  0.60851546332E-01 -0.10522245326E+00 -0.17517479831E-01  0.12280797442E+00  0.51100000000E-03 0. -1.
</event>
<event>
 8    1  0.1117714E+005  0.1043930E+01  0.7957747E-01            NaN
         13   -1    0    0    0    0  0.00000000000E+00  0.00000000000E+00  0.74505805969E-08  0.10566000000E+00  0.10566000000E+00 0.  1.
     999900   -1    0    0    0    0 -0.00000000000E+00 -0.00000000000E+00 -0.74505805969E-08  0.93827000000E+00  0.93827000000E+00 0. -1.
     999902    2    1    2    0    0 -0.23746705605E-01 -0.19351627669E-02 -0.28109858169E-03  0.10201029167E+01  0.10198246078E+01 0.  0.
     999903    2    3    3    0    0 -0.10687648491E+00  0.70596189850E-01 -0.30115295844E-01  0.13271267749E+00  0.17300828735E-01 0.  0.
         14    1    1    2    0    0  0.23746705605E-01  0.19351627669E-02  0.28109858169E-03  0.23827083297E-01  0.00000000000E+00 0. -1.
     999901    1    3    3    0    0  0.83129779307E-01 -0.72531352617E-01  0.29834197263E-01  0.88739023921E+00  0.88000000000E+00 0. -1.
        -11    1    4    4    0    0 -0.81503308687E-02  0.74516013326E-02  0.19172730840E-02  0.11220129802E-01  0.51100000000E-03 0.  1.
         11    1    4    4    0    0 -0.98726154043E-01  0.63144588518E-01 -0.32032568928E-01  0.12149254769E+00  0.51100000000E-03 0. -1.
</event>
<event>
 8    1  0.1117714E+005  0.1043930E+01  0.7957747E-01            NaN
         13   -1    0    0    0    0  0.00000000000E+00  0.00000000000E+00  0.74505805969E-08  0.10566000000E+00  0.10566000000E+00 0. -1.
     999900   -1    0    0    0    0 -0.00000000000E+00 -0.00000000000E+00 -0.74505805969E-08  0.93827000000E+00  0.93827000000E+00 0.  1.
     999902    2    1    2    0    0 -0.16753174123E-01  0.92862542783E-02  0.13863159894E-01  0.10202849040E+01  0.10200108797E+01 0.  0.
     999903    2    3    3    0    0  0.49754306875E-01  0.65340871759E-01  0.10111860372E+00  0.13170239370E+00  0.19381122562E-01 0.  0.
         14    1    1    2    0    0  0.16753174123E-01 -0.92862542783E-02 -0.13863159894E-01  0.23645095981E-01  0.00000000000E+00 0.  1.
     999901    1    3    3    0    0 -0.66507480998E-01 -0.56054617480E-01 -0.87255443831E-01  0.88858251032E+00  0.88000000000E+00 0.  1.
        -11    1    4    4    0    0  0.36325523373E-01  0.36689943114E-01  0.72695089287E-01  0.89165759692E-01  0.51100000000E-03 0. -1.
         11    1    4    4    0    0  0.13428783502E-01  0.28650928645E-01  0.28423514438E-01  0.42536634006E-01  0.51100000000E-03 0.  1.
</event>
<event>
 8    1  0.1117714E+005  0.1043930E+01  0.7957747E-01            NaN
         13   -1    0    0    0    0  0.00000000000E+00  0.00000000000E+00  0.74505805969E-08  0.10566000000E+00  0.10566000000E+00 0.  1.
     999900   -1    0    0    0    0 -0.00000000000E+00 -0.00000000000E+00 -0.74505805969E-08  0.93827000000E+00  0.93827000000E+00 0. -1.
     999902    2    1    2    0    0  0.15407217739E-01  0.17828807907E-01 -0.61182591808E-02  0.10195849421E+01  0.10192942521E+01 0.  0.
     999903    2    3    3    0    0  0.65459154664E-01 -0.10522011816E+00 -0.30625764014E-01  0.12927777464E+00  0.20460483845E-01 0.  0.
         14    1    1    2    0    0 -0.15407217739E-01 -0.17828807907E-01  0.61182591808E-02  0.24345057922E-01  0.00000000000E+00 0.  1.
     999901    1    3    3    0    0 -0.50051936925E-01  0.12304892607E+00  0.24507504833E-01  0.89030716744E+00  0.88000000000E+00 0. -1.
        -11    1    4    4    0    0  0.31275123978E-01 -0.36152053366E-01 -0.18515265360E-01  0.51265783080E-01  0.51100000000E-03 0.  1.
         11    1    4    4    0    0  0.34184030685E-01 -0.69068064796E-01 -0.12110498654E-01  0.78011991561E-01  0.51100000000E-03 0. -1.
</event>
<event>
 8    1  0.1117714E+005  0.1043930E+01  0.7957747E-01            NaN
         13   -1    0    0    0    0  0.00000000000E+00  0.00000000000E+00  0.74505805969E-08  0.10566000000E+00  0.10566000000E+00 0. -1.
     999900   -1    0    0    0    0 -0.00000000000E+00 -0.00000000000E+00 -0.74505805969E-08  0.93827000000E+00  0.93827000000E+00 0. -1.
     999902    2    1    2    0    0  0.19257028633E-01  0.13193532825E-01  0.18393035863E-02  0.10205145030E+01  0.10202458358E+01 0.  0.
     999903    2    3    3    0    0 -0.99104922833E-01 -0.16671351971E-02 -0.79509310726E-01  0.12874772408E+00  0.20728745594E-01 0.  0.
         14    1    1    2    0    0 -0.19257028633E-01 -0.13193532825E-01 -0.18393035863E-02  0.23415496959E-01  0.00000000000E+00 0.  1.
     999901    1    3    3    0    0  0.11836195147E+00  0.14860668022E-01  0.81348614312E-01  0.89176677896E+00  0.88000000000E+00 0.  1.
        -11    1    4    4    0    0 -0.23621422734E-01  0.63851689532E-02 -0.12460371349E-01  0.27463866620E-01  0.51100000000E-03 0. -1.
         11    1    4    4    0    0 -0.75483500099E-01 -0.80523041503E-02 -0.67048939376E-01  0.10128385746E+00  0.51100000000E-03 0.  1.
</event>
<event>
 8    1  0.1117714E+005  0.1043930E+01  0.7957747E-01            NaN
         13   -1    0    0    0    0  0.00000000000E+00  0.00000000000E+00  0.74505805969E-08  0.10566000000E+00  0.10566000000E+00 0.  1.
     999900   -1    0    0    0    0 -0.00000000000E+00 -0.00000000000E+00 -0.74505805969E-08  0.93827000000E+00  0.93827000000E+00 0. -1.
     999902    2    1    2    0    0 -0.14564876620E-01  0.36980504406E-02 -0.18687376842E-01  0.10199502323E+01  0.10196683024E+01 0.  0.
     999903    2    3    3    0    0 -0.30668300572E-01  0.94717480623E-01 -0.85267186401E-01  0.13260772342E+00  0.20059148514E-01 0.  0.
         14    1    1    2    0    0  0.14564876620E-01 -0.36980504406E-02  0.18687376842E-01  0.23979767748E-01  0.00000000000E+00 0.  1.
     999901    1    3    3    0    0  0.16103423952E-01 -0.91019430182E-01  0.66579809558E-01  0.88734250883E+00  0.88000000000E+00 0.  1.
        -11    1    4    4    0    0 -0.21649248722E-01  0.43660052600E-01 -0.50492502103E-01  0.70175808174E-01  0.51100000000E-03 0.  1.
         11    1    4    4    0    0 -0.90190518500E-02  0.51057428023E-01 -0.34774684297E-01  0.62431915249E-01  0.51100000000E-03 0. -1.
</event>
<event>
 8    1  0.1117714E+005  0.1043930E+01  0.7957747E-01            NaN
         13   -1    0    0    0    0  0.00000000000E+00  0.00000000000E+00  0.74505805969E-08  0.10566000000E+00  0.10566000000E+00 0.  1.
     999900   -1    0    0    0    0 -0.00000000000E+00 -0.00000000000E+00 -0.74505805969E-08  0.93827000000E+00  0.93827000000E+00 0.  1.
     999902    2    1    2    0    0 -0.33878521011E-02  0.22405129451E-01 -0.75003293606E-02  0.10200611436E+01  0.10197818464E+01 0.  0.
     999903    2    3    3    0    0 -0.98584467805E-01 -0.11022922695E-01  0.81839751780E-01  0.12980192265E+00  0.17617946360E-01 0.  0.
         14    1    1    2    0    0  0.33878521011E-02 -0.22405129451E-01  0.75003293606E-02  0.23868856447E-01  0.00000000000E+00 0.  1.
     999901    1    3    3    0    0  0.95196615704E-01  0.33428052147E-01 -0.89340081141E-01  0.89025922091E+00  0.88000000000E+00 0.  1.
        -11    1    4    4    0    0 -0.41345182995E-01  0.36702492531E-02  0.30384067876E-01  0.51442663113E-01  0.51100000000E-03 0.  1.
         11    1    4    4    0    0 -0.57239284810E-01 -0.14693171949E-01  0.51455683904E-01  0.78359259533E-01  0.51100000000E-03 0. -1.
</event>
<event>
 8    1  0.1117714E+005  0.1043930E+01  0.7957747E-01            NaN
         13   -1    0    0    0    0  0.00000000000E+00  0.00000000000E+00  0.74505805969E-08  0.10566000000E+00  0.10566000000E+00 0.  1.
     999900   -1    0    0    0    0 -0.00000000000E+00 -0.00000000000E+00 -0.74505805969E-08  0.93827000000E+00  0.93827000000E+00 0.  1.
     999902    2    1    2    0    0 -0.11468093368E-01 -0.20198483190E-01  0.56141251150E-02  0.10200340947E+01  0.10197541567E+01 0.  0.
     999903    2    3    3    0    0  0.10286983190E+00  0.61134122073E-02 -0.74274839450E-01  0.12866002977E+00  0.20422423007E-01 0.  0.
         14    1    1    2    0    0  0.11468093368E-01  0.20198483190E-01 -0.56141251150E-02  0.23895905287E-01  0.00000000000E+00 0.  1.
     999901    1    3    3    0    0 -0.11433792527E+00 -0.26311895397E-01  0.79888964565E-01  0.89137406494E+00  0.88000000000E+00 0. -1.
        -11    1    4    4    0    0  0.53278993667E-01  0.96042738315E-02 -0.29000039909E-01  0.61417885650E-01  0.51100000000E-03 0. -1.
         11    1    4    4    0    0  0.49590838232E-01 -0.34908616242E-02 -0.45274799541E-01  0.67242144120E-01  0.51100000000E-03 0.  1.
</event>
<event>
 8    1  0.1117714E+005  0.1043930E+01  0.7957747E-01            NaN
         13   -1    0    0    0    0  0.00000000000E+00  0.00000000000E+00  0.74505805969E-08  0.10566000000E+00  0.10566000000E+00 0.  1.
     999900   -1    0    0    0    0 -0.00000000000E+00 -0.00000000000E+00 -0.74505805969E-08  0.93827000000E+00  0.93827000000E+00 0.  1.
     999902    2    1    2    0    0  0.17121678986E-01 -0.13532252546E-01  0.91276215325E-02  0.10202744039E+01  0.10200001334E+01 0.  0.
     999903    2    3    3    0    0  0.41223189827E-01 -0.12394048933E+00  0.15130934086E-01  0.13302759423E+00  0.20169268344E-01 0.  0.
         14    1    1    2    0    0 -0.17121678986E-01  0.13532252546E-01 -0.91276215325E-02  0.23655596063E-01  0.00000000000E+00 0. -1.
     999901    1    3    3    0    0 -0.24101510842E-01  0.11040823678E+00 -0.60033125531E-02  0.88724680971E+00  0.88000000000E+00 0. -1.
        -11    1    4    4    0    0  0.11585091629E-01 -0.33931183147E-01 -0.48345185577E-02  0.36182498926E-01  0.51100000000E-03 0.  1.
         11    1    4    4    0    0  0.29638098198E-01 -0.90009306182E-01  0.19965452643E-01  0.96845095304E-01  0.51100000000E-03 0. -1.
</event>
<event>
 8    1  0.1117714E+005  0.1043930E+01  0.7957747E-01            NaN
         13   -1    0    0    0    0  0.00000000000E+00  0.00000000000E+00  0.74505805969E-08  0.10566000000E+00  0.10566000000E+00 0.  1.
     999900   -1    0    0    0    0 -0.00000000000E+00 -0.00000000000E+00 -0.74505805969E-08  0.93827000000E+00  0.93827000000E+00 0.  1.
     999902    2    1    2    0    0 -0.34028127377E-02 -0.18508725584E-01 -0.15806017904E-01  0.10193539495E+01  0.10190576490E+01 0.  0.
     999903    2    3    3    0    0 -0.89618745706E-01  0.70988739847E-01  0.53305936591E-01  0.12793965429E+00  0.21356766992E-01 0.  0.
         14    1    1    2    0    0  0.34028127377E-02  0.18508725584E-01  0.15806017904E-01  0.24576050522E-01  0.00000000000E+00 0.  1.
     999901    1    3    3    0    0  0.86215932968E-01 -0.89497465432E-01 -0.69111954494E-01  0.89141429519E+00  0.88000000000E+00 0.  1.
        -11    1    4    4    0    0 -0.59098903437E-01  0.33549036248E-01  0.32819938095E-01  0.75469382389E-01  0.51100000000E-03 0. -1.
         11    1    4    4    0    0 -0.30519842269E-01  0.37439703599E-01  0.20485998496E-01  0.52470271898E-01  0.51100000000E-03 0.  1.
</event>
<event>
 8    1  0.1117714E+005  0.1043930E+01  0.7957747E-01            NaN
         13   -1    0    0    0    0  0.00000000000E+00  0.00000000000E+00  0.74505805969E-08  0.10566000000E+00  0.10566000000E+00 0.  1.
     999900   -1    0    0    0    0 -0.00000000000E+00 -0.00000000000E+00 -0.74505805969E-08  0.93827000000E+00  0.93827000000E+00 0. -1.
     999902    2    1    2    0    0 -0.13188407735E-02 -0.23210497728E-01 -0.28590556842E-03  0.10206803056E+01  0.10204154732E+01 0.  0.
     999903    2    3    3    0    0 -0.74511404114E-01  0.13853094734E-01  0.10456466827E+00  0.13066653943E+00  0.19902690764E-01 0.  0.
         14    1    1    2    0    0  0.13188407735E-02  0.23210497728E-01  0.28590556842E-03  0.23249694358E-01  0.00000000000E+00 0. -1.
     999901    1    3    3    0    0  0.73192563340E-01 -0.37063592462E-01 -0.10485057384E+00  0.89001376621E+00  0.88000000000E+00 0.  1.
        -11    1    4    4    0    0 -0.56341810415E-01  0.91567056666E-02  0.91311726736E-01  0.10768629170E+00  0.51100000000E-03 0.  1.
         11    1    4    4    0    0 -0.18169593699E-01  0.46963890679E-02  0.13252941532E-01  0.22980247729E-01  0.51100000000E-03 0. -1.
</event>
<event>
 8    1  0.1117714E+005  0.1043930E+01  0.7957747E-01            NaN
         13   -1    0    0    0    0  0.00000000000E+00  0.00000000000E+00  0.74505805969E-08  0.10566000000E+00  0.10566000000E+00 0. -1.
     999900   -1    0    0    0    0 -0.00000000000E+00 -0.00000000000E+00 -0.74505805969E-08  0.93827000000E+00  0.93827000000E+00 0. -1.
     999902    2    1    2    0    0  0.28271477862E-02  0.10296074951E-01  0.26940470258E-01  0.10149508547E+01  0.10145370602E+01 0.  0.
     999903    2    3    3    0    0  0.85248252037E-01  0.89628811879E-01 -0.17176587577E-01  0.12645029964E+00  0.19850811648E-01 0.  0.
         14    1    1    2    0    0 -0.28271477862E-02 -0.10296074951E-01 -0.26940470258E-01  0.28979145290E-01  0.00000000000E+00 0.  1.
     999901    1    3    3    0    0 -0.82421104251E-01 -0.79332736928E-01  0.44117057836E-01  0.88850055507E+00  0.88000000000E+00 0. -1.
        -11    1    4    4    0    0  0.57585021546E-01  0.61135470414E-01 -0.22365286342E-02  0.84016924667E-01  0.51100000000E-03 0.  1.
         11    1    4    4    0    0  0.27663230492E-01  0.28493341465E-01 -0.14940058943E-01  0.42433374969E-01  0.51100000000E-03 0. -1.
</event>
<event>
 7    1  0.1117714E+005  0.1043930E+01  0.7957747E-01            NaN
         13   -1    0    0    0    0  0.00000000000E+00  0.00000000000E+00  0.74505805969E-08  0.10566000000E+00  0.10566000000E+00 0. -1.
     999900   -1    0    0    0    0 -0.00000000000E+00 -0.00000000000E+00 -0.74505805969E-08  0.93827000000E+00  0.93827000000E+00 0. -1.
     999903    2    1    2    0    0  0.14005922238E-01  0.86740968549E-01 -0.75882478615E-01  0.11775980466E+00  0.19724592510E-01 0.  0.
         14    1    1    2    0    0 -0.38389924227E-01 -0.46506217241E-02  0.73349956442E-02  0.39360090519E-01  0.00000000000E+00 0.  1.
     999901    1    1    2    0    0  0.24384001989E-01 -0.82090346825E-01  0.68547482971E-01  0.88681010482E+00  0.88000000000E+00 0.  1.
        -11    1    3    3    0    0  0.60092557252E-02  0.53311410110E-01 -0.33756420368E-01  0.63387495922E-01  0.51100000000E-03 0. -1.
         11    1    3    3    0    0  0.79966665128E-02  0.33429558440E-01 -0.42126058247E-01  0.54372308736E-01  0.51100000000E-03 0.  1.
</event>
<event>
 8    1  0.1117714E+005  0.1043930E+01  0.7957747E-01            NaN
         13   -1    0    0    0    0  0.00000000000E+00  0.00000000000E+00  0.74505805969E-08  0.10566000000E+00  0.10566000000E+00 0.  1.
     999900   -1    0    0    0    0 -0.00000000000E+00 -0.00000000000E+00 -0.74505805969E-08  0.93827000000E+00  0.93827000000E+00 0.  1.
     999902    2    1    2    0    0 -0.18993387588E-01 -0.16244860181E-01 -0.55316831244E-03  0.10189309950E+01  0.10186242793E+01 0.  0.
     999903    2    3    3    0    0 -0.44280183390E-02  0.76995659147E-01 -0.10038565802E+00  0.12827254735E+00  0.20703313584E-01 0.  0.
         14    1    1    2    0    0  0.18993387588E-01  0.16244860181E-01  0.55316831244E-03  0.24999004972E-01  0.00000000000E+00 0. -1.
     999901    1    3    3    0    0 -0.14565369249E-01 -0.93240519328E-01  0.99832489705E-01  0.89065844768E+00  0.88000000000E+00 0. -1.
        -11    1    4    4    0    0 -0.54449673678E-02  0.65286025864E-01 -0.70943456631E-01  0.96566805904E-01  0.51100000000E-03 0. -1.
         11    1    4    4    0    0  0.10169490287E-02  0.11709633283E-01 -0.29442201386E-01  0.31705741442E-01  0.51100000000E-03 0.  1.
</event>
<event>
 7    1  0.1439493E+005  0.1043930E+01  0.7957747E-01            NaN
         13   -1    0    0    0    0  0.00000000000E+00  0.00000000000E+00  0.74505805969E-08  0.10566000000E+00  0.10566000000E+00 0.  1.
     999900   -1    0    0    0    0 -0.00000000000E+00 -0.00000000000E+00 -0.74505805969E-08  0.93827000000E+00  0.93827000000E+00 0.  1.
     999903    2    1    2    0    0  0.19996362010E-01 -0.13889114924E-01 -0.10744617431E+00  0.11194582568E+00  0.19860148661E-01 0.  0.
         14    1    1    2    0    0 -0.32506498091E-01 -0.11173711431E-01 -0.23801751662E-01  0.41809659500E-01  0.00000000000E+00 0. -1.
     999901    1    1    2    0    0  0.12510136080E-01  0.25062826356E-01  0.13124792598E+00  0.89017451482E+00  0.88000000000E+00 0. -1.
        -11    1    3    3    0    0 -0.57360982774E-03 -0.44348224852E-02 -0.49931779296E-01  0.50134223674E-01  0.51100000000E-03 0. -1.
         11    1    3    3    0    0  0.20569971838E-01 -0.94542924390E-02 -0.57514395017E-01  0.61811602002E-01  0.51100000000E-03 0.  1.
</event>
<event>
 8    1  0.1117714E+005  0.1043930E+01  0.7957747E-01            NaN
         13   -1    0    0    0    0  0.00000000000E+00  0.00000000000E+00  0.74505805969E-08  0.10566000000E+00  0.10566000000E+00 0.  1.
     999900   -1    0    0    0    0 -0.00000000000E+00 -0.00000000000E+00 -0.74505805969E-08  0.93827000000E+00  0.93827000000E+00 0. -1.
     999902    2    1    2    0    0  0.14815306483E-01  0.18750725819E-01 -0.82495378073E-02  0.10186488232E+01  0.10183350564E+01 0.  0.
     999903    2    3    3    0    0 -0.37012034876E-03  0.11948740452E+00 -0.52111744835E-01  0.13168638387E+00  0.18662607487E-01 0.  0.
         14    1    1    2    0    0 -0.14815306483E-01 -0.18750725819E-01  0.82495378073E-02  0.25281176772E-01  0.00000000000E+00 0.  1.
     999901    1    3    3    0    0  0.15185426832E-01 -0.10073667870E+00  0.43862207027E-01  0.88696243936E+00  0.88000000000E+00 0. -1.
        -11    1    4    4    0    0 -0.67184275391E-02  0.57553867830E-01 -0.17915337327E-01  0.60653156582E-01  0.51100000000E-03 0.  1.
         11    1    4    4    0    0  0.63483071904E-02  0.61933536694E-01 -0.34196407508E-01  0.71033227289E-01  0.51100000000E-03 0. -1.
</event>
<event>
 8    1  0.1117714E+005  0.1043930E+01  0.7957747E-01            NaN
         13   -1    0    0    0    0  0.00000000000E+00  0.00000000000E+00  0.74505805969E-08  0.10566000000E+00  0.10566000000E+00 0. -1.
     999900   -1    0    0    0    0 -0.00000000000E+00 -0.00000000000E+00 -0.74505805969E-08  0.93827000000E+00  0.93827000000E+00 0. -1.
     999902    2    1    2    0    0 -0.40304370084E-02  0.67948073539E-02 -0.21931738084E-01  0.10206187374E+01  0.10203524843E+01 0.  0.
     999903    2    3    3    0    0 -0.27437642849E-01  0.11295907419E+00  0.55734569170E-01  0.13053402000E+00  0.20499060692E-01 0.  0.
         14    1    1    2    0    0  0.40304370084E-02 -0.67948073539E-02  0.21931738084E-01  0.23311262618E-01  0.00000000000E+00 0. -1.
     999901    1    3    3    0    0  0.23407205841E-01 -0.10616426684E+00 -0.77666307254E-01  0.89008471738E+00  0.88000000000E+00 0. -1.
        -11    1    4    4    0    0  0.11534908847E-02  0.16730116512E-01  0.13862360297E-01  0.21763581822E-01  0.51100000000E-03 0.  1.
         11    1    4    4    0    0 -0.28591133734E-01  0.96228957679E-01  0.41872208873E-01  0.10877043818E+00  0.51100000000E-03 0. -1.
</event>
<event>
 8    1  0.1117714E+005  0.1043930E+01  0.7957747E-01            NaN
         13   -1    0    0    0    0  0.00000000000E+00  0.00000000000E+00  0.74505805969E-08  0.10566000000E+00  0.10566000000E+00 0. -1.
     999900   -1    0    0    0    0 -0.00000000000E+00 -0.00000000000E+00 -0.74505805969E-08  0.93827000000E+00  0.93827000000E+00 0. -1.
     999902    2    1    2    0    0  0.97986153260E-03 -0.21820865202E-01  0.54023904788E-02  0.10214289754E+01  0.10211811081E+01 0.  0.
     999903    2    3    3    0    0 -0.39247568187E-01  0.11442426251E+00 -0.39747814328E-01  0.12889352961E+00  0.20009242202E-01 0.  0.
         14    1    1    2    0    0 -0.97986153260E-03  0.21820865202E-01 -0.54023904788E-02  0.22501024636E-01  0.00000000000E+00 0.  1.
     999901    1    3    3    0    0  0.40227429720E-01 -0.13624512771E+00  0.45150204807E-01  0.89253544575E+00  0.88000000000E+00 0.  1.
        -11    1    4    4    0    0 -0.21220680424E-01  0.35639914538E-01 -0.17833259382E-01  0.45153151021E-01  0.51100000000E-03 0. -1.
         11    1    4    4    0    0 -0.18026887763E-01  0.78784347970E-01 -0.21914554946E-01  0.83740378593E-01  0.51100000000E-03 0.  1.
</event>
<event>
 8    1  0.1117714E+005  0.1043930E+01  0.7957747E-01            NaN
         13   -1    0    0    0    0  0.00000000000E+00  0.00000000000E+00  0.74505805969E-08  0.10566000000E+00  0.10566000000E+00 0.  1.
     999900   -1    0    0    0    0 -0.00000000000E+00 -0.00000000000E+00 -0.74505805969E-08  0.93827000000E+00  0.93827000000E+00 0.  1.
     999902    2    1    2    0    0  0.18479298269E-01  0.15513963082E-01  0.43981746775E-02  0.10194042695E+01  0.10191091959E+01 0.  0.
     999903    2    3    3    0    0 -0.80685715921E-01  0.58385500863E-01  0.80501214755E-01  0.12953723367E+00  0.19503791031E-01 0.  0.
         14    1    1    2    0    0 -0.18479298269E-01 -0.15513963082E-01 -0.43981746775E-02  0.24525730478E-01  0.00000000000E+00 0.  1.
     999901    1    3    3    0    0  0.99165014189E-01 -0.42871537781E-01 -0.76103040077E-01  0.88986703585E+00  0.88000000000E+00 0. -1.
        -11    1    4    4    0    0 -0.49116450170E-01  0.31879380642E-01  0.58655871313E-01  0.82882404332E-01  0.51100000000E-03 0.  1.
         11    1    4    4    0    0 -0.31569265751E-01  0.26506120221E-01  0.21845343442E-01  0.46654829335E-01  0.51100000000E-03 0. -1.
</event>
<event>
 8    1  0.1117714E+005  0.1043930E+01  0.7957747E-01            NaN
         13   -1    0    0    0    0  0.00000000000E+00  0.00000000000E+00  0.74505805969E-08  0.10566000000E+00  0.10566000000E+00 0.  1.
     999900   -1    0    0    0    0 -0.00000000000E+00 -0.00000000000E+00 -0.74505805969E-08  0.93827000000E+00  0.93827000000E+00 0.  1.
     999902    2    1    2    0    0 -0.30040294825E-02  0.15860117517E-03 -0.23266823210E-01  0.10204695139E+01  0.10201998012E+01 0.  0.
     999903    2    3    3    0    0 -0.27698641680E-01 -0.12469197279E+00  0.17334758798E-01  0.13038750744E+00  0.19624102642E-01 0.  0.
         14    1    1    2    0    0  0.30040294825E-02 -0.15860117517E-03  0.23266823210E-01  0.23460486137E-01  0.00000000000E+00 0.  1.
     999901    1    3    3    0    0  0.24694612198E-01  0.12485057397E+00 -0.40601582008E-01  0.89008200642E+00  0.88000000000E+00 0. -1.
        -11    1    4    4    0    0 -0.58562573040E-02 -0.48904784968E-01  0.14958601160E-01  0.51478098373E-01  0.51100000000E-03 0. -1.
         11    1    4    4    0    0 -0.21842384376E-01 -0.75787187826E-01  0.23761576380E-02  0.78909409070E-01  0.51100000000E-03 0.  1.
</event>
<event>
 8    1  0.1117714E+005  0.1043930E+01  0.7957747E-01            NaN
         13   -1    0    0    0    0  0.00000000000E+00  0.00000000000E+00  0.74505805969E-08  0.10566000000E+00  0.10566000000E+00 0.  1.
     999900   -1    0    0    0    0 -0.00000000000E+00 -0.00000000000E+00 -0.74505805969E-08  0.93827000000E+00  0.93827000000E+00 0.  1.
     999902    2    1    2    0    0  0.32875580963E-02  0.22490067663E-01 -0.63067818307E-02  0.10203421498E+01  0.10200694662E+01 0.  0.
     999903    2    3    3    0    0 -0.65056632469E-02 -0.47313218074E-01 -0.11951521213E+00  0.13029464846E+00  0.20296433852E-01 0.  0.
         14    1    1    2    0    0 -0.32875580963E-02 -0.22490067663E-01  0.63067818307E-02  0.23587850237E-01  0.00000000000E+00 0.  1.
     999901    1    3    3    0    0  0.97932213432E-02  0.69803285737E-01  0.11320843030E+00  0.89004750130E+00  0.88000000000E+00 0. -1.
        -11    1    4    4    0    0  0.47934460123E-02 -0.13215568671E-01 -0.51352579398E-01  0.53244501235E-01  0.51100000000E-03 0. -1.
         11    1    4    4    0    0 -0.11299109259E-01 -0.34097649403E-01 -0.68162632736E-01  0.77050147225E-01  0.51100000000E-03 0.  1.
</event>
<event>
 8    1  0.1117714E+005  0.1043930E+01  0.7957747E-01            NaN
         13   -1    0    0    0    0  0.00000000000E+00  0.00000000000E+00  0.74505805969E-08  0.10566000000E+00  0.10566000000E+00 0.  1.
     999900   -1    0    0    0    0 -0.00000000000E+00 -0.00000000000E+00 -0.74505805969E-08  0.93827000000E+00  0.93827000000E+00 0. -1.
     999902    2    1    2    0    0  0.19363408705E-01 -0.13131510595E-01 -0.62892332886E-02  0.10197033076E+01  0.10194154712E+01 0.  0.
     999903    2    3    3    0    0  0.56184852524E-01 -0.11812445836E+00 -0.99456893208E-02  0.13268994389E+00  0.19939387122E-01 0.  0.
         14    1    1    2    0    0 -0.19363408705E-01  0.13131510595E-01  0.62892332886E-02  0.24226692357E-01  0.00000000000E+00 0. -1.
     999901    1    3    3    0    0 -0.36821443818E-01  0.10499294776E+00  0.36564560323E-02  0.88701336375E+00  0.88000000000E+00 0. -1.
        -11    1    4    4    0    0  0.52036779791E-01 -0.92116705113E-01 -0.52232468011E-02  0.10592854780E+00  0.51100000000E-03 0.  1.
         11    1    4    4    0    0  0.41480727323E-02 -0.26007753242E-01 -0.47224425198E-02  0.26761396086E-01  0.51100000000E-03 0. -1.
</event>
<event>
 8    1  0.1117714E+005  0.1043930E+01  0.7957747E-01            NaN
         13   -1    0    0    0    0  0.00000000000E+00  0.00000000000E+00  0.74505805969E-08  0.10566000000E+00  0.10566000000E+00 0.  1.
     999900   -1    0    0    0    0 -0.00000000000E+00 -0.00000000000E+00 -0.74505805969E-08  0.93827000000E+00  0.93827000000E+00 0. -1.
     999902    2    1    2    0    0 -0.12581942274E-01  0.12611431176E-01 -0.15597264196E-01  0.10202524132E+01  0.10199776265E+01 0.  0.
     999903    2    3    3    0    0  0.11262554551E+00 -0.33928096773E-01  0.46447374376E-01  0.12801232225E+00  0.19853634667E-01 0.  0.
         14    1    1    2    0    0  0.12581942274E-01 -0.12611431176E-01  0.15597264196E-01  0.23677586830E-01  0.00000000000E+00 0.  1.
     999901    1    3    3    0    0 -0.12520748779E+00  0.46539527949E-01 -0.62044638573E-01  0.89224009091E+00  0.88000000000E+00 0. -1.
        -11    1    4    4    0    0  0.65266516654E-01 -0.27967205241E-01  0.21738619071E-01  0.74261103179E-01  0.51100000000E-03 0. -1.
         11    1    4    4    0    0  0.47359028860E-01 -0.59608915322E-02  0.24708755305E-01  0.53751219076E-01  0.51100000000E-03 0.  1.
</event>
<event>
 8    1  0.1117714E+005  0.1043930E+01  0.7957747E-01            NaN
         13   -1    0    0    0    0  0.00000000000E+00  0.00000000000E+00  0.74505805969E-08  0.10566000000E+00  0.10566000000E+00 0. -1.
     999900   -1    0    0    0    0 -0.00000000000E+00 -0.00000000000E+00 -0.74505805969E-08  0.93827000000E+00  0.93827000000E+00 0. -1.
     999902    2    1    2    0    0  0.62874221748E-02 -0.17070611599E-01 -0.78944697822E-02  0.10240992130E+01  0.10239071921E+01 0.  0.
     999903    2    3    3    0    0  0.10523587944E+00  0.72419781245E-01 -0.33552128860E-01  0.13367367260E+00  0.20583740180E-01 0.  0.
         14    1    1    2    0    0 -0.62874221748E-02  0.17070611599E-01  0.78944697822E-02  0.19830786951E-01  0.00000000000E+00 0. -1.
     999901    1    3    3    0    0 -0.98948457264E-01 -0.89490392844E-01  0.25657659078E-01  0.89042554044E+00  0.88000000000E+00 0. -1.
        -11    1    4    4    0    0  0.65692117147E-01  0.32847664076E-01 -0.18943900346E-01  0.75852196882E-01  0.51100000000E-03 0. -1.
         11    1    4    4    0    0  0.39543762291E-01  0.39572117170E-01 -0.14608228514E-01  0.57821475723E-01  0.51100000000E-03 0.  1.
</event>
<event>
 8    1  0.1117714E+005  0.1043930E+01  0.7957747E-01            NaN
         13   -1    0    0    0    0  0.00000000000E+00  0.00000000000E+00  0.74505805969E-08  0.10566000000E+00  0.10566000000E+00 0.  1.
     999900   -1    0    0    0    0 -0.00000000000E+00 -0.00000000000E+00 -0.74505805969E-08  0.93827000000E+00  0.93827000000E+00 0. -1.
     999902    2    1    2    0    0  0.16467579572E-01  0.48675170955E-02  0.15954677955E-01  0.10204901696E+01  0.10202209372E+01 0.  0.
     999903    2    3    3    0    0 -0.11924998319E+00 -0.19014536233E-02 -0.42832707224E-01  0.12812195388E+00  0.18879095316E-01 0.  0.
         14    1    1    2    0    0 -0.16467579572E-01 -0.48675170955E-02 -0.15954677955E-01  0.23439830381E-01  0.00000000000E+00 0. -1.
     999901    1    3    3    0    0  0.13571756277E+00  0.67689707188E-02  0.58787385179E-01  0.89236821574E+00  0.88000000000E+00 0.  1.
        -11    1    4    4    0    0 -0.89821011725E-01 -0.82928464372E-02 -0.36700636176E-01  0.97384717826E-01  0.51100000000E-03 0. -1.
         11    1    4    4    0    0 -0.29428971468E-01  0.63913928140E-02 -0.61320710473E-02  0.30737236052E-01  0.51100000000E-03 0.  1.
</event>
<event>
 8    1  0.1117714E+005  0.1043930E+01  0.7957747E-01            NaN
         13   -1    0    0    0    0  0.00000000000E+00  0.00000000000E+00  0.74505805969E-08  0.10566000000E+00  0.10566000000E+00 0. -1.
     999900   -1    0    0    0    0 -0.00000000000E+00 -0.00000000000E+00 -0.74505805969E-08  0.93827000000E+00  0.93827000000E+00 0.  1.
     999902    2    1    2    0    0 -0.11785049316E-01  0.19906008252E-01  0.51687975113E-02  0.10202265610E+01  0.10199511669E+01 0.  0.
     999903    2    3    3    0    0  0.10920453377E+00 -0.42881969488E-01  0.48980860603E-01  0.12865474325E+00  0.19708494409E-01 0.  0.
         14    1    1    2    0    0  0.11785049316E-01 -0.19906008252E-01 -0.51687975113E-02  0.23703438983E-01  0.00000000000E+00 0.  1.
     999901    1    3    3    0    0 -0.12098958309E+00  0.62787977740E-01 -0.43812063092E-01  0.89157181777E+00  0.88000000000E+00 0. -1.
        -11    1    4    4    0    0  0.47116147995E-01 -0.14171347322E-01  0.30136857287E-01  0.57699651429E-01  0.51100000000E-03 0. -1.
         11    1    4    4    0    0  0.62088385776E-01 -0.28710622165E-01  0.18844003317E-01  0.70955091821E-01  0.51100000000E-03 0.  1.
</event>
<event>
 8    1  0.1117714E+005  0.1043930E+01  0.7957747E-01            NaN
         13   -1    0    0    0    0  0.00000000000E+00  0.00000000000E+00  0.74505805969E-08  0.10566000000E+00  0.10566000000E+00 0. -1.
     999900   -1    0    0    0    0 -0.00000000000E+00 -0.00000000000E+00 -0.74505805969E-08  0.93827000000E+00  0.93827000000E+00 0. -1.
     999902    2    1    2    0    0  0.39496638465E-02 -0.12496935941E-01  0.19983813285E-01  0.10200317564E+01  0.10197517630E+01 0.  0.
     999903    2    3    3    0    0  0.12513459875E+00  0.17730874050E-01  0.29185467043E-01  0.13116496136E+00  0.19478293125E-01 0.  0.
         14    1    1    2    0    0 -0.39496638465E-02  0.12496935941E-01 -0.19983813285E-01  0.23898243572E-01  0.00000000000E+00 0.  1.
     999901    1    3    3    0    0 -0.12118493490E+00 -0.30227809991E-01 -0.92016537589E-02  0.88886679507E+00  0.88000000000E+00 0.  1.
        -11    1    4    4    0    0  0.72541353818E-01  0.15368130436E-01  0.25390371116E-01  0.78379586074E-01  0.51100000000E-03 0.  1.
         11    1    4    4    0    0  0.52593244932E-01  0.23627436145E-02  0.37950959271E-02  0.52785375285E-01  0.51100000000E-03 0. -1.
</event>
<event>
 8    1  0.1117714E+005  0.1043930E+01  0.7957747E-01            NaN
         13   -1    0    0    0    0  0.00000000000E+00  0.00000000000E+00  0.74505805969E-08  0.10566000000E+00  0.10566000000E+00 0. -1.
     999900   -1    0    0    0    0 -0.00000000000E+00 -0.00000000000E+00 -0.74505805969E-08  0.93827000000E+00  0.93827000000E+00 0. -1.
     999902    2    1    2    0    0 -0.14342356912E-01  0.13582222883E-01  0.11414640311E-01  0.10211161009E+01  0.10208612136E+01 0.  0.
     999903    2    3    3    0    0  0.60315221143E-01 -0.11199996271E+00 -0.57903147547E-02  0.12890499929E+00  0.20026321353E-01 0.  0.
         14    1    1    2    0    0  0.14342356912E-01 -0.13582222883E-01 -0.11414640311E-01  0.22813899133E-01  0.00000000000E+00 0.  1.
     999901    1    3    3    0    0 -0.74657578055E-01  0.12558218560E+00  0.17204955066E-01  0.89221110158E+00  0.88000000000E+00 0. -1.
        -11    1    4    4    0    0  0.58988019642E-01 -0.10833366474E+00 -0.18920566350E-02  0.12336778501E+00  0.51100000000E-03 0.  1.
         11    1    4    4    0    0  0.13272015005E-02 -0.36662979719E-02 -0.38982581198E-02  0.55372142824E-02  0.51100000000E-03 0. -1.
</event>
<event>
 8    1  0.1142233E+005  0.1043930E+01  0.7957747E-01            NaN
         13   -1    0    0    0    0  0.00000000000E+00  0.00000000000E+00  0.74505805969E-08  0.10566000000E+00  0.10566000000E+00 0.  1.
     999900   -1    0    0    0    0 -0.00000000000E+00 -0.00000000000E+00 -0.74505805969E-08  0.93827000000E+00  0.93827000000E+00 0. -1.
     999902    2    1    2    0    0 -0.59298649570E-02  0.22301122044E-01  0.62792469897E-02  0.10200148942E+01  0.10197345008E+01 0.  0.
     999903    2    3    3    0    0 -0.92352926539E-01 -0.21899600196E-01 -0.87423326407E-01  0.12973245492E+00  0.13379698468E-01 0.  0.
         14    1    1    2    0    0  0.59298649570E-02 -0.22301122044E-01 -0.62792469897E-02  0.23915105803E-01  0.00000000000E+00 0. -1.
     999901    1    3    3    0    0  0.86423061582E-01  0.44200722240E-01  0.93702573397E-01  0.89028243927E+00  0.88000000000E+00 0.  1.
        -11    1    4    4    0    0 -0.54552866303E-01 -0.19384412095E-01 -0.50432000939E-01  0.76781628622E-01  0.51100000000E-03 0.  1.
         11    1    4    4    0    0 -0.37800060236E-01 -0.25151881010E-02 -0.36991325468E-01  0.52950826300E-01  0.51100000000E-03 0. -1.
</event>
<event>
 8    1  0.1117714E+005  0.1043930E+01  0.7957747E-01            NaN
         13   -1    0    0    0    0  0.00000000000E+00  0.00000000000E+00  0.74505805969E-08  0.10566000000E+00  0.10566000000E+00 0.  1.
     999900   -1    0    0    0    0 -0.00000000000E+00 -0.00000000000E+00 -0.74505805969E-08  0.93827000000E+00  0.93827000000E+00 0. -1.
     999902    2    1    2    0    0  0.73752444290E-02 -0.24249567670E-01  0.16389963406E-01  0.10137461192E+01  0.10132966631E+01 0.  0.
     999903    2    3    3    0    0 -0.38783838525E-01 -0.74529599263E-02  0.11857042877E+00  0.12647297379E+00  0.19409631094E-01 0.  0.
         14    1    1    2    0    0 -0.73752444290E-02  0.24249567670E-01 -0.16389963406E-01  0.30183880848E-01  0.00000000000E+00 0. -1.
     999901    1    3    3    0    0  0.46159082954E-01 -0.16796607743E-01 -0.10218046536E+00  0.88727314536E+00  0.88000000000E+00 0. -1.
        -11    1    4    4    0    0 -0.28460760752E-01 -0.10204840231E-01  0.10456984852E+00  0.10885434308E+00  0.51100000000E-03 0. -1.
         11    1    4    4    0    0 -0.10323077773E-01  0.27518803046E-02  0.14000580249E-01  0.17618630713E-01  0.51100000000E-03 0.  1.
</event>
<event>
 8    1  0.1117714E+005  0.1043930E+01  0.7957747E-01            NaN
         13   -1    0    0    0    0  0.00000000000E+00  0.00000000000E+00  0.74505805969E-08  0.10566000000E+00  0.10566000000E+00 0. -1.
     999900   -1    0    0    0    0 -0.00000000000E+00 -0.00000000000E+00 -0.74505805969E-08  0.93827000000E+00  0.93827000000E+00 0.  1.
     999902    2    1    2    0    0 -0.55608641442E-02  0.36687156092E-02  0.24375239858E-01  0.10186607499E+01  0.10183472828E+01 0.  0.
     999903    2    3    3    0    0  0.11073568448E+00 -0.61758740659E-01  0.34907824476E-02  0.12835641998E+00  0.19663446371E-01 0.  0.
         14    1    1    2    0    0  0.55608641442E-02 -0.36687156092E-02 -0.24375239858E-01  0.25269250135E-01  0.00000000000E+00 0.  1.
     999901    1    3    3    0    0 -0.11629654862E+00  0.65427456269E-01  0.20884457410E-01  0.89030432989E+00  0.88000000000E+00 0. -1.
        -11    1    4    4    0    0  0.97327323912E-01 -0.46546206920E-01  0.76013432049E-03  0.10788881445E+00  0.51100000000E-03 0.  1.
         11    1    4    4    0    0  0.13408360564E-01 -0.15212533740E-01  0.27306481271E-02  0.20467605526E-01  0.51100000000E-03 0. -1.
</event>
<event>
 8    1  0.1117714E+005  0.1043930E+01  0.7957747E-01            NaN
         13   -1    0    0    0    0  0.00000000000E+00  0.00000000000E+00  0.74505805969E-08  0.10566000000E+00  0.10566000000E+00 0. -1.
     999900   -1    0    0    0    0 -0.00000000000E+00 -0.00000000000E+00 -0.74505805969E-08  0.93827000000E+00  0.93827000000E+00 0. -1.
     999902    2    1    2    0    0  0.21256228860E-01  0.88626773840E-03  0.41856802453E-02  0.10222474574E+01  0.10220174810E+01 0.  0.
     999903    2    3    3    0    0  0.13932880953E-01  0.70935823890E-01  0.10989176721E+00  0.13312747190E+00  0.20511143071E-01 0.  0.
         14    1    1    2    0    0 -0.21256228860E-01 -0.88626773840E-03 -0.41856802453E-02  0.21682542631E-01  0.00000000000E+00 0. -1.
     999901    1    3    3    0    0  0.73233479063E-02 -0.70049556152E-01 -0.10570608697E+00  0.88911998547E+00  0.88000000000E+00 0. -1.
        -11    1    4    4    0    0  0.10363481570E-01  0.41241037930E-01  0.81285920632E-01  0.91738143505E-01  0.51100000000E-03 0.  1.
         11    1    4    4    0    0  0.35693993836E-02  0.29694785960E-01  0.28605846582E-01  0.41389328393E-01  0.51100000000E-03 0. -1.
</event>
<event>
 8    1  0.1117714E+005  0.1043930E+01  0.7957747E-01            NaN
         13   -1    0    0    0    0  0.00000000000E+00  0.00000000000E+00  0.74505805969E-08  0.10566000000E+00  0.10566000000E+00 0.  1.
     999900   -1    0    0    0    0 -0.00000000000E+00 -0.00000000000E+00 -0.74505805969E-08  0.93827000000E+00  0.93827000000E+00 0. -1.
     999902    2    1    2    0    0  0.14688610733E-01 -0.18829827190E-02 -0.18080722590E-01  0.10205587904E+01  0.10202911502E+01 0.  0.
     999903    2    3    3    0    0 -0.14629628220E-01 -0.55862407225E-01 -0.11797208620E+00  0.13277975148E+00  0.19452884574E-01 0.  0.
         14    1    1    2    0    0 -0.14688610733E-01  0.18829827190E-02  0.18080722590E-01  0.23371209609E-01  0.00000000000E+00 0.  1.
     999901    1    3    3    0    0  0.29318238953E-01  0.53979424506E-01  0.99891363609E-01  0.88777903891E+00  0.88000000000E+00 0.  1.
        -11    1    4    4    0    0 -0.30071943928E-02 -0.44319437989E-01 -0.82342198271E-01  0.93561501371E-01  0.51100000000E-03 0. -1.
         11    1    4    4    0    0 -0.11622433827E-01 -0.11542969236E-01 -0.35629887928E-01  0.39218250109E-01  0.51100000000E-03 0.  1.
</event>
<event>
 8    1  0.1117714E+005  0.1043930E+01  0.7957747E-01            NaN
         13   -1    0    0    0    0  0.00000000000E+00  0.00000000000E+00  0.74505805969E-08  0.10566000000E+00  0.10566000000E+00 0. -1.
     999900   -1    0    0    0    0 -0.00000000000E+00 -0.00000000000E+00 -0.74505805969E-08  0.93827000000E+00  0.93827000000E+00 0.  1.
     999902    2    1    2    0    0 -0.13589706573E-01  0.17007281429E-01  0.48184262566E-02  0.10216332519E+01  0.10213899139E+01 0.  0.
     999903    2    3    3    0    0 -0.83145809783E-01  0.92285472859E-01 -0.47748972299E-01  0.13412652569E+00  0.16736975596E-01 0.  0.
         14    1    1    2    0    0  0.13589706573E-01 -0.17007281429E-01 -0.48184262566E-02  0.22296748147E-01  0.00000000000E+00 0.  1.
     999901    1    3    3    0    0  0.69556103210E-01 -0.75278191429E-01  0.52567398556E-01  0.88750672617E+00  0.88000000000E+00 0.  1.
        -11    1    4    4    0    0 -0.50563077163E-01  0.43672430606E-01 -0.25283558295E-01  0.71438262915E-01  0.51100000000E-03 0. -1.
         11    1    4    4    0    0 -0.32582732619E-01  0.48613042252E-01 -0.22465414004E-01  0.62688262772E-01  0.51100000000E-03 0.  1.
</event>
<event>
 8    1  0.1117714E+005  0.1043930E+01  0.7957747E-01            NaN
         13   -1    0    0    0    0  0.00000000000E+00  0.00000000000E+00  0.74505805969E-08  0.10566000000E+00  0.10566000000E+00 0.  1.
     999900   -1    0    0    0    0 -0.00000000000E+00 -0.00000000000E+00 -0.74505805969E-08  0.93827000000E+00  0.93827000000E+00 0.  1.
     999902    2    1    2    0    0 -0.73075154877E-02  0.88102153749E-02 -0.21010036177E-01  0.10200042545E+01  0.10197236086E+01 0.  0.
     999903    2    3    3    0    0 -0.57986204715E-01  0.87946188548E-01  0.75050424667E-01  0.12980290428E+00  0.10922257103E-01 0.  0.
         14    1    1    2    0    0  0.73075154877E-02 -0.88102153749E-02  0.21010036177E-01  0.23925745500E-01  0.00000000000E+00 0.  1.
     999901    1    3    3    0    0  0.50678689227E-01 -0.79135973173E-01 -0.96060460844E-01  0.89020135022E+00  0.88000000000E+00 0.  1.
        -11    1    4    4    0    0 -0.16279913609E-01  0.26853649532E-01  0.16598932109E-01  0.35523791302E-01  0.51100000000E-03 0. -1.
         11    1    4    4    0    0 -0.41706291106E-01  0.61092539016E-01  0.58451492558E-01  0.94279112981E-01  0.51100000000E-03 0.  1.
</event>
<event>
 8    1  0.1117714E+005  0.1043930E+01  0.7957747E-01            NaN
         13   -1    0    0    0    0  0.00000000000E+00  0.00000000000E+00  0.74505805969E-08  0.10566000000E+00  0.10566000000E+00 0. -1.
     999900   -1    0    0    0    0 -0.00000000000E+00 -0.00000000000E+00 -0.74505805969E-08  0.93827000000E+00  0.93827000000E+00 0. -1.
     999902    2    1    2    0    0 -0.83599062175E-02  0.85955615720E-02 -0.17776902766E-01  0.10224872860E+01  0.10222624223E+01 0.  0.
     999903    2    3    3    0    0 -0.59455691614E-01 -0.28631218963E-01 -0.11592851190E+00  0.13477655000E+00  0.19250262166E-01 0.  0.
         14    1    1    2    0    0  0.83599062175E-02 -0.85955615720E-02  0.17776902766E-01  0.21442713976E-01  0.00000000000E+00 0. -1.
     999901    1    3    3    0    0  0.51095785396E-01  0.37226780535E-01  0.98151609137E-01  0.88771073602E+00  0.88000000000E+00 0.  1.
        -11    1    4    4    0    0 -0.41429241657E-01 -0.14638167171E-01 -0.90512512862E-01  0.10061527771E+00  0.51100000000E-03 0. -1.
         11    1    4    4    0    0 -0.18026449957E-01 -0.13993051791E-01 -0.25415999041E-01  0.34161272294E-01  0.51100000000E-03 0.  1.
</event>
<event>
 8    1  0.1117714E+005  0.1043930E+01  0.7957747E-01            NaN
         13   -1    0    0    0    0  0.00000000000E+00  0.00000000000E+00  0.74505805969E-08  0.10566000000E+00  0.10566000000E+00 0.  1.
     999900   -1    0    0    0    0 -0.00000000000E+00 -0.00000000000E+00 -0.74505805969E-08  0.93827000000E+00  0.93827000000E+00 0.  1.
     999902    2    1    2    0    0 -0.13886691273E-01  0.19449454094E-01  0.14175513774E-02  0.10199898473E+01  0.10197088593E+01 0.  0.
     999903    2    3    3    0    0  0.98402704355E-01 -0.60766706346E-01 -0.50175763155E-01  0.12774245400E+00  0.20611708324E-01 0.  0.
         14    1    1    2    0    0  0.13886691273E-01 -0.19449454094E-01 -0.14175513774E-02  0.23940152693E-01  0.00000000000E+00 0.  1.
     999901    1    3    3    0    0 -0.11228939563E+00  0.80216160441E-01  0.51593314533E-01  0.89224739331E+00  0.88000000000E+00 0. -1.
        -11    1    4    4    0    0  0.12777051473E-01 -0.15991701400E-01 -0.12748633613E-01  0.24120040174E-01  0.51100000000E-03 0.  1.
         11    1    4    4    0    0  0.85625652882E-01 -0.44775004947E-01 -0.37427129543E-01  0.10362241382E+00  0.51100000000E-03 0. -1.
</event>
<event>
 8    1  0.1117714E+005  0.1043930E+01  0.7957747E-01            NaN
         13   -1    0    0    0    0  0.00000000000E+00  0.00000000000E+00  0.74505805969E-08  0.10566000000E+00  0.10566000000E+00 0. -1.
     999900   -1    0    0    0    0 -0.00000000000E+00 -0.00000000000E+00 -0.74505805969E-08  0.93827000000E+00  0.93827000000E+00 0. -1.
     999902    2    1    2    0    0  0.16850157991E-01  0.76779714546E-02 -0.14567425624E-01  0.10203696740E+01  0.10200976339E+01 0.  0.
     999903    2    3    3    0    0  0.51548816662E-01 -0.88521519194E-01 -0.80729494980E-01  0.13198025586E+00  0.20203878774E-01 0.  0.
         14    1    1    2    0    0 -0.16850157991E-01 -0.76779714546E-02  0.14567425624E-01  0.23560325959E-01  0.00000000000E+00 0. -1.
     999901    1    3    3    0    0 -0.34698658670E-01  0.96199490648E-01  0.66162069356E-01  0.88838941818E+00  0.88000000000E+00 0.  1.
        -11    1    4    4    0    0  0.12768396807E-01 -0.34774090909E-01 -0.38283084931E-01  0.53274056241E-01  0.51100000000E-03 0. -1.
         11    1    4    4    0    0  0.38780419855E-01 -0.53747428284E-01 -0.42446410049E-01  0.78706199618E-01  0.51100000000E-03 0.  1.
</event>
<event>
 8    1  0.1117714E+005  0.1043930E+01  0.7957747E-01            NaN
         13   -1    0    0    0    0  0.00000000000E+00  0.00000000000E+00  0.74505805969E-08  0.10566000000E+00  0.10566000000E+00 0.  1.
     999900   -1    0    0    0    0 -0.00000000000E+00 -0.00000000000E+00 -0.74505805969E-08  0.93827000000E+00  0.93827000000E+00 0.  1.
     999902    2    1    2    0    0 -0.75794773383E-02 -0.29406070518E-01  0.59506670760E-02  0.10129852767E+01  0.10125125160E+01 0.  0.
     999903    2    3    3    0    0 -0.10526491378E+00 -0.58776124336E-01  0.33274229498E-01  0.12667177597E+00  0.20080578050E-01 0.  0.
         14    1    1    2    0    0  0.75794773383E-02  0.29406070518E-01 -0.59506670760E-02  0.30944723277E-01  0.00000000000E+00 0.  1.
     999901    1    3    3    0    0  0.97685436437E-01  0.29370053818E-01 -0.27323562422E-01  0.88631350075E+00  0.88000000000E+00 0. -1.
        -11    1    4    4    0    0 -0.61344087798E-01 -0.26739618699E-01  0.10546661784E-01  0.67746568265E-01  0.51100000000E-03 0.  1.
         11    1    4    4    0    0 -0.43920825977E-01 -0.32036505636E-01  0.22727567714E-01  0.58925207705E-01  0.51100000000E-03 0. -1.
</event>
<event>
 8    1  0.1117714E+005  0.1043930E+01  0.7957747E-01            NaN
         13   -1    0    0    0    0  0.00000000000E+00  0.00000000000E+00  0.74505805969E-08  0.10566000000E+00  0.10566000000E+00 0. -1.
     999900   -1    0    0    0    0 -0.00000000000E+00 -0.00000000000E+00 -0.74505805969E-08  0.93827000000E+00  0.93827000000E+00 0. -1.
     999902    2    1    2    0    0 -0.10306380307E-01 -0.21581491823E-01 -0.62198251341E-02  0.10192182925E+01  0.10189186715E+01 0.  0.
     999903    2    3    3    0    0  0.10357979126E+00 -0.44661557745E-01 -0.61198377364E-01  0.12987843014E+00  0.19993432073E-01 0.  0.
         14    1    1    2    0    0  0.10306380307E-01  0.21581491823E-01  0.62198251341E-02  0.24711707529E-01  0.00000000000E+00 0. -1.
     999901    1    3    3    0    0 -0.11388617157E+00  0.23080065922E-01  0.54978552230E-01  0.88933986233E+00  0.88000000000E+00 0.  1.
        -11    1    4    4    0    0  0.47957561734E-01 -0.31523980294E-01 -0.31452832970E-01  0.65446397027E-01  0.51100000000E-03 0. -1.
         11    1    4    4    0    0  0.55622229530E-01 -0.13137577451E-01 -0.29745544394E-01  0.64432033116E-01  0.51100000000E-03 0.  1.
</event>
<event>
 8    1  0.1117714E+005  0.1043930E+01  0.7957747E-01            NaN
         13   -1    0    0    0    0  0.00000000000E+00  0.00000000000E+00  0.74505805969E-08  0.10566000000E+00  0.10566000000E+00 0. -1.
     999900   -1    0    0    0    0 -0.00000000000E+00 -0.00000000000E+00 -0.74505805969E-08  0.93827000000E+00  0.93827000000E+00 0.  1.
     999902    2    1    2    0    0 -0.21163195292E-01 -0.94016833439E-02  0.20201216419E-02  0.10206844977E+01  0.10204197619E+01 0.  0.
     999903    2    3    3    0    0  0.72666295180E-01  0.67328791481E-01 -0.79615928380E-01  0.12863293884E+00  0.19853974016E-01 0.  0.
         14    1    1    2    0    0  0.21163195292E-01  0.94016833439E-02 -0.20201216419E-02  0.23245502277E-01  0.00000000000E+00 0.  1.
     999901    1    3    3    0    0 -0.93829490473E-01 -0.76730474825E-01  0.81636050022E-01  0.89205155889E+00  0.88000000000E+00 0. -1.
        -11    1    4    4    0    0  0.58685377416E-01  0.53477058816E-01 -0.73019530084E-01  0.10786974662E+00  0.51100000000E-03 0.  1.
         11    1    4    4    0    0  0.13980917764E-01  0.13851732664E-01 -0.65963982965E-02  0.20763192212E-01  0.51100000000E-03 0. -1.
</event>
<event>
 8    1  0.1117714E+005  0.1043930E+01  0.7957747E-01            NaN
         13   -1    0    0    0    0  0.00000000000E+00  0.00000000000E+00  0.74505805969E-08  0.10566000000E+00  0.10566000000E+00 0. -1.
     999900   -1    0    0    0    0 -0.00000000000E+00 -0.00000000000E+00 -0.74505805969E-08  0.93827000000E+00  0.93827000000E+00 0. -1.
     999902    2    1    2    0    0  0.15977566749E-01 -0.13674451824E-01 -0.10497879205E-01  0.10204251337E+01  0.10201543877E+01 0.  0.
     999903    2    3    3    0    0 -0.10891817906E+00 -0.59583514083E-01 -0.33181801536E-01  0.13013240114E+00  0.20494999241E-01 0.  0.
         14    1    1    2    0    0 -0.15977566749E-01  0.13674451824E-01  0.10497879205E-01  0.23504866298E-01  0.00000000000E+00 0.  1.
     999901    1    3    3    0    0  0.12489574581E+00  0.45909062259E-01  0.22683922331E-01  0.89029273256E+00  0.88000000000E+00 0.  1.
        -11    1    4    4    0    0 -0.74962325168E-01 -0.39387188275E-01 -0.12702373096E-01  0.85628921505E-01  0.51100000000E-03 0. -1.
         11    1    4    4    0    0 -0.33955853890E-01 -0.20196325808E-01 -0.20479428440E-01  0.44503479636E-01  0.51100000000E-03 0.  1.
</event>
<event>
 8    1  0.1117714E+005  0.1043930E+01  0.7957747E-01            NaN
         13   -1    0    0    0    0  0.00000000000E+00  0.00000000000E+00  0.74505805969E-08  0.10566000000E+00  0.10566000000E+00 0.  1.
     999900   -1    0    0    0    0 -0.00000000000E+00 -0.00000000000E+00 -0.74505805969E-08  0.93827000000E+00  0.93827000000E+00 0. -1.
     999902    2    1    2    0    0 -0.10605556248E-01  0.21113023688E-01 -0.10065087530E-02  0.10202815190E+01  0.10200074154E+01 0.  0.
     999903    2    3    3    0    0  0.12305837496E+00  0.36187512600E-01  0.58447275973E-02  0.13003423531E+00  0.20538787619E-01 0.  0.
         14    1    1    2    0    0  0.10605556248E-01 -0.21113023688E-01  0.10065087530E-02  0.23648480976E-01  0.00000000000E+00 0.  1.
     999901    1    3    3    0    0 -0.13366393120E+00 -0.15074488912E-01 -0.68512363503E-02  0.89024728371E+00  0.88000000000E+00 0. -1.
        -11    1    4    4    0    0  0.67954535278E-01  0.10732006312E-01 -0.20010334263E-02  0.68827756611E-01  0.51100000000E-03 0. -1.
         11    1    4    4    0    0  0.55103839678E-01  0.25455506288E-01  0.78457610236E-02  0.61206478699E-01  0.51100000000E-03 0.  1.
</event>
<event>
 8    1  0.1117714E+005  0.1043930E+01  0.7957747E-01            NaN
         13   -1    0    0    0    0  0.00000000000E+00  0.00000000000E+00  0.74505805969E-08  0.10566000000E+00  0.10566000000E+00 0. -1.
     999900   -1    0    0    0    0 -0.00000000000E+00 -0.00000000000E+00 -0.74505805969E-08  0.93827000000E+00  0.93827000000E+00 0. -1.
     999902    2    1    2    0    0 -0.18475258481E-02 -0.11981539855E-01 -0.19692470515E-01  0.10208050342E+01  0.10205430681E+01 0.  0.
     999903    2    3    3    0    0  0.39746460428E-01  0.52344584073E-01  0.10809273530E+00  0.12828222286E+00  0.21273285546E-01 0.  0.
         14    1    1    2    0    0  0.18475258481E-02  0.11981539855E-01  0.19692470515E-01  0.23124965817E-01  0.00000000000E+00 0. -1.
     999901    1    3    3    0    0 -0.41593986276E-01 -0.64326123929E-01 -0.12778520581E+00  0.89252281133E+00  0.88000000000E+00 0. -1.
        -11    1    4    4    0    0  0.18531620319E-01  0.39416401407E-01  0.77147599553E-01  0.88595072601E-01  0.51100000000E-03 0. -1.
         11    1    4    4    0    0  0.21214840109E-01  0.12928182667E-01  0.30945135747E-01  0.39687150255E-01  0.51100000000E-03 0.  1.
</event>
<event>
 8    1  0.1117714E+005  0.1043930E+01  0.7957747E-01            NaN
         13   -1    0    0    0    0  0.00000000000E+00  0.00000000000E+00  0.74505805969E-08  0.10566000000E+00  0.10566000000E+00 0.  1.
     999900   -1    0    0    0    0 -0.00000000000E+00 -0.00000000000E+00 -0.74505805969E-08  0.93827000000E+00  0.93827000000E+00 0. -1.
     999902    2    1    2    0    0 -0.19947317644E-01  0.12853822283E-01 -0.76065808375E-02  0.10190106039E+01  0.10187058627E+01 0.  0.
     999903    2    3    3    0    0 -0.40153500902E-01 -0.12061500075E+00 -0.25830868788E-02  0.12870309972E+00  0.19938242124E-01 0.  0.
         14    1    1    2    0    0  0.19947317644E-01 -0.12853822283E-01  0.76065808375E-02  0.24919396070E-01  0.00000000000E+00 0. -1.
     999901    1    3    3    0    0  0.20206183258E-01  0.13346882303E+00 -0.50234939587E-02  0.89030750421E+00  0.88000000000E+00 0. -1.
        -11    1    4    4    0    0 -0.21496903175E-01 -0.92039810504E-01 -0.30973920095E-02  0.94569014597E-01  0.51100000000E-03 0.  1.
         11    1    4    4    0    0 -0.18656597727E-01 -0.28575190245E-01  0.51430513071E-03  0.34134085121E-01  0.51100000000E-03 0. -1.
</event>
<event>
 8    1  0.1117714E+005  0.1043930E+01  0.7957747E-01            NaN
         13   -1    0    0    0    0  0.00000000000E+00  0.00000000000E+00  0.74505805969E-08  0.10566000000E+00  0.10566000000E+00 0. -1.
     999900   -1    0    0    0    0 -0.00000000000E+00 -0.00000000000E+00 -0.74505805969E-08  0.93827000000E+00  0.93827000000E+00 0.  1.
     999902    2    1    2    0    0 -0.17506685912E-01 -0.90796348931E-02  0.15946796643E-01  0.10185681360E+01  0.10182523379E+01 0.  0.
     999903    2    3    3    0    0  0.72672900410E-01 -0.84950390738E-01  0.62073859678E-01  0.12951446198E+00  0.20564835655E-01 0.  0.
         14    1    1    2    0    0  0.17506685912E-01  0.90796348931E-02 -0.15946796643E-01  0.25361863981E-01  0.00000000000E+00 0.  1.
     999901    1    3    3    0    0 -0.90179586323E-01  0.75870755845E-01 -0.46127063035E-01  0.88905367404E+00  0.88000000000E+00 0.  1.
        -11    1    4    4    0    0  0.68471602534E-01 -0.84631954471E-01  0.56945281562E-01  0.12285745514E+00  0.51100000000E-03 0. -1.
         11    1    4    4    0    0  0.42012978768E-02 -0.31843626712E-03  0.51285781160E-02  0.66570068348E-02  0.51100000000E-03 0.  1.
</event>
<event>
 8    1  0.1117714E+005  0.1043930E+01  0.7957747E-01            NaN
         13   -1    0    0    0    0  0.00000000000E+00  0.00000000000E+00  0.74505805969E-08  0.10566000000E+00  0.10566000000E+00 0. -1.
     999900   -1    0    0    0    0 -0.00000000000E+00 -0.00000000000E+00 -0.74505805969E-08  0.93827000000E+00  0.93827000000E+00 0. -1.
     999902    2    1    2    0    0  0.20554716844E-01  0.54619758033E-02 -0.79849527292E-02  0.10212124069E+01  0.10209596912E+01 0.  0.
     999903    2    3    3    0    0 -0.37730107679E-02 -0.12537549143E+00 -0.31615155260E-01  0.13089298806E+00  0.20005169873E-01 0.  0.
         14    1    1    2    0    0 -0.20554716844E-01 -0.54619758033E-02  0.79849527292E-02  0.22717593057E-01  0.00000000000E+00 0. -1.
     999901    1    3    3    0    0  0.24327727612E-01  0.13083746723E+00  0.23630202531E-01  0.89031941888E+00  0.88000000000E+00 0.  1.
        -11    1    4    4    0    0  0.62220547818E-02 -0.78037181404E-01 -0.14824687671E-01  0.79677776906E-01  0.51100000000E-03 0.  1.
         11    1    4    4    0    0 -0.99950655498E-02 -0.47338310022E-01 -0.16790467589E-01  0.51215211157E-01  0.51100000000E-03 0. -1.
</event>
<event>
 8    1  0.1117714E+005  0.1043930E+01  0.7957747E-01            NaN
         13   -1    0    0    0    0  0.00000000000E+00  0.00000000000E+00  0.74505805969E-08  0.10566000000E+00  0.10566000000E+00 0. -1.
     999900   -1    0    0    0    0 -0.00000000000E+00 -0.00000000000E+00 -0.74505805969E-08  0.93827000000E+00  0.93827000000E+00 0.  1.
     999902    2    1    2    0    0  0.98192179860E-02  0.19000681266E-01 -0.12698162167E-01  0.10190565955E+01  0.10187529919E+01 0.  0.
     999903    2    3    3    0    0 -0.10978542028E+00 -0.55640817550E-01  0.24135285057E-01  0.12707378977E+00  0.20408257589E-01 0.  0.
         14    1    1    2    0    0 -0.98192179860E-02 -0.19000681266E-01  0.12698162167E-01  0.24873404529E-01  0.00000000000E+00 0. -1.
     999901    1    3    3    0    0  0.11960463826E+00  0.74641498816E-01 -0.36833447225E-01  0.89198280571E+00  0.88000000000E+00 0. -1.
        -11    1    4    4    0    0 -0.31161921025E-01 -0.26458601851E-01  0.87405088889E-02  0.41806465415E-01  0.51100000000E-03 0. -1.
         11    1    4    4    0    0 -0.78623499251E-01 -0.29182215698E-01  0.15394776169E-01  0.85267324350E-01  0.51100000000E-03 0.  1.
</event>
<event>
 8    1  0.1117714E+005  0.1043930E+01  0.7957747E-01            NaN
         13   -1    0    0    0    0  0.00000000000E+00  0.00000000000E+00  0.74505805969E-08  0.10566000000E+00  0.10566000000E+00 0.  1.
     999900   -1    0    0    0    0 -0.00000000000E+00 -0.00000000000E+00 -0.74505805969E-08  0.93827000000E+00  0.93827000000E+00 0.  1.
     999902    2    1    2    0    0 -0.25615446743E-02 -0.11704815573E-01  0.18867180442E-01  0.10215797267E+01  0.10213352061E+01 0.  0.
     999903    2    3    3    0    0  0.19446804524E-01 -0.11912919329E+00 -0.49716310171E-01  0.13212592827E+00  0.20386429901E-01 0.  0.
         14    1    1    2    0    0  0.25615446743E-02  0.11704815573E-01 -0.18867180442E-01  0.22350273299E-01  0.00000000000E+00 0. -1.
     999901    1    3    3    0    0 -0.22008349198E-01  0.10742437771E+00  0.68583490612E-01  0.88945379843E+00  0.88000000000E+00 0.  1.
        -11    1    4    4    0    0  0.66061200957E-02 -0.62923321490E-01 -0.36242806847E-01  0.72916303932E-01  0.51100000000E-03 0.  1.
         11    1    4    4    0    0  0.12840684428E-01 -0.56205871798E-01 -0.13473503324E-01  0.59209624336E-01  0.51100000000E-03 0. -1.
</event>
<event>
 8    1  0.1117714E+005  0.1043930E+01  0.7957747E-01            NaN
         13   -1    0    0    0    0  0.00000000000E+00  0.00000000000E+00  0.74505805969E-08  0.10566000000E+00  0.10566000000E+00 0.  1.
     999900   -1    0    0    0    0 -0.00000000000E+00 -0.00000000000E+00 -0.74505805969E-08  0.93827000000E+00  0.93827000000E+00 0.  1.
     999902    2    1    2    0    0 -0.19548370346E-01 -0.62927486295E-02 -0.12506510242E-01  0.10198852445E+01  0.10196017662E+01 0.  0.
     999903    2    3    3    0    0 -0.85571158077E-01 -0.38283760924E-01 -0.92539855490E-01  0.13321294330E+00  0.19849281184E-01 0.  0.
         14    1    1    2    0    0  0.19548370346E-01  0.62927486295E-02  0.12506510242E-01  0.24044755498E-01  0.00000000000E+00 0.  1.
     999901    1    3    3    0    0  0.66022787730E-01  0.31991012294E-01  0.80033345247E-01  0.88667230120E+00  0.88000000000E+00 0. -1.
        -11    1    4    4    0    0 -0.46630787885E-01 -0.29549105660E-01 -0.61560541695E-01  0.82689427613E-01  0.51100000000E-03 0.  1.
         11    1    4    4    0    0 -0.38940370192E-01 -0.87346552641E-02 -0.30979313795E-01  0.50523515688E-01  0.51100000000E-03 0. -1.
</event>
<event>
 8    1  0.1117714E+005  0.1043930E+01  0.7957747E-01            NaN
         13   -1    0    0    0    0  0.00000000000E+00  0.00000000000E+00  0.74505805969E-08  0.10566000000E+00  0.10566000000E+00 0.  1.
     999900   -1    0    0    0    0 -0.00000000000E+00 -0.00000000000E+00 -0.74505805969E-08  0.93827000000E+00  0.93827000000E+00 0. -1.
     999902    2    1    2    0    0  0.17545480021E-01 -0.44577094880E-02 -0.15188755888E-01  0.10202992288E+01  0.10200255403E+01 0.  0.
     999903    2    3    3    0    0  0.25497258497E-01  0.93112290956E-01 -0.87636220657E-01  0.13191205478E+00  0.20016845615E-01 0.  0.
         14    1    1    2    0    0 -0.17545480021E-01  0.44577094880E-02  0.15188755888E-01  0.23630771221E-01  0.00000000000E+00 0.  1.
     999901    1    3    3    0    0 -0.79517784753E-02 -0.97570000444E-01  0.72447464769E-01  0.88838717400E+00  0.88000000000E+00 0.  1.
        -11    1    4    4    0    0  0.10726550520E-01  0.49914893266E-01 -0.33370805170E-01  0.60995304856E-01  0.51100000000E-03 0.  1.
         11    1    4    4    0    0  0.14770707976E-01  0.43197397690E-01 -0.54265415487E-01  0.70916749928E-01  0.51100000000E-03 0. -1.
</event>
<event>
 8    1  0.1117714E+005  0.1043930E+01  0.7957747E-01            NaN
         13   -1    0    0    0    0  0.00000000000E+00  0.00000000000E+00  0.74505805969E-08  0.10566000000E+00  0.10566000000E+00 0. -1.
     999900   -1    0    0    0    0 -0.00000000000E+00 -0.00000000000E+00 -0.74505805969E-08  0.93827000000E+00  0.93827000000E+00 0.  1.
     999902    2    1    2    0    0 -0.82245377571E-02  0.14809983915E-01 -0.15073054704E-01  0.10212545590E+01  0.10210027908E+01 0.  0.
     999903    2    3    3    0    0  0.24709752788E-01 -0.48047010451E-01 -0.11908190530E+00  0.13229251809E+00  0.20043030622E-01 0.  0.
         14    1    1    2    0    0  0.82245377571E-02 -0.14809983915E-01  0.15073054704E-01  0.22675440966E-01  0.00000000000E+00 0. -1.
     999901    1    3    3    0    0 -0.32934290546E-01  0.62856994366E-01  0.10400885060E+00  0.88896204094E+00  0.88000000000E+00 0. -1.
        -11    1    4    4    0    0  0.58453354514E-02 -0.25286548298E-01 -0.73615741578E-01  0.78058414027E-01  0.51100000000E-03 0. -1.
         11    1    4    4    0    0  0.18864417337E-01 -0.22760462153E-01 -0.45466163723E-01  0.54234104064E-01  0.51100000000E-03 0.  1.
</event>
<event>
 8    1  0.1175311E+005  0.1043930E+01  0.7957747E-01            NaN
         13   -1    0    0    0    0  0.00000000000E+00  0.00000000000E+00  0.74505805969E-08  0.10566000000E+00  0.10566000000E+00 0.  1.
     999900   -1    0    0    0    0 -0.00000000000E+00 -0.00000000000E+00 -0.74505805969E-08  0.93827000000E+00  0.93827000000E+00 0.  1.
     999902    2    1    2    0    0 -0.17636945085E-01 -0.14926002659E-01  0.34236679193E-02  0.10205725838E+01  0.10203052631E+01 0.  0.
     999903    2    3    3    0    0 -0.58457319477E-02  0.10915917382E+00  0.66602716142E-01  0.12954634638E+00  0.19910706924E-01 0.  0.
         14    1    1    2    0    0  0.17636945085E-01  0.14926002659E-01 -0.34236679193E-02  0.23357416153E-01  0.00000000000E+00 0. -1.
     999901    1    3    3    0    0 -0.11791213137E-01 -0.12408517648E+00 -0.63179048222E-01  0.89102623747E+00  0.88000000000E+00 0.  1.
        -11    1    4    4    0    0 -0.91660123898E-02  0.71594297039E-01  0.52613147587E-01  0.89320566342E-01  0.51100000000E-03 0. -1.
         11    1    4    4    0    0  0.33202804421E-02  0.37564876783E-01  0.13989568554E-01  0.40225780033E-01  0.51100000000E-03 0.  1.
</event>
<event>
 8    1  0.1212896E+005  0.1043930E+01  0.7957747E-01            NaN
         13   -1    0    0    0    0  0.00000000000E+00  0.00000000000E+00  0.74505805969E-08  0.10566000000E+00  0.10566000000E+00 0.  1.
     999900   -1    0    0    0    0 -0.00000000000E+00 -0.00000000000E+00 -0.74505805969E-08  0.93827000000E+00  0.93827000000E+00 0. -1.
     999902    2    1    2    0    0 -0.11988400300E-01 -0.17881356195E-01 -0.91728390661E-02  0.10205290253E+01  0.10202606950E+01 0.  0.
     999903    2    3    3    0    0  0.82159364396E-01 -0.98930288408E-01 -0.20166607520E-01  0.13173568938E+00  0.20254300135E-01 0.  0.
         14    1    1    2    0    0  0.11988400300E-01  0.17881356195E-01  0.91728390661E-02  0.23400974716E-01  0.00000000000E+00 0. -1.
     999901    1    3    3    0    0 -0.94147764696E-01  0.81048932213E-01  0.10993768454E-01  0.88879333591E+00  0.88000000000E+00 0. -1.
        -11    1    4    4    0    0  0.25049433262E-01 -0.39059545512E-01  0.67227839038E-03  0.46409430955E-01  0.51100000000E-03 0.  1.
         11    1    4    4    0    0  0.57109931134E-01 -0.59870742896E-01 -0.20838885910E-01  0.85326258421E-01  0.51100000000E-03 0. -1.
</event>
<event>
 8    1  0.1117714E+005  0.1043930E+01  0.7957747E-01            NaN
         13   -1    0    0    0    0  0.00000000000E+00  0.00000000000E+00  0.74505805969E-08  0.10566000000E+00  0.10566000000E+00 0. -1.
     999900   -1    0    0    0    0 -0.00000000000E+00 -0.00000000000E+00 -0.74505805969E-08  0.93827000000E+00  0.93827000000E+00 0. -1.
     999902    2    1    2    0    0 -0.24581801190E-02  0.35626920474E-03  0.27700767646E-01  0.10161180942E+01  0.10157374066E+01 0.  0.
     999903    2    3    3    0    0  0.59851851184E-01 -0.56977563533E-01  0.97414657181E-01  0.12930935788E+00  0.20065088236E-01 0.  0.
         14    1    1    2    0    0  0.24581801190E-02 -0.35626920474E-03 -0.27700767646E-01  0.27811905822E-01  0.00000000000E+00 0.  1.
     999901    1    3    3    0    0 -0.62310031303E-01  0.57333832738E-01 -0.69713889535E-01  0.88680873630E+00  0.88000000000E+00 0. -1.
        -11    1    4    4    0    0  0.61087943852E-01 -0.53362367246E-01  0.94004297058E-01  0.12416258739E+00  0.51100000000E-03 0.  1.
         11    1    4    4    0    0 -0.12360926685E-02 -0.36151962877E-02  0.34103601224E-02  0.51467704872E-02  0.51100000000E-03 0. -1.
</event>
<event>
 8    1  0.1117714E+005  0.1043930E+01  0.7957747E-01            NaN
         13   -1    0    0    0    0  0.00000000000E+00  0.00000000000E+00  0.74505805969E-08  0.10566000000E+00  0.10566000000E+00 0.  1.
     999900   -1    0    0    0    0 -0.00000000000E+00 -0.00000000000E+00 -0.74505805969E-08  0.93827000000E+00  0.93827000000E+00 0.  1.
     999902    2    1    2    0    0 -0.20988533619E-01  0.38168860784E-02 -0.10470337967E-01  0.10201662642E+01  0.10198894506E+01 0.  0.
     999903    2    3    3    0    0 -0.14843349730E-01 -0.12728420038E+00  0.11208799532E-01  0.13016893657E+00  0.19917885513E-01 0.  0.
         14    1    1    2    0    0  0.20988533619E-01 -0.38168860784E-02  0.10470337967E-01  0.23763735817E-01  0.00000000000E+00 0.  1.
     999901    1    3    3    0    0 -0.61451838893E-02  0.13110108646E+00 -0.21679137499E-01  0.88999732761E+00  0.88000000000E+00 0. -1.
        -11    1    4    4    0    0  0.95974398778E-03 -0.75411596268E-01  0.49824314759E-02  0.75583832296E-01  0.51100000000E-03 0.  1.
         11    1    4    4    0    0 -0.15803093718E-01 -0.51872604112E-01  0.62263680562E-02  0.54585104274E-01  0.51100000000E-03 0. -1.
</event>
<event>
 8    1  0.1117714E+005  0.1043930E+01  0.7957747E-01            NaN
         13   -1    0    0    0    0  0.00000000000E+00  0.00000000000E+00  0.74505805969E-08  0.10566000000E+00  0.10566000000E+00 0. -1.
     999900   -1    0    0    0    0 -0.00000000000E+00 -0.00000000000E+00 -0.74505805969E-08  0.93827000000E+00  0.93827000000E+00 0.  1.
     999902    2    1    2    0    0 -0.17879516289E-01 -0.99332530881E-02 -0.12470363302E-01  0.10199746962E+01  0.10196933482E+01 0.  0.
     999903    2    3    3    0    0  0.11593635214E+00 -0.51983762761E-01  0.10212274812E-01  0.12857723486E+00  0.16860172826E-01 0.  0.
         14    1    1    2    0    0  0.17879516289E-01  0.99332530881E-02  0.12470363302E-01  0.23955303807E-01  0.00000000000E+00 0. -1.
     999901    1    3    3    0    0 -0.13381586843E+00  0.42050509673E-01 -0.22682638114E-01  0.89139746134E+00  0.88000000000E+00 0.  1.
        -11    1    4    4    0    0  0.29069007762E-01 -0.17695861201E-01 -0.33781277030E-02  0.34202683866E-01  0.51100000000E-03 0.  1.
         11    1    4    4    0    0  0.86867344379E-01 -0.34287901561E-01  0.13590402515E-01  0.94374550989E-01  0.51100000000E-03 0. -1.
</event>
<event>
 8    1  0.1117714E+005  0.1043930E+01  0.7957747E-01            NaN
         13   -1    0    0    0    0  0.00000000000E+00  0.00000000000E+00  0.74505805969E-08  0.10566000000E+00  0.10566000000E+00 0.  1.
     999900   -1    0    0    0    0 -0.00000000000E+00 -0.00000000000E+00 -0.74505805969E-08  0.93827000000E+00  0.93827000000E+00 0. -1.
     999902    2    1    2    0    0 -0.19111421925E-01  0.58200094169E-02  0.36076227752E-02  0.10236289188E+01  0.10234275887E+01 0.  0.
     999903    2    3    3    0    0  0.94846598762E-01 -0.67245258493E-01 -0.57460915414E-01  0.13118601850E+00  0.19753798724E-01 0.  0.
         14    1    1    2    0    0  0.19111421925E-01 -0.58200094169E-02 -0.36076227752E-02  0.20301081245E-01  0.00000000000E+00 0. -1.
     999901    1    3    3    0    0 -0.11395802069E+00  0.73065267910E-01  0.61068538189E-01  0.89244290025E+00  0.88000000000E+00 0.  1.
        -11    1    4    4    0    0  0.76680766086E-01 -0.48316473816E-01 -0.51618232045E-01  0.10430304181E+00  0.51100000000E-03 0.  1.
         11    1    4    4    0    0  0.18165832677E-01 -0.18928784677E-01 -0.58426833693E-02  0.26882976698E-01  0.51100000000E-03 0. -1.
</event>
<event>
 8    1  0.1117714E+005  0.1043930E+01  0.7957747E-01            NaN
         13   -1    0    0    0    0  0.00000000000E+00  0.00000000000E+00  0.74505805969E-08  0.10566000000E+00  0.10566000000E+00 0.  1.
     999900   -1    0    0    0    0 -0.00000000000E+00 -0.00000000000E+00 -0.74505805969E-08  0.93827000000E+00  0.93827000000E+00 0. -1.
     999902    2    1    2    0    0  0.11250411459E-01 -0.48260585884E-02  0.21642136159E-01  0.10190654739E+01  0.10187620897E+01 0.  0.
     999903    2    3    3    0    0  0.51053613247E-01 -0.11808602856E+00  0.12917861091E-01  0.13087167264E+00  0.20242084811E-01 0.  0.
         14    1    1    2    0    0 -0.11250411459E-01  0.48260585884E-02 -0.21642136159E-01  0.24864526077E-01  0.00000000000E+00 0. -1.
     999901    1    3    3    0    0 -0.39803201788E-01  0.11325996997E+00  0.87242750672E-02  0.88819380129E+00  0.88000000000E+00 0.  1.
        -11    1    4    4    0    0  0.17099849004E-01 -0.39659607063E-01  0.13994131365E-01  0.45402490042E-01  0.51100000000E-03 0. -1.
         11    1    4    4    0    0  0.33953764243E-01 -0.78426421494E-01 -0.10762702736E-02  0.85469182594E-01  0.51100000000E-03 0.  1.
</event>
<event>
 8    1  0.1117714E+005  0.1043930E+01  0.7957747E-01            NaN
         13   -1    0    0    0    0  0.00000000000E+00  0.00000000000E+00  0.74505805969E-08  0.10566000000E+00  0.10566000000E+00 0. -1.
     999900   -1    0    0    0    0 -0.00000000000E+00 -0.00000000000E+00 -0.74505805969E-08  0.93827000000E+00  0.93827000000E+00 0.  1.
     999902    2    1    2    0    0  0.21210289870E-01 -0.43521293404E-02 -0.57516246443E-02  0.10215269062E+01  0.10212812157E+01 0.  0.
     999903    2    3    3    0    0  0.12447269112E+00 -0.32676854046E-01 -0.34440886453E-01  0.13457229220E+00  0.19034167747E-01 0.  0.
         14    1    1    2    0    0 -0.21210289870E-01  0.43521293404E-02  0.57516246443E-02  0.22403093809E-01  0.00000000000E+00 0.  1.
     999901    1    3    3    0    0 -0.10326240125E+00  0.28324724705E-01  0.28689261809E-01  0.88695461399E+00  0.88000000000E+00 0. -1.
        -11    1    4    4    0    0  0.48368672287E-01 -0.12713004795E-01 -0.23054865530E-01  0.55072106327E-01  0.51100000000E-03 0. -1.
         11    1    4    4    0    0  0.76104018836E-01 -0.19963849251E-01 -0.11386020923E-01  0.79500185870E-01  0.51100000000E-03 0.  1.
</event>
<event>
 8    1  0.1117714E+005  0.1043930E+01  0.7957747E-01            NaN
         13   -1    0    0    0    0  0.00000000000E+00  0.00000000000E+00  0.74505805969E-08  0.10566000000E+00  0.10566000000E+00 0.  1.
     999900   -1    0    0    0    0 -0.00000000000E+00 -0.00000000000E+00 -0.74505805969E-08  0.93827000000E+00  0.93827000000E+00 0.  1.
     999902    2    1    2    0    0  0.15617728934E-02  0.12940789487E-01 -0.20092905595E-01  0.10199794672E+01  0.10196982325E+01 0.  0.
     999903    2    3    3    0    0 -0.85843166013E-01 -0.22974659638E-01 -0.94815651501E-01  0.13177170343E+00  0.21837809376E-01 0.  0.
         14    1    1    2    0    0 -0.15617728934E-02 -0.12940789487E-01  0.20092905595E-01  0.23950532820E-01  0.00000000000E+00 0.  1.
     999901    1    3    3    0    0  0.87404938906E-01  0.35915449125E-01  0.74722745906E-01  0.88820776375E+00  0.88000000000E+00 0. -1.
        -11    1    4    4    0    0 -0.38131696328E-01  0.90736834479E-03 -0.40217578483E-01  0.55430716414E-01  0.51100000000E-03 0. -1.
         11    1    4    4    0    0 -0.47711469685E-01 -0.23882027983E-01 -0.54598073019E-01  0.76340987015E-01  0.51100000000E-03 0.  1.
</event>
<event>
 8    1  0.1117714E+005  0.1043930E+01  0.7957747E-01            NaN
         13   -1    0    0    0    0  0.00000000000E+00  0.00000000000E+00  0.74505805969E-08  0.10566000000E+00  0.10566000000E+00 0. -1.
     999900   -1    0    0    0    0 -0.00000000000E+00 -0.00000000000E+00 -0.74505805969E-08  0.93827000000E+00  0.93827000000E+00 0. -1.
     999902    2    1    2    0    0 -0.66165263525E-02 -0.86833317297E-02  0.21020017474E-01  0.10202441433E+01  0.10199691624E+01 0.  0.
     999903    2    3    3    0    0  0.11328305779E+00  0.40788102324E-01 -0.40179324742E-01  0.12863397486E+00  0.20871053586E-01 0.  0.
         14    1    1    2    0    0  0.66165263525E-02  0.86833317297E-02 -0.21020017474E-01  0.23685856655E-01  0.00000000000E+00 0.  1.
     999901    1    3    3    0    0 -0.11989958414E+00 -0.49471434054E-01  0.61199342216E-01  0.89161016849E+00  0.88000000000E+00 0. -1.
        -11    1    4    4    0    0  0.83227428319E-01  0.21658756852E-01 -0.22696945586E-01  0.88945595916E-01  0.51100000000E-03 0.  1.
         11    1    4    4    0    0  0.30055629468E-01  0.19129345473E-01 -0.17482379157E-01  0.39688378940E-01  0.51100000000E-03 0. -1.
</event>
<event>
 8    1  0.1117714E+005  0.1043930E+01  0.7957747E-01            NaN
         13   -1    0    0    0    0  0.00000000000E+00  0.00000000000E+00  0.74505805969E-08  0.10566000000E+00  0.10566000000E+00 0. -1.
     999900   -1    0    0    0    0 -0.00000000000E+00 -0.00000000000E+00 -0.74505805969E-08  0.93827000000E+00  0.93827000000E+00 0. -1.
     999902    2    1    2    0    0  0.22125521761E-01 -0.10083021173E-01  0.21630778300E-02  0.10195192455E+01  0.10192269654E+01 0.  0.
     999903    2    3    3    0    0  0.12715697129E+00  0.12081121042E-02 -0.31188303876E-01  0.13257425863E+00  0.20805500994E-01 0.  0.
         14    1    1    2    0    0 -0.22125521761E-01  0.10083021173E-01 -0.21630778300E-02  0.24410754492E-01  0.00000000000E+00 0.  1.
     999901    1    3    3    0    0 -0.10503144953E+00 -0.11291133277E-01  0.33351381706E-01  0.88694498687E+00  0.88000000000E+00 0. -1.
        -11    1    4    4    0    0  0.78064348264E-01  0.10475054983E-01 -0.16224423762E-01  0.80419290561E-01  0.51100000000E-03 0.  1.
         11    1    4    4    0    0  0.49092623023E-01 -0.92669428786E-02 -0.14963880114E-01  0.52154968073E-01  0.51100000000E-03 0. -1.
</event>
<event>
 8    1  0.1117714E+005  0.1043930E+01  0.7957747E-01            NaN
         13   -1    0    0    0    0  0.00000000000E+00  0.00000000000E+00  0.74505805969E-08  0.10566000000E+00  0.10566000000E+00 0. -1.
     999900   -1    0    0    0    0 -0.00000000000E+00 -0.00000000000E+00 -0.74505805969E-08  0.93827000000E+00  0.93827000000E+00 0. -1.
     999902    2    1    2    0    0  0.32935597654E-02 -0.20621112821E-01 -0.11726190817E-01  0.10199804409E+01  0.10196992294E+01 0.  0.
     999903    2    3    3    0    0  0.91215942116E-02 -0.10391576117E+00 -0.80481203556E-01  0.13335807698E+00  0.20626770681E-01 0.  0.
         14    1    1    2    0    0 -0.32935597654E-02  0.20621112821E-01  0.11726190817E-01  0.23949559098E-01  0.00000000000E+00 0.  1.
     999901    1    3    3    0    0 -0.58280344462E-02  0.83294648352E-01  0.68755012739E-01  0.88662236392E+00  0.88000000000E+00 0. -1.
        -11    1    4    4    0    0  0.21356179433E-03 -0.52438257368E-01 -0.28616930842E-01  0.59741160821E-01  0.51100000000E-03 0.  1.
         11    1    4    4    0    0  0.89080324173E-02 -0.51477503805E-01 -0.51864272714E-01  0.73616916159E-01  0.51100000000E-03 0. -1.
</event>
<event>
 8    1  0.1117714E+005  0.1043930E+01  0.7957747E-01            NaN
         13   -1    0    0    0    0  0.00000000000E+00  0.00000000000E+00  0.74505805969E-08  0.10566000000E+00  0.10566000000E+00 0. -1.
     999900   -1    0    0    0    0 -0.00000000000E+00 -0.00000000000E+00 -0.74505805969E-08  0.93827000000E+00  0.93827000000E+00 0. -1.
     999902    2    1    2    0    0  0.68734556849E-02  0.15024817749E-01  0.16931061484E-01  0.10202730690E+01  0.10199987671E+01 0.  0.
     999903    2    3    3    0    0 -0.99454299411E-01 -0.26329500602E-01 -0.73992549772E-01  0.12826248933E+00  0.19798193735E-01 0.  0.
         14    1    1    2    0    0 -0.68734556849E-02 -0.15024817749E-01 -0.16931061484E-01  0.23656931002E-01  0.00000000000E+00 0.  1.
     999901    1    3    3    0    0  0.10632775510E+00  0.41354318351E-01  0.90923611256E-01  0.89201057966E+00  0.88000000000E+00 0.  1.
        -11    1    4    4    0    0 -0.81039861461E-01 -0.13229437887E-01 -0.56378915497E-01  0.99605825161E-01  0.51100000000E-03 0. -1.
         11    1    4    4    0    0 -0.18414437950E-01 -0.13100062715E-01 -0.17613634275E-01  0.28656664173E-01  0.51100000000E-03 0.  1.
</event>
<event>
 8    1  0.1117714E+005  0.1043930E+01  0.7957747E-01            NaN
         13   -1    0    0    0    0  0.00000000000E+00  0.00000000000E+00  0.74505805969E-08  0.10566000000E+00  0.10566000000E+00 0. -1.
     999900   -1    0    0    0    0 -0.00000000000E+00 -0.00000000000E+00 -0.74505805969E-08  0.93827000000E+00  0.93827000000E+00 0. -1.
     999902    2    1    2    0    0  0.89530646233E-02 -0.11944987393E-01  0.18278733689E-01  0.10203301654E+01  0.10200572014E+01 0.  0.
     999903    2    3    3    0    0 -0.11933210234E+00 -0.44044364201E-01  0.21450935563E-01  0.13044392717E+00  0.19375727884E-01 0.  0.
         14    1    1    2    0    0 -0.89530646233E-02  0.11944987393E-01 -0.18278733689E-01  0.23599834644E-01  0.00000000000E+00 0.  1.
     999901    1    3    3    0    0  0.12828516696E+00  0.32099376808E-01 -0.31722018745E-02  0.88988623819E+00  0.88000000000E+00 0. -1.
        -11    1    4    4    0    0 -0.47777232340E-01 -0.27551793996E-01  0.11490240736E-01  0.56338725897E-01  0.51100000000E-03 0.  1.
         11    1    4    4    0    0 -0.71554870001E-01 -0.16492570206E-01  0.99606948266E-02  0.74105201270E-01  0.51100000000E-03 0. -1.
</event>
<event>
 8    1  0.1117714E+005  0.1043930E+01  0.7957747E-01            NaN
         13   -1    0    0    0    0  0.00000000000E+00  0.00000000000E+00  0.74505805969E-08  0.10566000000E+00  0.10566000000E+00 0. -1.
     999900   -1    0    0    0    0 -0.00000000000E+00 -0.00000000000E+00 -0.74505805969E-08  0.93827000000E+00  0.93827000000E+00 0.  1.
     999902    2    1    2    0    0  0.18490890742E-01  0.10779541366E-01 -0.96442741135E-02  0.10204539787E+01  0.10201839045E+01 0.  0.
     999903    2    3    3    0    0  0.37595640789E-01  0.12568133577E+00  0.23951595488E-02  0.13269705151E+00  0.19837850714E-01 0.  0.
         14    1    1    2    0    0 -0.18490890742E-01 -0.10779541366E-01  0.96442741135E-02  0.23476021291E-01  0.00000000000E+00 0. -1.
     999901    1    3    3    0    0 -0.19104750047E-01 -0.11490179441E+00 -0.12039433662E-01  0.88775692720E+00  0.88000000000E+00 0. -1.
        -11    1    4    4    0    0  0.36530387501E-01  0.12339441527E+00 -0.67449185459E-03  0.12869097479E+00  0.51100000000E-03 0.  1.
         11    1    4    4    0    0  0.10652532874E-02  0.22869205036E-02  0.30696514034E-02  0.40060767210E-02  0.51100000000E-03 0. -1.
</event>
<event>
 8    1  0.1117714E+005  0.1043930E+01  0.7957747E-01            NaN
         13   -1    0    0    0    0  0.00000000000E+00  0.00000000000E+00  0.74505805969E-08  0.10566000000E+00  0.10566000000E+00 0. -1.
     999900   -1    0    0    0    0 -0.00000000000E+00 -0.00000000000E+00 -0.74505805969E-08  0.93827000000E+00  0.93827000000E+00 0.  1.
     999902    2    1    2    0    0  0.79386251612E-02 -0.16400767356E-01 -0.16024299726E-01  0.10196651052E+01  0.10193763493E+01 0.  0.
     999903    2    3    3    0    0  0.56943553505E-01  0.57742524992E-02 -0.11750507177E+00  0.13220155009E+00  0.19846855606E-01 0.  0.
         14    1    1    2    0    0 -0.79386251612E-02  0.16400767356E-01  0.16024299726E-01  0.24264894828E-01  0.00000000000E+00 0. -1.
     999901    1    3    3    0    0 -0.49004928344E-01 -0.22175019855E-01  0.10148077204E+00  0.88746355508E+00  0.88000000000E+00 0. -1.
        -11    1    4    4    0    0  0.42174238566E-01  0.46943473253E-04 -0.66112746158E-01  0.78420819480E-01  0.51100000000E-03 0. -1.
         11    1    4    4    0    0  0.14769314939E-01  0.57273090260E-02 -0.51392325607E-01  0.53780730608E-01  0.51100000000E-03 0.  1.
</event>
<event>
 8    1  0.1117714E+005  0.1043930E+01  0.7957747E-01            NaN
         13   -1    0    0    0    0  0.00000000000E+00  0.00000000000E+00  0.74505805969E-08  0.10566000000E+00  0.10566000000E+00 0.  1.
     999900   -1    0    0    0    0 -0.00000000000E+00 -0.00000000000E+00 -0.74505805969E-08  0.93827000000E+00  0.93827000000E+00 0. -1.
     999902    2    1    2    0    0 -0.59585757400E-02  0.15445044861E-01 -0.14650446478E-01  0.10218236747E+01  0.10215845205E+01 0.  0.
     999903    2    3    3    0    0 -0.83889146552E-01 -0.95929216492E-01 -0.24811920086E-01  0.13132906187E+00  0.19796151832E-01 0.  0.
         14    1    1    2    0    0  0.59585757400E-02 -0.15445044861E-01  0.14650446478E-01  0.22106325286E-01  0.00000000000E+00 0.  1.
     999901    1    3    3    0    0  0.77930570812E-01  0.11137426135E+00  0.10161473608E-01  0.89049461284E+00  0.88000000000E+00 0. -1.
        -11    1    4    4    0    0 -0.92331043664E-02 -0.39951355305E-02  0.98707445751E-03  0.10121598744E-01  0.51100000000E-03 0.  1.
         11    1    4    4    0    0 -0.74656042186E-01 -0.91934080961E-01 -0.25798994544E-01  0.12120746313E+00  0.51100000000E-03 0. -1.
</event>
<event>
 8    1  0.1314916E+005  0.1043930E+01  0.7957747E-01            NaN
         13   -1    0    0    0    0  0.00000000000E+00  0.00000000000E+00  0.74505805969E-08  0.10566000000E+00  0.10566000000E+00 0. -1.
     999900   -1    0    0    0    0 -0.00000000000E+00 -0.00000000000E+00 -0.74505805969E-08  0.93827000000E+00  0.93827000000E+00 0.  1.
     999902    2    1    2    0    0 -0.18243985596E-01 -0.60217003323E-03 -0.16166983855E-01  0.10195460506E+01  0.10192544199E+01 0.  0.
     999903    2    3    3    0    0  0.73664362184E-01 -0.82063252572E-01  0.61365255413E-01  0.12764117876E+00  0.19124859884E-01 0.  0.
         14    1    1    2    0    0  0.18243985596E-01  0.60217003323E-03  0.16166983855E-01  0.24383949355E-01  0.00000000000E+00 0. -1.
     999901    1    3    3    0    0 -0.91908347780E-01  0.81461082538E-01 -0.77532239269E-01  0.89190487188E+00  0.88000000000E+00 0. -1.
        -11    1    4    4    0    0  0.36890502746E-01 -0.39206664357E-01  0.40761207528E-01  0.67526356951E-01  0.51100000000E-03 0. -1.
         11    1    4    4    0    0  0.36773859438E-01 -0.42856588214E-01  0.20604047885E-01  0.60114821813E-01  0.51100000000E-03 0.  1.
</event>
<event>
 8    1  0.1117714E+005  0.1043930E+01  0.7957747E-01            NaN
         13   -1    0    0    0    0  0.00000000000E+00  0.00000000000E+00  0.74505805969E-08  0.10566000000E+00  0.10566000000E+00 0.  1.
     999900   -1    0    0    0    0 -0.00000000000E+00 -0.00000000000E+00 -0.74505805969E-08  0.93827000000E+00  0.93827000000E+00 0. -1.
     999902    2    1    2    0    0  0.53123065392E-02  0.71785448416E-02  0.21824609338E-01  0.10203489551E+01  0.10200764307E+01 0.  0.
     999903    2    3    3    0    0 -0.30588871752E-01  0.12576477618E+00 -0.69364803025E-02  0.13120397863E+00  0.20344808843E-01 0.  0.
         14    1    1    2    0    0 -0.53123065392E-02 -0.71785448416E-02 -0.21824609338E-01  0.23581044921E-01  0.00000000000E+00 0. -1.
     999901    1    3    3    0    0  0.35901178291E-01 -0.11858623134E+00  0.28761089640E-01  0.88914497645E+00  0.88000000000E+00 0. -1.
        -11    1    4    4    0    0 -0.20739659833E-01  0.88363268553E-01 -0.14134581210E-01  0.91859938092E-01  0.51100000000E-03 0.  1.
         11    1    4    4    0    0 -0.98492119190E-02  0.37401507628E-01  0.71981009075E-02  0.39344040539E-01  0.51100000000E-03 0. -1.
</event>
<event>
 8    1  0.1117714E+005  0.1043930E+01  0.7957747E-01            NaN
         13   -1    0    0    0    0  0.00000000000E+00  0.00000000000E+00  0.74505805969E-08  0.10566000000E+00  0.10566000000E+00 0.  1.
     999900   -1    0    0    0    0 -0.00000000000E+00 -0.00000000000E+00 -0.74505805969E-08  0.93827000000E+00  0.93827000000E+00 0.  1.
     999902    2    1    2    0    0 -0.17522835035E-01  0.72330879219E-02  0.15350447891E-01  0.10195373052E+01  0.10192454627E+01 0.  0.
     999903    2    3    3    0    0  0.88813261760E-01  0.93356360157E-02 -0.88224708376E-01  0.12710265820E+00  0.19913236541E-01 0.  0.
         14    1    1    2    0    0  0.17522835035E-01 -0.72330879219E-02 -0.15350447891E-01  0.24392694788E-01  0.00000000000E+00 0. -1.
     999901    1    3    3    0    0 -0.10633609679E+00 -0.21025480938E-02  0.10357515627E+00  0.89243464701E+00  0.88000000000E+00 0. -1.
        -11    1    4    4    0    0  0.23448146348E-01  0.11427238106E-01 -0.24512972415E-01  0.35798663040E-01  0.51100000000E-03 0. -1.
         11    1    4    4    0    0  0.65365115412E-01 -0.20916020899E-02 -0.63711735961E-01  0.91303995161E-01  0.51100000000E-03 0.  1.
</event>
<event>
 8    1  0.1117714E+005  0.1043930E+01  0.7957747E-01            NaN
         13   -1    0    0    0    0  0.00000000000E+00  0.00000000000E+00  0.74505805969E-08  0.10566000000E+00  0.10566000000E+00 0.  1.
     999900   -1    0    0    0    0 -0.00000000000E+00 -0.00000000000E+00 -0.74505805969E-08  0.93827000000E+00  0.93827000000E+00 0.  1.
     999902    2    1    2    0    0  0.15091219137E-01  0.82238880519E-03  0.16283073303E-01  0.10217137966E+01  0.10214722328E+01 0.  0.
     999903    2    3    3    0    0 -0.97744581088E-01 -0.70853982809E-01  0.47523864466E-01  0.13107054190E+00  0.18619324619E-01 0.  0.
         14    1    1    2    0    0 -0.15091219137E-01 -0.82238880519E-03 -0.16283073303E-01  0.22216203424E-01  0.00000000000E+00 0. -1.
     999901    1    3    3    0    0  0.11283580023E+00  0.71676371614E-01 -0.31240791162E-01  0.89064325467E+00  0.88000000000E+00 0.  1.
        -11    1    4    4    0    0 -0.67342840192E-01 -0.57476140441E-01  0.39185582117E-01  0.96821153742E-01  0.51100000000E-03 0. -1.
         11    1    4    4    0    0 -0.30401740896E-01 -0.13377842368E-01  0.83382823490E-02  0.34249388161E-01  0.51100000000E-03 0.  1.
</event>
<event>
 8    1  0.1117714E+005  0.1043930E+01  0.7957747E-01            NaN
         13   -1    0    0    0    0  0.00000000000E+00  0.00000000000E+00  0.74505805969E-08  0.10566000000E+00  0.10566000000E+00 0.  1.
     999900   -1    0    0    0    0 -0.00000000000E+00 -0.00000000000E+00 -0.74505805969E-08  0.93827000000E+00  0.93827000000E+00 0. -1.
     999902    2    1    2    0    0 -0.18558585691E-01  0.13736722917E-01 -0.68865609328E-02  0.10198355322E+01  0.10195508664E+01 0.  0.
     999903    2    3    3    0    0  0.37060879553E-01  0.18548557587E-01  0.12053161893E+00  0.12890788569E+00  0.19282480416E-01 0.  0.
         14    1    1    2    0    0  0.18558585691E-01 -0.13736722917E-01  0.68865609328E-02  0.24094467847E-01  0.00000000000E+00 0.  1.
     999901    1    3    3    0    0 -0.55619465244E-01 -0.48118346705E-02 -0.12741817986E+00  0.89092764646E+00  0.88000000000E+00 0. -1.
        -11    1    4    4    0    0  0.18308002961E-01  0.79021917634E-02  0.31374747690E-01  0.37178804724E-01  0.51100000000E-03 0. -1.
         11    1    4    4    0    0  0.18752876591E-01  0.10646365824E-01  0.89156871237E-01  0.91729080969E-01  0.51100000000E-03 0.  1.
</event>
<event>
 8    1  0.1117714E+005  0.1043930E+01  0.7957747E-01            NaN
         13   -1    0    0    0    0  0.00000000000E+00  0.00000000000E+00  0.74505805969E-08  0.10566000000E+00  0.10566000000E+00 0. -1.
     999900   -1    0    0    0    0 -0.00000000000E+00 -0.00000000000E+00 -0.74505805969E-08  0.93827000000E+00  0.93827000000E+00 0. -1.
     999902    2    1    2    0    0 -0.15710799620E-01 -0.13333101982E-01  0.11118757568E-01  0.10205157393E+01  0.10202471008E+01 0.  0.
     999903    2    3    3    0    0  0.89899474666E-01 -0.78955070218E-01  0.48928216933E-01  0.13097128964E+00  0.21063941670E-01 0.  0.
         14    1    1    2    0    0  0.15710799620E-01  0.13333101982E-01 -0.11118757568E-01  0.23414260676E-01  0.00000000000E+00 0.  1.
     999901    1    3    3    0    0 -0.10561027429E+00  0.65621968236E-01 -0.37809459365E-01  0.88954444969E+00  0.88000000000E+00 0. -1.
        -11    1    4    4    0    0  0.64058783286E-01 -0.61737124138E-01  0.44898783971E-01  0.99655216301E-01  0.51100000000E-03 0.  1.
         11    1    4    4    0    0  0.25840691381E-01 -0.17217946080E-01  0.40294329620E-02  0.31316073337E-01  0.51100000000E-03 0. -1.
</event>
<event>
 8    1  0.1117714E+005  0.1043930E+01  0.7957747E-01            NaN
         13   -1    0    0    0    0  0.00000000000E+00  0.00000000000E+00  0.74505805969E-08  0.10566000000E+00  0.10566000000E+00 0.  1.
     999900   -1    0    0    0    0 -0.00000000000E+00 -0.00000000000E+00 -0.74505805969E-08  0.93827000000E+00  0.93827000000E+00 0. -1.
     999902    2    1    2    0    0  0.20958101111E-01  0.10487504141E-01  0.28903339604E-02  0.10203167881E+01  0.10200435110E+01 0.  0.
     999903    2    3    3    0    0 -0.90465508521E-01 -0.72618499163E-01 -0.49986535311E-01  0.12783833354E+00  0.19660395660E-01 0.  0.
         14    1    1    2    0    0 -0.20958101111E-01 -0.10487504141E-01 -0.28903339604E-02  0.23613211888E-01  0.00000000000E+00 0. -1.
     999901    1    3    3    0    0  0.11142360963E+00  0.83106003304E-01  0.52876869272E-01  0.89247845457E+00  0.88000000000E+00 0.  1.
        -11    1    4    4    0    0 -0.25931985206E-01 -0.17406756129E-01 -0.46992678637E-02  0.31588087234E-01  0.51100000000E-03 0. -1.
         11    1    4    4    0    0 -0.64533523315E-01 -0.55211743034E-01 -0.45287267448E-01  0.96250246307E-01  0.51100000000E-03 0.  1.
</event>
<event>
 8    1  0.1117714E+005  0.1043930E+01  0.7957747E-01            NaN
         13   -1    0    0    0    0  0.00000000000E+00  0.00000000000E+00  0.74505805969E-08  0.10566000000E+00  0.10566000000E+00 0.  1.
     999900   -1    0    0    0    0 -0.00000000000E+00 -0.00000000000E+00 -0.74505805969E-08  0.93827000000E+00  0.93827000000E+00 0. -1.
     999902    2    1    2    0    0 -0.45935747182E-02  0.11115488328E-01 -0.24561983760E-01  0.10165813976E+01  0.10162134578E+01 0.  0.
     999903    2    3    3    0    0  0.82561962945E-01 -0.92537675199E-01  0.58861912791E-02  0.12570140709E+00  0.19659538115E-01 0.  0.
         14    1    1    2    0    0  0.45935747182E-02 -0.11115488328E-01  0.24561983760E-01  0.27348602445E-01  0.00000000000E+00 0.  1.
     999901    1    3    3    0    0 -0.87155537663E-01  0.10365316353E+00 -0.30448175040E-01  0.89087999047E+00  0.88000000000E+00 0. -1.
        -11    1    4    4    0    0  0.36788269351E-01 -0.49456007737E-01 -0.52420466845E-02  0.61862861538E-01  0.51100000000E-03 0.  1.
         11    1    4    4    0    0  0.45773693593E-01 -0.43081667462E-01  0.11128237964E-01  0.63838545548E-01  0.51100000000E-03 0. -1.
</event>
<event>
 8    1  0.1117714E+005  0.1043930E+01  0.7957747E-01            NaN
         13   -1    0    0    0    0  0.00000000000E+00  0.00000000000E+00  0.74505805969E-08  0.10566000000E+00  0.10566000000E+00 0. -1.
     999900   -1    0    0    0    0 -0.00000000000E+00 -0.00000000000E+00 -0.74505805969E-08  0.93827000000E+00  0.93827000000E+00 0. -1.
     999902    2    1    2    0    0  0.11666522386E-01  0.17516728503E-01  0.77998975930E-02  0.10214849131E+01  0.10212382904E+01 0.  0.
     999903    2    3    3    0    0 -0.88920944742E-01 -0.58528169850E-01  0.73364576578E-01  0.13008186611E+00  0.14368358109E-01 0.  0.
         14    1    1    2    0    0 -0.11666522386E-01 -0.17516728503E-01 -0.77998975930E-02  0.22445086867E-01  0.00000000000E+00 0.  1.
     999901    1    3    3    0    0  0.10058746713E+00  0.76044898352E-01 -0.65564678985E-01  0.89140304702E+00  0.88000000000E+00 0. -1.
        -11    1    4    4    0    0 -0.75394445519E-01 -0.43975690037E-01  0.63173986556E-01  0.10774691377E+00  0.51100000000E-03 0.  1.
         11    1    4    4    0    0 -0.13526499222E-01 -0.14552479813E-01  0.10190590023E-01  0.22334952338E-01  0.51100000000E-03 0. -1.
</event>
<event>
 8    1  0.1117714E+005  0.1043930E+01  0.7957747E-01            NaN
         13   -1    0    0    0    0  0.00000000000E+00  0.00000000000E+00  0.74505805969E-08  0.10566000000E+00  0.10566000000E+00 0. -1.
     999900   -1    0    0    0    0 -0.00000000000E+00 -0.00000000000E+00 -0.74505805969E-08  0.93827000000E+00  0.93827000000E+00 0. -1.
     999902    2    1    2    0    0 -0.22915350927E-01  0.48599481741E-02  0.15093627748E-02  0.10204563854E+01  0.10201863673E+01 0.  0.
     999903    2    3    3    0    0  0.30432115874E-01  0.24086417538E-02 -0.12509305863E+00  0.12979363545E+00  0.16315613864E-01 0.  0.
         14    1    1    2    0    0  0.22915350927E-01 -0.48599481741E-02 -0.15093627748E-02  0.23473614556E-01  0.00000000000E+00 0. -1.
     999901    1    3    3    0    0 -0.53347466801E-01  0.24513064203E-02  0.12660242140E+00  0.89066274999E+00  0.88000000000E+00 0.  1.
        -11    1    4    4    0    0  0.13710027081E-01  0.41671330695E-02 -0.86690107125E-01  0.87867887393E-01  0.51100000000E-03 0.  1.
         11    1    4    4    0    0  0.16722088793E-01 -0.17584913156E-02 -0.38402951502E-01  0.41925748060E-01  0.51100000000E-03 0. -1.
</event>
<event>
 7    1  0.1117714E+005  0.1043930E+01  0.7957747E-01            NaN
         13   -1    0    0    0    0  0.00000000000E+00  0.00000000000E+00  0.74505805969E-08  0.10566000000E+00  0.10566000000E+00 0.  1.
     999900   -1    0    0    0    0 -0.00000000000E+00 -0.00000000000E+00 -0.74505805969E-08  0.93827000000E+00  0.93827000000E+00 0.  1.
     999903    2    1    2    0    0  0.84377084720E-01 -0.79390752256E-01 -0.19977750461E-01  0.11911344543E+00  0.19144670256E-01 0.  0.
         14    1    1    2    0    0 -0.30360155882E-01  0.17418414718E-01  0.21319896825E-01  0.40983877770E-01  0.00000000000E+00 0.  1.
     999901    1    1    2    0    0 -0.54016928839E-01  0.61972337538E-01 -0.13421463640E-02  0.88383267680E+00  0.88000000000E+00 0. -1.
        -11    1    3    3    0    0  0.34249727780E-01 -0.30155182737E-01  0.14343209142E-02  0.45658485481E-01  0.51100000000E-03 0.  1.
         11    1    3    3    0    0  0.50127356940E-01 -0.49235569519E-01 -0.21412071375E-01  0.73454959950E-01  0.51100000000E-03 0. -1.
</event>
<event>
 8    1  0.1117714E+005  0.1043930E+01  0.7957747E-01            NaN
         13   -1    0    0    0    0  0.00000000000E+00  0.00000000000E+00  0.74505805969E-08  0.10566000000E+00  0.10566000000E+00 0.  1.
     999900   -1    0    0    0    0 -0.00000000000E+00 -0.00000000000E+00 -0.74505805969E-08  0.93827000000E+00  0.93827000000E+00 0. -1.
     999902    2    1    2    0    0  0.45703806447E-02  0.19402004830E-01  0.18270251655E-01  0.10168906164E+01  0.10165310607E+01 0.  0.
     999903    2    3    3    0    0 -0.34677326653E-01 -0.10566850151E+00 -0.52449425344E-01  0.12437490964E+00  0.18703655619E-01 0.  0.
         14    1    1    2    0    0 -0.45703806447E-02 -0.19402004830E-01 -0.18270251655E-01  0.27039383614E-01  0.00000000000E+00 0. -1.
     999901    1    3    3    0    0  0.39247707298E-01  0.12507050634E+00  0.70719676999E-01  0.89251570675E+00  0.88000000000E+00 0.  1.
        -11    1    4    4    0    0 -0.24484383588E-01 -0.55141926582E-01 -0.36036130091E-01  0.70277883433E-01  0.51100000000E-03 0. -1.
         11    1    4    4    0    0 -0.10192943065E-01 -0.50526574924E-01 -0.16413295253E-01  0.54097026202E-01  0.51100000000E-03 0.  1.
</event>
<event>
 8    1  0.1117714E+005  0.1043930E+01  0.7957747E-01            NaN
         13   -1    0    0    0    0  0.00000000000E+00  0.00000000000E+00  0.74505805969E-08  0.10566000000E+00  0.10566000000E+00 0.  1.
     999900   -1    0    0    0    0 -0.00000000000E+00 -0.00000000000E+00 -0.74505805969E-08  0.93827000000E+00  0.93827000000E+00 0. -1.
     999902    2    1    2    0    0 -0.16382270612E-01  0.42620571330E-02 -0.16101429329E-01  0.10205676382E+01  0.10203002030E+01 0.  0.
     999903    2    3    3    0    0 -0.31743233499E-01  0.32706281069E-01  0.11964703741E+00  0.12957230755E+00  0.19905668276E-01 0.  0.
         14    1    1    2    0    0  0.16382270612E-01 -0.42620571330E-02  0.16101429329E-01  0.23362361778E-01  0.00000000000E+00 0.  1.
     999901    1    3    3    0    0  0.15360962887E-01 -0.28444223936E-01 -0.13574846674E+00  0.89099533067E+00  0.88000000000E+00 0. -1.
        -11    1    4    4    0    0  0.21874025410E-02 -0.78842930772E-04  0.30427628965E-02  0.37829185992E-02  0.51100000000E-03 0.  1.
         11    1    4    4    0    0 -0.33930636040E-01  0.32785124000E-01  0.11660427451E+00  0.12578938895E+00  0.51100000000E-03 0. -1.
</event>
<event>
 8    1  0.1117714E+005  0.1043930E+01  0.7957747E-01            NaN
         13   -1    0    0    0    0  0.00000000000E+00  0.00000000000E+00  0.74505805969E-08  0.10566000000E+00  0.10566000000E+00 0. -1.
     999900   -1    0    0    0    0 -0.00000000000E+00 -0.00000000000E+00 -0.74505805969E-08  0.93827000000E+00  0.93827000000E+00 0.  1.
     999902    2    1    2    0    0 -0.92335093186E-02  0.10794533207E-01  0.18353770050E-01  0.10207213698E+01  0.10204574828E+01 0.  0.
     999903    2    3    3    0    0 -0.12366087316E+00 -0.14717276226E-01  0.41196632483E-01  0.13265252652E+00  0.19771709425E-01 0.  0.
         14    1    1    2    0    0  0.92335093186E-02 -0.10794533207E-01 -0.18353770050E-01  0.23208630217E-01  0.00000000000E+00 0.  1.
     999901    1    3    3    0    0  0.11442736384E+00  0.25511809434E-01 -0.22842862433E-01  0.88806884327E+00  0.88000000000E+00 0.  1.
        -11    1    4    4    0    0 -0.40996676425E-01 -0.10147592128E-01  0.22172050451E-01  0.47702851551E-01  0.51100000000E-03 0. -1.
         11    1    4    4    0    0 -0.82664196733E-01 -0.45696840984E-02  0.19024582032E-01  0.84949674965E-01  0.51100000000E-03 0.  1.
</event>
<event>
 8    1  0.1117714E+005  0.1043930E+01  0.7957747E-01            NaN
         13   -1    0    0    0    0  0.00000000000E+00  0.00000000000E+00  0.74505805969E-08  0.10566000000E+00  0.10566000000E+00 0. -1.
     999900   -1    0    0    0    0 -0.00000000000E+00 -0.00000000000E+00 -0.74505805969E-08  0.93827000000E+00  0.93827000000E+00 0. -1.
     999902    2    1    2    0    0  0.90788673808E-02  0.19095192924E-01 -0.10509028170E-01  0.10203187336E+01  0.10200455021E+01 0.  0.
     999903    2    3    3    0    0  0.73607114533E-01  0.77121289544E-01 -0.77919369287E-01  0.13348443308E+00  0.19518328672E-01 0.  0.
         14    1    1    2    0    0 -0.90788673808E-02 -0.19095192924E-01  0.10509028170E-01  0.23611266354E-01  0.00000000000E+00 0. -1.
     999901    1    3    3    0    0 -0.64528247152E-01 -0.58026096620E-01  0.67410341117E-01  0.88683430057E+00  0.88000000000E+00 0.  1.
        -11    1    4    4    0    0  0.58412689822E-01  0.70802267705E-01 -0.63665142143E-01  0.11170727322E+00  0.51100000000E-03 0.  1.
         11    1    4    4    0    0  0.15194424711E-01  0.63190218391E-02 -0.14254227144E-01  0.21777159865E-01  0.51100000000E-03 0. -1.
</event>
<event>
 8    1  0.1117714E+005  0.1043930E+01  0.7957747E-01            NaN
         13   -1    0    0    0    0  0.00000000000E+00  0.00000000000E+00  0.74505805969E-08  0.10566000000E+00  0.10566000000E+00 0.  1.
     999900   -1    0    0    0    0 -0.00000000000E+00 -0.00000000000E+00 -0.74505805969E-08  0.93827000000E+00  0.93827000000E+00 0. -1.
     999902    2    1    2    0    0  0.20983289374E-01 -0.73303293393E-02  0.72949593138E-02  0.10205366550E+01  0.10202685017E+01 0.  0.
     999903    2    3    3    0    0  0.11582677408E+00  0.56216526239E-01 -0.26674746341E-01  0.13251220126E+00  0.16486417885E-01 0.  0.
         14    1    1    2    0    0 -0.20983289374E-01  0.73303293393E-02 -0.72949593138E-02  0.23393345049E-01  0.00000000000E+00 0. -1.
     999901    1    3    3    0    0 -0.94843484708E-01 -0.63546855578E-01  0.33969705655E-01  0.88802445369E+00  0.88000000000E+00 0.  1.
        -11    1    4    4    0    0  0.53501227381E-01  0.19049207916E-01 -0.63250500660E-02  0.57144737578E-01  0.51100000000E-03 0.  1.
         11    1    4    4    0    0  0.62325546701E-01  0.37167318323E-01 -0.20349696275E-01  0.75367463685E-01  0.51100000000E-03 0. -1.
</event>
<event>
 8    1  0.1117714E+005  0.1043930E+01  0.7957747E-01            NaN
         13   -1    0    0    0    0  0.00000000000E+00  0.00000000000E+00  0.74505805969E-08  0.10566000000E+00  0.10566000000E+00 0. -1.
     999900   -1    0    0    0    0 -0.00000000000E+00 -0.00000000000E+00 -0.74505805969E-08  0.93827000000E+00  0.93827000000E+00 0. -1.
     999902    2    1    2    0    0 -0.16990357115E-01 -0.10100116143E-02  0.16514223743E-01  0.10202147740E+01  0.10199391027E+01 0.  0.
     999903    2    3    3    0    0 -0.11269752282E+00 -0.66047038323E-01 -0.67975175921E-02  0.13233352423E+00  0.20075170466E-01 0.  0.
         14    1    1    2    0    0  0.16990357115E-01  0.10100116143E-02 -0.16514223743E-01  0.23715226000E-01  0.00000000000E+00 0.  1.
     999901    1    3    3    0    0  0.95707165702E-01  0.65037026709E-01  0.23311741335E-01  0.88788124977E+00  0.88000000000E+00 0.  1.
        -11    1    4    4    0    0 -0.10228253747E+00 -0.55729023620E-01 -0.11199836404E-01  0.11701768671E+00  0.51100000000E-03 0. -1.
         11    1    4    4    0    0 -0.10414985346E-01 -0.10318014703E-01  0.44023188119E-02  0.15315837525E-01  0.51100000000E-03 0.  1.
</event>
<event>
 8    1  0.1117714E+005  0.1043930E+01  0.7957747E-01            NaN
         13   -1    0    0    0    0  0.00000000000E+00  0.00000000000E+00  0.74505805969E-08  0.10566000000E+00  0.10566000000E+00 0.  1.
     999900   -1    0    0    0    0 -0.00000000000E+00 -0.00000000000E+00 -0.74505805969E-08  0.93827000000E+00  0.93827000000E+00 0. -1.
     999902    2    1    2    0    0 -0.21843843313E-01  0.64737185647E-02 -0.44791212868E-02  0.10207109335E+01  0.10204468064E+01 0.  0.
     999903    2    3    3    0    0 -0.90775524074E-01  0.53920423038E-01 -0.79430513931E-01  0.13356918740E+00  0.19593710395E-01 0.  0.
         14    1    1    2    0    0  0.21843843313E-01 -0.64737185647E-02  0.44791212868E-02  0.23219066524E-01  0.00000000000E+00 0.  1.
     999901    1    3    3    0    0  0.68931680761E-01 -0.47446704473E-01  0.74951392644E-01  0.88714174608E+00  0.88000000000E+00 0.  1.
        -11    1    4    4    0    0 -0.69582143282E-01  0.32921597470E-01 -0.63214724139E-01  0.99608577506E-01  0.51100000000E-03 0. -1.
         11    1    4    4    0    0 -0.21193380792E-01  0.20998825567E-01 -0.16215789792E-01  0.33960609891E-01  0.51100000000E-03 0.  1.
</event>
<event>
 8    1  0.1117714E+005  0.1043930E+01  0.7957747E-01            NaN
         13   -1    0    0    0    0  0.00000000000E+00  0.00000000000E+00  0.74505805969E-08  0.10566000000E+00  0.10566000000E+00 0. -1.
     999900   -1    0    0    0    0 -0.00000000000E+00 -0.00000000000E+00 -0.74505805969E-08  0.93827000000E+00  0.93827000000E+00 0. -1.
     999902    2    1    2    0    0  0.38361195110E-02 -0.67246329715E-02 -0.22423398229E-01  0.10202077470E+01  0.10199319103E+01 0.  0.
     999903    2    3    3    0    0  0.14850591104E-01 -0.24638014138E-03  0.12529529135E+00  0.12780419609E+00  0.20356859865E-01 0.  0.
         14    1    1    2    0    0 -0.38361195110E-02  0.67246329715E-02  0.22423398229E-01  0.23722253047E-01  0.00000000000E+00 0. -1.
     999901    1    3    3    0    0 -0.11014471593E-01 -0.64782528302E-02 -0.14771868958E+00  0.89240355086E+00  0.88000000000E+00 0. -1.
        -11    1    4    4    0    0  0.19751451161E-01 -0.21457631952E-02  0.95780819992E-01  0.97821013704E-01  0.51100000000E-03 0. -1.
         11    1    4    4    0    0 -0.49008600564E-02  0.18993830538E-02  0.29514471360E-01  0.29983182385E-01  0.51100000000E-03 0.  1.
</event>
<event>
 8    1  0.1117714E+005  0.1043930E+01  0.7957747E-01            NaN
         13   -1    0    0    0    0  0.00000000000E+00  0.00000000000E+00  0.74505805969E-08  0.10566000000E+00  0.10566000000E+00 0. -1.
     999900   -1    0    0    0    0 -0.00000000000E+00 -0.00000000000E+00 -0.74505805969E-08  0.93827000000E+00  0.93827000000E+00 0.  1.
     999902    2    1    2    0    0  0.90669290904E-02 -0.35054357155E-01 -0.75989899408E-02  0.10069332190E+01  0.10062533208E+01 0.  0.
     999903    2    3    3    0    0 -0.70943496893E-01 -0.93450799704E-01 -0.22467081003E-01  0.12125106780E+00  0.20761021080E-01 0.  0.
         14    1    1    2    0    0 -0.90669290904E-02  0.35054357155E-01  0.75989899408E-02  0.36996781033E-01  0.00000000000E+00 0. -1.
     999901    1    3    3    0    0  0.80010425984E-01  0.58396442549E-01  0.14868091062E-01  0.88568215117E+00  0.88000000000E+00 0. -1.
        -11    1    4    4    0    0 -0.44556135807E-01 -0.63185324930E-01 -0.50548487113E-02  0.77481914929E-01  0.51100000000E-03 0.  1.
         11    1    4    4    0    0 -0.26387361086E-01 -0.30265474775E-01 -0.17412232291E-01  0.43769152868E-01  0.51100000000E-03 0. -1.
</event>
<event>
 8    1  0.1117714E+005  0.1043930E+01  0.7957747E-01            NaN
         13   -1    0    0    0    0  0.00000000000E+00  0.00000000000E+00  0.74505805969E-08  0.10566000000E+00  0.10566000000E+00 0. -1.
     999900   -1    0    0    0    0 -0.00000000000E+00 -0.00000000000E+00 -0.74505805969E-08  0.93827000000E+00  0.93827000000E+00 0.  1.
     999902    2    1    2    0    0  0.12631397227E-01  0.29518733432E-02 -0.19302096423E-01  0.10206741044E+01  0.10204091291E+01 0.  0.
     999903    2    3    3    0    0 -0.39635384766E-01 -0.11027866434E+00 -0.55828270910E-01  0.13113088874E+00  0.18605553341E-01 0.  0.
         14    1    1    2    0    0 -0.12631397227E-01 -0.29518733432E-02  0.19302096423E-01  0.23255895563E-01  0.00000000000E+00 0. -1.
     999901    1    3    3    0    0  0.52266781994E-01  0.11323053768E+00  0.36526174488E-01  0.88954321569E+00  0.88000000000E+00 0. -1.
        -11    1    4    4    0    0 -0.24317069085E-01 -0.49408611158E-01 -0.33757038476E-01  0.64593571454E-01  0.51100000000E-03 0.  1.
         11    1    4    4    0    0 -0.15318315681E-01 -0.60870053184E-01 -0.22071232434E-01  0.66537317289E-01  0.51100000000E-03 0. -1.
</event>
<event>
 8    1  0.1117714E+005  0.1043930E+01  0.7957747E-01            NaN
         13   -1    0    0    0    0  0.00000000000E+00  0.00000000000E+00  0.74505805969E-08  0.10566000000E+00  0.10566000000E+00 0.  1.
     999900   -1    0    0    0    0 -0.00000000000E+00 -0.00000000000E+00 -0.74505805969E-08  0.93827000000E+00  0.93827000000E+00 0. -1.
     999902    2    1    2    0    0  0.14282079422E-02 -0.16403080657E-01 -0.15627131044E-01  0.10212296023E+01  0.10209772732E+01 0.  0.
     999903    2    3    3    0    0 -0.89155755797E-01  0.81539560367E-01 -0.45516985464E-01  0.13067268728E+00  0.20152085221E-01 0.  0.
         14    1    1    2    0    0 -0.14282079422E-02  0.16403080657E-01  0.15627131044E-01  0.22700397742E-01  0.00000000000E+00 0.  1.
     999901    1    3    3    0    0  0.90583963739E-01 -0.97942641024E-01  0.29889854420E-01  0.89055691498E+00  0.88000000000E+00 0. -1.
        -11    1    4    4    0    0 -0.18808651224E-01  0.29438902885E-01 -0.13727156050E-01  0.37538117936E-01  0.51100000000E-03 0. -1.
         11    1    4    4    0    0 -0.70347104572E-01  0.52100657482E-01 -0.31789829415E-01  0.93134569344E-01  0.51100000000E-03 0.  1.
</event>
<event>
 8    1  0.1117714E+005  0.1043930E+01  0.7957747E-01            NaN
         13   -1    0    0    0    0  0.00000000000E+00  0.00000000000E+00  0.74505805969E-08  0.10566000000E+00  0.10566000000E+00 0. -1.
     999900   -1    0    0    0    0 -0.00000000000E+00 -0.00000000000E+00 -0.74505805969E-08  0.93827000000E+00  0.93827000000E+00 0. -1.
     999902    2    1    2    0    0  0.23777334866E-01  0.15316686064E-02  0.10177031294E-02  0.10200816587E+01  0.10198028472E+01 0.  0.
     999903    2    3    3    0    0  0.93080332774E-01  0.61299289252E-01 -0.69011173360E-01  0.13256877570E+00  0.19758214212E-01 0.  0.
         14    1    1    2    0    0 -0.23777334866E-01 -0.15316686064E-02 -0.10177031294E-02  0.23848341278E-01  0.00000000000E+00 0.  1.
     999901    1    3    3    0    0 -0.69302997908E-01 -0.59767620645E-01  0.70028876489E-01  0.88751288303E+00  0.88000000000E+00 0.  1.
        -11    1    4    4    0    0  0.20056624834E-01  0.17796070322E-01 -0.25802321139E-01  0.37215443243E-01  0.51100000000E-03 0.  1.
         11    1    4    4    0    0  0.73023707939E-01  0.43503218930E-01 -0.43208852221E-01  0.95353332452E-01  0.51100000000E-03 0. -1.
</event>
<event>
 8    1  0.1117714E+005  0.1043930E+01  0.7957747E-01            NaN
         13   -1    0    0    0    0  0.00000000000E+00  0.00000000000E+00  0.74505805969E-08  0.10566000000E+00  0.10566000000E+00 0.  1.
     999900   -1    0    0    0    0 -0.00000000000E+00 -0.00000000000E+00 -0.74505805969E-08  0.93827000000E+00  0.93827000000E+00 0. -1.
     999902    2    1    2    0    0  0.16920882754E-01 -0.20804069259E-01  0.67604883177E-02  0.10162744441E+01  0.10158980834E+01 0.  0.
     999903    2    3    3    0    0  0.10103743372E+00  0.51137976216E-02 -0.75812111653E-01  0.12803710855E+00  0.20280802591E-01 0.  0.
         14    1    1    2    0    0 -0.16920882754E-01  0.20804069259E-01 -0.67604883177E-02  0.27655555919E-01  0.00000000000E+00 0. -1.
     999901    1    3    3    0    0 -0.84116550963E-01 -0.25917866880E-01  0.82572599971E-01  0.88823733553E+00  0.88000000000E+00 0.  1.
        -11    1    4    4    0    0  0.28964427769E-01  0.96489191367E-03 -0.10947660657E-01  0.30983568020E-01  0.51100000000E-03 0.  1.
         11    1    4    4    0    0  0.72073005947E-01  0.41489057079E-02 -0.64864450996E-01  0.97053540527E-01  0.51100000000E-03 0. -1.
</event>
<event>
 8    1  0.1117714E+005  0.1043930E+01  0.7957747E-01            NaN
         13   -1    0    0    0    0  0.00000000000E+00  0.00000000000E+00  0.74505805969E-08  0.10566000000E+00  0.10566000000E+00 0. -1.
     999900   -1    0    0    0    0 -0.00000000000E+00 -0.00000000000E+00 -0.74505805969E-08  0.93827000000E+00  0.93827000000E+00 0.  1.
     999902    2    1    2    0    0  0.84276292423E-02  0.10424005628E-01 -0.19630448320E-01  0.10201594441E+01  0.10198824697E+01 0.  0.
     999903    2    3    3    0    0  0.29868837653E-01 -0.10326670135E+00  0.67918405734E-01  0.12827934892E+00  0.16926974082E-01 0.  0.
         14    1    1    2    0    0 -0.84276292423E-02 -0.10424005628E-01  0.19630448320E-01  0.23770555930E-01  0.00000000000E+00 0. -1.
     999901    1    3    3    0    0 -0.21441208411E-01  0.11369070698E+00 -0.87548854054E-01  0.89188009515E+00  0.88000000000E+00 0.  1.
        -11    1    4    4    0    0  0.75061191501E-02 -0.44683534098E-01  0.20892293957E-01  0.49896984999E-01  0.51100000000E-03 0. -1.
         11    1    4    4    0    0  0.22362718503E-01 -0.58583167256E-01  0.47026111777E-01  0.78382363925E-01  0.51100000000E-03 0.  1.
</event>
<event>
 8    1  0.1117714E+005  0.1043930E+01  0.7957747E-01            NaN
         13   -1    0    0    0    0  0.00000000000E+00  0.00000000000E+00  0.74505805969E-08  0.10566000000E+00  0.10566000000E+00 0. -1.
     999900   -1    0    0    0    0 -0.00000000000E+00 -0.00000000000E+00 -0.74505805969E-08  0.93827000000E+00  0.93827000000E+00 0.  1.
     999902    2    1    2    0    0  0.61790121917E-03 -0.27369232821E-02 -0.23332058347E-01  0.10204298405E+01  0.10201592042E+01 0.  0.
     999903    2    3    3    0    0  0.88511063003E-01  0.93735280459E-01 -0.88603399513E-02  0.13068744820E+00  0.19498523427E-01 0.  0.
         14    1    1    2    0    0 -0.61790121917E-03  0.27369232821E-02  0.23332058347E-01  0.23500159525E-01  0.00000000000E+00 0. -1.
     999901    1    3    3    0    0 -0.87893161783E-01 -0.96472203741E-01 -0.14471718396E-01  0.88974239228E+00  0.88000000000E+00 0.  1.
        -11    1    4    4    0    0  0.59139623824E-01  0.64203992006E-01 -0.15038307894E-01  0.88577985532E-01  0.51100000000E-03 0. -1.
         11    1    4    4    0    0  0.29371439178E-01  0.29531288453E-01  0.61779679431E-02  0.42109462666E-01  0.51100000000E-03 0.  1.
</event>
<event>
 8    1  0.1117714E+005  0.1043930E+01  0.7957747E-01            NaN
         13   -1    0    0    0    0  0.00000000000E+00  0.00000000000E+00  0.74505805969E-08  0.10566000000E+00  0.10566000000E+00 0.  1.
     999900   -1    0    0    0    0 -0.00000000000E+00 -0.00000000000E+00 -0.74505805969E-08  0.93827000000E+00  0.93827000000E+00 0. -1.
     999902    2    1    2    0    0 -0.14011579709E-01 -0.30521769027E-02 -0.17893012074E-01  0.10209996701E+01  0.10207421448E+01 0.  0.
     999903    2    3    3    0    0  0.14208256481E-01  0.12199015683E+00  0.37264364845E-01  0.13000344078E+00  0.20707216399E-01 0.  0.
         14    1    1    2    0    0  0.14011579709E-01  0.30521769027E-02  0.17893012074E-01  0.22930329934E-01  0.00000000000E+00 0.  1.
     999901    1    3    3    0    0 -0.28219836191E-01 -0.12504233373E+00 -0.55157376918E-01  0.89099622929E+00  0.88000000000E+00 0. -1.
        -11    1    4    4    0    0  0.32487218849E-02  0.47231819902E-01  0.24716818230E-01  0.53409561218E-01  0.51100000000E-03 0.  1.
         11    1    4    4    0    0  0.10959534597E-01  0.74758336928E-01  0.12547546615E-01  0.76593879558E-01  0.51100000000E-03 0. -1.
</event>
<event>
 8    1  0.1117714E+005  0.1043930E+01  0.7957747E-01            NaN
         13   -1    0    0    0    0  0.00000000000E+00  0.00000000000E+00  0.74505805969E-08  0.10566000000E+00  0.10566000000E+00 0.  1.
     999900   -1    0    0    0    0 -0.00000000000E+00 -0.00000000000E+00 -0.74505805969E-08  0.93827000000E+00  0.93827000000E+00 0.  1.
     999902    2    1    2    0    0 -0.17184962478E-01 -0.15775592117E-01 -0.16253511085E-02  0.10205455178E+01  0.10202775700E+01 0.  0.
     999903    2    3    3    0    0  0.90772103135E-01  0.22645172148E-01  0.86320726397E-01  0.12876897869E+00  0.19437168972E-01 0.  0.
         14    1    1    2    0    0  0.17184962478E-01  0.15775592117E-01  0.16253511085E-02  0.23384482210E-01  0.00000000000E+00 0. -1.
     999901    1    3    3    0    0 -0.10795706561E+00 -0.38420764265E-01 -0.87946077505E-01  0.89177653910E+00  0.88000000000E+00 0.  1.
        -11    1    4    4    0    0  0.58348907150E-01  0.21036183364E-01  0.47280339805E-01  0.77992356223E-01  0.51100000000E-03 0.  1.
         11    1    4    4    0    0  0.32423195985E-01  0.16089887840E-02  0.39040386592E-01  0.50776622465E-01  0.51100000000E-03 0. -1.
</event>
<event>
 8    1  0.1117714E+005  0.1043930E+01  0.7957747E-01            NaN
         13   -1    0    0    0    0  0.00000000000E+00  0.00000000000E+00  0.74505805969E-08  0.10566000000E+00  0.10566000000E+00 0. -1.
     999900   -1    0    0    0    0 -0.00000000000E+00 -0.00000000000E+00 -0.74505805969E-08  0.93827000000E+00  0.93827000000E+00 0. -1.
     999902    2    1    2    0    0 -0.14946501026E-01  0.12385579626E-01 -0.11862843046E-01  0.10211807688E+01  0.10209273407E+01 0.  0.
     999903    2    3    3    0    0 -0.54867154529E-01 -0.83899743917E-01  0.80751169785E-01  0.13020272334E+00  0.19555716990E-01 0.  0.
         14    1    1    2    0    0  0.14946501026E-01 -0.12385579626E-01  0.11862843046E-01  0.22749231212E-01  0.00000000000E+00 0. -1.
     999901    1    3    3    0    0  0.39920653504E-01  0.96285323543E-01 -0.92614012830E-01  0.89097804545E+00  0.88000000000E+00 0. -1.
        -11    1    4    4    0    0 -0.18255742848E-01 -0.13257567030E-01  0.17493894375E-01  0.28554031097E-01  0.51100000000E-03 0.  1.
         11    1    4    4    0    0 -0.36611411682E-01 -0.70642176887E-01  0.63257275410E-01  0.10164869224E+00  0.51100000000E-03 0. -1.
</event>
<event>
 8    1  0.1117714E+005  0.1043930E+01  0.7957747E-01            NaN
         13   -1    0    0    0    0  0.00000000000E+00  0.00000000000E+00  0.74505805969E-08  0.10566000000E+00  0.10566000000E+00 0.  1.
     999900   -1    0    0    0    0 -0.00000000000E+00 -0.00000000000E+00 -0.74505805969E-08  0.93827000000E+00  0.93827000000E+00 0. -1.
     999902    2    1    2    0    0  0.25813278430E-01 -0.38892021514E-03  0.60721009124E-02  0.10174093097E+01  0.10170635951E+01 0.  0.
     999903    2    3    3    0    0 -0.33737183719E-01 -0.11763619464E+00  0.29284782736E-01  0.12733515019E+00  0.19497951669E-01 0.  0.
         14    1    1    2    0    0 -0.25813278430E-01  0.38892021514E-03 -0.60721009124E-02  0.26520690257E-01  0.00000000000E+00 0.  1.
     999901    1    3    3    0    0  0.59550462149E-01  0.11724727443E+00 -0.23212681824E-01  0.89007415955E+00  0.88000000000E+00 0. -1.
        -11    1    4    4    0    0 -0.23650258196E-01 -0.68435240083E-01  0.26238991524E-01  0.77015989217E-01  0.51100000000E-03 0. -1.
         11    1    4    4    0    0 -0.10086925523E-01 -0.49200954559E-01  0.30457912123E-02  0.50319160974E-01  0.51100000000E-03 0.  1.
</event>
<event>
 8    1  0.1117714E+005  0.1043930E+01  0.7957747E-01            NaN
         13   -1    0    0    0    0  0.00000000000E+00  0.00000000000E+00  0.74505805969E-08  0.10566000000E+00  0.10566000000E+00 0. -1.
     999900   -1    0    0    0    0 -0.00000000000E+00 -0.00000000000E+00 -0.74505805969E-08  0.93827000000E+00  0.93827000000E+00 0.  1.
     999902    2    1    2    0    0  0.19782619329E-02 -0.15027982474E-01 -0.17884785954E-01  0.10204860382E+01  0.10202167097E+01 0.  0.
     999903    2    3    3    0    0  0.27241979474E-03 -0.19573879600E-01  0.12615494670E+00  0.12876241526E+00  0.16777307055E-01 0.  0.
         14    1    1    2    0    0 -0.19782619329E-02  0.15027982474E-01  0.17884785954E-01  0.23443961827E-01  0.00000000000E+00 0. -1.
     999901    1    3    3    0    0  0.17058421381E-02  0.45458971268E-02 -0.14403973265E+00  0.89172362291E+00  0.88000000000E+00 0.  1.
        -11    1    4    4    0    0  0.41254559252E-02 -0.31490670588E-02  0.90314438076E-02  0.10429003221E-01  0.51100000000E-03 0.  1.
         11    1    4    4    0    0 -0.38530361305E-02 -0.16424812542E-01  0.11712350289E+00  0.11833341204E+00  0.51100000000E-03 0. -1.
</event>
<event>
 8    1  0.1117714E+005  0.1043930E+01  0.7957747E-01            NaN
         13   -1    0    0    0    0  0.00000000000E+00  0.00000000000E+00  0.74505805969E-08  0.10566000000E+00  0.10566000000E+00 0.  1.
     999900   -1    0    0    0    0 -0.00000000000E+00 -0.00000000000E+00 -0.74505805969E-08  0.93827000000E+00  0.93827000000E+00 0.  1.
     999902    2    1    2    0    0 -0.95907033523E-02  0.96884960312E-02  0.18832195558E-01  0.10206813412E+01  0.10204165327E+01 0.  0.
     999903    2    3    3    0    0 -0.37439450553E-01 -0.49380579410E-01  0.11561807227E+00  0.13296955559E+00  0.21753390479E-01 0.  0.
         14    1    1    2    0    0  0.95907033523E-02 -0.96884960312E-02 -0.18832195558E-01  0.23248658793E-01  0.00000000000E+00 0. -1.
     999901    1    3    3    0    0  0.27848747201E-01  0.59069075442E-01 -0.96785876713E-01  0.88771178562E+00  0.88000000000E+00 0.  1.
        -11    1    4    4    0    0 -0.14697940391E-01 -0.32576025970E-01  0.78937099013E-01  0.86651910777E-01  0.51100000000E-03 0. -1.
         11    1    4    4    0    0 -0.22741510162E-01 -0.16804553441E-01  0.36680973258E-01  0.46317644812E-01  0.51100000000E-03 0.  1.
</event>
<event>
 8    1  0.1117714E+005  0.1043930E+01  0.7957747E-01            NaN
         13   -1    0    0    0    0  0.00000000000E+00  0.00000000000E+00  0.74505805969E-08  0.10566000000E+00  0.10566000000E+00 0. -1.
     999900   -1    0    0    0    0 -0.00000000000E+00 -0.00000000000E+00 -0.74505805969E-08  0.93827000000E+00  0.93827000000E+00 0. -1.
     999902    2    1    2    0    0  0.16216443003E-01  0.13164543721E-01  0.10973758289E-01  0.10203354751E+01  0.10200626354E+01 0.  0.
     999903    2    3    3    0    0 -0.12276238958E+00 -0.12984970330E-01 -0.26765940271E-01  0.12824624309E+00  0.22169112716E-01 0.  0.
         14    1    1    2    0    0 -0.16216443003E-01 -0.13164543721E-01 -0.10973758289E-01  0.23594524917E-01  0.00000000000E+00 0. -1.
     999901    1    3    3    0    0  0.13897883258E+00  0.26149514052E-01  0.37739698560E-01  0.89208923199E+00  0.88000000000E+00 0.  1.
        -11    1    4    4    0    0 -0.60365843094E-01 -0.17486834217E-01 -0.12545869020E-01  0.64089658556E-01  0.51100000000E-03 0. -1.
         11    1    4    4    0    0 -0.62396546485E-01  0.45018638870E-02 -0.14220071251E-01  0.64156584534E-01  0.51100000000E-03 0.  1.
</event>
<event>
 8    1  0.1117714E+005  0.1043930E+01  0.7957747E-01            NaN
         13   -1    0    0    0    0  0.00000000000E+00  0.00000000000E+00  0.74505805969E-08  0.10566000000E+00  0.10566000000E+00 0. -1.
     999900   -1    0    0    0    0 -0.00000000000E+00 -0.00000000000E+00 -0.74505805969E-08  0.93827000000E+00  0.93827000000E+00 0.  1.
     999902    2    1    2    0    0 -0.20862656012E-01  0.40804246316E-02  0.97894605189E-02  0.10205262862E+01  0.10202578924E+01 0.  0.
     999903    2    3    3    0    0  0.27943729083E-02  0.11211101061E+00  0.66278275074E-01  0.13180740565E+00  0.20092168050E-01 0.  0.
         14    1    1    2    0    0  0.20862656012E-01 -0.40804246316E-02 -0.97894605189E-02  0.23403713771E-01  0.00000000000E+00 0.  1.
     999901    1    3    3    0    0 -0.23657028920E-01 -0.10803058598E+00 -0.56488814555E-01  0.88871888058E+00  0.88000000000E+00 0. -1.
        -11    1    4    4    0    0  0.11306054073E-01  0.52065383609E-01  0.31401964663E-01  0.61846386594E-01  0.51100000000E-03 0. -1.
         11    1    4    4    0    0 -0.85116811646E-02  0.60045627005E-01  0.34876310411E-01  0.69961019058E-01  0.51100000000E-03 0.  1.
</event>
<event>
 8    1  0.1117714E+005  0.1043930E+01  0.7957747E-01            NaN
         13   -1    0    0    0    0  0.00000000000E+00  0.00000000000E+00  0.74505805969E-08  0.10566000000E+00  0.10566000000E+00 0. -1.
     999900   -1    0    0    0    0 -0.00000000000E+00 -0.00000000000E+00 -0.74505805969E-08  0.93827000000E+00  0.93827000000E+00 0.  1.
     999902    2    1    2    0    0  0.20975513349E-01  0.95203002841E-02  0.47527285488E-02  0.10204098659E+01  0.10201387640E+01 0.  0.
     999903    2    3    3    0    0  0.80615651776E-01  0.17224741289E-02 -0.10258999598E+00  0.13184911240E+00  0.18911132638E-01 0.  0.
         14    1    1    2    0    0 -0.20975513349E-01 -0.95203002841E-02 -0.47527285488E-02  0.23520134065E-01  0.00000000000E+00 0.  1.
     999901    1    3    3    0    0 -0.59640138427E-01  0.77978261553E-02  0.10734272453E+00  0.88856075353E+00  0.88000000000E+00 0. -1.
        -11    1    4    4    0    0  0.22019385029E-01  0.89166409426E-02 -0.30820010854E-01  0.38916500264E-01  0.51100000000E-03 0. -1.
         11    1    4    4    0    0  0.58596266747E-01 -0.71941668137E-02 -0.71769985130E-01  0.92932612141E-01  0.51100000000E-03 0.  1.
</event>
<event>
 8    1  0.1117714E+005  0.1043930E+01  0.7957747E-01            NaN
         13   -1    0    0    0    0  0.00000000000E+00  0.00000000000E+00  0.74505805969E-08  0.10566000000E+00  0.10566000000E+00 0. -1.
     999900   -1    0    0    0    0 -0.00000000000E+00 -0.00000000000E+00 -0.74505805969E-08  0.93827000000E+00  0.93827000000E+00 0. -1.
     999902    2    1    2    0    0 -0.94676829222E-02 -0.10442097870E-02 -0.20938579969E-01  0.10209267062E+01  0.10206675208E+01 0.  0.
     999903    2    3    3    0    0 -0.64667911404E-02  0.85256710017E-01 -0.99673372800E-01  0.13320151128E+00  0.22301017283E-01 0.  0.
         14    1    1    2    0    0  0.94676829222E-02  0.10442097870E-02  0.20938579969E-01  0.23003293788E-01  0.00000000000E+00 0. -1.
     999901    1    3    3    0    0 -0.30008917818E-02 -0.86300919804E-01  0.78734792832E-01  0.88772519493E+00  0.88000000000E+00 0.  1.
        -11    1    4    4    0    0 -0.14096115609E-01  0.61431274833E-01 -0.66167018283E-01  0.91382916524E-01  0.51100000000E-03 0. -1.
         11    1    4    4    0    0  0.76293244686E-02  0.23825435185E-01 -0.33506354517E-01  0.41818594759E-01  0.51100000000E-03 0.  1.
</event>
<event>
 7    1  0.1117714E+005  0.1043930E+01  0.7957747E-01            NaN
         13   -1    0    0    0    0  0.00000000000E+00  0.00000000000E+00  0.74505805969E-08  0.10566000000E+00  0.10566000000E+00 0. -1.
     999900   -1    0    0    0    0 -0.00000000000E+00 -0.00000000000E+00 -0.74505805969E-08  0.93827000000E+00  0.93827000000E+00 0. -1.
     999903    2    1    2    0    0  0.92951410802E-01  0.51334388971E-02  0.68381909914E-01  0.11729696067E+00  0.20400353256E-01 0.  0.
         14    1    1    2    0    0 -0.80604243990E-02  0.24292417179E-01 -0.32449698847E-01  0.41328863149E-01  0.00000000000E+00 0. -1.
     999901    1    1    2    0    0 -0.84890986403E-01 -0.29425856076E-01 -0.35932211067E-01  0.88530417618E+00  0.88000000000E+00 0. -1.
        -11    1    3    3    0    0  0.36927926886E-01 -0.79295261674E-02  0.27274463904E-01  0.46590843217E-01  0.51100000000E-03 0.  1.
         11    1    3    3    0    0  0.56023483916E-01  0.13062965064E-01  0.41107446010E-01  0.70706117450E-01  0.51100000000E-03 0. -1.
</event>
<event>
 8    1  0.1117714E+005  0.1043930E+01  0.7957747E-01            NaN
         13   -1    0    0    0    0  0.00000000000E+00  0.00000000000E+00  0.74505805969E-08  0.10566000000E+00  0.10566000000E+00 0.  1.
     999900   -1    0    0    0    0 -0.00000000000E+00 -0.00000000000E+00 -0.74505805969E-08  0.93827000000E+00  0.93827000000E+00 0.  1.
     999902    2    1    2    0    0 -0.21694810992E-01 -0.67069965747E-02 -0.10260979028E-01  0.10190114062E+01  0.10187066848E+01 0.  0.
     999903    2    3    3    0    0 -0.93713224967E-01 -0.90245220203E-01  0.79643612256E-02  0.13193900227E+00  0.20447517398E-01 0.  0.
         14    1    1    2    0    0  0.21694810992E-01  0.67069965747E-02  0.10260979028E-01  0.24918593813E-01  0.00000000000E+00 0.  1.
     999901    1    3    3    0    0  0.72018413975E-01  0.83538223628E-01 -0.18225340254E-01  0.88707240391E+00  0.88000000000E+00 0. -1.
        -11    1    4    4    0    0 -0.47064665983E-01 -0.31295024136E-01  0.32946294438E-02  0.56617815429E-01  0.51100000000E-03 0.  1.
         11    1    4    4    0    0 -0.46648558984E-01 -0.58950196067E-01  0.46697317818E-02  0.75321186844E-01  0.51100000000E-03 0. -1.
</event>
<event>
 8    1  0.1117714E+005  0.1043930E+01  0.7957747E-01            NaN
         13   -1    0    0    0    0  0.00000000000E+00  0.00000000000E+00  0.74505805969E-08  0.10566000000E+00  0.10566000000E+00 0.  1.
     999900   -1    0    0    0    0 -0.00000000000E+00 -0.00000000000E+00 -0.74505805969E-08  0.93827000000E+00  0.93827000000E+00 0.  1.
     999902    2    1    2    0    0  0.47131040096E-02 -0.77985737775E-02  0.21597860372E-01  0.10204886119E+01  0.10202193433E+01 0.  0.
     999903    2    3    3    0    0  0.63940561592E-01  0.41401387565E-01 -0.10166675050E+00  0.12856782384E+00  0.19775916156E-01 0.  0.
         14    1    1    2    0    0 -0.47131040096E-02  0.77985737775E-02 -0.21597860372E-01  0.23441388078E-01  0.00000000000E+00 0. -1.
     999901    1    3    3    0    0 -0.59227457582E-01 -0.49199961342E-01  0.12326461087E+00  0.89192078809E+00  0.88000000000E+00 0. -1.
        -11    1    4    4    0    0  0.38735710933E-01  0.14937467630E-01 -0.62120263574E-01  0.74717946360E-01  0.51100000000E-03 0.  1.
         11    1    4    4    0    0  0.25204850659E-01  0.26463919935E-01 -0.39546486925E-01  0.53849877476E-01  0.51100000000E-03 0. -1.
</event>
<event>
 8    1  0.1117714E+005  0.1043930E+01  0.7957747E-01            NaN
         13   -1    0    0    0    0  0.00000000000E+00  0.00000000000E+00  0.74505805969E-08  0.10566000000E+00  0.10566000000E+00 0.  1.
     999900   -1    0    0    0    0 -0.00000000000E+00 -0.00000000000E+00 -0.74505805969E-08  0.93827000000E+00  0.93827000000E+00 0.  1.
     999902    2    1    2    0    0 -0.36147568944E-02  0.13510152978E-01  0.18104660236E-01  0.10210527313E+01  0.10207964100E+01 0.  0.
     999903    2    3    3    0    0 -0.76590053067E-01  0.10121440673E+00  0.35843916762E-01  0.13350999362E+00  0.20730163275E-01 0.  0.
         14    1    1    2    0    0  0.36147568944E-02 -0.13510152978E-01 -0.18104660236E-01  0.22877268700E-01  0.00000000000E+00 0.  1.
     999901    1    3    3    0    0  0.72975296173E-01 -0.87704253756E-01 -0.17739256527E-01  0.88754273768E+00  0.88000000000E+00 0.  1.
        -11    1    4    4    0    0 -0.32094405014E-01  0.48558274728E-01  0.64498289965E-02  0.58564650540E-01  0.51100000000E-03 0.  1.
         11    1    4    4    0    0 -0.44495648053E-01  0.52656132006E-01  0.29394087766E-01  0.74945343085E-01  0.51100000000E-03 0. -1.
</event>
<event>
 8    1  0.1117714E+005  0.1043930E+01  0.7957747E-01            NaN
         13   -1    0    0    0    0  0.00000000000E+00  0.00000000000E+00  0.74505805969E-08  0.10566000000E+00  0.10566000000E+00 0. -1.
     999900   -1    0    0    0    0 -0.00000000000E+00 -0.00000000000E+00 -0.74505805969E-08  0.93827000000E+00  0.93827000000E+00 0. -1.
     999902    2    1    2    0    0 -0.33437966967E-02 -0.22451708644E-01 -0.61441073298E-02  0.10204138300E+01  0.10201428205E+01 0.  0.
     999903    2    3    3    0    0 -0.23420482248E-01 -0.52144257031E-01 -0.11837887804E+00  0.13256172265E+00  0.17073635181E-01 0.  0.
         14    1    1    2    0    0  0.33437966967E-02  0.22451708644E-01  0.61441073298E-02  0.23516170017E-01  0.00000000000E+00 0.  1.
     999901    1    3    3    0    0  0.20076685552E-01  0.29692548387E-01  0.11223477071E+00  0.88785210733E+00  0.88000000000E+00 0.  1.
        -11    1    4    4    0    0 -0.62539690896E-02 -0.34366033665E-01 -0.70158289529E-01  0.78374633076E-01  0.51100000000E-03 0.  1.
         11    1    4    4    0    0 -0.17166513159E-01 -0.17778223365E-01 -0.48220588507E-01  0.54187089579E-01  0.51100000000E-03 0. -1.
</event>
<event>
 8    1  0.1117714E+005  0.1043930E+01  0.7957747E-01            NaN
         13   -1    0    0    0    0  0.00000000000E+00  0.00000000000E+00  0.74505805969E-08  0.10566000000E+00  0.10566000000E+00 0.  1.
     999900   -1    0    0    0    0 -0.00000000000E+00 -0.00000000000E+00 -0.74505805969E-08  0.93827000000E+00  0.93827000000E+00 0.  1.
     999902    2    1    2    0    0  0.97912335263E-02 -0.13713583880E-01 -0.17147374218E-01  0.10198891373E+01  0.10196057519E+01 0.  0.
     999903    2    3    3    0    0 -0.77404272783E-01  0.97809695277E-01 -0.23909344169E-01  0.12854957106E+00  0.19879073039E-01 0.  0.
         14    1    1    2    0    0 -0.97912335263E-02  0.13713583880E-01  0.17147374218E-01  0.24040862700E-01  0.00000000000E+00 0. -1.
     999901    1    3    3    0    0  0.87195506309E-01 -0.11152327916E+00  0.67619699515E-02  0.89133956624E+00  0.88000000000E+00 0.  1.
        -11    1    4    4    0    0 -0.46223641572E-01  0.64006349904E-01 -0.59539050601E-02  0.79177951317E-01  0.51100000000E-03 0.  1.
         11    1    4    4    0    0 -0.31180631211E-01  0.33803345373E-01 -0.17955439109E-01  0.49371619740E-01  0.51100000000E-03 0. -1.
</event>
<event>
 8    1  0.1117714E+005  0.1043930E+01  0.7957747E-01            NaN
         13   -1    0    0    0    0  0.00000000000E+00  0.00000000000E+00  0.74505805969E-08  0.10566000000E+00  0.10566000000E+00 0.  1.
     999900   -1    0    0    0    0 -0.00000000000E+00 -0.00000000000E+00 -0.74505805969E-08  0.93827000000E+00  0.93827000000E+00 0.  1.
     999902    2    1    2    0    0  0.13996186126E-01 -0.18127503654E-01 -0.55992901584E-02  0.10203534934E+01  0.10200810751E+01 0.  0.
     999903    2    3    3    0    0 -0.37044457918E-01  0.10569183802E+00 -0.61110569160E-01  0.12849146434E+00  0.15247893636E-01 0.  0.
         14    1    1    2    0    0 -0.13996186126E-01  0.18127503654E-01  0.55992901584E-02  0.23576506634E-01  0.00000000000E+00 0.  1.
     999901    1    3    3    0    0  0.51040644043E-01 -0.12381934167E+00  0.55511279002E-01  0.89186202902E+00  0.88000000000E+00 0. -1.
        -11    1    4    4    0    0 -0.10397778645E-01  0.34028029952E-01 -0.27492204799E-01  0.44967800357E-01  0.51100000000E-03 0.  1.
         11    1    4    4    0    0 -0.26646679272E-01  0.71663808064E-01 -0.33618364361E-01  0.83523663987E-01  0.51100000000E-03 0. -1.
</event>
<event>
 8    1  0.1117714E+005  0.1043930E+01  0.7957747E-01            NaN
         13   -1    0    0    0    0  0.00000000000E+00  0.00000000000E+00  0.74505805969E-08  0.10566000000E+00  0.10566000000E+00 0. -1.
     999900   -1    0    0    0    0 -0.00000000000E+00 -0.00000000000E+00 -0.74505805969E-08  0.93827000000E+00  0.93827000000E+00 0.  1.
     999902    2    1    2    0    0 -0.16985434062E-01  0.14079747754E-01 -0.92951985650E-02  0.10199895534E+01  0.10197085584E+01 0.  0.
     999903    2    3    3    0    0 -0.10404517750E+00  0.77758483386E-01  0.20198552708E-01  0.13291330997E+00  0.19651608992E-01 0.  0.
         14    1    1    2    0    0  0.16985434062E-01 -0.14079747754E-01  0.92951985650E-02  0.23940446601E-01  0.00000000000E+00 0. -1.
     999901    1    3    3    0    0  0.87059743435E-01 -0.63678735631E-01 -0.29493751273E-01  0.88707624343E+00  0.88000000000E+00 0.  1.
        -11    1    4    4    0    0 -0.16548976006E-01  0.21467712490E-01  0.10928720901E-02  0.27132762056E-01  0.51100000000E-03 0.  1.
         11    1    4    4    0    0 -0.87496201490E-01  0.56290770896E-01  0.19105680618E-01  0.10578054791E+00  0.51100000000E-03 0. -1.
</event>
<event>
 8    1  0.1117714E+005  0.1043930E+01  0.7957747E-01            NaN
         13   -1    0    0    0    0  0.00000000000E+00  0.00000000000E+00  0.74505805969E-08  0.10566000000E+00  0.10566000000E+00 0.  1.
     999900   -1    0    0    0    0 -0.00000000000E+00 -0.00000000000E+00 -0.74505805969E-08  0.93827000000E+00  0.93827000000E+00 0.  1.
     999902    2    1    2    0    0 -0.94697479022E-03 -0.11544588499E-01  0.73561686186E-02  0.10302082107E+01  0.10301168234E+01 0.  0.
     999903    2    3    3    0    0 -0.89120757052E-01 -0.11781832374E-01 -0.10401684566E+00  0.13881681492E+00  0.19216737763E-01 0.  0.
         14    1    1    2    0    0  0.94697479022E-03  0.11544588499E-01 -0.73561686186E-02  0.13721789300E-01  0.00000000000E+00 0. -1.
     999901    1    3    3    0    0  0.88173782262E-01  0.23724387520E-03  0.11137301428E+00  0.89139139578E+00  0.88000000000E+00 0. -1.
        -11    1    4    4    0    0 -0.42549546464E-01 -0.34819945226E-02 -0.35342938152E-01  0.55425378558E-01  0.51100000000E-03 0.  1.
         11    1    4    4    0    0 -0.46571210588E-01 -0.82998378515E-02 -0.68673907513E-01  0.83391436360E-01  0.51100000000E-03 0. -1.
</event>
<event>
 8    1  0.1117714E+005  0.1043930E+01  0.7957747E-01            NaN
         13   -1    0    0    0    0  0.00000000000E+00  0.00000000000E+00  0.74505805969E-08  0.10566000000E+00  0.10566000000E+00 0.  1.
     999900   -1    0    0    0    0 -0.00000000000E+00 -0.00000000000E+00 -0.74505805969E-08  0.93827000000E+00  0.93827000000E+00 0.  1.
     999902    2    1    2    0    0  0.15112269000E-01  0.50664073819E-02  0.17417429219E-01  0.10203203410E+01  0.10200471471E+01 0.  0.
     999903    2    3    3    0    0 -0.98019997553E-01 -0.69140567931E-01  0.44911909206E-01  0.12955576415E+00  0.19475070772E-01 0.  0.
         14    1    1    2    0    0 -0.15112269000E-01 -0.50664073819E-02 -0.17417429219E-01  0.23609659013E-01  0.00000000000E+00 0. -1.
     999901    1    3    3    0    0  0.11313226655E+00  0.74206975313E-01 -0.27494479987E-01  0.89076457684E+00  0.88000000000E+00 0. -1.
        -11    1    4    4    0    0 -0.88107469732E-01 -0.65083692420E-01  0.35113980229E-01  0.11503071751E+00  0.51100000000E-03 0.  1.
         11    1    4    4    0    0 -0.99125278206E-02 -0.40568755105E-02  0.97979289768E-02  0.14525046641E-01  0.51100000000E-03 0. -1.
</event>
<event>
 8    1  0.1117714E+005  0.1043930E+01  0.7957747E-01            NaN
         13   -1    0    0    0    0  0.00000000000E+00  0.00000000000E+00  0.74505805969E-08  0.10566000000E+00  0.10566000000E+00 0.  1.
     999900   -1    0    0    0    0 -0.00000000000E+00 -0.00000000000E+00 -0.74505805969E-08  0.93827000000E+00  0.93827000000E+00 0. -1.
     999902    2    1    2    0    0 -0.25499094373E-02  0.13578436339E-01 -0.18648754317E-01  0.10207211222E+01  0.10204572295E+01 0.  0.
     999903    2    3    3    0    0 -0.90321448293E-01 -0.13359162619E-01  0.89416350245E-01  0.12936959552E+00  0.20119078185E-01 0.  0.
         14    1    1    2    0    0  0.25499094373E-02 -0.13578436339E-01  0.18648754317E-01  0.23208877808E-01  0.00000000000E+00 0. -1.
     999901    1    3    3    0    0  0.87771538856E-01  0.26937598958E-01 -0.10806510456E+00  0.89135152667E+00  0.88000000000E+00 0. -1.
        -11    1    4    4    0    0 -0.74937997240E-02 -0.72509854543E-02  0.98954262701E-02  0.14384519680E-01  0.51100000000E-03 0.  1.
         11    1    4    4    0    0 -0.82827648569E-01 -0.61081771647E-02  0.79520923975E-01  0.11498507584E+00  0.51100000000E-03 0. -1.
</event>
<event>
 8    1  0.1117714E+005  0.1043930E+01  0.7957747E-01            NaN
         13   -1    0    0    0    0  0.00000000000E+00  0.00000000000E+00  0.74505805969E-08  0.10566000000E+00  0.10566000000E+00 0. -1.
     999900   -1    0    0    0    0 -0.00000000000E+00 -0.00000000000E+00 -0.74505805969E-08  0.93827000000E+00  0.93827000000E+00 0. -1.
     999902    2    1    2    0    0  0.99364485891E-02 -0.12692500926E-01  0.17717581602E-01  0.10199770192E+01  0.10196957264E+01 0.  0.
     999903    2    3    3    0    0  0.13473257055E-01 -0.10169565405E+00 -0.78044433802E-01  0.13031166985E+00  0.19148444952E-01 0.  0.
         14    1    1    2    0    0 -0.99364485891E-02  0.12692500926E-01 -0.17717581602E-01  0.23952980778E-01  0.00000000000E+00 0.  1.
     999901    1    3    3    0    0 -0.35368084663E-02  0.89003153120E-01  0.95762015404E-01  0.88966534937E+00  0.88000000000E+00 0.  1.
        -11    1    4    4    0    0  0.34223214533E-03 -0.52351438092E-01 -0.48211720620E-01  0.71171773333E-01  0.51100000000E-03 0. -1.
         11    1    4    4    0    0  0.13131024910E-01 -0.49344215954E-01 -0.29832713182E-01  0.59139896517E-01  0.51100000000E-03 0.  1.
</event>
<event>
 8    1  0.1117714E+005  0.1043930E+01  0.7957747E-01            NaN
         13   -1    0    0    0    0  0.00000000000E+00  0.00000000000E+00  0.74505805969E-08  0.10566000000E+00  0.10566000000E+00 0.  1.
     999900   -1    0    0    0    0 -0.00000000000E+00 -0.00000000000E+00 -0.74505805969E-08  0.93827000000E+00  0.93827000000E+00 0. -1.
     999902    2    1    2    0    0 -0.59607731654E-02 -0.22112981223E-01 -0.71438266094E-02  0.10199393974E+01  0.10196572097E+01 0.  0.
     999903    2    3    3    0    0  0.90185082375E-01 -0.15143095596E-01  0.89328866312E-01  0.12943415578E+00  0.20270468630E-01 0.  0.
         14    1    1    2    0    0  0.59607731654E-02  0.22112981223E-01  0.71438266094E-02  0.23990602617E-01  0.00000000000E+00 0. -1.
     999901    1    3    3    0    0 -0.96145855541E-01 -0.69698856278E-02 -0.96472692921E-01  0.89050524160E+00  0.88000000000E+00 0. -1.
        -11    1    4    4    0    0  0.89693859758E-02  0.19441772338E-02  0.29718454471E-02  0.96603672943E-02  0.51100000000E-03 0.  1.
         11    1    4    4    0    0  0.81215696400E-01 -0.17087272829E-01  0.86357020865E-01  0.11977378849E+00  0.51100000000E-03 0. -1.
</event>
<event>
 8    1  0.1117714E+005  0.1043930E+01  0.7957747E-01            NaN
         13   -1    0    0    0    0  0.00000000000E+00  0.00000000000E+00  0.74505805969E-08  0.10566000000E+00  0.10566000000E+00 0.  1.
     999900   -1    0    0    0    0 -0.00000000000E+00 -0.00000000000E+00 -0.74505805969E-08  0.93827000000E+00  0.93827000000E+00 0.  1.
     999902    2    1    2    0    0 -0.13756901953E-01  0.15955931406E-01  0.10456012824E-01  0.10204103847E+01  0.10201392949E+01 0.  0.
     999903    2    3    3    0    0 -0.71800467599E-02 -0.11897992188E+00 -0.43883061053E-01  0.12844420013E+00  0.19089646865E-01 0.  0.
         14    1    1    2    0    0  0.13756901953E-01 -0.15955931406E-01 -0.10456012824E-01  0.23519615272E-01  0.00000000000E+00 0. -1.
     999901    1    3    3    0    0 -0.65768551929E-02  0.13493585328E+00  0.54339073878E-01  0.89196618460E+00  0.88000000000E+00 0. -1.
        -11    1    4    4    0    0 -0.11706528800E-01 -0.92609896929E-01 -0.28620912670E-01  0.97637357547E-01  0.51100000000E-03 0.  1.
         11    1    4    4    0    0  0.45264820405E-02 -0.26370024946E-01 -0.15262148384E-01  0.30806842578E-01  0.51100000000E-03 0. -1.
</event>
<event>
 8    1  0.1117714E+005  0.1043930E+01  0.7957747E-01            NaN
         13   -1    0    0    0    0  0.00000000000E+00  0.00000000000E+00  0.74505805969E-08  0.10566000000E+00  0.10566000000E+00 0.  1.
     999900   -1    0    0    0    0 -0.00000000000E+00 -0.00000000000E+00 -0.74505805969E-08  0.93827000000E+00  0.93827000000E+00 0. -1.
     999902    2    1    2    0    0  0.59475367189E-02 -0.16866335283E-01 -0.15605555444E-01  0.10201943766E+01  0.10199182252E+01 0.  0.
     999903    2    3    3    0    0 -0.89252410034E-01  0.63333007862E-01 -0.67123120751E-01  0.12994215161E+00  0.20059582373E-01 0.  0.
         14    1    1    2    0    0 -0.59475367189E-02  0.16866335283E-01  0.15605555444E-01  0.23735623430E-01  0.00000000000E+00 0.  1.
     999901    1    3    3    0    0  0.95199946753E-01 -0.80199343146E-01  0.51517565308E-01  0.89025222496E+00  0.88000000000E+00 0.  1.
        -11    1    4    4    0    0 -0.56716066498E-01  0.33863080470E-01 -0.49882962842E-01  0.82776757129E-01  0.51100000000E-03 0.  1.
         11    1    4    4    0    0 -0.32536343537E-01  0.29469927393E-01 -0.17240157910E-01  0.47165394486E-01  0.51100000000E-03 0. -1.
</event>
<event>
 8    1  0.1117714E+005  0.1043930E+01  0.7957747E-01            NaN
         13   -1    0    0    0    0  0.00000000000E+00  0.00000000000E+00  0.74505805969E-08  0.10566000000E+00  0.10566000000E+00 0.  1.
     999900   -1    0    0    0    0 -0.00000000000E+00 -0.00000000000E+00 -0.74505805969E-08  0.93827000000E+00  0.93827000000E+00 0. -1.
     999902    2    1    2    0    0  0.15733312674E-01 -0.73201731149E-02  0.11492150984E-01  0.10231167447E+01  0.10229050209E+01 0.  0.
     999903    2    3    3    0    0  0.11269861826E+00  0.17250512578E-01  0.70599846536E-01  0.13547959543E+00  0.19282730773E-01 0.  0.
         14    1    1    2    0    0 -0.15733312674E-01  0.73201731149E-02 -0.11492150984E-01  0.20813255304E-01  0.00000000000E+00 0. -1.
     999901    1    3    3    0    0 -0.96965305582E-01 -0.24570685693E-01 -0.59107695552E-01  0.88763714927E+00  0.88000000000E+00 0. -1.
        -11    1    4    4    0    0  0.61000765527E-01  0.58867356286E-02  0.27301260208E-01  0.67092227427E-01  0.51100000000E-03 0. -1.
         11    1    4    4    0    0  0.51697852729E-01  0.11363776950E-01  0.43298586329E-01  0.68387368003E-01  0.51100000000E-03 0.  1.
</event>
<event>
 8    1  0.1438132E+005  0.1043930E+01  0.7957747E-01            NaN
         13   -1    0    0    0    0  0.00000000000E+00  0.00000000000E+00  0.74505805969E-08  0.10566000000E+00  0.10566000000E+00 0.  1.
     999900   -1    0    0    0    0 -0.00000000000E+00 -0.00000000000E+00 -0.74505805969E-08  0.93827000000E+00  0.93827000000E+00 0.  1.
     999902    2    1    2    0    0 -0.36786904047E-02  0.17328075994E-02  0.24017562720E-01  0.10195706342E+01  0.10192795982E+01 0.  0.
     999903    2    3    3    0    0 -0.86402619498E-01  0.90311038567E-01  0.33476249150E-01  0.13121326339E+00  0.21789100239E-01 0.  0.
         14    1    1    2    0    0  0.36786904047E-02 -0.17328075994E-02 -0.24017562720E-01  0.24359365843E-01  0.00000000000E+00 0. -1.
     999901    1    3    3    0    0  0.82723929094E-01 -0.88578230967E-01 -0.94586864296E-02  0.88835737077E+00  0.88000000000E+00 0.  1.
        -11    1    4    4    0    0 -0.38090096097E-01  0.46863883614E-01  0.26195226746E-01  0.65829552888E-01  0.51100000000E-03 0.  1.
         11    1    4    4    0    0 -0.48312523401E-01  0.43447154953E-01  0.72810224034E-02  0.65383710503E-01  0.51100000000E-03 0. -1.
</event>
<event>
 8    1  0.1117714E+005  0.1043930E+01  0.7957747E-01            NaN
         13   -1    0    0    0    0  0.00000000000E+00  0.00000000000E+00  0.74505805969E-08  0.10566000000E+00  0.10566000000E+00 0. -1.
     999900   -1    0    0    0    0 -0.00000000000E+00 -0.00000000000E+00 -0.74505805969E-08  0.93827000000E+00  0.93827000000E+00 0. -1.
     999902    2    1    2    0    0 -0.25016331356E-01  0.12775729455E-01  0.28318657666E-02  0.10156978275E+01  0.10153053833E+01 0.  0.
     999903    2    3    3    0    0 -0.90968724442E-01 -0.16756986896E-01 -0.86533232805E-01  0.12822499961E+00  0.19938523227E-01 0.  0.
         14    1    1    2    0    0  0.25016331356E-01 -0.12775729455E-01 -0.28318657666E-02  0.28232172452E-01  0.00000000000E+00 0.  1.
     999901    1    3    3    0    0  0.65952393087E-01  0.29532716351E-01  0.89365098571E-01  0.88747282794E+00  0.88000000000E+00 0.  1.
        -11    1    4    4    0    0 -0.17649449982E-01 -0.10380422323E-01 -0.13438874972E-01  0.24497361772E-01  0.51100000000E-03 0. -1.
         11    1    4    4    0    0 -0.73319274461E-01 -0.63765645721E-02 -0.73094357833E-01  0.10372763784E+00  0.51100000000E-03 0.  1.
</event>
<event>
 8    1  0.1117714E+005  0.1043930E+01  0.7957747E-01            NaN
         13   -1    0    0    0    0  0.00000000000E+00  0.00000000000E+00  0.74505805969E-08  0.10566000000E+00  0.10566000000E+00 0. -1.
     999900   -1    0    0    0    0 -0.00000000000E+00 -0.00000000000E+00 -0.74505805969E-08  0.93827000000E+00  0.93827000000E+00 0.  1.
     999902    2    1    2    0    0 -0.15592465288E-01 -0.90472378086E-02  0.17822488477E-01  0.10185800773E+01  0.10182645802E+01 0.  0.
     999903    2    3    3    0    0  0.91471910727E-01 -0.70805420267E-01 -0.49723635883E-01  0.12737901545E+00  0.19299109330E-01 0.  0.
         14    1    1    2    0    0  0.15592465288E-01  0.90472378086E-02 -0.17822488477E-01  0.25349922706E-01  0.00000000000E+00 0.  1.
     999901    1    3    3    0    0 -0.10706437601E+00  0.61758182458E-01  0.67546124359E-01  0.89120106184E+00  0.88000000000E+00 0.  1.
        -11    1    4    4    0    0  0.70941852807E-01 -0.55001486249E-01 -0.29441851850E-01  0.94472184957E-01  0.51100000000E-03 0. -1.
         11    1    4    4    0    0  0.20530057920E-01 -0.15803934018E-01 -0.20281784033E-01  0.32906830495E-01  0.51100000000E-03 0.  1.
</event>
<event>
 8    1  0.1117714E+005  0.1043930E+01  0.7957747E-01            NaN
         13   -1    0    0    0    0  0.00000000000E+00  0.00000000000E+00  0.74505805969E-08  0.10566000000E+00  0.10566000000E+00 0.  1.
     999900   -1    0    0    0    0 -0.00000000000E+00 -0.00000000000E+00 -0.74505805969E-08  0.93827000000E+00  0.93827000000E+00 0.  1.
     999902    2    1    2    0    0 -0.96938160660E-03 -0.66648222717E-02  0.24838622510E-01  0.10181944851E+01  0.10178691924E+01 0.  0.
     999903    2    3    3    0    0 -0.10143343490E+00 -0.58792567917E-01  0.53946418789E-01  0.13046840596E+00  0.19143695965E-01 0.  0.
         14    1    1    2    0    0  0.96938160660E-03  0.66648222717E-02 -0.24838622510E-01  0.25735514855E-01  0.00000000000E+00 0. -1.
     999901    1    3    3    0    0  0.10046405329E+00  0.52127745646E-01 -0.29107796278E-01  0.88772607919E+00  0.88000000000E+00 0.  1.
        -11    1    4    4    0    0 -0.87662775589E-01 -0.42789419087E-01  0.42021594934E-01  0.10621568703E+00  0.51100000000E-03 0.  1.
         11    1    4    4    0    0 -0.13770659308E-01 -0.16003148830E-01  0.11924823854E-01  0.24252718924E-01  0.51100000000E-03 0. -1.
</event>
<event>
 8    1  0.1117714E+005  0.1043930E+01  0.7957747E-01            NaN
         13   -1    0    0    0    0  0.00000000000E+00  0.00000000000E+00  0.74505805969E-08  0.10566000000E+00  0.10566000000E+00 0. -1.
     999900   -1    0    0    0    0 -0.00000000000E+00 -0.00000000000E+00 -0.74505805969E-08  0.93827000000E+00  0.93827000000E+00 0.  1.
     999902    2    1    2    0    0  0.72351916047E-02  0.19304499235E-01  0.98645579822E-02  0.10210756527E+01  0.10208198505E+01 0.  0.
     999903    2    3    3    0    0 -0.51176418728E-01 -0.23292508367E-01  0.11730107092E+00  0.13159882576E+00  0.19928445035E-01 0.  0.
         14    1    1    2    0    0 -0.72351916047E-02 -0.19304499235E-01 -0.98645579822E-02  0.22854347342E-01  0.00000000000E+00 0.  1.
     999901    1    3    3    0    0  0.58411610333E-01  0.42597007602E-01 -0.10743651294E+00  0.88947682690E+00  0.88000000000E+00 0.  1.
        -11    1    4    4    0    0 -0.83355298881E-02 -0.12765499896E-01  0.36000993454E-01  0.39099510186E-01  0.51100000000E-03 0.  1.
         11    1    4    4    0    0 -0.42840888840E-01 -0.10527008471E-01  0.81300077469E-01  0.92499315573E-01  0.51100000000E-03 0. -1.
</event>
<event>
 8    1  0.1117714E+005  0.1043930E+01  0.7957747E-01            NaN
         13   -1    0    0    0    0  0.00000000000E+00  0.00000000000E+00  0.74505805969E-08  0.10566000000E+00  0.10566000000E+00 0. -1.
     999900   -1    0    0    0    0 -0.00000000000E+00 -0.00000000000E+00 -0.74505805969E-08  0.93827000000E+00  0.93827000000E+00 0. -1.
     999902    2    1    2    0    0 -0.18634528368E-01  0.84944059822E-02  0.12696912133E-01  0.10198341050E+01  0.10195494051E+01 0.  0.
     999903    2    3    3    0    0  0.11664088694E+00  0.32478241565E-01 -0.31943835010E-01  0.12805640919E+00  0.26797437497E-01 0.  0.
         14    1    1    2    0    0  0.18634528368E-01 -0.84944059822E-02 -0.12696912133E-01  0.24095895049E-01  0.00000000000E+00 0.  1.
     999901    1    3    3    0    0 -0.13527541531E+00 -0.23983835583E-01  0.44640747143E-01  0.89177769576E+00  0.88000000000E+00 0. -1.
        -11    1    4    4    0    0  0.57180495617E-01  0.27610387749E-01 -0.89954954741E-02  0.64133631197E-01  0.51100000000E-03 0.  1.
         11    1    4    4    0    0  0.59460391326E-01  0.48678538168E-02 -0.22948339536E-01  0.63922777990E-01  0.51100000000E-03 0. -1.
</event>
<event>
 8    1  0.1117714E+005  0.1043930E+01  0.7957747E-01            NaN
         13   -1    0    0    0    0  0.00000000000E+00  0.00000000000E+00  0.74505805969E-08  0.10566000000E+00  0.10566000000E+00 0.  1.
     999900   -1    0    0    0    0 -0.00000000000E+00 -0.00000000000E+00 -0.74505805969E-08  0.93827000000E+00  0.93827000000E+00 0.  1.
     999902    2    1    2    0    0 -0.57148216420E-02  0.14263118607E-01  0.18227557646E-01  0.10200901259E+01  0.10198115146E+01 0.  0.
     999903    2    3    3    0    0  0.71556855420E-01  0.59612920584E-01 -0.87721891725E-01  0.12921819211E+00  0.18114276861E-01 0.  0.
         14    1    1    2    0    0  0.57148216420E-02 -0.14263118607E-01 -0.18227557646E-01  0.23839874088E-01  0.00000000000E+00 0. -1.
     999901    1    3    3    0    0 -0.77271677062E-01 -0.45349801977E-01  0.10594944937E+00  0.89087193380E+00  0.88000000000E+00 0. -1.
        -11    1    4    4    0    0  0.51832659350E-01  0.52305411098E-01 -0.71615886884E-01  0.10272086926E+00  0.51100000000E-03 0. -1.
         11    1    4    4    0    0  0.19724196071E-01  0.73075094851E-02 -0.16106004841E-01  0.26497322854E-01  0.51100000000E-03 0.  1.
</event>
<event>
 8    1  0.1117714E+005  0.1043930E+01  0.7957747E-01            NaN
         13   -1    0    0    0    0  0.00000000000E+00  0.00000000000E+00  0.74505805969E-08  0.10566000000E+00  0.10566000000E+00 0. -1.
     999900   -1    0    0    0    0 -0.00000000000E+00 -0.00000000000E+00 -0.74505805969E-08  0.93827000000E+00  0.93827000000E+00 0.  1.
     999902    2    1    2    0    0 -0.17677720755E-01  0.28863526346E-01  0.21177136902E-02  0.10100170279E+01  0.10094475256E+01 0.  0.
     999903    2    3    3    0    0 -0.42762508227E-01  0.80686644063E-01 -0.81422099414E-01  0.12418759599E+00  0.21308075586E-01 0.  0.
         14    1    1    2    0    0  0.17677720755E-01 -0.28863526346E-01 -0.21177136902E-02  0.33912972083E-01  0.00000000000E+00 0.  1.
     999901    1    3    3    0    0  0.25084787472E-01 -0.51823117717E-01  0.83539813104E-01  0.88582943193E+00  0.88000000000E+00 0. -1.
        -11    1    4    4    0    0 -0.24860559721E-01  0.25745688381E-01 -0.35039094217E-01  0.50088792603E-01  0.51100000000E-03 0. -1.
         11    1    4    4    0    0 -0.17901948506E-01  0.54940955682E-01 -0.46383005196E-01  0.74098803388E-01  0.51100000000E-03 0.  1.
</event>
<event>
 8    1  0.1117714E+005  0.1043930E+01  0.7957747E-01            NaN
         13   -1    0    0    0    0  0.00000000000E+00  0.00000000000E+00  0.74505805969E-08  0.10566000000E+00  0.10566000000E+00 0. -1.
     999900   -1    0    0    0    0 -0.00000000000E+00 -0.00000000000E+00 -0.74505805969E-08  0.93827000000E+00  0.93827000000E+00 0.  1.
     999902    2    1    2    0    0  0.17785140001E-01  0.85616790418E-02 -0.11961301238E-01  0.10208500026E+01  0.10205890659E+01 0.  0.
     999903    2    3    3    0    0  0.44314555566E-01 -0.56410927329E-01  0.10674404631E+00  0.13011086626E+00  0.19712268697E-01 0.  0.
         14    1    1    2    0    0 -0.17785140001E-01 -0.85616790418E-02  0.11961301238E-01  0.23079997405E-01  0.00000000000E+00 0. -1.
     999901    1    3    3    0    0 -0.26529415565E-01  0.64972606370E-01 -0.11870534755E+00  0.89073913634E+00  0.88000000000E+00 0.  1.
        -11    1    4    4    0    0  0.29920277813E-01 -0.22734116976E-01  0.49457308169E-01  0.62115614393E-01  0.51100000000E-03 0.  1.
         11    1    4    4    0    0  0.14394277753E-01 -0.33676810352E-01  0.57286738146E-01  0.67995251863E-01  0.51100000000E-03 0. -1.
</event>
<event>
 8    1  0.1117714E+005  0.1043930E+01  0.7957747E-01            NaN
         13   -1    0    0    0    0  0.00000000000E+00  0.00000000000E+00  0.74505805969E-08  0.10566000000E+00  0.10566000000E+00 0.  1.
     999900   -1    0    0    0    0 -0.00000000000E+00 -0.00000000000E+00 -0.74505805969E-08  0.93827000000E+00  0.93827000000E+00 0.  1.
     999902    2    1    2    0    0  0.29364766689E-02  0.32472835560E-01 -0.69630757905E-02  0.10105894486E+01  0.10100393266E+01 0.  0.
     999903    2    3    3    0    0 -0.52253549155E-01  0.42400653278E-01  0.10022930300E+00  0.12231319280E+00  0.19655919076E-01 0.  0.
         14    1    1    2    0    0 -0.29364766689E-02 -0.32472835560E-01  0.69630757905E-02  0.33340551420E-01  0.00000000000E+00 0.  1.
     999901    1    3    3    0    0  0.55190025824E-01 -0.99278177181E-02 -0.10719237879E+00  0.88827625578E+00  0.88000000000E+00 0.  1.
        -11    1    4    4    0    0 -0.36299675697E-01  0.27741975094E-01  0.50698137964E-01  0.68248413548E-01  0.51100000000E-03 0.  1.
         11    1    4    4    0    0 -0.15953873458E-01  0.14658678184E-01  0.49531165037E-01  0.54064779250E-01  0.51100000000E-03 0. -1.
</event>
<event>
 8    1  0.1117714E+005  0.1043930E+01  0.7957747E-01            NaN
         13   -1    0    0    0    0  0.00000000000E+00  0.00000000000E+00  0.74505805969E-08  0.10566000000E+00  0.10566000000E+00 0.  1.
     999900   -1    0    0    0    0 -0.00000000000E+00 -0.00000000000E+00 -0.74505805969E-08  0.93827000000E+00  0.93827000000E+00 0. -1.
     999902    2    1    2    0    0  0.16764134708E-01  0.15807162930E-01  0.44518980483E-02  0.10204625330E+01  0.10201926579E+01 0.  0.
     999903    2    3    3    0    0  0.13114892285E+00 -0.47113763298E-02  0.55112527330E-02  0.13282183289E+00  0.19723801688E-01 0.  0.
         14    1    1    2    0    0 -0.16764134708E-01 -0.15807162930E-01 -0.44518980483E-02  0.23467467027E-01  0.00000000000E+00 0. -1.
     999901    1    3    3    0    0 -0.11438478815E+00  0.20518539260E-01 -0.10593546847E-02  0.88764070008E+00  0.88000000000E+00 0.  1.
        -11    1    4    4    0    0  0.11416859126E+00 -0.40958663411E-02  0.11449122469E-01  0.11481544704E+00  0.51100000000E-03 0.  1.
         11    1    4    4    0    0  0.16980331590E-01 -0.61550998873E-03 -0.59378697363E-02  0.18006385852E-01  0.51100000000E-03 0. -1.
</event>
<event>
 8    1  0.1117714E+005  0.1043930E+01  0.7957747E-01            NaN
         13   -1    0    0    0    0  0.00000000000E+00  0.00000000000E+00  0.74505805969E-08  0.10566000000E+00  0.10566000000E+00 0. -1.
     999900   -1    0    0    0    0 -0.00000000000E+00 -0.00000000000E+00 -0.74505805969E-08  0.93827000000E+00  0.93827000000E+00 0. -1.
     999902    2    1    2    0    0  0.75494927717E-02 -0.11587013072E-01  0.20416804226E-01  0.10192703243E+01  0.10189719792E+01 0.  0.
     999903    2    3    3    0    0 -0.78635380409E-01 -0.53080673512E-01  0.85527888070E-01  0.13169553334E+00  0.32056402051E-01 0.  0.
         14    1    1    2    0    0 -0.75494927717E-02  0.11587013072E-01 -0.20416804226E-01  0.24659675745E-01  0.00000000000E+00 0.  1.
     999901    1    3    3    0    0  0.86184873180E-01  0.41493660440E-01 -0.65111083844E-01  0.88757479091E+00  0.88000000000E+00 0. -1.
        -11    1    4    4    0    0 -0.24905660610E-01 -0.27371773902E-01  0.16504590906E-01  0.40523679237E-01  0.51100000000E-03 0. -1.
         11    1    4    4    0    0 -0.53729719799E-01 -0.25708899610E-01  0.69023297164E-01  0.91171854107E-01  0.51100000000E-03 0.  1.
</event>
<event>
 8    1  0.1117714E+005  0.1043930E+01  0.7957747E-01            NaN
         13   -1    0    0    0    0  0.00000000000E+00  0.00000000000E+00  0.74505805969E-08  0.10566000000E+00  0.10566000000E+00 0. -1.
     999900   -1    0    0    0    0 -0.00000000000E+00 -0.00000000000E+00 -0.74505805969E-08  0.93827000000E+00  0.93827000000E+00 0. -1.
     999902    2    1    2    0    0  0.15318438507E-01 -0.11910063328E-01  0.13784162928E-01  0.10201285859E+01  0.10198508834E+01 0.  0.
     999903    2    3    3    0    0  0.42111921395E-02  0.12589314363E+00  0.21342217122E-01  0.12930300308E+00  0.19923820503E-01 0.  0.
         14    1    1    2    0    0 -0.15318438507E-01  0.11910063328E-01 -0.13784162928E-01  0.23801414126E-01  0.00000000000E+00 0.  1.
     999901    1    3    3    0    0  0.11107246368E-01 -0.13780320695E+00 -0.75580541938E-02  0.89082558279E+00  0.88000000000E+00 0.  1.
        -11    1    4    4    0    0  0.92579308549E-02  0.45100316938E-01  0.13447110216E-01  0.47967007055E-01  0.51100000000E-03 0. -1.
         11    1    4    4    0    0 -0.50467387154E-02  0.80792826689E-01  0.78951069053E-02  0.81335996030E-01  0.51100000000E-03 0.  1.
</event>
<event>
 8    1  0.1117714E+005  0.1043930E+01  0.7957747E-01            NaN
         13   -1    0    0    0    0  0.00000000000E+00  0.00000000000E+00  0.74505805969E-08  0.10566000000E+00  0.10566000000E+00 0.  1.
     999900   -1    0    0    0    0 -0.00000000000E+00 -0.00000000000E+00 -0.74505805969E-08  0.93827000000E+00  0.93827000000E+00 0.  1.
     999902    2    1    2    0    0 -0.10472085172E-01 -0.79905066652E-02 -0.18326571080E-01  0.10213606409E+01  0.10211112489E+01 0.  0.
     999903    2    3    3    0    0  0.89912531127E-01  0.22058500906E-01 -0.92092336597E-01  0.13207924433E+00  0.19826437068E-01 0.  0.
         14    1    1    2    0    0  0.10472085172E-01  0.79905066652E-02  0.18326571080E-01  0.22569359144E-01  0.00000000000E+00 0.  1.
     999901    1    3    3    0    0 -0.10038461630E+00 -0.30049007571E-01  0.73765765517E-01  0.88928139653E+00  0.88000000000E+00 0. -1.
        -11    1    4    4    0    0  0.11193099861E-01  0.32619450907E-02 -0.22470151321E-01  0.25319845807E-01  0.51100000000E-03 0. -1.
         11    1    4    4    0    0  0.78719431266E-01  0.18796555816E-01 -0.69622185276E-01  0.10675939852E+00  0.51100000000E-03 0.  1.
</event>
<event>
 8    1  0.1117714E+005  0.1043930E+01  0.7957747E-01            NaN
         13   -1    0    0    0    0  0.00000000000E+00  0.00000000000E+00  0.74505805969E-08  0.10566000000E+00  0.10566000000E+00 0.  1.
     999900   -1    0    0    0    0 -0.00000000000E+00 -0.00000000000E+00 -0.74505805969E-08  0.93827000000E+00  0.93827000000E+00 0. -1.
     999902    2    1    2    0    0 -0.17724923312E-01 -0.15963419180E-01  0.39513825742E-03  0.10200729299E+01  0.10197939118E+01 0.  0.
     999903    2    3    3    0    0  0.18025194726E-03  0.62821295147E-01  0.11148488528E+00  0.12941667839E+00  0.19319663137E-01 0.  0.
         14    1    1    2    0    0  0.17724923312E-01  0.15963419180E-01 -0.39513825742E-03  0.23857070075E-01  0.00000000000E+00 0. -1.
     999901    1    3    3    0    0 -0.17905175259E-01 -0.78784714327E-01 -0.11108974702E+00  0.89065625154E+00  0.88000000000E+00 0. -1.
        -11    1    4    4    0    0 -0.48512708883E-02  0.28684032880E-01  0.35054136768E-01  0.45556143351E-01  0.51100000000E-03 0. -1.
         11    1    4    4    0    0  0.50315228356E-02  0.34137262267E-01  0.76430748512E-01  0.83860535034E-01  0.51100000000E-03 0.  1.
</event>
<event>
 8    1  0.1117714E+005  0.1043930E+01  0.7957747E-01            NaN
         13   -1    0    0    0    0  0.00000000000E+00  0.00000000000E+00  0.74505805969E-08  0.10566000000E+00  0.10566000000E+00 0. -1.
     999900   -1    0    0    0    0 -0.00000000000E+00 -0.00000000000E+00 -0.74505805969E-08  0.93827000000E+00  0.93827000000E+00 0.  1.
     999902    2    1    2    0    0 -0.15699391244E-01 -0.17092194709E-01 -0.26042746548E-02  0.10205762797E+01  0.10203090446E+01 0.  0.
     999903    2    3    3    0    0 -0.98259441606E-01 -0.67559949090E-01 -0.56455079106E-01  0.13363599688E+00  0.21263563192E-01 0.  0.
         14    1    1    2    0    0  0.15699391244E-01  0.17092194709E-01  0.26042746548E-02  0.23353720300E-01  0.00000000000E+00 0. -1.
     999901    1    3    3    0    0  0.82560050362E-01  0.50467754382E-01  0.53850804451E-01  0.88694028282E+00  0.88000000000E+00 0.  1.
        -11    1    4    4    0    0 -0.61485020727E-01 -0.30074123876E-01 -0.28502591836E-01  0.74145259883E-01  0.51100000000E-03 0.  1.
         11    1    4    4    0    0 -0.36774420879E-01 -0.37485825214E-01 -0.27952487270E-01  0.59490736997E-01  0.51100000000E-03 0. -1.
</event>
<event>
 8    1  0.1117714E+005  0.1043930E+01  0.7957747E-01            NaN
         13   -1    0    0    0    0  0.00000000000E+00  0.00000000000E+00  0.74505805969E-08  0.10566000000E+00  0.10566000000E+00 0. -1.
     999900   -1    0    0    0    0 -0.00000000000E+00 -0.00000000000E+00 -0.74505805969E-08  0.93827000000E+00  0.93827000000E+00 0.  1.
     999902    2    1    2    0    0 -0.87782095590E-02 -0.63967895668E-03 -0.21922305268E-01  0.10203068414E+01  0.10200333313E+01 0.  0.
     999903    2    3    3    0    0 -0.11978610681E+00 -0.16641640692E-01  0.44433466127E-01  0.13071035739E+00  0.22027460746E-01 0.  0.
         14    1    1    2    0    0  0.87782095590E-02  0.63967895668E-03  0.21922305268E-01  0.23623158563E-01  0.00000000000E+00 0. -1.
     999901    1    3    3    0    0  0.11100789725E+00  0.16001961736E-01 -0.66355771395E-01  0.88959648405E+00  0.88000000000E+00 0. -1.
        -11    1    4    4    0    0 -0.30847331684E-01 -0.12120465278E-01  0.58633749294E-02  0.33661607762E-01  0.51100000000E-03 0.  1.
         11    1    4    4    0    0 -0.88938775128E-01 -0.45211754147E-02  0.38570091197E-01  0.97048749628E-01  0.51100000000E-03 0. -1.
</event>
<event>
 8    1  0.1117714E+005  0.1043930E+01  0.7957747E-01            NaN
         13   -1    0    0    0    0  0.00000000000E+00  0.00000000000E+00  0.74505805969E-08  0.10566000000E+00  0.10566000000E+00 0.  1.
     999900   -1    0    0    0    0 -0.00000000000E+00 -0.00000000000E+00 -0.74505805969E-08  0.93827000000E+00  0.93827000000E+00 0. -1.
     999902    2    1    2    0    0  0.14883393607E-01 -0.10931394388E-01  0.58396245509E-02  0.10245621916E+01  0.10243791156E+01 0.  0.
     999903    2    3    3    0    0 -0.34912401239E-01  0.11640963733E+00 -0.48286698441E-01  0.13235984995E+00  0.20431475963E-01 0.  0.
         14    1    1    2    0    0 -0.14883393607E-01  0.10931394388E-01 -0.58396245509E-02  0.19367808431E-01  0.00000000000E+00 0. -1.
     999901    1    3    3    0    0  0.49795794846E-01 -0.12734103172E+00  0.54126322991E-01  0.89220234162E+00  0.88000000000E+00 0.  1.
        -11    1    4    4    0    0 -0.28775809465E-01  0.63909986275E-01 -0.23043352751E-01  0.73782049193E-01  0.51100000000E-03 0. -1.
         11    1    4    4    0    0 -0.61365917747E-02  0.52499651054E-01 -0.25243345690E-01  0.58577800761E-01  0.51100000000E-03 0.  1.
</event>
<event>
 8    1  0.1117714E+005  0.1043930E+01  0.7957747E-01            NaN
         13   -1    0    0    0    0  0.00000000000E+00  0.00000000000E+00  0.74505805969E-08  0.10566000000E+00  0.10566000000E+00 0.  1.
     999900   -1    0    0    0    0 -0.00000000000E+00 -0.00000000000E+00 -0.74505805969E-08  0.93827000000E+00  0.93827000000E+00 0. -1.
     999902    2    1    2    0    0 -0.73477921483E-02 -0.84536349008E-02 -0.21248108733E-01  0.10199105055E+01  0.10196276296E+01 0.  0.
     999903    2    3    3    0    0 -0.70942639994E-03 -0.12899835824E+00  0.12098990542E-01  0.13104205219E+00  0.19610052404E-01 0.  0.
         14    1    1    2    0    0  0.73477921483E-02  0.84536349008E-02  0.21248108733E-01  0.24019494524E-01  0.00000000000E+00 0.  1.
     999901    1    3    3    0    0 -0.66383657484E-02  0.12054472334E+00 -0.33347099275E-01  0.88886845329E+00  0.88000000000E+00 0. -1.
        -11    1    4    4    0    0  0.10633374283E-02 -0.70221046902E-01 -0.31137393334E-02  0.70299947426E-01  0.51100000000E-03 0. -1.
         11    1    4    4    0    0 -0.17727638282E-02 -0.58777311335E-01  0.15212729876E-01  0.60742104759E-01  0.51100000000E-03 0.  1.
</event>
<event>
 8    1  0.1117714E+005  0.1043930E+01  0.7957747E-01            NaN
         13   -1    0    0    0    0  0.00000000000E+00  0.00000000000E+00  0.74505805969E-08  0.10566000000E+00  0.10566000000E+00 0.  1.
     999900   -1    0    0    0    0 -0.00000000000E+00 -0.00000000000E+00 -0.74505805969E-08  0.93827000000E+00  0.93827000000E+00 0.  1.
     999902    2    1    2    0    0 -0.23250136854E-01  0.11340620276E-02 -0.46195912805E-02  0.10201982579E+01  0.10199221979E+01 0.  0.
     999903    2    3    3    0    0 -0.11691727662E+00 -0.36255202410E-01  0.47767900092E-01  0.13289000287E+00  0.19846695129E-01 0.  0.
         14    1    1    2    0    0  0.23250136854E-01 -0.11340620276E-02  0.46195912805E-02  0.23731742119E-01  0.00000000000E+00 0.  1.
     999901    1    3    3    0    0  0.93667139769E-01  0.37389264438E-01 -0.52387491372E-01  0.88730825502E+00  0.88000000000E+00 0. -1.
        -11    1    4    4    0    0 -0.93102841199E-01 -0.20204757453E-01  0.37533752161E-01  0.10239831510E+00  0.51100000000E-03 0. -1.
         11    1    4    4    0    0 -0.23814435424E-01 -0.16050444957E-01  0.10234147930E-01  0.30491687765E-01  0.51100000000E-03 0.  1.
</event>
<event>
 8    1  0.1117714E+005  0.1043930E+01  0.7957747E-01            NaN
         13   -1    0    0    0    0  0.00000000000E+00  0.00000000000E+00  0.74505805969E-08  0.10566000000E+00  0.10566000000E+00 0. -1.
     999900   -1    0    0    0    0 -0.00000000000E+00 -0.00000000000E+00 -0.74505805969E-08  0.93827000000E+00  0.93827000000E+00 0. -1.
     999902    2    1    2    0    0 -0.15837506137E-01 -0.18206350989E-01 -0.36989700850E-02  0.10195172944E+01  0.10192249670E+01 0.  0.
     999903    2    3    3    0    0 -0.17592902288E-01 -0.11352011010E+00 -0.62724497093E-01  0.13240297989E+00  0.19996523215E-01 0.  0.
         14    1    1    2    0    0  0.15837506137E-01  0.18206350989E-01  0.36989700850E-02  0.24412705640E-01  0.00000000000E+00 0. -1.
     999901    1    3    3    0    0  0.17553961517E-02  0.95313759113E-01  0.59025527008E-01  0.88711431447E+00  0.88000000000E+00 0.  1.
        -11    1    4    4    0    0 -0.12349157479E-01 -0.32453590880E-01 -0.25261135587E-01  0.42943257254E-01  0.51100000000E-03 0.  1.
         11    1    4    4    0    0 -0.52437448088E-02 -0.81066519223E-01 -0.37463361505E-01  0.89459722640E-01  0.51100000000E-03 0. -1.
</event>
<event>
 8    1  0.1117714E+005  0.1043930E+01  0.7957747E-01            NaN
         13   -1    0    0    0    0  0.00000000000E+00  0.00000000000E+00  0.74505805969E-08  0.10566000000E+00  0.10566000000E+00 0. -1.
     999900   -1    0    0    0    0 -0.00000000000E+00 -0.00000000000E+00 -0.74505805969E-08  0.93827000000E+00  0.93827000000E+00 0.  1.
     999902    2    1    2    0    0 -0.17238518907E-01  0.37696124876E-03  0.16022550783E-01  0.10203921418E+01  0.10201206264E+01 0.  0.
     999903    2    3    3    0    0 -0.27018828188E-01  0.12221945842E+00  0.27221738962E-01  0.13187277210E+00  0.31333557960E-01 0.  0.
         14    1    1    2    0    0  0.17238518907E-01 -0.37696124876E-03 -0.16022550783E-01  0.23537858175E-01  0.00000000000E+00 0.  1.
     999901    1    3    3    0    0  0.97803092809E-02 -0.12184249717E+00 -0.11199188179E-01  0.88851936973E+00  0.88000000000E+00 0.  1.
        -11    1    4    4    0    0 -0.31666819486E-01  0.90479980806E-01  0.12855324466E-01  0.96720912274E-01  0.51100000000E-03 0.  1.
         11    1    4    4    0    0  0.46479912980E-02  0.31739477616E-01  0.14366414496E-01  0.35151859822E-01  0.51100000000E-03 0. -1.
</event>
<event>
 8    1  0.1117714E+005  0.1043930E+01  0.7957747E-01            NaN
         13   -1    0    0    0    0  0.00000000000E+00  0.00000000000E+00  0.74505805969E-08  0.10566000000E+00  0.10566000000E+00 0. -1.
     999900   -1    0    0    0    0 -0.00000000000E+00 -0.00000000000E+00 -0.74505805969E-08  0.93827000000E+00  0.93827000000E+00 0.  1.
     999902    2    1    2    0    0  0.10320454688E-02  0.36529450095E-02  0.30836057228E-01  0.10128611804E+01  0.10123845609E+01 0.  0.
     999903    2    3    3    0    0  0.29753996811E-01 -0.11355381122E+00  0.37202009193E-01  0.12460282862E+00  0.19029110369E-01 0.  0.
         14    1    1    2    0    0 -0.10320454688E-02 -0.36529450095E-02 -0.30836057228E-01  0.31068819585E-01  0.00000000000E+00 0.  1.
     999901    1    3    3    0    0 -0.28721951342E-01  0.11720675623E+00 -0.63659519658E-02  0.88825835180E+00  0.88000000000E+00 0. -1.
        -11    1    4    4    0    0  0.14072613392E-01 -0.28823848692E-01  0.16066876985E-01  0.35878382881E-01  0.51100000000E-03 0.  1.
         11    1    4    4    0    0  0.15681383419E-01 -0.84729962532E-01  0.21135132209E-01  0.88724445735E-01  0.51100000000E-03 0. -1.
</event>
<event>
 8    1  0.1117714E+005  0.1043930E+01  0.7957747E-01            NaN
         13   -1    0    0    0    0  0.00000000000E+00  0.00000000000E+00  0.74505805969E-08  0.10566000000E+00  0.10566000000E+00 0.  1.
     999900   -1    0    0    0    0 -0.00000000000E+00 -0.00000000000E+00 -0.74505805969E-08  0.93827000000E+00  0.93827000000E+00 0. -1.
     999902    2    1    2    0    0 -0.25884488801E-02 -0.21324364057E-01 -0.93660214138E-02  0.10204960305E+01  0.10202269342E+01 0.  0.
     999903    2    3    3    0    0  0.12769902935E-01 -0.36540084184E-01  0.12287074720E+00  0.13035336772E+00  0.19913105818E-01 0.  0.
         14    1    1    2    0    0  0.25884488801E-02  0.21324364057E-01  0.93660214138E-02  0.23433969514E-01  0.00000000000E+00 0.  1.
     999901    1    3    3    0    0 -0.15358351815E-01  0.15215720127E-01 -0.13223676862E+00  0.89014266277E+00  0.88000000000E+00 0. -1.
        -11    1    4    4    0    0 -0.18625909510E-02 -0.23907341305E-01  0.74258482709E-01  0.78035976245E-01  0.51100000000E-03 0. -1.
         11    1    4    4    0    0  0.14632493886E-01 -0.12632742879E-01  0.48612264495E-01  0.52317391471E-01  0.51100000000E-03 0.  1.
</event>
<event>
 8    1  0.1117714E+005  0.1043930E+01  0.7957747E-01            NaN
         13   -1    0    0    0    0  0.00000000000E+00  0.00000000000E+00  0.74505805969E-08  0.10566000000E+00  0.10566000000E+00 0. -1.
     999900   -1    0    0    0    0 -0.00000000000E+00 -0.00000000000E+00 -0.74505805969E-08  0.93827000000E+00  0.93827000000E+00 0.  1.
     999902    2    1    2    0    0 -0.71310418584E-04  0.24407786348E-01 -0.13025899325E-01  0.10162637901E+01  0.10158871354E+01 0.  0.
     999903    2    3    3    0    0 -0.68338149227E-01 -0.84829057266E-01 -0.59377248875E-01  0.12567887165E+00  0.20086052342E-01 0.  0.
         14    1    1    2    0    0  0.71310418584E-04 -0.24407786348E-01  0.13025899325E-01  0.27666209947E-01  0.00000000000E+00 0. -1.
     999901    1    3    3    0    0  0.68266838809E-01  0.10923684361E+00  0.46351349550E-01  0.89058491840E+00  0.88000000000E+00 0.  1.
        -11    1    4    4    0    0  0.89430005857E-03  0.24880734621E-03 -0.80850739920E-03  0.13328476675E-02  0.51100000000E-03 0.  1.
         11    1    4    4    0    0 -0.69232449286E-01 -0.85077864612E-01 -0.58568741476E-01  0.12434602398E+00  0.51100000000E-03 0. -1.
</event>
<event>
 8    1  0.1117714E+005  0.1043930E+01  0.7957747E-01            NaN
         13   -1    0    0    0    0  0.00000000000E+00  0.00000000000E+00  0.74505805969E-08  0.10566000000E+00  0.10566000000E+00 0. -1.
     999900   -1    0    0    0    0 -0.00000000000E+00 -0.00000000000E+00 -0.74505805969E-08  0.93827000000E+00  0.93827000000E+00 0. -1.
     999902    2    1    2    0    0 -0.14920012045E-01 -0.18075398888E-01  0.64902687248E-02  0.10196102469E+01  0.10193201681E+01 0.  0.
     999903    2    3    3    0    0  0.11800621831E+00  0.18513622890E-01 -0.39732350055E-01  0.12767713855E+00  0.21320653722E-01 0.  0.
         14    1    1    2    0    0  0.14920012045E-01  0.18075398888E-01 -0.64902687248E-02  0.24319753134E-01  0.00000000000E+00 0. -1.
     999901    1    3    3    0    0 -0.13292623035E+00 -0.36589021778E-01  0.46222618779E-01  0.89193310832E+00  0.88000000000E+00 0.  1.
        -11    1    4    4    0    0  0.44393822242E-01  0.29733147265E-02 -0.24910100283E-01  0.50994374894E-01  0.51100000000E-03 0.  1.
         11    1    4    4    0    0  0.73612396064E-01  0.15540308164E-01 -0.14822249772E-01  0.76682763652E-01  0.51100000000E-03 0. -1.
</event>
<event>
 8    1  0.1117714E+005  0.1043930E+01  0.7957747E-01            NaN
         13   -1    0    0    0    0  0.00000000000E+00  0.00000000000E+00  0.74505805969E-08  0.10566000000E+00  0.10566000000E+00 0. -1.
     999900   -1    0    0    0    0 -0.00000000000E+00 -0.00000000000E+00 -0.74505805969E-08  0.93827000000E+00  0.93827000000E+00 0.  1.
     999902    2    1    2    0    0  0.24181036170E-01 -0.12979620028E-01 -0.38082606293E-02  0.10162226743E+01  0.10158448838E+01 0.  0.
     999903    2    3    3    0    0 -0.84387070645E-01  0.49300496156E-01 -0.74574612158E-01  0.12455360837E+00  0.20012795082E-01 0.  0.
         14    1    1    2    0    0 -0.24181036170E-01  0.12979620028E-01  0.38082606293E-02  0.27707325662E-01  0.00000000000E+00 0.  1.
     999901    1    3    3    0    0  0.10856810682E+00 -0.62280116184E-01  0.70766351529E-01  0.89166906596E+00  0.88000000000E+00 0. -1.
        -11    1    4    4    0    0 -0.66438009575E-01  0.31597660548E-01 -0.47589528396E-01  0.87621034018E-01  0.51100000000E-03 0.  1.
         11    1    4    4    0    0 -0.17949061070E-01  0.17702835608E-01 -0.26985083763E-01  0.36932574356E-01  0.51100000000E-03 0. -1.
</event>
<event>
 7    1  0.1117714E+005  0.1043930E+01  0.7957747E-01            NaN
         13   -1    0    0    0    0  0.00000000000E+00  0.00000000000E+00  0.74505805969E-08  0.10566000000E+00  0.10566000000E+00 0. -1.
     999900   -1    0    0    0    0 -0.00000000000E+00 -0.00000000000E+00 -0.74505805969E-08  0.93827000000E+00  0.93827000000E+00 0.  1.
     999903    2    1    2    0    0 -0.10213408219E-01 -0.10097920828E+00  0.46106990758E-01  0.11341566216E+00  0.20884051652E-01 0.  0.
         14    1    1    2    0    0  0.17918986193E-01 -0.36769784208E-02 -0.40303550979E-01  0.44260438972E-01  0.00000000000E+00 0. -1.
     999901    1    1    2    0    0 -0.77055779745E-02  0.10465618670E+00 -0.58034397796E-02  0.88625389887E+00  0.88000000000E+00 0.  1.
        -11    1    3    3    0    0 -0.22283155613E-03 -0.29870372354E-01  0.23876068192E-01  0.38244170167E-01  0.51100000000E-03 0.  1.
         11    1    3    3    0    0 -0.99905766629E-02 -0.71108835928E-01  0.22230922566E-01  0.75171491992E-01  0.51100000000E-03 0. -1.
</event>
<event>
 8    1  0.1117714E+005  0.1043930E+01  0.7957747E-01            NaN
         13   -1    0    0    0    0  0.00000000000E+00  0.00000000000E+00  0.74505805969E-08  0.10566000000E+00  0.10566000000E+00 0. -1.
     999900   -1    0    0    0    0 -0.00000000000E+00 -0.00000000000E+00 -0.74505805969E-08  0.93827000000E+00  0.93827000000E+00 0. -1.
     999902    2    1    2    0    0  0.70527670918E-02 -0.35298940546E-02  0.22407442329E-01  0.10201751027E+01  0.10198984974E+01 0.  0.
     999903    2    3    3    0    0 -0.60698123913E-01  0.10947825604E+00  0.29988162583E-01  0.13033326698E+00  0.20438194465E-01 0.  0.
         14    1    1    2    0    0 -0.70527670918E-02  0.35298940546E-02 -0.22407442329E-01  0.23754897335E-01  0.00000000000E+00 0.  1.
     999901    1    3    3    0    0  0.67750891005E-01 -0.11300815010E+00 -0.75807202540E-02  0.88984183569E+00  0.88000000000E+00 0.  1.
        -11    1    4    4    0    0 -0.35767257479E-01  0.67872067535E-01  0.82012212933E-02  0.77158508350E-01  0.51100000000E-03 0. -1.
         11    1    4    4    0    0 -0.24930866434E-01  0.41606188508E-01  0.21786941290E-01  0.53174758627E-01  0.51100000000E-03 0.  1.
</event>
<event>
 8    1  0.1117714E+005  0.1043930E+01  0.7957747E-01            NaN
         13   -1    0    0    0    0  0.00000000000E+00  0.00000000000E+00  0.74505805969E-08  0.10566000000E+00  0.10566000000E+00 0.  1.
     999900   -1    0    0    0    0 -0.00000000000E+00 -0.00000000000E+00 -0.74505805969E-08  0.93827000000E+00  0.93827000000E+00 0.  1.
     999902    2    1    2    0    0 -0.10202429495E-02  0.14176025831E-01 -0.18651804358E-01  0.10204802578E+01  0.10202107949E+01 0.  0.
     999903    2    3    3    0    0 -0.14670427785E-02 -0.96190915069E-01  0.82400250985E-01  0.12784787032E+00  0.17332980863E-01 0.  0.
         14    1    1    2    0    0  0.10202429495E-02 -0.14176025831E-01  0.18651804358E-01  0.23449742213E-01  0.00000000000E+00 0.  1.
     999901    1    3    3    0    0  0.44679982900E-03  0.11036694090E+00 -0.10105205534E+00  0.89263238747E+00  0.88000000000E+00 0.  1.
        -11    1    4    4    0    0  0.32435988745E-02 -0.33836428804E-01  0.19686903709E-01  0.39284349893E-01  0.51100000000E-03 0. -1.
         11    1    4    4    0    0 -0.47106416530E-02 -0.62354486265E-01  0.62713347276E-01  0.88563520423E-01  0.51100000000E-03 0.  1.
</event>
<event>
 8    1  0.1117714E+005  0.1043930E+01  0.7957747E-01            NaN
         13   -1    0    0    0    0  0.00000000000E+00  0.00000000000E+00  0.74505805969E-08  0.10566000000E+00  0.10566000000E+00 0. -1.
     999900   -1    0    0    0    0 -0.00000000000E+00 -0.00000000000E+00 -0.74505805969E-08  0.93827000000E+00  0.93827000000E+00 0. -1.
     999902    2    1    2    0    0 -0.12712430328E-01 -0.14319838264E-01 -0.20434080029E-01  0.10159261560E+01  0.10155401219E+01 0.  0.
     999903    2    3    3    0    0  0.46064425335E-01  0.35474668170E-01 -0.11193555773E+00  0.12783453231E+00  0.20777757400E-01 0.  0.
         14    1    1    2    0    0  0.12712430328E-01  0.14319838264E-01  0.20434080029E-01  0.28003844011E-01  0.00000000000E+00 0. -1.
     999901    1    3    3    0    0 -0.58776855664E-01 -0.49794506433E-01  0.91501477702E-01  0.88809162368E+00  0.88000000000E+00 0. -1.
        -11    1    4    4    0    0  0.34486871785E-01  0.23127733920E-01 -0.58217439689E-01  0.71510613245E-01  0.51100000000E-03 0.  1.
         11    1    4    4    0    0  0.11577553550E-01  0.12346934250E-01 -0.53718118041E-01  0.56323919062E-01  0.51100000000E-03 0. -1.
</event>
<event>
 8    1  0.1117714E+005  0.1043930E+01  0.7957747E-01            NaN
         13   -1    0    0    0    0  0.00000000000E+00  0.00000000000E+00  0.74505805969E-08  0.10566000000E+00  0.10566000000E+00 0.  1.
     999900   -1    0    0    0    0 -0.00000000000E+00 -0.00000000000E+00 -0.74505805969E-08  0.93827000000E+00  0.93827000000E+00 0. -1.
     999902    2    1    2    0    0 -0.17106222040E-01 -0.97689990048E-02 -0.10510408200E-01  0.10216023298E+01  0.10213583091E+01 0.  0.
     999903    2    3    3    0    0 -0.24033051345E-01  0.12603674279E+00  0.15653648176E-01  0.13077364917E+00  0.19845970024E-01 0.  0.
         14    1    1    2    0    0  0.17106222040E-01  0.97689990048E-02  0.10510408200E-01  0.22327670156E-01  0.00000000000E+00 0. -1.
     999901    1    3    3    0    0  0.69268293049E-02 -0.13580574179E+00 -0.26164056377E-01  0.89082868068E+00  0.88000000000E+00 0.  1.
        -11    1    4    4    0    0 -0.24761508850E-01  0.83907385000E-01  0.14026187139E-01  0.88603479755E-01  0.51100000000E-03 0. -1.
         11    1    4    4    0    0  0.72845750508E-03  0.42129357788E-01  0.16274610374E-02  0.42170169414E-01  0.51100000000E-03 0.  1.
</event>
<event>
 8    1  0.1117714E+005  0.1043930E+01  0.7957747E-01            NaN
         13   -1    0    0    0    0  0.00000000000E+00  0.00000000000E+00  0.74505805969E-08  0.10566000000E+00  0.10566000000E+00 0.  1.
     999900   -1    0    0    0    0 -0.00000000000E+00 -0.00000000000E+00 -0.74505805969E-08  0.93827000000E+00  0.93827000000E+00 0.  1.
     999902    2    1    2    0    0 -0.49113057884E-02 -0.16001703789E-01 -0.17002552697E-01  0.10200707828E+01  0.10197917138E+01 0.  0.
     999903    2    3    3    0    0  0.28924028539E-01  0.90826365883E-01  0.81232590239E-01  0.12754223441E+00  0.24130057521E-01 0.  0.
         14    1    1    2    0    0  0.49113057884E-02  0.16001703789E-01  0.17002552697E-01  0.23859217232E-01  0.00000000000E+00 0. -1.
     999901    1    3    3    0    0 -0.33835334328E-01 -0.10682806967E+00 -0.98235142936E-01  0.89252854835E+00  0.88000000000E+00 0.  1.
        -11    1    4    4    0    0  0.13588363091E-01  0.41261737500E-01  0.52803952068E-01  0.68379039683E-01  0.51100000000E-03 0.  1.
         11    1    4    4    0    0  0.15335665448E-01  0.49564628384E-01  0.28428638171E-01  0.59163194731E-01  0.51100000000E-03 0. -1.
</event>
<event>
 8    1  0.1117714E+005  0.1043930E+01  0.7957747E-01            NaN
         13   -1    0    0    0    0  0.00000000000E+00  0.00000000000E+00  0.74505805969E-08  0.10566000000E+00  0.10566000000E+00 0. -1.
     999900   -1    0    0    0    0 -0.00000000000E+00 -0.00000000000E+00 -0.74505805969E-08  0.93827000000E+00  0.93827000000E+00 0.  1.
     999902    2    1    2    0    0  0.22868052562E-01 -0.67712863490E-02  0.25423375940E-02  0.10199453877E+01  0.10196633426E+01 0.  0.
     999903    2    3    3    0    0 -0.80504758191E-01  0.22964516044E-01  0.95467617588E-01  0.12853904735E+00  0.19995889522E-01 0.  0.
         14    1    1    2    0    0 -0.22868052562E-01  0.67712863490E-02 -0.25423375940E-02  0.23984612302E-01  0.00000000000E+00 0.  1.
     999901    1    3    3    0    0  0.10337281075E+00 -0.29735802393E-01 -0.92925279994E-01  0.89140634035E+00  0.88000000000E+00 0.  1.
        -11    1    4    4    0    0 -0.30530591351E-02  0.45006834602E-02  0.21552437628E-02  0.58722668850E-02  0.51100000000E-03 0. -1.
         11    1    4    4    0    0 -0.77451699056E-01  0.18463832584E-01  0.93312373825E-01  0.12266678047E+00  0.51100000000E-03 0.  1.
</event>
<event>
 8    1  0.1117714E+005  0.1043930E+01  0.7957747E-01            NaN
         13   -1    0    0    0    0  0.00000000000E+00  0.00000000000E+00  0.74505805969E-08  0.10566000000E+00  0.10566000000E+00 0. -1.
     999900   -1    0    0    0    0 -0.00000000000E+00 -0.00000000000E+00 -0.74505805969E-08  0.93827000000E+00  0.93827000000E+00 0.  1.
     999902    2    1    2    0    0 -0.36261693850E-03 -0.12444305786E-01  0.19733657871E-01  0.10205974157E+01  0.10203306696E+01 0.  0.
     999903    2    3    3    0    0  0.65740087674E-02 -0.70366518552E-01 -0.10671562482E+00  0.12964706881E+00  0.20627005303E-01 0.  0.
         14    1    1    2    0    0  0.36261693850E-03  0.12444305786E-01 -0.19733657871E-01  0.23332584309E-01  0.00000000000E+00 0.  1.
     999901    1    3    3    0    0 -0.69366257059E-02  0.57922212766E-01  0.12644928269E+00  0.89095034688E+00  0.88000000000E+00 0. -1.
        -11    1    4    4    0    0 -0.74778182018E-02 -0.27276540890E-01 -0.41929274246E-01  0.50579171680E-01  0.51100000000E-03 0.  1.
         11    1    4    4    0    0  0.14051826969E-01 -0.43089977662E-01 -0.64786350570E-01  0.79067897135E-01  0.51100000000E-03 0. -1.
</event>
<event>
 8    1  0.1117714E+005  0.1043930E+01  0.7957747E-01            NaN
         13   -1    0    0    0    0  0.00000000000E+00  0.00000000000E+00  0.74505805969E-08  0.10566000000E+00  0.10566000000E+00 0.  1.
     999900   -1    0    0    0    0 -0.00000000000E+00 -0.00000000000E+00 -0.74505805969E-08  0.93827000000E+00  0.93827000000E+00 0. -1.
     999902    2    1    2    0    0  0.20957279590E-03 -0.23440344822E-01  0.36154557555E-02  0.10202115429E+01  0.10199357956E+01 0.  0.
     999903    2    3    3    0    0 -0.78571204502E-01  0.63213789049E-02 -0.10140518001E+00  0.12997477384E+00  0.19925794693E-01 0.  0.
         14    1    1    2    0    0 -0.20957279590E-03  0.23440344822E-01 -0.36154557555E-02  0.23718457084E-01  0.00000000000E+00 0. -1.
     999901    1    3    3    0    0  0.78780777298E-01 -0.29761723727E-01  0.10502063577E+00  0.89023676907E+00  0.88000000000E+00 0.  1.
        -11    1    4    4    0    0 -0.16318044970E-01 -0.33849244834E-02 -0.33004974537E-01  0.36977368356E-01  0.51100000000E-03 0. -1.
         11    1    4    4    0    0 -0.62253159533E-01  0.97063033883E-02 -0.68400205476E-01  0.92997405488E-01  0.51100000000E-03 0.  1.
</event>
<event>
 8    1  0.1117714E+005  0.1043930E+01  0.7957747E-01            NaN
         13   -1    0    0    0    0  0.00000000000E+00  0.00000000000E+00  0.74505805969E-08  0.10566000000E+00  0.10566000000E+00 0.  1.
     999900   -1    0    0    0    0 -0.00000000000E+00 -0.00000000000E+00 -0.74505805969E-08  0.93827000000E+00  0.93827000000E+00 0.  1.
     999902    2    1    2    0    0  0.22018412503E-01 -0.67748726471E-02  0.72241861888E-03  0.10208815450E+01  0.10206213292E+01 0.  0.
     999903    2    3    3    0    0  0.10005120252E+00 -0.77323030158E-01  0.36569936471E-01  0.13389157699E+00  0.24505101852E-01 0.  0.
         14    1    1    2    0    0 -0.22018412503E-01  0.67748726471E-02 -0.72241861888E-03  0.23048454985E-01  0.00000000000E+00 0. -1.
     999901    1    3    3    0    0 -0.78032790015E-01  0.70548157511E-01 -0.35847517852E-01  0.88698996803E+00  0.88000000000E+00 0. -1.
        -11    1    4    4    0    0  0.70414636521E-01 -0.59441629400E-01  0.15724546558E-01  0.93482890560E-01  0.51100000000E-03 0.  1.
         11    1    4    4    0    0  0.29636565997E-01 -0.17881400758E-01  0.20845389913E-01  0.40408686427E-01  0.51100000000E-03 0. -1.
</event>
<event>
 8    1  0.1117714E+005  0.1043930E+01  0.7957747E-01            NaN
         13   -1    0    0    0    0  0.00000000000E+00  0.00000000000E+00  0.74505805969E-08  0.10566000000E+00  0.10566000000E+00 0. -1.
     999900   -1    0    0    0    0 -0.00000000000E+00 -0.00000000000E+00 -0.74505805969E-08  0.93827000000E+00  0.93827000000E+00 0. -1.
     999902    2    1    2    0    0 -0.20573333653E-01  0.10106978482E-01 -0.55666558813E-02  0.10203418519E+01  0.10200691614E+01 0.  0.
     999903    2    3    3    0    0  0.57983362900E-01 -0.39763281303E-01 -0.10735456325E+00  0.12960116269E+00  0.18118228605E-01 0.  0.
         14    1    1    2    0    0  0.20573333653E-01 -0.10106978482E-01  0.55666558813E-02  0.23588148069E-01  0.00000000000E+00 0. -1.
     999901    1    3    3    0    0 -0.78556696553E-01  0.49870259785E-01  0.10178790736E+00  0.89074068924E+00  0.88000000000E+00 0.  1.
        -11    1    4    4    0    0  0.11118130770E-01 -0.10700259660E-01 -0.12435217437E-01  0.19824332077E-01  0.51100000000E-03 0.  1.
         11    1    4    4    0    0  0.46865232130E-01 -0.29063021643E-01 -0.94919345809E-01  0.10977683061E+00  0.51100000000E-03 0. -1.
</event>
<event>
 8    1  0.1117714E+005  0.1043930E+01  0.7957747E-01            NaN
         13   -1    0    0    0    0  0.00000000000E+00  0.00000000000E+00  0.74505805969E-08  0.10566000000E+00  0.10566000000E+00 0.  1.
     999900   -1    0    0    0    0 -0.00000000000E+00 -0.00000000000E+00 -0.74505805969E-08  0.93827000000E+00  0.93827000000E+00 0. -1.
     999902    2    1    2    0    0 -0.15048917360E-01 -0.16165822894E-01  0.86651249687E-02  0.10202047364E+01  0.10199288289E+01 0.  0.
     999903    2    3    3    0    0  0.12052275114E+00  0.17573948943E-01  0.36495124534E-01  0.12874943274E+00  0.20247100839E-01 0.  0.
         14    1    1    2    0    0  0.15048917360E-01  0.16165822894E-01 -0.86651249687E-02  0.23725263629E-01  0.00000000000E+00 0. -1.
     999901    1    3    3    0    0 -0.13557166850E+00 -0.33739771837E-01 -0.27829999565E-01  0.89145530363E+00  0.88000000000E+00 0. -1.
        -11    1    4    4    0    0  0.62103793084E-01  0.15146751581E-01  0.10594896199E-01  0.64798288136E-01  0.51100000000E-03 0. -1.
         11    1    4    4    0    0  0.58418958052E-01  0.24271973618E-02  0.25900228335E-01  0.63951144600E-01  0.51100000000E-03 0.  1.
</event>
<event>
 8    1  0.1117714E+005  0.1043930E+01  0.7957747E-01            NaN
         13   -1    0    0    0    0  0.00000000000E+00  0.00000000000E+00  0.74505805969E-08  0.10566000000E+00  0.10566000000E+00 0. -1.
     999900   -1    0    0    0    0 -0.00000000000E+00 -0.00000000000E+00 -0.74505805969E-08  0.93827000000E+00  0.93827000000E+00 0. -1.
     999902    2    1    2    0    0 -0.14882572082E-01  0.16327619495E-01 -0.63494273559E-02  0.10209431051E+01  0.10206842932E+01 0.  0.
     999903    2    3    3    0    0 -0.52011331916E-01  0.72443291123E-01 -0.97541648009E-01  0.13367565131E+00  0.20039899742E-01 0.  0.
         14    1    1    2    0    0  0.14882572082E-01 -0.16327619495E-01  0.63494273559E-02  0.22986894917E-01  0.00000000000E+00 0. -1.
     999901    1    3    3    0    0  0.37128759834E-01 -0.56115671627E-01  0.91192220653E-01  0.88726745377E+00  0.88000000000E+00 0.  1.
        -11    1    4    4    0    0 -0.26708643893E-01  0.41971056133E-01 -0.40097303923E-01  0.63898169883E-01  0.51100000000E-03 0. -1.
         11    1    4    4    0    0 -0.25302688023E-01  0.30472234990E-01 -0.57444344086E-01  0.69777481432E-01  0.51100000000E-03 0.  1.
</event>
<event>
 7    1  0.1267634E+005  0.1043930E+01  0.7957747E-01            NaN
         13   -1    0    0    0    0  0.00000000000E+00  0.00000000000E+00  0.74505805969E-08  0.10566000000E+00  0.10566000000E+00 0. -1.
     999900   -1    0    0    0    0 -0.00000000000E+00 -0.00000000000E+00 -0.74505805969E-08  0.93827000000E+00  0.93827000000E+00 0.  1.
     999903    2    1    2    0    0 -0.94495356752E-01  0.16205662372E-02  0.39270984700E-01  0.10313014357E+00  0.12712890723E-01 0.  0.
         14    1    1    2    0    0  0.46518759085E-01 -0.50826727511E-02  0.31873434783E-01  0.56619293125E-01  0.00000000000E+00 0. -1.
     999901    1    1    2    0    0  0.47976597668E-01  0.34621065139E-02 -0.71144419483E-01  0.88418056331E+00  0.88000000000E+00 0.  1.
        -11    1    3    3    0    0 -0.28235521544E-01  0.23748500742E-02  0.17827790213E-01  0.33480976907E-01  0.51100000000E-03 0.  1.
         11    1    3    3    0    0 -0.66259835208E-01 -0.75428383704E-03  0.21443194487E-01  0.69649166662E-01  0.51100000000E-03 0. -1.
</event>
<event>
 8    1  0.1117714E+005  0.1043930E+01  0.7957747E-01            NaN
         13   -1    0    0    0    0  0.00000000000E+00  0.00000000000E+00  0.74505805969E-08  0.10566000000E+00  0.10566000000E+00 0. -1.
     999900   -1    0    0    0    0 -0.00000000000E+00 -0.00000000000E+00 -0.74505805969E-08  0.93827000000E+00  0.93827000000E+00 0. -1.
     999902    2    1    2    0    0  0.22288494693E-01  0.19979626016E-02  0.13311693303E-01  0.10178921424E+01  0.10175590614E+01 0.  0.
     999903    2    3    3    0    0  0.39524288349E-01 -0.84989624369E-01 -0.85014154773E-01  0.12798659388E+00  0.19176967477E-01 0.  0.
         14    1    1    2    0    0 -0.22288494693E-01 -0.19979626016E-02 -0.13311693303E-01  0.26037857609E-01  0.00000000000E+00 0. -1.
     999901    1    3    3    0    0 -0.17235793655E-01  0.86987586971E-01  0.98325848076E-01  0.88990554851E+00  0.88000000000E+00 0.  1.
        -11    1    4    4    0    0  0.26429153362E-01 -0.35134037334E-01 -0.35512102818E-01  0.56517884730E-01  0.51100000000E-03 0. -1.
         11    1    4    4    0    0  0.13095134987E-01 -0.49855587035E-01 -0.49502051954E-01  0.71468709150E-01  0.51100000000E-03 0.  1.
</event>
<event>
 8    1  0.1117714E+005  0.1043930E+01  0.7957747E-01            NaN
         13   -1    0    0    0    0  0.00000000000E+00  0.00000000000E+00  0.74505805969E-08  0.10566000000E+00  0.10566000000E+00 0. -1.
     999900   -1    0    0    0    0 -0.00000000000E+00 -0.00000000000E+00 -0.74505805969E-08  0.93827000000E+00  0.93827000000E+00 0.  1.
     999902    2    1    2    0    0  0.15955787346E-01 -0.14674922969E-01  0.10080659983E-01  0.10200226744E+01  0.10197424655E+01 0.  0.
     999903    2    3    3    0    0  0.12886082133E+00 -0.90483513888E-02  0.22988034691E-01  0.13269758999E+00  0.19829692740E-01 0.  0.
         14    1    1    2    0    0 -0.15955787346E-01  0.14674922969E-01 -0.10080659983E-01  0.23907325649E-01  0.00000000000E+00 0.  1.
     999901    1    3    3    0    0 -0.11290503399E+00 -0.56265715798E-02 -0.12907374708E-01  0.88732508436E+00  0.88000000000E+00 0.  1.
        -11    1    4    4    0    0  0.10435075060E+00 -0.14857862098E-01  0.16573331322E-01  0.10669944540E+00  0.51100000000E-03 0.  1.
         11    1    4    4    0    0  0.24510070736E-01  0.58095107090E-02  0.64147033693E-02  0.25998144597E-01  0.51100000000E-03 0. -1.
</event>
<event>
 8    1  0.1117714E+005  0.1043930E+01  0.7957747E-01            NaN
         13   -1    0    0    0    0  0.00000000000E+00  0.00000000000E+00  0.74505805969E-08  0.10566000000E+00  0.10566000000E+00 0. -1.
     999900   -1    0    0    0    0 -0.00000000000E+00 -0.00000000000E+00 -0.74505805969E-08  0.93827000000E+00  0.93827000000E+00 0.  1.
     999902    2    1    2    0    0 -0.13943877182E-01 -0.30137242654E-02  0.16207053847E-01  0.10223387323E+01  0.10221107087E+01 0.  0.
     999903    2    3    3    0    0 -0.11398507510E+00  0.17769626847E-01  0.67145946919E-01  0.13496341164E+00  0.19954631257E-01 0.  0.
         14    1    1    2    0    0  0.13943877182E-01  0.30137242654E-02 -0.16207053847E-01  0.21591267661E-01  0.00000000000E+00 0.  1.
     999901    1    3    3    0    0  0.10004119792E+00 -0.20783351112E-01 -0.50938893072E-01  0.88737532070E+00  0.88000000000E+00 0.  1.
        -11    1    4    4    0    0 -0.52156866031E-01  0.75450497992E-02  0.42181546182E-01  0.67504151057E-01  0.51100000000E-03 0.  1.
         11    1    4    4    0    0 -0.61828209071E-01  0.10224577048E-01  0.24964400737E-01  0.67459260579E-01  0.51100000000E-03 0. -1.
</event>
<event>
 8    1  0.1117714E+005  0.1043930E+01  0.7957747E-01            NaN
         13   -1    0    0    0    0  0.00000000000E+00  0.00000000000E+00  0.74505805969E-08  0.10566000000E+00  0.10566000000E+00 0.  1.
     999900   -1    0    0    0    0 -0.00000000000E+00 -0.00000000000E+00 -0.74505805969E-08  0.93827000000E+00  0.93827000000E+00 0.  1.
     999902    2    1    2    0    0 -0.71529724135E-02  0.20571433794E-01 -0.93958347662E-02  0.10202101641E+01  0.10199343844E+01 0.  0.
     999903    2    3    3    0    0 -0.86068301115E-01 -0.21676489894E-01 -0.95780905611E-01  0.13146110133E+00  0.15179479998E-01 0.  0.
         14    1    1    2    0    0  0.71529724135E-02 -0.20571433794E-01  0.93958347662E-02  0.23719835869E-01  0.00000000000E+00 0.  1.
     999901    1    3    3    0    0  0.78915328701E-01  0.42247923689E-01  0.86385070845E-01  0.88874906280E+00  0.88000000000E+00 0. -1.
        -11    1    4    4    0    0 -0.72736941086E-01 -0.17223660782E-01 -0.71726666850E-01  0.10359678059E+00  0.51100000000E-03 0. -1.
         11    1    4    4    0    0 -0.13331360028E-01 -0.44528291125E-02 -0.24054238761E-01  0.27864320747E-01  0.51100000000E-03 0.  1.
</event>
<event>
 8    1  0.1117714E+005  0.1043930E+01  0.7957747E-01            NaN
         13   -1    0    0    0    0  0.00000000000E+00  0.00000000000E+00  0.74505805969E-08  0.10566000000E+00  0.10566000000E+00 0. -1.
     999900   -1    0    0    0    0 -0.00000000000E+00 -0.00000000000E+00 -0.74505805969E-08  0.93827000000E+00  0.93827000000E+00 0.  1.
     999902    2    1    2    0    0  0.10782588530E-01 -0.20184102151E-01  0.40890308597E-02  0.10206838741E+01  0.10204191239E+01 0.  0.
     999903    2    3    3    0    0  0.35444115837E-01  0.52138467212E-01  0.11275775569E+00  0.13071329218E+00  0.19923558256E-01 0.  0.
         14    1    1    2    0    0 -0.10782588530E-01  0.20184102151E-01 -0.40890308597E-02  0.23246125880E-01  0.00000000000E+00 0.  1.
     999901    1    3    3    0    0 -0.24661527307E-01 -0.72322569363E-01 -0.10866872483E+00  0.88997058194E+00  0.88000000000E+00 0.  1.
        -11    1    4    4    0    0  0.10342976182E-01  0.28919235657E-01  0.65862324194E-01  0.72673284063E-01  0.51100000000E-03 0. -1.
         11    1    4    4    0    0  0.25101139655E-01  0.23219231555E-01  0.46895431493E-01  0.58040008114E-01  0.51100000000E-03 0.  1.
</event>
<event>
 8    1  0.1117714E+005  0.1043930E+01  0.7957747E-01            NaN
         13   -1    0    0    0    0  0.00000000000E+00  0.00000000000E+00  0.74505805969E-08  0.10566000000E+00  0.10566000000E+00 0.  1.
     999900   -1    0    0    0    0 -0.00000000000E+00 -0.00000000000E+00 -0.74505805969E-08  0.93827000000E+00  0.93827000000E+00 0.  1.
     999902    2    1    2    0    0 -0.52536508651E-02 -0.10277308765E-01  0.16950219958E-01  0.10234230773E+01  0.10232176021E+01 0.  0.
     999903    2    3    3    0    0  0.76120220916E-01  0.10104536085E+00  0.34405648966E-01  0.13251391480E+00  0.19280455246E-01 0.  0.
         14    1    1    2    0    0  0.52536508651E-02  0.10277308765E-01 -0.16950219958E-01  0.20506922721E-01  0.00000000000E+00 0. -1.
     999901    1    3    3    0    0 -0.81373871781E-01 -0.11132266961E+00 -0.17455429007E-01  0.89090916247E+00  0.88000000000E+00 0.  1.
        -11    1    4    4    0    0  0.37055923467E-01  0.33587399687E-01  0.13355306525E-01  0.51767559486E-01  0.51100000000E-03 0.  1.
         11    1    4    4    0    0  0.39064297449E-01  0.67457961162E-01  0.21050342441E-01  0.80746355319E-01  0.51100000000E-03 0. -1.
</event>
<event>
 8    1  0.1117714E+005  0.1043930E+01  0.7957747E-01            NaN
         13   -1    0    0    0    0  0.00000000000E+00  0.00000000000E+00  0.74505805969E-08  0.10566000000E+00  0.10566000000E+00 0.  1.
     999900   -1    0    0    0    0 -0.00000000000E+00 -0.00000000000E+00 -0.74505805969E-08  0.93827000000E+00  0.93827000000E+00 0.  1.
     999902    2    1    2    0    0  0.14966439229E-02 -0.34450225762E-01 -0.79283488142E-02  0.10085475649E+01  0.10079267205E+01 0.  0.
     999903    2    3    3    0    0  0.54553223779E-02  0.64616898438E-01 -0.98496054438E-01  0.11836080050E+00  0.10134211780E-01 0.  0.
         14    1    1    2    0    0 -0.14966439229E-02  0.34450225762E-01  0.79283488142E-02  0.35382435091E-01  0.00000000000E+00 0.  1.
     999901    1    3    3    0    0 -0.39586784550E-02 -0.99067124200E-01  0.90567705624E-01  0.89018676441E+00  0.88000000000E+00 0. -1.
        -11    1    4    4    0    0  0.11977817598E-02  0.23025935806E-01 -0.43947081919E-01  0.49630993654E-01  0.51100000000E-03 0. -1.
         11    1    4    4    0    0  0.42575406181E-02  0.41590962632E-01 -0.54548972519E-01  0.68729806843E-01  0.51100000000E-03 0.  1.
</event>
<event>
 8    1  0.1117714E+005  0.1043930E+01  0.7957747E-01            NaN
         13   -1    0    0    0    0  0.00000000000E+00  0.00000000000E+00  0.74505805969E-08  0.10566000000E+00  0.10566000000E+00 0. -1.
     999900   -1    0    0    0    0 -0.00000000000E+00 -0.00000000000E+00 -0.74505805969E-08  0.93827000000E+00  0.93827000000E+00 0.  1.
     999902    2    1    2    0    0  0.17082709027E-01  0.16336994474E-01 -0.31538864234E-02  0.10200833370E+01  0.10198045652E+01 0.  0.
     999903    2    3    3    0    0 -0.48738203120E-01 -0.88635888969E-01 -0.76601886607E-01  0.12837357063E+00  0.19498496013E-01 0.  0.
         14    1    1    2    0    0 -0.17082709027E-01 -0.16336994474E-01  0.31538864234E-02  0.23846662990E-01  0.00000000000E+00 0.  1.
     999901    1    3    3    0    0  0.65820912147E-01  0.10497288344E+00  0.73448000184E-01  0.89170976638E+00  0.88000000000E+00 0. -1.
        -11    1    4    4    0    0 -0.25273641415E-01 -0.61376244713E-01 -0.56488941192E-01  0.87161126447E-01  0.51100000000E-03 0. -1.
         11    1    4    4    0    0 -0.23464561704E-01 -0.27259644257E-01 -0.20112945415E-01  0.41212444179E-01  0.51100000000E-03 0.  1.
</event>
<event>
 8    1  0.1117714E+005  0.1043930E+01  0.7957747E-01            NaN
         13   -1    0    0    0    0  0.00000000000E+00  0.00000000000E+00  0.74505805969E-08  0.10566000000E+00  0.10566000000E+00 0.  1.
     999900   -1    0    0    0    0 -0.00000000000E+00 -0.00000000000E+00 -0.74505805969E-08  0.93827000000E+00  0.93827000000E+00 0. -1.
     999902    2    1    2    0    0  0.17205468069E-01  0.23887815274E-03  0.14409015198E-01  0.10214866287E+01  0.10212400442E+01 0.  0.
     999903    2    3    3    0    0  0.11002882822E+00 -0.19418451139E-01 -0.68268034152E-01  0.13253326592E+00  0.20521276912E-01 0.  0.
         14    1    1    2    0    0 -0.17205468069E-01 -0.23887815274E-03 -0.14409015198E-01  0.22443371253E-01  0.00000000000E+00 0. -1.
     999901    1    3    3    0    0 -0.92823360148E-01  0.19657329292E-01  0.82677049349E-01  0.88895336282E+00  0.88000000000E+00 0.  1.
        -11    1    4    4    0    0  0.20212744078E-01 -0.46481723296E-02 -0.40552480470E-02  0.21139221530E-01  0.51100000000E-03 0. -1.
         11    1    4    4    0    0  0.89816084140E-01 -0.14770278809E-01 -0.64212786105E-01  0.11139404439E+00  0.51100000000E-03 0.  1.
</event>
<event>
 8    1  0.1117714E+005  0.1043930E+01  0.7957747E-01            NaN
         13   -1    0    0    0    0  0.00000000000E+00  0.00000000000E+00  0.74505805969E-08  0.10566000000E+00  0.10566000000E+00 0. -1.
     999900   -1    0    0    0    0 -0.00000000000E+00 -0.00000000000E+00 -0.74505805969E-08  0.93827000000E+00  0.93827000000E+00 0. -1.
     999902    2    1    2    0    0 -0.16283396296E-01  0.15713077560E-03 -0.10193497385E-01  0.10247185171E+01  0.10245384123E+01 0.  0.
     999903    2    3    3    0    0  0.44658816113E-01  0.50720326258E-02 -0.12587469315E+00  0.13504427980E+00  0.19297247498E-01 0.  0.
         14    1    1    2    0    0  0.16283396296E-01 -0.15713077560E-03  0.10193497385E-01  0.19211482867E-01  0.00000000000E+00 0. -1.
     999901    1    3    3    0    0 -0.60942212409E-01 -0.49149018502E-02  0.11568119576E+00  0.88967423733E+00  0.88000000000E+00 0.  1.
        -11    1    4    4    0    0  0.27326042243E-01 -0.26467231679E-03 -0.98355816919E-01  0.10208286085E+00  0.51100000000E-03 0. -1.
         11    1    4    4    0    0  0.17332773870E-01  0.53367049426E-02 -0.27518876229E-01  0.32961418956E-01  0.51100000000E-03 0.  1.
</event>
<event>
 8    1  0.1117714E+005  0.1043930E+01  0.7957747E-01            NaN
         13   -1    0    0    0    0  0.00000000000E+00  0.00000000000E+00  0.74505805969E-08  0.10566000000E+00  0.10566000000E+00 0.  1.
     999900   -1    0    0    0    0 -0.00000000000E+00 -0.00000000000E+00 -0.74505805969E-08  0.93827000000E+00  0.93827000000E+00 0.  1.
     999902    2    1    2    0    0 -0.12275785000E-01 -0.20086555799E-01  0.39089358626E-02  0.10200669658E+01  0.10197878065E+01 0.  0.
     999903    2    3    3    0    0  0.39383356646E-01  0.11606310122E+00  0.30080641773E-01  0.12771593947E+00  0.19616929905E-01 0.  0.
         14    1    1    2    0    0  0.12275785000E-01  0.20086555799E-01 -0.39089358626E-02  0.23863034191E-01  0.00000000000E+00 0.  1.
     999901    1    3    3    0    0 -0.51659141646E-01 -0.13614965702E+00 -0.26171705911E-01  0.89235102634E+00  0.88000000000E+00 0. -1.
        -11    1    4    4    0    0  0.32732131501E-01  0.67020087890E-01  0.16481824448E-01  0.76387147292E-01  0.51100000000E-03 0. -1.
         11    1    4    4    0    0  0.66512251454E-02  0.49043013331E-01  0.13598817325E-01  0.51328792175E-01  0.51100000000E-03 0.  1.
</event>
<event>
 8    1  0.1117714E+005  0.1043930E+01  0.7957747E-01            NaN
         13   -1    0    0    0    0  0.00000000000E+00  0.00000000000E+00  0.74505805969E-08  0.10566000000E+00  0.10566000000E+00 0.  1.
     999900   -1    0    0    0    0 -0.00000000000E+00 -0.00000000000E+00 -0.74505805969E-08  0.93827000000E+00  0.93827000000E+00 0. -1.
     999902    2    1    2    0    0 -0.18267794962E-01 -0.12550888832E-01 -0.90917859042E-02  0.10199738377E+01  0.10196924692E+01 0.  0.
     999903    2    3    3    0    0  0.19989808715E-01  0.12511908257E+00 -0.14158169100E-01  0.12843453202E+00  0.15511221330E-01 0.  0.
         14    1    1    2    0    0  0.18267794962E-01  0.12550888832E-01  0.90917859042E-02  0.23956162342E-01  0.00000000000E+00 0. -1.
     999901    1    3    3    0    0 -0.38257603677E-01 -0.13766997140E+00  0.50663831953E-02  0.89153930564E+00  0.88000000000E+00 0. -1.
        -11    1    4    4    0    0  0.64635495831E-02  0.86239518201E-01 -0.97453826042E-02  0.87030256669E-01  0.51100000000E-03 0. -1.
         11    1    4    4    0    0  0.13526259132E-01  0.38879564366E-01 -0.44127864954E-02  0.41404275348E-01  0.51100000000E-03 0.  1.
</event>
<event>
 8    1  0.1117714E+005  0.1043930E+01  0.7957747E-01            NaN
         13   -1    0    0    0    0  0.00000000000E+00  0.00000000000E+00  0.74505805969E-08  0.10566000000E+00  0.10566000000E+00 0.  1.
     999900   -1    0    0    0    0 -0.00000000000E+00 -0.00000000000E+00 -0.74505805969E-08  0.93827000000E+00  0.93827000000E+00 0.  1.
     999902    2    1    2    0    0 -0.20589541965E-02 -0.23081942092E-01  0.35518301379E-02  0.10204857930E+01  0.10202164589E+01 0.  0.
     999903    2    3    3    0    0 -0.10956069859E+00  0.80493657870E-02  0.68569300875E-01  0.13101794376E+00  0.19890037683E-01 0.  0.
         14    1    1    2    0    0  0.20589541965E-02  0.23081942092E-01 -0.35518301379E-02  0.23444206970E-01  0.00000000000E+00 0. -1.
     999901    1    3    3    0    0  0.10750174440E+00 -0.31131307879E-01 -0.65017470737E-01  0.88946784927E+00  0.88000000000E+00 0. -1.
        -11    1    4    4    0    0 -0.54799067493E-01  0.13970904123E-01  0.34143118309E-01  0.66061619788E-01  0.51100000000E-03 0. -1.
         11    1    4    4    0    0 -0.54761631102E-01 -0.59215383363E-02  0.34426182566E-01  0.64956323974E-01  0.51100000000E-03 0.  1.
</event>
<event>
 8    1  0.1117714E+005  0.1043930E+01  0.7957747E-01            NaN
         13   -1    0    0    0    0  0.00000000000E+00  0.00000000000E+00  0.74505805969E-08  0.10566000000E+00  0.10566000000E+00 0.  1.
     999900   -1    0    0    0    0 -0.00000000000E+00 -0.00000000000E+00 -0.74505805969E-08  0.93827000000E+00  0.93827000000E+00 0.  1.
     999902    2    1    2    0    0  0.10553571159E-02  0.62268245296E-02 -0.23011658006E-01  0.10200674032E+01  0.10197882543E+01 0.  0.
     999903    2    3    3    0    0 -0.28111104332E-02 -0.93499871518E-01 -0.90278579579E-01  0.13187530560E+00  0.22152787215E-01 0.  0.
         14    1    1    2    0    0 -0.10553571159E-02 -0.62268245296E-02  0.23011658006E-01  0.23862596811E-01  0.00000000000E+00 0.  1.
     999901    1    3    3    0    0  0.38664675491E-02  0.99726696048E-01  0.67266921573E-01  0.88819209759E+00  0.88000000000E+00 0. -1.
        -11    1    4    4    0    0 -0.10767596028E-01 -0.77016201174E-01 -0.71340309736E-01  0.10553263610E+00  0.51100000000E-03 0. -1.
         11    1    4    4    0    0  0.79564855949E-02 -0.16483670345E-01 -0.18938269843E-01  0.26342669506E-01  0.51100000000E-03 0.  1.
</event>
<event>
 8    1  0.1117714E+005  0.1043930E+01  0.7957747E-01            NaN
         13   -1    0    0    0    0  0.00000000000E+00  0.00000000000E+00  0.74505805969E-08  0.10566000000E+00  0.10566000000E+00 0. -1.
     999900   -1    0    0    0    0 -0.00000000000E+00 -0.00000000000E+00 -0.74505805969E-08  0.93827000000E+00  0.93827000000E+00 0.  1.
     999902    2    1    2    0    0  0.21493909995E-02  0.47141036544E-02 -0.23029698276E-01  0.10203247112E+01  0.10200516196E+01 0.  0.
     999903    2    3    3    0    0  0.70412568105E-01 -0.56456229664E-01  0.89329937541E-01  0.12845792814E+00  0.19400153256E-01 0.  0.
         14    1    1    2    0    0 -0.21493909995E-02 -0.47141036544E-02  0.23029698276E-01  0.23605288763E-01  0.00000000000E+00 0. -1.
     999901    1    3    3    0    0 -0.68263177105E-01  0.61170333318E-01 -0.11235963582E+00  0.89186678309E+00  0.88000000000E+00 0.  1.
        -11    1    4    4    0    0  0.51017587034E-01 -0.40328749057E-01  0.51355410202E-01  0.82866407339E-01  0.51100000000E-03 0.  1.
         11    1    4    4    0    0  0.19394981071E-01 -0.16127480607E-01  0.37974527340E-01  0.45591520803E-01  0.51100000000E-03 0. -1.
</event>
<event>
 8    1  0.1117714E+005  0.1043930E+01  0.7957747E-01            NaN
         13   -1    0    0    0    0  0.00000000000E+00  0.00000000000E+00  0.74505805969E-08  0.10566000000E+00  0.10566000000E+00 0.  1.
     999900   -1    0    0    0    0 -0.00000000000E+00 -0.00000000000E+00 -0.74505805969E-08  0.93827000000E+00  0.93827000000E+00 0.  1.
     999902    2    1    2    0    0 -0.76979091430E-03 -0.24172514680E-01  0.12981424702E-01  0.10164814949E+01  0.10161108252E+01 0.  0.
     999903    2    3    3    0    0  0.10475312274E+00  0.33749670963E-01 -0.56997397112E-01  0.12553418985E+00  0.19946742360E-01 0.  0.
         14    1    1    2    0    0  0.76979091430E-03  0.24172514680E-01 -0.12981424702E-01  0.27448505083E-01  0.00000000000E+00 0. -1.
     999901    1    3    3    0    0 -0.10552291365E+00 -0.57922185643E-01  0.69978821814E-01  0.89094730506E+00  0.88000000000E+00 0. -1.
        -11    1    4    4    0    0  0.11302857545E-01  0.10958880230E-02 -0.12537960996E-03  0.11368042940E-01  0.51100000000E-03 0.  1.
         11    1    4    4    0    0  0.93450265195E-01  0.32653782940E-01 -0.56872017502E-01  0.11416614691E+00  0.51100000000E-03 0. -1.
</event>
<event>
 8    1  0.1117714E+005  0.1043930E+01  0.7957747E-01            NaN
         13   -1    0    0    0    0  0.00000000000E+00  0.00000000000E+00  0.74505805969E-08  0.10566000000E+00  0.10566000000E+00 0.  1.
     999900   -1    0    0    0    0 -0.00000000000E+00 -0.00000000000E+00 -0.74505805969E-08  0.93827000000E+00  0.93827000000E+00 0.  1.
     999902    2    1    2    0    0  0.39523112377E-02  0.56974536761E-02  0.22479732673E-01  0.10204051169E+01  0.10201339042E+01 0.  0.
     999903    2    3    3    0    0  0.12481964772E+00 -0.29124395940E-01 -0.15171913918E-01  0.13066407554E+00  0.20365136138E-01 0.  0.
         14    1    1    2    0    0 -0.39523112377E-02 -0.56974536761E-02 -0.22479732673E-01  0.23524883072E-01  0.00000000000E+00 0. -1.
     999901    1    3    3    0    0 -0.12086733648E+00  0.34821849616E-01  0.37651646591E-01  0.88974104139E+00  0.88000000000E+00 0.  1.
        -11    1    4    4    0    0  0.13954859400E-01  0.28117400417E-02 -0.37253277003E-02  0.14723558348E-01  0.51100000000E-03 0.  1.
         11    1    4    4    0    0  0.11086478832E+00 -0.31936135981E-01 -0.11446586218E-01  0.11594051719E+00  0.51100000000E-03 0. -1.
</event>
<event>
 8    1  0.1315464E+005  0.1043930E+01  0.7957747E-01            NaN
         13   -1    0    0    0    0  0.00000000000E+00  0.00000000000E+00  0.74505805969E-08  0.10566000000E+00  0.10566000000E+00 0. -1.
     999900   -1    0    0    0    0 -0.00000000000E+00 -0.00000000000E+00 -0.74505805969E-08  0.93827000000E+00  0.93827000000E+00 0. -1.
     999902    2    1    2    0    0  0.23291279526E-01  0.41564359456E-02  0.53594580441E-02  0.10196713221E+01  0.10193827160E+01 0.  0.
     999903    2    3    3    0    0 -0.92298135716E-02  0.19760600137E-01 -0.12594407184E+00  0.12919856656E+00  0.18833204539E-01 0.  0.
         14    1    1    2    0    0 -0.23291279526E-01 -0.41564359456E-02 -0.53594580441E-02  0.24258677875E-01  0.00000000000E+00 0.  1.
     999901    1    3    3    0    0  0.32521093098E-01 -0.15604164191E-01  0.13130352989E+00  0.89047275556E+00  0.88000000000E+00 0.  1.
        -11    1    4    4    0    0  0.37523993481E-02  0.10934102234E-01 -0.75022037950E-01  0.75909171987E-01  0.51100000000E-03 0. -1.
         11    1    4    4    0    0 -0.12982212920E-01  0.88264979027E-02 -0.50922033893E-01  0.53289394577E-01  0.51100000000E-03 0.  1.
</event>
<event>
 8    1  0.1117714E+005  0.1043930E+01  0.7957747E-01            NaN
         13   -1    0    0    0    0  0.00000000000E+00  0.00000000000E+00  0.74505805969E-08  0.10566000000E+00  0.10566000000E+00 0.  1.
     999900   -1    0    0    0    0 -0.00000000000E+00 -0.00000000000E+00 -0.74505805969E-08  0.93827000000E+00  0.93827000000E+00 0.  1.
     999902    2    1    2    0    0  0.61963452380E-02  0.21987781962E-01  0.55692172091E-02  0.10204167393E+01  0.10201457976E+01 0.  0.
     999903    2    3    3    0    0  0.66883175448E-01 -0.98045243248E-01 -0.45482856915E-01  0.12873454657E+00  0.20436837477E-01 0.  0.
         14    1    1    2    0    0 -0.61963452380E-02 -0.21987781962E-01 -0.55692172091E-02  0.23513260731E-01  0.00000000000E+00 0. -1.
     999901    1    3    3    0    0 -0.60686830210E-01  0.12003302521E+00  0.51052074124E-01  0.89168219270E+00  0.88000000000E+00 0. -1.
        -11    1    4    4    0    0  0.40913121519E-01 -0.42298880387E-01 -0.19880648698E-01  0.62117470232E-01  0.51100000000E-03 0.  1.
         11    1    4    4    0    0  0.25970053930E-01 -0.55746362861E-01 -0.25602208217E-01  0.66617076339E-01  0.51100000000E-03 0. -1.
</event>
<event>
 8    1  0.1117714E+005  0.1043930E+01  0.7957747E-01            NaN
         13   -1    0    0    0    0  0.00000000000E+00  0.00000000000E+00  0.74505805969E-08  0.10566000000E+00  0.10566000000E+00 0. -1.
     999900   -1    0    0    0    0 -0.00000000000E+00 -0.00000000000E+00 -0.74505805969E-08  0.93827000000E+00  0.93827000000E+00 0. -1.
     999902    2    1    2    0    0 -0.16429607465E-01  0.14484892133E-01  0.71344471942E-02  0.10208942791E+01  0.10206343540E+01 0.  0.
     999903    2    3    3    0    0 -0.18217622776E-01  0.12268642001E+00  0.44536646287E-01  0.13347685073E+00  0.21182950314E-01 0.  0.
         14    1    1    2    0    0  0.16429607465E-01 -0.14484892133E-01 -0.71344471942E-02  0.23035720920E-01  0.00000000000E+00 0. -1.
     999901    1    3    3    0    0  0.17880153110E-02 -0.10820152788E+00 -0.37402199093E-01  0.88741742835E+00  0.88000000000E+00 0. -1.
        -11    1    4    4    0    0 -0.19552075829E-02  0.25774733734E-01  0.18582597038E-01  0.31839186068E-01  0.51100000000E-03 0.  1.
         11    1    4    4    0    0 -0.16262415193E-01  0.96911686279E-01  0.25954049249E-01  0.10163766467E+00  0.51100000000E-03 0. -1.
</event>
<event>
 8    1  0.1117714E+005  0.1043930E+01  0.7957747E-01            NaN
         13   -1    0    0    0    0  0.00000000000E+00  0.00000000000E+00  0.74505805969E-08  0.10566000000E+00  0.10566000000E+00 0. -1.
     999900   -1    0    0    0    0 -0.00000000000E+00 -0.00000000000E+00 -0.74505805969E-08  0.93827000000E+00  0.93827000000E+00 0.  1.
     999902    2    1    2    0    0  0.18764983259E-01 -0.79789354154E-03  0.15953077788E-01  0.10192873150E+01  0.10189893860E+01 0.  0.
     999903    2    3    3    0    0  0.12160453053E+00 -0.32983575019E-01 -0.31616525028E-01  0.13143892839E+00  0.20025213492E-01 0.  0.
         14    1    1    2    0    0 -0.18764983259E-01  0.79789354154E-03 -0.15953077788E-01  0.24642684954E-01  0.00000000000E+00 0.  1.
     999901    1    3    3    0    0 -0.10283954727E+00  0.32185681477E-01  0.47569602817E-01  0.88784838666E+00  0.88000000000E+00 0. -1.
        -11    1    4    4    0    0  0.10333934379E+00 -0.21911043322E-01 -0.30888200512E-01  0.11006114594E+00  0.51100000000E-03 0.  1.
         11    1    4    4    0    0  0.18265186740E-01 -0.11072531696E-01 -0.72832451646E-03  0.21377782449E-01  0.51100000000E-03 0. -1.
</event>
<event>
 8    1  0.1117714E+005  0.1043930E+01  0.7957747E-01            NaN
         13   -1    0    0    0    0  0.00000000000E+00  0.00000000000E+00  0.74505805969E-08  0.10566000000E+00  0.10566000000E+00 0. -1.
     999900   -1    0    0    0    0 -0.00000000000E+00 -0.00000000000E+00 -0.74505805969E-08  0.93827000000E+00  0.93827000000E+00 0. -1.
     999902    2    1    2    0    0  0.89568282116E-02  0.48948299435E-02  0.13756032167E-01  0.10268007107E+01  0.10266578237E+01 0.  0.
     999903    2    3    3    0    0  0.13221839177E+00  0.31870824426E-01 -0.53001274466E-02  0.13759642900E+00  0.20180023584E-01 0.  0.
         14    1    1    2    0    0 -0.89568282116E-02 -0.48948299435E-02 -0.13756032167E-01  0.17129289325E-01  0.00000000000E+00 0.  1.
     999901    1    3    3    0    0 -0.12326156356E+00 -0.26975994482E-01  0.19056159614E-01  0.88920428167E+00  0.88000000000E+00 0.  1.
        -11    1    4    4    0    0  0.12086474613E+00  0.23537218833E-01 -0.73478702373E-02  0.12335533976E+00  0.51100000000E-03 0. -1.
         11    1    4    4    0    0  0.11353645634E-01  0.83336055928E-02  0.20477427907E-02  0.14241089245E-01  0.51100000000E-03 0.  1.
</event>
<event>
 8    1  0.1117714E+005  0.1043930E+01  0.7957747E-01            NaN
         13   -1    0    0    0    0  0.00000000000E+00  0.00000000000E+00  0.74505805969E-08  0.10566000000E+00  0.10566000000E+00 0. -1.
     999900   -1    0    0    0    0 -0.00000000000E+00 -0.00000000000E+00 -0.74505805969E-08  0.93827000000E+00  0.93827000000E+00 0. -1.
     999902    2    1    2    0    0 -0.22756384207E-01  0.57541083822E-02 -0.46566228864E-02  0.10199999577E+01  0.10197192098E+01 0.  0.
     999903    2    3    3    0    0  0.11036611326E+00  0.49935481558E-01  0.36121659896E-01  0.12795934129E+00  0.19864225014E-01 0.  0.
         14    1    1    2    0    0  0.22756384207E-01 -0.57541083822E-02  0.46566228864E-02  0.23930042252E-01  0.00000000000E+00 0.  1.
     999901    1    3    3    0    0 -0.13312249746E+00 -0.44181373176E-01 -0.40778282783E-01  0.89204061646E+00  0.88000000000E+00 0. -1.
        -11    1    4    4    0    0  0.36483470630E-01  0.26974743444E-01  0.12579199475E-01  0.47086917435E-01  0.51100000000E-03 0.  1.
         11    1    4    4    0    0  0.73882642627E-01  0.22960738114E-01  0.23542460421E-01  0.80872423853E-01  0.51100000000E-03 0. -1.
</event>
<event>
 8    1  0.1117714E+005  0.1043930E+01  0.7957747E-01            NaN
         13   -1    0    0    0    0  0.00000000000E+00  0.00000000000E+00  0.74505805969E-08  0.10566000000E+00  0.10566000000E+00 0.  1.
     999900   -1    0    0    0    0 -0.00000000000E+00 -0.00000000000E+00 -0.74505805969E-08  0.93827000000E+00  0.93827000000E+00 0.  1.
     999902    2    1    2    0    0 -0.13897134162E-01 -0.25113788289E-01 -0.94971182146E-03  0.10152118062E+01  0.10148055365E+01 0.  0.
     999903    2    3    3    0    0 -0.86280373874E-01  0.80612074061E-01  0.36411919140E-01  0.12514822265E+00  0.19840372425E-01 0.  0.
         14    1    1    2    0    0  0.13897134162E-01  0.25113788289E-01  0.94971182146E-03  0.28718193758E-01  0.00000000000E+00 0. -1.
     999901    1    3    3    0    0  0.72383239712E-01 -0.10572586235E+00 -0.37361630961E-01  0.89006358359E+00  0.88000000000E+00 0.  1.
        -11    1    4    4    0    0 -0.71416691939E-01  0.64908713704E-01  0.37390345541E-01  0.10349774907E+00  0.51100000000E-03 0. -1.
         11    1    4    4    0    0 -0.14863681935E-01  0.15703360357E-01 -0.97842640054E-03  0.21650473583E-01  0.51100000000E-03 0.  1.
</event>
<event>
 8    1  0.1117714E+005  0.1043930E+01  0.7957747E-01            NaN
         13   -1    0    0    0    0  0.00000000000E+00  0.00000000000E+00  0.74505805969E-08  0.10566000000E+00  0.10566000000E+00 0. -1.
     999900   -1    0    0    0    0 -0.00000000000E+00 -0.00000000000E+00 -0.74505805969E-08  0.93827000000E+00  0.93827000000E+00 0. -1.
     999902    2    1    2    0    0 -0.20576210407E-01 -0.12293810302E-01  0.47189672197E-02  0.10195007786E+01  0.10192080508E+01 0.  0.
     999903    2    3    3    0    0 -0.89468837226E-02 -0.22234998418E-01 -0.12574696833E+00  0.12975057276E+00  0.21177091505E-01 0.  0.
         14    1    1    2    0    0  0.20576210407E-01  0.12293810302E-01 -0.47189672197E-02  0.24429221397E-01  0.00000000000E+00 0.  1.
     999901    1    3    3    0    0 -0.11629326684E-01  0.99411881158E-02  0.13046593555E+00  0.88975020584E+00  0.88000000000E+00 0.  1.
        -11    1    4    4    0    0  0.27405397053E-02  0.28536975873E-02 -0.22818005816E-01  0.23164124378E-01  0.51100000000E-03 0.  1.
         11    1    4    4    0    0 -0.11687423428E-01 -0.25088696005E-01 -0.10292896251E+00  0.10658644838E+00  0.51100000000E-03 0. -1.
</event>
<event>
 8    1  0.1117714E+005  0.1043930E+01  0.7957747E-01            NaN
         13   -1    0    0    0    0  0.00000000000E+00  0.00000000000E+00  0.74505805969E-08  0.10566000000E+00  0.10566000000E+00 0. -1.
     999900   -1    0    0    0    0 -0.00000000000E+00 -0.00000000000E+00 -0.74505805969E-08  0.93827000000E+00  0.93827000000E+00 0. -1.
     999902    2    1    2    0    0 -0.13263739406E-02 -0.19603398030E-01 -0.14344281844E-01  0.10196028361E+01  0.10193125784E+01 0.  0.
     999903    2    3    3    0    0  0.87750717346E-01 -0.71280328071E-02  0.91676027391E-01  0.12868720097E+00  0.20122237690E-01 0.  0.
         14    1    1    2    0    0  0.13263739406E-02  0.19603398030E-01  0.14344281844E-01  0.24327163907E-01  0.00000000000E+00 0. -1.
     999901    1    3    3    0    0 -0.89077091287E-01 -0.12475365223E-01 -0.10602030924E+00  0.89091563512E+00  0.88000000000E+00 0. -1.
        -11    1    4    4    0    0  0.39680919869E-01 -0.82016423606E-02  0.29680663242E-01  0.50229923657E-01  0.51100000000E-03 0.  1.
         11    1    4    4    0    0  0.48069797477E-01  0.10736095535E-02  0.61995364149E-01  0.78457277316E-01  0.51100000000E-03 0. -1.
</event>
<event>
 8    1  0.1117714E+005  0.1043930E+01  0.7957747E-01            NaN
         13   -1    0    0    0    0  0.00000000000E+00  0.00000000000E+00  0.74505805969E-08  0.10566000000E+00  0.10566000000E+00 0. -1.
     999900   -1    0    0    0    0 -0.00000000000E+00 -0.00000000000E+00 -0.74505805969E-08  0.93827000000E+00  0.93827000000E+00 0.  1.
     999902    2    1    2    0    0 -0.22306785315E-01 -0.78910914113E-02  0.13089172504E-02  0.10202324208E+01  0.10199571644E+01 0.  0.
     999903    2    3    3    0    0 -0.97746604599E-01 -0.44069694190E-01  0.76252125063E-01  0.13309289288E+00  0.20069750915E-01 0.  0.
         14    1    1    2    0    0  0.22306785315E-01  0.78910914113E-02 -0.13089172504E-02  0.23697579182E-01  0.00000000000E+00 0.  1.
     999901    1    3    3    0    0  0.75439819285E-01  0.36178602778E-01 -0.74943207813E-01  0.88713952794E+00  0.88000000000E+00 0.  1.
        -11    1    4    4    0    0 -0.73922123793E-01 -0.42219215982E-01  0.57818182237E-01  0.10290843455E+00  0.51100000000E-03 0.  1.
         11    1    4    4    0    0 -0.23824480806E-01 -0.18504782075E-02  0.18433942826E-01  0.30184458325E-01  0.51100000000E-03 0. -1.
</event>
<event>
 8    1  0.1117714E+005  0.1043930E+01  0.7957747E-01            NaN
         13   -1    0    0    0    0  0.00000000000E+00  0.00000000000E+00  0.74505805969E-08  0.10566000000E+00  0.10566000000E+00 0.  1.
     999900   -1    0    0    0    0 -0.00000000000E+00 -0.00000000000E+00 -0.74505805969E-08  0.93827000000E+00  0.93827000000E+00 0.  1.
     999902    2    1    2    0    0  0.13173300496E-01 -0.15268683058E-01  0.71601116097E-02  0.10225305671E+01  0.10223066199E+01 0.  0.
     999903    2    3    3    0    0  0.10773067719E+00 -0.73275630877E-01  0.30956225424E-01  0.13524698310E+00  0.18927272837E-01 0.  0.
         14    1    1    2    0    0 -0.13173300496E-01  0.15268683058E-01 -0.71601116097E-02  0.21399432855E-01  0.00000000000E+00 0. -1.
     999901    1    3    3    0    0 -0.94557376694E-01  0.58006947819E-01 -0.23796113814E-01  0.88728358404E+00  0.88000000000E+00 0. -1.
        -11    1    4    4    0    0  0.87804307015E-01 -0.61212997941E-01  0.17850236916E-01  0.10851506590E+00  0.51100000000E-03 0. -1.
         11    1    4    4    0    0  0.19926370174E-01 -0.12062632936E-01  0.13105988507E-01  0.26731917204E-01  0.51100000000E-03 0.  1.
</event>
<event>
 8    1  0.1117714E+005  0.1043930E+01  0.7957747E-01            NaN
         13   -1    0    0    0    0  0.00000000000E+00  0.00000000000E+00  0.74505805969E-08  0.10566000000E+00  0.10566000000E+00 0. -1.
     999900   -1    0    0    0    0 -0.00000000000E+00 -0.00000000000E+00 -0.74505805969E-08  0.93827000000E+00  0.93827000000E+00 0.  1.
     999902    2    1    2    0    0  0.17212202319E-01  0.36811636033E-02  0.16091644234E-01  0.10200814804E+01  0.10198026646E+01 0.  0.
     999903    2    3    3    0    0  0.73877670047E-01  0.21752022135E-01  0.10700408859E+00  0.13340081424E+00  0.20367662281E-01 0.  0.
         14    1    1    2    0    0 -0.17212202319E-01 -0.36811636033E-02 -0.16091644234E-01  0.23848519625E-01  0.00000000000E+00 0.  1.
     999901    1    3    3    0    0 -0.56665467727E-01 -0.18070858532E-01 -0.90912444353E-01  0.88668066614E+00  0.88000000000E+00 0.  1.
        -11    1    4    4    0    0  0.50911391971E-01  0.18299976942E-01  0.58873401451E-01  0.79957473121E-01  0.51100000000E-03 0. -1.
         11    1    4    4    0    0  0.22966278076E-01  0.34520451926E-02  0.48130687136E-01  0.53443341118E-01  0.51100000000E-03 0.  1.
</event>
<event>
 8    1  0.1117714E+005  0.1043930E+01  0.7957747E-01            NaN
         13   -1    0    0    0    0  0.00000000000E+00  0.00000000000E+00  0.74505805969E-08  0.10566000000E+00  0.10566000000E+00 0. -1.
     999900   -1    0    0    0    0 -0.00000000000E+00 -0.00000000000E+00 -0.74505805969E-08  0.93827000000E+00  0.93827000000E+00 0. -1.
     999902    2    1    2    0    0  0.60148824339E-02  0.22856560035E-01 -0.64184644221E-02  0.10194392296E+01  0.10191450069E+01 0.  0.
     999903    2    3    3    0    0  0.69674180369E-01 -0.85790693436E-01 -0.63069359820E-01  0.12867211313E+00  0.19084917070E-01 0.  0.
         14    1    1    2    0    0 -0.60148824339E-02 -0.22856560035E-01  0.64184644221E-02  0.24490770361E-01  0.00000000000E+00 0. -1.
     999901    1    3    3    0    0 -0.63659297935E-01  0.10864725347E+00  0.56650895398E-01  0.89076711651E+00  0.88000000000E+00 0.  1.
        -11    1    4    4    0    0  0.21888635969E-01 -0.24173699061E-01 -0.91682607423E-02  0.33879171137E-01  0.51100000000E-03 0.  1.
         11    1    4    4    0    0  0.47785544399E-01 -0.61616994375E-01 -0.53901099078E-01  0.94792941996E-01  0.51100000000E-03 0. -1.
</event>
<event>
 8    1  0.1117714E+005  0.1043930E+01  0.7957747E-01            NaN
         13   -1    0    0    0    0  0.00000000000E+00  0.00000000000E+00  0.74505805969E-08  0.10566000000E+00  0.10566000000E+00 0.  1.
     999900   -1    0    0    0    0 -0.00000000000E+00 -0.00000000000E+00 -0.74505805969E-08  0.93827000000E+00  0.93827000000E+00 0.  1.
     999902    2    1    2    0    0 -0.82109971993E-02  0.22648253920E-02  0.21646717371E-01  0.10206677928E+01  0.10204026720E+01 0.  0.
     999903    2    3    3    0    0  0.22167915202E-01  0.12724083249E+00  0.13967619597E-01  0.13128550765E+00  0.18951100315E-01 0.  0.
         14    1    1    2    0    0  0.82109971993E-02 -0.22648253920E-02 -0.21646717371E-01  0.23262207161E-01  0.00000000000E+00 0. -1.
     999901    1    3    3    0    0 -0.30378912402E-01 -0.12497600710E+00  0.76790977734E-02  0.88938228519E+00  0.88000000000E+00 0. -1.
        -11    1    4    4    0    0  0.97207416406E-02  0.96933580935E-01  0.14615769929E-01  0.98511389100E-01  0.51100000000E-03 0.  1.
         11    1    4    4    0    0  0.12447173562E-01  0.30307251559E-01 -0.64815033204E-03  0.32774118548E-01  0.51100000000E-03 0. -1.
</event>
<event>
 8    1  0.1117714E+005  0.1043930E+01  0.7957747E-01            NaN
         13   -1    0    0    0    0  0.00000000000E+00  0.00000000000E+00  0.74505805969E-08  0.10566000000E+00  0.10566000000E+00 0.  1.
     999900   -1    0    0    0    0 -0.00000000000E+00 -0.00000000000E+00 -0.74505805969E-08  0.93827000000E+00  0.93827000000E+00 0.  1.
     999902    2    1    2    0    0  0.22455267079E-01 -0.21946376299E-02 -0.89946752225E-02  0.10196409153E+01  0.10193515765E+01 0.  0.
     999903    2    3    3    0    0  0.83533279810E-01  0.62763449636E-01 -0.78769392686E-01  0.13238751972E+00  0.20119113008E-01 0.  0.
         14    1    1    2    0    0 -0.22455267079E-01  0.21946376299E-02  0.89946752225E-02  0.24289084715E-01  0.00000000000E+00 0.  1.
     999901    1    3    3    0    0 -0.61078012730E-01 -0.64958087266E-01  0.69774717464E-01  0.88725339556E+00  0.88000000000E+00 0. -1.
        -11    1    4    4    0    0  0.13140033292E-02  0.66816615691E-02 -0.60783077970E-02  0.91421087692E-02  0.51100000000E-03 0.  1.
         11    1    4    4    0    0  0.82219276480E-01  0.56081788067E-01 -0.72691084889E-01  0.12324541095E+00  0.51100000000E-03 0. -1.
</event>
