<event>
 8    1  0.1114447E+005  0.1043930E+01  0.7957747E-01            NaN
         13   -1    0    0    0    0  0.00000000000E+00  0.00000000000E+00  0.74505805969E-08  0.10566000000E+00  0.10566000000E+00 0.  1.
     999900   -1    0    0    0    0 -0.00000000000E+00 -0.00000000000E+00 -0.74505805969E-08  0.93827000000E+00  0.93827000000E+00 0. -1.
     999902    2    1    2    0    0 -0.89655586745E-02 -0.15729415862E-01 -0.15270295614E-01  0.10202450323E+01  0.10199700723E+01 0.  0.
     999903    2    3    3    0    0 -0.27404144062E-01  0.55041250841E-01  0.11076991115E+00  0.12826151094E+00  0.20012885005E-01 0.  0.
         14    1    1    2    0    0  0.89655586745E-02  0.15729415862E-01  0.15270295614E-01  0.23684967676E-01  0.00000000000E+00 0.  1.
     999901    1    3    3    0    0  0.18438585388E-01 -0.70770666702E-01 -0.12604020677E+00  0.89198352138E+00  0.88000000000E+00 0. -1.
        -11    1    4    4    0    0 -0.12046911277E-01  0.43870050906E-01  0.73827388566E-01  0.86720550398E-01  0.51100000000E-03 0.  1.
         11    1    4    4    0    0 -0.15357232785E-01  0.11171199935E-01  0.36942522586E-01  0.41540960543E-01  0.51100000000E-03 0. -1.
</event>
<event>
 8    1  0.1114447E+005  0.1043930E+01  0.7957747E-01            NaN
         13   -1    0    0    0    0  0.00000000000E+00  0.00000000000E+00  0.74505805969E-08  0.10566000000E+00  0.10566000000E+00 0.  1.
     999900   -1    0    0    0    0 -0.00000000000E+00 -0.00000000000E+00 -0.74505805969E-08  0.93827000000E+00  0.93827000000E+00 0. -1.
     999902    2    1    2    0    0  0.12075174513E-01  0.19132946698E-01 -0.76964432443E-02  0.10200319932E+01  0.10197520054E+01 0.  0.
     999903    2    3    3    0    0 -0.99461073523E-01  0.20305392739E-01 -0.78796876264E-01  0.13014605625E+00  0.20596944649E-01 0.  0.
         14    1    1    2    0    0 -0.12075174513E-01 -0.19132946698E-01  0.76964432443E-02  0.23898006768E-01  0.00000000000E+00 0. -1.
     999901    1    3    3    0    0  0.11153624804E+00 -0.11724460410E-02  0.71100433020E-01  0.88988593698E+00  0.88000000000E+00 0.  1.
        -11    1    4    4    0    0 -0.34657605137E-01  0.13784349826E-01 -0.19629078786E-01  0.42151153590E-01  0.51100000000E-03 0. -1.
         11    1    4    4    0    0 -0.64803468386E-01  0.65210429132E-02 -0.59167797478E-01  0.87994902664E-01  0.51100000000E-03 0.  1.
</event>
<event>
 8    1  0.1114447E+005  0.1043930E+01  0.7957747E-01            NaN
         13   -1    0    0    0    0  0.00000000000E+00  0.00000000000E+00  0.74505805969E-08  0.10566000000E+00  0.10566000000E+00 0.  1.
     999900   -1    0    0    0    0 -0.00000000000E+00 -0.00000000000E+00 -0.74505805969E-08  0.93827000000E+00  0.93827000000E+00 0. -1.
     999902    2    1    2    0    0  0.13103688129E-01  0.17513269317E-01  0.82495447205E-02  0.10205531689E+01  0.10202853985E+01 0.  0.
     999903    2    3    3    0    0 -0.12499089872E+00 -0.23750557691E-02 -0.24192372145E-01  0.12897135079E+00  0.20493237937E-01 0.  0.
         14    1    1    2    0    0 -0.13103688129E-01 -0.17513269317E-01 -0.82495447205E-02  0.23376831112E-01  0.00000000000E+00 0. -1.
     999901    1    3    3    0    0  0.13809458685E+00  0.19888325086E-01  0.32441916865E-01  0.89158181810E+00  0.88000000000E+00 0. -1.
        -11    1    4    4    0    0 -0.45224703329E-01 -0.10500874718E-01 -0.67981996042E-02  0.46925673143E-01  0.51100000000E-03 0.  1.
         11    1    4    4    0    0 -0.79766195394E-01  0.81258189493E-02 -0.17394172541E-01  0.82045677648E-01  0.51100000000E-03 0. -1.
</event>
<event>
 8    1  0.1114447E+005  0.1043930E+01  0.7957747E-01            NaN
         13   -1    0    0    0    0  0.00000000000E+00  0.00000000000E+00  0.74505805969E-08  0.10566000000E+00  0.10566000000E+00 0.  1.
     999900   -1    0    0    0    0 -0.00000000000E+00 -0.00000000000E+00 -0.74505805969E-08  0.93827000000E+00  0.93827000000E+00 0. -1.
     999902    2    1    2    0    0 -0.13316133549E-01 -0.19058710923E-01 -0.47957738193E-02  0.10201907220E+01  0.10199144846E+01 0.  0.
     999903    2    3    3    0    0 -0.98514581605E-01  0.66098850692E-02  0.84073688793E-01  0.13125009755E+00  0.20233378087E-01 0.  0.
         14    1    1    2    0    0  0.13316133549E-01  0.19058710923E-01  0.47957738193E-02  0.23739278028E-01  0.00000000000E+00 0. -1.
     999901    1    3    3    0    0  0.85198448056E-01 -0.25668595993E-01 -0.88869462612E-01  0.88894062443E+00  0.88000000000E+00 0. -1.
        -11    1    4    4    0    0 -0.55532399104E-01 -0.58259096190E-02  0.50765656469E-01  0.75466559289E-01  0.51100000000E-03 0.  1.
         11    1    4    4    0    0 -0.42982182501E-01  0.12435794688E-01  0.33308032324E-01  0.55783538256E-01  0.51100000000E-03 0. -1.
</event>
<event>
 8    1  0.1114447E+005  0.1043930E+01  0.7957747E-01            NaN
         13   -1    0    0    0    0  0.00000000000E+00  0.00000000000E+00  0.74505805969E-08  0.10566000000E+00  0.10566000000E+00 0.  1.
     999900   -1    0    0    0    0 -0.00000000000E+00 -0.00000000000E+00 -0.74505805969E-08  0.93827000000E+00  0.93827000000E+00 0. -1.
     999902    2    1    2    0    0  0.17606574624E-01 -0.39304678176E-02  0.16362241160E-01  0.10195750625E+01  0.10192841336E+01 0.  0.
     999903    2    3    3    0    0  0.37374341490E-01  0.11911204253E+00 -0.28435928456E-01  0.12966658403E+00  0.20501241679E-01 0.  0.
         14    1    1    2    0    0 -0.17606574624E-01  0.39304678176E-02 -0.16362241160E-01  0.24354937549E-01  0.00000000000E+00 0. -1.
     999901    1    3    3    0    0 -0.19767766866E-01 -0.12304251035E+00  0.44798169616E-01  0.88990847842E+00  0.88000000000E+00 0. -1.
        -11    1    4    4    0    0  0.24396958807E-01  0.48406143244E-01 -0.17415969068E-01  0.56938066373E-01  0.51100000000E-03 0. -1.
         11    1    4    4    0    0  0.12977382683E-01  0.70705899286E-01 -0.11019959388E-01  0.72728517660E-01  0.51100000000E-03 0.  1.
</event>
<event>
 8    1  0.1114447E+005  0.1043930E+01  0.7957747E-01            NaN
         13   -1    0    0    0    0  0.00000000000E+00  0.00000000000E+00  0.74505805969E-08  0.10566000000E+00  0.10566000000E+00 0. -1.
     999900   -1    0    0    0    0 -0.00000000000E+00 -0.00000000000E+00 -0.74505805969E-08  0.93827000000E+00  0.93827000000E+00 0.  1.
     999902    2    1    2    0    0  0.21393217661E-01 -0.13060106792E-02 -0.87931360635E-02  0.10207633285E+01  0.10205004058E+01 0.  0.
     999903    2    3    3    0    0  0.25684162175E-01  0.12584082274E+00 -0.20134645941E-01  0.13154268138E+00  0.20062008933E-01 0.  0.
         14    1    1    2    0    0 -0.21393217661E-01  0.13060106792E-02  0.87931360635E-02  0.23166671483E-01  0.00000000000E+00 0. -1.
     999901    1    3    3    0    0 -0.42909445143E-02 -0.12714683342E+00  0.11341509878E-01  0.88922064714E+00  0.88000000000E+00 0. -1.
        -11    1    4    4    0    0  0.24744319700E-01  0.71951756778E-01 -0.12261236782E-01  0.77070978385E-01  0.51100000000E-03 0.  1.
         11    1    4    4    0    0  0.93984247519E-03  0.53889065961E-01 -0.78734091588E-02  0.54471702992E-01  0.51100000000E-03 0. -1.
</event>
<event>
 8    1  0.1114447E+005  0.1043930E+01  0.7957747E-01            NaN
         13   -1    0    0    0    0  0.00000000000E+00  0.00000000000E+00  0.74505805969E-08  0.10566000000E+00  0.10566000000E+00 0. -1.
     999900   -1    0    0    0    0 -0.00000000000E+00 -0.00000000000E+00 -0.74505805969E-08  0.93827000000E+00  0.93827000000E+00 0.  1.
     999902    2    1    2    0    0 -0.18575020758E-01  0.14003226051E-01  0.35270403115E-02  0.10204021070E+01  0.10201308241E+01 0.  0.
     999903    2    3    3    0    0 -0.77289940461E-01  0.62335075961E-01  0.86620366406E-01  0.13322235612E+00  0.19639544371E-01 0.  0.
         14    1    1    2    0    0  0.18575020758E-01 -0.14003226051E-01 -0.35270403115E-02  0.23527893008E-01  0.00000000000E+00 0.  1.
     999901    1    3    3    0    0  0.58714919703E-01 -0.48331849910E-01 -0.83093326094E-01  0.88717975087E+00  0.88000000000E+00 0.  1.
        -11    1    4    4    0    0 -0.94340160119E-02  0.13636884949E-01  0.76208813940E-02  0.18256621907E-01  0.51100000000E-03 0.  1.
         11    1    4    4    0    0 -0.67855924449E-01  0.48698191012E-01  0.78999485012E-01  0.11496573422E+00  0.51100000000E-03 0. -1.
</event>
<event>
 8    1  0.1114447E+005  0.1043930E+01  0.7957747E-01            NaN
         13   -1    0    0    0    0  0.00000000000E+00  0.00000000000E+00  0.74505805969E-08  0.10566000000E+00  0.10566000000E+00 0. -1.
     999900   -1    0    0    0    0 -0.00000000000E+00 -0.00000000000E+00 -0.74505805969E-08  0.93827000000E+00  0.93827000000E+00 0.  1.
     999902    2    1    2    0    0  0.18042508059E-01 -0.12556710079E-01  0.95543668676E-02  0.10199615000E+01  0.10196798382E+01 0.  0.
     999903    2    3    3    0    0 -0.10581966549E+00 -0.42235075208E-01  0.58711599692E-01  0.12943408498E+00  0.18014639424E-01 0.  0.
         14    1    1    2    0    0 -0.18042508059E-01  0.12556710079E-01 -0.95543668676E-02  0.23968499981E-01  0.00000000000E+00 0.  1.
     999901    1    3    3    0    0  0.12386217355E+00  0.29678365129E-01 -0.49157232825E-01  0.89052741504E+00  0.88000000000E+00 0. -1.
        -11    1    4    4    0    0 -0.39945421455E-01 -0.67789821650E-02  0.19463212345E-01  0.44951852578E-01  0.51100000000E-03 0. -1.
         11    1    4    4    0    0 -0.65874244040E-01 -0.35456093043E-01  0.39248387348E-01  0.84482232405E-01  0.51100000000E-03 0.  1.
</event>
<event>
 8    1  0.1114447E+005  0.1043930E+01  0.7957747E-01            NaN
         13   -1    0    0    0    0  0.00000000000E+00  0.00000000000E+00  0.74505805969E-08  0.10566000000E+00  0.10566000000E+00 0. -1.
     999900   -1    0    0    0    0 -0.00000000000E+00 -0.00000000000E+00 -0.74505805969E-08  0.93827000000E+00  0.93827000000E+00 0.  1.
     999902    2    1    2    0    0  0.28259286635E-03 -0.68323729108E-02 -0.22542390019E-01  0.10203732488E+01  0.10201012922E+01 0.  0.
     999903    2    3    3    0    0 -0.44603802983E-01  0.11219766393E+00 -0.46615459913E-01  0.13090011775E+00  0.19596547985E-01 0.  0.
         14    1    1    2    0    0 -0.28259286635E-03  0.68323729108E-02  0.22542390019E-01  0.23556751178E-01  0.00000000000E+00 0. -1.
     999901    1    3    3    0    0  0.44886395850E-01 -0.11903003684E+00  0.24073069895E-01  0.88947313107E+00  0.88000000000E+00 0. -1.
        -11    1    4    4    0    0 -0.21030085864E-01  0.38890783958E-01 -0.86887029437E-02  0.45061205800E-01  0.51100000000E-03 0. -1.
         11    1    4    4    0    0 -0.23573717119E-01  0.73306879970E-01 -0.37926756970E-01  0.85838911951E-01  0.51100000000E-03 0.  1.
</event>
<event>
 8    1  0.1114447E+005  0.1043930E+01  0.7957747E-01            NaN
         13   -1    0    0    0    0  0.00000000000E+00  0.00000000000E+00  0.74505805969E-08  0.10566000000E+00  0.10566000000E+00 0. -1.
     999900   -1    0    0    0    0 -0.00000000000E+00 -0.00000000000E+00 -0.74505805969E-08  0.93827000000E+00  0.93827000000E+00 0.  1.
     999902    2    1    2    0    0  0.18783387528E-01 -0.20666265389E-01 -0.51828493476E-02  0.10155262661E+01  0.10151289697E+01 0.  0.
     999903    2    3    3    0    0 -0.11339948111E+00 -0.18335443883E-01 -0.44480692039E-01  0.12478384321E+00  0.19920962413E-01 0.  0.
         14    1    1    2    0    0 -0.18783387528E-01  0.20666265389E-01  0.51828493476E-02  0.28403733901E-01  0.00000000000E+00 0. -1.
     999901    1    3    3    0    0  0.13218286864E+00 -0.23308215063E-02  0.39297842691E-01  0.89074242289E+00  0.88000000000E+00 0.  1.
        -11    1    4    4    0    0 -0.58875531614E-01 -0.10011410722E-01 -0.33724254522E-01  0.68586755511E-01  0.51100000000E-03 0.  1.
         11    1    4    4    0    0 -0.54523949498E-01 -0.83240331607E-02 -0.10756437517E-01  0.56197087700E-01  0.51100000000E-03 0. -1.
</event>
<event>
 8    1  0.1114447E+005  0.1043930E+01  0.7957747E-01            NaN
         13   -1    0    0    0    0  0.00000000000E+00  0.00000000000E+00  0.74505805969E-08  0.10566000000E+00  0.10566000000E+00 0. -1.
     999900   -1    0    0    0    0 -0.00000000000E+00 -0.00000000000E+00 -0.74505805969E-08  0.93827000000E+00  0.93827000000E+00 0. -1.
     999902    2    1    2    0    0  0.25879705554E-02  0.21830911685E-01 -0.77590326959E-02  0.10206171519E+01  0.10203508622E+01 0.  0.
     999903    2    3    3    0    0 -0.50827333868E-01  0.11793423914E+00 -0.30678979258E-01  0.13347884916E+00  0.19583175848E-01 0.  0.
         14    1    1    2    0    0 -0.25879705554E-02 -0.21830911685E-01  0.77590326959E-02  0.23312848066E-01  0.00000000000E+00 0.  1.
     999901    1    3    3    0    0  0.53415304424E-01 -0.96103327453E-01  0.22919946562E-01  0.88713830277E+00  0.88000000000E+00 0.  1.
        -11    1    4    4    0    0 -0.55185019396E-02  0.27644681430E-01 -0.12470262050E-01  0.30829382602E-01  0.51100000000E-03 0.  1.
         11    1    4    4    0    0 -0.45308831929E-01  0.90289557707E-01 -0.18208717208E-01  0.10264946656E+00  0.51100000000E-03 0. -1.
</event>
<event>
 8    1  0.1114447E+005  0.1043930E+01  0.7957747E-01            NaN
         13   -1    0    0    0    0  0.00000000000E+00  0.00000000000E+00  0.74505805969E-08  0.10566000000E+00  0.10566000000E+00 0. -1.
     999900   -1    0    0    0    0 -0.00000000000E+00 -0.00000000000E+00 -0.74505805969E-08  0.93827000000E+00  0.93827000000E+00 0.  1.
     999902    2    1    2    0    0 -0.20533520878E-01 -0.86487471141E-02  0.84928180302E-02  0.10200856241E+01  0.10198069063E+01 0.  0.
     999903    2    3    3    0    0 -0.82172166407E-01 -0.60462493864E-01 -0.78584895264E-01  0.13212925399E+00  0.29573229458E-01 0.  0.
         14    1    1    2    0    0  0.20533520878E-01  0.86487471141E-02 -0.84928180302E-02  0.23844375949E-01  0.00000000000E+00 0.  1.
     999901    1    3    3    0    0  0.61638645529E-01  0.51813746750E-01  0.87077713295E-01  0.88795637006E+00  0.88000000000E+00 0. -1.
        -11    1    4    4    0    0 -0.33211681097E-01 -0.10491372752E-01 -0.16292286502E-01  0.38454965661E-01  0.51100000000E-03 0. -1.
         11    1    4    4    0    0 -0.48960485310E-01 -0.49971121112E-01 -0.62292608762E-01  0.93674288331E-01  0.51100000000E-03 0.  1.
</event>
<event>
 8    1  0.1114447E+005  0.1043930E+01  0.7957747E-01            NaN
         13   -1    0    0    0    0  0.00000000000E+00  0.00000000000E+00  0.74505805969E-08  0.10566000000E+00  0.10566000000E+00 0.  1.
     999900   -1    0    0    0    0 -0.00000000000E+00 -0.00000000000E+00 -0.74505805969E-08  0.93827000000E+00  0.93827000000E+00 0.  1.
     999902    2    1    2    0    0 -0.15931544953E-01  0.15520505420E-01  0.68259170018E-02  0.10206642880E+01  0.10203990863E+01 0.  0.
     999903    2    3    3    0    0  0.38505377398E-01 -0.99989188610E-01  0.69314716909E-01  0.12925488818E+00  0.20537629143E-01 0.  0.
         14    1    1    2    0    0  0.15931544953E-01 -0.15520505420E-01 -0.68259170018E-02  0.23265712025E-01  0.00000000000E+00 0. -1.
     999901    1    3    3    0    0 -0.54436922351E-01  0.11550969403E+00 -0.62488799907E-01  0.89140939980E+00  0.88000000000E+00 0.  1.
        -11    1    4    4    0    0  0.36498688704E-01 -0.71205283660E-01  0.47227372633E-01  0.92914113810E-01  0.51100000000E-03 0. -1.
         11    1    4    4    0    0  0.20066886946E-02 -0.28783904949E-01  0.22087344276E-01  0.36340774370E-01  0.51100000000E-03 0.  1.
</event>
<event>
 8    1  0.1114447E+005  0.1043930E+01  0.7957747E-01            NaN
         13   -1    0    0    0    0  0.00000000000E+00  0.00000000000E+00  0.74505805969E-08  0.10566000000E+00  0.10566000000E+00 0. -1.
     999900   -1    0    0    0    0 -0.00000000000E+00 -0.00000000000E+00 -0.74505805969E-08  0.93827000000E+00  0.93827000000E+00 0.  1.
     999902    2    1    2    0    0 -0.28678801148E-02 -0.19435043320E-02  0.23360597025E-01  0.10203139157E+01  0.10200405713E+01 0.  0.
     999903    2    3    3    0    0 -0.53809720176E-01 -0.93981426148E-01 -0.67902100922E-01  0.12936221656E+00  0.19897068064E-01 0.  0.
         14    1    1    2    0    0  0.28678801148E-02  0.19435043320E-02 -0.23360597025E-01  0.23616084324E-01  0.00000000000E+00 0.  1.
     999901    1    3    3    0    0  0.50941840061E-01  0.92037921816E-01  0.91262697947E-01  0.89095169912E+00  0.88000000000E+00 0. -1.
        -11    1    4    4    0    0 -0.38764688768E-01 -0.80646030349E-01 -0.60103170362E-01  0.10779209394E+00  0.51100000000E-03 0. -1.
         11    1    4    4    0    0 -0.15045031408E-01 -0.13335395798E-01 -0.77989305592E-02  0.21570122624E-01  0.51100000000E-03 0.  1.
</event>
<event>
 8    1  0.1114447E+005  0.1043930E+01  0.7957747E-01            NaN
         13   -1    0    0    0    0  0.00000000000E+00  0.00000000000E+00  0.74505805969E-08  0.10566000000E+00  0.10566000000E+00 0. -1.
     999900   -1    0    0    0    0 -0.00000000000E+00 -0.00000000000E+00 -0.74505805969E-08  0.93827000000E+00  0.93827000000E+00 0. -1.
     999902    2    1    2    0    0  0.53721641654E-02  0.19658924938E-01 -0.12547080498E-01  0.10199975386E+01  0.10197167333E+01 0.  0.
     999903    2    3    3    0    0 -0.83789455822E-01 -0.78619862266E-01  0.52229988800E-01  0.12769457261E+00  0.19395269876E-01 0.  0.
         14    1    1    2    0    0 -0.53721641654E-02 -0.19658924938E-01  0.12547080498E-01  0.23932461356E-01  0.00000000000E+00 0. -1.
     999901    1    3    3    0    0  0.89161619987E-01  0.98278787203E-01 -0.64777069298E-01  0.89230296604E+00  0.88000000000E+00 0. -1.
        -11    1    4    4    0    0 -0.30594743773E-01 -0.31367196991E-01  0.30164552140E-01  0.53198690965E-01  0.51100000000E-03 0.  1.
         11    1    4    4    0    0 -0.53194712049E-01 -0.47252665275E-01  0.22065436660E-01  0.74495881641E-01  0.51100000000E-03 0. -1.
</event>
<event>
 8    1  0.1114447E+005  0.1043930E+01  0.7957747E-01            NaN
         13   -1    0    0    0    0  0.00000000000E+00  0.00000000000E+00  0.74505805969E-08  0.10566000000E+00  0.10566000000E+00 0.  1.
     999900   -1    0    0    0    0 -0.00000000000E+00 -0.00000000000E+00 -0.74505805969E-08  0.93827000000E+00  0.93827000000E+00 0. -1.
     999902    2    1    2    0    0 -0.25754720247E-01 -0.94354335709E-02  0.12371769186E-02  0.10164734229E+01  0.10161025321E+01 0.  0.
     999903    2    3    3    0    0  0.25183705407E-01  0.61799257205E-01 -0.10470954259E+00  0.12580299461E+00  0.20222213882E-01 0.  0.
         14    1    1    2    0    0  0.25754720247E-01  0.94354335709E-02 -0.12371769186E-02  0.27456577142E-01  0.00000000000E+00 0. -1.
     999901    1    3    3    0    0 -0.50938425654E-01 -0.71234690776E-01  0.10594671951E+00  0.89067042825E+00  0.88000000000E+00 0.  1.
        -11    1    4    4    0    0  0.11662861952E-01  0.47587274594E-01 -0.84194025544E-01  0.97413890747E-01  0.51100000000E-03 0.  1.
         11    1    4    4    0    0  0.13520843456E-01  0.14211982610E-01 -0.20515517048E-01  0.28389103864E-01  0.51100000000E-03 0. -1.
</event>
<event>
 8    1  0.1114447E+005  0.1043930E+01  0.7957747E-01            NaN
         13   -1    0    0    0    0  0.00000000000E+00  0.00000000000E+00  0.74505805969E-08  0.10566000000E+00  0.10566000000E+00 0.  1.
     999900   -1    0    0    0    0 -0.00000000000E+00 -0.00000000000E+00 -0.74505805969E-08  0.93827000000E+00  0.93827000000E+00 0. -1.
     999902    2    1    2    0    0 -0.10595014000E-01 -0.12302629563E-01  0.17742667663E-01  0.10198798176E+01  0.10195962099E+01 0.  0.
     999903    2    3    3    0    0  0.10312906184E+00 -0.48063754232E-01 -0.57227572831E-01  0.12868255529E+00  0.18397746462E-01 0.  0.
         14    1    1    2    0    0  0.10595014000E-01  0.12302629563E-01 -0.17742667663E-01  0.24050182362E-01  0.00000000000E+00 0. -1.
     999901    1    3    3    0    0 -0.11372407584E+00  0.35761124669E-01  0.74970240494E-01  0.89119726235E+00  0.88000000000E+00 0.  1.
        -11    1    4    4    0    0  0.58454186879E-01 -0.19072464425E-01 -0.36668190968E-01  0.71592375382E-01  0.51100000000E-03 0.  1.
         11    1    4    4    0    0  0.44674874965E-01 -0.28991289807E-01 -0.20559381863E-01  0.57090179904E-01  0.51100000000E-03 0. -1.
</event>
<event>
 8    1  0.1114447E+005  0.1043930E+01  0.7957747E-01            NaN
         13   -1    0    0    0    0  0.00000000000E+00  0.00000000000E+00  0.74505805969E-08  0.10566000000E+00  0.10566000000E+00 0. -1.
     999900   -1    0    0    0    0 -0.00000000000E+00 -0.00000000000E+00 -0.74505805969E-08  0.93827000000E+00  0.93827000000E+00 0.  1.
     999902    2    1    2    0    0  0.15955996925E-01  0.75357763886E-02 -0.38376824802E-02  0.10258714959E+01  0.10257125409E+01 0.  0.
     999903    2    3    3    0    0 -0.12948175064E-01 -0.13159300486E+00 -0.13119408965E-01  0.13442412259E+00  0.20331052032E-01 0.  0.
         14    1    1    2    0    0 -0.15955996925E-01 -0.75357763886E-02  0.38376824802E-02  0.18058504103E-01  0.00000000000E+00 0. -1.
     999901    1    3    3    0    0  0.28904171989E-01  0.13912878125E+00  0.92817264852E-02  0.89144737331E+00  0.88000000000E+00 0.  1.
        -11    1    4    4    0    0 -0.21222031674E-02 -0.10306466521E+00 -0.13016218049E-01  0.10390626552E+00  0.51100000000E-03 0.  1.
         11    1    4    4    0    0 -0.10825971897E-01 -0.28528339648E-01 -0.10319091651E-03  0.30517857067E-01  0.51100000000E-03 0. -1.
</event>
<event>
 8    1  0.1114447E+005  0.1043930E+01  0.7957747E-01            NaN
         13   -1    0    0    0    0  0.00000000000E+00  0.00000000000E+00  0.74505805969E-08  0.10566000000E+00  0.10566000000E+00 0.  1.
     999900   -1    0    0    0    0 -0.00000000000E+00 -0.00000000000E+00 -0.74505805969E-08  0.93827000000E+00  0.93827000000E+00 0. -1.
     999902    2    1    2    0    0  0.15511261303E-01  0.20902591717E-02  0.16399016146E-01  0.10212607225E+01  0.10210090926E+01 0.  0.
     999903    2    3    3    0    0  0.11881424007E-01 -0.18601857761E-01 -0.12625651988E+00  0.12952536863E+00  0.18679265476E-01 0.  0.
         14    1    1    2    0    0 -0.15511261303E-01 -0.20902591717E-02 -0.16399016146E-01  0.22669277473E-01  0.00000000000E+00 0. -1.
     999901    1    3    3    0    0  0.36298372951E-02  0.20692116933E-01  0.14265553603E+00  0.89173535389E+00  0.88000000000E+00 0.  1.
        -11    1    4    4    0    0  0.50758314057E-02 -0.21519081523E-02 -0.76093616731E-01  0.76294786200E-01  0.51100000000E-03 0. -1.
         11    1    4    4    0    0  0.68055926018E-02 -0.16449949609E-01 -0.50162903151E-01  0.53230582434E-01  0.51100000000E-03 0.  1.
</event>
<event>
 8    1  0.1114447E+005  0.1043930E+01  0.7957747E-01            NaN
         13   -1    0    0    0    0  0.00000000000E+00  0.00000000000E+00  0.74505805969E-08  0.10566000000E+00  0.10566000000E+00 0.  1.
     999900   -1    0    0    0    0 -0.00000000000E+00 -0.00000000000E+00 -0.74505805969E-08  0.93827000000E+00  0.93827000000E+00 0. -1.
     999902    2    1    2    0    0  0.50723810789E-02 -0.23576299634E-01 -0.10850027004E-01  0.10174858316E+01  0.10171421354E+01 0.  0.
     999903    2    3    3    0    0  0.77301632091E-01 -0.62557882812E-01  0.79778349253E-01  0.12903204493E+00  0.19891017685E-01 0.  0.
         14    1    1    2    0    0 -0.50723810789E-02  0.23576299634E-01  0.10850027004E-01  0.26444168360E-01  0.00000000000E+00 0.  1.
     999901    1    3    3    0    0 -0.72229251013E-01  0.38981583178E-01 -0.90628376257E-01  0.88845378671E+00  0.88000000000E+00 0. -1.
        -11    1    4    4    0    0  0.16233382974E-01 -0.18174377328E-01  0.10400513703E-01  0.26500236231E-01  0.51100000000E-03 0. -1.
         11    1    4    4    0    0  0.61068249117E-01 -0.44383505484E-01  0.69377835550E-01  0.10253180870E+00  0.51100000000E-03 0.  1.
</event>
<event>
 7    1  0.1114447E+005  0.1043930E+01  0.7957747E-01            NaN
         13   -1    0    0    0    0  0.00000000000E+00  0.00000000000E+00  0.74505805969E-08  0.10566000000E+00  0.10566000000E+00 0. -1.
     999900   -1    0    0    0    0 -0.00000000000E+00 -0.00000000000E+00 -0.74505805969E-08  0.93827000000E+00  0.93827000000E+00 0. -1.
     999903    2    1    2    0    0 -0.24573250244E-01  0.83049015471E-01 -0.61837943102E-01  0.10821991127E+00  0.19663020897E-01 0.  0.
         14    1    1    2    0    0 -0.22770998295E-01 -0.40129485550E-01 -0.18569820486E-01  0.49736628422E-01  0.00000000000E+00 0.  1.
     999901    1    1    2    0    0  0.47344248539E-01 -0.42919529921E-01  0.80407763588E-01  0.88597346030E+00  0.88000000000E+00 0.  1.
        -11    1    3    3    0    0 -0.21314895526E-01  0.37705066925E-01 -0.31639900229E-01  0.53640854305E-01  0.51100000000E-03 0.  1.
         11    1    3    3    0    0 -0.32583547178E-02  0.45343948546E-01 -0.30198042873E-01  0.54579056968E-01  0.51100000000E-03 0. -1.
</event>
<event>
 8    1  0.1114447E+005  0.1043930E+01  0.7957747E-01            NaN
         13   -1    0    0    0    0  0.00000000000E+00  0.00000000000E+00  0.74505805969E-08  0.10566000000E+00  0.10566000000E+00 0.  1.
     999900   -1    0    0    0    0 -0.00000000000E+00 -0.00000000000E+00 -0.74505805969E-08  0.93827000000E+00  0.93827000000E+00 0.  1.
     999902    2    1    2    0    0 -0.68003185599E-02 -0.38970626310E-02  0.36041543639E-01  0.10070460699E+01  0.10063703904E+01 0.  0.
     999903    2    3    3    0    0  0.91026305551E-01 -0.72825747841E-01  0.46418171741E-02  0.11839138173E+00  0.20139388051E-01 0.  0.
         14    1    1    2    0    0  0.68003185599E-02  0.38970626310E-02 -0.36041543639E-01  0.36883930072E-01  0.00000000000E+00 0. -1.
     999901    1    3    3    0    0 -0.97826624110E-01  0.68928685210E-01  0.31399726465E-01  0.88865468820E+00  0.88000000000E+00 0.  1.
        -11    1    4    4    0    0  0.20524739539E-01 -0.18323571589E-01  0.95867246306E-02  0.29140772451E-01  0.51100000000E-03 0.  1.
         11    1    4    4    0    0  0.70501566012E-01 -0.54502176253E-01 -0.49449074565E-02  0.89250609281E-01  0.51100000000E-03 0. -1.
</event>
<event>
 8    1  0.1114447E+005  0.1043930E+01  0.7957747E-01            NaN
         13   -1    0    0    0    0  0.00000000000E+00  0.00000000000E+00  0.74505805969E-08  0.10566000000E+00  0.10566000000E+00 0.  1.
     999900   -1    0    0    0    0 -0.00000000000E+00 -0.00000000000E+00 -0.74505805969E-08  0.93827000000E+00  0.93827000000E+00 0.  1.
     999902    2    1    2    0    0  0.11904890701E-01 -0.18885680273E-01  0.53569447985E-02  0.10209715114E+01  0.10207133461E+01 0.  0.
     999903    2    3    3    0    0  0.45187726712E-01  0.11911749701E+00 -0.11559635117E-01  0.12943419035E+00  0.19714860608E-01 0.  0.
         14    1    1    2    0    0 -0.11904890701E-01  0.18885680273E-01 -0.53569447985E-02  0.22958488616E-01  0.00000000000E+00 0.  1.
     999901    1    3    3    0    0 -0.33282836011E-01 -0.13800317728E+00  0.16916579915E-01  0.89153732103E+00  0.88000000000E+00 0. -1.
        -11    1    4    4    0    0  0.17803743633E-01  0.66696311641E-01  0.67604894860E-03  0.69036870127E-01  0.51100000000E-03 0. -1.
         11    1    4    4    0    0  0.27383983079E-01  0.52421185371E-01 -0.12235684065E-01  0.60397320226E-01  0.51100000000E-03 0.  1.
</event>
<event>
 8    1  0.1114447E+005  0.1043930E+01  0.7957747E-01            NaN
         13   -1    0    0    0    0  0.00000000000E+00  0.00000000000E+00  0.74505805969E-08  0.10566000000E+00  0.10566000000E+00 0.  1.
     999900   -1    0    0    0    0 -0.00000000000E+00 -0.00000000000E+00 -0.74505805969E-08  0.93827000000E+00  0.93827000000E+00 0.  1.
     999902    2    1    2    0    0 -0.37836869756E-02 -0.15209346914E-01 -0.16063549428E-01  0.10214872252E+01  0.10212406539E+01 0.  0.
     999903    2    3    3    0    0 -0.98730908178E-01  0.16033593591E-01 -0.85711698061E-01  0.13309431620E+00  0.19045562932E-01 0.  0.
         14    1    1    2    0    0  0.37836869756E-02  0.15209346914E-01  0.16063549428E-01  0.22442774804E-01  0.00000000000E+00 0.  1.
     999901    1    3    3    0    0  0.94947221202E-01 -0.31242940505E-01  0.69648148634E-01  0.88839290900E+00  0.88000000000E+00 0. -1.
        -11    1    4    4    0    0 -0.30489263136E-01  0.12410892716E-01 -0.21500147493E-01  0.39321023484E-01  0.51100000000E-03 0. -1.
         11    1    4    4    0    0 -0.68241645042E-01  0.36227008752E-02 -0.64211550568E-01  0.93773292717E-01  0.51100000000E-03 0.  1.
</event>
<event>
 8    1  0.1114447E+005  0.1043930E+01  0.7957747E-01            NaN
         13   -1    0    0    0    0  0.00000000000E+00  0.00000000000E+00  0.74505805969E-08  0.10566000000E+00  0.10566000000E+00 0.  1.
     999900   -1    0    0    0    0 -0.00000000000E+00 -0.00000000000E+00 -0.74505805969E-08  0.93827000000E+00  0.93827000000E+00 0.  1.
     999902    2    1    2    0    0  0.90119913625E-02  0.13213571706E-01 -0.12599582364E-01  0.10235691567E+01  0.10233666276E+01 0.  0.
     999903    2    3    3    0    0 -0.23845770395E-01 -0.12675254585E+00  0.15812129941E-01  0.13144956156E+00  0.19852837017E-01 0.  0.
         14    1    1    2    0    0 -0.90119913625E-02 -0.13213571706E-01  0.12599582364E-01  0.20360843334E-01  0.00000000000E+00 0.  1.
     999901    1    3    3    0    0  0.32857761757E-01  0.13996611755E+00 -0.28411712305E-01  0.89211959510E+00  0.88000000000E+00 0. -1.
        -11    1    4    4    0    0 -0.42022946022E-02 -0.64322956448E-01  0.14056880201E-01  0.65976958160E-01  0.51100000000E-03 0.  1.
         11    1    4    4    0    0 -0.19643475793E-01 -0.62429589398E-01  0.17552497405E-02  0.65472603403E-01  0.51100000000E-03 0. -1.
</event>
<event>
 8    1  0.1114447E+005  0.1043930E+01  0.7957747E-01            NaN
         13   -1    0    0    0    0  0.00000000000E+00  0.00000000000E+00  0.74505805969E-08  0.10566000000E+00  0.10566000000E+00 0.  1.
     999900   -1    0    0    0    0 -0.00000000000E+00 -0.00000000000E+00 -0.74505805969E-08  0.93827000000E+00  0.93827000000E+00 0. -1.
     999902    2    1    2    0    0  0.13005953916E-01 -0.10084892385E-01 -0.17868377070E-01  0.10196372276E+01  0.10193477999E+01 0.  0.
     999903    2    3    3    0    0 -0.59121615912E-01  0.71458353902E-01 -0.88998360265E-01  0.13008050549E+00  0.19964167108E-01 0.  0.
         14    1    1    2    0    0 -0.13005953916E-01  0.10084892385E-01  0.17868377070E-01  0.24292772398E-01  0.00000000000E+00 0.  1.
     999901    1    3    3    0    0  0.72127569827E-01 -0.81543246286E-01  0.71129983195E-01  0.88955672211E+00  0.88000000000E+00 0.  1.
        -11    1    4    4    0    0 -0.56069151738E-01  0.67796638050E-01 -0.76119563426E-01  0.11633822658E+00  0.51100000000E-03 0. -1.
         11    1    4    4    0    0 -0.30524641742E-02  0.36617158514E-02 -0.12878796840E-01  0.13742278907E-01  0.51100000000E-03 0.  1.
</event>
<event>
 8    1  0.1114447E+005  0.1043930E+01  0.7957747E-01            NaN
         13   -1    0    0    0    0  0.00000000000E+00  0.00000000000E+00  0.74505805969E-08  0.10566000000E+00  0.10566000000E+00 0. -1.
     999900   -1    0    0    0    0 -0.00000000000E+00 -0.00000000000E+00 -0.74505805969E-08  0.93827000000E+00  0.93827000000E+00 0.  1.
     999902    2    1    2    0    0 -0.10934551170E-01  0.72586694655E-02  0.24201690272E-01  0.10163986632E+01  0.10160257222E+01 0.  0.
     999903    2    3    3    0    0  0.81661670192E-01  0.38966068139E-01 -0.83316809574E-01  0.12446837048E+00  0.19070963445E-01 0.  0.
         14    1    1    2    0    0  0.10934551170E-01 -0.72586694655E-02 -0.24201690272E-01  0.27531336759E-01  0.00000000000E+00 0.  1.
     999901    1    3    3    0    0 -0.92596221362E-01 -0.31707398673E-01  0.10751849985E+00  0.89193029276E+00  0.88000000000E+00 0. -1.
        -11    1    4    4    0    0  0.56099335862E-01  0.31791370467E-01 -0.68429620892E-01  0.94025001233E-01  0.51100000000E-03 0.  1.
         11    1    4    4    0    0  0.25562334330E-01  0.71746976720E-02 -0.14887188682E-01  0.30443369244E-01  0.51100000000E-03 0. -1.
</event>
<event>
 8    1  0.1114447E+005  0.1043930E+01  0.7957747E-01            NaN
         13   -1    0    0    0    0  0.00000000000E+00  0.00000000000E+00  0.74505805969E-08  0.10566000000E+00  0.10566000000E+00 0.  1.
     999900   -1    0    0    0    0 -0.00000000000E+00 -0.00000000000E+00 -0.74505805969E-08  0.93827000000E+00  0.93827000000E+00 0. -1.
     999902    2    1    2    0    0  0.72380425041E-02  0.11960325212E-01  0.18224263688E-01  0.10209612729E+01  0.10207028746E+01 0.  0.
     999903    2    3    3    0    0  0.47860775057E-01 -0.11214586517E+00  0.43281779481E-01  0.13097226621E+00  0.20324202765E-01 0.  0.
         14    1    1    2    0    0 -0.72380425041E-02 -0.11960325212E-01 -0.18224263688E-01  0.22968727119E-01  0.00000000000E+00 0. -1.
     999901    1    3    3    0    0 -0.40622732553E-01  0.12410619038E+00 -0.25057515792E-01  0.88998900667E+00  0.88000000000E+00 0. -1.
        -11    1    4    4    0    0  0.13364007281E-01 -0.56477318189E-01  0.22721436355E-01  0.62328235588E-01  0.51100000000E-03 0. -1.
         11    1    4    4    0    0  0.34496767776E-01 -0.55668546982E-01  0.20560343125E-01  0.68644030626E-01  0.51100000000E-03 0.  1.
</event>
<event>
 8    1  0.1114447E+005  0.1043930E+01  0.7957747E-01            NaN
         13   -1    0    0    0    0  0.00000000000E+00  0.00000000000E+00  0.74505805969E-08  0.10566000000E+00  0.10566000000E+00 0.  1.
     999900   -1    0    0    0    0 -0.00000000000E+00 -0.00000000000E+00 -0.74505805969E-08  0.93827000000E+00  0.93827000000E+00 0. -1.
     999902    2    1    2    0    0  0.16952601300E-01  0.10118297061E-01 -0.17884653522E-01  0.10172910913E+01  0.10169422466E+01 0.  0.
     999903    2    3    3    0    0 -0.30988505025E-02  0.10230531196E+00 -0.77753449614E-01  0.13022582920E+00  0.20909039557E-01 0.  0.
         14    1    1    2    0    0 -0.16952601300E-01 -0.10118297061E-01  0.17884653522E-01  0.26638908721E-01  0.00000000000E+00 0.  1.
     999901    1    3    3    0    0  0.20051451803E-01 -0.92187014899E-01  0.59868796092E-01  0.88706526208E+00  0.88000000000E+00 0.  1.
        -11    1    4    4    0    0 -0.24345099495E-02  0.11985557567E-01 -0.18562957667E-01  0.22235668356E-01  0.51100000000E-03 0.  1.
         11    1    4    4    0    0 -0.66434055304E-03  0.90319754393E-01 -0.59190491947E-01  0.10799016085E+00  0.51100000000E-03 0. -1.
</event>
<event>
 8    1  0.1114447E+005  0.1043930E+01  0.7957747E-01            NaN
         13   -1    0    0    0    0  0.00000000000E+00  0.00000000000E+00  0.74505805969E-08  0.10566000000E+00  0.10566000000E+00 0. -1.
     999900   -1    0    0    0    0 -0.00000000000E+00 -0.00000000000E+00 -0.74505805969E-08  0.93827000000E+00  0.93827000000E+00 0.  1.
     999902    2    1    2    0    0  0.11780946464E-01 -0.19757750252E-01 -0.18338745834E-02  0.10208535512E+01  0.10205926957E+01 0.  0.
     999903    2    3    3    0    0 -0.10599153521E+00 -0.61061979384E-01  0.42047434334E-01  0.13096481315E+00  0.20518886074E-01 0.  0.
         14    1    1    2    0    0 -0.11780946464E-01  0.19757750252E-01  0.18338745834E-02  0.23076448830E-01  0.00000000000E+00 0.  1.
     999901    1    3    3    0    0  0.11777248168E+00  0.41304229132E-01 -0.43881308918E-01  0.88988873802E+00  0.88000000000E+00 0.  1.
        -11    1    4    4    0    0 -0.12980249295E-01 -0.42335299655E-03  0.45579650043E-02  0.13773244553E-01  0.51100000000E-03 0.  1.
         11    1    4    4    0    0 -0.93011285919E-01 -0.60638626387E-01  0.37489469330E-01  0.11719156860E+00  0.51100000000E-03 0. -1.
</event>
<event>
 8    1  0.1114447E+005  0.1043930E+01  0.7957747E-01            NaN
         13   -1    0    0    0    0  0.00000000000E+00  0.00000000000E+00  0.74505805969E-08  0.10566000000E+00  0.10566000000E+00 0.  1.
     999900   -1    0    0    0    0 -0.00000000000E+00 -0.00000000000E+00 -0.74505805969E-08  0.93827000000E+00  0.93827000000E+00 0. -1.
     999902    2    1    2    0    0  0.16179329535E-01  0.16370088335E-01  0.75751931723E-02  0.10196991509E+01  0.10194112145E+01 0.  0.
     999903    2    3    3    0    0 -0.10212614267E+00  0.57454783538E-01 -0.50180643060E-01  0.12895795754E+00  0.19525795967E-01 0.  0.
         14    1    1    2    0    0 -0.16179329535E-01 -0.16370088335E-01 -0.75751931723E-02  0.24230849096E-01  0.00000000000E+00 0.  1.
     999901    1    3    3    0    0  0.11830547220E+00 -0.41084695203E-01  0.57755836232E-01  0.89074119336E+00  0.88000000000E+00 0.  1.
        -11    1    4    4    0    0 -0.19381535188E-01  0.20228588332E-01 -0.13273285465E-01  0.31004530640E-01  0.51100000000E-03 0. -1.
         11    1    4    4    0    0 -0.82744607479E-01  0.37226195206E-01 -0.36907357595E-01  0.97953426903E-01  0.51100000000E-03 0.  1.
</event>
<event>
 7    1  0.1143753E+005  0.1043930E+01  0.7957747E-01            NaN
         13   -1    0    0    0    0  0.00000000000E+00  0.00000000000E+00  0.74505805969E-08  0.10566000000E+00  0.10566000000E+00 0. -1.
     999900   -1    0    0    0    0 -0.00000000000E+00 -0.00000000000E+00 -0.74505805969E-08  0.93827000000E+00  0.93827000000E+00 0. -1.
     999903    2    1    2    0    0 -0.42028868771E-01 -0.49954447084E-01  0.59596970289E-02  0.68552870899E-01  0.20052569067E-01 0.  0.
         14    1    1    2    0    0  0.59177834477E-01 -0.51126922488E-01  0.40768702735E-01  0.88193341127E-01  0.00000000000E+00 0. -1.
     999901    1    1    2    0    0 -0.17148965706E-01  0.10108136957E+00 -0.46728399764E-01  0.88718378797E+00  0.88000000000E+00 0.  1.
        -11    1    3    3    0    0 -0.13896353416E-01 -0.16953019033E-01  0.11622724567E-01  0.24816573897E-01  0.51100000000E-03 0.  1.
         11    1    3    3    0    0 -0.28132515355E-01 -0.33001428050E-01 -0.56630275382E-02  0.43736297002E-01  0.51100000000E-03 0. -1.
</event>
<event>
 8    1  0.1114447E+005  0.1043930E+01  0.7957747E-01            NaN
         13   -1    0    0    0    0  0.00000000000E+00  0.00000000000E+00  0.74505805969E-08  0.10566000000E+00  0.10566000000E+00 0. -1.
     999900   -1    0    0    0    0 -0.00000000000E+00 -0.00000000000E+00 -0.74505805969E-08  0.93827000000E+00  0.93827000000E+00 0. -1.
     999902    2    1    2    0    0 -0.98781060103E-02 -0.91144023648E-02  0.18432892211E-01  0.10211172662E+01  0.10208624053E+01 0.  0.
     999903    2    3    3    0    0 -0.13267377388E-01 -0.85134614332E-01 -0.96196284825E-01  0.13042629395E+00  0.18258342753E-01 0.  0.
         14    1    1    2    0    0  0.98781060103E-02  0.91144023648E-02 -0.18432892211E-01  0.22812733814E-01  0.00000000000E+00 0.  1.
     999901    1    3    3    0    0  0.33892713776E-02  0.76020211968E-01  0.11462917704E+00  0.89069097223E+00  0.88000000000E+00 0.  1.
        -11    1    4    4    0    0 -0.16382483960E-01 -0.46517180489E-01 -0.52950479850E-01  0.72361925753E-01  0.51100000000E-03 0. -1.
         11    1    4    4    0    0  0.31151065723E-02 -0.38617433843E-01 -0.43245804975E-01  0.58064368200E-01  0.51100000000E-03 0.  1.
</event>
<event>
 8    1  0.1114447E+005  0.1043930E+01  0.7957747E-01            NaN
         13   -1    0    0    0    0  0.00000000000E+00  0.00000000000E+00  0.74505805969E-08  0.10566000000E+00  0.10566000000E+00 0.  1.
     999900   -1    0    0    0    0 -0.00000000000E+00 -0.00000000000E+00 -0.74505805969E-08  0.93827000000E+00  0.93827000000E+00 0. -1.
     999902    2    1    2    0    0  0.13398337361E-02  0.24385418788E-01  0.15614089536E-02  0.10194579383E+01  0.10191641704E+01 0.  0.
     999903    2    3    3    0    0 -0.12820298885E-01  0.10802530535E+00  0.73359193121E-01  0.13246805013E+00  0.18231468132E-01 0.  0.
         14    1    1    2    0    0 -0.13398337361E-02 -0.24385418788E-01 -0.15614089536E-02  0.24472061659E-01  0.00000000000E+00 0. -1.
     999901    1    3    3    0    0  0.14160132621E-01 -0.83639886562E-01 -0.71797784167E-01  0.88698988821E+00  0.88000000000E+00 0. -1.
        -11    1    4    4    0    0 -0.13846757693E-01  0.54853165258E-01  0.31259823241E-01  0.64637760693E-01  0.51100000000E-03 0.  1.
         11    1    4    4    0    0  0.10264588077E-02  0.53172140092E-01  0.42099369880E-01  0.67830289436E-01  0.51100000000E-03 0. -1.
</event>
<event>
 8    1  0.1114447E+005  0.1043930E+01  0.7957747E-01            NaN
         13   -1    0    0    0    0  0.00000000000E+00  0.00000000000E+00  0.74505805969E-08  0.10566000000E+00  0.10566000000E+00 0. -1.
     999900   -1    0    0    0    0 -0.00000000000E+00 -0.00000000000E+00 -0.74505805969E-08  0.93827000000E+00  0.93827000000E+00 0. -1.
     999902    2    1    2    0    0 -0.12111861541E-01  0.17115603436E-01 -0.11108022198E-01  0.10202017631E+01  0.10199257856E+01 0.  0.
     999903    2    3    3    0    0 -0.96873591775E-02  0.64355213045E-01 -0.11422043250E+00  0.13291960496E+00  0.19643721857E-01 0.  0.
         14    1    1    2    0    0  0.12111861541E-01 -0.17115603436E-01  0.11108022198E-01  0.23728236937E-01  0.00000000000E+00 0.  1.
     999901    1    3    3    0    0 -0.24245023635E-02 -0.47239609608E-01  0.10311241030E+00  0.88728215810E+00  0.88000000000E+00 0.  1.
        -11    1    4    4    0    0 -0.15256543104E-01  0.46947962366E-01 -0.77286364564E-01  0.91707778003E-01  0.51100000000E-03 0. -1.
         11    1    4    4    0    0  0.55691839268E-02  0.17407250679E-01 -0.36934067937E-01  0.41211826958E-01  0.51100000000E-03 0.  1.
</event>
<event>
 8    1  0.1114447E+005  0.1043930E+01  0.7957747E-01            NaN
         13   -1    0    0    0    0  0.00000000000E+00  0.00000000000E+00  0.74505805969E-08  0.10566000000E+00  0.10566000000E+00 0.  1.
     999900   -1    0    0    0    0 -0.00000000000E+00 -0.00000000000E+00 -0.74505805969E-08  0.93827000000E+00  0.93827000000E+00 0.  1.
     999902    2    1    2    0    0 -0.27076422576E-03  0.16678064763E-01 -0.16817586028E-01  0.10202432451E+01  0.10199682431E+01 0.  0.
     999903    2    3    3    0    0 -0.43476378274E-01 -0.10319746948E+00 -0.62839027980E-01  0.12987543239E+00  0.19467185887E-01 0.  0.
         14    1    1    2    0    0  0.27076422576E-03 -0.16678064763E-01  0.16817586028E-01  0.23686754892E-01  0.00000000000E+00 0.  1.
     999901    1    3    3    0    0  0.43205614048E-01  0.11987553425E+00  0.46021441952E-01  0.89036781271E+00  0.88000000000E+00 0.  1.
        -11    1    4    4    0    0 -0.25623715818E-01 -0.61238832515E-01 -0.26162787250E-01  0.71354901569E-01  0.51100000000E-03 0.  1.
         11    1    4    4    0    0 -0.17852662456E-01 -0.41958636969E-01 -0.36676240730E-01  0.58520530826E-01  0.51100000000E-03 0. -1.
</event>
<event>
 8    1  0.1114447E+005  0.1043930E+01  0.7957747E-01            NaN
         13   -1    0    0    0    0  0.00000000000E+00  0.00000000000E+00  0.74505805969E-08  0.10566000000E+00  0.10566000000E+00 0.  1.
     999900   -1    0    0    0    0 -0.00000000000E+00 -0.00000000000E+00 -0.74505805969E-08  0.93827000000E+00  0.93827000000E+00 0.  1.
     999902    2    1    2    0    0 -0.78014707004E-02 -0.11573804770E-01  0.19443827684E-01  0.10199951230E+01  0.10197142603E+01 0.  0.
     999903    2    3    3    0    0 -0.67938937864E-01 -0.98417942538E-01 -0.49437560033E-01  0.13100521035E+00  0.20408383213E-01 0.  0.
         14    1    1    2    0    0  0.78014707004E-02  0.11573804770E-01 -0.19443827684E-01  0.23934876999E-01  0.00000000000E+00 0. -1.
     999901    1    3    3    0    0  0.60137467163E-01  0.86844137768E-01  0.68881387717E-01  0.88898991265E+00  0.88000000000E+00 0. -1.
        -11    1    4    4    0    0 -0.64475375046E-01 -0.82126814022E-01 -0.39703517335E-01  0.11170728704E+00  0.51100000000E-03 0. -1.
         11    1    4    4    0    0 -0.34635628179E-02 -0.16291128516E-01 -0.97340426986E-02  0.19297923307E-01  0.51100000000E-03 0.  1.
</event>
<event>
 8    1  0.1114447E+005  0.1043930E+01  0.7957747E-01            NaN
         13   -1    0    0    0    0  0.00000000000E+00  0.00000000000E+00  0.74505805969E-08  0.10566000000E+00  0.10566000000E+00 0. -1.
     999900   -1    0    0    0    0 -0.00000000000E+00 -0.00000000000E+00 -0.74505805969E-08  0.93827000000E+00  0.93827000000E+00 0. -1.
     999902    2    1    2    0    0  0.44681140282E-02 -0.46841006884E-02 -0.23044243879E-01  0.10199937927E+01  0.10197128984E+01 0.  0.
     999903    2    3    3    0    0 -0.39353391083E-01  0.17474586015E-01  0.11825561235E+00  0.12737014243E+00  0.19614096571E-01 0.  0.
         14    1    1    2    0    0 -0.44681140282E-02  0.46841006884E-02  0.23044243879E-01  0.23936207264E-01  0.00000000000E+00 0. -1.
     999901    1    3    3    0    0  0.43821505111E-01 -0.22158686704E-01 -0.14129985623E+00  0.89262365030E+00  0.88000000000E+00 0. -1.
        -11    1    4    4    0    0 -0.14351074548E-01 -0.23368361530E-02  0.26575127855E-01  0.30297073875E-01  0.51100000000E-03 0. -1.
         11    1    4    4    0    0 -0.25002316535E-01  0.19811422168E-01  0.91680484499E-01  0.97073068559E-01  0.51100000000E-03 0.  1.
</event>
<event>
 8    1  0.1114447E+005  0.1043930E+01  0.7957747E-01            NaN
         13   -1    0    0    0    0  0.00000000000E+00  0.00000000000E+00  0.74505805969E-08  0.10566000000E+00  0.10566000000E+00 0.  1.
     999900   -1    0    0    0    0 -0.00000000000E+00 -0.00000000000E+00 -0.74505805969E-08  0.93827000000E+00  0.93827000000E+00 0.  1.
     999902    2    1    2    0    0  0.46837085618E-02 -0.12546933094E-01 -0.21166137334E-01  0.10188826843E+01  0.10185747671E+01 0.  0.
     999903    2    3    3    0    0  0.29325979387E-01  0.10776388012E+00  0.56838935158E-01  0.12693721249E+00  0.20231768049E-01 0.  0.
         14    1    1    2    0    0 -0.46837085618E-02  0.12546933094E-01  0.21166137334E-01  0.25047315737E-01  0.00000000000E+00 0.  1.
     999901    1    3    3    0    0 -0.24642270825E-01 -0.12031081322E+00 -0.78005072492E-01  0.89194547178E+00  0.88000000000E+00 0. -1.
        -11    1    4    4    0    0  0.12678780836E-01  0.55042388216E-01  0.17692121341E-01  0.59191961131E-01  0.51100000000E-03 0. -1.
         11    1    4    4    0    0  0.16647198551E-01  0.52721491906E-01  0.39146813817E-01  0.67745251356E-01  0.51100000000E-03 0.  1.
</event>
<event>
 8    1  0.1114447E+005  0.1043930E+01  0.7957747E-01            NaN
         13   -1    0    0    0    0  0.00000000000E+00  0.00000000000E+00  0.74505805969E-08  0.10566000000E+00  0.10566000000E+00 0.  1.
     999900   -1    0    0    0    0 -0.00000000000E+00 -0.00000000000E+00 -0.74505805969E-08  0.93827000000E+00  0.93827000000E+00 0.  1.
     999902    2    1    2    0    0  0.12830941719E-01 -0.13105826548E-01  0.15454997013E-01  0.10199455741E+01  0.10196635334E+01 0.  0.
     999903    2    3    3    0    0 -0.37725439184E-01 -0.10121606791E+00  0.73477831245E-01  0.13220348788E+00  0.20269912629E-01 0.  0.
         14    1    1    2    0    0 -0.12830941719E-01  0.13105826548E-01 -0.15454997013E-01  0.23984425938E-01  0.00000000000E+00 0. -1.
     999901    1    3    3    0    0  0.50556380902E-01  0.88110241366E-01 -0.58022834232E-01  0.88774208618E+00  0.88000000000E+00 0.  1.
        -11    1    4    4    0    0 -0.96244067433E-02 -0.54790582304E-01  0.36854765895E-01  0.66732091265E-01  0.51100000000E-03 0. -1.
         11    1    4    4    0    0 -0.28101032440E-01 -0.46425485610E-01  0.36623065350E-01  0.65471396617E-01  0.51100000000E-03 0.  1.
</event>
<event>
 8    1  0.1114447E+005  0.1043930E+01  0.7957747E-01            NaN
         13   -1    0    0    0    0  0.00000000000E+00  0.00000000000E+00  0.74505805969E-08  0.10566000000E+00  0.10566000000E+00 0.  1.
     999900   -1    0    0    0    0 -0.00000000000E+00 -0.00000000000E+00 -0.74505805969E-08  0.93827000000E+00  0.93827000000E+00 0. -1.
     999902    2    1    2    0    0 -0.16907554013E-01 -0.15464074388E-01 -0.10310421199E-01  0.10188041614E+01  0.10184942865E+01 0.  0.
     999903    2    3    3    0    0  0.27097898465E-01 -0.68678378675E-01  0.10339001024E+00  0.12880639168E+00  0.21226787817E-01 0.  0.
         14    1    1    2    0    0  0.16907554013E-01  0.15464074388E-01  0.10310421199E-01  0.25125838586E-01  0.00000000000E+00 0.  1.
     999901    1    3    3    0    0 -0.44005452477E-01  0.53214304287E-01 -0.11370043144E+00  0.88999776974E+00  0.88000000000E+00 0. -1.
        -11    1    4    4    0    0  0.45860288979E-02 -0.40004078283E-01  0.57427864632E-01  0.70139708422E-01  0.51100000000E-03 0.  1.
         11    1    4    4    0    0  0.22511869567E-01 -0.28674300392E-01  0.45962145606E-01  0.58666683254E-01  0.51100000000E-03 0. -1.
</event>
<event>
 8    1  0.1114447E+005  0.1043930E+01  0.7957747E-01            NaN
         13   -1    0    0    0    0  0.00000000000E+00  0.00000000000E+00  0.74505805969E-08  0.10566000000E+00  0.10566000000E+00 0.  1.
     999900   -1    0    0    0    0 -0.00000000000E+00 -0.00000000000E+00 -0.74505805969E-08  0.93827000000E+00  0.93827000000E+00 0.  1.
     999902    2    1    2    0    0 -0.15667876892E-01  0.87293929336E-03  0.28457957080E-01  0.10114323122E+01  0.10109100962E+01 0.  0.
     999903    2    3    3    0    0 -0.69977747083E-01  0.10017161187E+00  0.25245323736E-02  0.12380495185E+00  0.19749833581E-01 0.  0.
         14    1    1    2    0    0  0.15667876892E-01 -0.87293929336E-03 -0.28457957080E-01  0.32497687772E-01  0.00000000000E+00 0. -1.
     999901    1    3    3    0    0  0.54309870191E-01 -0.99298672580E-01  0.25933424707E-01  0.88762736038E+00  0.88000000000E+00 0.  1.
        -11    1    4    4    0    0 -0.31351941111E-01  0.42976795054E-01 -0.86187130903E-02  0.53893343381E-01  0.51100000000E-03 0. -1.
         11    1    4    4    0    0 -0.38625805972E-01  0.57194816820E-01  0.11143245464E-01  0.69911608468E-01  0.51100000000E-03 0.  1.
</event>
<event>
 8    1  0.1114447E+005  0.1043930E+01  0.7957747E-01            NaN
         13   -1    0    0    0    0  0.00000000000E+00  0.00000000000E+00  0.74505805969E-08  0.10566000000E+00  0.10566000000E+00 0.  1.
     999900   -1    0    0    0    0 -0.00000000000E+00 -0.00000000000E+00 -0.74505805969E-08  0.93827000000E+00  0.93827000000E+00 0. -1.
     999902    2    1    2    0    0 -0.73368114901E-02  0.19506547276E-01 -0.10865554145E-01  0.10204269267E+01  0.10201562224E+01 0.  0.
     999903    2    3    3    0    0  0.33767981959E-01 -0.46466370969E-01  0.11300683483E+00  0.12835832014E+00  0.20147292492E-01 0.  0.
         14    1    1    2    0    0  0.73368114901E-02 -0.19506547276E-01  0.10865554145E-01  0.23503073338E-01  0.00000000000E+00 0.  1.
     999901    1    3    3    0    0 -0.41104793449E-01  0.65972918245E-01 -0.12387238898E+00  0.89206860652E+00  0.88000000000E+00 0. -1.
        -11    1    4    4    0    0  0.27180208970E-01 -0.20496031245E-01  0.65154566408E-01  0.73513466121E-01  0.51100000000E-03 0.  1.
         11    1    4    4    0    0  0.65877729896E-02 -0.25970339725E-01  0.47852268423E-01  0.54844854021E-01  0.51100000000E-03 0. -1.
</event>
<event>
 8    1  0.1114447E+005  0.1043930E+01  0.7957747E-01            NaN
         13   -1    0    0    0    0  0.00000000000E+00  0.00000000000E+00  0.74505805969E-08  0.10566000000E+00  0.10566000000E+00 0.  1.
     999900   -1    0    0    0    0 -0.00000000000E+00 -0.00000000000E+00 -0.74505805969E-08  0.93827000000E+00  0.93827000000E+00 0.  1.
     999902    2    1    2    0    0 -0.53610749211E-02  0.18966605525E-01 -0.12127601017E-01  0.10207880045E+01  0.10205256480E+01 0.  0.
     999903    2    3    3    0    0 -0.10667353968E+00 -0.41093252973E-01 -0.61786748377E-01  0.13155382104E+00  0.20515994896E-01 0.  0.
         14    1    1    2    0    0  0.53610749211E-02 -0.18966605525E-01  0.12127601017E-01  0.23141995503E-01  0.00000000000E+00 0. -1.
     999901    1    3    3    0    0  0.10131246476E+00  0.60059858498E-01  0.49659147360E-01  0.88923418346E+00  0.88000000000E+00 0. -1.
        -11    1    4    4    0    0 -0.32952414250E-01 -0.37715817598E-02 -0.13236352277E-01  0.35714822924E-01  0.51100000000E-03 0. -1.
         11    1    4    4    0    0 -0.73721125429E-01 -0.37321671213E-01 -0.48550396100E-01  0.95838998113E-01  0.51100000000E-03 0.  1.
</event>
<event>
 8    1  0.1114447E+005  0.1043930E+01  0.7957747E-01            NaN
         13   -1    0    0    0    0  0.00000000000E+00  0.00000000000E+00  0.74505805969E-08  0.10566000000E+00  0.10566000000E+00 0. -1.
     999900   -1    0    0    0    0 -0.00000000000E+00 -0.00000000000E+00 -0.74505805969E-08  0.93827000000E+00  0.93827000000E+00 0.  1.
     999902    2    1    2    0    0 -0.20698661632E-01  0.11633442767E-01  0.15504687617E-03  0.10201856191E+01  0.10199092616E+01 0.  0.
     999903    2    3    3    0    0 -0.12600051616E+00  0.39297366335E-01  0.91808662766E-02  0.13343016317E+00  0.17288928936E-01 0.  0.
         14    1    1    2    0    0  0.20698661632E-01 -0.11633442767E-01 -0.15504687617E-03  0.23744380883E-01  0.00000000000E+00 0. -1.
     999901    1    3    3    0    0  0.10530185453E+00 -0.27663923568E-01 -0.90258194004E-02  0.88675545595E+00  0.88000000000E+00 0.  1.
        -11    1    4    4    0    0 -0.29641877122E-01  0.11722081852E-01 -0.47750733877E-02  0.32235237383E-01  0.51100000000E-03 0. -1.
         11    1    4    4    0    0 -0.96358639042E-01  0.27575284482E-01  0.13955939664E-01  0.10119492579E+00  0.51100000000E-03 0.  1.
</event>
<event>
 8    1  0.1114447E+005  0.1043930E+01  0.7957747E-01            NaN
         13   -1    0    0    0    0  0.00000000000E+00  0.00000000000E+00  0.74505805969E-08  0.10566000000E+00  0.10566000000E+00 0.  1.
     999900   -1    0    0    0    0 -0.00000000000E+00 -0.00000000000E+00 -0.74505805969E-08  0.93827000000E+00  0.93827000000E+00 0. -1.
     999902    2    1    2    0    0 -0.45070137446E-02 -0.94728142502E-03  0.32845083037E-01  0.10107636014E+01  0.10102193069E+01 0.  0.
     999903    2    3    3    0    0  0.11775979120E+00  0.22390437760E-01  0.10085532444E-02  0.12143386203E+00  0.19402719969E-01 0.  0.
         14    1    1    2    0    0  0.45070137446E-02  0.94728142502E-03 -0.32845083037E-01  0.33166398579E-01  0.00000000000E+00 0. -1.
     999901    1    3    3    0    0 -0.12226680495E+00 -0.23337719185E-01  0.31836529792E-01  0.88932973939E+00  0.88000000000E+00 0.  1.
        -11    1    4    4    0    0  0.41248010166E-01  0.31816836569E-02  0.83406422239E-02  0.42206029039E-01  0.51100000000E-03 0.  1.
         11    1    4    4    0    0  0.76511781035E-01  0.19208754103E-01 -0.73320889795E-02  0.79227832995E-01  0.51100000000E-03 0. -1.
</event>
<event>
 8    1  0.1114447E+005  0.1043930E+01  0.7957747E-01            NaN
         13   -1    0    0    0    0  0.00000000000E+00  0.00000000000E+00  0.74505805969E-08  0.10566000000E+00  0.10566000000E+00 0. -1.
     999900   -1    0    0    0    0 -0.00000000000E+00 -0.00000000000E+00 -0.74505805969E-08  0.93827000000E+00  0.93827000000E+00 0.  1.
     999902    2    1    2    0    0 -0.13607406364E-01 -0.19088502493E-01 -0.53953755058E-02  0.10198750107E+01  0.10195912881E+01 0.  0.
     999903    2    3    3    0    0 -0.12586136746E+00 -0.16997070682E-01 -0.36051292508E-01  0.13221228692E+00  0.70999219156E-02 0.  0.
         14    1    1    2    0    0  0.13607406364E-01  0.19088502493E-01  0.53953755058E-02  0.24054989341E-01  0.00000000000E+00 0.  1.
     999901    1    3    3    0    0  0.11225396109E+00 -0.20914318111E-02  0.30655917002E-01  0.88766272374E+00  0.88000000000E+00 0. -1.
        -11    1    4    4    0    0 -0.64100347625E-01 -0.88030522546E-02 -0.22012757698E-01  0.68345964893E-01  0.51100000000E-03 0. -1.
         11    1    4    4    0    0 -0.61761019832E-01 -0.81940184269E-02 -0.14038534809E-01  0.63866322027E-01  0.51100000000E-03 0.  1.
</event>
<event>
 8    1  0.1114447E+005  0.1043930E+01  0.7957747E-01            NaN
         13   -1    0    0    0    0  0.00000000000E+00  0.00000000000E+00  0.74505805969E-08  0.10566000000E+00  0.10566000000E+00 0. -1.
     999900   -1    0    0    0    0 -0.00000000000E+00 -0.00000000000E+00 -0.74505805969E-08  0.93827000000E+00  0.93827000000E+00 0.  1.
     999902    2    1    2    0    0 -0.14818312999E-01  0.26034440640E-02 -0.18883479839E-01  0.10197857226E+01  0.10194998646E+01 0.  0.
     999903    2    3    3    0    0 -0.71821735208E-01 -0.49418056750E-01 -0.98463365202E-01  0.13283105359E+00  0.18669454477E-01 0.  0.
         14    1    1    2    0    0  0.14818312999E-01 -0.26034440640E-02  0.18883479839E-01  0.24144277416E-01  0.00000000000E+00 0. -1.
     999901    1    3    3    0    0  0.57003422210E-01  0.52021500814E-01  0.79579885364E-01  0.88695466899E+00  0.88000000000E+00 0. -1.
        -11    1    4    4    0    0 -0.15682462703E-01 -0.17613684851E-01 -0.35895251245E-01  0.42952435477E-01  0.51100000000E-03 0.  1.
         11    1    4    4    0    0 -0.56139272505E-01 -0.31804371899E-01 -0.62568113957E-01  0.89878618116E-01  0.51100000000E-03 0. -1.
</event>
<event>
 8    1  0.1114447E+005  0.1043930E+01  0.7957747E-01            NaN
         13   -1    0    0    0    0  0.00000000000E+00  0.00000000000E+00  0.74505805969E-08  0.10566000000E+00  0.10566000000E+00 0. -1.
     999900   -1    0    0    0    0 -0.00000000000E+00 -0.00000000000E+00 -0.74505805969E-08  0.93827000000E+00  0.93827000000E+00 0. -1.
     999902    2    1    2    0    0  0.93121529976E-02  0.81236715366E-02  0.19483755055E-01  0.10208577885E+01  0.10205970299E+01 0.  0.
     999903    2    3    3    0    0  0.17528726839E-01 -0.66472920638E-01 -0.10684525783E+00  0.12867440872E+00  0.20378638239E-01 0.  0.
         14    1    1    2    0    0 -0.93121529976E-02 -0.81236715366E-02 -0.19483755055E-01  0.23072211505E-01  0.00000000000E+00 0.  1.
     999901    1    3    3    0    0 -0.82165738409E-02  0.74596592174E-01  0.12632901288E+00  0.89218337977E+00  0.88000000000E+00 0.  1.
        -11    1    4    4    0    0  0.13888840691E-01 -0.26708859591E-01 -0.59905784586E-01  0.67046455717E-01  0.51100000000E-03 0. -1.
         11    1    4    4    0    0  0.36398861477E-02 -0.39764061047E-01 -0.46939473242E-01  0.61627953003E-01  0.51100000000E-03 0.  1.
</event>
<event>
 8    1  0.1114447E+005  0.1043930E+01  0.7957747E-01            NaN
         13   -1    0    0    0    0  0.00000000000E+00  0.00000000000E+00  0.74505805969E-08  0.10566000000E+00  0.10566000000E+00 0.  1.
     999900   -1    0    0    0    0 -0.00000000000E+00 -0.00000000000E+00 -0.74505805969E-08  0.93827000000E+00  0.93827000000E+00 0.  1.
     999902    2    1    2    0    0 -0.46822574803E-02 -0.95550401990E-02  0.21126124487E-01  0.10202754980E+01  0.10200012531E+01 0.  0.
     999903    2    3    3    0    0  0.12404096250E+00 -0.28983395160E-01 -0.15822168470E-01  0.12993157307E+00  0.20141377634E-01 0.  0.
         14    1    1    2    0    0  0.46822574803E-02  0.95550401990E-02 -0.21126124487E-01  0.23654501985E-01  0.00000000000E+00 0. -1.
     999901    1    3    3    0    0 -0.12872321998E+00  0.19428354961E-01  0.36948292957E-01  0.89034392495E+00  0.88000000000E+00 0.  1.
        -11    1    4    4    0    0  0.14141523875E-01  0.12476466768E-02 -0.63365760854E-02  0.15554826814E-01  0.51100000000E-03 0. -1.
         11    1    4    4    0    0  0.10989943862E+00 -0.30231041837E-01 -0.94855923843E-02  0.11437674625E+00  0.51100000000E-03 0.  1.
</event>
<event>
 8    1  0.1114447E+005  0.1043930E+01  0.7957747E-01            NaN
         13   -1    0    0    0    0  0.00000000000E+00  0.00000000000E+00  0.74505805969E-08  0.10566000000E+00  0.10566000000E+00 0.  1.
     999900   -1    0    0    0    0 -0.00000000000E+00 -0.00000000000E+00 -0.74505805969E-08  0.93827000000E+00  0.93827000000E+00 0. -1.
     999902    2    1    2    0    0  0.72026328612E-03 -0.86123373558E-02  0.21761838536E-01  0.10205148607E+01  0.10202462017E+01 0.  0.
     999903    2    3    3    0    0 -0.40604911837E-01  0.12041011988E+00 -0.11928414962E-01  0.12951003590E+00  0.21981958041E-01 0.  0.
         14    1    1    2    0    0 -0.72026328612E-03  0.86123373558E-02 -0.21761838536E-01  0.23415139342E-01  0.00000000000E+00 0. -1.
     999901    1    3    3    0    0  0.41325175123E-01 -0.12902245724E+00  0.33690253498E-01  0.89100482476E+00  0.88000000000E+00 0.  1.
        -11    1    4    4    0    0 -0.19589037338E-01  0.88092280533E-01 -0.11311793110E-01  0.90951624821E-01  0.51100000000E-03 0. -1.
         11    1    4    4    0    0 -0.21015874499E-01  0.32317839347E-01 -0.61662185129E-03  0.38558411074E-01  0.51100000000E-03 0.  1.
</event>
<event>
 8    1  0.1114447E+005  0.1043930E+01  0.7957747E-01            NaN
         13   -1    0    0    0    0  0.00000000000E+00  0.00000000000E+00  0.74505805969E-08  0.10566000000E+00  0.10566000000E+00 0. -1.
     999900   -1    0    0    0    0 -0.00000000000E+00 -0.00000000000E+00 -0.74505805969E-08  0.93827000000E+00  0.93827000000E+00 0.  1.
     999902    2    1    2    0    0 -0.16318986491E-01 -0.15020639478E-01  0.89211641201E-02  0.10200235971E+01  0.10197434101E+01 0.  0.
     999903    2    3    3    0    0  0.93767021451E-01  0.56241273431E-02 -0.83651386595E-01  0.12810722619E+00  0.24290364420E-01 0.  0.
         14    1    1    2    0    0  0.16318986491E-01  0.15020639478E-01 -0.89211641201E-02  0.23906402901E-01  0.00000000000E+00 0. -1.
     999901    1    3    3    0    0 -0.11008600794E+00 -0.20644766821E-01  0.92572550715E-01  0.89191637090E+00  0.88000000000E+00 0. -1.
        -11    1    4    4    0    0  0.63364992069E-01  0.14959366637E-01 -0.59020372925E-01  0.87878156622E-01  0.51100000000E-03 0.  1.
         11    1    4    4    0    0  0.30402029382E-01 -0.93352392936E-02 -0.24631013670E-01  0.40229069572E-01  0.51100000000E-03 0. -1.
</event>
<event>
 8    1  0.1114447E+005  0.1043930E+01  0.7957747E-01            NaN
         13   -1    0    0    0    0  0.00000000000E+00  0.00000000000E+00  0.74505805969E-08  0.10566000000E+00  0.10566000000E+00 0. -1.
     999900   -1    0    0    0    0 -0.00000000000E+00 -0.00000000000E+00 -0.74505805969E-08  0.93827000000E+00  0.93827000000E+00 0. -1.
     999902    2    1    2    0    0  0.77742873608E-02 -0.98795794977E-02  0.21710088817E-01  0.10188426807E+01  0.10185337669E+01 0.  0.
     999903    2    3    3    0    0  0.56020570609E-01  0.47766609218E-01  0.10675251273E+00  0.13155298683E+00  0.22139017207E-01 0.  0.
         14    1    1    2    0    0 -0.77742873608E-02  0.98795794977E-02 -0.21710088817E-01  0.25087319336E-01  0.00000000000E+00 0.  1.
     999901    1    3    3    0    0 -0.48246283248E-01 -0.57646188715E-01 -0.85042423910E-01  0.88728969383E+00  0.88000000000E+00 0. -1.
        -11    1    4    4    0    0  0.42013875000E-01  0.40794012081E-01  0.96369223947E-01  0.11276792788E+00  0.51100000000E-03 0. -1.
         11    1    4    4    0    0  0.14006695608E-01  0.69725971370E-02  0.10383288780E-01  0.18785058945E-01  0.51100000000E-03 0.  1.
</event>
<event>
 8    1  0.1114447E+005  0.1043930E+01  0.7957747E-01            NaN
         13   -1    0    0    0    0  0.00000000000E+00  0.00000000000E+00  0.74505805969E-08  0.10566000000E+00  0.10566000000E+00 0.  1.
     999900   -1    0    0    0    0 -0.00000000000E+00 -0.00000000000E+00 -0.74505805969E-08  0.93827000000E+00  0.93827000000E+00 0.  1.
     999902    2    1    2    0    0  0.80930686886E-02  0.32897498563E-02  0.21597067381E-01  0.10206329286E+01  0.10203670033E+01 0.  0.
     999903    2    3    3    0    0 -0.10385826073E+00 -0.62230440306E-02  0.78150049590E-01  0.13168870473E+00  0.20229189389E-01 0.  0.
         14    1    1    2    0    0 -0.80930686886E-02 -0.32897498563E-02 -0.21597067381E-01  0.23297071370E-01  0.00000000000E+00 0. -1.
     999901    1    3    3    0    0  0.11195132942E+00  0.95127938868E-02 -0.56552982209E-01  0.88894422390E+00  0.88000000000E+00 0.  1.
        -11    1    4    4    0    0 -0.51852003120E-01 -0.13113230206E-01  0.37582185947E-01  0.65370244420E-01  0.51100000000E-03 0.  1.
         11    1    4    4    0    0 -0.52006257613E-01  0.68901861756E-02  0.40567863643E-01  0.66318460311E-01  0.51100000000E-03 0. -1.
</event>
<event>
 8    1  0.1114447E+005  0.1043930E+01  0.7957747E-01            NaN
         13   -1    0    0    0    0  0.00000000000E+00  0.00000000000E+00  0.74505805969E-08  0.10566000000E+00  0.10566000000E+00 0.  1.
     999900   -1    0    0    0    0 -0.00000000000E+00 -0.00000000000E+00 -0.74505805969E-08  0.93827000000E+00  0.93827000000E+00 0. -1.
     999902    2    1    2    0    0 -0.89245869768E-02 -0.21231430503E-01 -0.22503961435E-02  0.10207894257E+01  0.10205271018E+01 0.  0.
     999903    2    3    3    0    0  0.77185877431E-01 -0.10583462884E+00  0.40245633258E-02  0.13252590158E+00  0.19705053738E-01 0.  0.
         14    1    1    2    0    0  0.89245869768E-02  0.21231430503E-01  0.22503961435E-02  0.23140574252E-01  0.00000000000E+00 0. -1.
     999901    1    3    3    0    0 -0.86110464407E-01  0.84603198339E-01 -0.62749594692E-02  0.88826352417E+00  0.88000000000E+00 0.  1.
        -11    1    4    4    0    0  0.12024674077E-01 -0.29662052058E-01 -0.22326870527E-02  0.32088566989E-01  0.51100000000E-03 0.  1.
         11    1    4    4    0    0  0.65161203354E-01 -0.76172576785E-01  0.62572503785E-02  0.10043733459E+00  0.51100000000E-03 0. -1.
</event>
<event>
 8    1  0.1114447E+005  0.1043930E+01  0.7957747E-01            NaN
         13   -1    0    0    0    0  0.00000000000E+00  0.00000000000E+00  0.74505805969E-08  0.10566000000E+00  0.10566000000E+00 0.  1.
     999900   -1    0    0    0    0 -0.00000000000E+00 -0.00000000000E+00 -0.74505805969E-08  0.93827000000E+00  0.93827000000E+00 0. -1.
     999902    2    1    2    0    0 -0.25292534157E-02 -0.88957729199E-02 -0.22401524100E-01  0.10196944851E+01  0.10194064365E+01 0.  0.
     999903    2    3    3    0    0 -0.86597008319E-01  0.64771118916E-01 -0.71558462244E-01  0.13126294420E+00  0.20371728088E-01 0.  0.
         14    1    1    2    0    0  0.25292534157E-02  0.88957729199E-02  0.22401524100E-01  0.24235514863E-01  0.00000000000E+00 0.  1.
     999901    1    3    3    0    0  0.84067754903E-01 -0.73666891836E-01  0.49156938144E-01  0.88843154094E+00  0.88000000000E+00 0.  1.
        -11    1    4    4    0    0 -0.27099081797E-01  0.23399449620E-01 -0.13009860229E-01  0.38097402286E-01  0.51100000000E-03 0.  1.
         11    1    4    4    0    0 -0.59497926522E-01  0.41371669296E-01 -0.58548602016E-01  0.93165541912E-01  0.51100000000E-03 0. -1.
</event>
<event>
 8    1  0.1114447E+005  0.1043930E+01  0.7957747E-01            NaN
         13   -1    0    0    0    0  0.00000000000E+00  0.00000000000E+00  0.74505805969E-08  0.10566000000E+00  0.10566000000E+00 0. -1.
     999900   -1    0    0    0    0 -0.00000000000E+00 -0.00000000000E+00 -0.74505805969E-08  0.93827000000E+00  0.93827000000E+00 0.  1.
     999902    2    1    2    0    0  0.11583640712E-01 -0.31791967084E-02 -0.20674134339E-01  0.10200195869E+01  0.10197393048E+01 0.  0.
     999903    2    3    3    0    0  0.12560587494E+00 -0.32792404680E-02 -0.37658076603E-01  0.13250083544E+00  0.18728358716E-01 0.  0.
         14    1    1    2    0    0 -0.11583640712E-01  0.31791967084E-02  0.20674134339E-01  0.23910413097E-01  0.00000000000E+00 0.  1.
     999901    1    3    3    0    0 -0.11402223423E+00  0.10004375956E-03  0.16983942264E-01  0.88751875147E+00  0.88000000000E+00 0.  1.
        -11    1    4    4    0    0  0.10461533828E+00 -0.17351612479E-02 -0.23824096959E-01  0.10730903273E+00  0.51100000000E-03 0. -1.
         11    1    4    4    0    0  0.20990536663E-01 -0.15440792201E-02 -0.13833979644E-01  0.25191802711E-01  0.51100000000E-03 0.  1.
</event>
<event>
 8    1  0.1114447E+005  0.1043930E+01  0.7957747E-01            NaN
         13   -1    0    0    0    0  0.00000000000E+00  0.00000000000E+00  0.74505805969E-08  0.10566000000E+00  0.10566000000E+00 0.  1.
     999900   -1    0    0    0    0 -0.00000000000E+00 -0.00000000000E+00 -0.74505805969E-08  0.93827000000E+00  0.93827000000E+00 0.  1.
     999902    2    1    2    0    0 -0.21531951953E-02  0.23774256473E-01 -0.13785555345E-01  0.10163638422E+01  0.10159899442E+01 0.  0.
     999903    2    3    3    0    0  0.10742361392E+00  0.52562947120E-01 -0.42668213247E-01  0.12863073267E+00  0.20557060317E-01 0.  0.
         14    1    1    2    0    0  0.21531951953E-02 -0.23774256473E-01  0.13785555345E-01  0.27566157813E-01  0.00000000000E+00 0.  1.
     999901    1    3    3    0    0 -0.10957680911E+00 -0.28788690648E-01  0.28882657902E-01  0.88773310952E+00  0.88000000000E+00 0.  1.
        -11    1    4    4    0    0  0.74245543748E-01  0.31633196764E-01 -0.37732206205E-01  0.89090069088E-01  0.51100000000E-03 0. -1.
         11    1    4    4    0    0  0.33178070168E-01  0.20929750356E-01 -0.49360070422E-02  0.39540663583E-01  0.51100000000E-03 0.  1.
</event>
<event>
 8    1  0.1114447E+005  0.1043930E+01  0.7957747E-01            NaN
         13   -1    0    0    0    0  0.00000000000E+00  0.00000000000E+00  0.74505805969E-08  0.10566000000E+00  0.10566000000E+00 0.  1.
     999900   -1    0    0    0    0 -0.00000000000E+00 -0.00000000000E+00 -0.74505805969E-08  0.93827000000E+00  0.93827000000E+00 0.  1.
     999902    2    1    2    0    0  0.17576011195E-01 -0.13102818848E-01  0.85373435759E-02  0.10204037112E+01  0.10201324657E+01 0.  0.
     999903    2    3    3    0    0  0.11451457742E+00 -0.37761513949E-01 -0.51871227831E-01  0.13267946773E+00  0.19331231313E-01 0.  0.
         14    1    1    2    0    0 -0.17576011195E-01  0.13102818848E-01 -0.85373435759E-02  0.23526288841E-01  0.00000000000E+00 0. -1.
     999901    1    3    3    0    0 -0.96938566224E-01  0.24658695101E-01  0.60408571407E-01  0.88772424343E+00  0.88000000000E+00 0. -1.
        -11    1    4    4    0    0  0.45657458718E-01 -0.76654031897E-02 -0.26593631234E-01  0.53393298136E-01  0.51100000000E-03 0.  1.
         11    1    4    4    0    0  0.68857118701E-01 -0.30096110759E-01 -0.25277596597E-01  0.79286169597E-01  0.51100000000E-03 0. -1.
</event>
<event>
 8    1  0.1114447E+005  0.1043930E+01  0.7957747E-01            NaN
         13   -1    0    0    0    0  0.00000000000E+00  0.00000000000E+00  0.74505805969E-08  0.10566000000E+00  0.10566000000E+00 0.  1.
     999900   -1    0    0    0    0 -0.00000000000E+00 -0.00000000000E+00 -0.74505805969E-08  0.93827000000E+00  0.93827000000E+00 0. -1.
     999902    2    1    2    0    0  0.17453735926E-01  0.62381093125E-02  0.16036774959E-01  0.10194203069E+01  0.10191256238E+01 0.  0.
     999903    2    3    3    0    0 -0.81616547029E-01  0.89110785715E-01 -0.38246269216E-01  0.12833700531E+00  0.20139934036E-01 0.  0.
         14    1    1    2    0    0 -0.17453735926E-01 -0.62381093125E-02 -0.16036774959E-01  0.24509693117E-01  0.00000000000E+00 0. -1.
     999901    1    3    3    0    0  0.99070282956E-01 -0.82872676403E-01  0.54283044175E-01  0.89108330157E+00  0.88000000000E+00 0. -1.
        -11    1    4    4    0    0 -0.20943080594E-01  0.30389981534E-01 -0.19884165252E-01  0.41926182168E-01  0.51100000000E-03 0. -1.
         11    1    4    4    0    0 -0.60673466435E-01  0.58720804182E-01 -0.18362103964E-01  0.86410823142E-01  0.51100000000E-03 0.  1.
</event>
<event>
 8    1  0.1114447E+005  0.1043930E+01  0.7957747E-01            NaN
         13   -1    0    0    0    0  0.00000000000E+00  0.00000000000E+00  0.74505805969E-08  0.10566000000E+00  0.10566000000E+00 0. -1.
     999900   -1    0    0    0    0 -0.00000000000E+00 -0.00000000000E+00 -0.74505805969E-08  0.93827000000E+00  0.93827000000E+00 0. -1.
     999902    2    1    2    0    0  0.11802394623E-01  0.12928438781E-01  0.21778063906E-01  0.10159885413E+01  0.10156042491E+01 0.  0.
     999903    2    3    3    0    0 -0.91879935731E-01 -0.36030371719E-01  0.77140877901E-01  0.12682487134E+00  0.19842446216E-01 0.  0.
         14    1    1    2    0    0 -0.11802394623E-01 -0.12928438781E-01 -0.21778063906E-01  0.27941458724E-01  0.00000000000E+00 0.  1.
     999901    1    3    3    0    0  0.10368233035E+00  0.48958810499E-01 -0.55362813995E-01  0.88916366993E+00  0.88000000000E+00 0. -1.
        -11    1    4    4    0    0 -0.66314787993E-01 -0.18751550644E-01  0.60808343220E-01  0.91908582212E-01  0.51100000000E-03 0.  1.
         11    1    4    4    0    0 -0.25565147738E-01 -0.17278821075E-01  0.16332534681E-01  0.34916289132E-01  0.51100000000E-03 0. -1.
</event>
<event>
 8    1  0.1114447E+005  0.1043930E+01  0.7957747E-01            NaN
         13   -1    0    0    0    0  0.00000000000E+00  0.00000000000E+00  0.74505805969E-08  0.10566000000E+00  0.10566000000E+00 0. -1.
     999900   -1    0    0    0    0 -0.00000000000E+00 -0.00000000000E+00 -0.74505805969E-08  0.93827000000E+00  0.93827000000E+00 0.  1.
     999902    2    1    2    0    0 -0.16451801027E-01 -0.13860608544E-01 -0.10521299195E-01  0.10199826418E+01  0.10197014826E+01 0.  0.
     999903    2    3    3    0    0 -0.90637790400E-01  0.19778282236E-01  0.89578575826E-01  0.13056984624E+00  0.20439520624E-01 0.  0.
         14    1    1    2    0    0  0.16451801027E-01  0.13860608544E-01  0.10521299195E-01  0.23947358163E-01  0.00000000000E+00 0. -1.
     999901    1    3    3    0    0  0.74185989373E-01 -0.33638890780E-01 -0.10009987502E+00  0.88941279560E+00  0.88000000000E+00 0.  1.
        -11    1    4    4    0    0 -0.29191291863E-01  0.38742622974E-02  0.16441177822E-01  0.33730029324E-01  0.51100000000E-03 0. -1.
         11    1    4    4    0    0 -0.61446498537E-01  0.15904019939E-01  0.73137398003E-01  0.96839816916E-01  0.51100000000E-03 0.  1.
</event>
<event>
 8    1  0.1114447E+005  0.1043930E+01  0.7957747E-01            NaN
         13   -1    0    0    0    0  0.00000000000E+00  0.00000000000E+00  0.74505805969E-08  0.10566000000E+00  0.10566000000E+00 0. -1.
     999900   -1    0    0    0    0 -0.00000000000E+00 -0.00000000000E+00 -0.74505805969E-08  0.93827000000E+00  0.93827000000E+00 0.  1.
     999902    2    1    2    0    0 -0.23844246317E-01 -0.10497014959E-01  0.95360130996E-02  0.10161870558E+01  0.10158082799E+01 0.  0.
     999903    2    3    3    0    0 -0.56836631225E-02 -0.12687706745E+00  0.50924095876E-02  0.12832790652E+00  0.17664220453E-01 0.  0.
         14    1    1    2    0    0  0.23844246317E-01  0.10497014959E-01 -0.95360130996E-02  0.27742944171E-01  0.00000000000E+00 0.  1.
     999901    1    3    3    0    0 -0.18160583194E-01  0.11638005249E+00  0.44436035120E-02  0.88785914931E+00  0.88000000000E+00 0. -1.
        -11    1    4    4    0    0 -0.20899158241E-02 -0.62764521125E-01 -0.62757796261E-02  0.63114177418E-01  0.51100000000E-03 0. -1.
         11    1    4    4    0    0 -0.35937472984E-02 -0.64112546328E-01  0.11368189214E-01  0.65213729101E-01  0.51100000000E-03 0.  1.
</event>
<event>
 8    1  0.1114447E+005  0.1043930E+01  0.7957747E-01            NaN
         13   -1    0    0    0    0  0.00000000000E+00  0.00000000000E+00  0.74505805969E-08  0.10566000000E+00  0.10566000000E+00 0.  1.
     999900   -1    0    0    0    0 -0.00000000000E+00 -0.00000000000E+00 -0.74505805969E-08  0.93827000000E+00  0.93827000000E+00 0.  1.
     999902    2    1    2    0    0 -0.68680638251E-02 -0.11687325990E-01 -0.19877889911E-01  0.10198697756E+01  0.10195859281E+01 0.  0.
     999903    2    3    3    0    0  0.89669120154E-01  0.61878161441E-01  0.63392558245E-01  0.12764487328E+00  0.20128071486E-01 0.  0.
         14    1    1    2    0    0  0.68680638251E-02  0.11687325990E-01  0.19877889911E-01  0.24060224371E-01  0.00000000000E+00 0.  1.
     999901    1    3    3    0    0 -0.96537183979E-01 -0.73565487431E-01 -0.83270448156E-01  0.89222490235E+00  0.88000000000E+00 0.  1.
        -11    1    4    4    0    0  0.42232884703E-01  0.30384916719E-01  0.41822982663E-01  0.66755394645E-01  0.51100000000E-03 0. -1.
         11    1    4    4    0    0  0.47436235451E-01  0.31493244722E-01  0.21569575582E-01  0.60889478637E-01  0.51100000000E-03 0.  1.
</event>
<event>
 8    1  0.1114447E+005  0.1043930E+01  0.7957747E-01            NaN
         13   -1    0    0    0    0  0.00000000000E+00  0.00000000000E+00  0.74505805969E-08  0.10566000000E+00  0.10566000000E+00 0. -1.
     999900   -1    0    0    0    0 -0.00000000000E+00 -0.00000000000E+00 -0.74505805969E-08  0.93827000000E+00  0.93827000000E+00 0. -1.
     999902    2    1    2    0    0 -0.73098348441E-02 -0.22557941593E-01 -0.28428989007E-02  0.10200474438E+01  0.10197678222E+01 0.  0.
     999903    2    3    3    0    0  0.41930111968E-01 -0.84549353803E-01  0.89751923108E-01  0.13165490188E+00  0.19258192288E-01 0.  0.
         14    1    1    2    0    0  0.73098348441E-02  0.22557941593E-01  0.28428989007E-02  0.23882556155E-01  0.00000000000E+00 0. -1.
     999901    1    3    3    0    0 -0.49239946812E-01  0.61991412210E-01 -0.92594822009E-01  0.88839254196E+00  0.88000000000E+00 0. -1.
        -11    1    4    4    0    0  0.14372862435E-01 -0.32988495394E-01  0.47151084214E-01  0.59315308871E-01  0.51100000000E-03 0.  1.
         11    1    4    4    0    0  0.27557249533E-01 -0.51560858409E-01  0.42600838894E-01  0.72339593012E-01  0.51100000000E-03 0. -1.
</event>
<event>
 8    1  0.1114447E+005  0.1043930E+01  0.7957747E-01            NaN
         13   -1    0    0    0    0  0.00000000000E+00  0.00000000000E+00  0.74505805969E-08  0.10566000000E+00  0.10566000000E+00 0.  1.
     999900   -1    0    0    0    0 -0.00000000000E+00 -0.00000000000E+00 -0.74505805969E-08  0.93827000000E+00  0.93827000000E+00 0.  1.
     999902    2    1    2    0    0  0.20763783584E-01  0.11034639681E-01  0.35094191713E-02  0.10201557702E+01  0.10198787092E+01 0.  0.
     999903    2    3    3    0    0  0.98828141081E-01  0.16885974829E-01  0.84826693192E-01  0.13294622271E+00  0.20663800207E-01 0.  0.
         14    1    1    2    0    0 -0.20763783584E-01 -0.11034639681E-01 -0.35094191713E-02  0.23774229841E-01  0.00000000000E+00 0. -1.
     999901    1    3    3    0    0 -0.78064357497E-01 -0.58513351486E-02 -0.81317274021E-01  0.88720954745E+00  0.88000000000E+00 0.  1.
        -11    1    4    4    0    0  0.42367495484E-01 -0.63155028566E-03  0.26982680838E-01  0.50236736712E-01  0.51100000000E-03 0.  1.
         11    1    4    4    0    0  0.56460645597E-01  0.17517525115E-01  0.57844012354E-01  0.82709485996E-01  0.51100000000E-03 0. -1.
</event>
<event>
 8    1  0.1114447E+005  0.1043930E+01  0.7957747E-01            NaN
         13   -1    0    0    0    0  0.00000000000E+00  0.00000000000E+00  0.74505805969E-08  0.10566000000E+00  0.10566000000E+00 0. -1.
     999900   -1    0    0    0    0 -0.00000000000E+00 -0.00000000000E+00 -0.74505805969E-08  0.93827000000E+00  0.93827000000E+00 0. -1.
     999902    2    1    2    0    0 -0.10478893334E-01  0.16572273454E-03  0.24221731874E-01  0.10175382027E+01  0.10171958843E+01 0.  0.
     999903    2    3    3    0    0  0.29778911262E-01  0.92856607823E-01  0.83386252384E-01  0.12978106728E+00  0.19512179919E-01 0.  0.
         14    1    1    2    0    0  0.10478893334E-01 -0.16572273454E-03 -0.24221731874E-01  0.26391797296E-01  0.00000000000E+00 0.  1.
     999901    1    3    3    0    0 -0.40257804596E-01 -0.92690885089E-01 -0.59164520510E-01  0.88775713542E+00  0.88000000000E+00 0. -1.
        -11    1    4    4    0    0  0.91778057663E-02  0.35723741860E-01  0.43890487696E-01  0.57332834244E-01  0.51100000000E-03 0. -1.
         11    1    4    4    0    0  0.20601105495E-01  0.57132865963E-01  0.39495764688E-01  0.72448233036E-01  0.51100000000E-03 0.  1.
</event>
<event>
 8    1  0.1114447E+005  0.1043930E+01  0.7957747E-01            NaN
         13   -1    0    0    0    0  0.00000000000E+00  0.00000000000E+00  0.74505805969E-08  0.10566000000E+00  0.10566000000E+00 0.  1.
     999900   -1    0    0    0    0 -0.00000000000E+00 -0.00000000000E+00 -0.74505805969E-08  0.93827000000E+00  0.93827000000E+00 0. -1.
     999902    2    1    2    0    0 -0.62360641859E-02 -0.81957808471E-02  0.19670313986E-01  0.10217268342E+01  0.10214855570E+01 0.  0.
     999903    2    3    3    0    0 -0.77146660641E-01 -0.99997309157E-01 -0.34587268702E-01  0.13245762940E+00  0.19941798886E-01 0.  0.
         14    1    1    2    0    0  0.62360641859E-02  0.81957808471E-02 -0.19670313986E-01  0.22203165823E-01  0.00000000000E+00 0. -1.
     999901    1    3    3    0    0  0.70910596455E-01  0.91801528310E-01  0.54257582688E-01  0.88926920478E+00  0.88000000000E+00 0.  1.
        -11    1    4    4    0    0 -0.69969719260E-01 -0.88549665713E-01 -0.24241947283E-01  0.11543282913E+00  0.51100000000E-03 0.  1.
         11    1    4    4    0    0 -0.71769413814E-02 -0.11447643443E-01 -0.10345321419E-01  0.17024800271E-01  0.51100000000E-03 0. -1.
</event>
<event>
 8    1  0.1114447E+005  0.1043930E+01  0.7957747E-01            NaN
         13   -1    0    0    0    0  0.00000000000E+00  0.00000000000E+00  0.74505805969E-08  0.10566000000E+00  0.10566000000E+00 0. -1.
     999900   -1    0    0    0    0 -0.00000000000E+00 -0.00000000000E+00 -0.74505805969E-08  0.93827000000E+00  0.93827000000E+00 0.  1.
     999902    2    1    2    0    0 -0.20250550610E-01 -0.69757344066E-02 -0.10427143399E-01  0.10201083504E+01  0.10198301700E+01 0.  0.
     999903    2    3    3    0    0 -0.19089434288E-01  0.99765343364E-01 -0.80071765996E-01  0.13092592854E+00  0.20312085482E-01 0.  0.
         14    1    1    2    0    0  0.20250550610E-01  0.69757344066E-02  0.10427143399E-01  0.23821649607E-01  0.00000000000E+00 0. -1.
     999901    1    3    3    0    0 -0.11611163218E-02 -0.10674107777E+00  0.69644622596E-01  0.88918242185E+00  0.88000000000E+00 0. -1.
        -11    1    4    4    0    0 -0.18214497152E-01  0.88150446805E-01 -0.77951985275E-01  0.11907578388E+00  0.51100000000E-03 0.  1.
         11    1    4    4    0    0 -0.87493713603E-03  0.11614896560E-01 -0.21197807210E-02  0.11850144657E-01  0.51100000000E-03 0. -1.
</event>
<event>
 8    1  0.1114447E+005  0.1043930E+01  0.7957747E-01            NaN
         13   -1    0    0    0    0  0.00000000000E+00  0.00000000000E+00  0.74505805969E-08  0.10566000000E+00  0.10566000000E+00 0. -1.
     999900   -1    0    0    0    0 -0.00000000000E+00 -0.00000000000E+00 -0.74505805969E-08  0.93827000000E+00  0.93827000000E+00 0.  1.
     999902    2    1    2    0    0 -0.18953822102E-01  0.56835804048E-02 -0.11123455413E-01  0.10212301824E+01  0.10209778664E+01 0.  0.
     999903    2    3    3    0    0 -0.72558236588E-01  0.64774374431E-01 -0.90093276535E-01  0.13409919555E+00  0.20134013280E-01 0.  0.
         14    1    1    2    0    0  0.18953822102E-01 -0.56835804048E-02  0.11123455413E-01  0.22699817594E-01  0.00000000000E+00 0. -1.
     999901    1    3    3    0    0  0.53604414486E-01 -0.59090794027E-01  0.78969821121E-01  0.88713098686E+00  0.88000000000E+00 0.  1.
        -11    1    4    4    0    0 -0.54002465380E-01  0.40163119940E-01 -0.71044778871E-01  0.97861965013E-01  0.51100000000E-03 0. -1.
         11    1    4    4    0    0 -0.18555771208E-01  0.24611254491E-01 -0.19048497664E-01  0.36237230537E-01  0.51100000000E-03 0.  1.
</event>
<event>
 8    1  0.1114447E+005  0.1043930E+01  0.7957747E-01            NaN
         13   -1    0    0    0    0  0.00000000000E+00  0.00000000000E+00  0.74505805969E-08  0.10566000000E+00  0.10566000000E+00 0. -1.
     999900   -1    0    0    0    0 -0.00000000000E+00 -0.00000000000E+00 -0.74505805969E-08  0.93827000000E+00  0.93827000000E+00 0.  1.
     999902    2    1    2    0    0  0.16639860950E-01  0.15662888946E-01 -0.49522042677E-02  0.10205476265E+01  0.10202797276E+01 0.  0.
     999903    2    3    3    0    0 -0.11057095076E+00 -0.33844004911E-01  0.51538032290E-01  0.12823340497E+00  0.20403077114E-01 0.  0.
         14    1    1    2    0    0 -0.16639860950E-01 -0.15662888946E-01  0.49522042677E-02  0.23382373483E-01  0.00000000000E+00 0. -1.
     999901    1    3    3    0    0  0.12721081171E+00  0.49506893857E-01 -0.56490236558E-01  0.89231422155E+00  0.88000000000E+00 0. -1.
        -11    1    4    4    0    0 -0.31858953437E-01 -0.64127212001E-02  0.53612217038E-02  0.32941155512E-01  0.51100000000E-03 0.  1.
         11    1    4    4    0    0 -0.78711997326E-01 -0.27431283711E-01  0.46176810586E-01  0.95292249454E-01  0.51100000000E-03 0. -1.
</event>
<event>
 8    1  0.1114447E+005  0.1043930E+01  0.7957747E-01            NaN
         13   -1    0    0    0    0  0.00000000000E+00  0.00000000000E+00  0.74505805969E-08  0.10566000000E+00  0.10566000000E+00 0.  1.
     999900   -1    0    0    0    0 -0.00000000000E+00 -0.00000000000E+00 -0.74505805969E-08  0.93827000000E+00  0.93827000000E+00 0.  1.
     999902    2    1    2    0    0  0.10929066812E-01 -0.25453241514E-02  0.21465746525E-01  0.10197080791E+01  0.10194203575E+01 0.  0.
     999903    2    3    3    0    0  0.12224915645E+00 -0.36491921283E-01  0.20925348884E-01  0.13204551609E+00  0.26863200105E-01 0.  0.
         14    1    1    2    0    0 -0.10929066812E-01  0.25453241514E-02 -0.21465746525E-01  0.24221920863E-01  0.00000000000E+00 0. -1.
     999901    1    3    3    0    0 -0.11132008964E+00  0.33946597132E-01  0.54039764072E-03  0.88766256305E+00  0.88000000000E+00 0. -1.
        -11    1    4    4    0    0  0.13743128856E-01  0.21047955971E-02  0.82694651314E-02  0.16184836416E-01  0.51100000000E-03 0. -1.
         11    1    4    4    0    0  0.10850602760E+00 -0.38596716880E-01  0.12655883753E-01  0.11586067967E+00  0.51100000000E-03 0.  1.
</event>
<event>
 8    1  0.1114447E+005  0.1043930E+01  0.7957747E-01            NaN
         13   -1    0    0    0    0  0.00000000000E+00  0.00000000000E+00  0.74505805969E-08  0.10566000000E+00  0.10566000000E+00 0. -1.
     999900   -1    0    0    0    0 -0.00000000000E+00 -0.00000000000E+00 -0.74505805969E-08  0.93827000000E+00  0.93827000000E+00 0. -1.
     999902    2    1    2    0    0  0.19712756643E-01  0.81091678077E-02 -0.69343192094E-02  0.10215149122E+01  0.10212689556E+01 0.  0.
     999903    2    3    3    0    0  0.19825391755E-01 -0.12326895536E+00 -0.33350782888E-01  0.13136995016E+00  0.23611598243E-01 0.  0.
         14    1    1    2    0    0 -0.19712756643E-01 -0.81091678077E-02  0.69343192094E-02  0.22415087774E-01  0.00000000000E+00 0. -1.
     999901    1    3    3    0    0 -0.11263511190E-03  0.13137812317E+00  0.26416463679E-01  0.89014496206E+00  0.88000000000E+00 0.  1.
        -11    1    4    4    0    0  0.65601419605E-02 -0.34895421705E-01 -0.20729316295E-01  0.41118020302E-01  0.51100000000E-03 0. -1.
         11    1    4    4    0    0  0.13265249795E-01 -0.88373533659E-01 -0.12621466593E-01  0.90251929860E-01  0.51100000000E-03 0.  1.
</event>
<event>
 8    1  0.1114447E+005  0.1043930E+01  0.7957747E-01            NaN
         13   -1    0    0    0    0  0.00000000000E+00  0.00000000000E+00  0.74505805969E-08  0.10566000000E+00  0.10566000000E+00 0.  1.
     999900   -1    0    0    0    0 -0.00000000000E+00 -0.00000000000E+00 -0.74505805969E-08  0.93827000000E+00  0.93827000000E+00 0.  1.
     999902    2    1    2    0    0 -0.12381462486E-01  0.19489636338E-02  0.20749523062E-01  0.10196886762E+01  0.10194004878E+01 0.  0.
     999903    2    3    3    0    0 -0.74698566334E-01 -0.96663969739E-01  0.44851945250E-01  0.13166341821E+00  0.19993995209E-01 0.  0.
         14    1    1    2    0    0  0.12381462486E-01 -0.19489636338E-02 -0.20749523062E-01  0.24241323806E-01  0.00000000000E+00 0. -1.
     999901    1    3    3    0    0  0.62317103847E-01  0.98612933373E-01 -0.24102422188E-01  0.88802525798E+00  0.88000000000E+00 0.  1.
        -11    1    4    4    0    0 -0.43873859469E-01 -0.49841399415E-01  0.33852276636E-01  0.74534008310E-01  0.51100000000E-03 0. -1.
         11    1    4    4    0    0 -0.30824706865E-01 -0.46822570324E-01  0.10999668614E-01  0.57129409901E-01  0.51100000000E-03 0.  1.
</event>
<event>
 8    1  0.1114447E+005  0.1043930E+01  0.7957747E-01            NaN
         13   -1    0    0    0    0  0.00000000000E+00  0.00000000000E+00  0.74505805969E-08  0.10566000000E+00  0.10566000000E+00 0. -1.
     999900   -1    0    0    0    0 -0.00000000000E+00 -0.00000000000E+00 -0.74505805969E-08  0.93827000000E+00  0.93827000000E+00 0.  1.
     999902    2    1    2    0    0 -0.17445469619E-01  0.14956288453E-01  0.10249187447E-01  0.10187689027E+01  0.10184581465E+01 0.  0.
     999903    2    3    3    0    0  0.39932486767E-01  0.33217022970E-01  0.11777708414E+00  0.13018129706E+00  0.19435905975E-01 0.  0.
         14    1    1    2    0    0  0.17445469619E-01 -0.14956288453E-01 -0.10249187447E-01  0.25161097310E-01  0.00000000000E+00 0. -1.
     999901    1    3    3    0    0 -0.57377956387E-01 -0.18260734516E-01 -0.10752789670E+00  0.88858760563E+00  0.88000000000E+00 0.  1.
        -11    1    4    4    0    0  0.36530001784E-01  0.35761900882E-01  0.11014669381E+00  0.12143273802E+00  0.51100000000E-03 0.  1.
         11    1    4    4    0    0  0.34024849835E-02 -0.25448779127E-02  0.76303903343E-02  0.87485590418E-02  0.51100000000E-03 0. -1.
</event>
<event>
 8    1  0.1114447E+005  0.1043930E+01  0.7957747E-01            NaN
         13   -1    0    0    0    0  0.00000000000E+00  0.00000000000E+00  0.74505805969E-08  0.10566000000E+00  0.10566000000E+00 0. -1.
     999900   -1    0    0    0    0 -0.00000000000E+00 -0.00000000000E+00 -0.74505805969E-08  0.93827000000E+00  0.93827000000E+00 0. -1.
     999902    2    1    2    0    0  0.44684295186E-02 -0.22732071611E-01 -0.21560561126E-02  0.10206628016E+01  0.10203975657E+01 0.  0.
     999903    2    3    3    0    0  0.68161187190E-01 -0.35335206750E-01 -0.10566369389E+00  0.13222066087E+00  0.20566056483E-01 0.  0.
         14    1    1    2    0    0 -0.44684295186E-02  0.22732071611E-01  0.21560561126E-02  0.23267198372E-01  0.00000000000E+00 0.  1.
     999901    1    3    3    0    0 -0.63692757672E-01  0.12603135139E-01  0.10350763778E+00  0.88844214076E+00  0.88000000000E+00 0.  1.
        -11    1    4    4    0    0  0.63550024197E-01 -0.35832804227E-01 -0.89891684984E-01  0.11577293114E+00  0.51100000000E-03 0. -1.
         11    1    4    4    0    0  0.46111629938E-02  0.49759747624E-03 -0.15772008906E-01  0.16447729732E-01  0.51100000000E-03 0.  1.
</event>
<event>
 8    1  0.1114447E+005  0.1043930E+01  0.7957747E-01            NaN
         13   -1    0    0    0    0  0.00000000000E+00  0.00000000000E+00  0.74505805969E-08  0.10566000000E+00  0.10566000000E+00 0. -1.
     999900   -1    0    0    0    0 -0.00000000000E+00 -0.00000000000E+00 -0.74505805969E-08  0.93827000000E+00  0.93827000000E+00 0.  1.
     999902    2    1    2    0    0  0.19042994099E-01  0.13264833300E-01 -0.32240085004E-02  0.10204995570E+01  0.10202305427E+01 0.  0.
     999903    2    3    3    0    0  0.74345739130E-01 -0.10574035272E+00 -0.27113640994E-02  0.13076876027E+00  0.19616473840E-01 0.  0.
         14    1    1    2    0    0 -0.19042994099E-01 -0.13264833300E-01  0.32240085004E-02  0.23430442965E-01  0.00000000000E+00 0.  1.
     999901    1    3    3    0    0 -0.55302745031E-01  0.11900518602E+00 -0.51264440108E-03  0.88973079677E+00  0.88000000000E+00 0.  1.
        -11    1    4    4    0    0  0.45832693069E-01 -0.48269683124E-01 -0.24908512796E-02  0.66611286761E-01  0.51100000000E-03 0.  1.
         11    1    4    4    0    0  0.28513046060E-01 -0.57470669601E-01 -0.22051281976E-03  0.64157473508E-01  0.51100000000E-03 0. -1.
</event>
<event>
 8    1  0.1114447E+005  0.1043930E+01  0.7957747E-01            NaN
         13   -1    0    0    0    0  0.00000000000E+00  0.00000000000E+00  0.74505805969E-08  0.10566000000E+00  0.10566000000E+00 0.  1.
     999900   -1    0    0    0    0 -0.00000000000E+00 -0.00000000000E+00 -0.74505805969E-08  0.93827000000E+00  0.93827000000E+00 0. -1.
     999902    2    1    2    0    0  0.15767616633E-01  0.15152378431E-01 -0.87489341247E-02  0.10203767379E+01  0.10201048628E+01 0.  0.
     999903    2    3    3    0    0  0.84366444270E-01 -0.72359919330E-01  0.65049067620E-01  0.13031474768E+00  0.19922284489E-01 0.  0.
         14    1    1    2    0    0 -0.15767616633E-01 -0.15152378431E-01  0.87489341247E-02  0.23553262083E-01  0.00000000000E+00 0.  1.
     999901    1    3    3    0    0 -0.68598827637E-01  0.87512297761E-01 -0.73798001745E-01  0.89006199024E+00  0.88000000000E+00 0. -1.
        -11    1    4    4    0    0  0.76929181438E-01 -0.69643027181E-01  0.54796738970E-01  0.11735073035E+00  0.51100000000E-03 0. -1.
         11    1    4    4    0    0  0.74372628318E-02 -0.27168921482E-02  0.10252328650E-01  0.12964017322E-01  0.51100000000E-03 0.  1.
</event>
<event>
 8    1  0.1114447E+005  0.1043930E+01  0.7957747E-01            NaN
         13   -1    0    0    0    0  0.00000000000E+00  0.00000000000E+00  0.74505805969E-08  0.10566000000E+00  0.10566000000E+00 0.  1.
     999900   -1    0    0    0    0 -0.00000000000E+00 -0.00000000000E+00 -0.74505805969E-08  0.93827000000E+00  0.93827000000E+00 0. -1.
     999902    2    1    2    0    0  0.89154293754E-02  0.11578532979E-01  0.19112561819E-01  0.10198709617E+01  0.10195871425E+01 0.  0.
     999903    2    3    3    0    0  0.97005219690E-01 -0.70172040746E-01 -0.44846204618E-01  0.12940271895E+00  0.19993840372E-01 0.  0.
         14    1    1    2    0    0 -0.89154293754E-02 -0.11578532979E-01 -0.19112561819E-01  0.24059038347E-01  0.00000000000E+00 0. -1.
     999901    1    3    3    0    0 -0.88089790315E-01  0.81750573725E-01  0.63958766437E-01  0.89046824271E+00  0.88000000000E+00 0.  1.
        -11    1    4    4    0    0  0.10914684973E-01 -0.16880016548E-01 -0.64843559511E-02  0.21127548363E-01  0.51100000000E-03 0. -1.
         11    1    4    4    0    0  0.86090534718E-01 -0.53292024198E-01 -0.38361848667E-01  0.10827517058E+00  0.51100000000E-03 0.  1.
</event>
<event>
 8    1  0.1114447E+005  0.1043930E+01  0.7957747E-01            NaN
         13   -1    0    0    0    0  0.00000000000E+00  0.00000000000E+00  0.74505805969E-08  0.10566000000E+00  0.10566000000E+00 0. -1.
     999900   -1    0    0    0    0 -0.00000000000E+00 -0.00000000000E+00 -0.74505805969E-08  0.93827000000E+00  0.93827000000E+00 0.  1.
     999902    2    1    2    0    0  0.17580501535E-01 -0.97351427489E-02  0.13576610134E-01  0.10196777551E+01  0.10193893039E+01 0.  0.
     999903    2    3    3    0    0 -0.12832792582E-01 -0.89426645599E-01 -0.87560435657E-01  0.12978764612E+00  0.31877855694E-01 0.  0.
         14    1    1    2    0    0 -0.17580501535E-01  0.97351427489E-02 -0.13576610134E-01  0.24252244871E-01  0.00000000000E+00 0.  1.
     999901    1    3    3    0    0  0.30413294117E-01  0.79691502850E-01  0.10113704579E+00  0.88989010901E+00  0.88000000000E+00 0. -1.
        -11    1    4    4    0    0 -0.25937901832E-02 -0.60069491617E-01 -0.37523564578E-01  0.70875599400E-01  0.51100000000E-03 0. -1.
         11    1    4    4    0    0 -0.10239002399E-01 -0.29357153982E-01 -0.50036871079E-01  0.58912046718E-01  0.51100000000E-03 0.  1.
</event>
<event>
 8    1  0.1114447E+005  0.1043930E+01  0.7957747E-01            NaN
         13   -1    0    0    0    0  0.00000000000E+00  0.00000000000E+00  0.74505805969E-08  0.10566000000E+00  0.10566000000E+00 0. -1.
     999900   -1    0    0    0    0 -0.00000000000E+00 -0.00000000000E+00 -0.74505805969E-08  0.93827000000E+00  0.93827000000E+00 0. -1.
     999902    2    1    2    0    0  0.65930624176E-02  0.11776721884E-01  0.18953308598E-01  0.10206622636E+01  0.10203970153E+01 0.  0.
     999903    2    3    3    0    0  0.77758316633E-01 -0.99799818608E-01 -0.21576543962E-01  0.12984438842E+00  0.19689041481E-01 0.  0.
         14    1    1    2    0    0 -0.65930624176E-02 -0.11776721884E-01 -0.18953308598E-01  0.23267736400E-01  0.00000000000E+00 0.  1.
     999901    1    3    3    0    0 -0.71165254216E-01  0.11157654049E+00  0.40529852560E-01  0.89081787518E+00  0.88000000000E+00 0.  1.
        -11    1    4    4    0    0  0.43784695891E-01 -0.55596550924E-01 -0.21932362912E-01  0.74090253966E-01  0.51100000000E-03 0.  1.
         11    1    4    4    0    0  0.33973620743E-01 -0.44203267684E-01  0.35581895023E-03  0.55754134451E-01  0.51100000000E-03 0. -1.
</event>
<event>
 8    1  0.1114447E+005  0.1043930E+01  0.7957747E-01            NaN
         13   -1    0    0    0    0  0.00000000000E+00  0.00000000000E+00  0.74505805969E-08  0.10566000000E+00  0.10566000000E+00 0. -1.
     999900   -1    0    0    0    0 -0.00000000000E+00 -0.00000000000E+00 -0.74505805969E-08  0.93827000000E+00  0.93827000000E+00 0. -1.
     999902    2    1    2    0    0  0.13160815318E-01  0.13150740457E-01  0.13276253066E-01  0.10210737551E+01  0.10208179100E+01 0.  0.
     999903    2    3    3    0    0 -0.10104912097E+00 -0.53327360194E-01  0.58803091233E-01  0.13004292490E+00  0.19965635062E-01 0.  0.
         14    1    1    2    0    0 -0.13160815318E-01 -0.13150740457E-01 -0.13276253066E-01  0.22856244877E-01  0.00000000000E+00 0.  1.
     999901    1    3    3    0    0  0.11420993629E+00  0.66478100651E-01 -0.45526838167E-01  0.89103083022E+00  0.88000000000E+00 0. -1.
        -11    1    4    4    0    0 -0.41488679878E-01 -0.33121534807E-01  0.26591884769E-01  0.59377909045E-01  0.51100000000E-03 0. -1.
         11    1    4    4    0    0 -0.59560441094E-01 -0.20205825388E-01  0.32211206464E-01  0.70665015855E-01  0.51100000000E-03 0.  1.
</event>
<event>
 8    1  0.1114447E+005  0.1043930E+01  0.7957747E-01            NaN
         13   -1    0    0    0    0  0.00000000000E+00  0.00000000000E+00  0.74505805969E-08  0.10566000000E+00  0.10566000000E+00 0. -1.
     999900   -1    0    0    0    0 -0.00000000000E+00 -0.00000000000E+00 -0.74505805969E-08  0.93827000000E+00  0.93827000000E+00 0.  1.
     999902    2    1    2    0    0 -0.22272583925E-01 -0.58139144914E-03  0.48451622504E-02  0.10211290876E+01  0.10208744937E+01 0.  0.
     999903    2    3    3    0    0  0.91780537413E-01 -0.67029360103E-01 -0.57916725382E-01  0.12907387539E+00  0.19726025090E-01 0.  0.
         14    1    1    2    0    0  0.22272583925E-01  0.58139144914E-03 -0.48451622504E-02  0.22800912436E-01  0.00000000000E+00 0.  1.
     999901    1    3    3    0    0 -0.11405312134E+00  0.66447968654E-01  0.62761887632E-01  0.89205521217E+00  0.88000000000E+00 0.  1.
        -11    1    4    4    0    0  0.57703390921E-01 -0.30158686537E-01 -0.34155550182E-01  0.73526120710E-01  0.51100000000E-03 0.  1.
         11    1    4    4    0    0  0.34077146492E-01 -0.36870673565E-01 -0.23761175200E-01  0.55547754681E-01  0.51100000000E-03 0. -1.
</event>
<event>
 8    1  0.1114447E+005  0.1043930E+01  0.7957747E-01            NaN
         13   -1    0    0    0    0  0.00000000000E+00  0.00000000000E+00  0.74505805969E-08  0.10566000000E+00  0.10566000000E+00 0.  1.
     999900   -1    0    0    0    0 -0.00000000000E+00 -0.00000000000E+00 -0.74505805969E-08  0.93827000000E+00  0.93827000000E+00 0.  1.
     999902    2    1    2    0    0  0.33971102796E-02 -0.23224905722E-01  0.49565107751E-02  0.10199403438E+01  0.10196581787E+01 0.  0.
     999903    2    3    3    0    0 -0.79282706792E-01 -0.10362892072E+00 -0.88090658731E-02  0.13230852327E+00  0.20080958196E-01 0.  0.
         14    1    1    2    0    0 -0.33971102796E-02  0.23224905722E-01 -0.49565107751E-02  0.23989656169E-01  0.00000000000E+00 0. -1.
     999901    1    3    3    0    0  0.82679817072E-01  0.80404014995E-01  0.13765576648E-01  0.88763182056E+00  0.88000000000E+00 0.  1.
        -11    1    4    4    0    0 -0.81201847654E-02 -0.22748644003E-01 -0.38379732851E-02  0.24462815957E-01  0.51100000000E-03 0.  1.
         11    1    4    4    0    0 -0.71162522027E-01 -0.80880276714E-01 -0.49710925880E-02  0.10784570731E+00  0.51100000000E-03 0. -1.
</event>
<event>
 8    1  0.1114447E+005  0.1043930E+01  0.7957747E-01            NaN
         13   -1    0    0    0    0  0.00000000000E+00  0.00000000000E+00  0.74505805969E-08  0.10566000000E+00  0.10566000000E+00 0. -1.
     999900   -1    0    0    0    0 -0.00000000000E+00 -0.00000000000E+00 -0.74505805969E-08  0.93827000000E+00  0.93827000000E+00 0. -1.
     999902    2    1    2    0    0 -0.16890081510E-01 -0.14482645504E-01 -0.32536801957E-02  0.10214442643E+01  0.10211967376E+01 0.  0.
     999903    2    3    3    0    0 -0.13003206133E+00 -0.20139179251E-01 -0.16114097918E-01  0.13408949067E+00  0.20159460388E-01 0.  0.
         14    1    1    2    0    0  0.16890081510E-01  0.14482645504E-01  0.32536801957E-02  0.22485735679E-01  0.00000000000E+00 0.  1.
     999901    1    3    3    0    0  0.11314197982E+00  0.56565337469E-02  0.12860417722E-01  0.88735477365E+00  0.88000000000E+00 0.  1.
        -11    1    4    4    0    0 -0.91031275680E-01 -0.11371191618E-01 -0.20092016628E-01  0.93914575035E-01  0.51100000000E-03 0. -1.
         11    1    4    4    0    0 -0.39000785648E-01 -0.87679876333E-02  0.39779187102E-02  0.40174915638E-01  0.51100000000E-03 0.  1.
</event>
<event>
 8    1  0.1114447E+005  0.1043930E+01  0.7957747E-01            NaN
         13   -1    0    0    0    0  0.00000000000E+00  0.00000000000E+00  0.74505805969E-08  0.10566000000E+00  0.10566000000E+00 0. -1.
     999900   -1    0    0    0    0 -0.00000000000E+00 -0.00000000000E+00 -0.74505805969E-08  0.93827000000E+00  0.93827000000E+00 0. -1.
     999902    2    1    2    0    0  0.25596170969E-02 -0.11023139802E-02  0.23840840647E-01  0.10199268248E+01  0.10196443378E+01 0.  0.
     999903    2    3    3    0    0  0.74347346081E-01  0.92433816856E-01 -0.47203085757E-01  0.12922500868E+00  0.19985824861E-01 0.  0.
         14    1    1    2    0    0 -0.25596170969E-02  0.11023139802E-02 -0.23840840647E-01  0.24003175176E-01  0.00000000000E+00 0.  1.
     999901    1    3    3    0    0 -0.71787728984E-01 -0.93536130836E-01  0.71043926403E-01  0.89070181614E+00  0.88000000000E+00 0.  1.
        -11    1    4    4    0    0  0.38647305334E-01  0.33832997189E-01 -0.24796377289E-01  0.57038647915E-01  0.51100000000E-03 0. -1.
         11    1    4    4    0    0  0.35700040747E-01  0.58600819667E-01 -0.22406708468E-01  0.72186360764E-01  0.51100000000E-03 0.  1.
</event>
<event>
 8    1  0.1114447E+005  0.1043930E+01  0.7957747E-01            NaN
         13   -1    0    0    0    0  0.00000000000E+00  0.00000000000E+00  0.74505805969E-08  0.10566000000E+00  0.10566000000E+00 0. -1.
     999900   -1    0    0    0    0 -0.00000000000E+00 -0.00000000000E+00 -0.74505805969E-08  0.93827000000E+00  0.93827000000E+00 0.  1.
     999902    2    1    2    0    0 -0.72236860362E-02 -0.23077564139E-01 -0.28580187239E-02  0.10195799717E+01  0.10192891615E+01 0.  0.
     999903    2    3    3    0    0  0.59279497540E-01  0.98979289395E-01 -0.50132770054E-01  0.12741661726E+00  0.20266750173E-01 0.  0.
         14    1    1    2    0    0  0.72236860362E-02  0.23077564139E-01  0.28580187239E-02  0.24350028286E-01  0.00000000000E+00 0. -1.
     999901    1    3    3    0    0 -0.66503183576E-01 -0.12205685353E+00  0.47274751330E-01  0.89216335446E+00  0.88000000000E+00 0. -1.
        -11    1    4    4    0    0  0.36214949400E-02  0.19867082131E-01 -0.58453711568E-02  0.21029637728E-01  0.51100000000E-03 0. -1.
         11    1    4    4    0    0  0.55658002600E-01  0.79112207264E-01 -0.44287398897E-01  0.10638697953E+00  0.51100000000E-03 0.  1.
</event>
<event>
 8    1  0.1114447E+005  0.1043930E+01  0.7957747E-01            NaN
         13   -1    0    0    0    0  0.00000000000E+00  0.00000000000E+00  0.74505805969E-08  0.10566000000E+00  0.10566000000E+00 0.  1.
     999900   -1    0    0    0    0 -0.00000000000E+00 -0.00000000000E+00 -0.74505805969E-08  0.93827000000E+00  0.93827000000E+00 0. -1.
     999902    2    1    2    0    0 -0.79461013672E-02 -0.24022251704E-02 -0.20228807194E-01  0.10220641396E+01  0.10218302156E+01 0.  0.
     999903    2    3    3    0    0  0.32506794570E-02 -0.11014586107E+00  0.68018031333E-01  0.13104137694E+00  0.20067691835E-01 0.  0.
         14    1    1    2    0    0  0.79461013672E-02  0.24022251704E-02  0.20228807194E-01  0.21865860449E-01  0.00000000000E+00 0.  1.
     999901    1    3    3    0    0 -0.11196780824E-01  0.10774363590E+00 -0.88246838527E-01  0.89102276261E+00  0.88000000000E+00 0. -1.
        -11    1    4    4    0    0  0.35424979348E-02 -0.60957898947E-01  0.26079339221E-01  0.66398853837E-01  0.51100000000E-03 0.  1.
         11    1    4    4    0    0 -0.29181847775E-03 -0.49187962127E-01  0.41938692112E-01  0.64642523104E-01  0.51100000000E-03 0. -1.
</event>
<event>
 8    1  0.1114447E+005  0.1043930E+01  0.7957747E-01            NaN
         13   -1    0    0    0    0  0.00000000000E+00  0.00000000000E+00  0.74505805969E-08  0.10566000000E+00  0.10566000000E+00 0. -1.
     999900   -1    0    0    0    0 -0.00000000000E+00 -0.00000000000E+00 -0.74505805969E-08  0.93827000000E+00  0.93827000000E+00 0.  1.
     999902    2    1    2    0    0 -0.15718264708E-01 -0.16223636013E-01 -0.60148113994E-02  0.10205537692E+01  0.10202860127E+01 0.  0.
     999903    2    3    3    0    0  0.82393329954E-01  0.95510952255E-01  0.84283945041E-02  0.12796253608E+00  0.19808331182E-01 0.  0.
         14    1    1    2    0    0  0.15718264708E-01  0.16223636013E-01  0.60148113994E-02  0.23376230814E-01  0.00000000000E+00 0.  1.
     999901    1    3    3    0    0 -0.98111594662E-01 -0.11173458827E+00 -0.14443205904E-01  0.89259123311E+00  0.88000000000E+00 0.  1.
        -11    1    4    4    0    0  0.83928680793E-02  0.20859329324E-01 -0.22924642449E-03  0.22491454586E-01  0.51100000000E-03 0.  1.
         11    1    4    4    0    0  0.74000461875E-01  0.74651622931E-01  0.86576409286E-02  0.10547108149E+00  0.51100000000E-03 0. -1.
</event>
<event>
 8    1  0.1114447E+005  0.1043930E+01  0.7957747E-01            NaN
         13   -1    0    0    0    0  0.00000000000E+00  0.00000000000E+00  0.74505805969E-08  0.10566000000E+00  0.10566000000E+00 0. -1.
     999900   -1    0    0    0    0 -0.00000000000E+00 -0.00000000000E+00 -0.74505805969E-08  0.93827000000E+00  0.93827000000E+00 0. -1.
     999902    2    1    2    0    0  0.17214152177E-01 -0.89397476217E-03 -0.19375603988E-01  0.10179966189E+01  0.10176662399E+01 0.  0.
     999903    2    3    3    0    0  0.30132499639E-01  0.67042405012E-01 -0.10643293302E+00  0.13100100789E+00  0.20751945231E-01 0.  0.
         14    1    1    2    0    0 -0.17214152177E-01  0.89397476217E-03  0.19375603988E-01  0.25933381113E-01  0.00000000000E+00 0. -1.
     999901    1    3    3    0    0 -0.12918347461E-01 -0.67936379775E-01  0.87057329035E-01  0.88699561100E+00  0.88000000000E+00 0.  1.
        -11    1    4    4    0    0  0.73870226764E-02  0.41560076256E-01 -0.59075378914E-01  0.72608329806E-01  0.51100000000E-03 0. -1.
         11    1    4    4    0    0  0.22745476962E-01  0.25482328756E-01 -0.47357554109E-01  0.58392678079E-01  0.51100000000E-03 0.  1.
</event>
<event>
 8    1  0.1114447E+005  0.1043930E+01  0.7957747E-01            NaN
         13   -1    0    0    0    0  0.00000000000E+00  0.00000000000E+00  0.74505805969E-08  0.10566000000E+00  0.10566000000E+00 0.  1.
     999900   -1    0    0    0    0 -0.00000000000E+00 -0.00000000000E+00 -0.74505805969E-08  0.93827000000E+00  0.93827000000E+00 0.  1.
     999902    2    1    2    0    0 -0.15183068935E-01 -0.11420811785E-02 -0.18286182438E-01  0.10201347400E+01  0.10198571828E+01 0.  0.
     999903    2    3    3    0    0 -0.66318866712E-01  0.70926978089E-02  0.10929987329E+00  0.12942666040E+00  0.18875901988E-01 0.  0.
         14    1    1    2    0    0  0.15183068935E-01  0.11420811785E-02  0.18286182438E-01  0.23795260029E-01  0.00000000000E+00 0.  1.
     999901    1    3    3    0    0  0.51135797778E-01 -0.82347789874E-02 -0.12758605573E+00  0.89070807957E+00  0.88000000000E+00 0.  1.
        -11    1    4    4    0    0 -0.74211913392E-02  0.69331249363E-02  0.12479063449E-01  0.16097529246E-01  0.51100000000E-03 0.  1.
         11    1    4    4    0    0 -0.58897675373E-01  0.15957287261E-03  0.96820809844E-01  0.11332913115E+00  0.51100000000E-03 0. -1.
</event>
<event>
 8    1  0.1114447E+005  0.1043930E+01  0.7957747E-01            NaN
         13   -1    0    0    0    0  0.00000000000E+00  0.00000000000E+00  0.74505805969E-08  0.10566000000E+00  0.10566000000E+00 0. -1.
     999900   -1    0    0    0    0 -0.00000000000E+00 -0.00000000000E+00 -0.74505805969E-08  0.93827000000E+00  0.93827000000E+00 0.  1.
     999902    2    1    2    0    0  0.22969011266E-01 -0.24359184048E-02  0.32424303912E-02  0.10206057094E+01  0.10203391552E+01 0.  0.
     999903    2    3    3    0    0 -0.45619773945E-02  0.78197454215E-01  0.10293102584E+00  0.13088805072E+00  0.20030782708E-01 0.  0.
         14    1    1    2    0    0 -0.22969011266E-01  0.24359184048E-02 -0.32424303912E-02  0.23324290597E-01  0.00000000000E+00 0. -1.
     999901    1    3    3    0    0  0.27530988660E-01 -0.80633372620E-01 -0.99688595451E-01  0.88971765869E+00  0.88000000000E+00 0.  1.
        -11    1    4    4    0    0  0.43844209299E-02  0.15701982388E-01  0.32083565092E-01  0.35991549950E-01  0.51100000000E-03 0. -1.
         11    1    4    4    0    0 -0.89463983244E-02  0.62495471827E-01  0.70847460750E-01  0.94896500766E-01  0.51100000000E-03 0.  1.
</event>
<event>
 8    1  0.1114447E+005  0.1043930E+01  0.7957747E-01            NaN
         13   -1    0    0    0    0  0.00000000000E+00  0.00000000000E+00  0.74505805969E-08  0.10566000000E+00  0.10566000000E+00 0. -1.
     999900   -1    0    0    0    0 -0.00000000000E+00 -0.00000000000E+00 -0.74505805969E-08  0.93827000000E+00  0.93827000000E+00 0. -1.
     999902    2    1    2    0    0 -0.31698957976E-01  0.16516144213E-01  0.54686391230E-02  0.10077704512E+01  0.10071215266E+01 0.  0.
     999903    2    3    3    0    0 -0.11987102086E+00  0.96540291169E-02 -0.17547479272E-01  0.12303820751E+00  0.19189178185E-01 0.  0.
         14    1    1    2    0    0  0.31698957976E-01 -0.16516144213E-01 -0.54686391230E-02  0.36159548812E-01  0.00000000000E+00 0. -1.
     999901    1    3    3    0    0  0.88172062880E-01  0.68621150965E-02  0.23016118395E-01  0.88473224368E+00  0.88000000000E+00 0.  1.
        -11    1    4    4    0    0 -0.33649387989E-01  0.10685353270E-01 -0.15893067612E-02  0.35344661598E-01  0.51100000000E-03 0.  1.
         11    1    4    4    0    0 -0.86221632867E-01 -0.10313241533E-02 -0.15958172511E-01  0.87693545912E-01  0.51100000000E-03 0. -1.
</event>
<event>
 8    1  0.1114447E+005  0.1043930E+01  0.7957747E-01            NaN
         13   -1    0    0    0    0  0.00000000000E+00  0.00000000000E+00  0.74505805969E-08  0.10566000000E+00  0.10566000000E+00 0.  1.
     999900   -1    0    0    0    0 -0.00000000000E+00 -0.00000000000E+00 -0.74505805969E-08  0.93827000000E+00  0.93827000000E+00 0.  1.
     999902    2    1    2    0    0 -0.37275422526E-02  0.45811024162E-02  0.23144733672E-01  0.10200436071E+01  0.10197638945E+01 0.  0.
     999903    2    3    3    0    0 -0.44127124304E-01  0.10274594835E+00  0.68462574858E-01  0.13250646985E+00  0.19154826924E-01 0.  0.
         14    1    1    2    0    0  0.37275422526E-02 -0.45811024162E-02 -0.23144733672E-01  0.23886392933E-01  0.00000000000E+00 0. -1.
     999901    1    3    3    0    0  0.40399582051E-01 -0.98164845935E-01 -0.45317841186E-01  0.88753713722E+00  0.88000000000E+00 0.  1.
        -11    1    4    4    0    0 -0.16520406546E-01  0.18955776922E-01  0.17250991666E-01  0.30497592456E-01  0.51100000000E-03 0.  1.
         11    1    4    4    0    0 -0.27606717758E-01  0.83790171429E-01  0.51211583192E-01  0.10200887740E+00  0.51100000000E-03 0. -1.
</event>
<event>
 8    1  0.1114447E+005  0.1043930E+01  0.7957747E-01            NaN
         13   -1    0    0    0    0  0.00000000000E+00  0.00000000000E+00  0.74505805969E-08  0.10566000000E+00  0.10566000000E+00 0.  1.
     999900   -1    0    0    0    0 -0.00000000000E+00 -0.00000000000E+00 -0.74505805969E-08  0.93827000000E+00  0.93827000000E+00 0.  1.
     999902    2    1    2    0    0  0.48770152452E-02 -0.16909390355E-01  0.15223584123E-01  0.10206604862E+01  0.10203951969E+01 0.  0.
     999903    2    3    3    0    0 -0.10185871077E+00  0.72341556936E-01  0.28105927555E-01  0.12963624320E+00  0.20177080277E-01 0.  0.
         14    1    1    2    0    0 -0.48770152452E-02  0.16909390355E-01 -0.15223584123E-01  0.23269513821E-01  0.00000000000E+00 0. -1.
     999901    1    3    3    0    0  0.10673572601E+00 -0.89250947291E-01 -0.12882343431E-01  0.89102424298E+00  0.88000000000E+00 0. -1.
        -11    1    4    4    0    0 -0.25256711421E-01  0.28822080973E-01  0.11171364102E-01  0.39920850697E-01  0.51100000000E-03 0. -1.
         11    1    4    4    0    0 -0.76601999348E-01  0.43519475962E-01  0.16934563453E-01  0.89715392506E-01  0.51100000000E-03 0.  1.
</event>
<event>
 8    1  0.1114447E+005  0.1043930E+01  0.7957747E-01            NaN
         13   -1    0    0    0    0  0.00000000000E+00  0.00000000000E+00  0.74505805969E-08  0.10566000000E+00  0.10566000000E+00 0. -1.
     999900   -1    0    0    0    0 -0.00000000000E+00 -0.00000000000E+00 -0.74505805969E-08  0.93827000000E+00  0.93827000000E+00 0. -1.
     999902    2    1    2    0    0  0.98135681655E-03  0.17905144952E-01 -0.16345282011E-01  0.10196663333E+01  0.10193776071E+01 0.  0.
     999903    2    3    3    0    0 -0.99675989992E-01  0.66822908264E-01  0.47255764218E-01  0.13030142389E+00  0.18567438338E-01 0.  0.
         14    1    1    2    0    0 -0.98135681655E-03 -0.17905144952E-01  0.16345282011E-01  0.24263666685E-01  0.00000000000E+00 0. -1.
     999901    1    3    3    0    0  0.10065734681E+00 -0.48917763311E-01 -0.63601046229E-01  0.88936490942E+00  0.88000000000E+00 0. -1.
        -11    1    4    4    0    0 -0.34375128045E-01  0.21458751532E-01  0.68172042696E-02  0.41095776431E-01  0.51100000000E-03 0.  1.
         11    1    4    4    0    0 -0.65300861948E-01  0.45364156732E-01  0.40438559948E-01  0.89205647460E-01  0.51100000000E-03 0. -1.
</event>
<event>
 8    1  0.1114447E+005  0.1043930E+01  0.7957747E-01            NaN
         13   -1    0    0    0    0  0.00000000000E+00  0.00000000000E+00  0.74505805969E-08  0.10566000000E+00  0.10566000000E+00 0. -1.
     999900   -1    0    0    0    0 -0.00000000000E+00 -0.00000000000E+00 -0.74505805969E-08  0.93827000000E+00  0.93827000000E+00 0. -1.
     999902    2    1    2    0    0  0.14086855222E-02 -0.21715114216E-01 -0.10866618356E-01  0.10196068839E+01  0.10193167240E+01 0.  0.
     999903    2    3    3    0    0  0.26715154156E-01 -0.11144339895E+00  0.61970400736E-01  0.13168976293E+00  0.19197199348E-01 0.  0.
         14    1    1    2    0    0 -0.14086855222E-02  0.21715114216E-01  0.10866618356E-01  0.24323116059E-01  0.00000000000E+00 0. -1.
     999901    1    3    3    0    0 -0.25306468634E-01  0.89728284729E-01 -0.72837019093E-01  0.88791712101E+00  0.88000000000E+00 0. -1.
        -11    1    4    4    0    0  0.17676539504E-02 -0.47827486067E-01  0.25502541395E-01  0.54233142658E-01  0.51100000000E-03 0.  1.
         11    1    4    4    0    0  0.24947500205E-01 -0.63615912879E-01  0.36467859341E-01  0.77456620271E-01  0.51100000000E-03 0. -1.
</event>
<event>
 8    1  0.1114447E+005  0.1043930E+01  0.7957747E-01            NaN
         13   -1    0    0    0    0  0.00000000000E+00  0.00000000000E+00  0.74505805969E-08  0.10566000000E+00  0.10566000000E+00 0.  1.
     999900   -1    0    0    0    0 -0.00000000000E+00 -0.00000000000E+00 -0.74505805969E-08  0.93827000000E+00  0.93827000000E+00 0. -1.
     999902    2    1    2    0    0  0.12424635075E-01  0.18591981338E-01 -0.55020348153E-02  0.10209016324E+01  0.10206418752E+01 0.  0.
     999903    2    3    3    0    0 -0.12072969870E+00 -0.94910937463E-02 -0.42326382745E-01  0.12968068993E+00  0.18968860174E-01 0.  0.
         14    1    1    2    0    0 -0.12424635075E-01 -0.18591981338E-01  0.55020348153E-02  0.23028367592E-01  0.00000000000E+00 0.  1.
     999901    1    3    3    0    0  0.13315433377E+00  0.28083075085E-01  0.36824347930E-01  0.89122094248E+00  0.88000000000E+00 0. -1.
        -11    1    4    4    0    0 -0.92244263233E-01 -0.49233397112E-02 -0.40211147123E-01  0.10074939626E+00  0.51100000000E-03 0.  1.
         11    1    4    4    0    0 -0.28485435466E-01 -0.45677540351E-02 -0.21152356222E-02  0.28931293669E-01  0.51100000000E-03 0. -1.
</event>
<event>
 8    1  0.1114447E+005  0.1043930E+01  0.7957747E-01            NaN
         13   -1    0    0    0    0  0.00000000000E+00  0.00000000000E+00  0.74505805969E-08  0.10566000000E+00  0.10566000000E+00 0. -1.
     999900   -1    0    0    0    0 -0.00000000000E+00 -0.00000000000E+00 -0.74505805969E-08  0.93827000000E+00  0.93827000000E+00 0. -1.
     999902    2    1    2    0    0  0.30175133691E-01 -0.30976584576E-02  0.44635012905E-03  0.10135930026E+01  0.10131389054E+01 0.  0.
     999903    2    3    3    0    0 -0.51186183269E-01 -0.10674080912E+00 -0.28336597634E-01  0.12331775044E+00  0.19765604436E-01 0.  0.
         14    1    1    2    0    0 -0.30175133691E-01  0.30976584576E-02 -0.44635012905E-03  0.30336997374E-01  0.00000000000E+00 0. -1.
     999901    1    3    3    0    0  0.81361316960E-01  0.10364315066E+00  0.28782947764E-01  0.89027525219E+00  0.88000000000E+00 0.  1.
        -11    1    4    4    0    0 -0.34371802680E-01 -0.48852180843E-01 -0.14039944347E-01  0.61362346361E-01  0.51100000000E-03 0.  1.
         11    1    4    4    0    0 -0.16814380589E-01 -0.57888628276E-01 -0.14296653288E-01  0.61955404078E-01  0.51100000000E-03 0. -1.
</event>
<event>
 8    1  0.1114447E+005  0.1043930E+01  0.7957747E-01            NaN
         13   -1    0    0    0    0  0.00000000000E+00  0.00000000000E+00  0.74505805969E-08  0.10566000000E+00  0.10566000000E+00 0. -1.
     999900   -1    0    0    0    0 -0.00000000000E+00 -0.00000000000E+00 -0.74505805969E-08  0.93827000000E+00  0.93827000000E+00 0. -1.
     999902    2    1    2    0    0 -0.40321876690E-02  0.21920227975E-01  0.99642978768E-02  0.10195160252E+01  0.10192236671E+01 0.  0.
     999903    2    3    3    0    0 -0.11753242394E+00  0.20948237650E-03  0.53997804126E-01  0.13086952083E+00  0.19928724775E-01 0.  0.
         14    1    1    2    0    0  0.40321876690E-02 -0.21920227975E-01 -0.99642978768E-02  0.24413974770E-01  0.00000000000E+00 0. -1.
     999901    1    3    3    0    0  0.11350023627E+00  0.21710745598E-01 -0.44033506249E-01  0.88864650440E+00  0.88000000000E+00 0. -1.
        -11    1    4    4    0    0 -0.14822107553E-01 -0.48938046047E-02  0.12380325296E-01  0.19929319388E-01  0.51100000000E-03 0.  1.
         11    1    4    4    0    0 -0.10271031639E+00  0.51032869812E-02  0.41617478829E-01  0.11094020144E+00  0.51100000000E-03 0. -1.
</event>
<event>
 8    1  0.1114447E+005  0.1043930E+01  0.7957747E-01            NaN
         13   -1    0    0    0    0  0.00000000000E+00  0.00000000000E+00  0.74505805969E-08  0.10566000000E+00  0.10566000000E+00 0.  1.
     999900   -1    0    0    0    0 -0.00000000000E+00 -0.00000000000E+00 -0.74505805969E-08  0.93827000000E+00  0.93827000000E+00 0. -1.
     999902    2    1    2    0    0  0.25000809222E-02  0.24756649699E-01  0.69116373252E-02  0.10181053443E+01  0.10177777652E+01 0.  0.
     999903    2    3    3    0    0 -0.10248263392E+00 -0.28038041647E-01 -0.66861007960E-01  0.12723439239E+00  0.20721346176E-01 0.  0.
         14    1    1    2    0    0 -0.25000809222E-02 -0.24756649699E-01 -0.69116373252E-02  0.25824655650E-01  0.00000000000E+00 0. -1.
     999901    1    3    3    0    0  0.10498271484E+00  0.52794691347E-01  0.73772645285E-01  0.89087095196E+00  0.88000000000E+00 0. -1.
        -11    1    4    4    0    0 -0.86231582092E-02 -0.18946118271E-02 -0.13518961077E-01  0.16154622901E-01  0.51100000000E-03 0. -1.
         11    1    4    4    0    0 -0.93859475710E-01 -0.26143429820E-01 -0.53342046882E-01  0.11107976949E+00  0.51100000000E-03 0.  1.
</event>
<event>
 8    1  0.1114447E+005  0.1043930E+01  0.7957747E-01            NaN
         13   -1    0    0    0    0  0.00000000000E+00  0.00000000000E+00  0.74505805969E-08  0.10566000000E+00  0.10566000000E+00 0. -1.
     999900   -1    0    0    0    0 -0.00000000000E+00 -0.00000000000E+00 -0.74505805969E-08  0.93827000000E+00  0.93827000000E+00 0.  1.
     999902    2    1    2    0    0 -0.13511277713E-01  0.25704947347E-02 -0.12334790004E-01  0.10254554469E+01  0.10252890151E+01 0.  0.
     999903    2    3    3    0    0 -0.81961796003E-01 -0.10625465075E+00  0.61975087401E-02  0.13592083156E+00  0.20694843043E-01 0.  0.
         14    1    1    2    0    0  0.13511277713E-01 -0.25704947347E-02  0.12334790004E-01  0.18474553122E-01  0.00000000000E+00 0. -1.
     999901    1    3    3    0    0  0.68450518290E-01  0.10882514549E+00 -0.18532298744E-01  0.88953461531E+00  0.88000000000E+00 0.  1.
        -11    1    4    4    0    0 -0.35804886903E-01 -0.63002827158E-01  0.13872254667E-02  0.72481250482E-01  0.51100000000E-03 0. -1.
         11    1    4    4    0    0 -0.46156909100E-01 -0.43251823593E-01  0.48102832734E-02  0.63439581082E-01  0.51100000000E-03 0.  1.
</event>
<event>
 8    1  0.1114447E+005  0.1043930E+01  0.7957747E-01            NaN
         13   -1    0    0    0    0  0.00000000000E+00  0.00000000000E+00  0.74505805969E-08  0.10566000000E+00  0.10566000000E+00 0. -1.
     999900   -1    0    0    0    0 -0.00000000000E+00 -0.00000000000E+00 -0.74505805969E-08  0.93827000000E+00  0.93827000000E+00 0. -1.
     999902    2    1    2    0    0 -0.11950017126E-01 -0.88162256274E-02 -0.18349763611E-01  0.10203240141E+01  0.10200509062E+01 0.  0.
     999903    2    3    3    0    0 -0.27959893490E-01  0.91108462493E-01  0.84013467128E-01  0.12862928474E+00  0.20117719863E-01 0.  0.
         14    1    1    2    0    0  0.11950017126E-01  0.88162256274E-02  0.18349763611E-01  0.23605985855E-01  0.00000000000E+00 0. -1.
     999901    1    3    3    0    0  0.16009876364E-01 -0.99924688120E-01 -0.10236323074E+00  0.89169472940E+00  0.88000000000E+00 0. -1.
        -11    1    4    4    0    0 -0.24016856647E-01  0.60297296294E-01  0.66680697099E-01  0.93054552979E-01  0.51100000000E-03 0.  1.
         11    1    4    4    0    0 -0.39430368428E-02  0.30811166199E-01  0.17332770029E-01  0.35574731762E-01  0.51100000000E-03 0. -1.
</event>
<event>
 8    1  0.1114447E+005  0.1043930E+01  0.7957747E-01            NaN
         13   -1    0    0    0    0  0.00000000000E+00  0.00000000000E+00  0.74505805969E-08  0.10566000000E+00  0.10566000000E+00 0. -1.
     999900   -1    0    0    0    0 -0.00000000000E+00 -0.00000000000E+00 -0.74505805969E-08  0.93827000000E+00  0.93827000000E+00 0.  1.
     999902    2    1    2    0    0  0.12846849170E-01  0.15990471359E-01 -0.12848289545E-01  0.10197263794E+01  0.10194390975E+01 0.  0.
     999903    2    3    3    0    0 -0.44197873384E-01 -0.77102030923E-01 -0.92116531766E-01  0.12944340829E+00  0.19286403008E-01 0.  0.
         14    1    1    2    0    0 -0.12846849170E-01 -0.15990471359E-01  0.12848289545E-01  0.24203620640E-01  0.00000000000E+00 0. -1.
     999901    1    3    3    0    0  0.57044722554E-01  0.93092502281E-01  0.79268242221E-01  0.89028297107E+00  0.88000000000E+00 0. -1.
        -11    1    4    4    0    0 -0.29735947730E-01 -0.66508064796E-01 -0.70853361059E-01  0.10162681322E+00  0.51100000000E-03 0. -1.
         11    1    4    4    0    0 -0.14461925654E-01 -0.10593966126E-01 -0.21263170707E-01  0.27816595072E-01  0.51100000000E-03 0.  1.
</event>
<event>
 8    1  0.1114447E+005  0.1043930E+01  0.7957747E-01            NaN
         13   -1    0    0    0    0  0.00000000000E+00  0.00000000000E+00  0.74505805969E-08  0.10566000000E+00  0.10566000000E+00 0.  1.
     999900   -1    0    0    0    0 -0.00000000000E+00 -0.00000000000E+00 -0.74505805969E-08  0.93827000000E+00  0.93827000000E+00 0. -1.
     999902    2    1    2    0    0 -0.15542770176E-01  0.11873652318E-01  0.89736755461E-02  0.10224105163E+01  0.10221840224E+01 0.  0.
     999903    2    3    3    0    0  0.10051105226E-01 -0.12844801183E+00  0.11817390942E-01  0.13092114310E+00  0.20019453593E-01 0.  0.
         14    1    1    2    0    0  0.15542770176E-01 -0.11873652318E-01 -0.89736755461E-02  0.21519483658E-01  0.00000000000E+00 0. -1.
     999901    1    3    3    0    0 -0.25593875402E-01  0.14032166415E+00 -0.28437153957E-02  0.89148937324E+00  0.88000000000E+00 0.  1.
        -11    1    4    4    0    0 -0.57337834903E-02 -0.34773771825E-01  0.47559516446E-03  0.35250231089E-01  0.51100000000E-03 0.  1.
         11    1    4    4    0    0  0.15784888716E-01 -0.93674240005E-01  0.11341795777E-01  0.95670912010E-01  0.51100000000E-03 0. -1.
</event>
<event>
 8    1  0.1114447E+005  0.1043930E+01  0.7957747E-01            NaN
         13   -1    0    0    0    0  0.00000000000E+00  0.00000000000E+00  0.74505805969E-08  0.10566000000E+00  0.10566000000E+00 0. -1.
     999900   -1    0    0    0    0 -0.00000000000E+00 -0.00000000000E+00 -0.74505805969E-08  0.93827000000E+00  0.93827000000E+00 0. -1.
     999902    2    1    2    0    0  0.60171518245E-02 -0.22799367997E-01  0.15864483726E-02  0.10202966736E+01  0.10200229253E+01 0.  0.
     999903    2    3    3    0    0 -0.12258478543E-01 -0.13077901343E+00 -0.11479792823E-01  0.13341205365E+00  0.20336414780E-01 0.  0.
         14    1    1    2    0    0 -0.60171518245E-02  0.22799367997E-01 -0.15864483726E-02  0.23633326375E-01  0.00000000000E+00 0. -1.
     999901    1    3    3    0    0  0.18275630368E-01  0.10797964543E+00  0.13066241196E-01  0.88688461998E+00  0.88000000000E+00 0. -1.
        -11    1    4    4    0    0 -0.13812487584E-01 -0.43947956982E-01 -0.41543408265E-02  0.46257187603E-01  0.51100000000E-03 0.  1.
         11    1    4    4    0    0  0.15540090414E-02 -0.86831056445E-01 -0.73254519967E-02  0.87154866045E-01  0.51100000000E-03 0. -1.
</event>
<event>
 8    1  0.1114447E+005  0.1043930E+01  0.7957747E-01            NaN
         13   -1    0    0    0    0  0.00000000000E+00  0.00000000000E+00  0.74505805969E-08  0.10566000000E+00  0.10566000000E+00 0. -1.
     999900   -1    0    0    0    0 -0.00000000000E+00 -0.00000000000E+00 -0.74505805969E-08  0.93827000000E+00  0.93827000000E+00 0.  1.
     999902    2    1    2    0    0 -0.47219699697E-02 -0.20146781781E-01 -0.94558611906E-02  0.10211791071E+01  0.10209256416E+01 0.  0.
     999903    2    3    3    0    0 -0.92417458057E-01  0.72367765483E-01  0.52021525598E-01  0.12987169147E+00  0.19553441765E-01 0.  0.
         14    1    1    2    0    0  0.47219699697E-02  0.20146781781E-01  0.94558611906E-02  0.22750892892E-01  0.00000000000E+00 0. -1.
     999901    1    3    3    0    0  0.87695488087E-01 -0.92514547264E-01 -0.61477386789E-01  0.89130741564E+00  0.88000000000E+00 0.  1.
        -11    1    4    4    0    0 -0.64910611338E-01  0.57759331591E-01  0.30829348699E-01  0.92196733740E-01  0.51100000000E-03 0. -1.
         11    1    4    4    0    0 -0.27506846719E-01  0.14608433892E-01  0.21192176899E-01  0.37674957729E-01  0.51100000000E-03 0.  1.
</event>
<event>
 8    1  0.1126519E+005  0.1043930E+01  0.7957747E-01            NaN
         13   -1    0    0    0    0  0.00000000000E+00  0.00000000000E+00  0.74505805969E-08  0.10566000000E+00  0.10566000000E+00 0.  1.
     999900   -1    0    0    0    0 -0.00000000000E+00 -0.00000000000E+00 -0.74505805969E-08  0.93827000000E+00  0.93827000000E+00 0.  1.
     999902    2    1    2    0    0 -0.10217765658E-03 -0.24665817414E-01 -0.75306739994E-02  0.10181400012E+01  0.10178133119E+01 0.  0.
     999903    2    3    3    0    0  0.69232912749E-01 -0.24380745308E-01  0.10350036199E+00  0.12845728976E+00  0.20033307498E-01 0.  0.
         14    1    1    2    0    0  0.10217765658E-03  0.24665817414E-01  0.75306739994E-02  0.25789998834E-01  0.00000000000E+00 0. -1.
     999901    1    3    3    0    0 -0.69335090406E-01 -0.28507210615E-03 -0.11103103599E+00  0.88968271141E+00  0.88000000000E+00 0.  1.
        -11    1    4    4    0    0  0.27754313888E-01  0.97595255090E-04  0.41915053862E-01  0.50273694170E-01  0.51100000000E-03 0. -1.
         11    1    4    4    0    0  0.41478598861E-01 -0.24478340563E-01  0.61585308131E-01  0.78183595586E-01  0.51100000000E-03 0.  1.
</event>
<event>
 8    1  0.1114447E+005  0.1043930E+01  0.7957747E-01            NaN
         13   -1    0    0    0    0  0.00000000000E+00  0.00000000000E+00  0.74505805969E-08  0.10566000000E+00  0.10566000000E+00 0.  1.
     999900   -1    0    0    0    0 -0.00000000000E+00 -0.00000000000E+00 -0.74505805969E-08  0.93827000000E+00  0.93827000000E+00 0.  1.
     999902    2    1    2    0    0  0.23148677873E-01  0.26608594727E-03  0.50515015049E-02  0.10202350690E+01  0.10199598748E+01 0.  0.
     999903    2    3    3    0    0 -0.74093692549E-01 -0.59150247566E-01  0.85877985106E-01  0.12921357667E+00  0.18234390777E-01 0.  0.
         14    1    1    2    0    0 -0.23148677873E-01 -0.26608594727E-03 -0.50515015049E-02  0.23694931029E-01  0.00000000000E+00 0.  1.
     999901    1    3    3    0    0  0.97242370422E-01  0.59416333513E-01 -0.80826483601E-01  0.89102149230E+00  0.88000000000E+00 0.  1.
        -11    1    4    4    0    0 -0.34304593469E-01 -0.33167898402E-01  0.53600859532E-01  0.71765088177E-01  0.51100000000E-03 0. -1.
         11    1    4    4    0    0 -0.39789099080E-01 -0.25982349163E-01  0.32277125574E-01  0.57448488491E-01  0.51100000000E-03 0.  1.
</event>
<event>
 8    1  0.1114447E+005  0.1043930E+01  0.7957747E-01            NaN
         13   -1    0    0    0    0  0.00000000000E+00  0.00000000000E+00  0.74505805969E-08  0.10566000000E+00  0.10566000000E+00 0.  1.
     999900   -1    0    0    0    0 -0.00000000000E+00 -0.00000000000E+00 -0.74505805969E-08  0.93827000000E+00  0.93827000000E+00 0.  1.
     999902    2    1    2    0    0 -0.49466608449E-02  0.25436455113E-01  0.19752366263E-02  0.10179418438E+01  0.10176100496E+01 0.  0.
     999903    2    3    3    0    0 -0.51113649328E-01 -0.80224414780E-01  0.81468656903E-01  0.12686675488E+00  0.20235354252E-01 0.  0.
         14    1    1    2    0    0  0.49466608449E-02 -0.25436455113E-01 -0.19752366263E-02  0.25988156186E-01  0.00000000000E+00 0. -1.
     999901    1    3    3    0    0  0.46166988483E-01  0.10566086989E+00 -0.79493420277E-01  0.89107508893E+00  0.88000000000E+00 0.  1.
        -11    1    4    4    0    0 -0.48446793257E-01 -0.61684132411E-01  0.63716030835E-01  0.10105452822E+00  0.51100000000E-03 0.  1.
         11    1    4    4    0    0 -0.26668560714E-02 -0.18540282369E-01  0.17752626068E-01  0.25812226656E-01  0.51100000000E-03 0. -1.
</event>
<event>
 8    1  0.1114447E+005  0.1043930E+01  0.7957747E-01            NaN
         13   -1    0    0    0    0  0.00000000000E+00  0.00000000000E+00  0.74505805969E-08  0.10566000000E+00  0.10566000000E+00 0. -1.
     999900   -1    0    0    0    0 -0.00000000000E+00 -0.00000000000E+00 -0.74505805969E-08  0.93827000000E+00  0.93827000000E+00 0. -1.
     999902    2    1    2    0    0  0.84396975206E-02  0.49309943171E-02 -0.22160357948E-01  0.10197096643E+01  0.10194219807E+01 0.  0.
     999903    2    3    3    0    0  0.82965817588E-01  0.94115913900E-01  0.30414085971E-01  0.13051218079E+00  0.19164565508E-01 0.  0.
         14    1    1    2    0    0 -0.84396975206E-02 -0.49309943171E-02  0.22160357948E-01  0.24220335744E-01  0.00000000000E+00 0.  1.
     999901    1    3    3    0    0 -0.74526120067E-01 -0.89184919583E-01 -0.52574443918E-01  0.88919748347E+00  0.88000000000E+00 0. -1.
        -11    1    4    4    0    0  0.36678809457E-01  0.27750584242E-01  0.11732170377E-01  0.47469305153E-01  0.51100000000E-03 0. -1.
         11    1    4    4    0    0  0.46287008131E-01  0.66365329659E-01  0.18681915594E-01  0.83042875635E-01  0.51100000000E-03 0.  1.
</event>
<event>
 8    1  0.1114447E+005  0.1043930E+01  0.7957747E-01            NaN
         13   -1    0    0    0    0  0.00000000000E+00  0.00000000000E+00  0.74505805969E-08  0.10566000000E+00  0.10566000000E+00 0. -1.
     999900   -1    0    0    0    0 -0.00000000000E+00 -0.00000000000E+00 -0.74505805969E-08  0.93827000000E+00  0.93827000000E+00 0.  1.
     999902    2    1    2    0    0  0.43907027390E-02  0.14054062251E-01  0.20292042989E-01  0.10188588623E+01  0.10185503519E+01 0.  0.
     999903    2    3    3    0    0  0.25597737531E-01 -0.39869183687E-01 -0.11566184552E+00  0.12653553830E+00  0.19717605590E-01 0.  0.
         14    1    1    2    0    0 -0.43907027390E-02 -0.14054062251E-01 -0.20292042989E-01  0.25071137688E-01  0.00000000000E+00 0.  1.
     999901    1    3    3    0    0 -0.21207034792E-01  0.53923245937E-01  0.13595388850E+00  0.89232332401E+00  0.88000000000E+00 0. -1.
        -11    1    4    4    0    0  0.42014323226E-02 -0.18374532274E-01 -0.63014932872E-01  0.65775514865E-01  0.51100000000E-03 0. -1.
         11    1    4    4    0    0  0.21396305209E-01 -0.21494651413E-01 -0.52646912644E-01  0.60760023435E-01  0.51100000000E-03 0.  1.
</event>
<event>
 8    1  0.1114447E+005  0.1043930E+01  0.7957747E-01            NaN
         13   -1    0    0    0    0  0.00000000000E+00  0.00000000000E+00  0.74505805969E-08  0.10566000000E+00  0.10566000000E+00 0.  1.
     999900   -1    0    0    0    0 -0.00000000000E+00 -0.00000000000E+00 -0.74505805969E-08  0.93827000000E+00  0.93827000000E+00 0. -1.
     999902    2    1    2    0    0 -0.23190981544E-01 -0.62030921502E-02 -0.28962662407E-02  0.10197496705E+01  0.10194629479E+01 0.  0.
     999903    2    3    3    0    0  0.12013581078E+00 -0.17683144142E-01 -0.33790388257E-01  0.12754520526E+00  0.19511084771E-01 0.  0.
         14    1    1    2    0    0  0.23190981544E-01  0.62030921502E-02  0.28962662407E-02  0.24180329512E-01  0.00000000000E+00 0. -1.
     999901    1    3    3    0    0 -0.14332679232E+00  0.11480051992E-01  0.30894122017E-01  0.89220446522E+00  0.88000000000E+00 0.  1.
        -11    1    4    4    0    0  0.83304554869E-01 -0.16777985510E-01 -0.31496209049E-01  0.90627931484E-01  0.51100000000E-03 0.  1.
         11    1    4    4    0    0  0.36831255909E-01 -0.90515863218E-03 -0.22941792081E-02  0.36917273779E-01  0.51100000000E-03 0. -1.
</event>
<event>
 8    1  0.1114447E+005  0.1043930E+01  0.7957747E-01            NaN
         13   -1    0    0    0    0  0.00000000000E+00  0.00000000000E+00  0.74505805969E-08  0.10566000000E+00  0.10566000000E+00 0.  1.
     999900   -1    0    0    0    0 -0.00000000000E+00 -0.00000000000E+00 -0.74505805969E-08  0.93827000000E+00  0.93827000000E+00 0. -1.
     999902    2    1    2    0    0 -0.65596647126E-02  0.36108767703E-02 -0.23510271518E-01  0.10192561171E+01  0.10189574239E+01 0.  0.
     999903    2    3    3    0    0  0.83815697441E-01  0.43807854735E-01 -0.88837243700E-01  0.13130841792E+00  0.20140642363E-01 0.  0.
         14    1    1    2    0    0  0.65596647126E-02 -0.36108767703E-02  0.23510271518E-01  0.24673882934E-01  0.00000000000E+00 0.  1.
     999901    1    3    3    0    0 -0.90375362154E-01 -0.40196977965E-01  0.65326972182E-01  0.88794769914E+00  0.88000000000E+00 0.  1.
        -11    1    4    4    0    0  0.31206704713E-01  0.81953258244E-02 -0.38621283089E-01  0.50327789668E-01  0.51100000000E-03 0. -1.
         11    1    4    4    0    0  0.52608992728E-01  0.35612528910E-01 -0.50215960611E-01  0.80980628253E-01  0.51100000000E-03 0.  1.
</event>
<event>
 8    1  0.1114447E+005  0.1043930E+01  0.7957747E-01            NaN
         13   -1    0    0    0    0  0.00000000000E+00  0.00000000000E+00  0.74505805969E-08  0.10566000000E+00  0.10566000000E+00 0.  1.
     999900   -1    0    0    0    0 -0.00000000000E+00 -0.00000000000E+00 -0.74505805969E-08  0.93827000000E+00  0.93827000000E+00 0. -1.
     999902    2    1    2    0    0 -0.15552049610E-01 -0.15288644820E-01  0.50972751002E-02  0.10215337699E+01  0.10212882316E+01 0.  0.
     999903    2    3    3    0    0 -0.59201618558E-01  0.11036645507E+00 -0.31804780320E-01  0.13077215722E+00  0.20105397467E-01 0.  0.
         14    1    1    2    0    0  0.15552049610E-01  0.15288644820E-01 -0.50972751002E-02  0.22396230061E-01  0.00000000000E+00 0. -1.
     999901    1    3    3    0    0  0.43649568947E-01 -0.12565509989E+00  0.36902055421E-01  0.89076161272E+00  0.88000000000E+00 0.  1.
        -11    1    4    4    0    0 -0.53007177523E-01  0.10602864365E+00 -0.26352591524E-01  0.12143539165E+00  0.51100000000E-03 0. -1.
         11    1    4    4    0    0 -0.61944410344E-02  0.43378114204E-02 -0.54521887967E-02  0.93367655707E-02  0.51100000000E-03 0.  1.
</event>
<event>
 8    1  0.1114447E+005  0.1043930E+01  0.7957747E-01            NaN
         13   -1    0    0    0    0  0.00000000000E+00  0.00000000000E+00  0.74505805969E-08  0.10566000000E+00  0.10566000000E+00 0. -1.
     999900   -1    0    0    0    0 -0.00000000000E+00 -0.00000000000E+00 -0.74505805969E-08  0.93827000000E+00  0.93827000000E+00 0. -1.
     999902    2    1    2    0    0  0.24361480099E-02 -0.22970241644E-01 -0.39734714877E-03  0.10208275174E+01  0.10205660662E+01 0.  0.
     999903    2    3    3    0    0 -0.10629209104E+00 -0.90901690482E-02  0.73187137412E-01  0.13097968615E+00  0.20461703477E-01 0.  0.
         14    1    1    2    0    0 -0.24361480099E-02  0.22970241644E-01  0.39734714877E-03  0.23102482617E-01  0.00000000000E+00 0.  1.
     999901    1    3    3    0    0  0.10872823905E+00 -0.13880072596E-01 -0.73584484561E-01  0.88984783123E+00  0.88000000000E+00 0. -1.
        -11    1    4    4    0    0 -0.68490174995E-01 -0.15037796619E-01  0.43221650417E-01  0.82373609754E-01  0.51100000000E-03 0.  1.
         11    1    4    4    0    0 -0.37801916049E-01  0.59476275710E-02  0.29965486995E-01  0.48606076395E-01  0.51100000000E-03 0. -1.
</event>
<event>
 8    1  0.1114447E+005  0.1043930E+01  0.7957747E-01            NaN
         13   -1    0    0    0    0  0.00000000000E+00  0.00000000000E+00  0.74505805969E-08  0.10566000000E+00  0.10566000000E+00 0. -1.
     999900   -1    0    0    0    0 -0.00000000000E+00 -0.00000000000E+00 -0.74505805969E-08  0.93827000000E+00  0.93827000000E+00 0.  1.
     999902    2    1    2    0    0 -0.90542974392E-02 -0.14412492897E-01  0.15637439025E-01  0.10208165893E+01  0.10205548879E+01 0.  0.
     999903    2    3    3    0    0 -0.71372012979E-01  0.10432773351E+00 -0.21878695410E-01  0.12986754512E+00  0.20215383867E-01 0.  0.
         14    1    1    2    0    0  0.90542974392E-02  0.14412492897E-01 -0.15637439025E-01  0.23113410672E-01  0.00000000000E+00 0.  1.
     999901    1    3    3    0    0  0.62317715540E-01 -0.11874022641E+00  0.37516134436E-01  0.89094904421E+00  0.88000000000E+00 0. -1.
        -11    1    4    4    0    0 -0.11531584457E-01  0.32584313346E-01 -0.68712119681E-02  0.35244710117E-01  0.51100000000E-03 0. -1.
         11    1    4    4    0    0 -0.59840428522E-01  0.71743420169E-01 -0.15007483442E-01  0.94622835000E-01  0.51100000000E-03 0.  1.
</event>
<event>
 8    1  0.1114447E+005  0.1043930E+01  0.7957747E-01            NaN
         13   -1    0    0    0    0  0.00000000000E+00  0.00000000000E+00  0.74505805969E-08  0.10566000000E+00  0.10566000000E+00 0. -1.
     999900   -1    0    0    0    0 -0.00000000000E+00 -0.00000000000E+00 -0.74505805969E-08  0.93827000000E+00  0.93827000000E+00 0.  1.
     999902    2    1    2    0    0 -0.24234941861E-02  0.54631010431E-02  0.22909988562E-01  0.10202532947E+01  0.10199785287E+01 0.  0.
     999903    2    3    3    0    0  0.78092941972E-02  0.12356579914E+00  0.39718607673E-01  0.13214548204E+00  0.23566264768E-01 0.  0.
         14    1    1    2    0    0  0.24234941861E-02 -0.54631010431E-02 -0.22909988562E-01  0.23676705282E-01  0.00000000000E+00 0.  1.
     999901    1    3    3    0    0 -0.10232788383E-01 -0.11810269810E+00 -0.16808619111E-01  0.88810781267E+00  0.88000000000E+00 0.  1.
        -11    1    4    4    0    0  0.71677978950E-02  0.98603184120E-01  0.41244138704E-01  0.10712285164E+00  0.51100000000E-03 0.  1.
         11    1    4    4    0    0  0.64149630221E-03  0.24962615024E-01 -0.15255310309E-02  0.25022630403E-01  0.51100000000E-03 0. -1.
</event>
<event>
 8    1  0.1114447E+005  0.1043930E+01  0.7957747E-01            NaN
         13   -1    0    0    0    0  0.00000000000E+00  0.00000000000E+00  0.74505805969E-08  0.10566000000E+00  0.10566000000E+00 0. -1.
     999900   -1    0    0    0    0 -0.00000000000E+00 -0.00000000000E+00 -0.74505805969E-08  0.93827000000E+00  0.93827000000E+00 0. -1.
     999902    2    1    2    0    0  0.21213812811E-01 -0.47680635018E-02 -0.95500886871E-02  0.10201820637E+01  0.10199056224E+01 0.  0.
     999903    2    3    3    0    0  0.11385209943E-01 -0.12399969581E+00 -0.37622125373E-01  0.13164347547E+00  0.20224558081E-01 0.  0.
         14    1    1    2    0    0 -0.21213812811E-01  0.47680635018E-02  0.95500886871E-02  0.23747936278E-01  0.00000000000E+00 0.  1.
     999901    1    3    3    0    0  0.98286028673E-02  0.11923163231E+00  0.28072036686E-01  0.88853858826E+00  0.88000000000E+00 0. -1.
        -11    1    4    4    0    0 -0.58182040911E-02 -0.32636947678E-01 -0.11111364963E-01  0.34967776665E-01  0.51100000000E-03 0.  1.
         11    1    4    4    0    0  0.17203414034E-01 -0.91362748129E-01 -0.26510760410E-01  0.96675698801E-01  0.51100000000E-03 0. -1.
</event>
<event>
 8    1  0.1114447E+005  0.1043930E+01  0.7957747E-01            NaN
         13   -1    0    0    0    0  0.00000000000E+00  0.00000000000E+00  0.74505805969E-08  0.10566000000E+00  0.10566000000E+00 0. -1.
     999900   -1    0    0    0    0 -0.00000000000E+00 -0.00000000000E+00 -0.74505805969E-08  0.93827000000E+00  0.93827000000E+00 0.  1.
     999902    2    1    2    0    0  0.21537405977E-01 -0.94050435222E-02  0.73130251528E-02  0.10193170961E+01  0.10190198955E+01 0.  0.
     999903    2    3    3    0    0 -0.54062324378E-01  0.11338396968E+00 -0.71855192142E-02  0.12746359427E+00  0.20412659794E-01 0.  0.
         14    1    1    2    0    0 -0.21537405977E-01  0.94050435222E-02 -0.73130251528E-02  0.24612903867E-01  0.00000000000E+00 0. -1.
     999901    1    3    3    0    0  0.75599730355E-01 -0.12278901321E+00  0.14498544367E-01  0.89185350186E+00  0.88000000000E+00 0. -1.
        -11    1    4    4    0    0 -0.71208719482E-02  0.29881391654E-01 -0.76832248522E-02  0.31668556166E-01  0.51100000000E-03 0.  1.
         11    1    4    4    0    0 -0.46941452430E-01  0.83502578029E-01  0.49770563799E-03  0.95795038106E-01  0.51100000000E-03 0. -1.
</event>
<event>
 8    1  0.1114447E+005  0.1043930E+01  0.7957747E-01            NaN
         13   -1    0    0    0    0  0.00000000000E+00  0.00000000000E+00  0.74505805969E-08  0.10566000000E+00  0.10566000000E+00 0. -1.
     999900   -1    0    0    0    0 -0.00000000000E+00 -0.00000000000E+00 -0.74505805969E-08  0.93827000000E+00  0.93827000000E+00 0. -1.
     999902    2    1    2    0    0  0.37113613270E-02 -0.68231449578E-02  0.21929318587E-01  0.10206657673E+01  0.10204005998E+01 0.  0.
     999903    2    3    3    0    0 -0.47240931291E-01  0.71337382071E-01  0.98931650176E-01  0.13238959223E+00  0.20464727060E-01 0.  0.
         14    1    1    2    0    0 -0.37113613270E-02  0.68231449578E-02 -0.21929318587E-01  0.23264232713E-01  0.00000000000E+00 0.  1.
     999901    1    3    3    0    0  0.50952292618E-01 -0.78160527029E-01 -0.77002331589E-01  0.88827617506E+00  0.88000000000E+00 0. -1.
        -11    1    4    4    0    0 -0.28837170467E-01  0.54104578550E-01  0.58530720247E-01  0.84764344829E-01  0.51100000000E-03 0.  1.
         11    1    4    4    0    0 -0.18403760824E-01  0.17232803521E-01  0.40400929929E-01  0.47625247399E-01  0.51100000000E-03 0. -1.
</event>
<event>
 8    1  0.1114447E+005  0.1043930E+01  0.7957747E-01            NaN
         13   -1    0    0    0    0  0.00000000000E+00  0.00000000000E+00  0.74505805969E-08  0.10566000000E+00  0.10566000000E+00 0. -1.
     999900   -1    0    0    0    0 -0.00000000000E+00 -0.00000000000E+00 -0.74505805969E-08  0.93827000000E+00  0.93827000000E+00 0. -1.
     999902    2    1    2    0    0 -0.22066177546E-01  0.82059189390E-02  0.16982059848E-02  0.10203262460E+01  0.10200531904E+01 0.  0.
     999903    2    3    3    0    0 -0.64317083976E-01 -0.85480546299E-01 -0.72300455422E-01  0.13126039092E+00  0.23628865465E-01 0.  0.
         14    1    1    2    0    0  0.22066177546E-01 -0.82059189390E-02 -0.16982059848E-02  0.23603753954E-01  0.00000000000E+00 0.  1.
     999901    1    3    3    0    0  0.42250906430E-01  0.93686465238E-01  0.73998661407E-01  0.88906585513E+00  0.88000000000E+00 0.  1.
        -11    1    4    4    0    0 -0.55322288446E-01 -0.79843916051E-01 -0.56986737149E-01  0.11262040606E+00  0.51100000000E-03 0. -1.
         11    1    4    4    0    0 -0.89947955309E-02 -0.56366302481E-02 -0.15313718273E-01  0.18639984859E-01  0.51100000000E-03 0.  1.
</event>
<event>
 8    1  0.1114447E+005  0.1043930E+01  0.7957747E-01            NaN
         13   -1    0    0    0    0  0.00000000000E+00  0.00000000000E+00  0.74505805969E-08  0.10566000000E+00  0.10566000000E+00 0. -1.
     999900   -1    0    0    0    0 -0.00000000000E+00 -0.00000000000E+00 -0.74505805969E-08  0.93827000000E+00  0.93827000000E+00 0.  1.
     999902    2    1    2    0    0 -0.16820320710E-01  0.10692968560E-01  0.12838213994E-01  0.10202217208E+01  0.10199462128E+01 0.  0.
     999903    2    3    3    0    0 -0.75238960588E-01  0.90102646338E-01  0.60266114853E-01  0.13344776976E+00  0.19922715364E-01 0.  0.
         14    1    1    2    0    0  0.16820320710E-01 -0.10692968560E-01 -0.12838213994E-01  0.23708279228E-01  0.00000000000E+00 0.  1.
     999901    1    3    3    0    0  0.58418639878E-01 -0.79409677778E-01 -0.47427900860E-01  0.88677395101E+00  0.88000000000E+00 0.  1.
        -11    1    4    4    0    0 -0.52924798813E-01  0.67237565513E-01  0.33971307819E-01  0.92066472841E-01  0.51100000000E-03 0. -1.
         11    1    4    4    0    0 -0.22314161775E-01  0.22865080825E-01  0.26294807034E-01  0.41381296921E-01  0.51100000000E-03 0.  1.
</event>
<event>
 8    1  0.1114447E+005  0.1043930E+01  0.7957747E-01            NaN
         13   -1    0    0    0    0  0.00000000000E+00  0.00000000000E+00  0.74505805969E-08  0.10566000000E+00  0.10566000000E+00 0.  1.
     999900   -1    0    0    0    0 -0.00000000000E+00 -0.00000000000E+00 -0.74505805969E-08  0.93827000000E+00  0.93827000000E+00 0.  1.
     999902    2    1    2    0    0  0.17465618590E-01 -0.50002722414E-02  0.12177968082E-01  0.10220587069E+01  0.10218246654E+01 0.  0.
     999903    2    3    3    0    0  0.56831868462E-01 -0.11907819391E+00  0.96587136965E-02  0.13381897547E+00  0.20118397289E-01 0.  0.
         14    1    1    2    0    0 -0.17465618590E-01  0.50002722414E-02 -0.12177968082E-01  0.21871293099E-01  0.00000000000E+00 0.  1.
     999901    1    3    3    0    0 -0.39366249872E-01  0.11407792167E+00  0.25192543853E-02  0.88823973143E+00  0.88000000000E+00 0. -1.
        -11    1    4    4    0    0  0.27282688066E-01 -0.72054580843E-01 -0.19764198425E-02  0.77073828535E-01  0.51100000000E-03 0. -1.
         11    1    4    4    0    0  0.29549180396E-01 -0.47023613065E-01  0.11635133539E-01  0.56745146940E-01  0.51100000000E-03 0.  1.
</event>
<event>
 8    1  0.1114447E+005  0.1043930E+01  0.7957747E-01            NaN
         13   -1    0    0    0    0  0.00000000000E+00  0.00000000000E+00  0.74505805969E-08  0.10566000000E+00  0.10566000000E+00 0.  1.
     999900   -1    0    0    0    0 -0.00000000000E+00 -0.00000000000E+00 -0.74505805969E-08  0.93827000000E+00  0.93827000000E+00 0.  1.
     999902    2    1    2    0    0 -0.71244224536E-02 -0.18334375727E-01 -0.85139102183E-02  0.10224965356E+01  0.10222718679E+01 0.  0.
     999903    2    3    3    0    0  0.92923722199E-02  0.15779433750E-01 -0.13040706847E+00  0.13328834560E+00  0.20601962425E-01 0.  0.
         14    1    1    2    0    0  0.71244224536E-02  0.18334375727E-01  0.85139102183E-02  0.21433464391E-01  0.00000000000E+00 0.  1.
     999901    1    3    3    0    0 -0.16416794673E-01 -0.34113809477E-01  0.12189315825E+00  0.88920819001E+00  0.88000000000E+00 0. -1.
        -11    1    4    4    0    0  0.10158255838E-01  0.12648189095E-01 -0.45335795455E-01  0.48153528631E-01  0.51100000000E-03 0.  1.
         11    1    4    4    0    0 -0.86588361820E-03  0.31312446550E-02 -0.85071273015E-01  0.85134816972E-01  0.51100000000E-03 0. -1.
</event>
<event>
 8    1  0.1114447E+005  0.1043930E+01  0.7957747E-01            NaN
         13   -1    0    0    0    0  0.00000000000E+00  0.00000000000E+00  0.74505805969E-08  0.10566000000E+00  0.10566000000E+00 0.  1.
     999900   -1    0    0    0    0 -0.00000000000E+00 -0.00000000000E+00 -0.74505805969E-08  0.93827000000E+00  0.93827000000E+00 0.  1.
     999902    2    1    2    0    0  0.25465403121E-01  0.30543285373E-02 -0.18733912126E-02  0.10182137547E+01  0.10178889551E+01 0.  0.
     999903    2    3    3    0    0  0.45148383560E-02  0.10696158704E+00  0.68864929939E-01  0.12903460815E+00  0.21127864473E-01 0.  0.
         14    1    1    2    0    0 -0.25465403121E-01 -0.30543285373E-02  0.18733912126E-02  0.25716245324E-01  0.00000000000E+00 0. -1.
     999901    1    3    3    0    0  0.20950564765E-01 -0.10390725851E+00 -0.70738321152E-01  0.88917914652E+00  0.88000000000E+00 0.  1.
        -11    1    4    4    0    0 -0.26663587471E-02  0.10861046614E-01  0.11519319022E-02  0.11254326752E-01  0.51100000000E-03 0. -1.
         11    1    4    4    0    0  0.71811971031E-02  0.96100540429E-01  0.67712998037E-01  0.11778028140E+00  0.51100000000E-03 0.  1.
</event>
<event>
 8    1  0.1114447E+005  0.1043930E+01  0.7957747E-01            NaN
         13   -1    0    0    0    0  0.00000000000E+00  0.00000000000E+00  0.74505805969E-08  0.10566000000E+00  0.10566000000E+00 0. -1.
     999900   -1    0    0    0    0 -0.00000000000E+00 -0.00000000000E+00 -0.74505805969E-08  0.93827000000E+00  0.93827000000E+00 0. -1.
     999902    2    1    2    0    0 -0.25029466685E-03 -0.24273016269E-01  0.35143619778E-02  0.10194026131E+01  0.10191074992E+01 0.  0.
     999903    2    3    3    0    0 -0.40935773067E-01  0.77956252481E-01  0.91074710007E-01  0.12823879762E+00  0.19941704905E-01 0.  0.
         14    1    1    2    0    0  0.25029466685E-03  0.24273016269E-01 -0.35143619778E-02  0.24527386863E-01  0.00000000000E+00 0. -1.
     999901    1    3    3    0    0  0.40685478400E-01 -0.10222926875E+00 -0.87560348029E-01  0.89116381552E+00  0.88000000000E+00 0. -1.
        -11    1    4    4    0    0 -0.22365160630E-01  0.48669311680E-01  0.68081097677E-01  0.86626781605E-01  0.51100000000E-03 0.  1.
         11    1    4    4    0    0 -0.18570612437E-01  0.29286940801E-01  0.22993612330E-01  0.41612016014E-01  0.51100000000E-03 0. -1.
</event>
<event>
 8    1  0.1114447E+005  0.1043930E+01  0.7957747E-01            NaN
         13   -1    0    0    0    0  0.00000000000E+00  0.00000000000E+00  0.74505805969E-08  0.10566000000E+00  0.10566000000E+00 0. -1.
     999900   -1    0    0    0    0 -0.00000000000E+00 -0.00000000000E+00 -0.74505805969E-08  0.93827000000E+00  0.93827000000E+00 0. -1.
     999902    2    1    2    0    0 -0.18751807976E-01  0.12949132126E-01 -0.66075384902E-02  0.10202030135E+01  0.10199270654E+01 0.  0.
     999903    2    3    3    0    0 -0.35057599546E-01  0.34593073853E-01 -0.12119262054E+00  0.13236064002E+00  0.20148739633E-01 0.  0.
         14    1    1    2    0    0  0.18751807976E-01 -0.12949132126E-01  0.66075384902E-02  0.23726986536E-01  0.00000000000E+00 0. -1.
     999901    1    3    3    0    0  0.16305791570E-01 -0.21643941727E-01  0.11458508205E+00  0.88784237344E+00  0.88000000000E+00 0.  1.
        -11    1    4    4    0    0 -0.33934581666E-03  0.11237668019E-01 -0.29363823117E-01  0.31446709957E-01  0.51100000000E-03 0.  1.
         11    1    4    4    0    0 -0.34718253729E-01  0.23355405834E-01 -0.91828797424E-01  0.10091393006E+00  0.51100000000E-03 0. -1.
</event>
<event>
 8    1  0.1114447E+005  0.1043930E+01  0.7957747E-01            NaN
         13   -1    0    0    0    0  0.00000000000E+00  0.00000000000E+00  0.74505805969E-08  0.10566000000E+00  0.10566000000E+00 0.  1.
     999900   -1    0    0    0    0 -0.00000000000E+00 -0.00000000000E+00 -0.74505805969E-08  0.93827000000E+00  0.93827000000E+00 0.  1.
     999902    2    1    2    0    0 -0.28679265799E-02 -0.70376085155E-03 -0.23326751244E-01  0.10204170758E+01  0.10201461419E+01 0.  0.
     999903    2    3    3    0    0 -0.33070265741E-01 -0.10538983730E+00 -0.70303882802E-01  0.13245412227E+00  0.20019947282E-01 0.  0.
         14    1    1    2    0    0  0.28679265799E-02  0.70376085155E-03  0.23326751244E-01  0.23512924229E-01  0.00000000000E+00 0.  1.
     999901    1    3    3    0    0  0.30202339161E-01  0.10468607644E+00  0.46977131558E-01  0.88796295350E+00  0.88000000000E+00 0.  1.
        -11    1    4    4    0    0 -0.20147906918E-01 -0.41378567511E-01 -0.37526245281E-01  0.59385218769E-01  0.51100000000E-03 0. -1.
         11    1    4    4    0    0 -0.12922358823E-01 -0.64011269785E-01 -0.32777637521E-01  0.73068903506E-01  0.51100000000E-03 0.  1.
</event>
<event>
 8    1  0.1114447E+005  0.1043930E+01  0.7957747E-01            NaN
         13   -1    0    0    0    0  0.00000000000E+00  0.00000000000E+00  0.74505805969E-08  0.10566000000E+00  0.10566000000E+00 0.  1.
     999900   -1    0    0    0    0 -0.00000000000E+00 -0.00000000000E+00 -0.74505805969E-08  0.93827000000E+00  0.93827000000E+00 0.  1.
     999902    2    1    2    0    0 -0.19361688566E-01  0.12719203697E-01  0.45226210901E-02  0.10203268810E+01  0.10200538401E+01 0.  0.
     999903    2    3    3    0    0 -0.70863059440E-01  0.10544200582E+00  0.35191393708E-01  0.13342751641E+00  0.20612572826E-01 0.  0.
         14    1    1    2    0    0  0.19361688566E-01 -0.12719203697E-01 -0.45226210901E-02  0.23603119038E-01  0.00000000000E+00 0. -1.
     999901    1    3    3    0    0  0.51501370874E-01 -0.92722802123E-01 -0.30668772618E-01  0.88689936456E+00  0.88000000000E+00 0.  1.
        -11    1    4    4    0    0 -0.54950243243E-01  0.64273054626E-01  0.22990269103E-01  0.87632005443E-01  0.51100000000E-03 0. -1.
         11    1    4    4    0    0 -0.15912816196E-01  0.41168951195E-01  0.12201124605E-01  0.45795510963E-01  0.51100000000E-03 0.  1.
</event>
<event>
 8    1  0.1114447E+005  0.1043930E+01  0.7957747E-01            NaN
         13   -1    0    0    0    0  0.00000000000E+00  0.00000000000E+00  0.74505805969E-08  0.10566000000E+00  0.10566000000E+00 0. -1.
     999900   -1    0    0    0    0 -0.00000000000E+00 -0.00000000000E+00 -0.74505805969E-08  0.93827000000E+00  0.93827000000E+00 0.  1.
     999902    2    1    2    0    0 -0.20202692104E-01  0.99476765298E-02 -0.74522990460E-02  0.10202099284E+01  0.10199341431E+01 0.  0.
     999903    2    3    3    0    0  0.11065509977E-01  0.64698741853E-01 -0.11250682289E+00  0.13172141827E+00  0.19605461652E-01 0.  0.
         14    1    1    2    0    0  0.20202692104E-01 -0.99476765298E-02  0.74522990460E-02  0.23720071620E-01  0.00000000000E+00 0.  1.
     999901    1    3    3    0    0 -0.31268202080E-01 -0.54751065323E-01  0.10505452384E+00  0.88848851011E+00  0.88000000000E+00 0. -1.
        -11    1    4    4    0    0  0.10440089518E-02  0.32737143986E-01 -0.72389669182E-01  0.79456503047E-01  0.51100000000E-03 0. -1.
         11    1    4    4    0    0  0.10021501025E-01  0.31961597867E-01 -0.40117153706E-01  0.52264915225E-01  0.51100000000E-03 0.  1.
</event>
<event>
 8    1  0.1114447E+005  0.1043930E+01  0.7957747E-01            NaN
         13   -1    0    0    0    0  0.00000000000E+00  0.00000000000E+00  0.74505805969E-08  0.10566000000E+00  0.10566000000E+00 0.  1.
     999900   -1    0    0    0    0 -0.00000000000E+00 -0.00000000000E+00 -0.74505805969E-08  0.93827000000E+00  0.93827000000E+00 0.  1.
     999902    2    1    2    0    0  0.75578974648E-02  0.15196285829E-01  0.37585156390E-02  0.10265468082E+01  0.10263996171E+01 0.  0.
     999903    2    3    3    0    0 -0.67211041543E-01  0.77870871310E-01  0.87474564169E-01  0.13720611157E+00  0.24341753697E-01 0.  0.
         14    1    1    2    0    0 -0.75578974648E-02 -0.15196285829E-01 -0.37585156390E-02  0.17383191792E-01  0.00000000000E+00 0. -1.
     999901    1    3    3    0    0  0.74768939008E-01 -0.62674585481E-01 -0.83716048530E-01  0.88934069663E+00  0.88000000000E+00 0.  1.
        -11    1    4    4    0    0 -0.98660979885E-02  0.15770736348E-01  0.28872495397E-01  0.34350227451E-01  0.51100000000E-03 0.  1.
         11    1    4    4    0    0 -0.57344943554E-01  0.62100134962E-01  0.58602068772E-01  0.10285588412E+00  0.51100000000E-03 0. -1.
</event>
<event>
 8    1  0.1114447E+005  0.1043930E+01  0.7957747E-01            NaN
         13   -1    0    0    0    0  0.00000000000E+00  0.00000000000E+00  0.74505805969E-08  0.10566000000E+00  0.10566000000E+00 0.  1.
     999900   -1    0    0    0    0 -0.00000000000E+00 -0.00000000000E+00 -0.74505805969E-08  0.93827000000E+00  0.93827000000E+00 0.  1.
     999902    2    1    2    0    0 -0.32354056419E-02  0.19881655410E-01  0.11863861710E-01  0.10205526758E+01  0.10202848939E+01 0.  0.
     999903    2    3    3    0    0  0.84899107681E-01  0.97471634725E-01 -0.18990724939E-01  0.13221720830E+00  0.20301834277E-01 0.  0.
         14    1    1    2    0    0  0.32354056419E-02 -0.19881655410E-01 -0.11863861710E-01  0.23377324188E-01  0.00000000000E+00 0. -1.
     999901    1    3    3    0    0 -0.88134513323E-01 -0.77589979314E-01  0.30854586648E-01  0.88833546752E+00  0.88000000000E+00 0.  1.
        -11    1    4    4    0    0  0.50150981657E-01  0.71787667150E-01 -0.10809067672E-01  0.88236541075E-01  0.51100000000E-03 0. -1.
         11    1    4    4    0    0  0.34748126024E-01  0.25683967575E-01 -0.81816572665E-02  0.43980667221E-01  0.51100000000E-03 0.  1.
</event>
<event>
 8    1  0.1114447E+005  0.1043930E+01  0.7957747E-01            NaN
         13   -1    0    0    0    0  0.00000000000E+00  0.00000000000E+00  0.74505805969E-08  0.10566000000E+00  0.10566000000E+00 0.  1.
     999900   -1    0    0    0    0 -0.00000000000E+00 -0.00000000000E+00 -0.74505805969E-08  0.93827000000E+00  0.93827000000E+00 0.  1.
     999902    2    1    2    0    0  0.91298536002E-02  0.22592674951E-01  0.12389893568E-01  0.10165933460E+01  0.10162257321E+01 0.  0.
     999903    2    3    3    0    0 -0.10081331603E+00  0.74447737536E-01 -0.16416850374E-01  0.12777037346E+00  0.18707352677E-01 0.  0.
         14    1    1    2    0    0 -0.91298536002E-02 -0.22592674951E-01 -0.12389893568E-01  0.27336653980E-01  0.00000000000E+00 0.  1.
     999901    1    3    3    0    0  0.10994316963E+00 -0.51855062586E-01  0.28806743942E-01  0.88882297257E+00  0.88000000000E+00 0. -1.
        -11    1    4    4    0    0 -0.52248651021E-01  0.49826751118E-01 -0.74220166964E-02  0.72580810917E-01  0.51100000000E-03 0. -1.
         11    1    4    4    0    0 -0.48564665005E-01  0.24620986418E-01 -0.89948336781E-02  0.55189562538E-01  0.51100000000E-03 0.  1.
</event>
<event>
 8    1  0.1114447E+005  0.1043930E+01  0.7957747E-01            NaN
         13   -1    0    0    0    0  0.00000000000E+00  0.00000000000E+00  0.74505805969E-08  0.10566000000E+00  0.10566000000E+00 0.  1.
     999900   -1    0    0    0    0 -0.00000000000E+00 -0.00000000000E+00 -0.74505805969E-08  0.93827000000E+00  0.93827000000E+00 0. -1.
     999902    2    1    2    0    0 -0.94199149199E-02 -0.19637135861E-01 -0.10954927021E-01  0.10195504527E+01  0.10192589284E+01 0.  0.
     999903    2    3    3    0    0 -0.10885126027E+00 -0.30987839201E-01 -0.64482509905E-01  0.13226209310E+00  0.22943934866E-01 0.  0.
         14    1    1    2    0    0  0.94199149199E-02  0.19637135861E-01  0.10954927021E-01  0.24379547329E-01  0.00000000000E+00 0. -1.
     999901    1    3    3    0    0  0.99431345347E-01  0.11350703340E-01  0.53527582884E-01  0.88728835957E+00  0.88000000000E+00 0. -1.
        -11    1    4    4    0    0 -0.61256514163E-01 -0.22531134390E-01 -0.48599682197E-01  0.81376917949E-01  0.51100000000E-03 0.  1.
         11    1    4    4    0    0 -0.47594746104E-01 -0.84567048103E-02 -0.15882827709E-01  0.50885175150E-01  0.51100000000E-03 0. -1.
</event>
<event>
 8    1  0.1114447E+005  0.1043930E+01  0.7957747E-01            NaN
         13   -1    0    0    0    0  0.00000000000E+00  0.00000000000E+00  0.74505805969E-08  0.10566000000E+00  0.10566000000E+00 0.  1.
     999900   -1    0    0    0    0 -0.00000000000E+00 -0.00000000000E+00 -0.74505805969E-08  0.93827000000E+00  0.93827000000E+00 0.  1.
     999902    2    1    2    0    0 -0.65322174876E-02 -0.22107349276E-01 -0.40966029895E-03  0.10208741422E+01  0.10206137573E+01 0.  0.
     999903    2    3    3    0    0 -0.12850482283E+00 -0.68994898586E-02  0.21614939586E-01  0.13205825663E+00  0.20275233201E-01 0.  0.
         14    1    1    2    0    0  0.65322174876E-02  0.22107349276E-01  0.40966029895E-03  0.23055857799E-01  0.00000000000E+00 0.  1.
     999901    1    3    3    0    0  0.12197260534E+00 -0.15207859417E-01 -0.22024599885E-01  0.88881588557E+00  0.88000000000E+00 0. -1.
        -11    1    4    4    0    0 -0.27968205786E-01 -0.77849508800E-02 -0.80468722879E-03  0.29047110659E-01  0.51100000000E-03 0. -1.
         11    1    4    4    0    0 -0.10053661704E+00  0.88546102135E-03  0.22419626815E-01  0.10301114597E+00  0.51100000000E-03 0.  1.
</event>
<event>
 8    1  0.1114447E+005  0.1043930E+01  0.7957747E-01            NaN
         13   -1    0    0    0    0  0.00000000000E+00  0.00000000000E+00  0.74505805969E-08  0.10566000000E+00  0.10566000000E+00 0. -1.
     999900   -1    0    0    0    0 -0.00000000000E+00 -0.00000000000E+00 -0.74505805969E-08  0.93827000000E+00  0.93827000000E+00 0. -1.
     999902    2    1    2    0    0 -0.96970728524E-02  0.24832810808E-02  0.21554773860E-01  0.10201643066E+01  0.10198874469E+01 0.  0.
     999903    2    3    3    0    0  0.12419957538E+00  0.21956845977E-01 -0.17737718874E-01  0.12895645647E+00  0.20186713081E-01 0.  0.
         14    1    1    2    0    0  0.96970728524E-02 -0.24832810808E-02 -0.21554773860E-01  0.23765693404E-01  0.00000000000E+00 0.  1.
     999901    1    3    3    0    0 -0.13389664823E+00 -0.19473564896E-01  0.39292492734E-01  0.89120785012E+00  0.88000000000E+00 0.  1.
        -11    1    4    4    0    0  0.41043922045E-01 -0.12109732776E-02 -0.10141131276E-01  0.42298624773E-01  0.51100000000E-03 0.  1.
         11    1    4    4    0    0  0.83155653335E-01  0.23167819255E-01 -0.75965875978E-02  0.86657831699E-01  0.51100000000E-03 0. -1.
</event>
<event>
 8    1  0.1114447E+005  0.1043930E+01  0.7957747E-01            NaN
         13   -1    0    0    0    0  0.00000000000E+00  0.00000000000E+00  0.74505805969E-08  0.10566000000E+00  0.10566000000E+00 0. -1.
     999900   -1    0    0    0    0 -0.00000000000E+00 -0.00000000000E+00 -0.74505805969E-08  0.93827000000E+00  0.93827000000E+00 0. -1.
     999902    2    1    2    0    0  0.99506865233E-02  0.14700569646E-01  0.41584127825E-03  0.10261734284E+01  0.10260197899E+01 0.  0.
     999903    2    3    3    0    0  0.37337678462E-01  0.96549844013E-01 -0.88732736651E-01  0.13746829173E+00  0.17551582978E-01 0.  0.
         14    1    1    2    0    0 -0.99506865233E-02 -0.14700569646E-01 -0.41584127825E-03  0.17756571577E-01  0.00000000000E+00 0. -1.
     999901    1    3    3    0    0 -0.27386991938E-01 -0.81849274367E-01  0.89148577929E-01  0.88870513670E+00  0.88000000000E+00 0.  1.
        -11    1    4    4    0    0  0.17062055277E-01  0.35557069629E-01 -0.44382937364E-01  0.59376133092E-01  0.51100000000E-03 0.  1.
         11    1    4    4    0    0  0.20275623185E-01  0.60992774384E-01 -0.44349799287E-01  0.78092158636E-01  0.51100000000E-03 0. -1.
</event>
<event>
 8    1  0.1114447E+005  0.1043930E+01  0.7957747E-01            NaN
         13   -1    0    0    0    0  0.00000000000E+00  0.00000000000E+00  0.74505805969E-08  0.10566000000E+00  0.10566000000E+00 0. -1.
     999900   -1    0    0    0    0 -0.00000000000E+00 -0.00000000000E+00 -0.74505805969E-08  0.93827000000E+00  0.93827000000E+00 0.  1.
     999902    2    1    2    0    0 -0.13749109655E-01  0.12499510517E-01 -0.14818442330E-01  0.10201631741E+01  0.10198862877E+01 0.  0.
     999903    2    3    3    0    0  0.12638207603E+00  0.16645754525E-01  0.64058044059E-02  0.12881340596E+00  0.17388183918E-01 0.  0.
         14    1    1    2    0    0  0.13749109655E-01 -0.12499510517E-01  0.14818442330E-01  0.23766825883E-01  0.00000000000E+00 0. -1.
     999901    1    3    3    0    0 -0.14013118569E+00 -0.41462440082E-02 -0.21224246735E-01  0.89134976816E+00  0.88000000000E+00 0.  1.
        -11    1    4    4    0    0  0.11674964559E+00  0.19483275655E-01  0.37986285292E-02  0.11842621532E+00  0.51100000000E-03 0.  1.
         11    1    4    4    0    0  0.96324304441E-02 -0.28375211304E-02  0.26071758767E-02  0.10387190644E-01  0.51100000000E-03 0. -1.
</event>
<event>
 8    1  0.1114447E+005  0.1043930E+01  0.7957747E-01            NaN
         13   -1    0    0    0    0  0.00000000000E+00  0.00000000000E+00  0.74505805969E-08  0.10566000000E+00  0.10566000000E+00 0.  1.
     999900   -1    0    0    0    0 -0.00000000000E+00 -0.00000000000E+00 -0.74505805969E-08  0.93827000000E+00  0.93827000000E+00 0.  1.
     999902    2    1    2    0    0 -0.19249316321E-01 -0.11983476380E-01 -0.52223814893E-02  0.10206617136E+01  0.10203964526E+01 0.  0.
     999903    2    3    3    0    0 -0.30966352706E-01 -0.12585777693E+00 -0.23741967296E-01  0.13305390585E+00  0.18454425929E-01 0.  0.
         14    1    1    2    0    0  0.19249316321E-01  0.11983476380E-01  0.52223814893E-02  0.23268286430E-01  0.00000000000E+00 0.  1.
     999901    1    3    3    0    0  0.11717036385E-01  0.11387430055E+00  0.18519585806E-01  0.88760780772E+00  0.88000000000E+00 0. -1.
        -11    1    4    4    0    0 -0.23767543746E-01 -0.59598992295E-01 -0.90145428162E-02  0.64795517757E-01  0.51100000000E-03 0.  1.
         11    1    4    4    0    0 -0.71988089603E-02 -0.66258784638E-01 -0.14727424480E-01  0.68258388092E-01  0.51100000000E-03 0. -1.
</event>
<event>
 8    1  0.1114447E+005  0.1043930E+01  0.7957747E-01            NaN
         13   -1    0    0    0    0  0.00000000000E+00  0.00000000000E+00  0.74505805969E-08  0.10566000000E+00  0.10566000000E+00 0. -1.
     999900   -1    0    0    0    0 -0.00000000000E+00 -0.00000000000E+00 -0.74505805969E-08  0.93827000000E+00  0.93827000000E+00 0. -1.
     999902    2    1    2    0    0 -0.15313402596E-01 -0.13530930143E-01 -0.99233865599E-02  0.10212130466E+01  0.10209603453E+01 0.  0.
     999903    2    3    3    0    0 -0.35492572211E-01 -0.99538772167E-01 -0.80470806880E-01  0.13398055946E+00  0.17537095159E-01 0.  0.
         14    1    1    2    0    0  0.15313402596E-01  0.13530930143E-01  0.99233865599E-02  0.22716953370E-01  0.00000000000E+00 0.  1.
     999901    1    3    3    0    0  0.20179169615E-01  0.86007842023E-01  0.70547420320E-01  0.88723248717E+00  0.88000000000E+00 0. -1.
        -11    1    4    4    0    0 -0.34297352065E-01 -0.75005023909E-01 -0.64122782890E-01  0.10447035166E+00  0.51100000000E-03 0. -1.
         11    1    4    4    0    0 -0.11952201462E-02 -0.24533748257E-01 -0.16348023991E-01  0.29510207796E-01  0.51100000000E-03 0.  1.
</event>
<event>
 8    1  0.1114447E+005  0.1043930E+01  0.7957747E-01            NaN
         13   -1    0    0    0    0  0.00000000000E+00  0.00000000000E+00  0.74505805969E-08  0.10566000000E+00  0.10566000000E+00 0.  1.
     999900   -1    0    0    0    0 -0.00000000000E+00 -0.00000000000E+00 -0.74505805969E-08  0.93827000000E+00  0.93827000000E+00 0.  1.
     999902    2    1    2    0    0 -0.80074994575E-02  0.22038654669E-01  0.81943419180E-02  0.10190911275E+01  0.10187883767E+01 0.  0.
     999903    2    3    3    0    0 -0.16752124337E-01  0.11681065387E+00  0.57470275514E-01  0.13258883314E+00  0.18751095375E-01 0.  0.
         14    1    1    2    0    0  0.80074994575E-02 -0.22038654669E-01 -0.81943419180E-02  0.24838872491E-01  0.00000000000E+00 0. -1.
     999901    1    3    3    0    0  0.87446248791E-02 -0.94771999200E-01 -0.49275933596E-01  0.88650229437E+00  0.88000000000E+00 0.  1.
        -11    1    4    4    0    0 -0.92605290351E-02  0.27816259790E-01  0.75693239698E-02  0.30282957139E-01  0.51100000000E-03 0.  1.
         11    1    4    4    0    0 -0.74915953015E-02  0.88994394079E-01  0.49900951544E-01  0.10230587600E+00  0.51100000000E-03 0. -1.
</event>
<event>
 8    1  0.1114447E+005  0.1043930E+01  0.7957747E-01            NaN
         13   -1    0    0    0    0  0.00000000000E+00  0.00000000000E+00  0.74505805969E-08  0.10566000000E+00  0.10566000000E+00 0. -1.
     999900   -1    0    0    0    0 -0.00000000000E+00 -0.00000000000E+00 -0.74505805969E-08  0.93827000000E+00  0.93827000000E+00 0. -1.
     999902    2    1    2    0    0 -0.92004350744E-03 -0.16699803682E-01  0.16997469614E-01  0.10200837446E+01  0.10198049824E+01 0.  0.
     999903    2    3    3    0    0  0.94757633473E-03 -0.34696308261E-01 -0.12265574451E+00  0.12888770422E+00  0.19049328895E-01 0.  0.
         14    1    1    2    0    0  0.92004350744E-03  0.16699803682E-01 -0.16997469614E-01  0.23846255395E-01  0.00000000000E+00 0. -1.
     999901    1    3    3    0    0 -0.18676198422E-02  0.17996504579E-01  0.13965321412E+00  0.89119604038E+00  0.88000000000E+00 0.  1.
        -11    1    4    4    0    0 -0.57081551385E-02 -0.26103765785E-01 -0.66165737100E-01  0.71359340736E-01  0.51100000000E-03 0.  1.
         11    1    4    4    0    0  0.66557314732E-02 -0.85925424755E-02 -0.56490007405E-01  0.57528363485E-01  0.51100000000E-03 0. -1.
</event>
<event>
 8    1  0.1114447E+005  0.1043930E+01  0.7957747E-01            NaN
         13   -1    0    0    0    0  0.00000000000E+00  0.00000000000E+00  0.74505805969E-08  0.10566000000E+00  0.10566000000E+00 0.  1.
     999900   -1    0    0    0    0 -0.00000000000E+00 -0.00000000000E+00 -0.74505805969E-08  0.93827000000E+00  0.93827000000E+00 0.  1.
     999902    2    1    2    0    0  0.35578434349E-02 -0.21237245383E-01  0.13533235489E-01  0.10184972002E+01  0.10181796107E+01 0.  0.
     999903    2    3    3    0    0 -0.67102042356E-01  0.16878810674E-01  0.10782533658E+00  0.12982591482E+00  0.20997300108E-01 0.  0.
         14    1    1    2    0    0 -0.35578434349E-02  0.21237245383E-01 -0.13533235489E-01  0.25432799770E-01  0.00000000000E+00 0. -1.
     999901    1    3    3    0    0  0.70659885791E-01 -0.38116056056E-01 -0.94292101089E-01  0.88867128541E+00  0.88000000000E+00 0.  1.
        -11    1    4    4    0    0 -0.24196842131E-01  0.14831332410E-01  0.32835344776E-01  0.43403647055E-01  0.51100000000E-03 0.  1.
         11    1    4    4    0    0 -0.42905200225E-01  0.20474782640E-02  0.74989991802E-01  0.86422267762E-01  0.51100000000E-03 0. -1.
</event>
<event>
 8    1  0.1114447E+005  0.1043930E+01  0.7957747E-01            NaN
         13   -1    0    0    0    0  0.00000000000E+00  0.00000000000E+00  0.74505805969E-08  0.10566000000E+00  0.10566000000E+00 0.  1.
     999900   -1    0    0    0    0 -0.00000000000E+00 -0.00000000000E+00 -0.74505805969E-08  0.93827000000E+00  0.93827000000E+00 0. -1.
     999902    2    1    2    0    0  0.10738937489E-01 -0.14958305960E-01 -0.20205877685E-01  0.10165922388E+01  0.10162245946E+01 0.  0.
     999903    2    3    3    0    0  0.10033764441E+00 -0.57754897140E-01  0.51635362333E-01  0.12809877214E+00  0.18434037826E-01 0.  0.
         14    1    1    2    0    0 -0.10738937489E-01  0.14958305960E-01  0.20205877685E-01  0.27337761222E-01  0.00000000000E+00 0.  1.
     999901    1    3    3    0    0 -0.89598706919E-01  0.42796591181E-01 -0.71841240018E-01  0.88849346664E+00  0.88000000000E+00 0. -1.
        -11    1    4    4    0    0  0.44436949520E-01 -0.20215850354E-01  0.13245758877E-01  0.50586898871E-01  0.51100000000E-03 0. -1.
         11    1    4    4    0    0  0.55900694888E-01 -0.37539046786E-01  0.38389603456E-01  0.77511873265E-01  0.51100000000E-03 0.  1.
</event>
<event>
 8    1  0.1114447E+005  0.1043930E+01  0.7957747E-01            NaN
         13   -1    0    0    0    0  0.00000000000E+00  0.00000000000E+00  0.74505805969E-08  0.10566000000E+00  0.10566000000E+00 0.  1.
     999900   -1    0    0    0    0 -0.00000000000E+00 -0.00000000000E+00 -0.74505805969E-08  0.93827000000E+00  0.93827000000E+00 0. -1.
     999902    2    1    2    0    0  0.18610796054E-01  0.34911152933E-02  0.13917441612E-01  0.10204301107E+01  0.10201594807E+01 0.  0.
     999903    2    3    3    0    0  0.12960839871E+00  0.23192880014E-01 -0.25170032215E-02  0.13308648037E+00  0.19220542419E-01 0.  0.
         14    1    1    2    0    0 -0.18610796054E-01 -0.34911152933E-02 -0.13917441612E-01  0.23499889293E-01  0.00000000000E+00 0. -1.
     999901    1    3    3    0    0 -0.11099760266E+00 -0.19701764721E-01  0.16434444833E-01  0.88734363034E+00  0.88000000000E+00 0. -1.
        -11    1    4    4    0    0  0.98187036003E-01  0.14088354083E-01 -0.94470494235E-02  0.99642780088E-01  0.51100000000E-03 0.  1.
         11    1    4    4    0    0  0.31421362710E-01  0.91045259309E-02  0.69300462020E-02  0.33443700279E-01  0.51100000000E-03 0. -1.
</event>
<event>
 8    1  0.1114447E+005  0.1043930E+01  0.7957747E-01            NaN
         13   -1    0    0    0    0  0.00000000000E+00  0.00000000000E+00  0.74505805969E-08  0.10566000000E+00  0.10566000000E+00 0. -1.
     999900   -1    0    0    0    0 -0.00000000000E+00 -0.00000000000E+00 -0.74505805969E-08  0.93827000000E+00  0.93827000000E+00 0. -1.
     999902    2    1    2    0    0 -0.14459275143E-01 -0.25380423660E-02  0.16190137100E-01  0.10220751873E+01  0.10218415023E+01 0.  0.
     999903    2    3    3    0    0  0.70970873721E-01  0.58302346434E-01 -0.89391589753E-01  0.12958016535E+00  0.19082306396E-01 0.  0.
         14    1    1    2    0    0  0.14459275143E-01  0.25380423660E-02 -0.16190137100E-01  0.21854812652E-01  0.00000000000E+00 0.  1.
     999901    1    3    3    0    0 -0.85430148864E-01 -0.60840388800E-01  0.10558172685E+00  0.89249502200E+00  0.88000000000E+00 0.  1.
        -11    1    4    4    0    0  0.58678918082E-01  0.44528042379E-01 -0.60659140601E-01  0.95424076861E-01  0.51100000000E-03 0. -1.
         11    1    4    4    0    0  0.12291955639E-01  0.13774304055E-01 -0.28732449153E-01  0.34156088490E-01  0.51100000000E-03 0.  1.
</event>
<event>
 8    1  0.1114447E+005  0.1043930E+01  0.7957747E-01            NaN
         13   -1    0    0    0    0  0.00000000000E+00  0.00000000000E+00  0.74505805969E-08  0.10566000000E+00  0.10566000000E+00 0.  1.
     999900   -1    0    0    0    0 -0.00000000000E+00 -0.00000000000E+00 -0.74505805969E-08  0.93827000000E+00  0.93827000000E+00 0. -1.
     999902    2    1    2    0    0  0.16139985622E-01  0.17681268895E-02 -0.17067480997E-01  0.10203731684E+01  0.10201012099E+01 0.  0.
     999903    2    3    3    0    0  0.11947535659E+00 -0.23414606237E-01 -0.43901537349E-01  0.13356290935E+00  0.33001532600E-01 0.  0.
         14    1    1    2    0    0 -0.16139985622E-01 -0.17681268895E-02  0.17067480997E-01  0.23556831624E-01  0.00000000000E+00 0.  1.
     999901    1    3    3    0    0 -0.10333537097E+00  0.25182733127E-01  0.26834056352E-01  0.88681025903E+00  0.88000000000E+00 0. -1.
        -11    1    4    4    0    0  0.59489475899E-01  0.50185694565E-02 -0.18849911993E-01  0.62608019337E-01  0.51100000000E-03 0.  1.
         11    1    4    4    0    0  0.59985880691E-01 -0.28433175694E-01 -0.25051625355E-01  0.70954890009E-01  0.51100000000E-03 0. -1.
</event>
<event>
 8    1  0.1114447E+005  0.1043930E+01  0.7957747E-01            NaN
         13   -1    0    0    0    0  0.00000000000E+00  0.00000000000E+00  0.74505805969E-08  0.10566000000E+00  0.10566000000E+00 0. -1.
     999900   -1    0    0    0    0 -0.00000000000E+00 -0.00000000000E+00 -0.74505805969E-08  0.93827000000E+00  0.93827000000E+00 0.  1.
     999902    2    1    2    0    0  0.16759853215E-01 -0.79395867182E-02  0.32337249904E-01  0.10066522929E+01  0.10059618339E+01 0.  0.
     999903    2    3    3    0    0  0.51255756401E-01  0.68171010731E-01  0.83014050935E-01  0.12124225874E+00  0.23106565822E-01 0.  0.
         14    1    1    2    0    0 -0.16759853215E-01  0.79395867182E-02 -0.32337249904E-01  0.37277707124E-01  0.00000000000E+00 0.  1.
     999901    1    3    3    0    0 -0.34495903186E-01 -0.76110597450E-01 -0.50676801030E-01  0.88541003413E+00  0.88000000000E+00 0. -1.
        -11    1    4    4    0    0  0.11556690553E-01  0.84859914373E-02  0.25817920664E-01  0.29536338561E-01  0.51100000000E-03 0. -1.
         11    1    4    4    0    0  0.39699065848E-01  0.59685019294E-01  0.57196130271E-01  0.91705920181E-01  0.51100000000E-03 0.  1.
</event>
<event>
 8    1  0.1114447E+005  0.1043930E+01  0.7957747E-01            NaN
         13   -1    0    0    0    0  0.00000000000E+00  0.00000000000E+00  0.74505805969E-08  0.10566000000E+00  0.10566000000E+00 0. -1.
     999900   -1    0    0    0    0 -0.00000000000E+00 -0.00000000000E+00 -0.74505805969E-08  0.93827000000E+00  0.93827000000E+00 0.  1.
     999902    2    1    2    0    0  0.10030133346E-02 -0.11245983058E-01  0.21558332675E-01  0.10195940209E+01  0.10193035503E+01 0.  0.
     999903    2    3    3    0    0  0.11207101595E+00 -0.15785636919E-01 -0.57987473645E-01  0.12904124596E+00  0.21908836344E-01 0.  0.
         14    1    1    2    0    0 -0.10030133346E-02  0.11245983058E-01 -0.21558332675E-01  0.24335979093E-01  0.00000000000E+00 0.  1.
     999901    1    3    3    0    0 -0.11106800262E+00  0.45396538610E-02  0.79545806321E-01  0.89055277495E+00  0.88000000000E+00 0. -1.
        -11    1    4    4    0    0  0.71119080234E-01 -0.16163352128E-01 -0.46526619086E-01  0.86511068251E-01  0.51100000000E-03 0.  1.
         11    1    4    4    0    0  0.40951935717E-01  0.37771520887E-03 -0.11460854559E-01  0.42530177709E-01  0.51100000000E-03 0. -1.
</event>
<event>
 8    1  0.1114447E+005  0.1043930E+01  0.7957747E-01            NaN
         13   -1    0    0    0    0  0.00000000000E+00  0.00000000000E+00  0.74505805969E-08  0.10566000000E+00  0.10566000000E+00 0.  1.
     999900   -1    0    0    0    0 -0.00000000000E+00 -0.00000000000E+00 -0.74505805969E-08  0.93827000000E+00  0.93827000000E+00 0. -1.
     999902    2    1    2    0    0  0.11646810265E-01  0.11145234383E-01  0.17330821850E-01  0.10202609944E+01  0.10199864092E+01 0.  0.
     999903    2    3    3    0    0  0.92160920455E-01 -0.44347973807E-01  0.81751027278E-01  0.13250428172E+00  0.20341488945E-01 0.  0.
         14    1    1    2    0    0 -0.11646810265E-01 -0.11145234383E-01 -0.17330821850E-01  0.23669005573E-01  0.00000000000E+00 0. -1.
     999901    1    3    3    0    0 -0.80514110189E-01  0.55493208190E-01 -0.64420205428E-01  0.88775671271E+00  0.88000000000E+00 0. -1.
        -11    1    4    4    0    0  0.22351147806E-01 -0.19170070578E-01  0.29925502847E-01  0.41986453242E-01  0.51100000000E-03 0.  1.
         11    1    4    4    0    0  0.69809772649E-01 -0.25177903229E-01  0.51825524431E-01  0.90517828475E-01  0.51100000000E-03 0. -1.
</event>
<event>
 8    1  0.1114447E+005  0.1043930E+01  0.7957747E-01            NaN
         13   -1    0    0    0    0  0.00000000000E+00  0.00000000000E+00  0.74505805969E-08  0.10566000000E+00  0.10566000000E+00 0. -1.
     999900   -1    0    0    0    0 -0.00000000000E+00 -0.00000000000E+00 -0.74505805969E-08  0.93827000000E+00  0.93827000000E+00 0.  1.
     999902    2    1    2    0    0  0.62055322944E-02  0.17135472416E-01  0.15231079919E-01  0.10201788139E+01  0.10199022960E+01 0.  0.
     999903    2    3    3    0    0 -0.38547367190E-01  0.76203299689E-01 -0.96022658789E-01  0.13008374897E+00  0.20213568299E-01 0.  0.
         14    1    1    2    0    0 -0.62055322944E-02 -0.17135472416E-01 -0.15231079919E-01  0.23751186107E-01  0.00000000000E+00 0.  1.
     999901    1    3    3    0    0  0.44752899485E-01 -0.59067827272E-01  0.11125373871E+00  0.89009506493E+00  0.88000000000E+00 0. -1.
        -11    1    4    4    0    0 -0.13957119278E-01  0.48633662776E-01 -0.50997690368E-01  0.71840516962E-01  0.51100000000E-03 0. -1.
         11    1    4    4    0    0 -0.24590247913E-01  0.27569636913E-01 -0.45024968421E-01  0.58243232004E-01  0.51100000000E-03 0.  1.
</event>
<event>
 8    1  0.1114447E+005  0.1043930E+01  0.7957747E-01            NaN
         13   -1    0    0    0    0  0.00000000000E+00  0.00000000000E+00  0.74505805969E-08  0.10566000000E+00  0.10566000000E+00 0.  1.
     999900   -1    0    0    0    0 -0.00000000000E+00 -0.00000000000E+00 -0.74505805969E-08  0.93827000000E+00  0.93827000000E+00 0. -1.
     999902    2    1    2    0    0 -0.24499164275E-01 -0.63340376428E-04 -0.12342260915E-01  0.10164974561E+01  0.10161272232E+01 0.  0.
     999903    2    3    3    0    0 -0.12236061133E+00  0.15017307065E-01  0.29630414328E-01  0.12995022426E+00  0.28486147786E-01 0.  0.
         14    1    1    2    0    0  0.24499164275E-01  0.63340376428E-04  0.12342260915E-01  0.27432543934E-01  0.00000000000E+00 0.  1.
     999901    1    3    3    0    0  0.97861447059E-01 -0.15080647442E-01 -0.41972675243E-01  0.88654723180E+00  0.88000000000E+00 0. -1.
        -11    1    4    4    0    0 -0.58905878098E-01  0.21164467497E-01  0.18129830651E-01  0.65167392454E-01  0.51100000000E-03 0. -1.
         11    1    4    4    0    0 -0.63454733236E-01 -0.61471604313E-02  0.11500583677E-01  0.64782831810E-01  0.51100000000E-03 0.  1.
</event>
<event>
 8    1  0.1114447E+005  0.1043930E+01  0.7957747E-01            NaN
         13   -1    0    0    0    0  0.00000000000E+00  0.00000000000E+00  0.74505805969E-08  0.10566000000E+00  0.10566000000E+00 0. -1.
     999900   -1    0    0    0    0 -0.00000000000E+00 -0.00000000000E+00 -0.74505805969E-08  0.93827000000E+00  0.93827000000E+00 0. -1.
     999902    2    1    2    0    0 -0.16755589301E-01  0.17503186614E-01  0.68475413098E-02  0.10187506407E+01  0.10184394276E+01 0.  0.
     999903    2    3    3    0    0 -0.25047242890E-01  0.42559712168E-01 -0.11809986118E+00  0.12953276276E+00  0.19810753201E-01 0.  0.
         14    1    1    2    0    0  0.16755589301E-01 -0.17503186614E-01 -0.68475413098E-02  0.25179359334E-01  0.00000000000E+00 0. -1.
     999901    1    3    3    0    0  0.82916535887E-02 -0.25056525553E-01  0.12494740249E+00  0.88921787790E+00  0.88000000000E+00 0.  1.
        -11    1    4    4    0    0 -0.48876360232E-02  0.26556726221E-01 -0.68905974415E-01  0.74009750199E-01  0.51100000000E-03 0. -1.
         11    1    4    4    0    0 -0.20159606867E-01  0.16002985947E-01 -0.49193886765E-01  0.55523012565E-01  0.51100000000E-03 0.  1.
</event>
<event>
 8    1  0.1114447E+005  0.1043930E+01  0.7957747E-01            NaN
         13   -1    0    0    0    0  0.00000000000E+00  0.00000000000E+00  0.74505805969E-08  0.10566000000E+00  0.10566000000E+00 0.  1.
     999900   -1    0    0    0    0 -0.00000000000E+00 -0.00000000000E+00 -0.74505805969E-08  0.93827000000E+00  0.93827000000E+00 0. -1.
     999902    2    1    2    0    0 -0.16125887962E-01 -0.37346651815E-02 -0.16948757818E-01  0.10202392343E+01  0.10199641380E+01 0.  0.
     999903    2    3    3    0    0 -0.56420550186E-01  0.75450977101E-01  0.86862651918E-01  0.12969398868E+00  0.19982041278E-01 0.  0.
         14    1    1    2    0    0  0.16125887962E-01  0.37346651815E-02  0.16948757818E-01  0.23690765673E-01  0.00000000000E+00 0.  1.
     999901    1    3    3    0    0  0.40294662224E-01 -0.79185642282E-01 -0.10381140974E+00  0.89054524564E+00  0.88000000000E+00 0. -1.
        -11    1    4    4    0    0 -0.32290361523E-01  0.35973008592E-01  0.56459366019E-01  0.74327961944E-01  0.51100000000E-03 0.  1.
         11    1    4    4    0    0 -0.24130188663E-01  0.39477968508E-01  0.30403285899E-01  0.55366026739E-01  0.51100000000E-03 0. -1.
</event>
<event>
 8    1  0.1114447E+005  0.1043930E+01  0.7957747E-01            NaN
         13   -1    0    0    0    0  0.00000000000E+00  0.00000000000E+00  0.74505805969E-08  0.10566000000E+00  0.10566000000E+00 0.  1.
     999900   -1    0    0    0    0 -0.00000000000E+00 -0.00000000000E+00 -0.74505805969E-08  0.93827000000E+00  0.93827000000E+00 0. -1.
     999902    2    1    2    0    0 -0.10192743073E-01 -0.11426137944E-01 -0.18589522742E-01  0.10198464165E+01  0.10195620110E+01 0.  0.
     999903    2    3    3    0    0  0.10442260538E+00 -0.42514890334E-01 -0.63103644047E-01  0.13075435396E+00  0.20075725969E-01 0.  0.
         14    1    1    2    0    0  0.10192743073E-01  0.11426137944E-01  0.18589522742E-01  0.24083583526E-01  0.00000000000E+00 0.  1.
     999901    1    3    3    0    0 -0.11461534845E+00  0.31088752389E-01  0.44514121305E-01  0.88909206251E+00  0.88000000000E+00 0.  1.
        -11    1    4    4    0    0  0.43090005145E-01 -0.19677944437E-01 -0.15571310638E-01  0.49866791321E-01  0.51100000000E-03 0. -1.
         11    1    4    4    0    0  0.61332600236E-01 -0.22836945897E-01 -0.47532333409E-01  0.80887562640E-01  0.51100000000E-03 0.  1.
</event>
<event>
 8    1  0.1114447E+005  0.1043930E+01  0.7957747E-01            NaN
         13   -1    0    0    0    0  0.00000000000E+00  0.00000000000E+00  0.74505805969E-08  0.10566000000E+00  0.10566000000E+00 0.  1.
     999900   -1    0    0    0    0 -0.00000000000E+00 -0.00000000000E+00 -0.74505805969E-08  0.93827000000E+00  0.93827000000E+00 0. -1.
     999902    2    1    2    0    0  0.22981961163E-01 -0.12141321849E-02  0.54819377180E-02  0.10202720986E+01  0.10199977740E+01 0.  0.
     999903    2    3    3    0    0 -0.10060597221E+00 -0.75877094891E-01 -0.13879965977E-01  0.12829484635E+00  0.19698197177E-01 0.  0.
         14    1    1    2    0    0 -0.22981961163E-01  0.12141321849E-02 -0.54819377180E-02  0.23657901365E-01  0.00000000000E+00 0.  1.
     999901    1    3    3    0    0  0.12358793337E+00  0.74662962707E-01  0.19361903695E-01  0.89197725228E+00  0.88000000000E+00 0.  1.
        -11    1    4    4    0    0 -0.11538586113E-01 -0.14098493339E-01  0.33691287538E-02  0.18534255676E-01  0.51100000000E-03 0. -1.
         11    1    4    4    0    0 -0.89067386094E-01 -0.61778601553E-01 -0.17249094731E-01  0.10976059068E+00  0.51100000000E-03 0.  1.
</event>
<event>
 8    1  0.1114447E+005  0.1043930E+01  0.7957747E-01            NaN
         13   -1    0    0    0    0  0.00000000000E+00  0.00000000000E+00  0.74505805969E-08  0.10566000000E+00  0.10566000000E+00 0. -1.
     999900   -1    0    0    0    0 -0.00000000000E+00 -0.00000000000E+00 -0.74505805969E-08  0.93827000000E+00  0.93827000000E+00 0.  1.
     999902    2    1    2    0    0  0.19801350726E-01 -0.10385365198E-01  0.57810273371E-02  0.10208352045E+01  0.10205739293E+01 0.  0.
     999903    2    3    3    0    0  0.15396521710E-01  0.42282663060E-03  0.12992386467E+00  0.13204520481E+00  0.17846395718E-01 0.  0.
         14    1    1    2    0    0 -0.19801350726E-01  0.10385365198E-01 -0.57810273371E-02  0.23094795473E-01  0.00000000000E+00 0. -1.
     999901    1    3    3    0    0  0.44048290156E-02 -0.10808191829E-01 -0.12414283733E+00  0.88878999971E+00  0.88000000000E+00 0.  1.
        -11    1    4    4    0    0 -0.39754911938E-02  0.38028141436E-04  0.29146431910E-01  0.29420768013E-01  0.51100000000E-03 0. -1.
         11    1    4    4    0    0  0.19372012904E-01  0.38479848916E-03  0.10077743276E+00  0.10262443680E+00  0.51100000000E-03 0.  1.
</event>
<event>
 8    1  0.1114447E+005  0.1043930E+01  0.7957747E-01            NaN
         13   -1    0    0    0    0  0.00000000000E+00  0.00000000000E+00  0.74505805969E-08  0.10566000000E+00  0.10566000000E+00 0.  1.
     999900   -1    0    0    0    0 -0.00000000000E+00 -0.00000000000E+00 -0.74505805969E-08  0.93827000000E+00  0.93827000000E+00 0. -1.
     999902    2    1    2    0    0  0.22696527631E-01  0.50069126977E-02 -0.41073504328E-02  0.10203276300E+01  0.10200546067E+01 0.  0.
     999903    2    3    3    0    0 -0.29693734889E-01  0.11834485390E+00  0.41177617969E-01  0.13036080092E+00  0.20276090838E-01 0.  0.
         14    1    1    2    0    0 -0.22696527631E-01 -0.50069126977E-02  0.41073504328E-02  0.23602369984E-01  0.00000000000E+00 0.  1.
     999901    1    3    3    0    0  0.52390262520E-01 -0.11333794120E+00 -0.45284968402E-01  0.88996682909E+00  0.88000000000E+00 0. -1.
        -11    1    4    4    0    0 -0.11946006394E-01  0.17129983011E-01  0.57892052467E-02  0.21677624526E-01  0.51100000000E-03 0.  1.
         11    1    4    4    0    0 -0.17747728495E-01  0.10121487089E+00  0.35388412723E-01  0.10868317640E+00  0.51100000000E-03 0. -1.
</event>
<event>
 8    1  0.1114447E+005  0.1043930E+01  0.7957747E-01            NaN
         13   -1    0    0    0    0  0.00000000000E+00  0.00000000000E+00  0.74505805969E-08  0.10566000000E+00  0.10566000000E+00 0.  1.
     999900   -1    0    0    0    0 -0.00000000000E+00 -0.00000000000E+00 -0.74505805969E-08  0.93827000000E+00  0.93827000000E+00 0. -1.
     999902    2    1    2    0    0  0.14796523759E-02  0.11564056163E-01  0.20439659557E-01  0.10203992446E+01  0.10201278949E+01 0.  0.
     999903    2    3    3    0    0  0.43328538764E-02 -0.96298869670E-01 -0.81803953467E-01  0.12793282624E+00  0.19562088443E-01 0.  0.
         14    1    1    2    0    0 -0.14796523759E-02 -0.11564056163E-01 -0.20439659557E-01  0.23530755383E-01  0.00000000000E+00 0. -1.
     999901    1    3    3    0    0 -0.28532015006E-02  0.10786292583E+00  0.10224361302E+00  0.89246641838E+00  0.88000000000E+00 0.  1.
        -11    1    4    4    0    0  0.41435296638E-02 -0.37623188498E-01 -0.44402962589E-01  0.58348584888E-01  0.51100000000E-03 0.  1.
         11    1    4    4    0    0  0.18932421262E-03 -0.58675681172E-01 -0.37400990878E-01  0.69584241350E-01  0.51100000000E-03 0. -1.
</event>
<event>
 8    1  0.1114447E+005  0.1043930E+01  0.7957747E-01            NaN
         13   -1    0    0    0    0  0.00000000000E+00  0.00000000000E+00  0.74505805969E-08  0.10566000000E+00  0.10566000000E+00 0. -1.
     999900   -1    0    0    0    0 -0.00000000000E+00 -0.00000000000E+00 -0.74505805969E-08  0.93827000000E+00  0.93827000000E+00 0. -1.
     999902    2    1    2    0    0 -0.10141376020E-01  0.18166214746E-01 -0.11910629038E-01  0.10199566408E+01  0.10196748635E+01 0.  0.
     999903    2    3    3    0    0  0.61018776311E-01 -0.10433837750E+00  0.34674547683E-01  0.12740898323E+00  0.20516741197E-01 0.  0.
         14    1    1    2    0    0  0.10141376020E-01 -0.18166214746E-01  0.11910629038E-01  0.23973359169E-01  0.00000000000E+00 0. -1.
     999901    1    3    3    0    0 -0.71160152331E-01  0.12250459224E+00 -0.46585176720E-01  0.89254765760E+00  0.88000000000E+00 0.  1.
        -11    1    4    4    0    0  0.62510554045E-01 -0.99516207884E-01  0.33465198533E-01  0.12219339439E+00  0.51100000000E-03 0.  1.
         11    1    4    4    0    0 -0.14917777334E-02 -0.48221696128E-02  0.12093491500E-02  0.52155888399E-02  0.51100000000E-03 0. -1.
</event>
<event>
 8    1  0.1114447E+005  0.1043930E+01  0.7957747E-01            NaN
         13   -1    0    0    0    0  0.00000000000E+00  0.00000000000E+00  0.74505805969E-08  0.10566000000E+00  0.10566000000E+00 0. -1.
     999900   -1    0    0    0    0 -0.00000000000E+00 -0.00000000000E+00 -0.74505805969E-08  0.93827000000E+00  0.93827000000E+00 0. -1.
     999902    2    1    2    0    0 -0.11603668400E-01  0.38084685800E-02  0.19933246796E-01  0.10205530053E+01  0.10202852311E+01 0.  0.
     999903    2    3    3    0    0 -0.12824263663E+00  0.24432283680E-01 -0.64339575307E-02  0.13222580200E+00  0.19978903130E-01 0.  0.
         14    1    1    2    0    0  0.11603668400E-01 -0.38084685800E-02 -0.19933246796E-01  0.23376994698E-01  0.00000000000E+00 0.  1.
     999901    1    3    3    0    0  0.11663896823E+00 -0.20623815100E-01  0.26367204327E-01  0.88832720330E+00  0.88000000000E+00 0.  1.
        -11    1    4    4    0    0 -0.51048098283E-01 -0.93642173395E-04 -0.36024917302E-02  0.51177692160E-01  0.51100000000E-03 0.  1.
         11    1    4    4    0    0 -0.77194538346E-01  0.24525925853E-01 -0.28314658005E-02  0.81048109842E-01  0.51100000000E-03 0. -1.
</event>
<event>
 8    1  0.1114447E+005  0.1043930E+01  0.7957747E-01            NaN
         13   -1    0    0    0    0  0.00000000000E+00  0.00000000000E+00  0.74505805969E-08  0.10566000000E+00  0.10566000000E+00 0. -1.
     999900   -1    0    0    0    0 -0.00000000000E+00 -0.00000000000E+00 -0.74505805969E-08  0.93827000000E+00  0.93827000000E+00 0.  1.
     999902    2    1    2    0    0 -0.76568917621E-02  0.81964200934E-02  0.20202590994E-01  0.10208225558E+01  0.10205609911E+01 0.  0.
     999903    2    3    3    0    0 -0.12534603766E+00  0.29783153189E-01 -0.18607056257E-01  0.13187772579E+00  0.21138747499E-01 0.  0.
         14    1    1    2    0    0  0.76568917621E-02 -0.81964200934E-02 -0.20202590994E-01  0.23107444183E-01  0.00000000000E+00 0. -1.
     999901    1    3    3    0    0  0.11768914590E+00 -0.21586733096E-01  0.38809647251E-01  0.88894483003E+00  0.88000000000E+00 0. -1.
        -11    1    4    4    0    0 -0.98096282381E-01  0.18009214529E-01 -0.69386941051E-02  0.99978092709E-01  0.51100000000E-03 0. -1.
         11    1    4    4    0    0 -0.27249755282E-01  0.11773938660E-01 -0.11668362152E-01  0.31899633082E-01  0.51100000000E-03 0.  1.
</event>
<event>
 8    1  0.1114447E+005  0.1043930E+01  0.7957747E-01            NaN
         13   -1    0    0    0    0  0.00000000000E+00  0.00000000000E+00  0.74505805969E-08  0.10566000000E+00  0.10566000000E+00 0.  1.
     999900   -1    0    0    0    0 -0.00000000000E+00 -0.00000000000E+00 -0.74505805969E-08  0.93827000000E+00  0.93827000000E+00 0.  1.
     999902    2    1    2    0    0 -0.98238087665E-02 -0.17853852527E-01  0.12169649520E-01  0.10201946332E+01  0.10199184879E+01 0.  0.
     999903    2    3    3    0    0  0.40611319715E-01  0.33268804993E-01 -0.11494988362E+00  0.12816514712E+00  0.21371394797E-01 0.  0.
         14    1    1    2    0    0  0.98238087665E-02  0.17853852527E-01 -0.12169649520E-01  0.23735366822E-01  0.00000000000E+00 0. -1.
     999901    1    3    3    0    0 -0.50435128482E-01 -0.51122657520E-01  0.12711953314E+00  0.89202948606E+00  0.88000000000E+00 0. -1.
        -11    1    4    4    0    0  0.21212519974E-01  0.24529919324E-01 -0.48133860319E-01  0.58041515968E-01  0.51100000000E-03 0. -1.
         11    1    4    4    0    0  0.19398799742E-01  0.87388856692E-02 -0.66816023305E-01  0.70123631149E-01  0.51100000000E-03 0.  1.
</event>
<event>
 8    1  0.1114447E+005  0.1043930E+01  0.7957747E-01            NaN
         13   -1    0    0    0    0  0.00000000000E+00  0.00000000000E+00  0.74505805969E-08  0.10566000000E+00  0.10566000000E+00 0.  1.
     999900   -1    0    0    0    0 -0.00000000000E+00 -0.00000000000E+00 -0.74505805969E-08  0.93827000000E+00  0.93827000000E+00 0.  1.
     999902    2    1    2    0    0  0.12362044046E-01 -0.11835934128E-01 -0.16930026844E-01  0.10198564610E+01  0.10195722955E+01 0.  0.
     999903    2    3    3    0    0  0.56716279636E-01  0.76932047668E-01  0.80581574625E-01  0.12892685369E+00  0.31519313126E-01 0.  0.
         14    1    1    2    0    0 -0.12362044046E-01  0.11835934128E-01  0.16930026844E-01  0.24073538971E-01  0.00000000000E+00 0.  1.
     999901    1    3    3    0    0 -0.44354235591E-01 -0.88767981796E-01 -0.97511601469E-01  0.89092960734E+00  0.88000000000E+00 0.  1.
        -11    1    4    4    0    0  0.14711281268E-02  0.30307745451E-02  0.15858184234E-01  0.16220139965E-01  0.51100000000E-03 0.  1.
         11    1    4    4    0    0  0.55245151509E-01  0.73901273123E-01  0.64723390391E-01  0.11270671373E+00  0.51100000000E-03 0. -1.
</event>
<event>
 8    1  0.1114447E+005  0.1043930E+01  0.7957747E-01            NaN
         13   -1    0    0    0    0  0.00000000000E+00  0.00000000000E+00  0.74505805969E-08  0.10566000000E+00  0.10566000000E+00 0. -1.
     999900   -1    0    0    0    0 -0.00000000000E+00 -0.00000000000E+00 -0.74505805969E-08  0.93827000000E+00  0.93827000000E+00 0.  1.
     999902    2    1    2    0    0 -0.36691378290E-02  0.22825106345E-01 -0.37606189820E-02  0.10205079952E+01  0.10202391769E+01 0.  0.
     999903    2    3    3    0    0 -0.12135585656E+00  0.47657999456E-01 -0.94955165484E-02  0.13230772199E+00  0.20411752215E-01 0.  0.
         14    1    1    2    0    0  0.36691378290E-02 -0.22825106345E-01  0.37606189820E-02  0.23422004764E-01  0.00000000000E+00 0.  1.
     999901    1    3    3    0    0  0.11768671874E+00 -0.24832893111E-01  0.57348975664E-02  0.88820027325E+00  0.88000000000E+00 0. -1.
        -11    1    4    4    0    0 -0.74917019865E-01  0.24715668359E-01 -0.14697587436E-01  0.80247768351E-01  0.51100000000E-03 0. -1.
         11    1    4    4    0    0 -0.46438836700E-01  0.22942331097E-01  0.52020708877E-02  0.52059953637E-01  0.51100000000E-03 0.  1.
</event>
<event>
 8    1  0.1114447E+005  0.1043930E+01  0.7957747E-01            NaN
         13   -1    0    0    0    0  0.00000000000E+00  0.00000000000E+00  0.74505805969E-08  0.10566000000E+00  0.10566000000E+00 0. -1.
     999900   -1    0    0    0    0 -0.00000000000E+00 -0.00000000000E+00 -0.74505805969E-08  0.93827000000E+00  0.93827000000E+00 0.  1.
     999902    2    1    2    0    0  0.41724738520E-03  0.10844324055E-01  0.21722615610E-01  0.10196473830E+01  0.10193582001E+01 0.  0.
     999903    2    3    3    0    0  0.12043754736E-01  0.12422144473E+00  0.37631635579E-01  0.13215504834E+00  0.21743905915E-01 0.  0.
         14    1    1    2    0    0 -0.41724738520E-03 -0.10844324055E-01 -0.21722615610E-01  0.24282617003E-01  0.00000000000E+00 0.  1.
     999901    1    3    3    0    0 -0.11626507351E-01 -0.11337712068E+00 -0.15909019969E-01  0.88749233466E+00  0.88000000000E+00 0.  1.
        -11    1    4    4    0    0  0.47332316143E-02  0.37039955178E-01  0.21810141208E-01  0.43247024657E-01  0.51100000000E-03 0.  1.
         11    1    4    4    0    0  0.73105231216E-02  0.87181489555E-01  0.15821494370E-01  0.88908023679E-01  0.51100000000E-03 0. -1.
</event>
<event>
 8    1  0.1114447E+005  0.1043930E+01  0.7957747E-01            NaN
         13   -1    0    0    0    0  0.00000000000E+00  0.00000000000E+00  0.74505805969E-08  0.10566000000E+00  0.10566000000E+00 0.  1.
     999900   -1    0    0    0    0 -0.00000000000E+00 -0.00000000000E+00 -0.74505805969E-08  0.93827000000E+00  0.93827000000E+00 0.  1.
     999902    2    1    2    0    0 -0.10323066330E-01 -0.38277151833E-03  0.23407251329E-01  0.10183446208E+01  0.10180231604E+01 0.  0.
     999903    2    3    3    0    0  0.53062219622E-01  0.11144301902E+00  0.31165630120E-01  0.12897242971E+00  0.20674754765E-01 0.  0.
         14    1    1    2    0    0  0.10323066330E-01  0.38277151833E-03 -0.23407251329E-01  0.25585379170E-01  0.00000000000E+00 0. -1.
     999901    1    3    3    0    0 -0.63385285952E-01 -0.11182579054E+00 -0.77583787912E-02  0.88937219112E+00  0.88000000000E+00 0. -1.
        -11    1    4    4    0    0  0.19819922729E-02  0.96222766017E-02  0.81030509778E-02  0.12745079698E-01  0.51100000000E-03 0.  1.
         11    1    4    4    0    0  0.51080227349E-01  0.10182074242E+00  0.23062579142E-01  0.11622735001E+00  0.51100000000E-03 0. -1.
</event>
<event>
 8    1  0.1114447E+005  0.1043930E+01  0.7957747E-01            NaN
         13   -1    0    0    0    0  0.00000000000E+00  0.00000000000E+00  0.74505805969E-08  0.10566000000E+00  0.10566000000E+00 0. -1.
     999900   -1    0    0    0    0 -0.00000000000E+00 -0.00000000000E+00 -0.74505805969E-08  0.93827000000E+00  0.93827000000E+00 0. -1.
     999902    2    1    2    0    0 -0.57937001793E-02 -0.21146216054E-02  0.27641649165E-01  0.10156086414E+01  0.10152136785E+01 0.  0.
     999903    2    3    3    0    0 -0.81224451835E-01  0.81304211419E-01  0.52884696277E-01  0.12809204353E+00  0.20074714102E-01 0.  0.
         14    1    1    2    0    0  0.57937001793E-02  0.21146216054E-02 -0.27641649165E-01  0.28321358634E-01  0.00000000000E+00 0.  1.
     999901    1    3    3    0    0  0.75430751656E-01 -0.83418833024E-01 -0.25243047112E-01  0.88751659783E+00  0.88000000000E+00 0.  1.
        -11    1    4    4    0    0 -0.45480650245E-01  0.57994336214E-01  0.29132192017E-01  0.79251361580E-01  0.51100000000E-03 0. -1.
         11    1    4    4    0    0 -0.35743801590E-01  0.23309875205E-01  0.23752504260E-01  0.48840681955E-01  0.51100000000E-03 0.  1.
</event>
<event>
 8    1  0.1114447E+005  0.1043930E+01  0.7957747E-01            NaN
         13   -1    0    0    0    0  0.00000000000E+00  0.00000000000E+00  0.74505805969E-08  0.10566000000E+00  0.10566000000E+00 0. -1.
     999900   -1    0    0    0    0 -0.00000000000E+00 -0.00000000000E+00 -0.74505805969E-08  0.93827000000E+00  0.93827000000E+00 0.  1.
     999902    2    1    2    0    0  0.12397465498E-01 -0.19683314956E-01 -0.20823711969E-02  0.10205747799E+01  0.10203075100E+01 0.  0.
     999903    2    3    3    0    0  0.87271925446E-01 -0.98776447066E-01  0.10760930992E-01  0.13376766513E+00  0.20120018237E-01 0.  0.
         14    1    1    2    0    0 -0.12397465498E-01  0.19683314956E-01  0.20823711969E-02  0.23355220149E-01  0.00000000000E+00 0.  1.
     999901    1    3    3    0    0 -0.74874459948E-01  0.79093132110E-01 -0.12843302189E-01  0.88680711472E+00  0.88000000000E+00 0.  1.
        -11    1    4    4    0    0  0.72574280848E-01 -0.87337257593E-01  0.15322937856E-01  0.11458567253E+00  0.51100000000E-03 0.  1.
         11    1    4    4    0    0  0.14697644598E-01 -0.11439189472E-01 -0.45620068641E-02  0.19181992601E-01  0.51100000000E-03 0. -1.
</event>
<event>
 8    1  0.1114447E+005  0.1043930E+01  0.7957747E-01            NaN
         13   -1    0    0    0    0  0.00000000000E+00  0.00000000000E+00  0.74505805969E-08  0.10566000000E+00  0.10566000000E+00 0. -1.
     999900   -1    0    0    0    0 -0.00000000000E+00 -0.00000000000E+00 -0.74505805969E-08  0.93827000000E+00  0.93827000000E+00 0. -1.
     999902    2    1    2    0    0 -0.19293508236E-01  0.99657870874E-02  0.93668481115E-02  0.10202805980E+01  0.10200064727E+01 0.  0.
     999903    2    3    3    0    0 -0.64380848493E-01  0.11178816370E+00  0.26000729602E-01  0.13310679841E+00  0.19997366006E-01 0.  0.
         14    1    1    2    0    0  0.19293508236E-01 -0.99657870874E-02 -0.93668481115E-02  0.23649402019E-01  0.00000000000E+00 0.  1.
     999901    1    3    3    0    0  0.45087340256E-01 -0.10182237661E+00 -0.16633881490E-01  0.88717379957E+00  0.88000000000E+00 0.  1.
        -11    1    4    4    0    0 -0.23425336347E-01  0.26805004407E-01  0.14767011108E-02  0.35632799657E-01  0.51100000000E-03 0. -1.
         11    1    4    4    0    0 -0.40955512146E-01  0.84983159294E-01  0.24524028491E-01  0.97473998754E-01  0.51100000000E-03 0.  1.
</event>
<event>
 8    1  0.1114447E+005  0.1043930E+01  0.7957747E-01            NaN
         13   -1    0    0    0    0  0.00000000000E+00  0.00000000000E+00  0.74505805969E-08  0.10566000000E+00  0.10566000000E+00 0. -1.
     999900   -1    0    0    0    0 -0.00000000000E+00 -0.00000000000E+00 -0.74505805969E-08  0.93827000000E+00  0.93827000000E+00 0.  1.
     999902    2    1    2    0    0 -0.70115499578E-02  0.21804978179E-01  0.74894138072E-02  0.10198320701E+01  0.10195473216E+01 0.  0.
     999903    2    3    3    0    0  0.38513907130E-01 -0.44372612435E-01 -0.11209481109E+00  0.12811887205E+00  0.19923577100E-01 0.  0.
         14    1    1    2    0    0  0.70115499578E-02 -0.21804978179E-01 -0.74894138072E-02  0.24097929898E-01  0.00000000000E+00 0.  1.
     999901    1    3    3    0    0 -0.45525457088E-01  0.66177590614E-01  0.11958422490E+00  0.89171319806E+00  0.88000000000E+00 0. -1.
        -11    1    4    4    0    0  0.16845169023E-01 -0.33917586687E-01 -0.72108650695E-01  0.81449868215E-01  0.51100000000E-03 0.  1.
         11    1    4    4    0    0  0.21668738107E-01 -0.10455025747E-01 -0.39986160394E-01  0.46669003831E-01  0.51100000000E-03 0. -1.
</event>
<event>
 8    1  0.1114447E+005  0.1043930E+01  0.7957747E-01            NaN
         13   -1    0    0    0    0  0.00000000000E+00  0.00000000000E+00  0.74505805969E-08  0.10566000000E+00  0.10566000000E+00 0. -1.
     999900   -1    0    0    0    0 -0.00000000000E+00 -0.00000000000E+00 -0.74505805969E-08  0.93827000000E+00  0.93827000000E+00 0.  1.
     999902    2    1    2    0    0 -0.18208117983E-01  0.15061616617E-01 -0.31832808820E-02  0.10200863188E+01  0.10198076175E+01 0.  0.
     999903    2    3    3    0    0 -0.21659310102E-01 -0.47384977123E-01 -0.11784937866E+00  0.13044605343E+00  0.20328183284E-01 0.  0.
         14    1    1    2    0    0  0.18208117983E-01 -0.15061616617E-01  0.31832808820E-02  0.23843681192E-01  0.00000000000E+00 0.  1.
     999901    1    3    3    0    0  0.34511921189E-02  0.62446593741E-01  0.11466609777E+00  0.88964026537E+00  0.88000000000E+00 0. -1.
        -11    1    4    4    0    0  0.29841706972E-02 -0.90335278011E-03 -0.92181066074E-02  0.97445334121E-02  0.51100000000E-03 0. -1.
         11    1    4    4    0    0 -0.24643480799E-01 -0.46481624343E-01 -0.10863127205E+00  0.12070152002E+00  0.51100000000E-03 0.  1.
</event>
<event>
 8    1  0.1114447E+005  0.1043930E+01  0.7957747E-01            NaN
         13   -1    0    0    0    0  0.00000000000E+00  0.00000000000E+00  0.74505805969E-08  0.10566000000E+00  0.10566000000E+00 0.  1.
     999900   -1    0    0    0    0 -0.00000000000E+00 -0.00000000000E+00 -0.74505805969E-08  0.93827000000E+00  0.93827000000E+00 0. -1.
     999902    2    1    2    0    0  0.18076795468E-01 -0.99840667358E-02  0.11211785744E-01  0.10204319945E+01  0.10201614084E+01 0.  0.
     999903    2    3    3    0    0  0.83068426315E-02 -0.13030920980E+00 -0.38711992200E-02  0.13206208930E+00  0.19388539221E-01 0.  0.
         14    1    1    2    0    0 -0.18076795468E-01  0.99840667358E-02 -0.11211785744E-01  0.23498005501E-01  0.00000000000E+00 0. -1.
     999901    1    3    3    0    0  0.97699528364E-02  0.12032514306E+00  0.15082984964E-01  0.88836990520E+00  0.88000000000E+00 0. -1.
        -11    1    4    4    0    0  0.16422582580E-02 -0.96569653087E-01  0.44040676892E-02  0.96685323823E-01  0.51100000000E-03 0. -1.
         11    1    4    4    0    0  0.66645843734E-02 -0.33739556713E-01 -0.82752669091E-02  0.35376765475E-01  0.51100000000E-03 0.  1.
</event>
<event>
 8    1  0.1114447E+005  0.1043930E+01  0.7957747E-01            NaN
         13   -1    0    0    0    0  0.00000000000E+00  0.00000000000E+00  0.74505805969E-08  0.10566000000E+00  0.10566000000E+00 0. -1.
     999900   -1    0    0    0    0 -0.00000000000E+00 -0.00000000000E+00 -0.74505805969E-08  0.93827000000E+00  0.93827000000E+00 0.  1.
     999902    2    1    2    0    0  0.19398609959E-01  0.39916920532E-02 -0.13302164583E-01  0.10200723543E+01  0.10197933226E+01 0.  0.
     999903    2    3    3    0    0  0.46760738649E-01  0.12194595663E+00  0.23944754739E-02  0.13164212122E+00  0.16325793933E-01 0.  0.
         14    1    1    2    0    0 -0.19398609959E-01 -0.39916920532E-02  0.13302164583E-01  0.23857645659E-01  0.00000000000E+00 0. -1.
     999901    1    3    3    0    0 -0.27362128689E-01 -0.11795426458E+00 -0.15696640057E-01  0.88843023312E+00  0.88000000000E+00 0. -1.
        -11    1    4    4    0    0  0.40228939176E-01  0.88929668870E-01 -0.24352387198E-02  0.97637313877E-01  0.51100000000E-03 0.  1.
         11    1    4    4    0    0  0.65317994732E-02  0.33016287764E-01  0.48297141937E-02  0.34004807341E-01  0.51100000000E-03 0. -1.
</event>
<event>
 8    1  0.1114447E+005  0.1043930E+01  0.7957747E-01            NaN
         13   -1    0    0    0    0  0.00000000000E+00  0.00000000000E+00  0.74505805969E-08  0.10566000000E+00  0.10566000000E+00 0.  1.
     999900   -1    0    0    0    0 -0.00000000000E+00 -0.00000000000E+00 -0.74505805969E-08  0.93827000000E+00  0.93827000000E+00 0.  1.
     999902    2    1    2    0    0  0.15548489148E-01 -0.21538659368E-01 -0.92853401402E-02  0.10157895149E+01  0.10153996512E+01 0.  0.
     999903    2    3    3    0    0 -0.48526979997E-01  0.11184088175E+00 -0.11090112242E-01  0.12343363018E+00  0.15799362317E-01 0.  0.
         14    1    1    2    0    0 -0.15548489148E-01  0.21538659368E-01  0.92853401402E-02  0.28140485136E-01  0.00000000000E+00 0. -1.
     999901    1    3    3    0    0  0.64075469145E-01 -0.13337954112E+00  0.18047721021E-02  0.89235588469E+00  0.88000000000E+00 0.  1.
        -11    1    4    4    0    0 -0.29058578218E-01  0.74694802345E-01 -0.14114332087E-01  0.81382983213E-01  0.51100000000E-03 0. -1.
         11    1    4    4    0    0 -0.19468401779E-01  0.37146079409E-01  0.30242198444E-02  0.42050646962E-01  0.51100000000E-03 0.  1.
</event>
<event>
 8    1  0.1114447E+005  0.1043930E+01  0.7957747E-01            NaN
         13   -1    0    0    0    0  0.00000000000E+00  0.00000000000E+00  0.74505805969E-08  0.10566000000E+00  0.10566000000E+00 0. -1.
     999900   -1    0    0    0    0 -0.00000000000E+00 -0.00000000000E+00 -0.74505805969E-08  0.93827000000E+00  0.93827000000E+00 0.  1.
     999902    2    1    2    0    0  0.88360501738E-03  0.19388126510E-01  0.14477737473E-01  0.10197166754E+01  0.10194291603E+01 0.  0.
     999903    2    3    3    0    0  0.11983223033E+00  0.42351218918E-01  0.27337558027E-01  0.13132405155E+00  0.18581584036E-01 0.  0.
         14    1    1    2    0    0 -0.88360501738E-03 -0.19388126510E-01 -0.14477737473E-01  0.24213324632E-01  0.00000000000E+00 0.  1.
     999901    1    3    3    0    0 -0.11894862531E+00 -0.22963092408E-01 -0.12859820554E-01  0.88839262382E+00  0.88000000000E+00 0. -1.
        -11    1    4    4    0    0  0.18106699904E-01  0.24136187894E-03  0.66606675416E-02  0.19301203333E-01  0.51100000000E-03 0.  1.
         11    1    4    4    0    0  0.10172553043E+00  0.42109857039E-01  0.20676890485E-01  0.11202284821E+00  0.51100000000E-03 0. -1.
</event>
<event>
 8    1  0.1114447E+005  0.1043930E+01  0.7957747E-01            NaN
         13   -1    0    0    0    0  0.00000000000E+00  0.00000000000E+00  0.74505805969E-08  0.10566000000E+00  0.10566000000E+00 0. -1.
     999900   -1    0    0    0    0 -0.00000000000E+00 -0.00000000000E+00 -0.74505805969E-08  0.93827000000E+00  0.93827000000E+00 0.  1.
     999902    2    1    2    0    0 -0.12577077623E-01  0.20016796033E-01 -0.18722185041E-02  0.10202158648E+01  0.10199402191E+01 0.  0.
     999903    2    3    3    0    0  0.12456902631E+00  0.84460773824E-02 -0.25624079474E-01  0.12920122620E+00  0.21156201529E-01 0.  0.
         14    1    1    2    0    0  0.12577077623E-01 -0.20016796033E-01  0.18722185041E-02  0.23714135175E-01  0.00000000000E+00 0. -1.
     999901    1    3    3    0    0 -0.13714610393E+00  0.11570718651E-01  0.23751860970E-01  0.89101463863E+00  0.88000000000E+00 0. -1.
        -11    1    4    4    0    0  0.40377021752E-01 -0.44670692380E-02 -0.15246699365E-01  0.43393335383E-01  0.51100000000E-03 0.  1.
         11    1    4    4    0    0  0.84192004556E-01  0.12913146620E-01 -0.10377380109E-01  0.85807890813E-01  0.51100000000E-03 0. -1.
</event>
<event>
 8    1  0.1114447E+005  0.1043930E+01  0.7957747E-01            NaN
         13   -1    0    0    0    0  0.00000000000E+00  0.00000000000E+00  0.74505805969E-08  0.10566000000E+00  0.10566000000E+00 0.  1.
     999900   -1    0    0    0    0 -0.00000000000E+00 -0.00000000000E+00 -0.74505805969E-08  0.93827000000E+00  0.93827000000E+00 0.  1.
     999902    2    1    2    0    0  0.11184278206E-01 -0.12093730121E-01 -0.18551447033E-01  0.10191206757E+01  0.10188186536E+01 0.  0.
     999903    2    3    3    0    0 -0.27110886584E-01 -0.12447653910E+00  0.17679194496E-01  0.13040864424E+00  0.21551139568E-01 0.  0.
         14    1    1    2    0    0 -0.11184278206E-01  0.12093730121E-01  0.18551447033E-01  0.24809324341E-01  0.00000000000E+00 0.  1.
     999901    1    3    3    0    0  0.38295164789E-01  0.11238280898E+00 -0.36230641529E-01  0.88871203142E+00  0.88000000000E+00 0.  1.
        -11    1    4    4    0    0 -0.80419328936E-02 -0.22347937588E-01 -0.44848113262E-02  0.24175972633E-01  0.51100000000E-03 0.  1.
         11    1    4    4    0    0 -0.19068953690E-01 -0.10212860151E+00  0.22164005822E-01  0.10623267161E+00  0.51100000000E-03 0. -1.
</event>
<event>
 8    1  0.1114447E+005  0.1043930E+01  0.7957747E-01            NaN
         13   -1    0    0    0    0  0.00000000000E+00  0.00000000000E+00  0.74505805969E-08  0.10566000000E+00  0.10566000000E+00 0. -1.
     999900   -1    0    0    0    0 -0.00000000000E+00 -0.00000000000E+00 -0.74505805969E-08  0.93827000000E+00  0.93827000000E+00 0.  1.
     999902    2    1    2    0    0  0.13850732263E-01  0.14459672518E-01 -0.16614510662E-01  0.10179114128E+01  0.10175788311E+01 0.  0.
     999903    2    3    3    0    0  0.61100951682E-01  0.11139219188E+00 -0.25122698457E-01  0.13128810736E+00  0.21537651875E-01 0.  0.
         14    1    1    2    0    0 -0.13850732263E-01 -0.14459672518E-01  0.16614510662E-01  0.26018587166E-01  0.00000000000E+00 0. -1.
     999901    1    3    3    0    0 -0.47250219419E-01 -0.96932519364E-01  0.85081877946E-02  0.88662330547E+00  0.88000000000E+00 0. -1.
        -11    1    4    4    0    0  0.57580278983E-02  0.28358129516E-01 -0.81448614064E-02  0.30065566405E-01  0.51100000000E-03 0. -1.
         11    1    4    4    0    0  0.55342923784E-01  0.83034062366E-01 -0.16977837050E-01  0.10122254096E+00  0.51100000000E-03 0.  1.
</event>
<event>
 8    1  0.1114447E+005  0.1043930E+01  0.7957747E-01            NaN
         13   -1    0    0    0    0  0.00000000000E+00  0.00000000000E+00  0.74505805969E-08  0.10566000000E+00  0.10566000000E+00 0. -1.
     999900   -1    0    0    0    0 -0.00000000000E+00 -0.00000000000E+00 -0.74505805969E-08  0.93827000000E+00  0.93827000000E+00 0. -1.
     999902    2    1    2    0    0 -0.22539691889E-01  0.84043664845E-02 -0.10080818938E-02  0.10198533035E+01  0.10195690625E+01 0.  0.
     999903    2    3    3    0    0  0.11067641860E+00 -0.57941188712E-01 -0.13990578564E-01  0.12726335842E+00  0.19843767908E-01 0.  0.
         14    1    1    2    0    0  0.22539691889E-01 -0.84043664845E-02  0.10080818938E-02  0.24076696525E-01  0.00000000000E+00 0.  1.
     999901    1    3    3    0    0 -0.13321611049E+00  0.66345555197E-01  0.12982496670E-01  0.89258994505E+00  0.88000000000E+00 0.  1.
        -11    1    4    4    0    0  0.35313564433E-01 -0.21621454895E-01  0.42836048346E-02  0.41631064556E-01  0.51100000000E-03 0. -1.
         11    1    4    4    0    0  0.75362854169E-01 -0.36319733818E-01 -0.18274183399E-01  0.85632293867E-01  0.51100000000E-03 0.  1.
</event>
<event>
 8    1  0.1114447E+005  0.1043930E+01  0.7957747E-01            NaN
         13   -1    0    0    0    0  0.00000000000E+00  0.00000000000E+00  0.74505805969E-08  0.10566000000E+00  0.10566000000E+00 0. -1.
     999900   -1    0    0    0    0 -0.00000000000E+00 -0.00000000000E+00 -0.74505805969E-08  0.93827000000E+00  0.93827000000E+00 0. -1.
     999902    2    1    2    0    0 -0.22095088458E-01 -0.51235737214E-02 -0.48625460363E-02  0.10207332697E+01  0.10204696564E+01 0.  0.
     999903    2    3    3    0    0  0.51059053893E-01  0.11213413952E+00 -0.35868257152E-01  0.12940714872E+00  0.16690896898E-01 0.  0.
         14    1    1    2    0    0  0.22095088458E-01  0.51235737214E-02  0.48625460363E-02  0.23196730278E-01  0.00000000000E+00 0.  1.
     999901    1    3    3    0    0 -0.73154142351E-01 -0.11725771324E+00  0.31005711116E-01  0.89132612100E+00  0.88000000000E+00 0. -1.
        -11    1    4    4    0    0  0.16021129048E-01  0.54093261023E-01 -0.13463781182E-01  0.58002517091E-01  0.51100000000E-03 0. -1.
         11    1    4    4    0    0  0.35037924845E-01  0.58040878493E-01 -0.22404475970E-01  0.71404631630E-01  0.51100000000E-03 0.  1.
</event>
<event>
 8    1  0.1114447E+005  0.1043930E+01  0.7957747E-01            NaN
         13   -1    0    0    0    0  0.00000000000E+00  0.00000000000E+00  0.74505805969E-08  0.10566000000E+00  0.10566000000E+00 0.  1.
     999900   -1    0    0    0    0 -0.00000000000E+00 -0.00000000000E+00 -0.74505805969E-08  0.93827000000E+00  0.93827000000E+00 0.  1.
     999902    2    1    2    0    0 -0.10005936194E-01 -0.91874751966E-02  0.18987023520E-01  0.10205840042E+01  0.10203169478E+01 0.  0.
     999903    2    3    3    0    0 -0.44307718770E-01 -0.80836683828E-02 -0.11941941711E+00  0.12910535973E+00  0.19459627197E-01 0.  0.
         14    1    1    2    0    0  0.10005936194E-01  0.91874751966E-02 -0.18987023520E-01  0.23345995840E-01  0.00000000000E+00 0. -1.
     999901    1    3    3    0    0  0.34301782576E-01 -0.11038068138E-02  0.13840644063E+00  0.89147864444E+00  0.88000000000E+00 0. -1.
        -11    1    4    4    0    0 -0.26165501643E-01  0.35454385124E-02 -0.78999713810E-01  0.83297175904E-01  0.51100000000E-03 0. -1.
         11    1    4    4    0    0 -0.18142217127E-01 -0.11629106895E-01 -0.40419703296E-01  0.45808183821E-01  0.51100000000E-03 0.  1.
</event>
<event>
 8    1  0.1114447E+005  0.1043930E+01  0.7957747E-01            NaN
         13   -1    0    0    0    0  0.00000000000E+00  0.00000000000E+00  0.74505805969E-08  0.10566000000E+00  0.10566000000E+00 0.  1.
     999900   -1    0    0    0    0 -0.00000000000E+00 -0.00000000000E+00 -0.74505805969E-08  0.93827000000E+00  0.93827000000E+00 0. -1.
     999902    2    1    2    0    0  0.65909724966E-02  0.67349735808E-02  0.21316766486E-01  0.10206232344E+01  0.10203570852E+01 0.  0.
     999903    2    3    3    0    0  0.16469502303E-01 -0.55042454242E-01 -0.11289110598E+00  0.12825235360E+00  0.20083528521E-01 0.  0.
         14    1    1    2    0    0 -0.65909724966E-02 -0.67349735808E-02 -0.21316766486E-01  0.23306765563E-01  0.00000000000E+00 0. -1.
     999901    1    3    3    0    0 -0.98785298066E-02  0.61777427823E-01  0.13420787247E+00  0.89237088084E+00  0.88000000000E+00 0.  1.
        -11    1    4    4    0    0  0.14959343322E-01 -0.16512071595E-01 -0.40089098401E-01  0.45867498216E-01  0.51100000000E-03 0. -1.
         11    1    4    4    0    0  0.15101589808E-02 -0.38530382647E-01 -0.72802007583E-01  0.82384855381E-01  0.51100000000E-03 0.  1.
</event>
<event>
 8    1  0.1114447E+005  0.1043930E+01  0.7957747E-01            NaN
         13   -1    0    0    0    0  0.00000000000E+00  0.00000000000E+00  0.74505805969E-08  0.10566000000E+00  0.10566000000E+00 0. -1.
     999900   -1    0    0    0    0 -0.00000000000E+00 -0.00000000000E+00 -0.74505805969E-08  0.93827000000E+00  0.93827000000E+00 0. -1.
     999902    2    1    2    0    0 -0.16362704801E-01 -0.13756073919E-01  0.10806968788E-01  0.10199767486E+01  0.10196954494E+01 0.  0.
     999903    2    3    3    0    0 -0.10176641542E+00 -0.81573792754E-01  0.17336440001E-01  0.13322104901E+00  0.20895185411E-01 0.  0.
         14    1    1    2    0    0  0.16362704801E-01  0.13756073919E-01 -0.10806968788E-01  0.23953251396E-01  0.00000000000E+00 0.  1.
     999901    1    3    3    0    0  0.85403710624E-01  0.67817718836E-01 -0.65294712136E-02  0.88675569960E+00  0.88000000000E+00 0.  1.
        -11    1    4    4    0    0 -0.52490459481E-01 -0.30124749912E-01  0.12611417811E-01  0.61822794129E-01  0.51100000000E-03 0.  1.
         11    1    4    4    0    0 -0.49275955944E-01 -0.51449042842E-01  0.47250221900E-02  0.71398254876E-01  0.51100000000E-03 0. -1.
</event>
<event>
 8    1  0.1114447E+005  0.1043930E+01  0.7957747E-01            NaN
         13   -1    0    0    0    0  0.00000000000E+00  0.00000000000E+00  0.74505805969E-08  0.10566000000E+00  0.10566000000E+00 0.  1.
     999900   -1    0    0    0    0 -0.00000000000E+00 -0.00000000000E+00 -0.74505805969E-08  0.93827000000E+00  0.93827000000E+00 0.  1.
     999902    2    1    2    0    0 -0.10473981433E-02 -0.17523705618E-01  0.15697970169E-01  0.10203799773E+01  0.10201081779E+01 0.  0.
     999903    2    3    3    0    0  0.10274687111E+00  0.85149003678E-02  0.79396967437E-01  0.13161182892E+00  0.19707156621E-01 0.  0.
         14    1    1    2    0    0  0.10473981433E-02  0.17523705618E-01 -0.15697970169E-01  0.23550022694E-01  0.00000000000E+00 0. -1.
     999901    1    3    3    0    0 -0.10379426926E+00 -0.26038605985E-01 -0.63698997267E-01  0.88876814839E+00  0.88000000000E+00 0.  1.
        -11    1    4    4    0    0  0.62605767867E-01  0.14778166947E-01  0.47903739692E-01  0.80205397487E-01  0.51100000000E-03 0.  1.
         11    1    4    4    0    0  0.40141103245E-01 -0.62632665794E-02  0.31493227745E-01  0.51406431434E-01  0.51100000000E-03 0. -1.
</event>
<event>
 8    1  0.1114447E+005  0.1043930E+01  0.7957747E-01            NaN
         13   -1    0    0    0    0  0.00000000000E+00  0.00000000000E+00  0.74505805969E-08  0.10566000000E+00  0.10566000000E+00 0. -1.
     999900   -1    0    0    0    0 -0.00000000000E+00 -0.00000000000E+00 -0.74505805969E-08  0.93827000000E+00  0.93827000000E+00 0.  1.
     999902    2    1    2    0    0 -0.10011459883E-01  0.37401892900E-02 -0.21012101486E-01  0.10203561426E+01  0.10200837862E+01 0.  0.
     999903    2    3    3    0    0  0.70279436472E-01 -0.64932778590E-01  0.82495409553E-01  0.12801292980E+00  0.20648309172E-01 0.  0.
         14    1    1    2    0    0  0.10011459883E-01 -0.37401892900E-02  0.21012101486E-01  0.23573857422E-01  0.00000000000E+00 0. -1.
     999901    1    3    3    0    0 -0.80290896355E-01  0.68672967881E-01 -0.10350751104E+00  0.89234321278E+00  0.88000000000E+00 0.  1.
        -11    1    4    4    0    0  0.50864304986E-01 -0.48027593654E-01  0.71447554225E-01  0.99994206830E-01  0.51100000000E-03 0.  1.
         11    1    4    4    0    0  0.19415131485E-01 -0.16905184936E-01  0.11047855328E-01  0.28018722967E-01  0.51100000000E-03 0. -1.
</event>
<event>
 8    1  0.1114447E+005  0.1043930E+01  0.7957747E-01            NaN
         13   -1    0    0    0    0  0.00000000000E+00  0.00000000000E+00  0.74505805969E-08  0.10566000000E+00  0.10566000000E+00 0. -1.
     999900   -1    0    0    0    0 -0.00000000000E+00 -0.00000000000E+00 -0.74505805969E-08  0.93827000000E+00  0.93827000000E+00 0. -1.
     999902    2    1    2    0    0 -0.15375725044E-01 -0.12831385626E-02  0.18136507930E-01  0.10201184002E+01  0.10198404572E+01 0.  0.
     999903    2    3    3    0    0  0.12598399155E-01 -0.61918697516E-02 -0.12554909851E+00  0.12801291273E+00  0.20680202541E-01 0.  0.
         14    1    1    2    0    0  0.15375725044E-01  0.12831385626E-02 -0.18136507930E-01  0.23811599802E-01  0.00000000000E+00 0.  1.
     999901    1    3    3    0    0 -0.27974124200E-01  0.49087311889E-02  0.14368560644E+00  0.89210548746E+00  0.88000000000E+00 0.  1.
        -11    1    4    4    0    0  0.13777175085E-01  0.40239182317E-02 -0.62520645483E-01  0.64149003919E-01  0.51100000000E-03 0.  1.
         11    1    4    4    0    0 -0.11787759301E-02 -0.10215787983E-01 -0.63028453029E-01  0.63863908814E-01  0.51100000000E-03 0. -1.
</event>
<event>
 8    1  0.1114447E+005  0.1043930E+01  0.7957747E-01            NaN
         13   -1    0    0    0    0  0.00000000000E+00  0.00000000000E+00  0.74505805969E-08  0.10566000000E+00  0.10566000000E+00 0.  1.
     999900   -1    0    0    0    0 -0.00000000000E+00 -0.00000000000E+00 -0.74505805969E-08  0.93827000000E+00  0.93827000000E+00 0.  1.
     999902    2    1    2    0    0  0.84891131216E-02 -0.15021441500E-01 -0.15577432115E-01  0.10206842447E+01  0.10204195031E+01 0.  0.
     999903    2    3    3    0    0 -0.92079934200E-01  0.75984016985E-01 -0.46804228409E-01  0.12974584083E+00  0.19775295101E-01 0.  0.
         14    1    1    2    0    0 -0.84891131216E-02  0.15021441500E-01  0.15577432115E-01  0.23245755260E-01  0.00000000000E+00 0.  1.
     999901    1    3    3    0    0  0.10056904732E+00 -0.91005458485E-01  0.31226796293E-01  0.89093840391E+00  0.88000000000E+00 0. -1.
        -11    1    4    4    0    0 -0.23239020294E-01  0.12888443495E-01 -0.17698324262E-01  0.31932050398E-01  0.51100000000E-03 0.  1.
         11    1    4    4    0    0 -0.68840913907E-01  0.63095573490E-01 -0.29105904146E-01  0.97813790432E-01  0.51100000000E-03 0. -1.
</event>
<event>
 8    1  0.1114447E+005  0.1043930E+01  0.7957747E-01            NaN
         13   -1    0    0    0    0  0.00000000000E+00  0.00000000000E+00  0.74505805969E-08  0.10566000000E+00  0.10566000000E+00 0. -1.
     999900   -1    0    0    0    0 -0.00000000000E+00 -0.00000000000E+00 -0.74505805969E-08  0.93827000000E+00  0.93827000000E+00 0. -1.
     999902    2    1    2    0    0 -0.16215376880E-01  0.34505587966E-02  0.16948443849E-01  0.10202214667E+01  0.10199459527E+01 0.  0.
     999903    2    3    3    0    0  0.13835479135E-01  0.39266959044E-01  0.12416833314E+00  0.13248165506E+00  0.20007484021E-01 0.  0.
         14    1    1    2    0    0  0.16215376880E-01 -0.34505587966E-02 -0.16948443849E-01  0.23708533322E-01  0.00000000000E+00 0.  1.
     999901    1    3    3    0    0 -0.30050856015E-01 -0.35816400248E-01 -0.10721988929E+00  0.88773981162E+00  0.88000000000E+00 0. -1.
        -11    1    4    4    0    0 -0.36485597459E-02  0.99136255972E-02  0.17230847794E-01  0.20217695156E-01  0.51100000000E-03 0. -1.
         11    1    4    4    0    0  0.17484038880E-01  0.29353333447E-01  0.10693748535E+00  0.11226395990E+00  0.51100000000E-03 0.  1.
</event>
<event>
 8    1  0.1114447E+005  0.1043930E+01  0.7957747E-01            NaN
         13   -1    0    0    0    0  0.00000000000E+00  0.00000000000E+00  0.74505805969E-08  0.10566000000E+00  0.10566000000E+00 0.  1.
     999900   -1    0    0    0    0 -0.00000000000E+00 -0.00000000000E+00 -0.74505805969E-08  0.93827000000E+00  0.93827000000E+00 0.  1.
     999902    2    1    2    0    0  0.17855511781E-02 -0.21825858119E-01 -0.34836794170E-02  0.10217558642E+01  0.10215152244E+01 0.  0.
     999903    2    3    3    0    0  0.92291215241E-01  0.65268683435E-01  0.61885879599E-01  0.13043666570E+00  0.20154210885E-01 0.  0.
         14    1    1    2    0    0 -0.17855511781E-02  0.21825858119E-01  0.34836794170E-02  0.22174135787E-01  0.00000000000E+00 0.  1.
     999901    1    3    3    0    0 -0.90505664063E-01 -0.87094541554E-01 -0.65369559016E-01  0.89131919852E+00  0.88000000000E+00 0.  1.
        -11    1    4    4    0    0  0.63189109381E-01  0.35944644136E-01  0.31924901635E-01  0.79399883198E-01  0.51100000000E-03 0. -1.
         11    1    4    4    0    0  0.29102105860E-01  0.29324039299E-01  0.29960977964E-01  0.51036782500E-01  0.51100000000E-03 0.  1.
</event>
<event>
 8    1  0.1114447E+005  0.1043930E+01  0.7957747E-01            NaN
         13   -1    0    0    0    0  0.00000000000E+00  0.00000000000E+00  0.74505805969E-08  0.10566000000E+00  0.10566000000E+00 0.  1.
     999900   -1    0    0    0    0 -0.00000000000E+00 -0.00000000000E+00 -0.74505805969E-08  0.93827000000E+00  0.93827000000E+00 0. -1.
     999902    2    1    2    0    0  0.13719310211E-01 -0.96336904545E-02 -0.15900967546E-01  0.10208244112E+01  0.10205628889E+01 0.  0.
     999903    2    3    3    0    0  0.79730350285E-01  0.68673066564E-01 -0.78187610573E-01  0.13269771332E+00  0.20553876641E-01 0.  0.
         14    1    1    2    0    0 -0.13719310211E-01  0.96336904545E-02  0.15900967546E-01  0.23105588791E-01  0.00000000000E+00 0.  1.
     999901    1    3    3    0    0 -0.66011040074E-01 -0.78306757019E-01  0.62286643027E-01  0.88812669789E+00  0.88000000000E+00 0.  1.
        -11    1    4    4    0    0  0.75919467533E-01  0.61631662946E-01 -0.77251360658E-01  0.12462046891E+00  0.51100000000E-03 0.  1.
         11    1    4    4    0    0  0.38108827524E-02  0.70414036183E-02 -0.93624991548E-03  0.80772444046E-02  0.51100000000E-03 0. -1.
</event>
<event>
 8    1  0.1114447E+005  0.1043930E+01  0.7957747E-01            NaN
         13   -1    0    0    0    0  0.00000000000E+00  0.00000000000E+00  0.74505805969E-08  0.10566000000E+00  0.10566000000E+00 0. -1.
     999900   -1    0    0    0    0 -0.00000000000E+00 -0.00000000000E+00 -0.74505805969E-08  0.93827000000E+00  0.93827000000E+00 0.  1.
     999902    2    1    2    0    0 -0.50471569788E-02  0.16485544595E-01 -0.14975076402E-01  0.10210936280E+01  0.10208382326E+01 0.  0.
     999903    2    3    3    0    0  0.83535825708E-01  0.45216865156E-01 -0.90747027697E-01  0.13294171405E+00  0.20388163893E-01 0.  0.
         14    1    1    2    0    0  0.50471569788E-02 -0.16485544595E-01  0.14975076402E-01  0.22836372029E-01  0.00000000000E+00 0. -1.
     999901    1    3    3    0    0 -0.88582982687E-01 -0.28731320561E-01  0.75771951294E-01  0.88815191392E+00  0.88000000000E+00 0.  1.
        -11    1    4    4    0    0  0.48526917480E-01  0.14761237319E-01 -0.48798603020E-01  0.70386935045E-01  0.51100000000E-03 0. -1.
         11    1    4    4    0    0  0.35008908228E-01  0.30455627837E-01 -0.41948424677E-01  0.62554779003E-01  0.51100000000E-03 0.  1.
</event>
<event>
 8    1  0.1114447E+005  0.1043930E+01  0.7957747E-01            NaN
         13   -1    0    0    0    0  0.00000000000E+00  0.00000000000E+00  0.74505805969E-08  0.10566000000E+00  0.10566000000E+00 0.  1.
     999900   -1    0    0    0    0 -0.00000000000E+00 -0.00000000000E+00 -0.74505805969E-08  0.93827000000E+00  0.93827000000E+00 0. -1.
     999902    2    1    2    0    0 -0.17037334331E-01 -0.15830287026E-03 -0.18288025991E-01  0.10189350462E+01  0.10186284311E+01 0.  0.
     999903    2    3    3    0    0 -0.12605542947E+00  0.25560102259E-01 -0.20455297872E-01  0.13183241488E+00  0.20446913584E-01 0.  0.
         14    1    1    2    0    0  0.17037334331E-01  0.15830287026E-03  0.18288025991E-01  0.24994953802E-01  0.00000000000E+00 0.  1.
     999901    1    3    3    0    0  0.10901809514E+00 -0.25718405129E-01  0.21672718810E-02  0.88710263132E+00  0.88000000000E+00 0.  1.
        -11    1    4    4    0    0 -0.99060777684E-01  0.12901818757E-01 -0.10760934808E-01  0.10047663132E+00  0.51100000000E-03 0. -1.
         11    1    4    4    0    0 -0.26994651785E-01  0.12658283501E-01 -0.96943630645E-02  0.31355783556E-01  0.51100000000E-03 0.  1.
</event>
<event>
 8    1  0.1114447E+005  0.1043930E+01  0.7957747E-01            NaN
         13   -1    0    0    0    0  0.00000000000E+00  0.00000000000E+00  0.74505805969E-08  0.10566000000E+00  0.10566000000E+00 0. -1.
     999900   -1    0    0    0    0 -0.00000000000E+00 -0.00000000000E+00 -0.74505805969E-08  0.93827000000E+00  0.93827000000E+00 0.  1.
     999902    2    1    2    0    0 -0.96926277680E-02  0.19703872127E-01 -0.19237809019E-03  0.10219703411E+01  0.10217343840E+01 0.  0.
     999903    2    3    3    0    0  0.56217308343E-01 -0.11341824096E+00  0.20941858840E-01  0.12927091092E+00  0.15758293607E-01 0.  0.
         14    1    1    2    0    0  0.96926277680E-02 -0.19703872127E-01  0.19237809019E-03  0.21959658904E-01  0.00000000000E+00 0. -1.
     999901    1    3    3    0    0 -0.65909936111E-01  0.13312211309E+00 -0.21134236931E-01  0.89269943018E+00  0.88000000000E+00 0.  1.
        -11    1    4    4    0    0  0.14437901504E-01 -0.17549711077E-01  0.68941413223E-02  0.23753645284E-01  0.51100000000E-03 0.  1.
         11    1    4    4    0    0  0.41779406839E-01 -0.95868529885E-01  0.14047717518E-01  0.10551726563E+00  0.51100000000E-03 0. -1.
</event>
<event>
 8    1  0.1114447E+005  0.1043930E+01  0.7957747E-01            NaN
         13   -1    0    0    0    0  0.00000000000E+00  0.00000000000E+00  0.74505805969E-08  0.10566000000E+00  0.10566000000E+00 0. -1.
     999900   -1    0    0    0    0 -0.00000000000E+00 -0.00000000000E+00 -0.74505805969E-08  0.93827000000E+00  0.93827000000E+00 0. -1.
     999902    2    1    2    0    0  0.16635337140E-02 -0.25793885431E-01  0.65131770668E-02  0.10172745438E+01  0.10169252598E+01 0.  0.
     999903    2    3    3    0    0  0.70687770363E-01  0.10146276730E+00  0.24628530524E-02  0.12543655064E+00  0.20899965666E-01 0.  0.
         14    1    1    2    0    0 -0.16635337140E-02  0.25793885431E-01 -0.65131770668E-02  0.26655456206E-01  0.00000000000E+00 0. -1.
     999901    1    3    3    0    0 -0.69024236649E-01 -0.12725665273E+00  0.40503240144E-02  0.89183799315E+00  0.88000000000E+00 0. -1.
        -11    1    4    4    0    0  0.59660395133E-01  0.75789820976E-01  0.85551249952E-02  0.96834451491E-01  0.51100000000E-03 0.  1.
         11    1    4    4    0    0  0.11027375230E-01  0.25672946322E-01 -0.60922719429E-02  0.28602099149E-01  0.51100000000E-03 0. -1.
</event>
<event>
 8    1  0.1114447E+005  0.1043930E+01  0.7957747E-01            NaN
         13   -1    0    0    0    0  0.00000000000E+00  0.00000000000E+00  0.74505805969E-08  0.10566000000E+00  0.10566000000E+00 0.  1.
     999900   -1    0    0    0    0 -0.00000000000E+00 -0.00000000000E+00 -0.74505805969E-08  0.93827000000E+00  0.93827000000E+00 0.  1.
     999902    2    1    2    0    0  0.99172137823E-02 -0.21316192340E-01 -0.25361250122E-02  0.10202833699E+01  0.10200093097E+01 0.  0.
     999903    2    3    3    0    0 -0.54039713522E-01  0.67754820463E-01 -0.92876916450E-01  0.12888806339E+00  0.21794608074E-01 0.  0.
         14    1    1    2    0    0 -0.99172137823E-02  0.21316192340E-01  0.25361250122E-02  0.23646630101E-01  0.00000000000E+00 0.  1.
     999901    1    3    3    0    0  0.63956927305E-01 -0.89071012803E-01  0.90340791438E-01  0.89139530651E+00  0.88000000000E+00 0. -1.
        -11    1    4    4    0    0 -0.89427160839E-02  0.21305188016E-02 -0.14374837178E-01  0.17070686753E-01  0.51100000000E-03 0.  1.
         11    1    4    4    0    0 -0.45096997438E-01  0.65624301662E-01 -0.78502079271E-01  0.11181737663E+00  0.51100000000E-03 0. -1.
</event>
<event>
 8    1  0.1399422E+005  0.1043930E+01  0.7957747E-01            NaN
         13   -1    0    0    0    0  0.00000000000E+00  0.00000000000E+00  0.74505805969E-08  0.10566000000E+00  0.10566000000E+00 0.  1.
     999900   -1    0    0    0    0 -0.00000000000E+00 -0.00000000000E+00 -0.74505805969E-08  0.93827000000E+00  0.93827000000E+00 0. -1.
     999902    2    1    2    0    0  0.83807072546E-02 -0.16974682354E-01 -0.14288404036E-01  0.10202121884E+01  0.10199364563E+01 0.  0.
     999903    2    3    3    0    0 -0.74805220872E-02 -0.81822047231E-01  0.99225941407E-01  0.13041318533E+00  0.20273278841E-01 0.  0.
         14    1    1    2    0    0 -0.83807072546E-02  0.16974682354E-01  0.14288404036E-01  0.23717811556E-01  0.00000000000E+00 0.  1.
     999901    1    3    3    0    0  0.15861229342E-01  0.64847364877E-01 -0.11351434544E+00  0.88979900312E+00  0.88000000000E+00 0. -1.
        -11    1    4    4    0    0 -0.12190743479E-03 -0.28078864832E-01  0.49039930752E-01  0.56512064561E-01  0.51100000000E-03 0.  1.
         11    1    4    4    0    0 -0.73586146524E-02 -0.53743182399E-01  0.50186010655E-01  0.73901120766E-01  0.51100000000E-03 0. -1.
</event>
<event>
 8    1  0.1114447E+005  0.1043930E+01  0.7957747E-01            NaN
         13   -1    0    0    0    0  0.00000000000E+00  0.00000000000E+00  0.74505805969E-08  0.10566000000E+00  0.10566000000E+00 0.  1.
     999900   -1    0    0    0    0 -0.00000000000E+00 -0.00000000000E+00 -0.74505805969E-08  0.93827000000E+00  0.93827000000E+00 0.  1.
     999902    2    1    2    0    0  0.20271055844E-01  0.87797307959E-02  0.98135020151E-02  0.10197576149E+01  0.10194710830E+01 0.  0.
     999903    2    3    3    0    0 -0.71913564524E-01 -0.28480106843E-01 -0.99331071191E-01  0.12745786844E+00  0.19904001489E-01 0.  0.
         14    1    1    2    0    0 -0.20271055844E-01 -0.87797307959E-02 -0.98135020151E-02  0.24172385064E-01  0.00000000000E+00 0. -1.
     999901    1    3    3    0    0  0.92184620368E-01  0.37259837639E-01  0.10914457321E+00  0.89229974649E+00  0.88000000000E+00 0.  1.
        -11    1    4    4    0    0 -0.24591894778E-01 -0.17499554646E-01 -0.28131653631E-01  0.41263140435E-01  0.51100000000E-03 0. -1.
         11    1    4    4    0    0 -0.47321669746E-01 -0.10980552197E-01 -0.71199417560E-01  0.86194728006E-01  0.51100000000E-03 0.  1.
</event>
<event>
 8    1  0.1114447E+005  0.1043930E+01  0.7957747E-01            NaN
         13   -1    0    0    0    0  0.00000000000E+00  0.00000000000E+00  0.74505805969E-08  0.10566000000E+00  0.10566000000E+00 0. -1.
     999900   -1    0    0    0    0 -0.00000000000E+00 -0.00000000000E+00 -0.74505805969E-08  0.93827000000E+00  0.93827000000E+00 0. -1.
     999902    2    1    2    0    0  0.18879552534E-01 -0.99392136933E-03 -0.10666197947E-01  0.10222230158E+01  0.10219925151E+01 0.  0.
     999903    2    3    3    0    0 -0.28243566836E-04 -0.12734318167E+00 -0.29781657253E-01  0.13279227590E+00  0.23033773335E-01 0.  0.
         14    1    1    2    0    0 -0.18879552534E-01  0.99392136933E-03  0.10666197947E-01  0.21706984181E-01  0.00000000000E+00 0.  1.
     999901    1    3    3    0    0  0.18907796101E-01  0.12634926030E+00  0.19115459306E-01  0.88943073992E+00  0.88000000000E+00 0.  1.
        -11    1    4    4    0    0  0.90921533371E-02 -0.99200683592E-01 -0.19803122650E-01  0.10156705994E+00  0.51100000000E-03 0.  1.
         11    1    4    4    0    0 -0.91203969039E-02 -0.28142498078E-01 -0.99785346028E-02  0.31225215957E-01  0.51100000000E-03 0. -1.
</event>
<event>
 8    1  0.1114447E+005  0.1043930E+01  0.7957747E-01            NaN
         13   -1    0    0    0    0  0.00000000000E+00  0.00000000000E+00  0.74505805969E-08  0.10566000000E+00  0.10566000000E+00 0. -1.
     999900   -1    0    0    0    0 -0.00000000000E+00 -0.00000000000E+00 -0.74505805969E-08  0.93827000000E+00  0.93827000000E+00 0. -1.
     999902    2    1    2    0    0 -0.14368586749E-01  0.13411444303E-01 -0.13358084971E-01  0.10201652876E+01  0.10198884509E+01 0.  0.
     999903    2    3    3    0    0  0.81928136320E-01  0.69531926865E-01 -0.72018324682E-01  0.13119757658E+00  0.21891930833E-01 0.  0.
         14    1    1    2    0    0  0.14368586749E-01 -0.13411444303E-01  0.13358084971E-01  0.23764712445E-01  0.00000000000E+00 0. -1.
     999901    1    3    3    0    0 -0.96296723069E-01 -0.56120482562E-01  0.58660239711E-01  0.88896771098E+00  0.88000000000E+00 0. -1.
        -11    1    4    4    0    0  0.29171860474E-01  0.17804403306E-01 -0.33560357710E-01  0.47901492161E-01  0.51100000000E-03 0. -1.
         11    1    4    4    0    0  0.52756275846E-01  0.51727523560E-01 -0.38457966972E-01  0.83296084418E-01  0.51100000000E-03 0.  1.
</event>
<event>
 8    1  0.1114447E+005  0.1043930E+01  0.7957747E-01            NaN
         13   -1    0    0    0    0  0.00000000000E+00  0.00000000000E+00  0.74505805969E-08  0.10566000000E+00  0.10566000000E+00 0.  1.
     999900   -1    0    0    0    0 -0.00000000000E+00 -0.00000000000E+00 -0.74505805969E-08  0.93827000000E+00  0.93827000000E+00 0.  1.
     999902    2    1    2    0    0  0.61239419315E-02  0.37622597832E-02 -0.27442780141E-01  0.10155616471E+01  0.10151653538E+01 0.  0.
     999903    2    3    3    0    0  0.10545288874E+00  0.27067170520E-01  0.59033927507E-01  0.12545627161E+00  0.20033173129E-01 0.  0.
         14    1    1    2    0    0 -0.61239419315E-02 -0.37622597832E-02  0.27442780141E-01  0.28368352884E-01  0.00000000000E+00 0.  1.
     999901    1    3    3    0    0 -0.99328946809E-01 -0.23304910737E-01 -0.86476707649E-01  0.89010537551E+00  0.88000000000E+00 0.  1.
        -11    1    4    4    0    0  0.52067093190E-01  0.14846352860E-01  0.40572784064E-01  0.67659502763E-01  0.51100000000E-03 0.  1.
         11    1    4    4    0    0  0.53385795551E-01  0.12220817660E-01  0.18461143443E-01  0.57796768847E-01  0.51100000000E-03 0. -1.
</event>
<event>
 8    1  0.1114447E+005  0.1043930E+01  0.7957747E-01            NaN
         13   -1    0    0    0    0  0.00000000000E+00  0.00000000000E+00  0.74505805969E-08  0.10566000000E+00  0.10566000000E+00 0. -1.
     999900   -1    0    0    0    0 -0.00000000000E+00 -0.00000000000E+00 -0.74505805969E-08  0.93827000000E+00  0.93827000000E+00 0. -1.
     999902    2    1    2    0    0 -0.17476140310E-01  0.12739221200E-01 -0.92461656608E-02  0.10204099061E+01  0.10201388051E+01 0.  0.
     999903    2    3    3    0    0  0.85357743639E-01 -0.79156765562E-01  0.48470594662E-01  0.12780086264E+00  0.20782781610E-01 0.  0.
         14    1    1    2    0    0  0.17476140310E-01 -0.12739221200E-01  0.92461656608E-02  0.23520093885E-01  0.00000000000E+00 0. -1.
     999901    1    3    3    0    0 -0.10283388395E+00  0.91895986762E-01 -0.57716760323E-01  0.89260904347E+00  0.88000000000E+00 0. -1.
        -11    1    4    4    0    0  0.46257715338E-02 -0.10778510659E-01  0.93206853970E-02  0.14990341943E-01  0.51100000000E-03 0.  1.
         11    1    4    4    0    0  0.80731972105E-01 -0.68378254903E-01  0.39149909265E-01  0.11281052070E+00  0.51100000000E-03 0. -1.
</event>
<event>
 8    1  0.1114447E+005  0.1043930E+01  0.7957747E-01            NaN
         13   -1    0    0    0    0  0.00000000000E+00  0.00000000000E+00  0.74505805969E-08  0.10566000000E+00  0.10566000000E+00 0. -1.
     999900   -1    0    0    0    0 -0.00000000000E+00 -0.00000000000E+00 -0.74505805969E-08  0.93827000000E+00  0.93827000000E+00 0. -1.
     999902    2    1    2    0    0  0.13898385617E-01 -0.77171151857E-02  0.17612598967E-01  0.10202040094E+01  0.10199280848E+01 0.  0.
     999903    2    3    3    0    0 -0.47759475033E-01 -0.11731560580E+00  0.26827932054E-01  0.13121669601E+00  0.21311136835E-01 0.  0.
         14    1    1    2    0    0 -0.13898385617E-01  0.77171151857E-02 -0.17612598967E-01  0.23725990642E-01  0.00000000000E+00 0.  1.
     999901    1    3    3    0    0  0.61657860651E-01  0.10959849062E+00 -0.92153330864E-02  0.88898731335E+00  0.88000000000E+00 0.  1.
        -11    1    4    4    0    0 -0.42427252645E-01 -0.11332820039E+00  0.22044285231E-01  0.12300229430E+00  0.51100000000E-03 0.  1.
         11    1    4    4    0    0 -0.53322223883E-02 -0.39874054114E-02  0.47836468230E-02  0.82144017092E-02  0.51100000000E-03 0. -1.
</event>
<event>
 8    1  0.1114447E+005  0.1043930E+01  0.7957747E-01            NaN
         13   -1    0    0    0    0  0.00000000000E+00  0.00000000000E+00  0.74505805969E-08  0.10566000000E+00  0.10566000000E+00 0.  1.
     999900   -1    0    0    0    0 -0.00000000000E+00 -0.00000000000E+00 -0.74505805969E-08  0.93827000000E+00  0.93827000000E+00 0.  1.
     999902    2    1    2    0    0 -0.42490812218E-02  0.23472381486E-01 -0.11427009676E-02  0.10200487699E+01  0.10197691797E+01 0.  0.
     999903    2    3    3    0    0 -0.11740871587E+00 -0.34124317363E-01 -0.40033540098E-01  0.13008529878E+00  0.19241232458E-01 0.  0.
         14    1    1    2    0    0  0.42490812218E-02 -0.23472381486E-01  0.11427009676E-02  0.23881230063E-01  0.00000000000E+00 0. -1.
     999901    1    3    3    0    0  0.11315963465E+00  0.57596698849E-01  0.38890839130E-01  0.88996347116E+00  0.88000000000E+00 0.  1.
        -11    1    4    4    0    0 -0.39161769448E-01 -0.42449975284E-02 -0.18939011484E-01  0.43710541833E-01  0.51100000000E-03 0. -1.
         11    1    4    4    0    0 -0.78246946425E-01 -0.29879319835E-01 -0.21094528614E-01  0.86374756943E-01  0.51100000000E-03 0.  1.
</event>
<event>
 8    1  0.1114447E+005  0.1043930E+01  0.7957747E-01            NaN
         13   -1    0    0    0    0  0.00000000000E+00  0.00000000000E+00  0.74505805969E-08  0.10566000000E+00  0.10566000000E+00 0.  1.
     999900   -1    0    0    0    0 -0.00000000000E+00 -0.00000000000E+00 -0.74505805969E-08  0.93827000000E+00  0.93827000000E+00 0.  1.
     999902    2    1    2    0    0  0.57040060825E-03  0.21993251393E-01  0.29940133754E-02  0.10217265638E+01  0.10214852806E+01 0.  0.
     999903    2    3    3    0    0 -0.76440207038E-01  0.10739393643E+00  0.15714265678E-01  0.13415362846E+00  0.19331193731E-01 0.  0.
         14    1    1    2    0    0 -0.57040060825E-03 -0.21993251393E-01 -0.29940133754E-02  0.22203436216E-01  0.00000000000E+00 0.  1.
     999901    1    3    3    0    0  0.77010607647E-01 -0.85400685033E-01 -0.12720252303E-01  0.88757293532E+00  0.88000000000E+00 0.  1.
        -11    1    4    4    0    0 -0.45286623535E-01  0.62156188218E-01 -0.40739504809E-03  0.76907067924E-01  0.51100000000E-03 0. -1.
         11    1    4    4    0    0 -0.31153583504E-01  0.45237748208E-01  0.16121660726E-01  0.57246560540E-01  0.51100000000E-03 0.  1.
</event>
<event>
 8    1  0.1114447E+005  0.1043930E+01  0.7957747E-01            NaN
         13   -1    0    0    0    0  0.00000000000E+00  0.00000000000E+00  0.74505805969E-08  0.10566000000E+00  0.10566000000E+00 0. -1.
     999900   -1    0    0    0    0 -0.00000000000E+00 -0.00000000000E+00 -0.74505805969E-08  0.93827000000E+00  0.93827000000E+00 0. -1.
     999902    2    1    2    0    0  0.18858421338E-01  0.15476697857E-01 -0.26910568075E-03  0.10195324458E+01  0.10192404856E+01 0.  0.
     999903    2    3    3    0    0  0.43873712170E-01 -0.45040850360E-01 -0.11189448247E+00  0.13006723393E+00  0.21060135664E-01 0.  0.
         14    1    1    2    0    0 -0.18858421338E-01 -0.15476697857E-01  0.26910568075E-03  0.24397554177E-01  0.00000000000E+00 0. -1.
     999901    1    3    3    0    0 -0.25015290832E-01  0.60517548217E-01  0.11162537679E+00  0.88946521189E+00  0.88000000000E+00 0.  1.
        -11    1    4    4    0    0  0.28302494084E-01 -0.41623178681E-01 -0.86444175772E-01  0.10003187902E+00  0.51100000000E-03 0.  1.
         11    1    4    4    0    0  0.15571218086E-01 -0.34176716794E-02 -0.25450306702E-01  0.30035354911E-01  0.51100000000E-03 0. -1.
</event>
<event>
 8    1  0.1114447E+005  0.1043930E+01  0.7957747E-01            NaN
         13   -1    0    0    0    0  0.00000000000E+00  0.00000000000E+00  0.74505805969E-08  0.10566000000E+00  0.10566000000E+00 0.  1.
     999900   -1    0    0    0    0 -0.00000000000E+00 -0.00000000000E+00 -0.74505805969E-08  0.93827000000E+00  0.93827000000E+00 0. -1.
     999902    2    1    2    0    0 -0.12348184152E-01 -0.15763981409E-01  0.11965585751E-01  0.10206028484E+01  0.10203362279E+01 0.  0.
     999903    2    3    3    0    0 -0.11796633572E+00  0.98820257418E-02  0.57310722099E-01  0.13275765181E+00  0.18065559855E-01 0.  0.
         14    1    1    2    0    0  0.12348184152E-01  0.15763981409E-01 -0.11965585751E-01  0.23327151650E-01  0.00000000000E+00 0. -1.
     999901    1    3    3    0    0  0.10561815156E+00 -0.25646007151E-01 -0.45345136348E-01  0.88784519654E+00  0.88000000000E+00 0. -1.
        -11    1    4    4    0    0 -0.11643532008E+00  0.12021875094E-01  0.55717137953E-01  0.12963938378E+00  0.51100000000E-03 0.  1.
         11    1    4    4    0    0 -0.15310156330E-02 -0.21398493527E-02  0.15935841460E-02  0.31182680371E-02  0.51100000000E-03 0. -1.
</event>
<event>
 8    1  0.1114447E+005  0.1043930E+01  0.7957747E-01            NaN
         13   -1    0    0    0    0  0.00000000000E+00  0.00000000000E+00  0.74505805969E-08  0.10566000000E+00  0.10566000000E+00 0.  1.
     999900   -1    0    0    0    0 -0.00000000000E+00 -0.00000000000E+00 -0.74505805969E-08  0.93827000000E+00  0.93827000000E+00 0.  1.
     999902    2    1    2    0    0 -0.12846064241E-01  0.43691425010E-02  0.19661453090E-01  0.10200410170E+01  0.10197612430E+01 0.  0.
     999903    2    3    3    0    0 -0.23122269961E-01  0.91794606939E-01 -0.85828783008E-01  0.12938002526E+00  0.20290926859E-01 0.  0.
         14    1    1    2    0    0  0.12846064241E-01 -0.43691425010E-02 -0.19661453090E-01  0.23888983032E-01  0.00000000000E+00 0. -1.
     999901    1    3    3    0    0  0.10276205720E-01 -0.87425464438E-01  0.10549023610E+00  0.89066099171E+00  0.88000000000E+00 0. -1.
        -11    1    4    4    0    0 -0.26812046893E-01  0.76411791904E-01 -0.72225200836E-01  0.10850985466E+00  0.51100000000E-03 0. -1.
         11    1    4    4    0    0  0.36897769322E-02  0.15382815035E-01 -0.13603582172E-01  0.20870170605E-01  0.51100000000E-03 0.  1.
</event>
<event>
 8    1  0.1114447E+005  0.1043930E+01  0.7957747E-01            NaN
         13   -1    0    0    0    0  0.00000000000E+00  0.00000000000E+00  0.74505805969E-08  0.10566000000E+00  0.10566000000E+00 0.  1.
     999900   -1    0    0    0    0 -0.00000000000E+00 -0.00000000000E+00 -0.74505805969E-08  0.93827000000E+00  0.93827000000E+00 0. -1.
     999902    2    1    2    0    0  0.27578631944E-02  0.45645230928E-03 -0.26785606331E-01  0.10169989238E+01  0.10166422813E+01 0.  0.
     999903    2    3    3    0    0  0.12035791665E+00 -0.30528858020E-01  0.20091272993E-01  0.12739940502E+00  0.20221520089E-01 0.  0.
         14    1    1    2    0    0 -0.27578631944E-02 -0.45645230928E-03  0.26785606331E-01  0.26931076187E-01  0.00000000000E+00 0.  1.
     999901    1    3    3    0    0 -0.11760005346E+00  0.30985310329E-01 -0.46876879324E-01  0.88959951880E+00  0.88000000000E+00 0. -1.
        -11    1    4    4    0    0  0.10429276985E+00 -0.20364093350E-01  0.21167486388E-01  0.10835128860E+00  0.51100000000E-03 0.  1.
         11    1    4    4    0    0  0.16065146806E-01 -0.10164764670E-01 -0.10762133954E-02  0.19048116415E-01  0.51100000000E-03 0. -1.
</event>
<event>
 8    1  0.1114447E+005  0.1043930E+01  0.7957747E-01            NaN
         13   -1    0    0    0    0  0.00000000000E+00  0.00000000000E+00  0.74505805969E-08  0.10566000000E+00  0.10566000000E+00 0. -1.
     999900   -1    0    0    0    0 -0.00000000000E+00 -0.00000000000E+00 -0.74505805969E-08  0.93827000000E+00  0.93827000000E+00 0. -1.
     999902    2    1    2    0    0  0.19867770246E-01 -0.69621648553E-02 -0.13092317007E-01  0.10191386951E+01  0.10188371170E+01 0.  0.
     999903    2    3    3    0    0  0.33133594560E-01  0.11654481146E+00  0.39047120539E-01  0.12888677781E+00  0.20164218457E-01 0.  0.
         14    1    1    2    0    0 -0.19867770246E-01  0.69621648553E-02  0.13092317007E-01  0.24791304899E-01  0.00000000000E+00 0. -1.
     999901    1    3    3    0    0 -0.13265824314E-01 -0.12350697631E+00 -0.52139437546E-01  0.89025191729E+00  0.88000000000E+00 0. -1.
        -11    1    4    4    0    0  0.85976575301E-02  0.47982710592E-01  0.24758137153E-01  0.54676198725E-01  0.51100000000E-03 0.  1.
         11    1    4    4    0    0  0.24535937029E-01  0.68562100865E-01  0.14288983386E-01  0.74210579085E-01  0.51100000000E-03 0. -1.
</event>
<event>
 8    1  0.1114447E+005  0.1043930E+01  0.7957747E-01            NaN
         13   -1    0    0    0    0  0.00000000000E+00  0.00000000000E+00  0.74505805969E-08  0.10566000000E+00  0.10566000000E+00 0. -1.
     999900   -1    0    0    0    0 -0.00000000000E+00 -0.00000000000E+00 -0.74505805969E-08  0.93827000000E+00  0.93827000000E+00 0.  1.
     999902    2    1    2    0    0 -0.99131918843E-02 -0.19334898999E-01 -0.82079502389E-02  0.10207032882E+01  0.10204389852E+01 0.  0.
     999903    2    3    3    0    0 -0.10610264221E+00 -0.34426393868E-01  0.67214091654E-01  0.13212653410E+00  0.22287656200E-01 0.  0.
         14    1    1    2    0    0  0.99131918843E-02  0.19334898999E-01  0.82079502389E-02  0.23226711772E-01  0.00000000000E+00 0.  1.
     999901    1    3    3    0    0  0.96189450322E-01  0.15091494869E-01 -0.75422041893E-01  0.88857675413E+00  0.88000000000E+00 0.  1.
        -11    1    4    4    0    0 -0.35318236238E-01 -0.21302080687E-01  0.30591902286E-01  0.51354474576E-01  0.51100000000E-03 0. -1.
         11    1    4    4    0    0 -0.70784405969E-01 -0.13124313181E-01  0.36622189368E-01  0.80772059525E-01  0.51100000000E-03 0.  1.
</event>
<event>
 8    1  0.1114447E+005  0.1043930E+01  0.7957747E-01            NaN
         13   -1    0    0    0    0  0.00000000000E+00  0.00000000000E+00  0.74505805969E-08  0.10566000000E+00  0.10566000000E+00 0. -1.
     999900   -1    0    0    0    0 -0.00000000000E+00 -0.00000000000E+00 -0.74505805969E-08  0.93827000000E+00  0.93827000000E+00 0.  1.
     999902    2    1    2    0    0 -0.60585686346E-02 -0.22130303304E-01 -0.44841662652E-02  0.10205512848E+01  0.10202834707E+01 0.  0.
     999903    2    3    3    0    0  0.47660498806E-01  0.15659115805E-01  0.11768805250E+00  0.12968663207E+00  0.21246500468E-01 0.  0.
         14    1    1    2    0    0  0.60585686346E-02  0.22130303304E-01  0.44841662652E-02  0.23378715220E-01  0.00000000000E+00 0. -1.
     999901    1    3    3    0    0 -0.53719067440E-01 -0.37789419110E-01 -0.12217221877E+00  0.89086465271E+00  0.88000000000E+00 0.  1.
        -11    1    4    4    0    0  0.47150865628E-02  0.88141778886E-02  0.13668539413E-01  0.16941424492E-01  0.51100000000E-03 0.  1.
         11    1    4    4    0    0  0.42945412243E-01  0.68449379169E-02  0.10401951309E+00  0.11274520758E+00  0.51100000000E-03 0. -1.
</event>
<event>
 8    1  0.1114447E+005  0.1043930E+01  0.7957747E-01            NaN
         13   -1    0    0    0    0  0.00000000000E+00  0.00000000000E+00  0.74505805969E-08  0.10566000000E+00  0.10566000000E+00 0. -1.
     999900   -1    0    0    0    0 -0.00000000000E+00 -0.00000000000E+00 -0.74505805969E-08  0.93827000000E+00  0.93827000000E+00 0.  1.
     999902    2    1    2    0    0 -0.15109435852E-01 -0.11865274281E-01  0.13510803049E-01  0.10204433743E+01  0.10201730533E+01 0.  0.
     999903    2    3    3    0    0  0.56289034414E-01 -0.11614605999E+00 -0.14040212701E-01  0.13098776427E+00  0.17386896495E-01 0.  0.
         14    1    1    2    0    0  0.15109435852E-01  0.11865274281E-01 -0.13510803049E-01  0.23486625653E-01  0.00000000000E+00 0. -1.
     999901    1    3    3    0    0 -0.71398470266E-01  0.10428078571E+00  0.27551015750E-01  0.88945561007E+00  0.88000000000E+00 0.  1.
        -11    1    4    4    0    0  0.27596726490E-01 -0.67516103481E-01 -0.59159443032E-03  0.72942543465E-01  0.51100000000E-03 0. -1.
         11    1    4    4    0    0  0.28692307924E-01 -0.48629956510E-01 -0.13448618270E-01  0.58045220807E-01  0.51100000000E-03 0.  1.
</event>
<event>
 8    1  0.1114447E+005  0.1043930E+01  0.7957747E-01            NaN
         13   -1    0    0    0    0  0.00000000000E+00  0.00000000000E+00  0.74505805969E-08  0.10566000000E+00  0.10566000000E+00 0.  1.
     999900   -1    0    0    0    0 -0.00000000000E+00 -0.00000000000E+00 -0.74505805969E-08  0.93827000000E+00  0.93827000000E+00 0. -1.
     999902    2    1    2    0    0 -0.78351491922E-02 -0.17698926287E-01  0.13182286680E-01  0.10205117542E+01  0.10202430231E+01 0.  0.
     999903    2    3    3    0    0  0.63620812471E-01  0.58840303859E-01  0.95513982938E-01  0.13048775653E+00  0.19858109920E-01 0.  0.
         14    1    1    2    0    0  0.78351491922E-02  0.17698926287E-01 -0.13182286680E-01  0.23418245807E-01  0.00000000000E+00 0. -1.
     999901    1    3    3    0    0 -0.71455961663E-01 -0.76539230146E-01 -0.82331696258E-01  0.89002399766E+00  0.88000000000E+00 0. -1.
        -11    1    4    4    0    0  0.34993144245E-01  0.36468848781E-01  0.68882921934E-01  0.85437785147E-01  0.51100000000E-03 0. -1.
         11    1    4    4    0    0  0.28627668226E-01  0.22371455079E-01  0.26631061004E-01  0.45049971382E-01  0.51100000000E-03 0.  1.
</event>
<event>
 8    1  0.1114447E+005  0.1043930E+01  0.7957747E-01            NaN
         13   -1    0    0    0    0  0.00000000000E+00  0.00000000000E+00  0.74505805969E-08  0.10566000000E+00  0.10566000000E+00 0. -1.
     999900   -1    0    0    0    0 -0.00000000000E+00 -0.00000000000E+00 -0.74505805969E-08  0.93827000000E+00  0.93827000000E+00 0.  1.
     999902    2    1    2    0    0  0.14621264235E-01  0.97478684227E-02 -0.18832521857E-01  0.10181721626E+01  0.10178462981E+01 0.  0.
     999903    2    3    3    0    0  0.99732934970E-01 -0.22514503601E-01 -0.79958561815E-01  0.13136821028E+00  0.20265090024E-01 0.  0.
         14    1    1    2    0    0 -0.14621264235E-01 -0.97478684227E-02  0.18832521857E-01  0.25757837373E-01  0.00000000000E+00 0. -1.
     999901    1    3    3    0    0 -0.85111670735E-01  0.32262372024E-01  0.61126039958E-01  0.88680395235E+00  0.88000000000E+00 0. -1.
        -11    1    4    4    0    0  0.25557332639E-01 -0.19448064255E-02 -0.30628252010E-01  0.39941337808E-01  0.51100000000E-03 0.  1.
         11    1    4    4    0    0  0.74175602331E-01 -0.20569697176E-01 -0.49330309804E-01  0.91426872469E-01  0.51100000000E-03 0. -1.
</event>
<event>
 8    1  0.1114447E+005  0.1043930E+01  0.7957747E-01            NaN
         13   -1    0    0    0    0  0.00000000000E+00  0.00000000000E+00  0.74505805969E-08  0.10566000000E+00  0.10566000000E+00 0.  1.
     999900   -1    0    0    0    0 -0.00000000000E+00 -0.00000000000E+00 -0.74505805969E-08  0.93827000000E+00  0.93827000000E+00 0.  1.
     999902    2    1    2    0    0  0.20476058557E-01  0.17942257755E-01  0.30263980238E-02  0.10165374340E+01  0.10161682942E+01 0.  0.
     999903    2    3    3    0    0 -0.12110554429E+00  0.44935387880E-02 -0.21861996956E-01  0.12477196566E+00  0.20083619110E-01 0.  0.
         14    1    1    2    0    0 -0.20476058557E-01 -0.17942257755E-01 -0.30263980238E-02  0.27392566005E-01  0.00000000000E+00 0. -1.
     999901    1    3    3    0    0  0.14158160284E+00  0.13448718966E-01  0.24888394980E-01  0.89176546833E+00  0.88000000000E+00 0. -1.
        -11    1    4    4    0    0 -0.54111924396E-01  0.11892532892E-01 -0.84218276714E-02  0.56042135958E-01  0.51100000000E-03 0.  1.
         11    1    4    4    0    0 -0.66993619890E-01 -0.73989941036E-02 -0.13440169285E-01  0.68729829704E-01  0.51100000000E-03 0. -1.
</event>
<event>
 8    1  0.1114447E+005  0.1043930E+01  0.7957747E-01            NaN
         13   -1    0    0    0    0  0.00000000000E+00  0.00000000000E+00  0.74505805969E-08  0.10566000000E+00  0.10566000000E+00 0.  1.
     999900   -1    0    0    0    0 -0.00000000000E+00 -0.00000000000E+00 -0.74505805969E-08  0.93827000000E+00  0.93827000000E+00 0. -1.
     999902    2    1    2    0    0  0.20854970780E-01 -0.99679902464E-02 -0.42868461114E-02  0.10204211148E+01  0.10201502751E+01 0.  0.
     999903    2    3    3    0    0  0.45633239929E-01 -0.12256215796E+00 -0.12579837668E-01  0.13286256292E+00  0.19756850968E-01 0.  0.
         14    1    1    2    0    0 -0.20854970780E-01  0.99679902464E-02  0.42868461114E-02  0.23508885243E-01  0.00000000000E+00 0.  1.
     999901    1    3    3    0    0 -0.24778269149E-01  0.11259416771E+00  0.82929915567E-02  0.88755855183E+00  0.88000000000E+00 0.  1.
        -11    1    4    4    0    0  0.20092796572E-01 -0.79043390701E-01 -0.38423911783E-02  0.81649269308E-01  0.51100000000E-03 0. -1.
         11    1    4    4    0    0  0.25540443356E-01 -0.43518767260E-01 -0.87374464898E-02  0.51213293615E-01  0.51100000000E-03 0.  1.
</event>
<event>
 8    1  0.1114447E+005  0.1043930E+01  0.7957747E-01            NaN
         13   -1    0    0    0    0  0.00000000000E+00  0.00000000000E+00  0.74505805969E-08  0.10566000000E+00  0.10566000000E+00 0.  1.
     999900   -1    0    0    0    0 -0.00000000000E+00 -0.00000000000E+00 -0.74505805969E-08  0.93827000000E+00  0.93827000000E+00 0.  1.
     999902    2    1    2    0    0 -0.21986122034E-01 -0.14500690482E-01 -0.12592732848E-01  0.10147369099E+01  0.10143168932E+01 0.  0.
     999903    2    3    3    0    0  0.32361115066E-02 -0.47168572466E-01 -0.11713904815E+00  0.12758794634E+00  0.17938249723E-01 0.  0.
         14    1    1    2    0    0  0.21986122034E-01  0.14500690482E-01  0.12592732848E-01  0.29193090058E-01  0.00000000000E+00 0.  1.
     999901    1    3    3    0    0 -0.25222233540E-01  0.32667881985E-01  0.10454631530E+00  0.88714896360E+00  0.88000000000E+00 0. -1.
        -11    1    4    4    0    0 -0.65747854750E-02 -0.15970806247E-01 -0.50089028730E-01  0.52985529877E-01  0.51100000000E-03 0. -1.
         11    1    4    4    0    0  0.98108969816E-02 -0.31197766219E-01 -0.67050019422E-01  0.74602416463E-01  0.51100000000E-03 0.  1.
</event>
<event>
 8    1  0.1114447E+005  0.1043930E+01  0.7957747E-01            NaN
         13   -1    0    0    0    0  0.00000000000E+00  0.00000000000E+00  0.74505805969E-08  0.10566000000E+00  0.10566000000E+00 0.  1.
     999900   -1    0    0    0    0 -0.00000000000E+00 -0.00000000000E+00 -0.74505805969E-08  0.93827000000E+00  0.93827000000E+00 0. -1.
     999902    2    1    2    0    0  0.22967289758E-01  0.30591924617E-02 -0.64713583915E-02  0.10198731187E+01  0.10195893510E+01 0.  0.
     999903    2    3    3    0    0 -0.11426116066E+00 -0.53519668854E-01  0.57398389379E-03  0.12741446310E+00  0.17724225209E-01 0.  0.
         14    1    1    2    0    0 -0.22967289758E-01 -0.30591924617E-02  0.64713583915E-02  0.24056881277E-01  0.00000000000E+00 0.  1.
     999901    1    3    3    0    0  0.13722845042E+00  0.56578861316E-01 -0.70453422853E-02  0.89245865563E+00  0.88000000000E+00 0. -1.
        -11    1    4    4    0    0 -0.17384176206E-01 -0.98856258264E-02  0.63995110099E-02  0.21003572137E-01  0.51100000000E-03 0.  1.
         11    1    4    4    0    0 -0.96876984454E-01 -0.43634043027E-01 -0.58255271161E-02  0.10641089096E+00  0.51100000000E-03 0. -1.
</event>
<event>
 8    1  0.1114447E+005  0.1043930E+01  0.7957747E-01            NaN
         13   -1    0    0    0    0  0.00000000000E+00  0.00000000000E+00  0.74505805969E-08  0.10566000000E+00  0.10566000000E+00 0. -1.
     999900   -1    0    0    0    0 -0.00000000000E+00 -0.00000000000E+00 -0.74505805969E-08  0.93827000000E+00  0.93827000000E+00 0.  1.
     999902    2    1    2    0    0  0.64990553444E-03 -0.22270215062E-01  0.97650966603E-02  0.10196042530E+01  0.10193140295E+01 0.  0.
     999903    2    3    3    0    0 -0.11238355236E+00 -0.19962912185E-01 -0.57651863926E-01  0.12981386595E+00  0.22345506779E-01 0.  0.
         14    1    1    2    0    0 -0.64990553444E-03  0.22270215062E-01 -0.97650966603E-02  0.24325747036E-01  0.00000000000E+00 0. -1.
     999901    1    3    3    0    0  0.11303345790E+00 -0.23073028765E-02  0.67416960586E-01  0.88979038702E+00  0.88000000000E+00 0. -1.
        -11    1    4    4    0    0 -0.87667980393E-01 -0.24005348146E-01 -0.40866438648E-01  0.99660716707E-01  0.51100000000E-03 0. -1.
         11    1    4    4    0    0 -0.24715571971E-01  0.40424359608E-02 -0.16785425278E-01  0.30153149240E-01  0.51100000000E-03 0.  1.
</event>
<event>
 8    1  0.1114447E+005  0.1043930E+01  0.7957747E-01            NaN
         13   -1    0    0    0    0  0.00000000000E+00  0.00000000000E+00  0.74505805969E-08  0.10566000000E+00  0.10566000000E+00 0.  1.
     999900   -1    0    0    0    0 -0.00000000000E+00 -0.00000000000E+00 -0.74505805969E-08  0.93827000000E+00  0.93827000000E+00 0.  1.
     999902    2    1    2    0    0 -0.67827987839E-02  0.80926981947E-02  0.23164699585E-01  0.10184721637E+01  0.10181539406E+01 0.  0.
     999903    2    3    3    0    0  0.70586113789E-01 -0.10452870654E+00 -0.19173796125E-02  0.12757450393E+00  0.19050662960E-01 0.  0.
         14    1    1    2    0    0  0.67827987839E-02 -0.80926981947E-02 -0.23164699585E-01  0.25457836323E-01  0.00000000000E+00 0. -1.
     999901    1    3    3    0    0 -0.77368912573E-01  0.11262140473E+00  0.25082079197E-01  0.89089765974E+00  0.88000000000E+00 0. -1.
        -11    1    4    4    0    0  0.24954470903E-01 -0.37511563002E-01 -0.98099766514E-02  0.46112251515E-01  0.51100000000E-03 0.  1.
         11    1    4    4    0    0  0.45631642886E-01 -0.67017143537E-01  0.78925970389E-02  0.81462252419E-01  0.51100000000E-03 0. -1.
</event>
<event>
 8    1  0.1114447E+005  0.1043930E+01  0.7957747E-01            NaN
         13   -1    0    0    0    0  0.00000000000E+00  0.00000000000E+00  0.74505805969E-08  0.10566000000E+00  0.10566000000E+00 0.  1.
     999900   -1    0    0    0    0 -0.00000000000E+00 -0.00000000000E+00 -0.74505805969E-08  0.93827000000E+00  0.93827000000E+00 0.  1.
     999902    2    1    2    0    0  0.81338473540E-02  0.18336232611E-01  0.12680932113E-01  0.10201985243E+01  0.10199224706E+01 0.  0.
     999903    2    3    3    0    0 -0.19260846118E-03 -0.10715599880E+00 -0.67101141932E-01  0.12768364525E+00  0.17835493742E-01 0.  0.
         14    1    1    2    0    0 -0.81338473540E-02 -0.18336232611E-01 -0.12680932113E-01  0.23731475690E-01  0.00000000000E+00 0. -1.
     999901    1    3    3    0    0  0.83264558152E-02  0.12549223142E+00  0.79782074045E-01  0.89251487906E+00  0.88000000000E+00 0. -1.
        -11    1    4    4    0    0 -0.48796309080E-02 -0.21377360120E-01 -0.77277789968E-02  0.23254720225E-01  0.51100000000E-03 0. -1.
         11    1    4    4    0    0  0.46870224469E-02 -0.85778638684E-01 -0.59373362935E-01  0.10442892502E+00  0.51100000000E-03 0.  1.
</event>
<event>
 7    1  0.1184929E+005  0.1043930E+01  0.7957747E-01            NaN
         13   -1    0    0    0    0  0.00000000000E+00  0.00000000000E+00  0.74505805969E-08  0.10566000000E+00  0.10566000000E+00 0. -1.
     999900   -1    0    0    0    0 -0.00000000000E+00 -0.00000000000E+00 -0.74505805969E-08  0.93827000000E+00  0.93827000000E+00 0. -1.
     999903    2    1    2    0    0  0.91957267874E-01  0.39242765106E-01 -0.57453229704E-01  0.11648650643E+00  0.16495419061E-01 0.  0.
         14    1    1    2    0    0 -0.11282774352E-01 -0.26211138116E-02  0.41250964178E-01  0.42846391684E-01  0.00000000000E+00 0. -1.
     999901    1    1    2    0    0 -0.80674493522E-01 -0.36621651295E-01  0.16202265525E-01  0.88459710188E+00  0.88000000000E+00 0.  1.
        -11    1    3    3    0    0  0.32897877467E-01  0.13655280832E-01 -0.11622682097E-01  0.37471120834E-01  0.51100000000E-03 0.  1.
         11    1    3    3    0    0  0.59059390407E-01  0.25587484274E-01 -0.45830547607E-01  0.79015385600E-01  0.51100000000E-03 0. -1.
</event>
<event>
 8    1  0.1114447E+005  0.1043930E+01  0.7957747E-01            NaN
         13   -1    0    0    0    0  0.00000000000E+00  0.00000000000E+00  0.74505805969E-08  0.10566000000E+00  0.10566000000E+00 0. -1.
     999900   -1    0    0    0    0 -0.00000000000E+00 -0.00000000000E+00 -0.74505805969E-08  0.93827000000E+00  0.93827000000E+00 0. -1.
     999902    2    1    2    0    0  0.23286008759E-01 -0.20471760824E-02 -0.32508871367E-02  0.10203292076E+01  0.10200562213E+01 0.  0.
     999903    2    3    3    0    0 -0.11364756352E+00  0.73997594908E-02 -0.55240075716E-01  0.12817287404E+00  0.20156749279E-01 0.  0.
         14    1    1    2    0    0 -0.23286008759E-01  0.20471760824E-02  0.32508871367E-02  0.23600792381E-01  0.00000000000E+00 0.  1.
     999901    1    3    3    0    0  0.13693357228E+00 -0.94469355732E-02  0.51989188579E-01  0.89215633357E+00  0.88000000000E+00 0. -1.
        -11    1    4    4    0    0 -0.27034074993E-01 -0.37123984602E-04 -0.22850925529E-01  0.35401532558E-01  0.51100000000E-03 0. -1.
         11    1    4    4    0    0 -0.86613488526E-01  0.74368834754E-02 -0.32389150187E-01  0.92771341487E-01  0.51100000000E-03 0.  1.
</event>
<event>
 8    1  0.1114447E+005  0.1043930E+01  0.7957747E-01            NaN
         13   -1    0    0    0    0  0.00000000000E+00  0.00000000000E+00  0.74505805969E-08  0.10566000000E+00  0.10566000000E+00 0.  1.
     999900   -1    0    0    0    0 -0.00000000000E+00 -0.00000000000E+00 -0.74505805969E-08  0.93827000000E+00  0.93827000000E+00 0.  1.
     999902    2    1    2    0    0 -0.20009403312E-01 -0.95945823879E-02  0.14738323099E-02  0.10216902965E+01  0.10214482157E+01 0.  0.
     999903    2    3    3    0    0  0.71117688810E-01  0.55824032350E-01  0.91822571387E-01  0.12998034545E+00  0.17013445776E-01 0.  0.
         14    1    1    2    0    0  0.20009403312E-01  0.95945823879E-02 -0.14738323099E-02  0.22239703545E-01  0.00000000000E+00 0. -1.
     999901    1    3    3    0    0 -0.91127092121E-01 -0.65418614738E-01 -0.90348739077E-01  0.89170995101E+00  0.88000000000E+00 0. -1.
        -11    1    4    4    0    0  0.53913335312E-01  0.38945762500E-01  0.56803587577E-01  0.87466158163E-01  0.51100000000E-03 0. -1.
         11    1    4    4    0    0  0.17204353497E-01  0.16878269849E-01  0.35018983810E-01  0.42514187284E-01  0.51100000000E-03 0.  1.
</event>
<event>
 8    1  0.1114447E+005  0.1043930E+01  0.7957747E-01            NaN
         13   -1    0    0    0    0  0.00000000000E+00  0.00000000000E+00  0.74505805969E-08  0.10566000000E+00  0.10566000000E+00 0. -1.
     999900   -1    0    0    0    0 -0.00000000000E+00 -0.00000000000E+00 -0.74505805969E-08  0.93827000000E+00  0.93827000000E+00 0. -1.
     999902    2    1    2    0    0  0.15616873747E-01  0.97880618336E-02  0.16659302636E-01  0.10190859813E+01  0.10187831035E+01 0.  0.
     999903    2    3    3    0    0 -0.30332488165E-01 -0.10909696911E+00  0.58249927434E-01  0.12893162700E+00  0.20201531812E-01 0.  0.
         14    1    1    2    0    0 -0.15616873747E-01 -0.97880618336E-02 -0.16659302636E-01  0.24844018685E-01  0.00000000000E+00 0.  1.
     999901    1    3    3    0    0  0.45949361912E-01  0.11888503094E+00 -0.41590624799E-01  0.89015435432E+00  0.88000000000E+00 0. -1.
        -11    1    4    4    0    0 -0.23072689026E-01 -0.97359477775E-01  0.56773664797E-01  0.11504228365E+00  0.51100000000E-03 0.  1.
         11    1    4    4    0    0 -0.72597991391E-02 -0.11737491331E-01  0.14762626376E-02  0.13889343349E-01  0.51100000000E-03 0. -1.
</event>
<event>
 8    1  0.1114447E+005  0.1043930E+01  0.7957747E-01            NaN
         13   -1    0    0    0    0  0.00000000000E+00  0.00000000000E+00  0.74505805969E-08  0.10566000000E+00  0.10566000000E+00 0.  1.
     999900   -1    0    0    0    0 -0.00000000000E+00 -0.00000000000E+00 -0.74505805969E-08  0.93827000000E+00  0.93827000000E+00 0. -1.
     999902    2    1    2    0    0  0.18210012882E-02  0.25681338924E-02 -0.23733681103E-01  0.10199884258E+01  0.10197074040E+01 0.  0.
     999903    2    3    3    0    0 -0.53719897704E-01  0.85272084117E-01  0.77363787365E-01  0.12861564575E+00  0.19991823284E-01 0.  0.
         14    1    1    2    0    0 -0.18210012882E-02 -0.25681338924E-02  0.23733681103E-01  0.23941574219E-01  0.00000000000E+00 0.  1.
     999901    1    3    3    0    0  0.55540898993E-01 -0.82703950224E-01 -0.10109746847E+00  0.89137278003E+00  0.88000000000E+00 0. -1.
        -11    1    4    4    0    0 -0.16196945518E-01  0.15584701832E-01  0.97002964783E-02  0.24486340030E-01  0.51100000000E-03 0. -1.
         11    1    4    4    0    0 -0.37522952186E-01  0.69687382285E-01  0.67663490886E-01  0.10412930572E+00  0.51100000000E-03 0.  1.
</event>
<event>
 8    1  0.1114447E+005  0.1043930E+01  0.7957747E-01            NaN
         13   -1    0    0    0    0  0.00000000000E+00  0.00000000000E+00  0.74505805969E-08  0.10566000000E+00  0.10566000000E+00 0. -1.
     999900   -1    0    0    0    0 -0.00000000000E+00 -0.00000000000E+00 -0.74505805969E-08  0.93827000000E+00  0.93827000000E+00 0.  1.
     999902    2    1    2    0    0  0.16416321211E-02  0.58718296762E-02 -0.23185403419E-01  0.10199563421E+01  0.10196745577E+01 0.  0.
     999903    2    3    3    0    0  0.12347434283E+00  0.13873712769E-01  0.31896060124E-01  0.12982084281E+00  0.19942400366E-01 0.  0.
         14    1    1    2    0    0 -0.16416321211E-02 -0.58718296762E-02  0.23185403419E-01  0.23973657866E-01  0.00000000000E+00 0. -1.
     999901    1    3    3    0    0 -0.12183271071E+00 -0.80018830932E-02 -0.55081463543E-01  0.89013549932E+00  0.88000000000E+00 0.  1.
        -11    1    4    4    0    0  0.56332657915E-01  0.42993521749E-03  0.22665943060E-01  0.60725277175E-01  0.51100000000E-03 0. -1.
         11    1    4    4    0    0  0.67141684917E-01  0.13443777552E-01  0.92301170634E-02  0.69095565635E-01  0.51100000000E-03 0.  1.
</event>
<event>
 8    1  0.1114447E+005  0.1043930E+01  0.7957747E-01            NaN
         13   -1    0    0    0    0  0.00000000000E+00  0.00000000000E+00  0.74505805969E-08  0.10566000000E+00  0.10566000000E+00 0. -1.
     999900   -1    0    0    0    0 -0.00000000000E+00 -0.00000000000E+00 -0.74505805969E-08  0.93827000000E+00  0.93827000000E+00 0.  1.
     999902    2    1    2    0    0  0.59747989573E-03 -0.17446561580E-01  0.15528326212E-01  0.10205661731E+01  0.10202987039E+01 0.  0.
     999903    2    3    3    0    0  0.97707410111E-01 -0.56377711899E-01  0.67276135189E-01  0.13285912189E+00  0.20007086572E-01 0.  0.
         14    1    1    2    0    0 -0.59747989573E-03  0.17446561580E-01 -0.15528326212E-01  0.23363826916E-01  0.00000000000E+00 0.  1.
     999901    1    3    3    0    0 -0.97109930215E-01  0.38931150319E-01 -0.51747808976E-01  0.88770705120E+00  0.88000000000E+00 0.  1.
        -11    1    4    4    0    0  0.60539798695E-01 -0.39473547638E-01  0.52911589986E-01  0.89571902207E-01  0.51100000000E-03 0. -1.
         11    1    4    4    0    0  0.37167611416E-01 -0.16904164261E-01  0.14364545203E-01  0.43287219679E-01  0.51100000000E-03 0.  1.
</event>
<event>
 8    1  0.1114447E+005  0.1043930E+01  0.7957747E-01            NaN
         13   -1    0    0    0    0  0.00000000000E+00  0.00000000000E+00  0.74505805969E-08  0.10566000000E+00  0.10566000000E+00 0.  1.
     999900   -1    0    0    0    0 -0.00000000000E+00 -0.00000000000E+00 -0.74505805969E-08  0.93827000000E+00  0.93827000000E+00 0.  1.
     999902    2    1    2    0    0 -0.20240254322E-02 -0.18958276678E-01 -0.11440168040E-01  0.10216951090E+01  0.10214531342E+01 0.  0.
     999903    2    3    3    0    0  0.29565034172E-01 -0.35981262956E-01  0.12081040521E+00  0.13108977278E+00  0.20509314740E-01 0.  0.
         14    1    1    2    0    0  0.20240254322E-02  0.18958276678E-01  0.11440168040E-01  0.22234891013E-01  0.00000000000E+00 0.  1.
     999901    1    3    3    0    0 -0.31589059605E-01  0.17022986278E-01 -0.13225057325E+00  0.89060533620E+00  0.88000000000E+00 0.  1.
        -11    1    4    4    0    0  0.87911157090E-02 -0.20082106558E-01  0.76994122699E-01  0.80055797857E-01  0.51100000000E-03 0. -1.
         11    1    4    4    0    0  0.20773918463E-01 -0.15899156398E-01  0.43816282514E-01  0.51033974927E-01  0.51100000000E-03 0.  1.
</event>
<event>
 8    1  0.1287005E+005  0.1043930E+01  0.7957747E-01            NaN
         13   -1    0    0    0    0  0.00000000000E+00  0.00000000000E+00  0.74505805969E-08  0.10566000000E+00  0.10566000000E+00 0. -1.
     999900   -1    0    0    0    0 -0.00000000000E+00 -0.00000000000E+00 -0.74505805969E-08  0.93827000000E+00  0.93827000000E+00 0.  1.
     999902    2    1    2    0    0 -0.24924824094E-02  0.22102684663E-01 -0.87237144325E-02  0.10200376512E+01  0.10197577975E+01 0.  0.
     999903    2    3    3    0    0 -0.20935398889E-01 -0.12435615827E+00  0.11284052620E-01  0.12751838273E+00  0.15194178595E-01 0.  0.
         14    1    1    2    0    0  0.24924824094E-02 -0.22102684663E-01  0.87237144325E-02  0.23892348804E-01  0.00000000000E+00 0. -1.
     999901    1    3    3    0    0  0.18442916480E-01  0.14645884294E+00 -0.20007767052E-01  0.89251926847E+00  0.88000000000E+00 0.  1.
        -11    1    4    4    0    0 -0.13398974524E-01 -0.66026007843E-01  0.13267603868E-01  0.68667726505E-01  0.51100000000E-03 0.  1.
         11    1    4    4    0    0 -0.75364243650E-02 -0.58330150430E-01 -0.19835512486E-02  0.58850656224E-01  0.51100000000E-03 0. -1.
</event>
<event>
 8    1  0.1114447E+005  0.1043930E+01  0.7957747E-01            NaN
         13   -1    0    0    0    0  0.00000000000E+00  0.00000000000E+00  0.74505805969E-08  0.10566000000E+00  0.10566000000E+00 0.  1.
     999900   -1    0    0    0    0 -0.00000000000E+00 -0.00000000000E+00 -0.74505805969E-08  0.93827000000E+00  0.93827000000E+00 0.  1.
     999902    2    1    2    0    0 -0.20262101121E-01  0.95156955822E-02  0.69789191024E-02  0.10204820467E+01  0.10202126254E+01 0.  0.
     999903    2    3    3    0    0  0.45480689621E-01  0.69557919653E-01  0.99293403506E-01  0.13118505057E+00  0.21060394099E-01 0.  0.
         14    1    1    2    0    0  0.20262101121E-01 -0.95156955822E-02 -0.69789191024E-02  0.23447953346E-01  0.00000000000E+00 0. -1.
     999901    1    3    3    0    0 -0.65742790742E-01 -0.60042224071E-01 -0.92314484404E-01  0.88929699608E+00  0.88000000000E+00 0.  1.
        -11    1    4    4    0    0  0.23491986118E-01  0.27803077092E-01  0.29112442831E-01  0.46612015148E-01  0.51100000000E-03 0. -1.
         11    1    4    4    0    0  0.21988703502E-01  0.41754842561E-01  0.70180960674E-01  0.84573035426E-01  0.51100000000E-03 0.  1.
</event>
<event>
 8    1  0.1114447E+005  0.1043930E+01  0.7957747E-01            NaN
         13   -1    0    0    0    0  0.00000000000E+00  0.00000000000E+00  0.74505805969E-08  0.10566000000E+00  0.10566000000E+00 0. -1.
     999900   -1    0    0    0    0 -0.00000000000E+00 -0.00000000000E+00 -0.74505805969E-08  0.93827000000E+00  0.93827000000E+00 0.  1.
     999902    2    1    2    0    0 -0.88742868159E-02  0.20560278736E-01 -0.10040237772E-02  0.10215137984E+01  0.10212678171E+01 0.  0.
     999903    2    3    3    0    0  0.51458449878E-01 -0.11528720062E-01  0.11820385775E+00  0.13085097674E+00  0.19207880551E-01 0.  0.
         14    1    1    2    0    0  0.88742868159E-02 -0.20560278736E-01  0.10040237772E-02  0.22416201550E-01  0.00000000000E+00 0. -1.
     999901    1    3    3    0    0 -0.60332736694E-01  0.32088998798E-01 -0.11920788153E+00  0.89066282171E+00  0.88000000000E+00 0.  1.
        -11    1    4    4    0    0  0.31671813287E-01  0.14357726714E-02  0.56886661250E-01  0.65126941808E-01  0.51100000000E-03 0.  1.
         11    1    4    4    0    0  0.19786636591E-01 -0.12964492733E-01  0.61317196504E-01  0.65724034930E-01  0.51100000000E-03 0. -1.
</event>
<event>
 8    1  0.1114447E+005  0.1043930E+01  0.7957747E-01            NaN
         13   -1    0    0    0    0  0.00000000000E+00  0.00000000000E+00  0.74505805969E-08  0.10566000000E+00  0.10566000000E+00 0.  1.
     999900   -1    0    0    0    0 -0.00000000000E+00 -0.00000000000E+00 -0.74505805969E-08  0.93827000000E+00  0.93827000000E+00 0.  1.
     999902    2    1    2    0    0  0.46437770392E-02 -0.12192643096E-01 -0.13451102399E-02  0.10308138065E+01  0.10307303571E+01 0.  0.
     999903    2    3    3    0    0  0.32746734919E-01  0.29555070361E-01 -0.13110671640E+00  0.13987569289E+00  0.20745783740E-01 0.  0.
         14    1    1    2    0    0 -0.46437770392E-02  0.12192643096E-01  0.13451102399E-02  0.13116193519E-01  0.00000000000E+00 0.  1.
     999901    1    3    3    0    0 -0.28102957880E-01 -0.41747713457E-01  0.12976160616E+00  0.89093811359E+00  0.88000000000E+00 0. -1.
        -11    1    4    4    0    0  0.14556692977E-01  0.26462270273E-01 -0.77380698141E-01  0.83067337891E-01  0.51100000000E-03 0.  1.
         11    1    4    4    0    0  0.18190041942E-01  0.30928000883E-02 -0.53726018261E-01  0.56808354997E-01  0.51100000000E-03 0. -1.
</event>
<event>
 8    1  0.1114447E+005  0.1043930E+01  0.7957747E-01            NaN
         13   -1    0    0    0    0  0.00000000000E+00  0.00000000000E+00  0.74505805969E-08  0.10566000000E+00  0.10566000000E+00 0. -1.
     999900   -1    0    0    0    0 -0.00000000000E+00 -0.00000000000E+00 -0.74505805969E-08  0.93827000000E+00  0.93827000000E+00 0. -1.
     999902    2    1    2    0    0  0.33726110694E-02 -0.33732166405E-02 -0.23915305207E-01  0.10195436325E+01  0.10192519432E+01 0.  0.
     999903    2    3    3    0    0  0.70967459733E-01  0.91161706646E-01  0.53295269648E-01  0.12855127107E+00  0.18390389529E-01 0.  0.
         14    1    1    2    0    0 -0.33726110694E-02  0.33732166405E-02  0.23915305207E-01  0.24386367484E-01  0.00000000000E+00 0. -1.
     999901    1    3    3    0    0 -0.67594848664E-01 -0.94534923286E-01 -0.77210574855E-01  0.89099236145E+00  0.88000000000E+00 0. -1.
        -11    1    4    4    0    0  0.55688239889E-01  0.67070956697E-01  0.31677884443E-01  0.92754745312E-01  0.51100000000E-03 0.  1.
         11    1    4    4    0    0  0.15279219845E-01  0.24090749949E-01  0.21617385205E-01  0.35796525757E-01  0.51100000000E-03 0. -1.
</event>
<event>
 8    1  0.1114447E+005  0.1043930E+01  0.7957747E-01            NaN
         13   -1    0    0    0    0  0.00000000000E+00  0.00000000000E+00  0.74505805969E-08  0.10566000000E+00  0.10566000000E+00 0.  1.
     999900   -1    0    0    0    0 -0.00000000000E+00 -0.00000000000E+00 -0.74505805969E-08  0.93827000000E+00  0.93827000000E+00 0.  1.
     999902    2    1    2    0    0  0.11022269807E-01 -0.19748227984E-01  0.98803394731E-02  0.10192499666E+01  0.10189511227E+01 0.  0.
     999903    2    3    3    0    0 -0.51980190412E-04  0.12074375402E+00  0.36052799018E-01  0.12765272925E+00  0.20404855568E-01 0.  0.
         14    1    1    2    0    0 -0.11022269807E-01  0.19748227984E-01 -0.98803394731E-02  0.24680033393E-01  0.00000000000E+00 0. -1.
     999901    1    3    3    0    0  0.11074249997E-01 -0.14049198201E+00 -0.26172459545E-01  0.89159723736E+00  0.88000000000E+00 0.  1.
        -11    1    4    4    0    0  0.16885728753E-02  0.77713305985E-01  0.13033765151E-01  0.78818458247E-01  0.51100000000E-03 0. -1.
         11    1    4    4    0    0 -0.17405530657E-02  0.43030448038E-01  0.23019033867E-01  0.48834271004E-01  0.51100000000E-03 0.  1.
</event>
<event>
 8    1  0.1114447E+005  0.1043930E+01  0.7957747E-01            NaN
         13   -1    0    0    0    0  0.00000000000E+00  0.00000000000E+00  0.74505805969E-08  0.10566000000E+00  0.10566000000E+00 0. -1.
     999900   -1    0    0    0    0 -0.00000000000E+00 -0.00000000000E+00 -0.74505805969E-08  0.93827000000E+00  0.93827000000E+00 0.  1.
     999902    2    1    2    0    0  0.16003562332E-02  0.19798777640E-01  0.12863693249E-01  0.10202651032E+01  0.10199906144E+01 0.  0.
     999903    2    3    3    0    0  0.20348726276E-01  0.35005021895E-01 -0.12158635458E+00  0.12972619524E+00  0.20154947080E-01 0.  0.
         14    1    1    2    0    0 -0.16003562332E-02 -0.19798777640E-01 -0.12863693249E-01  0.23664896791E-01  0.00000000000E+00 0.  1.
     999901    1    3    3    0    0 -0.18748370043E-01 -0.15206244255E-01  0.13445004783E+00  0.89053890797E+00  0.88000000000E+00 0. -1.
        -11    1    4    4    0    0 -0.14822110578E-02  0.10946091018E-01 -0.48475232843E-01  0.49720450303E-01  0.51100000000E-03 0. -1.
         11    1    4    4    0    0  0.21830937334E-01  0.24058930877E-01 -0.73111121740E-01  0.80005744937E-01  0.51100000000E-03 0.  1.
</event>
<event>
 8    1  0.1114447E+005  0.1043930E+01  0.7957747E-01            NaN
         13   -1    0    0    0    0  0.00000000000E+00  0.00000000000E+00  0.74505805969E-08  0.10566000000E+00  0.10566000000E+00 0. -1.
     999900   -1    0    0    0    0 -0.00000000000E+00 -0.00000000000E+00 -0.74505805969E-08  0.93827000000E+00  0.93827000000E+00 0.  1.
     999902    2    1    2    0    0  0.54420345893E-02  0.88902430332E-02 -0.21817991557E-01  0.10197499066E+01  0.10194631897E+01 0.  0.
     999903    2    3    3    0    0 -0.73751191566E-01 -0.10133018339E+00  0.19094204141E-01  0.12840602389E+00  0.20407695024E-01 0.  0.
         14    1    1    2    0    0 -0.54420345893E-02 -0.88902430332E-02  0.21817991557E-01  0.24180093408E-01  0.00000000000E+00 0. -1.
     999901    1    3    3    0    0  0.79193226156E-01  0.11022042643E+00 -0.40912195698E-01  0.89134388270E+00  0.88000000000E+00 0.  1.
        -11    1    4    4    0    0 -0.34971458415E-01 -0.32482498494E-01  0.34860684947E-02  0.47859475620E-01  0.51100000000E-03 0. -1.
         11    1    4    4    0    0 -0.38779733151E-01 -0.68847684898E-01  0.15608135646E-01  0.80546548272E-01  0.51100000000E-03 0.  1.
</event>
<event>
 8    1  0.1114447E+005  0.1043930E+01  0.7957747E-01            NaN
         13   -1    0    0    0    0  0.00000000000E+00  0.00000000000E+00  0.74505805969E-08  0.10566000000E+00  0.10566000000E+00 0. -1.
     999900   -1    0    0    0    0 -0.00000000000E+00 -0.00000000000E+00 -0.74505805969E-08  0.93827000000E+00  0.93827000000E+00 0. -1.
     999902    2    1    2    0    0 -0.49984526877E-02  0.10765878479E-01  0.21347878501E-01  0.10195041820E+01  0.10192115367E+01 0.  0.
     999903    2    3    3    0    0  0.77948458561E-01  0.22116419164E-01  0.10191344850E+00  0.13186696110E+00  0.20915215875E-01 0.  0.
         14    1    1    2    0    0  0.49984526877E-02 -0.10765878479E-01 -0.21347878501E-01  0.24425818004E-01  0.00000000000E+00 0.  1.
     999901    1    3    3    0    0 -0.82946911249E-01 -0.11350540685E-01 -0.80565569997E-01  0.88763722090E+00  0.88000000000E+00 0. -1.
        -11    1    4    4    0    0  0.23715063820E-01  0.15719655520E-01  0.42713175994E-01  0.51324344576E-01  0.51100000000E-03 0.  1.
         11    1    4    4    0    0  0.54233394741E-01  0.63967636436E-02  0.59200272503E-01  0.80542616519E-01  0.51100000000E-03 0. -1.
</event>
<event>
 8    1  0.1114447E+005  0.1043930E+01  0.7957747E-01            NaN
         13   -1    0    0    0    0  0.00000000000E+00  0.00000000000E+00  0.74505805969E-08  0.10566000000E+00  0.10566000000E+00 0. -1.
     999900   -1    0    0    0    0 -0.00000000000E+00 -0.00000000000E+00 -0.74505805969E-08  0.93827000000E+00  0.93827000000E+00 0. -1.
     999902    2    1    2    0    0 -0.20259557451E-01  0.45954974631E-02 -0.97284176788E-02  0.10209907242E+01  0.10207329957E+01 0.  0.
     999903    2    3    3    0    0  0.65774800923E-01  0.10865897259E+00 -0.22872377163E-01  0.13059537302E+00  0.19972707810E-01 0.  0.
         14    1    1    2    0    0  0.20259557451E-01 -0.45954974631E-02  0.97284176788E-02  0.22939275829E-01  0.00000000000E+00 0. -1.
     999901    1    3    3    0    0 -0.86034358374E-01 -0.10406347513E+00  0.13143959484E-01  0.89039535115E+00  0.88000000000E+00 0.  1.
        -11    1    4    4    0    0  0.16735640895E-01  0.24427543316E-01 -0.13901079383E-01  0.32715251453E-01  0.51100000000E-03 0. -1.
         11    1    4    4    0    0  0.49039160028E-01  0.84231429272E-01 -0.89712977798E-02  0.97880121569E-01  0.51100000000E-03 0.  1.
</event>
<event>
 8    1  0.1114447E+005  0.1043930E+01  0.7957747E-01            NaN
         13   -1    0    0    0    0  0.00000000000E+00  0.00000000000E+00  0.74505805969E-08  0.10566000000E+00  0.10566000000E+00 0.  1.
     999900   -1    0    0    0    0 -0.00000000000E+00 -0.00000000000E+00 -0.74505805969E-08  0.93827000000E+00  0.93827000000E+00 0. -1.
     999902    2    1    2    0    0  0.99247854484E-02  0.20407568085E-01 -0.63680287042E-02  0.10203604860E+01  0.10200882312E+01 0.  0.
     999903    2    3    3    0    0 -0.20839602256E-01 -0.49830770875E-01  0.11396264530E+00  0.12886772498E+00  0.26495495286E-01 0.  0.
         14    1    1    2    0    0 -0.99247854484E-02 -0.20407568085E-01  0.63680287042E-02  0.23569514015E-01  0.00000000000E+00 0.  1.
     999901    1    3    3    0    0  0.30764387704E-01  0.70238338960E-01 -0.12033067401E+00  0.89149276100E+00  0.88000000000E+00 0. -1.
        -11    1    4    4    0    0 -0.42212546429E-02 -0.26910047516E-01  0.80754746519E-01  0.85226520839E-01  0.51100000000E-03 0. -1.
         11    1    4    4    0    0 -0.16618347613E-01 -0.22920723359E-01  0.33207898782E-01  0.43641204145E-01  0.51100000000E-03 0.  1.
</event>
<event>
 8    1  0.1114447E+005  0.1043930E+01  0.7957747E-01            NaN
         13   -1    0    0    0    0  0.00000000000E+00  0.00000000000E+00  0.74505805969E-08  0.10566000000E+00  0.10566000000E+00 0. -1.
     999900   -1    0    0    0    0 -0.00000000000E+00 -0.00000000000E+00 -0.74505805969E-08  0.93827000000E+00  0.93827000000E+00 0.  1.
     999902    2    1    2    0    0 -0.14834916298E-01 -0.16003662336E-01 -0.45973726750E-02  0.10216291528E+01  0.10213857244E+01 0.  0.
     999903    2    3    3    0    0 -0.85044193765E-01 -0.88514620767E-01  0.50343360743E-01  0.13415765134E+00  0.19911515764E-01 0.  0.
         14    1    1    2    0    0  0.14834916298E-01  0.16003662336E-01  0.45973726750E-02  0.22300847187E-01  0.00000000000E+00 0. -1.
     999901    1    3    3    0    0  0.70209277468E-01  0.72510958431E-01 -0.54940733418E-01  0.88747150147E+00  0.88000000000E+00 0.  1.
        -11    1    4    4    0    0 -0.44803131405E-01 -0.59731624910E-01  0.34048773418E-01  0.82065630384E-01  0.51100000000E-03 0. -1.
         11    1    4    4    0    0 -0.40241062360E-01 -0.28782995857E-01  0.16294587324E-01  0.52092020958E-01  0.51100000000E-03 0.  1.
</event>
<event>
 8    1  0.1114447E+005  0.1043930E+01  0.7957747E-01            NaN
         13   -1    0    0    0    0  0.00000000000E+00  0.00000000000E+00  0.74505805969E-08  0.10566000000E+00  0.10566000000E+00 0.  1.
     999900   -1    0    0    0    0 -0.00000000000E+00 -0.00000000000E+00 -0.74505805969E-08  0.93827000000E+00  0.93827000000E+00 0. -1.
     999902    2    1    2    0    0 -0.21499785562E-01 -0.20977679992E-02 -0.69783123208E-02  0.10212289372E+01  0.10209765932E+01 0.  0.
     999903    2    3    3    0    0 -0.45845660395E-02  0.17120835773E-01  0.12777213412E+00  0.13060378473E+00  0.20432549132E-01 0.  0.
         14    1    1    2    0    0  0.21499785562E-01  0.20977679992E-02  0.69783123208E-02  0.22701062809E-01  0.00000000000E+00 0.  1.
     999901    1    3    3    0    0 -0.16915219523E-01 -0.19218603773E-01 -0.13475044644E+00  0.89062515246E+00  0.88000000000E+00 0. -1.
        -11    1    4    4    0    0 -0.67059536038E-03  0.20070656886E-01  0.11757132369E+00  0.11927513673E+00  0.51100000000E-03 0. -1.
         11    1    4    4    0    0 -0.39139706791E-02 -0.29498211131E-02  0.10200810430E-01  0.11328647999E-01  0.51100000000E-03 0.  1.
</event>
<event>
 8    1  0.1114447E+005  0.1043930E+01  0.7957747E-01            NaN
         13   -1    0    0    0    0  0.00000000000E+00  0.00000000000E+00  0.74505805969E-08  0.10566000000E+00  0.10566000000E+00 0.  1.
     999900   -1    0    0    0    0 -0.00000000000E+00 -0.00000000000E+00 -0.74505805969E-08  0.93827000000E+00  0.93827000000E+00 0. -1.
     999902    2    1    2    0    0  0.18618684240E-01  0.74694955850E-02 -0.15886589326E-01  0.10183403051E+01  0.10180187348E+01 0.  0.
     999903    2    3    3    0    0  0.42385321556E-01  0.11454349590E+00 -0.43424422308E-01  0.13110413196E+00  0.19643956515E-01 0.  0.
         14    1    1    2    0    0 -0.18618684240E-01 -0.74694955850E-02  0.15886589326E-01  0.25589694948E-01  0.00000000000E+00 0.  1.
     999901    1    3    3    0    0 -0.23766637316E-01 -0.10707400032E+00  0.27537832982E-01  0.88723617309E+00  0.88000000000E+00 0.  1.
        -11    1    4    4    0    0  0.64547402273E-02  0.38054264955E-01 -0.77402852637E-02  0.39369580765E-01  0.51100000000E-03 0. -1.
         11    1    4    4    0    0  0.35930581329E-01  0.76489230949E-01 -0.35684137044E-01  0.91734551197E-01  0.51100000000E-03 0.  1.
</event>
<event>
 8    1  0.1114447E+005  0.1043930E+01  0.7957747E-01            NaN
         13   -1    0    0    0    0  0.00000000000E+00  0.00000000000E+00  0.74505805969E-08  0.10566000000E+00  0.10566000000E+00 0. -1.
     999900   -1    0    0    0    0 -0.00000000000E+00 -0.00000000000E+00 -0.74505805969E-08  0.93827000000E+00  0.93827000000E+00 0.  1.
     999902    2    1    2    0    0  0.40229786102E-02  0.84261636695E-02  0.25430330474E-01  0.10168396641E+01  0.10164787338E+01 0.  0.
     999903    2    3    3    0    0  0.63472721180E-01 -0.79152172342E-01  0.77021608300E-01  0.12899626756E+00  0.20343455449E-01 0.  0.
         14    1    1    2    0    0 -0.40229786102E-02 -0.84261636695E-02 -0.25430330474E-01  0.27090335898E-01  0.00000000000E+00 0.  1.
     999901    1    3    3    0    0 -0.59449742570E-01  0.87578336011E-01 -0.51591277826E-01  0.88784339654E+00  0.88000000000E+00 0.  1.
        -11    1    4    4    0    0  0.49649098264E-01 -0.68822458098E-01  0.55477717183E-01  0.10138837173E+00  0.51100000000E-03 0. -1.
         11    1    4    4    0    0  0.13823622916E-01 -0.10329714243E-01  0.21543891117E-01  0.27607895834E-01  0.51100000000E-03 0.  1.
</event>
<event>
 8    1  0.1114447E+005  0.1043930E+01  0.7957747E-01            NaN
         13   -1    0    0    0    0  0.00000000000E+00  0.00000000000E+00  0.74505805969E-08  0.10566000000E+00  0.10566000000E+00 0. -1.
     999900   -1    0    0    0    0 -0.00000000000E+00 -0.00000000000E+00 -0.74505805969E-08  0.93827000000E+00  0.93827000000E+00 0. -1.
     999902    2    1    2    0    0 -0.47174141205E-02  0.59987800563E-02  0.22262196569E-01  0.10203960935E+01  0.10201246703E+01 0.  0.
     999903    2    3    3    0    0 -0.96128842181E-01 -0.85419022864E-01  0.14511794085E-01  0.13091684553E+00  0.19785462066E-01 0.  0.
         14    1    1    2    0    0  0.47174141205E-02 -0.59987800563E-02 -0.22262196569E-01  0.23533906480E-01  0.00000000000E+00 0.  1.
     999901    1    3    3    0    0  0.91411428060E-01  0.91417802920E-01  0.77504024843E-02  0.88947924799E+00  0.88000000000E+00 0. -1.
        -11    1    4    4    0    0 -0.20882061281E-01 -0.11471894253E-01 -0.28341260194E-02  0.23999129826E-01  0.51100000000E-03 0.  1.
         11    1    4    4    0    0 -0.75246780900E-01 -0.73947128610E-01  0.17345920104E-01  0.10691771570E+00  0.51100000000E-03 0. -1.
</event>
<event>
 8    1  0.1114447E+005  0.1043930E+01  0.7957747E-01            NaN
         13   -1    0    0    0    0  0.00000000000E+00  0.00000000000E+00  0.74505805969E-08  0.10566000000E+00  0.10566000000E+00 0.  1.
     999900   -1    0    0    0    0 -0.00000000000E+00 -0.00000000000E+00 -0.74505805969E-08  0.93827000000E+00  0.93827000000E+00 0. -1.
     999902    2    1    2    0    0 -0.41641298580E-02  0.22428927889E-01  0.65228614056E-02  0.10202035484E+01  0.10199276130E+01 0.  0.
     999903    2    3    3    0    0 -0.73265308098E-01  0.32592564744E-03  0.10727239586E+00  0.13148875489E+00  0.20347337697E-01 0.  0.
         14    1    1    2    0    0  0.41641298580E-02 -0.22428927889E-01 -0.65228614056E-02  0.23726451582E-01  0.00000000000E+00 0. -1.
     999901    1    3    3    0    0  0.69101178240E-01  0.22103002242E-01 -0.10074953445E+00  0.88871479353E+00  0.88000000000E+00 0. -1.
        -11    1    4    4    0    0 -0.31983119193E-01  0.53946998237E-02  0.32460043946E-01  0.45890503086E-01  0.51100000000E-03 0. -1.
         11    1    4    4    0    0 -0.41282188905E-01 -0.50687741762E-02  0.74812351912E-01  0.85598251805E-01  0.51100000000E-03 0.  1.
</event>
<event>
 8    1  0.1114447E+005  0.1043930E+01  0.7957747E-01            NaN
         13   -1    0    0    0    0  0.00000000000E+00  0.00000000000E+00  0.74505805969E-08  0.10566000000E+00  0.10566000000E+00 0. -1.
     999900   -1    0    0    0    0 -0.00000000000E+00 -0.00000000000E+00 -0.74505805969E-08  0.93827000000E+00  0.93827000000E+00 0. -1.
     999902    2    1    2    0    0 -0.22763422732E-01  0.93717523943E-03 -0.55444069891E-02  0.10204823528E+01  0.10202129386E+01 0.  0.
     999903    2    3    3    0    0 -0.59092092733E-01 -0.20881219561E-01 -0.11528218233E+00  0.13265455755E+00  0.19476892058E-01 0.  0.
         14    1    1    2    0    0  0.22763422732E-01 -0.93717523943E-03  0.55444069891E-02  0.23447647233E-01  0.00000000000E+00 0. -1.
     999901    1    3    3    0    0  0.36328670001E-01  0.21818394801E-01  0.10973777534E+00  0.88782779521E+00  0.88000000000E+00 0.  1.
        -11    1    4    4    0    0 -0.41919586344E-01 -0.49812011412E-02 -0.73516549834E-01  0.84776224878E-01  0.51100000000E-03 0. -1.
         11    1    4    4    0    0 -0.17172506389E-01 -0.15900018420E-01 -0.41765632492E-01  0.47878332677E-01  0.51100000000E-03 0.  1.
</event>
<event>
 7    1  0.1114447E+005  0.1043930E+01  0.7957747E-01            NaN
         13   -1    0    0    0    0  0.00000000000E+00  0.00000000000E+00  0.74505805969E-08  0.10566000000E+00  0.10566000000E+00 0. -1.
     999900   -1    0    0    0    0 -0.00000000000E+00 -0.00000000000E+00 -0.74505805969E-08  0.93827000000E+00  0.93827000000E+00 0.  1.
     999902    2    1    2    0    0  0.62809311634E-02 -0.15322833454E-01 -0.16081777224E-01  0.10208461771E+01  0.10205851529E+01 0.  0.
         14    1    1    2    0    0 -0.62809311634E-02  0.15322833454E-01  0.16081777224E-01  0.23083822907E-01  0.00000000000E+00 0. -1.
     999901    1    3    3    0    0 -0.64731479102E-01  0.84606900379E-01 -0.13159964432E-01  0.88652223697E+00  0.88000000000E+00 0. -1.
        -11    1    3    3    0    0  0.21692575922E-01 -0.68667980352E-01 -0.17554206161E-01  0.74123347541E-01  0.51100000000E-03 0. -1.
         11    1    3    3    0    0  0.49319834344E-01 -0.31261753481E-01  0.14632393369E-01  0.60200592582E-01  0.51100000000E-03 0.  1.
</event>
<event>
 8    1  0.1114447E+005  0.1043930E+01  0.7957747E-01            NaN
         13   -1    0    0    0    0  0.00000000000E+00  0.00000000000E+00  0.74505805969E-08  0.10566000000E+00  0.10566000000E+00 0. -1.
     999900   -1    0    0    0    0 -0.00000000000E+00 -0.00000000000E+00 -0.74505805969E-08  0.93827000000E+00  0.93827000000E+00 0. -1.
     999902    2    1    2    0    0 -0.16549277022E-01 -0.17632082634E-02  0.16551563648E-01  0.10204578520E+01  0.10201878680E+01 0.  0.
     999903    2    3    3    0    0 -0.10083183903E+00 -0.23165191651E-01  0.81847650845E-01  0.13376445844E+00  0.22140608074E-01 0.  0.
         14    1    1    2    0    0  0.16549277022E-01  0.17632082634E-02 -0.16551563648E-01  0.23472148017E-01  0.00000000000E+00 0.  1.
     999901    1    3    3    0    0  0.84282562009E-01  0.21401983388E-01 -0.65296087196E-01  0.88669339354E+00  0.88000000000E+00 0. -1.
        -11    1    4    4    0    0 -0.46741837705E-01 -0.21211280902E-01  0.34478806040E-01  0.61836615500E-01  0.51100000000E-03 0.  1.
         11    1    4    4    0    0 -0.54090001326E-01 -0.19539107498E-02  0.47368844804E-01  0.71927842938E-01  0.51100000000E-03 0. -1.
</event>
<event>
 8    1  0.1114447E+005  0.1043930E+01  0.7957747E-01            NaN
         13   -1    0    0    0    0  0.00000000000E+00  0.00000000000E+00  0.74505805969E-08  0.10566000000E+00  0.10566000000E+00 0. -1.
     999900   -1    0    0    0    0 -0.00000000000E+00 -0.00000000000E+00 -0.74505805969E-08  0.93827000000E+00  0.93827000000E+00 0. -1.
     999902    2    1    2    0    0  0.17307605959E-02  0.17045004434E-01 -0.19141240976E-01  0.10182411928E+01  0.10179170948E+01 0.  0.
     999903    2    3    3    0    0  0.11008242965E+00  0.30747604848E-02  0.61980138731E-01  0.12778292308E+00  0.18956327771E-01 0.  0.
         14    1    1    2    0    0 -0.17307605959E-02 -0.17045004434E-01  0.19141240976E-01  0.25688807183E-01  0.00000000000E+00 0. -1.
     999901    1    3    3    0    0 -0.10835166906E+00  0.13970243949E-01 -0.81121379707E-01  0.89045826974E+00  0.88000000000E+00 0. -1.
        -11    1    4    4    0    0  0.22575813681E-01  0.57862658617E-02  0.19877464571E-01  0.30635322011E-01  0.51100000000E-03 0. -1.
         11    1    4    4    0    0  0.87506615972E-01 -0.27115053770E-02  0.42102674160E-01  0.97147601065E-01  0.51100000000E-03 0.  1.
</event>
<event>
 8    1  0.1114447E+005  0.1043930E+01  0.7957747E-01            NaN
         13   -1    0    0    0    0  0.00000000000E+00  0.00000000000E+00  0.74505805969E-08  0.10566000000E+00  0.10566000000E+00 0.  1.
     999900   -1    0    0    0    0 -0.00000000000E+00 -0.00000000000E+00 -0.74505805969E-08  0.93827000000E+00  0.93827000000E+00 0. -1.
     999902    2    1    2    0    0  0.10748168100E-01 -0.22478147755E-01 -0.57073065746E-02  0.10183690221E+01  0.10180481823E+01 0.  0.
     999903    2    3    3    0    0 -0.56676498798E-01 -0.10870188294E+00 -0.37568901324E-01  0.13101577819E+00  0.26933007961E-01 0.  0.
         14    1    1    2    0    0 -0.10748168100E-01  0.22478147755E-01  0.57073065746E-02  0.25560977922E-01  0.00000000000E+00 0. -1.
     999901    1    3    3    0    0  0.67424666899E-01  0.86223735185E-01  0.31861594749E-01  0.88735324389E+00  0.88000000000E+00 0.  1.
        -11    1    4    4    0    0 -0.16601776052E-01 -0.16648184007E-01 -0.15658492755E-01  0.28252973564E-01  0.51100000000E-03 0.  1.
         11    1    4    4    0    0 -0.40074722746E-01 -0.92053698933E-01 -0.21910408568E-01  0.10276280463E+00  0.51100000000E-03 0. -1.
</event>
<event>
 8    1  0.1114447E+005  0.1043930E+01  0.7957747E-01            NaN
         13   -1    0    0    0    0  0.00000000000E+00  0.00000000000E+00  0.74505805969E-08  0.10566000000E+00  0.10566000000E+00 0. -1.
     999900   -1    0    0    0    0 -0.00000000000E+00 -0.00000000000E+00 -0.74505805969E-08  0.93827000000E+00  0.93827000000E+00 0. -1.
     999902    2    1    2    0    0  0.12960319378E-01 -0.18917252420E-01  0.53298556073E-02  0.10203877045E+01  0.10201160854E+01 0.  0.
     999903    2    3    3    0    0  0.66046452920E-01  0.62509996345E-01 -0.90232212570E-01  0.12989309849E+00  0.21464651518E-01 0.  0.
         14    1    1    2    0    0 -0.12960319378E-01  0.18917252420E-01 -0.53298556073E-02  0.23542295519E-01  0.00000000000E+00 0.  1.
     999901    1    3    3    0    0 -0.53086133542E-01 -0.81427248766E-01  0.95562068178E-01  0.89049460599E+00  0.88000000000E+00 0.  1.
        -11    1    4    4    0    0  0.33642172391E-01  0.45896141760E-01 -0.51926321338E-01  0.77038013735E-01  0.51100000000E-03 0. -1.
         11    1    4    4    0    0  0.32404280530E-01  0.16613854586E-01 -0.38305891232E-01  0.52855084760E-01  0.51100000000E-03 0.  1.
</event>
<event>
 8    1  0.1114447E+005  0.1043930E+01  0.7957747E-01            NaN
         13   -1    0    0    0    0  0.00000000000E+00  0.00000000000E+00  0.74505805969E-08  0.10566000000E+00  0.10566000000E+00 0. -1.
     999900   -1    0    0    0    0 -0.00000000000E+00 -0.00000000000E+00 -0.74505805969E-08  0.93827000000E+00  0.93827000000E+00 0.  1.
     999902    2    1    2    0    0  0.22061018120E-01 -0.48988043202E-02 -0.47881272892E-02  0.10208299358E+01  0.10205685400E+01 0.  0.
     999903    2    3    3    0    0  0.12803959182E+00 -0.31049611697E-01 -0.14003100093E-01  0.13403783019E+00  0.20293783512E-01 0.  0.
         14    1    1    2    0    0 -0.22061018120E-01  0.48988043202E-02  0.47881272892E-02  0.23100064225E-01  0.00000000000E+00 0. -1.
     999901    1    3    3    0    0 -0.10597857370E+00  0.26150807377E-01  0.92149728036E-02  0.88679210559E+00  0.88000000000E+00 0. -1.
        -11    1    4    4    0    0  0.53499362756E-01 -0.22202091227E-01 -0.15476140401E-02  0.57946275984E-01  0.51100000000E-03 0.  1.
         11    1    4    4    0    0  0.74540229063E-01 -0.88475204703E-02 -0.12455486053E-01  0.76091554203E-01  0.51100000000E-03 0. -1.
</event>
<event>
 8    1  0.1114447E+005  0.1043930E+01  0.7957747E-01            NaN
         13   -1    0    0    0    0  0.00000000000E+00  0.00000000000E+00  0.74505805969E-08  0.10566000000E+00  0.10566000000E+00 0. -1.
     999900   -1    0    0    0    0 -0.00000000000E+00 -0.00000000000E+00 -0.74505805969E-08  0.93827000000E+00  0.93827000000E+00 0.  1.
     999902    2    1    2    0    0 -0.10790973802E-01 -0.24171236726E-01 -0.95438731526E-02  0.10157914266E+01  0.10154016166E+01 0.  0.
     999903    2    3    3    0    0  0.79229519735E-01  0.91964842095E-01  0.94276704459E-02  0.12340630929E+00  0.20134230142E-01 0.  0.
         14    1    1    2    0    0  0.10790973802E-01  0.24171236726E-01  0.95438731526E-02  0.28138573439E-01  0.00000000000E+00 0. -1.
     999901    1    3    3    0    0 -0.90020493537E-01 -0.11613607882E+00 -0.18971543598E-01  0.89238511727E+00  0.88000000000E+00 0.  1.
        -11    1    4    4    0    0  0.14165407703E-01  0.29978480892E-01  0.35028159813E-02  0.33345148565E-01  0.51100000000E-03 0. -1.
         11    1    4    4    0    0  0.65064112032E-01  0.61986361203E-01  0.59248544646E-02  0.90061160725E-01  0.51100000000E-03 0.  1.
</event>
<event>
 8    1  0.1114447E+005  0.1043930E+01  0.7957747E-01            NaN
         13   -1    0    0    0    0  0.00000000000E+00  0.00000000000E+00  0.74505805969E-08  0.10566000000E+00  0.10566000000E+00 0.  1.
     999900   -1    0    0    0    0 -0.00000000000E+00 -0.00000000000E+00 -0.74505805969E-08  0.93827000000E+00  0.93827000000E+00 0.  1.
     999902    2    1    2    0    0 -0.11554415338E-02  0.15609673551E-01  0.12569094081E-01  0.10238556612E+01  0.10236588474E+01 0.  0.
     999903    2    3    3    0    0  0.62628558543E-01 -0.30493149111E-01 -0.11012800624E+00  0.13186437906E+00  0.20195747587E-01 0.  0.
         14    1    1    2    0    0  0.11554415338E-02 -0.15609673551E-01 -0.12569094081E-01  0.20074338832E-01  0.00000000000E+00 0. -1.
     999901    1    3    3    0    0 -0.63784000077E-01  0.46102822662E-01  0.12269710032E+00  0.89199128210E+00  0.88000000000E+00 0. -1.
        -11    1    4    4    0    0  0.10858797320E-01 -0.14838989841E-01 -0.29982979130E-01  0.35175975570E-01  0.51100000000E-03 0.  1.
         11    1    4    4    0    0  0.51769761223E-01 -0.15654159269E-01 -0.80145027106E-01  0.96688403495E-01  0.51100000000E-03 0. -1.
</event>
<event>
 8    1  0.1157317E+005  0.1043930E+01  0.7957747E-01            NaN
         13   -1    0    0    0    0  0.00000000000E+00  0.00000000000E+00  0.74505805969E-08  0.10566000000E+00  0.10566000000E+00 0.  1.
     999900   -1    0    0    0    0 -0.00000000000E+00 -0.00000000000E+00 -0.74505805969E-08  0.93827000000E+00  0.93827000000E+00 0.  1.
     999902    2    1    2    0    0 -0.18391286411E-01  0.19290643495E-01  0.13895144503E-01  0.10138726651E+01  0.10134270263E+01 0.  0.
     999903    2    3    3    0    0  0.60211073097E-01 -0.50278575953E-02  0.10764073842E+00  0.12507687481E+00  0.20175315814E-01 0.  0.
         14    1    1    2    0    0  0.18391286411E-01 -0.19290643495E-01 -0.13895144503E-01  0.30057334929E-01  0.00000000000E+00 0. -1.
     999901    1    3    3    0    0 -0.78602359508E-01  0.24318501090E-01 -0.93745593915E-01  0.88879579027E+00  0.88000000000E+00 0.  1.
        -11    1    4    4    0    0  0.20759158839E-01  0.64025159086E-02  0.47641215598E-01  0.52362977668E-01  0.51100000000E-03 0. -1.
         11    1    4    4    0    0  0.39451914258E-01 -0.11430373504E-01  0.59999522821E-01  0.72713897137E-01  0.51100000000E-03 0.  1.
</event>
<event>
 8    1  0.1114447E+005  0.1043930E+01  0.7957747E-01            NaN
         13   -1    0    0    0    0  0.00000000000E+00  0.00000000000E+00  0.74505805969E-08  0.10566000000E+00  0.10566000000E+00 0.  1.
     999900   -1    0    0    0    0 -0.00000000000E+00 -0.00000000000E+00 -0.74505805969E-08  0.93827000000E+00  0.93827000000E+00 0.  1.
     999902    2    1    2    0    0 -0.93007655649E-02 -0.78667045498E-02  0.21299069660E-01  0.10193935037E+01  0.10190981679E+01 0.  0.
     999903    2    3    3    0    0 -0.59393098895E-01  0.85547960997E-01  0.77753222725E-01  0.13123664090E+00  0.18207098731E-01 0.  0.
         14    1    1    2    0    0  0.93007655649E-02  0.78667045498E-02 -0.21299069660E-01  0.24536496265E-01  0.00000000000E+00 0. -1.
     999901    1    3    3    0    0  0.50092333330E-01 -0.93414665547E-01 -0.56454153065E-01  0.88815686283E+00  0.88000000000E+00 0. -1.
        -11    1    4    4    0    0 -0.18656122096E-01  0.31946345915E-01  0.38062279926E-01  0.53081241349E-01  0.51100000000E-03 0.  1.
         11    1    4    4    0    0 -0.40736976799E-01  0.53601615082E-01  0.39690942799E-01  0.78155399554E-01  0.51100000000E-03 0. -1.
</event>
<event>
 8    1  0.1114447E+005  0.1043930E+01  0.7957747E-01            NaN
         13   -1    0    0    0    0  0.00000000000E+00  0.00000000000E+00  0.74505805969E-08  0.10566000000E+00  0.10566000000E+00 0.  1.
     999900   -1    0    0    0    0 -0.00000000000E+00 -0.00000000000E+00 -0.74505805969E-08  0.93827000000E+00  0.93827000000E+00 0.  1.
     999902    2    1    2    0    0  0.55721439010E-02 -0.21870126068E-01 -0.34997102959E-02  0.10210914542E+01  0.10208360097E+01 0.  0.
     999903    2    3    3    0    0 -0.15629465128E-01 -0.76505430135E-01  0.10522858827E+00  0.13246534183E+00  0.19407472207E-01 0.  0.
         14    1    1    2    0    0 -0.55721439010E-02  0.21870126068E-01  0.34997102959E-02  0.22838545795E-01  0.00000000000E+00 0.  1.
     999901    1    3    3    0    0  0.21201609029E-01  0.54635304067E-01 -0.10872829857E+00  0.88862611237E+00  0.88000000000E+00 0. -1.
        -11    1    4    4    0    0 -0.11537363103E-01 -0.71942053527E-01  0.88461415096E-01  0.11460564076E+00  0.51100000000E-03 0.  1.
         11    1    4    4    0    0 -0.40921020250E-02 -0.45633766075E-02  0.16767173175E-01  0.17859701071E-01  0.51100000000E-03 0. -1.
</event>
<event>
 8    1  0.1114447E+005  0.1043930E+01  0.7957747E-01            NaN
         13   -1    0    0    0    0  0.00000000000E+00  0.00000000000E+00  0.74505805969E-08  0.10566000000E+00  0.10566000000E+00 0. -1.
     999900   -1    0    0    0    0 -0.00000000000E+00 -0.00000000000E+00 -0.74505805969E-08  0.93827000000E+00  0.93827000000E+00 0.  1.
     999902    2    1    2    0    0  0.20854442508E-01  0.77924038701E-02 -0.73101352610E-02  0.10204978126E+01  0.10202287577E+01 0.  0.
     999903    2    3    3    0    0 -0.95816885509E-01 -0.42806357945E-01 -0.72336035438E-01  0.12898179971E+00  0.19762155888E-01 0.  0.
         14    1    1    2    0    0 -0.20854442508E-01 -0.77924038701E-02  0.73101352610E-02  0.23432187434E-01  0.00000000000E+00 0. -1.
     999901    1    3    3    0    0  0.11667132802E+00  0.50598761815E-01  0.65025900177E-01  0.89151601285E+00  0.88000000000E+00 0.  1.
        -11    1    4    4    0    0 -0.23244684110E-01 -0.19243293607E-01 -0.16202582946E-01  0.34254992386E-01  0.51100000000E-03 0.  1.
         11    1    4    4    0    0 -0.72572201399E-01 -0.23563064338E-01 -0.56133452493E-01  0.94726807328E-01  0.51100000000E-03 0. -1.
</event>
<event>
 8    1  0.1114447E+005  0.1043930E+01  0.7957747E-01            NaN
         13   -1    0    0    0    0  0.00000000000E+00  0.00000000000E+00  0.74505805969E-08  0.10566000000E+00  0.10566000000E+00 0. -1.
     999900   -1    0    0    0    0 -0.00000000000E+00 -0.00000000000E+00 -0.74505805969E-08  0.93827000000E+00  0.93827000000E+00 0. -1.
     999902    2    1    2    0    0 -0.10394579845E-02  0.86308855213E-02  0.22058024291E-01  0.10202207382E+01  0.10199452072E+01 0.  0.
     999903    2    3    3    0    0 -0.12738723153E+00  0.24288558359E-01  0.65185940023E-02  0.13092303977E+00  0.16760353553E-01 0.  0.
         14    1    1    2    0    0  0.10394579845E-02 -0.86308855213E-02 -0.22058024291E-01  0.23709261764E-01  0.00000000000E+00 0.  1.
     999901    1    3    3    0    0  0.12634777355E+00 -0.15657672838E-01  0.15539430289E-01  0.88929769846E+00  0.88000000000E+00 0.  1.
        -11    1    4    4    0    0 -0.85257928749E-01  0.10700912898E-01  0.10045436137E-01  0.86513558819E-01  0.51100000000E-03 0. -1.
         11    1    4    4    0    0 -0.42129302782E-01  0.13587645461E-01 -0.35268421348E-02  0.44409480953E-01  0.51100000000E-03 0.  1.
</event>
<event>
 8    1  0.1114447E+005  0.1043930E+01  0.7957747E-01            NaN
         13   -1    0    0    0    0  0.00000000000E+00  0.00000000000E+00  0.74505805969E-08  0.10566000000E+00  0.10566000000E+00 0. -1.
     999900   -1    0    0    0    0 -0.00000000000E+00 -0.00000000000E+00 -0.74505805969E-08  0.93827000000E+00  0.93827000000E+00 0.  1.
     999902    2    1    2    0    0  0.19620725044E-01 -0.79841310400E-02 -0.10301802462E-01  0.10203748236E+01  0.10201029038E+01 0.  0.
     999903    2    3    3    0    0 -0.19350185920E-01  0.11814132299E+00  0.44075649981E-01  0.12886864340E+00  0.18239036075E-01 0.  0.
         14    1    1    2    0    0 -0.19620725044E-01  0.79841310400E-02  0.10301802462E-01  0.23555176367E-01  0.00000000000E+00 0. -1.
     999901    1    3    3    0    0  0.38970910965E-01 -0.12612545403E+00 -0.54377452443E-01  0.89150618023E+00  0.88000000000E+00 0.  1.
        -11    1    4    4    0    0 -0.13685729599E-01  0.87082965361E-01  0.23676458880E-01  0.91277477380E-01  0.51100000000E-03 0.  1.
         11    1    4    4    0    0 -0.56644563216E-02  0.31058357633E-01  0.20399191101E-01  0.37591166021E-01  0.51100000000E-03 0. -1.
</event>
<event>
 8    1  0.1114447E+005  0.1043930E+01  0.7957747E-01            NaN
         13   -1    0    0    0    0  0.00000000000E+00  0.00000000000E+00  0.74505805969E-08  0.10566000000E+00  0.10566000000E+00 0.  1.
     999900   -1    0    0    0    0 -0.00000000000E+00 -0.00000000000E+00 -0.74505805969E-08  0.93827000000E+00  0.93827000000E+00 0.  1.
     999902    2    1    2    0    0 -0.20867921699E-01 -0.82739747524E-02 -0.75246032389E-02  0.10202540952E+01  0.10199793480E+01 0.  0.
     999903    2    3    3    0    0 -0.66951468104E-01  0.50603586269E-01  0.97373818621E-01  0.13087569466E+00  0.24567557364E-01 0.  0.
         14    1    1    2    0    0  0.20867921699E-01  0.82739747524E-02  0.75246032389E-02  0.23675904801E-01  0.00000000000E+00 0. -1.
     999901    1    3    3    0    0  0.46083546406E-01 -0.58877561021E-01 -0.10489842186E+00  0.88937840054E+00  0.88000000000E+00 0.  1.
        -11    1    4    4    0    0 -0.41858176921E-01  0.35940169087E-01  0.79441616278E-01  0.96721425997E-01  0.51100000000E-03 0. -1.
         11    1    4    4    0    0 -0.25093291184E-01  0.14663417182E-01  0.17932202343E-01  0.34154268661E-01  0.51100000000E-03 0.  1.
</event>
<event>
 8    1  0.1114447E+005  0.1043930E+01  0.7957747E-01            NaN
         13   -1    0    0    0    0  0.00000000000E+00  0.00000000000E+00  0.74505805969E-08  0.10566000000E+00  0.10566000000E+00 0. -1.
     999900   -1    0    0    0    0 -0.00000000000E+00 -0.00000000000E+00 -0.74505805969E-08  0.93827000000E+00  0.93827000000E+00 0. -1.
     999902    2    1    2    0    0 -0.21094090139E-01  0.37754379743E-03  0.10934456967E-01  0.10201673081E+01  0.10198905191E+01 0.  0.
     999903    2    3    3    0    0  0.10853937848E+00 -0.65508496854E-01  0.51763250503E-02  0.12821497605E+00  0.18442502566E-01 0.  0.
         14    1    1    2    0    0  0.21094090139E-01 -0.37754379743E-03 -0.10934456967E-01  0.23762691919E-01  0.00000000000E+00 0.  1.
     999901    1    3    3    0    0 -0.12963346862E+00  0.65886040652E-01  0.57581319165E-02  0.89195233203E+00  0.88000000000E+00 0.  1.
        -11    1    4    4    0    0  0.12557853317E-01 -0.13244443077E-01 -0.34638149771E-02  0.18584242991E-01  0.51100000000E-03 0. -1.
         11    1    4    4    0    0  0.95981525161E-01 -0.52264053777E-01  0.86401400274E-02  0.10963073306E+00  0.51100000000E-03 0.  1.
</event>
<event>
 8    1  0.1114447E+005  0.1043930E+01  0.7957747E-01            NaN
         13   -1    0    0    0    0  0.00000000000E+00  0.00000000000E+00  0.74505805969E-08  0.10566000000E+00  0.10566000000E+00 0. -1.
     999900   -1    0    0    0    0 -0.00000000000E+00 -0.00000000000E+00 -0.74505805969E-08  0.93827000000E+00  0.93827000000E+00 0. -1.
     999902    2    1    2    0    0  0.16027631177E-02  0.31757790933E-03 -0.22109096826E-01  0.10217606097E+01  0.10215200740E+01 0.  0.
     999903    2    3    3    0    0 -0.22976302621E-01 -0.20790039463E-01 -0.12947396937E+00  0.13464343711E+00  0.20129833358E-01 0.  0.
         14    1    1    2    0    0 -0.16027631177E-02 -0.31757790933E-03  0.22109096826E-01  0.22169390334E-01  0.00000000000E+00 0. -1.
     999901    1    3    3    0    0  0.24579065738E-01  0.21107617372E-01  0.10736487254E+00  0.88711717255E+00  0.88000000000E+00 0.  1.
        -11    1    4    4    0    0 -0.35040194358E-02 -0.16443930817E-01 -0.52806174271E-01  0.55420521245E-01  0.51100000000E-03 0.  1.
         11    1    4    4    0    0 -0.19472283185E-01 -0.43461086462E-02 -0.76667795095E-01  0.79222915868E-01  0.51100000000E-03 0. -1.
</event>
<event>
 8    1  0.1114447E+005  0.1043930E+01  0.7957747E-01            NaN
         13   -1    0    0    0    0  0.00000000000E+00  0.00000000000E+00  0.74505805969E-08  0.10566000000E+00  0.10566000000E+00 0.  1.
     999900   -1    0    0    0    0 -0.00000000000E+00 -0.00000000000E+00 -0.74505805969E-08  0.93827000000E+00  0.93827000000E+00 0. -1.
     999902    2    1    2    0    0 -0.22346892391E-01 -0.36643954903E-02  0.78525943171E-02  0.10199617996E+01  0.10196801449E+01 0.  0.
     999903    2    3    3    0    0 -0.10377423815E+00 -0.16537691004E-01 -0.77198710979E-01  0.13202607054E+00  0.20703975409E-01 0.  0.
         14    1    1    2    0    0  0.22346892391E-01  0.36643954903E-02 -0.78525943171E-02  0.23968200420E-01  0.00000000000E+00 0.  1.
     999901    1    3    3    0    0  0.81427345759E-01  0.12873295514E-01  0.85051305296E-01  0.88793572904E+00  0.88000000000E+00 0.  1.
        -11    1    4    4    0    0 -0.63791333133E-01 -0.17509048588E-01 -0.56463499673E-01  0.86972920393E-01  0.51100000000E-03 0.  1.
         11    1    4    4    0    0 -0.39982905018E-01  0.97135758375E-03 -0.20735211306E-01  0.45053150147E-01  0.51100000000E-03 0. -1.
</event>
<event>
 8    1  0.1114447E+005  0.1043930E+01  0.7957747E-01            NaN
         13   -1    0    0    0    0  0.00000000000E+00  0.00000000000E+00  0.74505805969E-08  0.10566000000E+00  0.10566000000E+00 0. -1.
     999900   -1    0    0    0    0 -0.00000000000E+00 -0.00000000000E+00 -0.74505805969E-08  0.93827000000E+00  0.93827000000E+00 0.  1.
     999902    2    1    2    0    0  0.11621223808E-01 -0.18758473999E-01 -0.93584940265E-02  0.10199609658E+01  0.10196792913E+01 0.  0.
     999903    2    3    3    0    0 -0.10542458789E+00 -0.14828234192E-01 -0.71728661708E-01  0.13001422210E+00  0.20602834173E-01 0.  0.
         14    1    1    2    0    0 -0.11621223808E-01  0.18758473999E-01  0.93584940265E-02  0.23969034190E-01  0.00000000000E+00 0. -1.
     999901    1    3    3    0    0  0.11704581170E+00 -0.39302398066E-02  0.62370167682E-01  0.88994674371E+00  0.88000000000E+00 0.  1.
        -11    1    4    4    0    0 -0.17800314936E-01 -0.10522497429E-01 -0.12667921066E-01  0.24255133664E-01  0.51100000000E-03 0. -1.
         11    1    4    4    0    0 -0.87624272958E-01 -0.43057367639E-02 -0.59060740643E-01  0.10575908844E+00  0.51100000000E-03 0.  1.
</event>
<event>
 8    1  0.1114447E+005  0.1043930E+01  0.7957747E-01            NaN
         13   -1    0    0    0    0  0.00000000000E+00  0.00000000000E+00  0.74505805969E-08  0.10566000000E+00  0.10566000000E+00 0.  1.
     999900   -1    0    0    0    0 -0.00000000000E+00 -0.00000000000E+00 -0.74505805969E-08  0.93827000000E+00  0.93827000000E+00 0. -1.
     999902    2    1    2    0    0 -0.54960757274E-02 -0.17777482714E-01 -0.14560576820E-01  0.10203025554E+01  0.10200289449E+01 0.  0.
     999903    2    3    3    0    0 -0.39679402897E-01 -0.11509206149E+00  0.47118174435E-01  0.13213427437E+00  0.20462318274E-01 0.  0.
         14    1    1    2    0    0  0.54960757274E-02  0.17777482714E-01  0.14560576820E-01  0.23627444580E-01  0.00000000000E+00 0.  1.
     999901    1    3    3    0    0  0.34183327169E-01  0.97314578780E-01 -0.61678751254E-01  0.88816828105E+00  0.88000000000E+00 0.  1.
        -11    1    4    4    0    0 -0.29139151025E-01 -0.74385092302E-01  0.40481043622E-01  0.89561197474E-01  0.51100000000E-03 0.  1.
         11    1    4    4    0    0 -0.10540251872E-01 -0.40706969192E-01  0.66371308122E-02  0.42573076900E-01  0.51100000000E-03 0. -1.
</event>
<event>
 8    1  0.1114447E+005  0.1043930E+01  0.7957747E-01            NaN
         13   -1    0    0    0    0  0.00000000000E+00  0.00000000000E+00  0.74505805969E-08  0.10566000000E+00  0.10566000000E+00 0. -1.
     999900   -1    0    0    0    0 -0.00000000000E+00 -0.00000000000E+00 -0.74505805969E-08  0.93827000000E+00  0.93827000000E+00 0.  1.
     999902    2    1    2    0    0 -0.15166663395E-01  0.32001123688E-02 -0.18237899941E-01  0.10199948921E+01  0.10197140239E+01 0.  0.
     999903    2    3    3    0    0  0.11317328650E+00 -0.56056367278E-01  0.92185727985E-02  0.12829071970E+00  0.20567391362E-01 0.  0.
         14    1    1    2    0    0  0.15166663395E-01 -0.32001123688E-02  0.18237899941E-01  0.23935107938E-01  0.00000000000E+00 0. -1.
     999901    1    3    3    0    0 -0.12833994989E+00  0.59256479647E-01 -0.27456472740E-01  0.89170417237E+00  0.88000000000E+00 0.  1.
        -11    1    4    4    0    0  0.50680591513E-01 -0.21410182815E-01 -0.56338409772E-02  0.55307500119E-01  0.51100000000E-03 0. -1.
         11    1    4    4    0    0  0.62492694982E-01 -0.34646184464E-01  0.14852413776E-01  0.72983219578E-01  0.51100000000E-03 0.  1.
</event>
<event>
 8    1  0.1114447E+005  0.1043930E+01  0.7957747E-01            NaN
         13   -1    0    0    0    0  0.00000000000E+00  0.00000000000E+00  0.74505805969E-08  0.10566000000E+00  0.10566000000E+00 0.  1.
     999900   -1    0    0    0    0 -0.00000000000E+00 -0.00000000000E+00 -0.74505805969E-08  0.93827000000E+00  0.93827000000E+00 0.  1.
     999902    2    1    2    0    0  0.84879607182E-03  0.11481112415E-01  0.20700984727E-01  0.10202431436E+01  0.10199681392E+01 0.  0.
     999903    2    3    3    0    0 -0.10449673561E+00 -0.18242402688E-02  0.78179202034E-01  0.13199854952E+00  0.19716334342E-01 0.  0.
         14    1    1    2    0    0 -0.84879607182E-03 -0.11481112415E-01 -0.20700984727E-01  0.23686856392E-01  0.00000000000E+00 0. -1.
     999901    1    3    3    0    0  0.10534553168E+00  0.13305352684E-01 -0.57478217307E-01  0.88824459408E+00  0.88000000000E+00 0. -1.
        -11    1    4    4    0    0 -0.40802554806E-01  0.24877206190E-02  0.19532288317E-01  0.45307931319E-01  0.51100000000E-03 0.  1.
         11    1    4    4    0    0 -0.63694180805E-01 -0.43119608878E-02  0.58646913717E-01  0.86690618204E-01  0.51100000000E-03 0. -1.
</event>
<event>
 8    1  0.1114447E+005  0.1043930E+01  0.7957747E-01            NaN
         13   -1    0    0    0    0  0.00000000000E+00  0.00000000000E+00  0.74505805969E-08  0.10566000000E+00  0.10566000000E+00 0.  1.
     999900   -1    0    0    0    0 -0.00000000000E+00 -0.00000000000E+00 -0.74505805969E-08  0.93827000000E+00  0.93827000000E+00 0. -1.
     999902    2    1    2    0    0 -0.17009051661E-01 -0.16559916864E-01 -0.67718240772E-02  0.10192440468E+01  0.10189450577E+01 0.  0.
     999903    2    3    3    0    0  0.88982080663E-01  0.86540254239E-01  0.14292712918E-01  0.12665932804E+00  0.20767220665E-01 0.  0.
         14    1    1    2    0    0  0.17009051661E-01  0.16559916864E-01  0.67718240772E-02  0.24685953218E-01  0.00000000000E+00 0.  1.
     999901    1    3    3    0    0 -0.10599113232E+00 -0.10310017110E+00 -0.21064536995E-01  0.89258471874E+00  0.88000000000E+00 0.  1.
        -11    1    4    4    0    0  0.86732548787E-02  0.27202721005E-02  0.45198162670E-02  0.10164403110E-01  0.51100000000E-03 0.  1.
         11    1    4    4    0    0  0.80308825785E-01  0.83819982138E-01  0.97728966505E-02  0.11649492493E+00  0.51100000000E-03 0. -1.
</event>
<event>
 8    1  0.1114447E+005  0.1043930E+01  0.7957747E-01            NaN
         13   -1    0    0    0    0  0.00000000000E+00  0.00000000000E+00  0.74505805969E-08  0.10566000000E+00  0.10566000000E+00 0.  1.
     999900   -1    0    0    0    0 -0.00000000000E+00 -0.00000000000E+00 -0.74505805969E-08  0.93827000000E+00  0.93827000000E+00 0. -1.
     999902    2    1    2    0    0 -0.20538175561E-01 -0.95313343314E-03  0.11284645651E-01  0.10204764641E+01  0.10202069131E+01 0.  0.
     999903    2    3    3    0    0  0.84645088702E-01 -0.77062301580E-01 -0.54825336950E-01  0.12849739800E+00  0.20059271067E-01 0.  0.
         14    1    1    2    0    0  0.20538175561E-01  0.95313343314E-03 -0.11284645651E-01  0.23453535899E-01  0.00000000000E+00 0. -1.
     999901    1    3    3    0    0 -0.10518326426E+00  0.76109168147E-01  0.66109982601E-01  0.89197906610E+00  0.88000000000E+00 0.  1.
        -11    1    4    4    0    0  0.61522687383E-01 -0.67024480693E-01 -0.43922978642E-01  0.10102876446E+00  0.51100000000E-03 0. -1.
         11    1    4    4    0    0  0.23122401320E-01 -0.10037820887E-01 -0.10902358307E-01  0.27468633541E-01  0.51100000000E-03 0.  1.
</event>
<event>
 8    1  0.1114447E+005  0.1043930E+01  0.7957747E-01            NaN
         13   -1    0    0    0    0  0.00000000000E+00  0.00000000000E+00  0.74505805969E-08  0.10566000000E+00  0.10566000000E+00 0. -1.
     999900   -1    0    0    0    0 -0.00000000000E+00 -0.00000000000E+00 -0.74505805969E-08  0.93827000000E+00  0.93827000000E+00 0. -1.
     999902    2    1    2    0    0 -0.13438604852E-02  0.21399659700E-01 -0.10259644673E-02  0.10224636543E+01  0.10222382894E+01 0.  0.
     999903    2    3    3    0    0  0.97084812766E-01 -0.61314611028E-01  0.59787505533E-01  0.13104448662E+00  0.20326565399E-01 0.  0.
         14    1    1    2    0    0  0.13438604852E-02 -0.21399659700E-01  0.10259644673E-02  0.21466345739E-01  0.00000000000E+00 0.  1.
     999901    1    3    3    0    0 -0.98428673251E-01  0.82714270729E-01 -0.60813470000E-01  0.89141916764E+00  0.88000000000E+00 0. -1.
        -11    1    4    4    0    0  0.57475075332E-01 -0.33523395735E-01  0.45433628287E-01  0.80570950387E-01  0.51100000000E-03 0.  1.
         11    1    4    4    0    0  0.39609737434E-01 -0.27791215293E-01  0.14353877246E-01  0.50473536235E-01  0.51100000000E-03 0. -1.
</event>
<event>
 8    1  0.1114447E+005  0.1043930E+01  0.7957747E-01            NaN
         13   -1    0    0    0    0  0.00000000000E+00  0.00000000000E+00  0.74505805969E-08  0.10566000000E+00  0.10566000000E+00 0. -1.
     999900   -1    0    0    0    0 -0.00000000000E+00 -0.00000000000E+00 -0.74505805969E-08  0.93827000000E+00  0.93827000000E+00 0.  1.
     999902    2    1    2    0    0 -0.15820101484E-01 -0.11598149898E-01 -0.12206388201E-01  0.10208261344E+01  0.10205646516E+01 0.  0.
     999903    2    3    3    0    0 -0.60032404891E-01  0.11105791351E+00 -0.28006153996E-01  0.13107961419E+00  0.21442266756E-01 0.  0.
         14    1    1    2    0    0  0.15820101484E-01  0.11598149898E-01  0.12206388201E-01  0.23103865584E-01  0.00000000000E+00 0. -1.
     999901    1    3    3    0    0  0.44212303407E-01 -0.12265606341E+00  0.15799765795E-01  0.88974652023E+00  0.88000000000E+00 0. -1.
        -11    1    4    4    0    0 -0.23961937459E-01  0.32262904563E-01 -0.17315368986E-01  0.43762456304E-01  0.51100000000E-03 0.  1.
         11    1    4    4    0    0 -0.36070467432E-01  0.78795008945E-01 -0.10690785010E-01  0.87317157882E-01  0.51100000000E-03 0. -1.
</event>
<event>
 8    1  0.1114447E+005  0.1043930E+01  0.7957747E-01            NaN
         13   -1    0    0    0    0  0.00000000000E+00  0.00000000000E+00  0.74505805969E-08  0.10566000000E+00  0.10566000000E+00 0.  1.
     999900   -1    0    0    0    0 -0.00000000000E+00 -0.00000000000E+00 -0.74505805969E-08  0.93827000000E+00  0.93827000000E+00 0. -1.
     999902    2    1    2    0    0 -0.10533016399E-01 -0.25793277630E-02 -0.20394668268E-01  0.10208315182E+01  0.10205701587E+01 0.  0.
     999903    2    3    3    0    0  0.12398524268E+00  0.32021774381E-01  0.36937848290E-02  0.12961176314E+00  0.19693416699E-01 0.  0.
         14    1    1    2    0    0  0.10533016399E-01  0.25793277630E-02  0.20394668268E-01  0.23098481767E-01  0.00000000000E+00 0. -1.
     999901    1    3    3    0    0 -0.13451825908E+00 -0.34601102144E-01 -0.24088453097E-01  0.89121975509E+00  0.88000000000E+00 0. -1.
        -11    1    4    4    0    0  0.98148410937E-01  0.29655759762E-01  0.96555928538E-02  0.10298575752E+00  0.51100000000E-03 0.  1.
         11    1    4    4    0    0  0.25836831742E-01  0.23660146189E-02 -0.59618080249E-02  0.26626005625E-01  0.51100000000E-03 0. -1.
</event>
<event>
 8    1  0.1114447E+005  0.1043930E+01  0.7957747E-01            NaN
         13   -1    0    0    0    0  0.00000000000E+00  0.00000000000E+00  0.74505805969E-08  0.10566000000E+00  0.10566000000E+00 0. -1.
     999900   -1    0    0    0    0 -0.00000000000E+00 -0.00000000000E+00 -0.74505805969E-08  0.93827000000E+00  0.93827000000E+00 0. -1.
     999902    2    1    2    0    0 -0.68786410827E-03  0.20387601641E-01 -0.11517264707E-01  0.10205040562E+01  0.10202351463E+01 0.  0.
     999903    2    3    3    0    0  0.23356687525E-01  0.11922164922E+00  0.49158644571E-01  0.13256944406E+00  0.19968692159E-01 0.  0.
         14    1    1    2    0    0  0.68786410827E-03 -0.20387601641E-01  0.11517264707E-01  0.23425943824E-01  0.00000000000E+00 0. -1.
     999901    1    3    3    0    0 -0.24044551633E-01 -0.98834047583E-01 -0.60675909279E-01  0.88793461211E+00  0.88000000000E+00 0. -1.
        -11    1    4    4    0    0  0.63720830751E-02  0.36762164209E-01  0.25229786213E-01  0.45042906138E-01  0.51100000000E-03 0.  1.
         11    1    4    4    0    0  0.16984604450E-01  0.82459485016E-01  0.23928858359E-01  0.87526537923E-01  0.51100000000E-03 0. -1.
</event>
<event>
 8    1  0.1114447E+005  0.1043930E+01  0.7957747E-01            NaN
         13   -1    0    0    0    0  0.00000000000E+00  0.00000000000E+00  0.74505805969E-08  0.10566000000E+00  0.10566000000E+00 0. -1.
     999900   -1    0    0    0    0 -0.00000000000E+00 -0.00000000000E+00 -0.74505805969E-08  0.93827000000E+00  0.93827000000E+00 0. -1.
     999902    2    1    2    0    0  0.18750375701E-01  0.64831880905E-02  0.18423641193E-01  0.10168553094E+01  0.10164948014E+01 0.  0.
     999903    2    3    3    0    0 -0.23322008246E-01 -0.22555704650E-01 -0.11941937644E+00  0.12465912004E+00  0.15041039190E-01 0.  0.
         14    1    1    2    0    0 -0.18750375701E-01 -0.64831880905E-02 -0.18423641193E-01  0.27074690608E-01  0.00000000000E+00 0.  1.
     999901    1    3    3    0    0  0.42072383946E-01  0.29038892741E-01  0.13784301763E+00  0.89219618935E+00  0.88000000000E+00 0.  1.
        -11    1    4    4    0    0 -0.94057048167E-02 -0.15835421232E-01 -0.44552649091E-01  0.48212317002E-01  0.51100000000E-03 0. -1.
         11    1    4    4    0    0 -0.13916303429E-01 -0.67202834181E-02 -0.74866727346E-01  0.76446803039E-01  0.51100000000E-03 0.  1.
</event>
<event>
 8    1  0.1114447E+005  0.1043930E+01  0.7957747E-01            NaN
         13   -1    0    0    0    0  0.00000000000E+00  0.00000000000E+00  0.74505805969E-08  0.10566000000E+00  0.10566000000E+00 0.  1.
     999900   -1    0    0    0    0 -0.00000000000E+00 -0.00000000000E+00 -0.74505805969E-08  0.93827000000E+00  0.93827000000E+00 0. -1.
     999902    2    1    2    0    0  0.12728394890E-01 -0.19677359931E-02  0.20042441508E-01  0.10201059894E+01  0.10198277531E+01 0.  0.
     999903    2    3    3    0    0  0.58081260229E-02 -0.17055557273E-02 -0.12633984858E+00  0.12798731244E+00  0.19553811813E-01 0.  0.
         14    1    1    2    0    0 -0.12728394890E-01  0.19677359931E-02 -0.20042441508E-01  0.23824010641E-01  0.00000000000E+00 0. -1.
     999901    1    3    3    0    0  0.69202688668E-02 -0.26218026583E-03  0.14638229009E+00  0.89211867692E+00  0.88000000000E+00 0.  1.
        -11    1    4    4    0    0  0.57402376970E-02 -0.10285270322E-01 -0.78722898823E-01  0.79600835640E-01  0.51100000000E-03 0.  1.
         11    1    4    4    0    0  0.67888325898E-04  0.85797145945E-02 -0.47616949761E-01  0.48386476798E-01  0.51100000000E-03 0. -1.
</event>
<event>
 8    1  0.1114447E+005  0.1043930E+01  0.7957747E-01            NaN
         13   -1    0    0    0    0  0.00000000000E+00  0.00000000000E+00  0.74505805969E-08  0.10566000000E+00  0.10566000000E+00 0.  1.
     999900   -1    0    0    0    0 -0.00000000000E+00 -0.00000000000E+00 -0.74505805969E-08  0.93827000000E+00  0.93827000000E+00 0. -1.
     999902    2    1    2    0    0 -0.47037765394E-02  0.23103995638E-01 -0.68812334767E-03  0.10203420022E+01  0.10200693152E+01 0.  0.
     999903    2    3    3    0    0 -0.76876872564E-01 -0.54673386081E-01  0.86741543175E-01  0.12966685179E+00  0.19752581124E-01 0.  0.
         14    1    1    2    0    0  0.47037765394E-02 -0.23103995638E-01  0.68812334767E-03  0.23587997836E-01  0.00000000000E+00 0.  1.
     999901    1    3    3    0    0  0.72173096024E-01  0.77777381720E-01 -0.87429666523E-01  0.89067515037E+00  0.88000000000E+00 0. -1.
        -11    1    4    4    0    0 -0.60077848289E-01 -0.38434556798E-01  0.75053887362E-01  0.10353699890E+00  0.51100000000E-03 0. -1.
         11    1    4    4    0    0 -0.16799024275E-01 -0.16238829283E-01  0.11687655814E-01  0.26129852898E-01  0.51100000000E-03 0.  1.
</event>
<event>
 8    1  0.1114447E+005  0.1043930E+01  0.7957747E-01            NaN
         13   -1    0    0    0    0  0.00000000000E+00  0.00000000000E+00  0.74505805969E-08  0.10566000000E+00  0.10566000000E+00 0. -1.
     999900   -1    0    0    0    0 -0.00000000000E+00 -0.00000000000E+00 -0.74505805969E-08  0.93827000000E+00  0.93827000000E+00 0.  1.
     999902    2    1    2    0    0 -0.21442154959E-01  0.95936917143E-02  0.45082305521E-02  0.10200107803E+01  0.10197302892E+01 0.  0.
     999903    2    3    3    0    0  0.79589122953E-01 -0.57487881649E-01  0.80488242410E-01  0.12845022775E+00  0.19540184587E-01 0.  0.
         14    1    1    2    0    0  0.21442154959E-01 -0.95936917143E-02 -0.45082305521E-02  0.23919219734E-01  0.00000000000E+00 0.  1.
     999901    1    3    3    0    0 -0.10103127791E+00  0.67081573363E-01 -0.75980011858E-01  0.89156055252E+00  0.88000000000E+00 0.  1.
        -11    1    4    4    0    0  0.11145352121E-01 -0.14334257436E-01  0.22426603672E-01  0.28860067280E-01  0.51100000000E-03 0. -1.
         11    1    4    4    0    0  0.68443770832E-01 -0.43153624213E-01  0.58061638739E-01  0.99590160470E-01  0.51100000000E-03 0.  1.
</event>
<event>
 8    1  0.1114447E+005  0.1043930E+01  0.7957747E-01            NaN
         13   -1    0    0    0    0  0.00000000000E+00  0.00000000000E+00  0.74505805969E-08  0.10566000000E+00  0.10566000000E+00 0. -1.
     999900   -1    0    0    0    0 -0.00000000000E+00 -0.00000000000E+00 -0.74505805969E-08  0.93827000000E+00  0.93827000000E+00 0. -1.
     999902    2    1    2    0    0  0.84832152431E-02  0.18343818027E-01 -0.10671105303E-01  0.10210753924E+01  0.10208195844E+01 0.  0.
     999903    2    3    3    0    0  0.74668171476E-01 -0.86147321261E-01 -0.61275857842E-01  0.13098568478E+00  0.20145025932E-01 0.  0.
         14    1    1    2    0    0 -0.84832152431E-02 -0.18343818027E-01  0.10671105303E-01  0.22854607611E-01  0.00000000000E+00 0. -1.
     999901    1    3    3    0    0 -0.66184956233E-01  0.10449113929E+00  0.50604752540E-01  0.89008970761E+00  0.88000000000E+00 0. -1.
        -11    1    4    4    0    0  0.46216310305E-01 -0.48655187517E-01 -0.46530738406E-01  0.81661774094E-01  0.51100000000E-03 0. -1.
         11    1    4    4    0    0  0.28451861171E-01 -0.37492133743E-01 -0.14745119436E-01  0.49323910681E-01  0.51100000000E-03 0.  1.
</event>
<event>
 8    1  0.1114447E+005  0.1043930E+01  0.7957747E-01            NaN
         13   -1    0    0    0    0  0.00000000000E+00  0.00000000000E+00  0.74505805969E-08  0.10566000000E+00  0.10566000000E+00 0. -1.
     999900   -1    0    0    0    0 -0.00000000000E+00 -0.00000000000E+00 -0.74505805969E-08  0.93827000000E+00  0.93827000000E+00 0.  1.
     999902    2    1    2    0    0  0.16688580655E-01  0.13538841717E-01  0.13389443174E-01  0.10186103209E+01  0.10182955857E+01 0.  0.
     999903    2    3    3    0    0  0.34576015041E-02 -0.11843575090E+00 -0.40322564805E-01  0.12705138755E+00  0.21844078075E-01 0.  0.
         14    1    1    2    0    0 -0.16688580655E-01 -0.13538841717E-01 -0.13389443174E-01  0.25319679062E-01  0.00000000000E+00 0. -1.
     999901    1    3    3    0    0  0.13230979151E-01  0.13197459261E+00  0.53712007979E-01  0.89155893339E+00  0.88000000000E+00 0. -1.
        -11    1    4    4    0    0 -0.65179710465E-02 -0.53226882877E-01 -0.10459158025E-01  0.54637350914E-01  0.51100000000E-03 0.  1.
         11    1    4    4    0    0  0.99755725506E-02 -0.65208868020E-01 -0.29863406781E-01  0.72414036634E-01  0.51100000000E-03 0. -1.
</event>
<event>
 8    1  0.1114447E+005  0.1043930E+01  0.7957747E-01            NaN
         13   -1    0    0    0    0  0.00000000000E+00  0.00000000000E+00  0.74505805969E-08  0.10566000000E+00  0.10566000000E+00 0.  1.
     999900   -1    0    0    0    0 -0.00000000000E+00 -0.00000000000E+00 -0.74505805969E-08  0.93827000000E+00  0.93827000000E+00 0. -1.
     999902    2    1    2    0    0  0.20586188243E-01  0.71849011698E-02 -0.89582328040E-02  0.10203574760E+01  0.10200851509E+01 0.  0.
     999903    2    3    3    0    0 -0.26753136907E-02  0.12934010278E+00 -0.13026079380E-01  0.13160580198E+00  0.20356543935E-01 0.  0.
         14    1    1    2    0    0 -0.20586188243E-01 -0.71849011698E-02  0.89582328040E-02  0.23572523967E-01  0.00000000000E+00 0. -1.
     999901    1    3    3    0    0  0.23261501934E-01 -0.12215520161E+00  0.40678465757E-02  0.88875167405E+00  0.88000000000E+00 0.  1.
        -11    1    4    4    0    0  0.19626629413E-03  0.10399937891E+00 -0.18192024072E-01  0.10557992326E+00  0.51100000000E-03 0. -1.
         11    1    4    4    0    0 -0.28715799849E-02  0.25340723865E-01  0.51659446926E-02  0.26025878721E-01  0.51100000000E-03 0.  1.
</event>
<event>
 8    1  0.1114447E+005  0.1043930E+01  0.7957747E-01            NaN
         13   -1    0    0    0    0  0.00000000000E+00  0.00000000000E+00  0.74505805969E-08  0.10566000000E+00  0.10566000000E+00 0.  1.
     999900   -1    0    0    0    0 -0.00000000000E+00 -0.00000000000E+00 -0.74505805969E-08  0.93827000000E+00  0.93827000000E+00 0.  1.
     999902    2    1    2    0    0  0.56279542500E-02 -0.89934568331E-02 -0.20753447609E-01  0.10206220245E+01  0.10203558473E+01 0.  0.
     999903    2    3    3    0    0 -0.51056582225E-01 -0.71268490796E-01 -0.98177427879E-01  0.13321806391E+00  0.20549278273E-01 0.  0.
         14    1    1    2    0    0 -0.56279542500E-02  0.89934568331E-02  0.20753447609E-01  0.23307975513E-01  0.00000000000E+00 0.  1.
     999901    1    3    3    0    0  0.56684536475E-01  0.62275033963E-01  0.77423980270E-01  0.88740396058E+00  0.88000000000E+00 0. -1.
        -11    1    4    4    0    0 -0.39644531362E-01 -0.39362640918E-01 -0.66189404643E-01  0.86616423240E-01  0.51100000000E-03 0.  1.
         11    1    4    4    0    0 -0.11412050862E-01 -0.31905849878E-01 -0.31988023236E-01  0.46601640668E-01  0.51100000000E-03 0. -1.
</event>
<event>
 8    1  0.1114447E+005  0.1043930E+01  0.7957747E-01            NaN
         13   -1    0    0    0    0  0.00000000000E+00  0.00000000000E+00  0.74505805969E-08  0.10566000000E+00  0.10566000000E+00 0. -1.
     999900   -1    0    0    0    0 -0.00000000000E+00 -0.00000000000E+00 -0.74505805969E-08  0.93827000000E+00  0.93827000000E+00 0.  1.
     999902    2    1    2    0    0  0.19768231246E-01  0.20350189291E-02 -0.13562162357E-01  0.10198705628E+01  0.10195867341E+01 0.  0.
     999903    2    3    3    0    0 -0.34511833921E-01  0.12001582326E+00  0.27579960950E-01  0.12938840694E+00  0.19642838145E-01 0.  0.
         14    1    1    2    0    0 -0.19768231246E-01 -0.20350189291E-02  0.13562162357E-01  0.24059437159E-01  0.00000000000E+00 0. -1.
     999901    1    3    3    0    0  0.54280065166E-01 -0.11798080433E+00 -0.41142123307E-01  0.89048215590E+00  0.88000000000E+00 0.  1.
        -11    1    4    4    0    0 -0.77927394091E-02  0.62561675455E-01  0.13357574217E-01  0.64446690630E-01  0.51100000000E-03 0. -1.
         11    1    4    4    0    0 -0.26719094511E-01  0.57454147809E-01  0.14222386734E-01  0.64941716310E-01  0.51100000000E-03 0.  1.
</event>
<event>
 8    1  0.1114447E+005  0.1043930E+01  0.7957747E-01            NaN
         13   -1    0    0    0    0  0.00000000000E+00  0.00000000000E+00  0.74505805969E-08  0.10566000000E+00  0.10566000000E+00 0.  1.
     999900   -1    0    0    0    0 -0.00000000000E+00 -0.00000000000E+00 -0.74505805969E-08  0.93827000000E+00  0.93827000000E+00 0.  1.
     999902    2    1    2    0    0 -0.12440310030E-01 -0.27377232898E-01  0.16739211105E-01  0.10095137919E+01  0.10089269649E+01 0.  0.
     999903    2    3    3    0    0 -0.21038345066E-01  0.38009502032E-01 -0.10812867594E+00  0.11825550127E+00  0.20130047490E-01 0.  0.
         14    1    1    2    0    0  0.12440310030E-01  0.27377232898E-01 -0.16739211105E-01  0.34416208147E-01  0.00000000000E+00 0. -1.
     999901    1    3    3    0    0  0.85980350356E-02 -0.65386734931E-01  0.12486788705E+00  0.89125829058E+00  0.88000000000E+00 0. -1.
        -11    1    4    4    0    0 -0.50358707768E-02  0.41955922336E-02 -0.42091645256E-02  0.78064829261E-02  0.51100000000E-03 0. -1.
         11    1    4    4    0    0 -0.16002474289E-01  0.33813909799E-01 -0.10391951142E+00  0.11044901835E+00  0.51100000000E-03 0.  1.
</event>
<event>
 8    1  0.1114447E+005  0.1043930E+01  0.7957747E-01            NaN
         13   -1    0    0    0    0  0.00000000000E+00  0.00000000000E+00  0.74505805969E-08  0.10566000000E+00  0.10566000000E+00 0. -1.
     999900   -1    0    0    0    0 -0.00000000000E+00 -0.00000000000E+00 -0.74505805969E-08  0.93827000000E+00  0.93827000000E+00 0. -1.
     999902    2    1    2    0    0 -0.38477063276E-02 -0.22586509248E-01 -0.72154855427E-02  0.10199087911E+01  0.10196258744E+01 0.  0.
     999903    2    3    3    0    0  0.81096480385E-01  0.64627359768E-01 -0.74217422966E-01  0.12900417591E+00  0.19506839019E-01 0.  0.
         14    1    1    2    0    0  0.38477063276E-02  0.22586509248E-01  0.72154855427E-02  0.24021208871E-01  0.00000000000E+00 0.  1.
     999901    1    3    3    0    0 -0.84944186712E-01 -0.87213869016E-01  0.67001937423E-01  0.89090461522E+00  0.88000000000E+00 0.  1.
        -11    1    4    4    0    0  0.55795918477E-01  0.33590600663E-01 -0.40857900761E-01  0.76883952469E-01  0.51100000000E-03 0.  1.
         11    1    4    4    0    0  0.25300561908E-01  0.31036759105E-01 -0.33359522205E-01  0.52120223439E-01  0.51100000000E-03 0. -1.
</event>
<event>
 8    1  0.1564569E+005  0.1043930E+01  0.7957747E-01            NaN
         13   -1    0    0    0    0  0.00000000000E+00  0.00000000000E+00  0.74505805969E-08  0.10566000000E+00  0.10566000000E+00 0.  1.
     999900   -1    0    0    0    0 -0.00000000000E+00 -0.00000000000E+00 -0.74505805969E-08  0.93827000000E+00  0.93827000000E+00 0.  1.
     999902    2    1    2    0    0 -0.22445387667E-01 -0.37137163398E-02 -0.18165406238E-02  0.10211070524E+01  0.10208519606E+01 0.  0.
     999903    2    3    3    0    0 -0.46430393611E-01 -0.79849498103E-01 -0.93297135222E-01  0.13277117170E+00  0.19801636212E-01 0.  0.
         14    1    1    2    0    0  0.22445387667E-01  0.37137163398E-02  0.18165406238E-02  0.22822947584E-01  0.00000000000E+00 0.  1.
     999901    1    3    3    0    0  0.23985005944E-01  0.76135781763E-01  0.91480594598E-01  0.88833588071E+00  0.88000000000E+00 0. -1.
        -11    1    4    4    0    0 -0.18443438292E-01 -0.51120394796E-01 -0.54472699038E-01  0.76947977502E-01  0.51100000000E-03 0. -1.
         11    1    4    4    0    0 -0.27986955319E-01 -0.28729103307E-01 -0.38824436184E-01  0.55823194201E-01  0.51100000000E-03 0.  1.
</event>
<event>
 8    1  0.1114447E+005  0.1043930E+01  0.7957747E-01            NaN
         13   -1    0    0    0    0  0.00000000000E+00  0.00000000000E+00  0.74505805969E-08  0.10566000000E+00  0.10566000000E+00 0.  1.
     999900   -1    0    0    0    0 -0.00000000000E+00 -0.00000000000E+00 -0.74505805969E-08  0.93827000000E+00  0.93827000000E+00 0.  1.
     999902    2    1    2    0    0  0.15427148025E-01 -0.16362456405E-01  0.59524846226E-02  0.10206671767E+01  0.10204020416E+01 0.  0.
     999903    2    3    3    0    0  0.10168485056E+00  0.59065189318E-01 -0.54401994854E-01  0.13118846182E+00  0.20550670264E-01 0.  0.
         14    1    1    2    0    0 -0.15427148025E-01  0.16362456405E-01 -0.59524846226E-02  0.23262823323E-01  0.00000000000E+00 0. -1.
     999901    1    3    3    0    0 -0.86257702537E-01 -0.75427645723E-01  0.60354479476E-01  0.88947871485E+00  0.88000000000E+00 0.  1.
        -11    1    4    4    0    0  0.61027247287E-01  0.24553037403E-01 -0.25722106785E-01  0.70633309816E-01  0.51100000000E-03 0.  1.
         11    1    4    4    0    0  0.40657603275E-01  0.34512151916E-01 -0.28679888068E-01  0.60555152007E-01  0.51100000000E-03 0. -1.
</event>
<event>
 8    1  0.1114447E+005  0.1043930E+01  0.7957747E-01            NaN
         13   -1    0    0    0    0  0.00000000000E+00  0.00000000000E+00  0.74505805969E-08  0.10566000000E+00  0.10566000000E+00 0. -1.
     999900   -1    0    0    0    0 -0.00000000000E+00 -0.00000000000E+00 -0.74505805969E-08  0.93827000000E+00  0.93827000000E+00 0.  1.
     999902    2    1    2    0    0 -0.48287025565E-02 -0.15896830696E-01 -0.16647878289E-01  0.10204102754E+01  0.10201391830E+01 0.  0.
     999903    2    3    3    0    0 -0.12624199432E+00  0.11658341986E-01  0.23509637766E-01  0.13074005499E+00  0.21617142367E-01 0.  0.
         14    1    1    2    0    0  0.48287025565E-02  0.15896830696E-01  0.16647878289E-01  0.23519724618E-01  0.00000000000E+00 0. -1.
     999901    1    3    3    0    0  0.12141329176E+00 -0.27555172682E-01 -0.40157516056E-01  0.88967022039E+00  0.88000000000E+00 0.  1.
        -11    1    4    4    0    0 -0.10599506719E+00  0.48423599466E-02  0.12919899761E-01  0.10689054050E+00  0.51100000000E-03 0. -1.
         11    1    4    4    0    0 -0.20246927131E-01  0.68159820398E-02  0.10589738005E-01  0.23849514490E-01  0.51100000000E-03 0.  1.
</event>
<event>
 8    1  0.1114447E+005  0.1043930E+01  0.7957747E-01            NaN
         13   -1    0    0    0    0  0.00000000000E+00  0.00000000000E+00  0.74505805969E-08  0.10566000000E+00  0.10566000000E+00 0. -1.
     999900   -1    0    0    0    0 -0.00000000000E+00 -0.00000000000E+00 -0.74505805969E-08  0.93827000000E+00  0.93827000000E+00 0.  1.
     999902    2    1    2    0    0  0.99626348838E-02 -0.26748172137E-02  0.21017367423E-01  0.10205176427E+01  0.10202490483E+01 0.  0.
     999903    2    3    3    0    0  0.35615454914E-01 -0.83352157764E-01  0.95796823634E-01  0.13329790243E+00  0.19371539458E-01 0.  0.
         14    1    1    2    0    0 -0.99626348838E-02  0.26748172137E-02 -0.21017367423E-01  0.23412357300E-01  0.00000000000E+00 0.  1.
     999901    1    3    3    0    0 -0.25652820031E-01  0.80677340550E-01 -0.74779456211E-01  0.88721974027E+00  0.88000000000E+00 0.  1.
        -11    1    4    4    0    0  0.30142085488E-01 -0.47329179300E-01  0.54542411078E-01  0.78254279487E-01  0.51100000000E-03 0.  1.
         11    1    4    4    0    0  0.54733694263E-02 -0.36022978464E-01  0.41254412556E-01  0.55043622943E-01  0.51100000000E-03 0. -1.
</event>
<event>
 8    1  0.1114447E+005  0.1043930E+01  0.7957747E-01            NaN
         13   -1    0    0    0    0  0.00000000000E+00  0.00000000000E+00  0.74505805969E-08  0.10566000000E+00  0.10566000000E+00 0.  1.
     999900   -1    0    0    0    0 -0.00000000000E+00 -0.00000000000E+00 -0.74505805969E-08  0.93827000000E+00  0.93827000000E+00 0.  1.
     999902    2    1    2    0    0 -0.14654036818E-01 -0.10070064938E-01  0.16301298641E-01  0.10198078247E+01  0.10195224961E+01 0.  0.
     999903    2    3    3    0    0  0.89567901215E-01 -0.69558773426E-01 -0.57520966267E-01  0.12860030365E+00  0.19197516795E-01 0.  0.
         14    1    1    2    0    0  0.14654036818E-01  0.10070064938E-01 -0.16301298641E-01  0.24122175281E-01  0.00000000000E+00 0. -1.
     999901    1    3    3    0    0 -0.10422193803E+00  0.59488708488E-01  0.73822264909E-01  0.89120752106E+00  0.88000000000E+00 0. -1.
        -11    1    4    4    0    0  0.33119647627E-01 -0.29252405658E-01 -0.12566577406E-01  0.45943381290E-01  0.51100000000E-03 0.  1.
         11    1    4    4    0    0  0.56448253588E-01 -0.40306367769E-01 -0.44954388861E-01  0.82656922364E-01  0.51100000000E-03 0. -1.
</event>
<event>
 8    1  0.1114447E+005  0.1043930E+01  0.7957747E-01            NaN
         13   -1    0    0    0    0  0.00000000000E+00  0.00000000000E+00  0.74505805969E-08  0.10566000000E+00  0.10566000000E+00 0. -1.
     999900   -1    0    0    0    0 -0.00000000000E+00 -0.00000000000E+00 -0.74505805969E-08  0.93827000000E+00  0.93827000000E+00 0. -1.
     999902    2    1    2    0    0  0.23780065885E-02  0.23031008053E-01  0.37646067205E-02  0.10204724956E+01  0.10202028523E+01 0.  0.
     999903    2    3    3    0    0  0.77230118093E-01  0.46184856372E-01 -0.94068837555E-01  0.13159099504E+00  0.19227887996E-01 0.  0.
         14    1    1    2    0    0 -0.23780065885E-02 -0.23031008053E-01 -0.37646067205E-02  0.23457504365E-01  0.00000000000E+00 0.  1.
     999901    1    3    3    0    0 -0.74852111505E-01 -0.23153848319E-01  0.97833444276E-01  0.88888150060E+00  0.88000000000E+00 0.  1.
        -11    1    4    4    0    0  0.57256826864E-01  0.25884419824E-01 -0.56966921501E-01  0.84816500036E-01  0.51100000000E-03 0.  1.
         11    1    4    4    0    0  0.19973291230E-01  0.20300436548E-01 -0.37101916054E-01  0.46774494999E-01  0.51100000000E-03 0. -1.
</event>
<event>
 8    1  0.1114447E+005  0.1043930E+01  0.7957747E-01            NaN
         13   -1    0    0    0    0  0.00000000000E+00  0.00000000000E+00  0.74505805969E-08  0.10566000000E+00  0.10566000000E+00 0.  1.
     999900   -1    0    0    0    0 -0.00000000000E+00 -0.00000000000E+00 -0.74505805969E-08  0.93827000000E+00  0.93827000000E+00 0.  1.
     999902    2    1    2    0    0  0.12687310266E-01 -0.19590646161E-01  0.18386649142E-02  0.10205175685E+01  0.10202489724E+01 0.  0.
     999903    2    3    3    0    0  0.69697740483E-01  0.56686335495E-01 -0.92276324130E-01  0.13039061227E+00  0.20388136604E-01 0.  0.
         14    1    1    2    0    0 -0.12687310266E-01  0.19590646161E-01 -0.18386649142E-02  0.23412431473E-01  0.00000000000E+00 0. -1.
     999901    1    3    3    0    0 -0.57010430217E-01 -0.76276981657E-01  0.94114989044E-01  0.89012695625E+00  0.88000000000E+00 0. -1.
        -11    1    4    4    0    0  0.20299310394E-01  0.11597309932E-01 -0.13314875954E-01  0.26909229695E-01  0.51100000000E-03 0. -1.
         11    1    4    4    0    0  0.49398430089E-01  0.45089025563E-01 -0.78961448176E-01  0.10348138258E+00  0.51100000000E-03 0.  1.
</event>
<event>
 8    1  0.1114447E+005  0.1043930E+01  0.7957747E-01            NaN
         13   -1    0    0    0    0  0.00000000000E+00  0.00000000000E+00  0.74505805969E-08  0.10566000000E+00  0.10566000000E+00 0. -1.
     999900   -1    0    0    0    0 -0.00000000000E+00 -0.00000000000E+00 -0.74505805969E-08  0.93827000000E+00  0.93827000000E+00 0. -1.
     999902    2    1    2    0    0 -0.15751127305E-01  0.12188786065E-01 -0.11412026767E-02  0.10239808932E+01  0.10237865514E+01 0.  0.
     999903    2    3    3    0    0 -0.12100914242E+00  0.55593466169E-01 -0.21541597853E-01  0.13641152010E+00  0.20253798366E-01 0.  0.
         14    1    1    2    0    0  0.15751127305E-01 -0.12188786065E-01  0.11412026767E-02  0.19949106764E-01  0.00000000000E+00 0.  1.
     999901    1    3    3    0    0  0.10525801512E+00 -0.43404680104E-01  0.20400395177E-01  0.88756937313E+00  0.88000000000E+00 0.  1.
        -11    1    4    4    0    0 -0.87427794727E-01  0.44132339641E-01 -0.74169670656E-02  0.98216878460E-01  0.51100000000E-03 0. -1.
         11    1    4    4    0    0 -0.33581347695E-01  0.11461126528E-01 -0.14124630788E-01  0.38194641642E-01  0.51100000000E-03 0.  1.
</event>
<event>
 8    1  0.1114447E+005  0.1043930E+01  0.7957747E-01            NaN
         13   -1    0    0    0    0  0.00000000000E+00  0.00000000000E+00  0.74505805969E-08  0.10566000000E+00  0.10566000000E+00 0. -1.
     999900   -1    0    0    0    0 -0.00000000000E+00 -0.00000000000E+00 -0.74505805969E-08  0.93827000000E+00  0.93827000000E+00 0. -1.
     999902    2    1    2    0    0 -0.16868547258E-01 -0.10217731509E-01 -0.13094621274E-01  0.10202568289E+01  0.10199821459E+01 0.  0.
     999903    2    3    3    0    0 -0.33884341835E-01 -0.38449310385E-01  0.11849765208E+00  0.12986192453E+00  0.13997421350E-01 0.  0.
         14    1    1    2    0    0  0.16868547258E-01  0.10217731509E-01  0.13094621274E-01  0.23673171103E-01  0.00000000000E+00 0. -1.
     999901    1    3    3    0    0  0.17015794577E-01  0.28231578875E-01 -0.13159227335E+00  0.89039490436E+00  0.88000000000E+00 0. -1.
        -11    1    4    4    0    0 -0.14365668786E-01 -0.24219472675E-01  0.74853769834E-01  0.79976892135E-01  0.51100000000E-03 0. -1.
         11    1    4    4    0    0 -0.19518673049E-01 -0.14229837709E-01  0.43643882245E-01  0.49885032397E-01  0.51100000000E-03 0.  1.
</event>
<event>
 8    1  0.1114447E+005  0.1043930E+01  0.7957747E-01            NaN
         13   -1    0    0    0    0  0.00000000000E+00  0.00000000000E+00  0.74505805969E-08  0.10566000000E+00  0.10566000000E+00 0.  1.
     999900   -1    0    0    0    0 -0.00000000000E+00 -0.00000000000E+00 -0.74505805969E-08  0.93827000000E+00  0.93827000000E+00 0. -1.
     999902    2    1    2    0    0  0.45125199899E-03  0.19473317422E-01 -0.12934507704E-01  0.10205480581E+01  0.10202801692E+01 0.  0.
     999903    2    3    3    0    0 -0.30663323569E-01 -0.32157946002E-01  0.11907344331E+00  0.12866241330E+00  0.20028948835E-01 0.  0.
         14    1    1    2    0    0 -0.45125199899E-03 -0.19473317422E-01  0.12934507704E-01  0.23381941949E-01  0.00000000000E+00 0.  1.
     999901    1    3    3    0    0  0.31114575568E-01  0.51631263424E-01 -0.13200795102E+00  0.89188564475E+00  0.88000000000E+00 0. -1.
        -11    1    4    4    0    0 -0.28082453319E-01 -0.30628003711E-01  0.86686344185E-01  0.96132628097E-01  0.51100000000E-03 0.  1.
         11    1    4    4    0    0 -0.25808702496E-02 -0.15299422907E-02  0.32387099128E-01  0.32529785206E-01  0.51100000000E-03 0. -1.
</event>
<event>
 8    1  0.1114447E+005  0.1043930E+01  0.7957747E-01            NaN
         13   -1    0    0    0    0  0.00000000000E+00  0.00000000000E+00  0.74505805969E-08  0.10566000000E+00  0.10566000000E+00 0. -1.
     999900   -1    0    0    0    0 -0.00000000000E+00 -0.00000000000E+00 -0.74505805969E-08  0.93827000000E+00  0.93827000000E+00 0.  1.
     999902    2    1    2    0    0 -0.16224660423E-01 -0.31166719456E-02  0.14419386916E-01  0.10220012069E+01  0.10217659198E+01 0.  0.
     999903    2    3    3    0    0 -0.33485840389E-01  0.54828073234E-01 -0.11230092061E+00  0.13087070117E+00  0.19703414249E-01 0.  0.
         14    1    1    2    0    0  0.16224660423E-01  0.31166719456E-02 -0.14419386916E-01  0.21928793147E-01  0.00000000000E+00 0.  1.
     999901    1    3    3    0    0  0.17261179967E-01 -0.57944745179E-01  0.12672030752E+00  0.89113050569E+00  0.88000000000E+00 0. -1.
        -11    1    4    4    0    0 -0.12241102679E-01  0.85170988083E-02 -0.15727921592E-01  0.21679811012E-01  0.51100000000E-03 0.  1.
         11    1    4    4    0    0 -0.21244737710E-01  0.46310974425E-01 -0.96572999016E-01  0.10919089015E+00  0.51100000000E-03 0. -1.
</event>
<event>
 8    1  0.1114447E+005  0.1043930E+01  0.7957747E-01            NaN
         13   -1    0    0    0    0  0.00000000000E+00  0.00000000000E+00  0.74505805969E-08  0.10566000000E+00  0.10566000000E+00 0.  1.
     999900   -1    0    0    0    0 -0.00000000000E+00 -0.00000000000E+00 -0.74505805969E-08  0.93827000000E+00  0.93827000000E+00 0. -1.
     999902    2    1    2    0    0  0.15284035222E-01 -0.44133841428E-03 -0.18639001309E-01  0.10198217259E+01  0.10195367299E+01 0.  0.
     999903    2    3    3    0    0  0.14877162730E-01  0.12196972543E+00 -0.41342616386E-01  0.13105849066E+00  0.19213853126E-01 0.  0.
         14    1    1    2    0    0 -0.15284035222E-01  0.44133841428E-03  0.18639001309E-01  0.24108274141E-01  0.00000000000E+00 0.  1.
     999901    1    3    3    0    0  0.40687249263E-03 -0.12241106385E+00  0.22703615077E-01  0.88876323520E+00  0.88000000000E+00 0.  1.
        -11    1    4    4    0    0 -0.21496765868E-03  0.20782439410E-01 -0.14312428958E-01  0.25240101874E-01  0.51100000000E-03 0. -1.
         11    1    4    4    0    0  0.15092130388E-01  0.10118728602E+00 -0.27030187428E-01  0.10581838879E+00  0.51100000000E-03 0.  1.
</event>
<event>
 8    1  0.1281896E+005  0.1043930E+01  0.7957747E-01            NaN
         13   -1    0    0    0    0  0.00000000000E+00  0.00000000000E+00  0.74505805969E-08  0.10566000000E+00  0.10566000000E+00 0.  1.
     999900   -1    0    0    0    0 -0.00000000000E+00 -0.00000000000E+00 -0.74505805969E-08  0.93827000000E+00  0.93827000000E+00 0. -1.
     999902    2    1    2    0    0  0.18259586339E-02 -0.29082612727E-02 -0.23351495674E-01  0.10203273633E+01  0.10200543338E+01 0.  0.
     999903    2    3    3    0    0  0.74791290116E-01 -0.11016049336E-01 -0.10765359845E+00  0.13325548327E+00  0.21275247184E-01 0.  0.
         14    1    1    2    0    0 -0.18259586339E-02  0.29082612727E-02  0.23351495674E-01  0.23602636691E-01  0.00000000000E+00 0.  1.
     999901    1    3    3    0    0 -0.72965331482E-01  0.81077880634E-02  0.84302102773E-01  0.88707188004E+00  0.88000000000E+00 0.  1.
        -11    1    4    4    0    0  0.44905759760E-01 -0.13453917675E-01 -0.51830881957E-01  0.69887313626E-01  0.51100000000E-03 0.  1.
         11    1    4    4    0    0  0.29885530355E-01  0.24378683390E-02 -0.55822716489E-01  0.63368169643E-01  0.51100000000E-03 0. -1.
</event>
<event>
 8    1  0.1223366E+005  0.1043930E+01  0.7957747E-01            NaN
         13   -1    0    0    0    0  0.00000000000E+00  0.00000000000E+00  0.74505805969E-08  0.10566000000E+00  0.10566000000E+00 0. -1.
     999900   -1    0    0    0    0 -0.00000000000E+00 -0.00000000000E+00 -0.74505805969E-08  0.93827000000E+00  0.93827000000E+00 0. -1.
     999902    2    1    2    0    0 -0.16797440836E-01 -0.57087070499E-02 -0.16031951170E-01  0.10200183540E+01  0.10197380427E+01 0.  0.
     999903    2    3    3    0    0 -0.72352848884E-01  0.11181454010E-03  0.10599191554E+00  0.12984415429E+00  0.19755277723E-01 0.  0.
         14    1    1    2    0    0  0.16797440836E-01  0.57087070499E-02  0.16031951170E-01  0.23911645973E-01  0.00000000000E+00 0. -1.
     999901    1    3    3    0    0  0.55555408048E-01 -0.58205215900E-02 -0.12202386671E+00  0.89017419974E+00  0.88000000000E+00 0. -1.
        -11    1    4    4    0    0 -0.22745279825E-01  0.92256526526E-02  0.35732254482E-01  0.43353379944E-01  0.51100000000E-03 0. -1.
         11    1    4    4    0    0 -0.49607569059E-01 -0.91138381125E-02  0.70259661062E-01  0.86490774344E-01  0.51100000000E-03 0.  1.
</event>
<event>
 8    1  0.1114447E+005  0.1043930E+01  0.7957747E-01            NaN
         13   -1    0    0    0    0  0.00000000000E+00  0.00000000000E+00  0.74505805969E-08  0.10566000000E+00  0.10566000000E+00 0.  1.
     999900   -1    0    0    0    0 -0.00000000000E+00 -0.00000000000E+00 -0.74505805969E-08  0.93827000000E+00  0.93827000000E+00 0. -1.
     999902    2    1    2    0    0 -0.21173067207E-01 -0.13796017252E-01 -0.48513340393E-02  0.10181974465E+01  0.10178722296E+01 0.  0.
     999903    2    3    3    0    0 -0.75967383820E-01 -0.10614926584E+00 -0.36199713067E-02  0.13166879164E+00  0.16877691072E-01 0.  0.
         14    1    1    2    0    0  0.21173067207E-01  0.13796017252E-01  0.48513340393E-02  0.25732553487E-01  0.00000000000E+00 0.  1.
     999901    1    3    3    0    0  0.54794316613E-01  0.92353248591E-01 -0.12313627326E-02  0.88652865487E+00  0.88000000000E+00 0. -1.
        -11    1    4    4    0    0 -0.59637860850E-01 -0.85391429974E-01  0.38145483336E-02  0.10422659286E+00  0.51100000000E-03 0.  1.
         11    1    4    4    0    0 -0.16329522971E-01 -0.20757835870E-01 -0.74345196403E-02  0.27442198777E-01  0.51100000000E-03 0. -1.
</event>
<event>
 8    1  0.1114447E+005  0.1043930E+01  0.7957747E-01            NaN
         13   -1    0    0    0    0  0.00000000000E+00  0.00000000000E+00  0.74505805969E-08  0.10566000000E+00  0.10566000000E+00 0. -1.
     999900   -1    0    0    0    0 -0.00000000000E+00 -0.00000000000E+00 -0.74505805969E-08  0.93827000000E+00  0.93827000000E+00 0. -1.
     999902    2    1    2    0    0 -0.56092615580E-02 -0.20872536211E-01 -0.96545300502E-02  0.10202585714E+01  0.10199839292E+01 0.  0.
     999903    2    3    3    0    0 -0.44185320511E-01  0.42252008140E-01  0.11163041743E+00  0.12886479816E+00  0.20179478895E-01 0.  0.
         14    1    1    2    0    0  0.56092615580E-02  0.20872536211E-01  0.96545300502E-02  0.23671428634E-01  0.00000000000E+00 0.  1.
     999901    1    3    3    0    0  0.38576058953E-01 -0.63124544351E-01 -0.12128494748E+00  0.89139377321E+00  0.88000000000E+00 0. -1.
        -11    1    4    4    0    0 -0.34078150677E-01  0.35156675724E-01  0.69909860454E-01  0.85351988326E-01  0.51100000000E-03 0.  1.
         11    1    4    4    0    0 -0.10107169834E-01  0.70953324155E-02  0.41720556978E-01  0.43512809834E-01  0.51100000000E-03 0. -1.
</event>
<event>
 8    1  0.1114447E+005  0.1043930E+01  0.7957747E-01            NaN
         13   -1    0    0    0    0  0.00000000000E+00  0.00000000000E+00  0.74505805969E-08  0.10566000000E+00  0.10566000000E+00 0. -1.
     999900   -1    0    0    0    0 -0.00000000000E+00 -0.00000000000E+00 -0.74505805969E-08  0.93827000000E+00  0.93827000000E+00 0. -1.
     999902    2    1    2    0    0 -0.17703911602E-01  0.15015964535E-01 -0.34731673062E-02  0.10204572377E+01  0.10201872394E+01 0.  0.
     999903    2    3    3    0    0 -0.91385135608E-01 -0.34156846121E-01 -0.86825699643E-01  0.13209102231E+00  0.19783905290E-01 0.  0.
         14    1    1    2    0    0  0.17703911602E-01 -0.15015964535E-01  0.34731673062E-02  0.23472762259E-01  0.00000000000E+00 0.  1.
     999901    1    3    3    0    0  0.73681224006E-01  0.49172810656E-01  0.83352532337E-01  0.88836621543E+00  0.88000000000E+00 0.  1.
        -11    1    4    4    0    0 -0.59308111754E-01 -0.31709961907E-01 -0.55706182940E-01  0.87329340675E-01  0.51100000000E-03 0.  1.
         11    1    4    4    0    0 -0.32077023854E-01 -0.24468842141E-02 -0.31119516703E-01  0.44761681632E-01  0.51100000000E-03 0. -1.
</event>
<event>
 8    1  0.1114447E+005  0.1043930E+01  0.7957747E-01            NaN
         13   -1    0    0    0    0  0.00000000000E+00  0.00000000000E+00  0.74505805969E-08  0.10566000000E+00  0.10566000000E+00 0. -1.
     999900   -1    0    0    0    0 -0.00000000000E+00 -0.00000000000E+00 -0.74505805969E-08  0.93827000000E+00  0.93827000000E+00 0. -1.
     999902    2    1    2    0    0 -0.26398308002E-02  0.31313588638E-02  0.22959928075E-01  0.10206076414E+01  0.10203411318E+01 0.  0.
     999903    2    3    3    0    0  0.11558307245E+00  0.32184922937E-02  0.60747665727E-01  0.13189814127E+00  0.18358525226E-01 0.  0.
         14    1    1    2    0    0  0.26398308002E-02 -0.31313588638E-02 -0.22959928075E-01  0.23322358633E-01  0.00000000000E+00 0.  1.
     999901    1    3    3    0    0 -0.11822290325E+00 -0.87133429912E-04 -0.37787737651E-01  0.88870950010E+00  0.88000000000E+00 0. -1.
        -11    1    4    4    0    0  0.60035625875E-01 -0.23343555308E-02  0.22187227266E-01  0.64048885741E-01  0.51100000000E-03 0. -1.
         11    1    4    4    0    0  0.55547446580E-01  0.55528478246E-02  0.38560438461E-01  0.67849255529E-01  0.51100000000E-03 0.  1.
</event>
<event>
 8    1  0.1114447E+005  0.1043930E+01  0.7957747E-01            NaN
         13   -1    0    0    0    0  0.00000000000E+00  0.00000000000E+00  0.74505805969E-08  0.10566000000E+00  0.10566000000E+00 0.  1.
     999900   -1    0    0    0    0 -0.00000000000E+00 -0.00000000000E+00 -0.74505805969E-08  0.93827000000E+00  0.93827000000E+00 0.  1.
     999902    2    1    2    0    0  0.62743339469E-02  0.21779911928E-01  0.78077483130E-02  0.10199572496E+01  0.10196754867E+01 0.  0.
     999903    2    3    3    0    0 -0.80045957734E-01 -0.97033914310E-01  0.10762927049E-01  0.12778201389E+00  0.19734908121E-01 0.  0.
         14    1    1    2    0    0 -0.62743339469E-02 -0.21779911928E-01 -0.78077483130E-02  0.23972750443E-01  0.00000000000E+00 0. -1.
     999901    1    3    3    0    0  0.86320291681E-01  0.11881382624E+00 -0.29551787355E-02  0.89217523567E+00  0.88000000000E+00 0.  1.
        -11    1    4    4    0    0 -0.57581411910E-01 -0.76850208577E-01  0.98825631148E-03  0.96035469111E-01  0.51100000000E-03 0. -1.
         11    1    4    4    0    0 -0.22464545824E-01 -0.20183705733E-01  0.97746707370E-02  0.31746544776E-01  0.51100000000E-03 0.  1.
</event>
<event>
 8    1  0.1114447E+005  0.1043930E+01  0.7957747E-01            NaN
         13   -1    0    0    0    0  0.00000000000E+00  0.00000000000E+00  0.74505805969E-08  0.10566000000E+00  0.10566000000E+00 0. -1.
     999900   -1    0    0    0    0 -0.00000000000E+00 -0.00000000000E+00 -0.74505805969E-08  0.93827000000E+00  0.93827000000E+00 0. -1.
     999902    2    1    2    0    0 -0.16592826795E-01  0.20536159862E-01  0.87441772871E-04  0.10175280416E+01  0.10171854560E+01 0.  0.
     999903    2    3    3    0    0  0.10859179937E+00 -0.17224646479E-01  0.58469526649E-01  0.12595329038E+00  0.18885933234E-01 0.  0.
         14    1    1    2    0    0  0.16592826795E-01 -0.20536159862E-01 -0.87441772871E-04  0.26401958431E-01  0.00000000000E+00 0. -1.
     999901    1    3    3    0    0 -0.12518462617E+00  0.37760806341E-01 -0.58382084876E-01  0.89157475119E+00  0.88000000000E+00 0. -1.
        -11    1    4    4    0    0  0.85939558531E-01 -0.14223607833E-01  0.37161902589E-01  0.94705791087E-01  0.51100000000E-03 0.  1.
         11    1    4    4    0    0  0.22652240839E-01 -0.30010386468E-02  0.21307624060E-01  0.31247499293E-01  0.51100000000E-03 0. -1.
</event>
<event>
 8    1  0.1114447E+005  0.1043930E+01  0.7957747E-01            NaN
         13   -1    0    0    0    0  0.00000000000E+00  0.00000000000E+00  0.74505805969E-08  0.10566000000E+00  0.10566000000E+00 0.  1.
     999900   -1    0    0    0    0 -0.00000000000E+00 -0.00000000000E+00 -0.74505805969E-08  0.93827000000E+00  0.93827000000E+00 0. -1.
     999902    2    1    2    0    0  0.20655748042E-01  0.63510569375E-02 -0.90384144428E-02  0.10205058930E+01  0.10202370259E+01 0.  0.
     999903    2    3    3    0    0 -0.83104131598E-01  0.24806340260E-01 -0.95224937295E-01  0.13003701271E+00  0.17893708012E-01 0.  0.
         14    1    1    2    0    0 -0.20655748042E-01 -0.63510569375E-02  0.90384144428E-02  0.23424106964E-01  0.00000000000E+00 0.  1.
     999901    1    3    3    0    0  0.10375987964E+00 -0.18455283323E-01  0.86186522852E-01  0.89046888032E+00  0.88000000000E+00 0.  1.
        -11    1    4    4    0    0 -0.18952999142E-01  0.11881125594E-01 -0.17335440038E-01  0.28304697917E-01  0.51100000000E-03 0.  1.
         11    1    4    4    0    0 -0.64151132456E-01  0.12925214666E-01 -0.77889497257E-01  0.10173231479E+00  0.51100000000E-03 0. -1.
</event>
<event>
 8    1  0.1114447E+005  0.1043930E+01  0.7957747E-01            NaN
         13   -1    0    0    0    0  0.00000000000E+00  0.00000000000E+00  0.74505805969E-08  0.10566000000E+00  0.10566000000E+00 0. -1.
     999900   -1    0    0    0    0 -0.00000000000E+00 -0.00000000000E+00 -0.74505805969E-08  0.93827000000E+00  0.93827000000E+00 0. -1.
     999902    2    1    2    0    0  0.14173847303E-01 -0.16485836890E-01  0.46685266696E-02  0.10216931858E+01  0.10214511687E+01 0.  0.
     999903    2    3    3    0    0  0.12003975005E+00  0.50467801581E-01 -0.15467221766E-01  0.13259486308E+00  0.19637264991E-01 0.  0.
         14    1    1    2    0    0 -0.14173847303E-01  0.16485836890E-01 -0.46685266696E-02  0.22236814219E-01  0.00000000000E+00 0. -1.
     999901    1    3    3    0    0 -0.10586590275E+00 -0.66953638471E-01  0.20135748436E-01  0.88909832270E+00  0.88000000000E+00 0.  1.
        -11    1    4    4    0    0  0.59524378906E-01  0.14706008786E-01 -0.49130342765E-02  0.61512741813E-01  0.51100000000E-03 0. -1.
         11    1    4    4    0    0  0.60515371147E-01  0.35761792795E-01 -0.10554187490E-01  0.71082121265E-01  0.51100000000E-03 0.  1.
</event>
<event>
 8    1  0.1114447E+005  0.1043930E+01  0.7957747E-01            NaN
         13   -1    0    0    0    0  0.00000000000E+00  0.00000000000E+00  0.74505805969E-08  0.10566000000E+00  0.10566000000E+00 0.  1.
     999900   -1    0    0    0    0 -0.00000000000E+00 -0.00000000000E+00 -0.74505805969E-08  0.93827000000E+00  0.93827000000E+00 0. -1.
     999902    2    1    2    0    0  0.19060554390E-02 -0.20188725310E-01  0.11680417806E-01  0.10205280805E+01  0.10202597283E+01 0.  0.
     999903    2    3    3    0    0 -0.94209871933E-01 -0.90222895622E-01 -0.92738198232E-02  0.13228141622E+00  0.19917290930E-01 0.  0.
         14    1    1    2    0    0 -0.19060554390E-02  0.20188725310E-01 -0.11680417806E-01  0.23401919517E-01  0.00000000000E+00 0. -1.
     999901    1    3    3    0    0  0.96115927372E-01  0.70034170313E-01  0.20954237629E-01  0.88824666427E+00  0.88000000000E+00 0.  1.
        -11    1    4    4    0    0 -0.27521543946E-01 -0.22208553676E-01 -0.10908228287E-01  0.37012238556E-01  0.51100000000E-03 0. -1.
         11    1    4    4    0    0 -0.66688327988E-01 -0.68014341946E-01  0.16344084638E-02  0.95269177661E-01  0.51100000000E-03 0.  1.
</event>
<event>
 8    1  0.1114447E+005  0.1043930E+01  0.7957747E-01            NaN
         13   -1    0    0    0    0  0.00000000000E+00  0.00000000000E+00  0.74505805969E-08  0.10566000000E+00  0.10566000000E+00 0. -1.
     999900   -1    0    0    0    0 -0.00000000000E+00 -0.00000000000E+00 -0.74505805969E-08  0.93827000000E+00  0.93827000000E+00 0.  1.
     999902    2    1    2    0    0  0.12187942468E-02  0.23038980815E-01 -0.69385074549E-02  0.10198380308E+01  0.10195534248E+01 0.  0.
     999903    2    3    3    0    0 -0.27779467500E-01 -0.95105974232E-01 -0.78916755196E-01  0.12855805357E+00  0.21965284820E-01 0.  0.
         14    1    1    2    0    0 -0.12187942468E-02 -0.23038980815E-01  0.69385074549E-02  0.24091969245E-01  0.00000000000E+00 0. -1.
     999901    1    3    3    0    0  0.28998261747E-01  0.11814495505E+00  0.71978247741E-01  0.89127997719E+00  0.88000000000E+00 0. -1.
        -11    1    4    4    0    0 -0.22049895436E-01 -0.39210401946E-01 -0.40079955485E-01  0.60252115831E-01  0.51100000000E-03 0. -1.
         11    1    4    4    0    0 -0.57295720642E-02 -0.55895572286E-01 -0.38836799711E-01  0.68305937736E-01  0.51100000000E-03 0.  1.
</event>
<event>
 8    1  0.1114447E+005  0.1043930E+01  0.7957747E-01            NaN
         13   -1    0    0    0    0  0.00000000000E+00  0.00000000000E+00  0.74505805969E-08  0.10566000000E+00  0.10566000000E+00 0.  1.
     999900   -1    0    0    0    0 -0.00000000000E+00 -0.00000000000E+00 -0.74505805969E-08  0.93827000000E+00  0.93827000000E+00 0. -1.
     999902    2    1    2    0    0  0.92449980881E-02 -0.21246689282E-01  0.54070673113E-02  0.10201365519E+01  0.10198590375E+01 0.  0.
     999903    2    3    3    0    0 -0.64390380405E-01 -0.52916453870E-01 -0.98303020130E-01  0.13042821476E+00  0.20044033034E-01 0.  0.
         14    1    1    2    0    0 -0.92449980881E-02  0.21246689282E-01 -0.54070673113E-02  0.23793448090E-01  0.00000000000E+00 0. -1.
     999901    1    3    3    0    0  0.73635378493E-01  0.31669764589E-01  0.10371008744E+00  0.88970833715E+00  0.88000000000E+00 0.  1.
        -11    1    4    4    0    0 -0.18773777024E-01 -0.26731012704E-01 -0.31284020774E-01  0.45232209991E-01  0.51100000000E-03 0. -1.
         11    1    4    4    0    0 -0.45616603381E-01 -0.26185441167E-01 -0.67018999356E-01  0.85196004770E-01  0.51100000000E-03 0.  1.
</event>
<event>
 8    1  0.1114447E+005  0.1043930E+01  0.7957747E-01            NaN
         13   -1    0    0    0    0  0.00000000000E+00  0.00000000000E+00  0.74505805969E-08  0.10566000000E+00  0.10566000000E+00 0. -1.
     999900   -1    0    0    0    0 -0.00000000000E+00 -0.00000000000E+00 -0.74505805969E-08  0.93827000000E+00  0.93827000000E+00 0.  1.
     999902    2    1    2    0    0 -0.11306521760E-01  0.20402486021E-01  0.30851944053E-02  0.10204009266E+01  0.10201296161E+01 0.  0.
     999903    2    3    3    0    0 -0.23346249838E-01  0.42696113194E-01  0.12110475350E+00  0.13216076922E+00  0.20787066583E-01 0.  0.
         14    1    1    2    0    0  0.11306521760E-01 -0.20402486021E-01 -0.30851944053E-02  0.23529073391E-01  0.00000000000E+00 0. -1.
     999901    1    3    3    0    0  0.12039728078E-01 -0.22293627173E-01 -0.11801955910E+00  0.88824015739E+00  0.88000000000E+00 0.  1.
        -11    1    4    4    0    0 -0.26400122604E-02  0.61912783801E-02  0.42685331609E-01  0.43215740746E-01  0.51100000000E-03 0.  1.
         11    1    4    4    0    0 -0.20706237578E-01  0.36504834814E-01  0.78419421894E-01  0.88945028476E-01  0.51100000000E-03 0. -1.
</event>
<event>
 8    1  0.1114447E+005  0.1043930E+01  0.7957747E-01            NaN
         13   -1    0    0    0    0  0.00000000000E+00  0.00000000000E+00  0.74505805969E-08  0.10566000000E+00  0.10566000000E+00 0. -1.
     999900   -1    0    0    0    0 -0.00000000000E+00 -0.00000000000E+00 -0.74505805969E-08  0.93827000000E+00  0.93827000000E+00 0.  1.
     999902    2    1    2    0    0 -0.21177818623E-01 -0.96901296026E-02 -0.60344631735E-02  0.10198714597E+01  0.10195876525E+01 0.  0.
     999903    2    3    3    0    0  0.10672614594E+00 -0.63098419379E-01 -0.28512784138E-01  0.12873895306E+00  0.19719493388E-01 0.  0.
         14    1    1    2    0    0  0.21177818623E-01  0.96901296026E-02  0.60344631735E-02  0.24058540254E-01  0.00000000000E+00 0. -1.
     999901    1    3    3    0    0 -0.12790396456E+00  0.53408289776E-01  0.22478320964E-01  0.89113250669E+00  0.88000000000E+00 0.  1.
        -11    1    4    4    0    0  0.48500852135E-01 -0.26175271162E-01 -0.22494185769E-01  0.59529211255E-01  0.51100000000E-03 0. -1.
         11    1    4    4    0    0  0.58225293804E-01 -0.36923148217E-01 -0.60185983692E-02  0.69209741801E-01  0.51100000000E-03 0.  1.
</event>
<event>
 8    1  0.1114447E+005  0.1043930E+01  0.7957747E-01            NaN
         13   -1    0    0    0    0  0.00000000000E+00  0.00000000000E+00  0.74505805969E-08  0.10566000000E+00  0.10566000000E+00 0. -1.
     999900   -1    0    0    0    0 -0.00000000000E+00 -0.00000000000E+00 -0.74505805969E-08  0.93827000000E+00  0.93827000000E+00 0.  1.
     999902    2    1    2    0    0  0.19354784566E-02 -0.23480498254E-02 -0.26353516729E-01  0.10174013879E+01  0.10170554640E+01 0.  0.
     999903    2    3    3    0    0 -0.19331730290E-01 -0.54864906773E-01 -0.11587879387E+00  0.13104644227E+00  0.19010559495E-01 0.  0.
         14    1    1    2    0    0 -0.19354784566E-02  0.23480498254E-02  0.26353516729E-01  0.26528612079E-01  0.00000000000E+00 0. -1.
     999901    1    3    3    0    0  0.21267208747E-01  0.52516856947E-01  0.89525277139E-01  0.88635494565E+00  0.88000000000E+00 0. -1.
        -11    1    4    4    0    0 -0.12169386620E-01 -0.10497433861E-01 -0.35047395499E-01  0.38559968110E-01  0.51100000000E-03 0. -1.
         11    1    4    4    0    0 -0.71623436704E-02 -0.44367472912E-01 -0.80831398369E-01  0.92486474161E-01  0.51100000000E-03 0.  1.
</event>
<event>
 8    1  0.1114447E+005  0.1043930E+01  0.7957747E-01            NaN
         13   -1    0    0    0    0  0.00000000000E+00  0.00000000000E+00  0.74505805969E-08  0.10566000000E+00  0.10566000000E+00 0.  1.
     999900   -1    0    0    0    0 -0.00000000000E+00 -0.00000000000E+00 -0.74505805969E-08  0.93827000000E+00  0.93827000000E+00 0. -1.
     999902    2    1    2    0    0  0.20330081141E-01 -0.11239959571E-01 -0.94716810169E-02  0.10188429190E+01  0.10185340112E+01 0.  0.
     999903    2    3    3    0    0 -0.11941435032E+00  0.22730541258E-01 -0.30528236174E-01  0.12692034416E+00  0.20008397925E-01 0.  0.
         14    1    1    2    0    0 -0.20330081141E-01  0.11239959571E-01  0.94716810169E-02  0.25087080971E-01  0.00000000000E+00 0.  1.
     999901    1    3    3    0    0  0.13974443147E+00 -0.33970500829E-01  0.21056555157E-01  0.89192257487E+00  0.88000000000E+00 0. -1.
        -11    1    4    4    0    0 -0.14749164087E-01  0.46166531162E-02 -0.10851542363E-01  0.18890961329E-01  0.51100000000E-03 0.  1.
         11    1    4    4    0    0 -0.10466518624E+00  0.18113888142E-01 -0.19676693811E-01  0.10802938283E+00  0.51100000000E-03 0. -1.
</event>
<event>
 8    1  0.1114447E+005  0.1043930E+01  0.7957747E-01            NaN
         13   -1    0    0    0    0  0.00000000000E+00  0.00000000000E+00  0.74505805969E-08  0.10566000000E+00  0.10566000000E+00 0. -1.
     999900   -1    0    0    0    0 -0.00000000000E+00 -0.00000000000E+00 -0.74505805969E-08  0.93827000000E+00  0.93827000000E+00 0.  1.
     999902    2    1    2    0    0  0.19477025034E-01  0.63496942917E-02 -0.11740703667E-01  0.10203181969E+01  0.10200449528E+01 0.  0.
     999903    2    3    3    0    0  0.60850779942E-01  0.10461677581E+00 -0.50766629462E-01  0.13302386595E+00  0.21693571473E-01 0.  0.
         14    1    1    2    0    0 -0.19477025034E-01 -0.63496942917E-02  0.11740703667E-01  0.23611803073E-01  0.00000000000E+00 0. -1.
     999901    1    3    3    0    0 -0.41373754908E-01 -0.98267081521E-01  0.39025925795E-01  0.88729433098E+00  0.88000000000E+00 0.  1.
        -11    1    4    4    0    0  0.24148279244E-01  0.29165506861E-01 -0.24498153279E-01  0.45101960223E-01  0.51100000000E-03 0.  1.
         11    1    4    4    0    0  0.36702500698E-01  0.75451268952E-01 -0.26268476183E-01  0.87921905723E-01  0.51100000000E-03 0. -1.
</event>
<event>
 8    1  0.1114447E+005  0.1043930E+01  0.7957747E-01            NaN
         13   -1    0    0    0    0  0.00000000000E+00  0.00000000000E+00  0.74505805969E-08  0.10566000000E+00  0.10566000000E+00 0.  1.
     999900   -1    0    0    0    0 -0.00000000000E+00 -0.00000000000E+00 -0.74505805969E-08  0.93827000000E+00  0.93827000000E+00 0. -1.
     999902    2    1    2    0    0 -0.10901308041E-01 -0.14573885681E-03  0.17231498851E-01  0.10235392102E+01  0.10233360789E+01 0.  0.
     999903    2    3    3    0    0  0.44309924538E-01  0.11886235846E+00 -0.33488150569E-01  0.13236936651E+00  0.17565969703E-01 0.  0.
         14    1    1    2    0    0  0.10901308041E-01  0.14573885681E-03 -0.17231498851E-01  0.20390789820E-01  0.00000000000E+00 0. -1.
     999901    1    3    3    0    0 -0.55211232578E-01 -0.11900809731E+00  0.50719649420E-01  0.89116984367E+00  0.88000000000E+00 0.  1.
        -11    1    4    4    0    0  0.38389411044E-01  0.79947184381E-01 -0.23914843834E-01  0.91855756746E-01  0.51100000000E-03 0.  1.
         11    1    4    4    0    0  0.59205134934E-02  0.38915174075E-01 -0.95733067358E-02  0.40513609765E-01  0.51100000000E-03 0. -1.
</event>
<event>
 8    1  0.1114447E+005  0.1043930E+01  0.7957747E-01            NaN
         13   -1    0    0    0    0  0.00000000000E+00  0.00000000000E+00  0.74505805969E-08  0.10566000000E+00  0.10566000000E+00 0.  1.
     999900   -1    0    0    0    0 -0.00000000000E+00 -0.00000000000E+00 -0.74505805969E-08  0.93827000000E+00  0.93827000000E+00 0. -1.
     999902    2    1    2    0    0  0.16482476832E-01  0.15816329026E-01 -0.73788953142E-02  0.10199242423E+01  0.10196416938E+01 0.  0.
     999903    2    3    3    0    0  0.12672656467E+00  0.95234109217E-02 -0.32813997145E-01  0.13265860896E+00  0.19267344741E-01 0.  0.
         14    1    1    2    0    0 -0.16482476832E-01 -0.15816329026E-01  0.73788953142E-02  0.24005757693E-01  0.00000000000E+00 0. -1.
     999901    1    3    3    0    0 -0.11024408784E+00  0.62929181043E-02  0.25435101831E-01  0.88726563335E+00  0.88000000000E+00 0. -1.
        -11    1    4    4    0    0  0.36558377600E-01  0.10723282467E-01 -0.13602394708E-01  0.40457261677E-01  0.51100000000E-03 0.  1.
         11    1    4    4    0    0  0.90168187068E-01 -0.11998715454E-02 -0.19211602437E-01  0.92201347279E-01  0.51100000000E-03 0. -1.
</event>
<event>
 8    1  0.1114447E+005  0.1043930E+01  0.7957747E-01            NaN
         13   -1    0    0    0    0  0.00000000000E+00  0.00000000000E+00  0.74505805969E-08  0.10566000000E+00  0.10566000000E+00 0.  1.
     999900   -1    0    0    0    0 -0.00000000000E+00 -0.00000000000E+00 -0.74505805969E-08  0.93827000000E+00  0.93827000000E+00 0. -1.
     999902    2    1    2    0    0 -0.61939609834E-02 -0.22200551176E-01  0.39964656931E-02  0.10205376644E+01  0.10202695346E+01 0.  0.
     999903    2    3    3    0    0 -0.12723414123E+00 -0.29217561683E-01 -0.37254460252E-02  0.13219111517E+00  0.20455301944E-01 0.  0.
         14    1    1    2    0    0  0.61939609834E-02  0.22200551176E-01 -0.39964656931E-02  0.23392335566E-01  0.00000000000E+00 0. -1.
     999901    1    3    3    0    0  0.12104018024E+00  0.70170105068E-02  0.77219117183E-02  0.88834654926E+00  0.88000000000E+00 0. -1.
        -11    1    4    4    0    0 -0.58566545555E-01 -0.35371978377E-02 -0.47737196382E-02  0.58869360002E-01  0.51100000000E-03 0. -1.
         11    1    4    4    0    0 -0.68667595670E-01 -0.25680363845E-01  0.10482736130E-02  0.73321755168E-01  0.51100000000E-03 0.  1.
</event>
<event>
 8    1  0.1114447E+005  0.1043930E+01  0.7957747E-01            NaN
         13   -1    0    0    0    0  0.00000000000E+00  0.00000000000E+00  0.74505805969E-08  0.10566000000E+00  0.10566000000E+00 0. -1.
     999900   -1    0    0    0    0 -0.00000000000E+00 -0.00000000000E+00 -0.74505805969E-08  0.93827000000E+00  0.93827000000E+00 0.  1.
     999902    2    1    2    0    0  0.19953139570E-01 -0.13704534531E-01 -0.43981894396E-02  0.10193274368E+01  0.10190304889E+01 0.  0.
     999903    2    3    3    0    0 -0.47462744141E-01 -0.89722758916E-01  0.78246099975E-01  0.12963437154E+00  0.19486728132E-01 0.  0.
         14    1    1    2    0    0 -0.19953139570E-01  0.13704534531E-01  0.43981894396E-02  0.24602563195E-01  0.00000000000E+00 0. -1.
     999901    1    3    3    0    0  0.67415883711E-01  0.76018224384E-01 -0.82644289415E-01  0.88969306527E+00  0.88000000000E+00 0.  1.
        -11    1    4    4    0    0 -0.22356779225E-01 -0.42562963097E-01  0.49320741428E-01  0.68878356985E-01  0.51100000000E-03 0.  1.
         11    1    4    4    0    0 -0.25105964916E-01 -0.47159795819E-01  0.28925358547E-01  0.60756014551E-01  0.51100000000E-03 0. -1.
</event>
<event>
 8    1  0.1114447E+005  0.1043930E+01  0.7957747E-01            NaN
         13   -1    0    0    0    0  0.00000000000E+00  0.00000000000E+00  0.74505805969E-08  0.10566000000E+00  0.10566000000E+00 0.  1.
     999900   -1    0    0    0    0 -0.00000000000E+00 -0.00000000000E+00 -0.74505805969E-08  0.93827000000E+00  0.93827000000E+00 0.  1.
     999902    2    1    2    0    0 -0.13078677111E-01  0.65666974393E-02  0.17974236542E-01  0.10207514218E+01  0.10204882256E+01 0.  0.
     999903    2    3    3    0    0  0.10989544202E+00 -0.28049510077E-01  0.61375844703E-01  0.13046797510E+00  0.19776628156E-01 0.  0.
         14    1    1    2    0    0  0.13078677111E-01 -0.65666974393E-02 -0.17974236542E-01  0.23178578246E-01  0.00000000000E+00 0. -1.
     999901    1    3    3    0    0 -0.12297411913E+00  0.34616207517E-01 -0.43401608161E-01  0.89028344666E+00  0.88000000000E+00 0. -1.
        -11    1    4    4    0    0  0.10181685439E+00 -0.29280669096E-01  0.51993512984E-01  0.11801532076E+00  0.51100000000E-03 0. -1.
         11    1    4    4    0    0  0.80785876307E-02  0.12311590183E-02  0.93823317199E-02  0.12452654341E-01  0.51100000000E-03 0.  1.
</event>
<event>
 8    1  0.1114447E+005  0.1043930E+01  0.7957747E-01            NaN
         13   -1    0    0    0    0  0.00000000000E+00  0.00000000000E+00  0.74505805969E-08  0.10566000000E+00  0.10566000000E+00 0.  1.
     999900   -1    0    0    0    0 -0.00000000000E+00 -0.00000000000E+00 -0.74505805969E-08  0.93827000000E+00  0.93827000000E+00 0.  1.
     999902    2    1    2    0    0  0.18726497452E-01 -0.58545112934E-02  0.12912883781E-01  0.10204417141E+01  0.10201713543E+01 0.  0.
     999903    2    3    3    0    0  0.38372135805E-01 -0.71894156031E-02  0.12561869532E+00  0.13303519332E+00  0.19854408706E-01 0.  0.
         14    1    1    2    0    0 -0.18726497452E-01  0.58545112934E-02 -0.12912883781E-01  0.23488285950E-01  0.00000000000E+00 0. -1.
     999901    1    3    3    0    0 -0.19645638353E-01  0.13349043097E-02 -0.11270581154E+00  0.88740652073E+00  0.88000000000E+00 0.  1.
        -11    1    4    4    0    0  0.17768609330E-01 -0.10923623863E-01  0.42880588919E-01  0.47687053410E-01  0.51100000000E-03 0. -1.
         11    1    4    4    0    0  0.20603526475E-01  0.37342082598E-02  0.82738106402E-01  0.85348139913E-01  0.51100000000E-03 0.  1.
</event>
<event>
 8    1  0.1114447E+005  0.1043930E+01  0.7957747E-01            NaN
         13   -1    0    0    0    0  0.00000000000E+00  0.00000000000E+00  0.74505805969E-08  0.10566000000E+00  0.10566000000E+00 0. -1.
     999900   -1    0    0    0    0 -0.00000000000E+00 -0.00000000000E+00 -0.74505805969E-08  0.93827000000E+00  0.93827000000E+00 0. -1.
     999902    2    1    2    0    0 -0.81094528743E-02 -0.80990131900E-02 -0.21915133629E-01  0.10191988390E+01  0.10188987404E+01 0.  0.
     999903    2    3    3    0    0  0.45912897513E-01  0.11693525562E+00 -0.19622110080E-01  0.12871737338E+00  0.20032145223E-01 0.  0.
         14    1    1    2    0    0  0.81094528743E-02  0.80990131900E-02  0.21915133629E-01  0.24731160963E-01  0.00000000000E+00 0. -1.
     999901    1    3    3    0    0 -0.54022350388E-01 -0.12503426881E+00 -0.22930235490E-02  0.89048146565E+00  0.88000000000E+00 0. -1.
        -11    1    4    4    0    0  0.89947166319E-02  0.36020612009E-01 -0.13710789587E-01  0.39580756548E-01  0.51100000000E-03 0. -1.
         11    1    4    4    0    0  0.36918180882E-01  0.80914643608E-01 -0.59113204931E-02  0.89136616835E-01  0.51100000000E-03 0.  1.
</event>
<event>
 8    1  0.1114447E+005  0.1043930E+01  0.7957747E-01            NaN
         13   -1    0    0    0    0  0.00000000000E+00  0.00000000000E+00  0.74505805969E-08  0.10566000000E+00  0.10566000000E+00 0.  1.
     999900   -1    0    0    0    0 -0.00000000000E+00 -0.00000000000E+00 -0.74505805969E-08  0.93827000000E+00  0.93827000000E+00 0. -1.
     999902    2    1    2    0    0  0.54432167295E-02  0.20723870628E-01  0.89471350113E-02  0.10207102100E+01  0.10204460663E+01 0.  0.
     999903    2    3    3    0    0 -0.69769832115E-01 -0.35383220390E-01 -0.10062621360E+00  0.12896398652E+00  0.19653834198E-01 0.  0.
         14    1    1    2    0    0 -0.54432167295E-02 -0.20723870628E-01 -0.89471350113E-02  0.23219789988E-01  0.00000000000E+00 0. -1.
     999901    1    3    3    0    0  0.75213048845E-01  0.56107091018E-01  0.10957334861E+00  0.89174622349E+00  0.88000000000E+00 0.  1.
        -11    1    4    4    0    0 -0.34307381207E-01 -0.16213608842E-01 -0.33288582369E-01  0.50480375930E-01  0.51100000000E-03 0.  1.
         11    1    4    4    0    0 -0.35462450908E-01 -0.19169611548E-01 -0.67337631229E-01  0.78483610594E-01  0.51100000000E-03 0. -1.
</event>
<event>
 8    1  0.1114447E+005  0.1043930E+01  0.7957747E-01            NaN
         13   -1    0    0    0    0  0.00000000000E+00  0.00000000000E+00  0.74505805969E-08  0.10566000000E+00  0.10566000000E+00 0. -1.
     999900   -1    0    0    0    0 -0.00000000000E+00 -0.00000000000E+00 -0.74505805969E-08  0.93827000000E+00  0.93827000000E+00 0. -1.
     999902    2    1    2    0    0 -0.19626987787E-01 -0.90369158616E-02  0.10541611646E-01  0.10198881599E+01  0.10196047512E+01 0.  0.
     999903    2    3    3    0    0 -0.11841013467E+00 -0.23750707162E-01  0.53569804444E-01  0.13319428314E+00  0.16909672688E-01 0.  0.
         14    1    1    2    0    0  0.19626987787E-01  0.90369158616E-02 -0.10541611646E-01  0.24041840070E-01  0.00000000000E+00 0.  1.
     999901    1    3    3    0    0  0.98783146880E-01  0.14713791301E-01 -0.43028192798E-01  0.88669387679E+00  0.88000000000E+00 0. -1.
        -11    1    4    4    0    0 -0.73780330239E-01 -0.72220862124E-02  0.36480276889E-01  0.82624254201E-01  0.51100000000E-03 0. -1.
         11    1    4    4    0    0 -0.44629804428E-01 -0.16528620950E-01  0.17089527555E-01  0.50570028938E-01  0.51100000000E-03 0.  1.
</event>
<event>
 8    1  0.1114447E+005  0.1043930E+01  0.7957747E-01            NaN
         13   -1    0    0    0    0  0.00000000000E+00  0.00000000000E+00  0.74505805969E-08  0.10566000000E+00  0.10566000000E+00 0.  1.
     999900   -1    0    0    0    0 -0.00000000000E+00 -0.00000000000E+00 -0.74505805969E-08  0.93827000000E+00  0.93827000000E+00 0.  1.
     999902    2    1    2    0    0 -0.77353289632E-02 -0.20797794461E-01  0.12183703695E-01  0.10186154547E+01  0.10183008486E+01 0.  0.
     999903    2    3    3    0    0 -0.11931348455E+00 -0.48636753205E-01  0.13469929492E-01  0.13113230172E+00  0.20322406229E-01 0.  0.
         14    1    1    2    0    0  0.77353289632E-02  0.20797794461E-01 -0.12183703695E-01  0.25314545312E-01  0.00000000000E+00 0.  1.
     999901    1    3    3    0    0  0.11157815559E+00  0.27838958744E-01 -0.12862257976E-02  0.88748315297E+00  0.88000000000E+00 0. -1.
        -11    1    4    4    0    0 -0.96485725526E-01 -0.35380440848E-01  0.18029611950E-01  0.10433886550E+00  0.51100000000E-03 0. -1.
         11    1    4    4    0    0 -0.22827759027E-01 -0.13256312356E-01 -0.45596824580E-02  0.26793436222E-01  0.51100000000E-03 0.  1.
</event>
<event>
 8    1  0.1114447E+005  0.1043930E+01  0.7957747E-01            NaN
         13   -1    0    0    0    0  0.00000000000E+00  0.00000000000E+00  0.74505805969E-08  0.10566000000E+00  0.10566000000E+00 0.  1.
     999900   -1    0    0    0    0 -0.00000000000E+00 -0.00000000000E+00 -0.74505805969E-08  0.93827000000E+00  0.93827000000E+00 0. -1.
     999902    2    1    2    0    0 -0.39649252173E-02  0.17109057947E-01  0.16007763495E-01  0.10201668144E+01  0.10198900138E+01 0.  0.
     999903    2    3    3    0    0 -0.32672997096E-01  0.10991840246E+00  0.65381249036E-01  0.13344506051E+00  0.19577959828E-01 0.  0.
         14    1    1    2    0    0  0.39649252173E-02 -0.17109057947E-01 -0.16007763495E-01  0.23763185559E-01  0.00000000000E+00 0. -1.
     999901    1    3    3    0    0  0.28708071878E-01 -0.92809344511E-01 -0.49373485541E-01  0.88672175393E+00  0.88000000000E+00 0. -1.
        -11    1    4    4    0    0 -0.13125097755E-01  0.70275265005E-01  0.47085102355E-01  0.85604608797E-01  0.51100000000E-03 0.  1.
         11    1    4    4    0    0 -0.19547899340E-01  0.39643137453E-01  0.18296146681E-01  0.47840451713E-01  0.51100000000E-03 0. -1.
</event>
<event>
 8    1  0.1114447E+005  0.1043930E+01  0.7957747E-01            NaN
         13   -1    0    0    0    0  0.00000000000E+00  0.00000000000E+00  0.74505805969E-08  0.10566000000E+00  0.10566000000E+00 0.  1.
     999900   -1    0    0    0    0 -0.00000000000E+00 -0.00000000000E+00 -0.74505805969E-08  0.93827000000E+00  0.93827000000E+00 0. -1.
     999902    2    1    2    0    0 -0.23812582257E-01  0.74233766434E-02 -0.43309791237E-02  0.10186139384E+01  0.10182992942E+01 0.  0.
     999903    2    3    3    0    0 -0.99224520586E-01  0.78806654040E-01  0.19696462390E-01  0.13218297624E+00  0.32068588542E-01 0.  0.
         14    1    1    2    0    0  0.23812582257E-01 -0.74233766434E-02  0.43309791237E-02  0.25316061595E-01  0.00000000000E+00 0. -1.
     999901    1    3    3    0    0  0.75411938329E-01 -0.71383277396E-01 -0.24027441514E-01  0.88643096216E+00  0.88000000000E+00 0. -1.
        -11    1    4    4    0    0 -0.73673677527E-01  0.66653614178E-01  0.31492473886E-02  0.99401679681E-01  0.51100000000E-03 0. -1.
         11    1    4    4    0    0 -0.25550843059E-01  0.12153039862E-01  0.16547215001E-01  0.32781296561E-01  0.51100000000E-03 0.  1.
</event>
<event>
 8    1  0.1114447E+005  0.1043930E+01  0.7957747E-01            NaN
         13   -1    0    0    0    0  0.00000000000E+00  0.00000000000E+00  0.74505805969E-08  0.10566000000E+00  0.10566000000E+00 0. -1.
     999900   -1    0    0    0    0 -0.00000000000E+00 -0.00000000000E+00 -0.74505805969E-08  0.93827000000E+00  0.93827000000E+00 0. -1.
     999902    2    1    2    0    0  0.19540963221E-01  0.92827985607E-02  0.13122843628E-01  0.10186272607E+01  0.10183129517E+01 0.  0.
     999903    2    3    3    0    0  0.70981635258E-01  0.49862419157E-01  0.97684628591E-01  0.13214909183E+00  0.19910861894E-01 0.  0.
         14    1    1    2    0    0 -0.19540963221E-01 -0.92827985607E-02 -0.13122843628E-01  0.25302739330E-01  0.00000000000E+00 0. -1.
     999901    1    3    3    0    0 -0.51440672037E-01 -0.40579620596E-01 -0.84561784963E-01  0.88647816884E+00  0.88000000000E+00 0. -1.
        -11    1    4    4    0    0  0.10086698713E-01 -0.29850477735E-03  0.10945444950E-01  0.14896123059E-01  0.51100000000E-03 0.  1.
         11    1    4    4    0    0  0.60894936545E-01  0.50160923934E-01  0.86739183641E-01  0.11725296878E+00  0.51100000000E-03 0. -1.
</event>
<event>
 8    1  0.1114447E+005  0.1043930E+01  0.7957747E-01            NaN
         13   -1    0    0    0    0  0.00000000000E+00  0.00000000000E+00  0.74505805969E-08  0.10566000000E+00  0.10566000000E+00 0.  1.
     999900   -1    0    0    0    0 -0.00000000000E+00 -0.00000000000E+00 -0.74505805969E-08  0.93827000000E+00  0.93827000000E+00 0. -1.
     999902    2    1    2    0    0  0.12601522793E-01 -0.13448659703E-01 -0.20166423646E-02  0.10253899981E+01  0.10252223742E+01 0.  0.
     999903    2    3    3    0    0  0.48677976416E-01  0.89960053998E-01 -0.85332979767E-01  0.13469561467E+00  0.19970840536E-01 0.  0.
         14    1    1    2    0    0 -0.12601522793E-01  0.13448659703E-01  0.20166423646E-02  0.18540001913E-01  0.00000000000E+00 0.  1.
     999901    1    3    3    0    0 -0.36076453624E-01 -0.10340871370E+00  0.83316337403E-01  0.89069438342E+00  0.88000000000E+00 0. -1.
        -11    1    4    4    0    0  0.31218966394E-01  0.51427946879E-01 -0.61952754754E-01  0.86358916885E-01  0.51100000000E-03 0.  1.
         11    1    4    4    0    0  0.17459010022E-01  0.38532107119E-01 -0.23380225013E-01  0.48336697784E-01  0.51100000000E-03 0. -1.
</event>
<event>
 8    1  0.1114447E+005  0.1043930E+01  0.7957747E-01            NaN
         13   -1    0    0    0    0  0.00000000000E+00  0.00000000000E+00  0.74505805969E-08  0.10566000000E+00  0.10566000000E+00 0. -1.
     999900   -1    0    0    0    0 -0.00000000000E+00 -0.00000000000E+00 -0.74505805969E-08  0.93827000000E+00  0.93827000000E+00 0.  1.
     999902    2    1    2    0    0  0.20805774721E-01 -0.70074670380E-02 -0.74545353423E-02  0.10207447686E+01  0.10204814196E+01 0.  0.
     999903    2    3    3    0    0  0.10638488474E+00  0.53495065405E-01  0.54154170737E-01  0.13238674781E+00  0.20349719022E-01 0.  0.
         14    1    1    2    0    0 -0.20805774721E-01  0.70074670380E-02  0.74545353423E-02  0.23185231359E-01  0.00000000000E+00 0. -1.
     999901    1    3    3    0    0 -0.85579110021E-01 -0.60502532443E-01 -0.61608706079E-01  0.88835802083E+00  0.88000000000E+00 0.  1.
        -11    1    4    4    0    0  0.49736548231E-01  0.14008791696E-01  0.25500315975E-01  0.57623759948E-01  0.51100000000E-03 0. -1.
         11    1    4    4    0    0  0.56648336510E-01  0.39486273709E-01  0.28653854761E-01  0.74762987865E-01  0.51100000000E-03 0.  1.
</event>
<event>
 8    1  0.1114447E+005  0.1043930E+01  0.7957747E-01            NaN
         13   -1    0    0    0    0  0.00000000000E+00  0.00000000000E+00  0.74505805969E-08  0.10566000000E+00  0.10566000000E+00 0.  1.
     999900   -1    0    0    0    0 -0.00000000000E+00 -0.00000000000E+00 -0.74505805969E-08  0.93827000000E+00  0.93827000000E+00 0. -1.
     999902    2    1    2    0    0 -0.19218438947E-01 -0.87137031411E-02 -0.51378079469E-02  0.10222119410E+01  0.10219812024E+01 0.  0.
     999903    2    3    3    0    0 -0.50164755003E-01 -0.10593441195E+00  0.61187204878E-01  0.13383783732E+00  0.20738620395E-01 0.  0.
         14    1    1    2    0    0  0.19218438947E-01  0.87137031411E-02  0.51378079469E-02  0.21718059040E-01  0.00000000000E+00 0.  1.
     999901    1    3    3    0    0  0.30946316056E-01  0.97220708813E-01 -0.66325012825E-01  0.88837410364E+00  0.88000000000E+00 0.  1.
        -11    1    4    4    0    0 -0.23033434431E-01 -0.43250336965E-01  0.14510938064E-01  0.51107330137E-01  0.51100000000E-03 0.  1.
         11    1    4    4    0    0 -0.27131320573E-01 -0.62684074990E-01  0.46676266815E-01  0.82730507179E-01  0.51100000000E-03 0. -1.
</event>
<event>
 8    1  0.1114447E+005  0.1043930E+01  0.7957747E-01            NaN
         13   -1    0    0    0    0  0.00000000000E+00  0.00000000000E+00  0.74505805969E-08  0.10566000000E+00  0.10566000000E+00 0.  1.
     999900   -1    0    0    0    0 -0.00000000000E+00 -0.00000000000E+00 -0.74505805969E-08  0.93827000000E+00  0.93827000000E+00 0.  1.
     999902    2    1    2    0    0 -0.45001774225E-02 -0.20471717366E-01  0.10323507969E-01  0.10205651198E+01  0.10202976263E+01 0.  0.
     999903    2    3    3    0    0  0.87196700355E-01 -0.90488498155E-01  0.37181129212E-01  0.13262818580E+00  0.20405059384E-01 0.  0.
         14    1    1    2    0    0  0.45001774225E-02  0.20471717366E-01 -0.10323507969E-01  0.23364880174E-01  0.00000000000E+00 0. -1.
     999901    1    3    3    0    0 -0.91696877778E-01  0.70016780789E-01 -0.26857621242E-01  0.88793693402E+00  0.88000000000E+00 0. -1.
        -11    1    4    4    0    0  0.56809288233E-01 -0.70136062259E-01  0.31585353410E-01  0.95625614403E-01  0.51100000000E-03 0.  1.
         11    1    4    4    0    0  0.30387412122E-01 -0.20352435896E-01  0.55957758018E-02  0.37002571399E-01  0.51100000000E-03 0. -1.
</event>
<event>
 8    1  0.1114447E+005  0.1043930E+01  0.7957747E-01            NaN
         13   -1    0    0    0    0  0.00000000000E+00  0.00000000000E+00  0.74505805969E-08  0.10566000000E+00  0.10566000000E+00 0. -1.
     999900   -1    0    0    0    0 -0.00000000000E+00 -0.00000000000E+00 -0.74505805969E-08  0.93827000000E+00  0.93827000000E+00 0. -1.
     999902    2    1    2    0    0  0.46014573151E-02  0.22205330681E-03  0.22672449792E-01  0.10207942550E+01  0.10205320418E+01 0.  0.
     999903    2    3    3    0    0  0.62770105424E-01  0.11166347767E+00 -0.13620835501E-01  0.13112016566E+00  0.24457152392E-01 0.  0.
         14    1    1    2    0    0 -0.46014573151E-02 -0.22205330681E-03 -0.22672449792E-01  0.23135744999E-01  0.00000000000E+00 0.  1.
     999901    1    3    3    0    0 -0.58168648109E-01 -0.11144142436E+00  0.36293285293E-01  0.88967408934E+00  0.88000000000E+00 0.  1.
        -11    1    4    4    0    0  0.47154306426E-01  0.60150869403E-01 -0.49100515448E-02  0.76589982580E-01  0.51100000000E-03 0.  1.
         11    1    4    4    0    0  0.15615798999E-01  0.51512608265E-01 -0.87107839563E-02  0.54530183080E-01  0.51100000000E-03 0. -1.
</event>
<event>
 8    1  0.1114447E+005  0.1043930E+01  0.7957747E-01            NaN
         13   -1    0    0    0    0  0.00000000000E+00  0.00000000000E+00  0.74505805969E-08  0.10566000000E+00  0.10566000000E+00 0. -1.
     999900   -1    0    0    0    0 -0.00000000000E+00 -0.00000000000E+00 -0.74505805969E-08  0.93827000000E+00  0.93827000000E+00 0.  1.
     999902    2    1    2    0    0 -0.77041513506E-02  0.22230109199E-01  0.22832657417E-02  0.10202922123E+01  0.10200183594E+01 0.  0.
     999903    2    3    3    0    0  0.11618319725E+00  0.55891736225E-01 -0.10436441676E-01  0.13088624697E+00  0.19996720491E-01 0.  0.
         14    1    1    2    0    0  0.77041513506E-02 -0.22230109199E-01 -0.22832657417E-02  0.23637787660E-01  0.00000000000E+00 0.  1.
     999901    1    3    3    0    0 -0.12388734860E+00 -0.33661627027E-01  0.12719707417E-01  0.88940596537E+00  0.88000000000E+00 0. -1.
        -11    1    4    4    0    0  0.83672878741E-01  0.48963353389E-01 -0.40365853696E-02  0.97031519386E-01  0.51100000000E-03 0.  1.
         11    1    4    4    0    0  0.32510318506E-01  0.69283828359E-02 -0.63998563060E-02  0.33854727585E-01  0.51100000000E-03 0. -1.
</event>
<event>
 8    1  0.1114447E+005  0.1043930E+01  0.7957747E-01            NaN
         13   -1    0    0    0    0  0.00000000000E+00  0.00000000000E+00  0.74505805969E-08  0.10566000000E+00  0.10566000000E+00 0.  1.
     999900   -1    0    0    0    0 -0.00000000000E+00 -0.00000000000E+00 -0.74505805969E-08  0.93827000000E+00  0.93827000000E+00 0.  1.
     999902    2    1    2    0    0 -0.34857384124E-02 -0.57413640090E-02  0.25066397522E-01  0.10179793176E+01  0.10176484919E+01 0.  0.
     999903    2    3    3    0    0  0.11275327813E+00  0.55518970885E-01 -0.10472385819E-01  0.12751463961E+00  0.18832275297E-01 0.  0.
         14    1    1    2    0    0  0.34857384124E-02  0.57413640090E-02 -0.25066397522E-01  0.25950682413E-01  0.00000000000E+00 0. -1.
     999901    1    3    3    0    0 -0.11623901655E+00 -0.61260334894E-01  0.35538783340E-01  0.89046467797E+00  0.88000000000E+00 0. -1.
        -11    1    4    4    0    0  0.24696394000E-01  0.14526958551E-01 -0.10092346724E-01  0.30381918714E-01  0.51100000000E-03 0. -1.
         11    1    4    4    0    0  0.88056884133E-01  0.40992012334E-01 -0.38003909438E-03  0.97132720899E-01  0.51100000000E-03 0.  1.
</event>
<event>
 8    1  0.1114447E+005  0.1043930E+01  0.7957747E-01            NaN
         13   -1    0    0    0    0  0.00000000000E+00  0.00000000000E+00  0.74505805969E-08  0.10566000000E+00  0.10566000000E+00 0. -1.
     999900   -1    0    0    0    0 -0.00000000000E+00 -0.00000000000E+00 -0.74505805969E-08  0.93827000000E+00  0.93827000000E+00 0.  1.
     999902    2    1    2    0    0  0.10702757550E-01 -0.71096931911E-02  0.20326376769E-01  0.10198829971E+01  0.10195994652E+01 0.  0.
     999903    2    3    3    0    0  0.39754931418E-01 -0.23603367077E-01 -0.11862302642E+00  0.12835453050E+00  0.16306121359E-01 0.  0.
         14    1    1    2    0    0 -0.10702757550E-01  0.71096931911E-02 -0.20326376769E-01  0.24047002911E-01  0.00000000000E+00 0.  1.
     999901    1    3    3    0    0 -0.29052173868E-01  0.16493673885E-01  0.13894940319E+00  0.89152846659E+00  0.88000000000E+00 0. -1.
        -11    1    4    4    0    0  0.34327355013E-01 -0.16636359293E-01 -0.78646863482E-01  0.87411246469E-01  0.51100000000E-03 0. -1.
         11    1    4    4    0    0  0.54275764048E-02 -0.69670077836E-02 -0.39976162941E-01  0.40943284035E-01  0.51100000000E-03 0.  1.
</event>
<event>
 8    1  0.1114447E+005  0.1043930E+01  0.7957747E-01            NaN
         13   -1    0    0    0    0  0.00000000000E+00  0.00000000000E+00  0.74505805969E-08  0.10566000000E+00  0.10566000000E+00 0.  1.
     999900   -1    0    0    0    0 -0.00000000000E+00 -0.00000000000E+00 -0.74505805969E-08  0.93827000000E+00  0.93827000000E+00 0. -1.
     999902    2    1    2    0    0 -0.12192406273E-01 -0.17965560254E-01 -0.52875752006E-02  0.10215833095E+01  0.10213388682E+01 0.  0.
     999903    2    3    3    0    0 -0.94988395506E-01  0.86699431104E-01  0.15999760894E-01  0.13126702470E+00  0.20867505632E-01 0.  0.
         14    1    1    2    0    0  0.12192406273E-01  0.17965560254E-01  0.52875752006E-02  0.22346690526E-01  0.00000000000E+00 0.  1.
     999901    1    3    3    0    0  0.82795989233E-01 -0.10466499136E+00 -0.21287336094E-01  0.89031628477E+00  0.88000000000E+00 0. -1.
        -11    1    4    4    0    0 -0.38956673451E-01  0.49380611854E-01  0.56561101383E-02  0.63153146686E-01  0.51100000000E-03 0.  1.
         11    1    4    4    0    0 -0.56031722055E-01  0.37318819250E-01  0.10343650755E-01  0.68113878018E-01  0.51100000000E-03 0. -1.
</event>
<event>
 8    1  0.1114447E+005  0.1043930E+01  0.7957747E-01            NaN
         13   -1    0    0    0    0  0.00000000000E+00  0.00000000000E+00  0.74505805969E-08  0.10566000000E+00  0.10566000000E+00 0.  1.
     999900   -1    0    0    0    0 -0.00000000000E+00 -0.00000000000E+00 -0.74505805969E-08  0.93827000000E+00  0.93827000000E+00 0.  1.
     999902    2    1    2    0    0  0.17632175205E-01  0.15103732712E-01 -0.59650717246E-02  0.10199592173E+01  0.10196775012E+01 0.  0.
     999903    2    3    3    0    0 -0.65464378202E-01  0.79213205916E-01  0.74958550243E-01  0.13003579677E+00  0.27022349705E-01 0.  0.
         14    1    1    2    0    0 -0.17632175205E-01 -0.15103732712E-01  0.59650717246E-02  0.23970782736E-01  0.00000000000E+00 0. -1.
     999901    1    3    3    0    0  0.83096553407E-01 -0.64109473203E-01 -0.80923621967E-01  0.88992342049E+00  0.88000000000E+00 0.  1.
        -11    1    4    4    0    0 -0.15756164858E-01  0.39670991616E-01  0.28205044114E-01  0.51164733375E-01  0.51100000000E-03 0.  1.
         11    1    4    4    0    0 -0.49708213344E-01  0.39542214300E-01  0.46753506129E-01  0.78871063400E-01  0.51100000000E-03 0. -1.
</event>
<event>
 8    1  0.1114447E+005  0.1043930E+01  0.7957747E-01            NaN
         13   -1    0    0    0    0  0.00000000000E+00  0.00000000000E+00  0.74505805969E-08  0.10566000000E+00  0.10566000000E+00 0.  1.
     999900   -1    0    0    0    0 -0.00000000000E+00 -0.00000000000E+00 -0.74505805969E-08  0.93827000000E+00  0.93827000000E+00 0.  1.
     999902    2    1    2    0    0 -0.20948081912E-01 -0.79085118785E-02 -0.26040386197E-02  0.10213878680E+01  0.10211390842E+01 0.  0.
     999903    2    3    3    0    0 -0.75661191327E-01  0.50170701354E-01 -0.95033926737E-01  0.13295666442E+00  0.20107516911E-01 0.  0.
         14    1    1    2    0    0  0.20948081912E-01  0.79085118785E-02  0.26040386197E-02  0.22542131955E-01  0.00000000000E+00 0. -1.
     999901    1    3    3    0    0  0.54713109415E-01 -0.58079213232E-01  0.92429888117E-01  0.88843120362E+00  0.88000000000E+00 0. -1.
        -11    1    4    4    0    0 -0.46801234104E-01  0.24726171172E-01 -0.42755809956E-01  0.68044540270E-01  0.51100000000E-03 0. -1.
         11    1    4    4    0    0 -0.28859957223E-01  0.25444530181E-01 -0.52278116780E-01  0.64912124154E-01  0.51100000000E-03 0.  1.
</event>
<event>
 8    1  0.1114447E+005  0.1043930E+01  0.7957747E-01            NaN
         13   -1    0    0    0    0  0.00000000000E+00  0.00000000000E+00  0.74505805969E-08  0.10566000000E+00  0.10566000000E+00 0.  1.
     999900   -1    0    0    0    0 -0.00000000000E+00 -0.00000000000E+00 -0.74505805969E-08  0.93827000000E+00  0.93827000000E+00 0.  1.
     999902    2    1    2    0    0 -0.10567315894E-03  0.46638211222E-02  0.21842748345E-01  0.10215946457E+01  0.10213504551E+01 0.  0.
     999903    2    3    3    0    0  0.62459932207E-01 -0.16912443661E-01  0.11576563675E+00  0.13412549184E+00  0.20017268183E-01 0.  0.
         14    1    1    2    0    0  0.10567315894E-03 -0.46638211222E-02 -0.21842748345E-01  0.22335354251E-01  0.00000000000E+00 0. -1.
     999901    1    3    3    0    0 -0.62565605366E-01  0.21576264783E-01 -0.93922888410E-01  0.88746915391E+00  0.88000000000E+00 0.  1.
        -11    1    4    4    0    0  0.44130457158E-01 -0.19053749387E-01  0.94051419703E-01  0.10562420785E+00  0.51100000000E-03 0. -1.
         11    1    4    4    0    0  0.18329475049E-01  0.21413057265E-02  0.21714217051E-01  0.28501283988E-01  0.51100000000E-03 0.  1.
</event>
<event>
 8    1  0.1114447E+005  0.1043930E+01  0.7957747E-01            NaN
         13   -1    0    0    0    0  0.00000000000E+00  0.00000000000E+00  0.74505805969E-08  0.10566000000E+00  0.10566000000E+00 0.  1.
     999900   -1    0    0    0    0 -0.00000000000E+00 -0.00000000000E+00 -0.74505805969E-08  0.93827000000E+00  0.93827000000E+00 0. -1.
     999902    2    1    2    0    0 -0.25234612568E-01 -0.77401418472E-03 -0.19104903006E-02  0.10186113361E+01  0.10182966264E+01 0.  0.
     999903    2    3    3    0    0 -0.34432955016E-01 -0.86423275109E-01 -0.88848648313E-01  0.13014150051E+00  0.19700684663E-01 0.  0.
         14    1    1    2    0    0  0.25234612568E-01  0.77401418472E-03  0.19104903006E-02  0.25318663919E-01  0.00000000000E+00 0. -1.
     999901    1    3    3    0    0  0.91983424480E-02  0.85649260925E-01  0.86938158013E-01  0.88846983557E+00  0.88000000000E+00 0.  1.
        -11    1    4    4    0    0 -0.60282759083E-02 -0.39876902907E-01 -0.33346448253E-01  0.52333108334E-01  0.51100000000E-03 0. -1.
         11    1    4    4    0    0 -0.28404679108E-01 -0.46546372203E-01 -0.55502200061E-01  0.77808392176E-01  0.51100000000E-03 0.  1.
</event>
<event>
 8    1  0.1114447E+005  0.1043930E+01  0.7957747E-01            NaN
         13   -1    0    0    0    0  0.00000000000E+00  0.00000000000E+00  0.74505805969E-08  0.10566000000E+00  0.10566000000E+00 0. -1.
     999900   -1    0    0    0    0 -0.00000000000E+00 -0.00000000000E+00 -0.74505805969E-08  0.93827000000E+00  0.93827000000E+00 0. -1.
     999902    2    1    2    0    0  0.35246534180E-02 -0.34889271236E-01  0.34780300978E-02  0.10086910851E+01  0.10080753563E+01 0.  0.
     999903    2    3    3    0    0 -0.10070164576E+00  0.44971605712E-01 -0.36425780660E-01  0.11805468611E+00  0.21137753851E-01 0.  0.
         14    1    1    2    0    0 -0.35246534180E-02  0.34889271236E-01 -0.34780300978E-02  0.35238914888E-01  0.00000000000E+00 0.  1.
     999901    1    3    3    0    0  0.10422629918E+00 -0.79860876948E-01  0.39903810758E-01  0.89063639900E+00  0.88000000000E+00 0.  1.
        -11    1    4    4    0    0 -0.32779612746E-01  0.85570011744E-02 -0.19694686471E-01  0.39190140049E-01  0.51100000000E-03 0.  1.
         11    1    4    4    0    0 -0.67922033013E-01  0.36414604538E-01 -0.16731094189E-01  0.78864546065E-01  0.51100000000E-03 0. -1.
</event>
<event>
 8    1  0.1114447E+005  0.1043930E+01  0.7957747E-01            NaN
         13   -1    0    0    0    0  0.00000000000E+00  0.00000000000E+00  0.74505805969E-08  0.10566000000E+00  0.10566000000E+00 0. -1.
     999900   -1    0    0    0    0 -0.00000000000E+00 -0.00000000000E+00 -0.74505805969E-08  0.93827000000E+00  0.93827000000E+00 0.  1.
     999902    2    1    2    0    0 -0.76419731052E-02 -0.13407816188E-02 -0.22082259762E-01  0.10205243672E+01  0.10202559289E+01 0.  0.
     999903    2    3    3    0    0  0.34953956380E-01 -0.12344330411E+00  0.97184851957E-02  0.13050485814E+00  0.21841260212E-01 0.  0.
         14    1    1    2    0    0  0.76419731052E-02  0.13407816188E-02  0.22082259762E-01  0.23405632752E-01  0.00000000000E+00 0. -1.
     999901    1    3    3    0    0 -0.42595929485E-01  0.12210252249E+00 -0.31800744958E-01  0.89001950911E+00  0.88000000000E+00 0. -1.
        -11    1    4    4    0    0  0.14465317374E-01 -0.19998668707E-01  0.18553832480E-02  0.24756730898E-01  0.51100000000E-03 0. -1.
         11    1    4    4    0    0  0.20488639006E-01 -0.10344463541E+00  0.78631019477E-02  0.10574812724E+00  0.51100000000E-03 0.  1.
</event>
<event>
 8    1  0.1114447E+005  0.1043930E+01  0.7957747E-01            NaN
         13   -1    0    0    0    0  0.00000000000E+00  0.00000000000E+00  0.74505805969E-08  0.10566000000E+00  0.10566000000E+00 0. -1.
     999900   -1    0    0    0    0 -0.00000000000E+00 -0.00000000000E+00 -0.74505805969E-08  0.93827000000E+00  0.93827000000E+00 0.  1.
     999902    2    1    2    0    0  0.21196648207E-01  0.70870224210E-02  0.76237994063E-02  0.10203154685E+01  0.10200421605E+01 0.  0.
     999903    2    3    3    0    0 -0.97851603782E-02 -0.12037806081E+00 -0.41431210710E-01  0.12924105299E+00  0.20001941619E-01 0.  0.
         14    1    1    2    0    0 -0.21196648207E-01 -0.70870224210E-02 -0.76237994063E-02  0.23614531530E-01  0.00000000000E+00 0.  1.
     999901    1    3    3    0    0  0.30981808585E-01  0.12746508323E+00  0.49055010116E-01  0.89107441548E+00  0.88000000000E+00 0. -1.
        -11    1    4    4    0    0 -0.37472226298E-02 -0.35386109851E-01 -0.22023425641E-01  0.41851055491E-01  0.51100000000E-03 0. -1.
         11    1    4    4    0    0 -0.60379377485E-02 -0.84991950961E-01 -0.19407785070E-01  0.87389997498E-01  0.51100000000E-03 0.  1.
</event>
<event>
 8    1  0.1114447E+005  0.1043930E+01  0.7957747E-01            NaN
         13   -1    0    0    0    0  0.00000000000E+00  0.00000000000E+00  0.74505805969E-08  0.10566000000E+00  0.10566000000E+00 0.  1.
     999900   -1    0    0    0    0 -0.00000000000E+00 -0.00000000000E+00 -0.74505805969E-08  0.93827000000E+00  0.93827000000E+00 0. -1.
     999902    2    1    2    0    0 -0.23790369589E-01  0.57090802751E-02 -0.34265307885E-02  0.10192254175E+01  0.10189259715E+01 0.  0.
     999903    2    3    3    0    0 -0.31274915417E-01 -0.12077025548E+00  0.28378054596E-01  0.12958247090E+00  0.20560346248E-01 0.  0.
         14    1    1    2    0    0  0.23790369589E-01 -0.57090802751E-02  0.34265307885E-02  0.24704582490E-01  0.00000000000E+00 0.  1.
     999901    1    3    3    0    0  0.74845458278E-02  0.12647933576E+00 -0.31804585385E-01  0.88964294661E+00  0.88000000000E+00 0.  1.
        -11    1    4    4    0    0 -0.23641820199E-01 -0.71493046461E-01  0.25977247022E-01  0.79657202050E-01  0.51100000000E-03 0. -1.
         11    1    4    4    0    0 -0.76330952183E-02 -0.49277209024E-01  0.24008075738E-02  0.49925268850E-01  0.51100000000E-03 0.  1.
</event>
<event>
 8    1  0.1114447E+005  0.1043930E+01  0.7957747E-01            NaN
         13   -1    0    0    0    0  0.00000000000E+00  0.00000000000E+00  0.74505805969E-08  0.10566000000E+00  0.10566000000E+00 0.  1.
     999900   -1    0    0    0    0 -0.00000000000E+00 -0.00000000000E+00 -0.74505805969E-08  0.93827000000E+00  0.93827000000E+00 0.  1.
     999902    2    1    2    0    0 -0.13213033080E-01  0.87932062679E-02  0.18597193387E-01  0.10194808626E+01  0.10191876514E+01 0.  0.
     999903    2    3    3    0    0  0.77230390837E-01  0.59232236066E-01 -0.80705574704E-01  0.12786146595E+00  0.19030859916E-01 0.  0.
         14    1    1    2    0    0  0.13213033080E-01 -0.87932062679E-02 -0.18597193387E-01  0.24449137439E-01  0.00000000000E+00 0.  1.
     999901    1    3    3    0    0 -0.90443423917E-01 -0.50439029799E-01  0.99302768091E-01  0.89161939661E+00  0.88000000000E+00 0. -1.
        -11    1    4    4    0    0  0.38820761009E-01  0.22378989792E-01 -0.46543521361E-01  0.64609838037E-01  0.51100000000E-03 0. -1.
         11    1    4    4    0    0  0.38409629828E-01  0.36853246275E-01 -0.34162053343E-01  0.63251627916E-01  0.51100000000E-03 0.  1.
</event>
<event>
 8    1  0.1114447E+005  0.1043930E+01  0.7957747E-01            NaN
         13   -1    0    0    0    0  0.00000000000E+00  0.00000000000E+00  0.74505805969E-08  0.10566000000E+00  0.10566000000E+00 0.  1.
     999900   -1    0    0    0    0 -0.00000000000E+00 -0.00000000000E+00 -0.74505805969E-08  0.93827000000E+00  0.93827000000E+00 0. -1.
     999902    2    1    2    0    0 -0.21039628025E-01  0.68955397108E-02  0.42187097057E-02  0.10213908801E+01  0.10211421635E+01 0.  0.
     999903    2    3    3    0    0  0.85727407511E-01 -0.63200705799E-01 -0.67655168179E-01  0.12927063155E+00  0.28109727634E-01 0.  0.
         14    1    1    2    0    0  0.21039628025E-01 -0.68955397108E-02 -0.42187097057E-02  0.22539119923E-01  0.00000000000E+00 0.  1.
     999901    1    3    3    0    0 -0.10676703554E+00  0.70096245510E-01  0.71873877884E-01  0.89212024853E+00  0.88000000000E+00 0.  1.
        -11    1    4    4    0    0  0.76255175414E-01 -0.65087831417E-01 -0.59247020923E-01  0.11645491911E+00  0.51100000000E-03 0.  1.
         11    1    4    4    0    0  0.94722320974E-02  0.18871256182E-02 -0.84081472558E-02  0.12815712438E-01  0.51100000000E-03 0. -1.
</event>
<event>
 8    1  0.1114447E+005  0.1043930E+01  0.7957747E-01            NaN
         13   -1    0    0    0    0  0.00000000000E+00  0.00000000000E+00  0.74505805969E-08  0.10566000000E+00  0.10566000000E+00 0.  1.
     999900   -1    0    0    0    0 -0.00000000000E+00 -0.00000000000E+00 -0.74505805969E-08  0.93827000000E+00  0.93827000000E+00 0.  1.
     999902    2    1    2    0    0  0.22923060909E-01  0.39188522790E-02 -0.34321046983E-02  0.10204224806E+01  0.10201516728E+01 0.  0.
     999903    2    3    3    0    0 -0.94484268417E-01  0.76180104724E-01 -0.38535453823E-01  0.12899754564E+00  0.20608256752E-01 0.  0.
         14    1    1    2    0    0 -0.22923060909E-01 -0.39188522790E-02  0.34321046983E-02  0.23507519377E-01  0.00000000000E+00 0. -1.
     999901    1    3    3    0    0  0.11740732933E+00 -0.72261252445E-01  0.35103349125E-01  0.89142493498E+00  0.88000000000E+00 0.  1.
        -11    1    4    4    0    0 -0.72075297369E-01  0.50711109262E-01 -0.35227449184E-01  0.94908900481E-01  0.51100000000E-03 0.  1.
         11    1    4    4    0    0 -0.22408971048E-01  0.25468995462E-01 -0.33080046391E-02  0.34088645162E-01  0.51100000000E-03 0. -1.
</event>
<event>
 8    1  0.1114447E+005  0.1043930E+01  0.7957747E-01            NaN
         13   -1    0    0    0    0  0.00000000000E+00  0.00000000000E+00  0.74505805969E-08  0.10566000000E+00  0.10566000000E+00 0. -1.
     999900   -1    0    0    0    0 -0.00000000000E+00 -0.00000000000E+00 -0.74505805969E-08  0.93827000000E+00  0.93827000000E+00 0.  1.
     999902    2    1    2    0    0  0.77813822571E-02  0.74530656275E-02  0.24467922393E-01  0.10171946802E+01  0.10168432722E+01 0.  0.
     999903    2    3    3    0    0  0.78169669902E-01 -0.30578754842E-01 -0.91380429877E-01  0.12600347115E+00  0.21930212911E-01 0.  0.
         14    1    1    2    0    0 -0.77813822571E-02 -0.74530656275E-02 -0.24467922393E-01  0.26735319772E-01  0.00000000000E+00 0.  1.
     999901    1    3    3    0    0 -0.70388287645E-01  0.38031820470E-01  0.11584835227E+00  0.89119120907E+00  0.88000000000E+00 0. -1.
        -11    1    4    4    0    0  0.21609424108E-01  0.62400678568E-03 -0.29252017534E-01  0.36377166541E-01  0.51100000000E-03 0. -1.
         11    1    4    4    0    0  0.56560245794E-01 -0.31202761628E-01 -0.62128412342E-01  0.89626304614E-01  0.51100000000E-03 0.  1.
</event>
<event>
 8    1  0.1114447E+005  0.1043930E+01  0.7957747E-01            NaN
         13   -1    0    0    0    0  0.00000000000E+00  0.00000000000E+00  0.74505805969E-08  0.10566000000E+00  0.10566000000E+00 0.  1.
     999900   -1    0    0    0    0 -0.00000000000E+00 -0.00000000000E+00 -0.74505805969E-08  0.93827000000E+00  0.93827000000E+00 0.  1.
     999902    2    1    2    0    0 -0.91077605160E-02  0.83848759985E-03  0.20960984239E-01  0.10210604302E+01  0.10208042833E+01 0.  0.
     999903    2    3    3    0    0  0.45117441874E-01  0.11069254763E+00 -0.47265930610E-01  0.12995819195E+00  0.19147840562E-01 0.  0.
         14    1    1    2    0    0  0.91077605160E-02 -0.83848759985E-03 -0.20960984239E-01  0.22869569811E-01  0.00000000000E+00 0. -1.
     999901    1    3    3    0    0 -0.54225202390E-01 -0.10985406003E+00  0.68226914848E-01  0.89110223824E+00  0.88000000000E+00 0.  1.
        -11    1    4    4    0    0  0.59604262604E-02  0.38061422451E-01 -0.14130164306E-01  0.41038046061E-01  0.51100000000E-03 0. -1.
         11    1    4    4    0    0  0.39157015614E-01  0.72631125175E-01 -0.33135766304E-01  0.88920145893E-01  0.51100000000E-03 0.  1.
</event>
<event>
 8    1  0.1144710E+005  0.1043930E+01  0.7957747E-01            NaN
         13   -1    0    0    0    0  0.00000000000E+00  0.00000000000E+00  0.74505805969E-08  0.10566000000E+00  0.10566000000E+00 0. -1.
     999900   -1    0    0    0    0 -0.00000000000E+00 -0.00000000000E+00 -0.74505805969E-08  0.93827000000E+00  0.93827000000E+00 0. -1.
     999902    2    1    2    0    0  0.22696271950E-01  0.58083069460E-03  0.80069971978E-02  0.10198557372E+01  0.10195715544E+01 0.  0.
     999903    2    3    3    0    0  0.96252915722E-01  0.85362425761E-01 -0.23384052704E-01  0.13217116670E+00  0.19262291394E-01 0.  0.
         14    1    1    2    0    0 -0.22696271950E-01 -0.58083069460E-03 -0.80069971978E-02  0.24074262790E-01  0.00000000000E+00 0. -1.
     999901    1    3    3    0    0 -0.73556643771E-01 -0.84781595066E-01  0.31391049902E-01  0.88768457051E+00  0.88000000000E+00 0.  1.
        -11    1    4    4    0    0  0.58682174457E-01  0.39534361998E-01 -0.14802463473E-01  0.72290645477E-01  0.51100000000E-03 0.  1.
         11    1    4    4    0    0  0.37570741264E-01  0.45828063763E-01 -0.85815892316E-02  0.59880521225E-01  0.51100000000E-03 0. -1.
</event>
<event>
 8    1  0.1114447E+005  0.1043930E+01  0.7957747E-01            NaN
         13   -1    0    0    0    0  0.00000000000E+00  0.00000000000E+00  0.74505805969E-08  0.10566000000E+00  0.10566000000E+00 0.  1.
     999900   -1    0    0    0    0 -0.00000000000E+00 -0.00000000000E+00 -0.74505805969E-08  0.93827000000E+00  0.93827000000E+00 0. -1.
     999902    2    1    2    0    0  0.17994679768E-01  0.36451146334E-03 -0.19293051049E-01  0.10175450955E+01  0.10172029582E+01 0.  0.
     999903    2    3    3    0    0  0.94334684834E-02 -0.12491854911E+00  0.16485584015E-01  0.12791076028E+00  0.19893563674E-01 0.  0.
         14    1    1    2    0    0 -0.17994679768E-01 -0.36451146334E-03  0.19293051049E-01  0.26384904535E-01  0.00000000000E+00 0.  1.
     999901    1    3    3    0    0  0.85612112850E-02  0.12528306058E+00 -0.35778635064E-01  0.88963433518E+00  0.88000000000E+00 0. -1.
        -11    1    4    4    0    0  0.14171946760E-01 -0.84562294805E-01  0.60545548213E-02  0.85956643331E-01  0.51100000000E-03 0.  1.
         11    1    4    4    0    0 -0.47384782763E-02 -0.40356254308E-01  0.10431029194E-01  0.41954116952E-01  0.51100000000E-03 0. -1.
</event>
<event>
 8    1  0.1114447E+005  0.1043930E+01  0.7957747E-01            NaN
         13   -1    0    0    0    0  0.00000000000E+00  0.00000000000E+00  0.74505805969E-08  0.10566000000E+00  0.10566000000E+00 0. -1.
     999900   -1    0    0    0    0 -0.00000000000E+00 -0.00000000000E+00 -0.74505805969E-08  0.93827000000E+00  0.93827000000E+00 0.  1.
     999902    2    1    2    0    0 -0.13014095559E-02 -0.81703168436E-02  0.21487149755E-01  0.10209051146E+01  0.10206454368E+01 0.  0.
     999903    2    3    3    0    0 -0.46573957105E-01  0.10345308655E-01 -0.11788244785E+00  0.12859557373E+00  0.19089032951E-01 0.  0.
         14    1    1    2    0    0  0.13014095559E-02  0.81703168436E-02 -0.21487149755E-01  0.23024885423E-01  0.00000000000E+00 0.  1.
     999901    1    3    3    0    0  0.45272547550E-01 -0.18515625498E-01  0.13936959761E+00  0.89230954085E+00  0.88000000000E+00 0. -1.
        -11    1    4    4    0    0 -0.85743072495E-02 -0.41966559454E-02 -0.34720541944E-01  0.36012606402E-01  0.51100000000E-03 0.  1.
         11    1    4    4    0    0 -0.37999649856E-01  0.14541964600E-01 -0.83161905910E-01  0.92582967328E-01  0.51100000000E-03 0. -1.
</event>
<event>
 8    1  0.1151518E+005  0.1043930E+01  0.7957747E-01            NaN
         13   -1    0    0    0    0  0.00000000000E+00  0.00000000000E+00  0.74505805969E-08  0.10566000000E+00  0.10566000000E+00 0.  1.
     999900   -1    0    0    0    0 -0.00000000000E+00 -0.00000000000E+00 -0.74505805969E-08  0.93827000000E+00  0.93827000000E+00 0. -1.
     999902    2    1    2    0    0 -0.11548290372E-01 -0.20712249652E-01 -0.22571875007E-02  0.10201086820E+01  0.10198305094E+01 0.  0.
     999903    2    3    3    0    0  0.49450312253E-01  0.11587702714E+00 -0.15937243069E-02  0.12748451683E+00  0.19415026958E-01 0.  0.
         14    1    1    2    0    0  0.11548290372E-01  0.20712249652E-01  0.22571875007E-02  0.23821318007E-01  0.00000000000E+00 0. -1.
     999901    1    3    3    0    0 -0.60998602625E-01 -0.13658927679E+00 -0.66346319377E-03  0.89262416517E+00  0.88000000000E+00 0. -1.
        -11    1    4    4    0    0  0.23930557142E-01  0.49674140255E-01  0.85864277539E-02  0.55804835255E-01  0.51100000000E-03 0.  1.
         11    1    4    4    0    0  0.25519755111E-01  0.66202886887E-01 -0.10180152061E-01  0.71679681571E-01  0.51100000000E-03 0. -1.
</event>
<event>
 8    1  0.1114447E+005  0.1043930E+01  0.7957747E-01            NaN
         13   -1    0    0    0    0  0.00000000000E+00  0.00000000000E+00  0.74505805969E-08  0.10566000000E+00  0.10566000000E+00 0.  1.
     999900   -1    0    0    0    0 -0.00000000000E+00 -0.00000000000E+00 -0.74505805969E-08  0.93827000000E+00  0.93827000000E+00 0. -1.
     999902    2    1    2    0    0 -0.15207876596E-01 -0.50011863923E-02  0.15425856740E-01  0.10216983012E+01  0.10214563966E+01 0.  0.
     999903    2    3    3    0    0  0.94967699396E-01 -0.72882330942E-01 -0.46689625386E-01  0.13006786180E+00  0.20174971161E-01 0.  0.
         14    1    1    2    0    0  0.15207876596E-01  0.50011863923E-02 -0.15425856740E-01  0.22231698812E-01  0.00000000000E+00 0. -1.
     999901    1    3    3    0    0 -0.11017557599E+00  0.67881144549E-01  0.62115482127E-01  0.89163043939E+00  0.88000000000E+00 0. -1.
        -11    1    4    4    0    0  0.33044119508E-01 -0.36914355663E-01 -0.23122286201E-01  0.54676180629E-01  0.51100000000E-03 0.  1.
         11    1    4    4    0    0  0.61923579888E-01 -0.35967975279E-01 -0.23567339186E-01  0.75391681167E-01  0.51100000000E-03 0. -1.
</event>
<event>
 8    1  0.1114447E+005  0.1043930E+01  0.7957747E-01            NaN
         13   -1    0    0    0    0  0.00000000000E+00  0.00000000000E+00  0.74505805969E-08  0.10566000000E+00  0.10566000000E+00 0. -1.
     999900   -1    0    0    0    0 -0.00000000000E+00 -0.00000000000E+00 -0.74505805969E-08  0.93827000000E+00  0.93827000000E+00 0. -1.
     999902    2    1    2    0    0 -0.11760071646E-01  0.95338430372E-02  0.17000569133E-01  0.10211657122E+01  0.10209119448E+01 0.  0.
     999903    2    3    3    0    0 -0.10725574025E+00  0.31149849622E-01 -0.66999040707E-01  0.13175995052E+00  0.19942571486E-01 0.  0.
         14    1    1    2    0    0  0.11760071646E-01 -0.95338430372E-02 -0.17000569133E-01  0.22764287800E-01  0.00000000000E+00 0.  1.
     999901    1    3    3    0    0  0.95495668599E-01 -0.21616006584E-01  0.83999609840E-01  0.88940576168E+00  0.88000000000E+00 0. -1.
        -11    1    4    4    0    0 -0.90338200960E-01  0.33054935387E-01 -0.59797390574E-01  0.11326786105E+00  0.51100000000E-03 0.  1.
         11    1    4    4    0    0 -0.16917539286E-01 -0.19050857654E-02 -0.72016501328E-02  0.18492089468E-01  0.51100000000E-03 0. -1.
</event>
<event>
 8    1  0.1114447E+005  0.1043930E+01  0.7957747E-01            NaN
         13   -1    0    0    0    0  0.00000000000E+00  0.00000000000E+00  0.74505805969E-08  0.10566000000E+00  0.10566000000E+00 0. -1.
     999900   -1    0    0    0    0 -0.00000000000E+00 -0.00000000000E+00 -0.74505805969E-08  0.93827000000E+00  0.93827000000E+00 0. -1.
     999902    2    1    2    0    0  0.36882527180E-02  0.15576351945E-01 -0.13495576847E-01  0.10229930341E+01  0.10227787597E+01 0.  0.
     999903    2    3    3    0    0 -0.10906442234E+00  0.69508082208E-01 -0.29370344001E-01  0.13401957806E+00  0.19292705426E-01 0.  0.
         14    1    1    2    0    0 -0.36882527180E-02 -0.15576351945E-01  0.13495576847E-01  0.20936965932E-01  0.00000000000E+00 0. -1.
     999901    1    3    3    0    0  0.11275267506E+00 -0.53931730263E-01  0.15874767154E-01  0.88897345601E+00  0.88000000000E+00 0.  1.
        -11    1    4    4    0    0 -0.79558367977E-01  0.53409984108E-01 -0.29957978999E-01  0.10039871485E+00  0.51100000000E-03 0.  1.
         11    1    4    4    0    0 -0.29506054363E-01  0.16098098100E-01  0.58763499733E-03  0.33620863202E-01  0.51100000000E-03 0. -1.
</event>
<event>
 8    1  0.1114447E+005  0.1043930E+01  0.7957747E-01            NaN
         13   -1    0    0    0    0  0.00000000000E+00  0.00000000000E+00  0.74505805969E-08  0.10566000000E+00  0.10566000000E+00 0. -1.
     999900   -1    0    0    0    0 -0.00000000000E+00 -0.00000000000E+00 -0.74505805969E-08  0.93827000000E+00  0.93827000000E+00 0.  1.
     999902    2    1    2    0    0  0.16361683875E-01  0.17726747395E-01  0.32125673208E-02  0.10195935487E+01  0.10193030667E+01 0.  0.
     999903    2    3    3    0    0  0.70062396755E-01  0.81093846926E-01 -0.75089875097E-01  0.13222078130E+00  0.18944503582E-01 0.  0.
         14    1    1    2    0    0 -0.16361683875E-01 -0.17726747395E-01 -0.32125673208E-02  0.24336451286E-01  0.00000000000E+00 0.  1.
     999901    1    3    3    0    0 -0.53700712880E-01 -0.63367099531E-01  0.78302442418E-01  0.88737276742E+00  0.88000000000E+00 0. -1.
        -11    1    4    4    0    0  0.49094116857E-01  0.68664697481E-01 -0.59688434287E-01  0.10338299328E+00  0.51100000000E-03 0.  1.
         11    1    4    4    0    0  0.20968279898E-01  0.12429149445E-01 -0.15401440811E-01  0.28837788019E-01  0.51100000000E-03 0. -1.
</event>
<event>
 8    1  0.1114447E+005  0.1043930E+01  0.7957747E-01            NaN
         13   -1    0    0    0    0  0.00000000000E+00  0.00000000000E+00  0.74505805969E-08  0.10566000000E+00  0.10566000000E+00 0.  1.
     999900   -1    0    0    0    0 -0.00000000000E+00 -0.00000000000E+00 -0.74505805969E-08  0.93827000000E+00  0.93827000000E+00 0. -1.
     999902    2    1    2    0    0  0.94013450179E-02  0.21559983029E-01  0.45253524224E-02  0.10199780278E+01  0.10196967590E+01 0.  0.
     999903    2    3    3    0    0 -0.41880071486E-01 -0.97905665322E-01  0.68424120248E-01  0.12813450044E+00  0.19928127898E-01 0.  0.
         14    1    1    2    0    0 -0.94013450179E-02 -0.21559983029E-01 -0.45253524224E-02  0.23951972172E-01  0.00000000000E+00 0. -1.
     999901    1    3    3    0    0  0.51281416504E-01  0.11946564835E+00 -0.63898767825E-01  0.89184352739E+00  0.88000000000E+00 0.  1.
        -11    1    4    4    0    0 -0.25391068505E-01 -0.66150000440E-01  0.55789144466E-01  0.90184359394E-01  0.51100000000E-03 0.  1.
         11    1    4    4    0    0 -0.16489002981E-01 -0.31755664883E-01  0.12634975781E-01  0.37950141046E-01  0.51100000000E-03 0. -1.
</event>
<event>
 8    1  0.1114447E+005  0.1043930E+01  0.7957747E-01            NaN
         13   -1    0    0    0    0  0.00000000000E+00  0.00000000000E+00  0.74505805969E-08  0.10566000000E+00  0.10566000000E+00 0.  1.
     999900   -1    0    0    0    0 -0.00000000000E+00 -0.00000000000E+00 -0.74505805969E-08  0.93827000000E+00  0.93827000000E+00 0.  1.
     999902    2    1    2    0    0  0.94159391366E-02 -0.21125319085E-01 -0.43874793978E-02  0.10203887810E+01  0.10201171871E+01 0.  0.
     999903    2    3    3    0    0 -0.80342011927E-01 -0.54989001636E-01  0.83528180432E-01  0.13082012035E+00  0.25657704127E-01 0.  0.
         14    1    1    2    0    0 -0.94159391366E-02  0.21125319085E-01  0.43874793978E-02  0.23541218995E-01  0.00000000000E+00 0.  1.
     999901    1    3    3    0    0  0.89757951063E-01  0.33863682550E-01 -0.87915659830E-01  0.88956866065E+00  0.88000000000E+00 0.  1.
        -11    1    4    4    0    0 -0.64609578183E-01 -0.55109520183E-01  0.69522992727E-01  0.10975046445E+00  0.51100000000E-03 0.  1.
         11    1    4    4    0    0 -0.15732433743E-01  0.12051854776E-03  0.14005187706E-01  0.21069655903E-01  0.51100000000E-03 0. -1.
</event>
<event>
 8    1  0.1114447E+005  0.1043930E+01  0.7957747E-01            NaN
         13   -1    0    0    0    0  0.00000000000E+00  0.00000000000E+00  0.74505805969E-08  0.10566000000E+00  0.10566000000E+00 0.  1.
     999900   -1    0    0    0    0 -0.00000000000E+00 -0.00000000000E+00 -0.74505805969E-08  0.93827000000E+00  0.93827000000E+00 0.  1.
     999902    2    1    2    0    0  0.44427874718E-02 -0.22712090409E-01  0.36493103433E-02  0.10205014943E+01  0.10202325250E+01 0.  0.
     999903    2    3    3    0    0  0.57677256013E-01 -0.85918569205E-01 -0.80814545013E-01  0.13260335240E+00  0.18547020978E-01 0.  0.
         14    1    1    2    0    0 -0.44427874718E-02  0.22712090409E-01 -0.36493103433E-02  0.23428505655E-01  0.00000000000E+00 0. -1.
     999901    1    3    3    0    0 -0.53234468541E-01  0.63206478797E-01  0.84463855357E-01  0.88789814194E+00  0.88000000000E+00 0. -1.
        -11    1    4    4    0    0  0.19503502882E-01 -0.29746145668E-01 -0.17069737414E-01  0.39457025523E-01  0.51100000000E-03 0. -1.
         11    1    4    4    0    0  0.38173753132E-01 -0.56172423537E-01 -0.63744807599E-01  0.93146326879E-01  0.51100000000E-03 0.  1.
</event>
<event>
 8    1  0.1114447E+005  0.1043930E+01  0.7957747E-01            NaN
         13   -1    0    0    0    0  0.00000000000E+00  0.00000000000E+00  0.74505805969E-08  0.10566000000E+00  0.10566000000E+00 0. -1.
     999900   -1    0    0    0    0 -0.00000000000E+00 -0.00000000000E+00 -0.74505805969E-08  0.93827000000E+00  0.93827000000E+00 0.  1.
     999902    2    1    2    0    0 -0.16802653845E-01  0.14344116296E-01  0.53441208994E-02  0.10212002293E+01  0.10209472395E+01 0.  0.
     999903    2    3    3    0    0  0.98922784876E-01  0.80177390223E-01  0.22756762805E-01  0.13101508157E+00  0.20807452353E-01 0.  0.
         14    1    1    2    0    0  0.16802653845E-01 -0.14344116296E-01 -0.53441208994E-02  0.22729770715E-01  0.00000000000E+00 0. -1.
     999901    1    3    3    0    0 -0.11572543872E+00 -0.65833273927E-01 -0.17412641906E-01  0.89018514772E+00  0.88000000000E+00 0.  1.
        -11    1    4    4    0    0  0.69614481072E-01  0.43580457888E-01  0.14097810799E-01  0.83333316716E-01  0.51100000000E-03 0. -1.
         11    1    4    4    0    0  0.29308303805E-01  0.36596932335E-01  0.86589520062E-02  0.47681764849E-01  0.51100000000E-03 0.  1.
</event>
<event>
 8    1  0.1114447E+005  0.1043930E+01  0.7957747E-01            NaN
         13   -1    0    0    0    0  0.00000000000E+00  0.00000000000E+00  0.74505805969E-08  0.10566000000E+00  0.10566000000E+00 0. -1.
     999900   -1    0    0    0    0 -0.00000000000E+00 -0.00000000000E+00 -0.74505805969E-08  0.93827000000E+00  0.93827000000E+00 0.  1.
     999902    2    1    2    0    0  0.24121103427E-02 -0.41439862905E-02  0.21904445597E-01  0.10215068950E+01  0.10212607605E+01 0.  0.
     999903    2    3    3    0    0  0.96173889955E-01  0.31271012555E-01 -0.79276655629E-01  0.13005689157E+00  0.20067724880E-01 0.  0.
         14    1    1    2    0    0 -0.24121103427E-02  0.41439862905E-02 -0.21904445597E-01  0.22423104950E-01  0.00000000000E+00 0.  1.
     999901    1    3    3    0    0 -0.93761779612E-01 -0.35414998846E-01  0.10118110123E+00  0.89145000348E+00  0.88000000000E+00 0. -1.
        -11    1    4    4    0    0  0.63765047776E-01  0.30113312790E-01 -0.57501997204E-01  0.90991943207E-01  0.51100000000E-03 0.  1.
         11    1    4    4    0    0  0.32408842179E-01  0.11576997658E-02 -0.21774658424E-01  0.39064948363E-01  0.51100000000E-03 0. -1.
</event>
<event>
 8    1  0.1114447E+005  0.1043930E+01  0.7957747E-01            NaN
         13   -1    0    0    0    0  0.00000000000E+00  0.00000000000E+00  0.74505805969E-08  0.10566000000E+00  0.10566000000E+00 0.  1.
     999900   -1    0    0    0    0 -0.00000000000E+00 -0.00000000000E+00 -0.74505805969E-08  0.93827000000E+00  0.93827000000E+00 0. -1.
     999902    2    1    2    0    0 -0.63222226076E-02 -0.11298024701E-02 -0.21902393368E-01  0.10211054127E+01  0.10208502838E+01 0.  0.
     999903    2    3    3    0    0 -0.73645872580E-01 -0.36454204960E-01  0.98057792832E-01  0.12971844083E+00  0.21422407653E-01 0.  0.
         14    1    1    2    0    0  0.63222226076E-02  0.11298024701E-02  0.21902393368E-01  0.22824587347E-01  0.00000000000E+00 0.  1.
     999901    1    3    3    0    0  0.67323649972E-01  0.35324402490E-01 -0.11996018620E+00  0.89138697182E+00  0.88000000000E+00 0. -1.
        -11    1    4    4    0    0 -0.44474456553E-01 -0.33265071320E-01  0.65788363741E-01  0.86098270484E-01  0.51100000000E-03 0.  1.
         11    1    4    4    0    0 -0.29171416027E-01 -0.31891336398E-02  0.32269429092E-01  0.43620170349E-01  0.51100000000E-03 0. -1.
</event>
<event>
 8    1  0.1114447E+005  0.1043930E+01  0.7957747E-01            NaN
         13   -1    0    0    0    0  0.00000000000E+00  0.00000000000E+00  0.74505805969E-08  0.10566000000E+00  0.10566000000E+00 0. -1.
     999900   -1    0    0    0    0 -0.00000000000E+00 -0.00000000000E+00 -0.74505805969E-08  0.93827000000E+00  0.93827000000E+00 0.  1.
     999902    2    1    2    0    0  0.23029646652E-01 -0.87202756265E-02  0.12391817673E-01  0.10163625377E+01  0.10159886038E+01 0.  0.
     999903    2    3    3    0    0  0.57687569818E-01 -0.10977766866E+00  0.32368449694E-01  0.12967610263E+00  0.19727716804E-01 0.  0.
         14    1    1    2    0    0 -0.23029646652E-01  0.87202756265E-02 -0.12391817673E-01  0.27567462291E-01  0.00000000000E+00 0. -1.
     999901    1    3    3    0    0 -0.34657923167E-01  0.10105739303E+00 -0.19976632021E-01  0.88668643508E+00  0.88000000000E+00 0.  1.
        -11    1    4    4    0    0  0.63616432075E-02 -0.18776839349E-01  0.12154425933E-01  0.23260081492E-01  0.51100000000E-03 0.  1.
         11    1    4    4    0    0  0.51325926611E-01 -0.91000829310E-01  0.20214023761E-01  0.10641602114E+00  0.51100000000E-03 0. -1.
</event>
<event>
 8    1  0.1114447E+005  0.1043930E+01  0.7957747E-01            NaN
         13   -1    0    0    0    0  0.00000000000E+00  0.00000000000E+00  0.74505805969E-08  0.10566000000E+00  0.10566000000E+00 0.  1.
     999900   -1    0    0    0    0 -0.00000000000E+00 -0.00000000000E+00 -0.74505805969E-08  0.93827000000E+00  0.93827000000E+00 0.  1.
     999902    2    1    2    0    0  0.91414376519E-02  0.21288278565E-01 -0.62969656037E-02  0.10199214919E+01  0.10196388778E+01 0.  0.
     999903    2    3    3    0    0  0.53766105623E-01  0.33404004167E-01 -0.11435631599E+00  0.13210677303E+00  0.19188821328E-01 0.  0.
         14    1    1    2    0    0 -0.91414376519E-02 -0.21288278565E-01  0.62969656037E-02  0.24008508126E-01  0.00000000000E+00 0.  1.
     999901    1    3    3    0    0 -0.44624667971E-01 -0.12115725602E-01  0.10805935039E+00  0.88781471885E+00  0.88000000000E+00 0. -1.
        -11    1    4    4    0    0  0.41463917251E-01  0.21214790355E-01 -0.66330812712E-01  0.81051598378E-01  0.51100000000E-03 0. -1.
         11    1    4    4    0    0  0.12302188372E-01  0.12189213812E-01 -0.48025503278E-01  0.51055174647E-01  0.51100000000E-03 0.  1.
</event>
<event>
 8    1  0.1114447E+005  0.1043930E+01  0.7957747E-01            NaN
         13   -1    0    0    0    0  0.00000000000E+00  0.00000000000E+00  0.74505805969E-08  0.10566000000E+00  0.10566000000E+00 0.  1.
     999900   -1    0    0    0    0 -0.00000000000E+00 -0.00000000000E+00 -0.74505805969E-08  0.93827000000E+00  0.93827000000E+00 0. -1.
     999902    2    1    2    0    0 -0.21343375018E-01  0.66124914207E-02 -0.85934720919E-02  0.10199902326E+01  0.10197092537E+01 0.  0.
     999903    2    3    3    0    0 -0.59363441640E-01  0.12853482818E-01  0.11383385257E+00  0.13067986763E+00  0.20732862563E-01 0.  0.
         14    1    1    2    0    0  0.21343375018E-01 -0.66124914207E-02  0.85934720919E-02  0.23939767387E-01  0.00000000000E+00 0.  1.
     999901    1    3    3    0    0  0.38020066622E-01 -0.62409913971E-02 -0.12242732466E+00  0.88931036498E+00  0.88000000000E+00 0. -1.
        -11    1    4    4    0    0 -0.20922325408E-01  0.14714729097E-01  0.41800017166E-01  0.49007851504E-01  0.51100000000E-03 0.  1.
         11    1    4    4    0    0 -0.38441116232E-01 -0.18612462795E-02  0.72033835401E-01  0.81672016128E-01  0.51100000000E-03 0. -1.
</event>
<event>
 8    1  0.1114447E+005  0.1043930E+01  0.7957747E-01            NaN
         13   -1    0    0    0    0  0.00000000000E+00  0.00000000000E+00  0.74505805969E-08  0.10566000000E+00  0.10566000000E+00 0.  1.
     999900   -1    0    0    0    0 -0.00000000000E+00 -0.00000000000E+00 -0.74505805969E-08  0.93827000000E+00  0.93827000000E+00 0. -1.
     999902    2    1    2    0    0 -0.20921173683E-01  0.32826931460E-02  0.94916106261E-02  0.10207230559E+01  0.10204592077E+01 0.  0.
     999903    2    3    3    0    0  0.40995918959E-01 -0.80159968500E-02 -0.12033764386E+00  0.12897363925E+00  0.20202215601E-01 0.  0.
         14    1    1    2    0    0  0.20921173683E-01 -0.32826931460E-02 -0.94916106261E-02  0.23206944108E-01  0.00000000000E+00 0. -1.
     999901    1    3    3    0    0 -0.61917092642E-01  0.11298689996E-01  0.12982925449E+00  0.89174941664E+00  0.88000000000E+00 0.  1.
        -11    1    4    4    0    0  0.11529408707E-01 -0.10258409801E-01 -0.27422653671E-01  0.31471023055E-01  0.51100000000E-03 0. -1.
         11    1    4    4    0    0  0.29466510252E-01  0.22424129511E-02 -0.92914990190E-01  0.97502616197E-01  0.51100000000E-03 0.  1.
</event>
<event>
 8    1  0.1114447E+005  0.1043930E+01  0.7957747E-01            NaN
         13   -1    0    0    0    0  0.00000000000E+00  0.00000000000E+00  0.74505805969E-08  0.10566000000E+00  0.10566000000E+00 0.  1.
     999900   -1    0    0    0    0 -0.00000000000E+00 -0.00000000000E+00 -0.74505805969E-08  0.93827000000E+00  0.93827000000E+00 0. -1.
     999902    2    1    2    0    0 -0.22885867801E-01 -0.39366579338E-02  0.30192089087E-02  0.10205125739E+01  0.10202438619E+01 0.  0.
     999903    2    3    3    0    0 -0.10735027743E+00  0.64327014974E-01  0.41419244214E-01  0.13300554397E+00  0.17688245164E-01 0.  0.
         14    1    1    2    0    0  0.22885867801E-01  0.39366579338E-02 -0.30192089087E-02  0.23417426057E-01  0.00000000000E+00 0.  1.
     999901    1    3    3    0    0  0.84464409628E-01 -0.68263672908E-01 -0.38400035306E-01  0.88750702997E+00  0.88000000000E+00 0. -1.
        -11    1    4    4    0    0 -0.22393239516E-01  0.58936012858E-02  0.98355492144E-02  0.25163283997E-01  0.51100000000E-03 0. -1.
         11    1    4    4    0    0 -0.84957037913E-01  0.58433413688E-01  0.31583695000E-01  0.10784225998E+00  0.51100000000E-03 0.  1.
</event>
<event>
 8    1  0.1114447E+005  0.1043930E+01  0.7957747E-01            NaN
         13   -1    0    0    0    0  0.00000000000E+00  0.00000000000E+00  0.74505805969E-08  0.10566000000E+00  0.10566000000E+00 0.  1.
     999900   -1    0    0    0    0 -0.00000000000E+00 -0.00000000000E+00 -0.74505805969E-08  0.93827000000E+00  0.93827000000E+00 0. -1.
     999902    2    1    2    0    0  0.53836305654E-02  0.17750982131E-01 -0.16470982468E-01  0.10191232649E+01  0.10188213066E+01 0.  0.
     999903    2    3    3    0    0  0.95092580014E-01  0.82130219874E-02 -0.88258566407E-01  0.13160305354E+00  0.20487475532E-01 0.  0.
         14    1    1    2    0    0 -0.53836305654E-02 -0.17750982131E-01  0.16470982468E-01  0.24806735137E-01  0.00000000000E+00 0.  1.
     999901    1    3    3    0    0 -0.89708949448E-01  0.95379601440E-02  0.71787583939E-01  0.88752021132E+00  0.88000000000E+00 0. -1.
        -11    1    4    4    0    0  0.63065260055E-01 -0.34927421434E-02 -0.62558649762E-01  0.88900349012E-01  0.51100000000E-03 0. -1.
         11    1    4    4    0    0  0.32027319959E-01  0.11705764131E-01 -0.25699916645E-01  0.42702704530E-01  0.51100000000E-03 0.  1.
</event>
<event>
 8    1  0.1114447E+005  0.1043930E+01  0.7957747E-01            NaN
         13   -1    0    0    0    0  0.00000000000E+00  0.00000000000E+00  0.74505805969E-08  0.10566000000E+00  0.10566000000E+00 0. -1.
     999900   -1    0    0    0    0 -0.00000000000E+00 -0.00000000000E+00 -0.74505805969E-08  0.93827000000E+00  0.93827000000E+00 0. -1.
     999902    2    1    2    0    0  0.15377693000E-01  0.18205539535E-01  0.11994821290E-01  0.10172505913E+01  0.10169006710E+01 0.  0.
     999903    2    3    3    0    0 -0.79100325857E-02 -0.32885364766E-01  0.12233139723E+00  0.12858487311E+00  0.20617541410E-01 0.  0.
         14    1    1    2    0    0 -0.15377693000E-01 -0.18205539535E-01 -0.11994821290E-01  0.26679408717E-01  0.00000000000E+00 0.  1.
     999901    1    3    3    0    0  0.23287725585E-01  0.51090904301E-01 -0.11033657594E+00  0.88866571817E+00  0.88000000000E+00 0. -1.
        -11    1    4    4    0    0 -0.32273457544E-02 -0.30193375612E-01  0.74581523452E-01  0.80527762001E-01  0.51100000000E-03 0. -1.
         11    1    4    4    0    0 -0.46826868313E-02 -0.26919891539E-02  0.47749873776E-01  0.48057111109E-01  0.51100000000E-03 0.  1.
</event>
<event>
 8    1  0.1114447E+005  0.1043930E+01  0.7957747E-01            NaN
         13   -1    0    0    0    0  0.00000000000E+00  0.00000000000E+00  0.74505805969E-08  0.10566000000E+00  0.10566000000E+00 0.  1.
     999900   -1    0    0    0    0 -0.00000000000E+00 -0.00000000000E+00 -0.74505805969E-08  0.93827000000E+00  0.93827000000E+00 0.  1.
     999902    2    1    2    0    0  0.14987302054E-01 -0.10276269203E-01 -0.14712959995E-01  0.10205485517E+01  0.10202806743E+01 0.  0.
     999903    2    3    3    0    0 -0.85429396969E-01  0.93578053006E-01  0.65326272562E-02  0.12851682098E+00  0.20466171708E-01 0.  0.
         14    1    1    2    0    0 -0.14987302054E-01  0.10276269203E-01  0.14712959995E-01  0.23381448274E-01  0.00000000000E+00 0.  1.
     999901    1    3    3    0    0  0.10041669902E+00 -0.10385432221E+00 -0.21245587251E-01  0.89203173075E+00  0.88000000000E+00 0. -1.
        -11    1    4    4    0    0 -0.21291325103E-01  0.35800173595E-01 -0.24269668320E-02  0.41726780885E-01  0.51100000000E-03 0. -1.
         11    1    4    4    0    0 -0.64138071866E-01  0.57777879412E-01  0.89595940882E-02  0.86790040092E-01  0.51100000000E-03 0.  1.
</event>
<event>
 8    1  0.1114447E+005  0.1043930E+01  0.7957747E-01            NaN
         13   -1    0    0    0    0  0.00000000000E+00  0.00000000000E+00  0.74505805969E-08  0.10566000000E+00  0.10566000000E+00 0.  1.
     999900   -1    0    0    0    0 -0.00000000000E+00 -0.00000000000E+00 -0.74505805969E-08  0.93827000000E+00  0.93827000000E+00 0. -1.
     999902    2    1    2    0    0 -0.64314804468E-02 -0.17147073083E-01  0.15110661577E-01  0.10201872506E+01  0.10199109315E+01 0.  0.
     999903    2    3    3    0    0  0.27592121259E-01 -0.12687402236E+00 -0.14932599044E-01  0.13221190951E+00  0.19966566954E-01 0.  0.
         14    1    1    2    0    0  0.64314804468E-02  0.17147073083E-01 -0.15110661577E-01  0.23742749406E-01  0.00000000000E+00 0. -1.
     999901    1    3    3    0    0 -0.34023601706E-01  0.10972694928E+00  0.30043260621E-01  0.88797534109E+00  0.88000000000E+00 0.  1.
        -11    1    4    4    0    0  0.51921565970E-02 -0.67211283103E-01 -0.11509091172E-01  0.68388854115E-01  0.51100000000E-03 0.  1.
         11    1    4    4    0    0  0.22399964662E-01 -0.59662739257E-01 -0.34235078719E-02  0.63823055392E-01  0.51100000000E-03 0. -1.
</event>
<event>
 8    1  0.1114447E+005  0.1043930E+01  0.7957747E-01            NaN
         13   -1    0    0    0    0  0.00000000000E+00  0.00000000000E+00  0.74505805969E-08  0.10566000000E+00  0.10566000000E+00 0.  1.
     999900   -1    0    0    0    0 -0.00000000000E+00 -0.00000000000E+00 -0.74505805969E-08  0.93827000000E+00  0.93827000000E+00 0.  1.
     999902    2    1    2    0    0  0.20551226893E-01  0.11607989414E-01 -0.45964925552E-02  0.10198836679E+01  0.10196001520E+01 0.  0.
     999903    2    3    3    0    0 -0.25609051700E-01  0.11818592652E+00  0.45878640743E-01  0.13081822198E+00  0.19616849104E-01 0.  0.
         14    1    1    2    0    0 -0.20551226893E-01 -0.11607989414E-01  0.45964925552E-02  0.24046332129E-01  0.00000000000E+00 0.  1.
     999901    1    3    3    0    0  0.46160278593E-01 -0.10657793711E+00 -0.50475133298E-01  0.88906544589E+00  0.88000000000E+00 0.  1.
        -11    1    4    4    0    0 -0.15696280715E-01  0.81813320703E-01  0.40844147513E-01  0.92780914955E-01  0.51100000000E-03 0. -1.
         11    1    4    4    0    0 -0.99127709850E-02  0.36372605817E-01  0.50344932294E-02  0.38037307024E-01  0.51100000000E-03 0.  1.
</event>
<event>
 8    1  0.1114447E+005  0.1043930E+01  0.7957747E-01            NaN
         13   -1    0    0    0    0  0.00000000000E+00  0.00000000000E+00  0.74505805969E-08  0.10566000000E+00  0.10566000000E+00 0. -1.
     999900   -1    0    0    0    0 -0.00000000000E+00 -0.00000000000E+00 -0.74505805969E-08  0.93827000000E+00  0.93827000000E+00 0. -1.
     999902    2    1    2    0    0 -0.19512558455E-01  0.13411279152E-01  0.13833768729E-03  0.10202525533E+01  0.10199777698E+01 0.  0.
     999903    2    3    3    0    0  0.85079385071E-01  0.16106186823E-01 -0.93644962098E-01  0.12910607570E+00  0.20027202470E-01 0.  0.
         14    1    1    2    0    0  0.19512558455E-01 -0.13411279152E-01 -0.13833768729E-03  0.23677446722E-01  0.00000000000E+00 0. -1.
     999901    1    3    3    0    0 -0.10459194353E+00 -0.26949076706E-02  0.93783299785E-01  0.89114647758E+00  0.88000000000E+00 0.  1.
        -11    1    4    4    0    0  0.40289251207E-01  0.99715225790E-02 -0.30795289961E-01  0.51684291909E-01  0.51100000000E-03 0.  1.
         11    1    4    4    0    0  0.44790133864E-01  0.61346642436E-02 -0.62849672137E-01  0.77421783793E-01  0.51100000000E-03 0. -1.
</event>
<event>
 8    1  0.1114447E+005  0.1043930E+01  0.7957747E-01            NaN
         13   -1    0    0    0    0  0.00000000000E+00  0.00000000000E+00  0.74505805969E-08  0.10566000000E+00  0.10566000000E+00 0.  1.
     999900   -1    0    0    0    0 -0.00000000000E+00 -0.00000000000E+00 -0.74505805969E-08  0.93827000000E+00  0.93827000000E+00 0. -1.
     999902    2    1    2    0    0 -0.19613313696E-01 -0.91603859206E-02  0.82583466144E-02  0.10207611625E+01  0.10204981900E+01 0.  0.
     999903    2    3    3    0    0  0.11800115137E+00  0.44693429254E-01 -0.11425196204E-01  0.12822241469E+00  0.19714922722E-01 0.  0.
         14    1    1    2    0    0  0.19613313696E-01  0.91603859206E-02 -0.82583466144E-02  0.23168837544E-01  0.00000000000E+00 0. -1.
     999901    1    3    3    0    0 -0.13761446506E+00 -0.53853815175E-01  0.19683542818E-01  0.89253874776E+00  0.88000000000E+00 0. -1.
        -11    1    4    4    0    0  0.40711183435E-01  0.66970525069E-02  0.56639343997E-03  0.41265395811E-01  0.51100000000E-03 0.  1.
         11    1    4    4    0    0  0.77289967934E-01  0.37996376748E-01 -0.11991589644E-01  0.86957018879E-01  0.51100000000E-03 0. -1.
</event>
<event>
 8    1  0.1114447E+005  0.1043930E+01  0.7957747E-01            NaN
         13   -1    0    0    0    0  0.00000000000E+00  0.00000000000E+00  0.74505805969E-08  0.10566000000E+00  0.10566000000E+00 0.  1.
     999900   -1    0    0    0    0 -0.00000000000E+00 -0.00000000000E+00 -0.74505805969E-08  0.93827000000E+00  0.93827000000E+00 0. -1.
     999902    2    1    2    0    0  0.21089199277E-01 -0.94917181236E-02 -0.22665405185E-02  0.10206924389E+01  0.10204278860E+01 0.  0.
     999903    2    3    3    0    0  0.92644801961E-01  0.62845837960E-01 -0.67622929540E-01  0.13242199368E+00  0.20738011759E-01 0.  0.
         14    1    1    2    0    0 -0.21089199277E-01  0.94917181236E-02  0.22665405185E-02  0.23237561081E-01  0.00000000000E+00 0.  1.
     999901    1    3    3    0    0 -0.71555602684E-01 -0.72337556084E-01  0.65356389022E-01  0.88827044524E+00  0.88000000000E+00 0.  1.
        -11    1    4    4    0    0  0.60573786979E-01  0.50785848826E-01 -0.41135442901E-01  0.89111008824E-01  0.51100000000E-03 0.  1.
         11    1    4    4    0    0  0.32071014982E-01  0.12059989134E-01 -0.26487486639E-01  0.43310984858E-01  0.51100000000E-03 0. -1.
</event>
<event>
 8    1  0.1114447E+005  0.1043930E+01  0.7957747E-01            NaN
         13   -1    0    0    0    0  0.00000000000E+00  0.00000000000E+00  0.74505805969E-08  0.10566000000E+00  0.10566000000E+00 0. -1.
     999900   -1    0    0    0    0 -0.00000000000E+00 -0.00000000000E+00 -0.74505805969E-08  0.93827000000E+00  0.93827000000E+00 0.  1.
     999902    2    1    2    0    0 -0.23263693463E-01 -0.76926378670E-03 -0.83905997741E-02  0.10191874584E+01  0.10188870801E+01 0.  0.
     999903    2    3    3    0    0  0.81550229201E-01  0.87660961249E-01 -0.40744837469E-01  0.12797891951E+00  0.19585148711E-01 0.  0.
         14    1    1    2    0    0  0.23263693463E-01  0.76926378670E-03  0.83905997741E-02  0.24742541601E-01  0.00000000000E+00 0. -1.
     999901    1    3    3    0    0 -0.10481392266E+00 -0.88430225035E-01  0.32354237695E-01  0.89120853888E+00  0.88000000000E+00 0. -1.
        -11    1    4    4    0    0  0.35553260354E-01  0.42992841073E-01 -0.92875980758E-02  0.56559166404E-01  0.51100000000E-03 0. -1.
         11    1    4    4    0    0  0.45996968847E-01  0.44668120176E-01 -0.31457239393E-01  0.71419753111E-01  0.51100000000E-03 0.  1.
</event>
<event>
 8    1  0.1114447E+005  0.1043930E+01  0.7957747E-01            NaN
         13   -1    0    0    0    0  0.00000000000E+00  0.00000000000E+00  0.74505805969E-08  0.10566000000E+00  0.10566000000E+00 0.  1.
     999900   -1    0    0    0    0 -0.00000000000E+00 -0.00000000000E+00 -0.74505805969E-08  0.93827000000E+00  0.93827000000E+00 0. -1.
     999902    2    1    2    0    0 -0.10443849360E-02  0.16188013976E-01  0.16430409865E-01  0.10208410220E+01  0.10205798799E+01 0.  0.
     999903    2    3    3    0    0  0.29789187655E-01 -0.91426435001E-02  0.12767932973E+00  0.13293974733E+00  0.19999538680E-01 0.  0.
         14    1    1    2    0    0  0.10443849360E-02 -0.16188013976E-01 -0.16430409865E-01  0.23088977992E-01  0.00000000000E+00 0. -1.
     999901    1    3    3    0    0 -0.30833572591E-01  0.25330657476E-01 -0.11124891987E+00  0.88790127468E+00  0.88000000000E+00 0. -1.
        -11    1    4    4    0    0  0.12867599910E-01 -0.10976153125E-01  0.90201194224E-01  0.91774547808E-01  0.51100000000E-03 0.  1.
         11    1    4    4    0    0  0.16921587745E-01  0.18335096249E-02  0.37478135508E-01  0.41165199520E-01  0.51100000000E-03 0. -1.
</event>
<event>
 8    1  0.1114447E+005  0.1043930E+01  0.7957747E-01            NaN
         13   -1    0    0    0    0  0.00000000000E+00  0.00000000000E+00  0.74505805969E-08  0.10566000000E+00  0.10566000000E+00 0.  1.
     999900   -1    0    0    0    0 -0.00000000000E+00 -0.00000000000E+00 -0.74505805969E-08  0.93827000000E+00  0.93827000000E+00 0.  1.
     999902    2    1    2    0    0 -0.14016122250E-01 -0.14588639698E-01 -0.78497911775E-02  0.10222297854E+01  0.10219994300E+01 0.  0.
     999903    2    3    3    0    0  0.84988022582E-02 -0.70873321517E-01 -0.11162093251E+00  0.13406125580E+00  0.20443345858E-01 0.  0.
         14    1    1    2    0    0  0.14016122250E-01  0.14588639698E-01  0.78497911775E-02  0.21700214577E-01  0.00000000000E+00 0.  1.
     999901    1    3    3    0    0 -0.22514924508E-01  0.56284681819E-01  0.10377114133E+00  0.88816852962E+00  0.88000000000E+00 0. -1.
        -11    1    4    4    0    0 -0.14629224228E-02 -0.57731086806E-01 -0.86849026622E-01  0.10429780953E+00  0.51100000000E-03 0.  1.
         11    1    4    4    0    0  0.99617246811E-02 -0.13142234711E-01 -0.24771905890E-01  0.29763446277E-01  0.51100000000E-03 0. -1.
</event>
<event>
 8    1  0.1114447E+005  0.1043930E+01  0.7957747E-01            NaN
         13   -1    0    0    0    0  0.00000000000E+00  0.00000000000E+00  0.74505805969E-08  0.10566000000E+00  0.10566000000E+00 0. -1.
     999900   -1    0    0    0    0 -0.00000000000E+00 -0.00000000000E+00 -0.74505805969E-08  0.93827000000E+00  0.93827000000E+00 0. -1.
     999902    2    1    2    0    0 -0.10319705330E-01 -0.22860436534E-01 -0.40244406511E-02  0.10185274017E+01  0.10182105755E+01 0.  0.
     999903    2    3    3    0    0  0.44789328144E-01 -0.11869300499E+00  0.26788948078E-01  0.13107579647E+00  0.19212062126E-01 0.  0.
         14    1    1    2    0    0  0.10319705330E-01  0.22860436534E-01  0.40244406511E-02  0.25402598276E-01  0.00000000000E+00 0.  1.
     999901    1    3    3    0    0 -0.55109033475E-01  0.95832568456E-01 -0.30813388729E-01  0.88745160526E+00  0.88000000000E+00 0. -1.
        -11    1    4    4    0    0  0.13712476102E-01 -0.60626322512E-01  0.86260210515E-02  0.62755496511E-01  0.51100000000E-03 0.  1.
         11    1    4    4    0    0  0.31076852043E-01 -0.58066682478E-01  0.18162927026E-01  0.68320299956E-01  0.51100000000E-03 0. -1.
</event>
<event>
 8    1  0.1114447E+005  0.1043930E+01  0.7957747E-01            NaN
         13   -1    0    0    0    0  0.00000000000E+00  0.00000000000E+00  0.74505805969E-08  0.10566000000E+00  0.10566000000E+00 0. -1.
     999900   -1    0    0    0    0 -0.00000000000E+00 -0.00000000000E+00 -0.74505805969E-08  0.93827000000E+00  0.93827000000E+00 0. -1.
     999902    2    1    2    0    0 -0.52253412269E-02  0.21937187357E-01  0.32776156248E-02  0.10211421273E+01  0.10208878278E+01 0.  0.
     999903    2    3    3    0    0 -0.12375232139E+00  0.26672966827E-01 -0.33486222640E-01  0.13242245692E+00  0.19705222168E-01 0.  0.
         14    1    1    2    0    0  0.52253412269E-02 -0.21937187357E-01 -0.32776156248E-02  0.22787872746E-01  0.00000000000E+00 0.  1.
     999901    1    3    3    0    0  0.11852698017E+00 -0.47357794699E-02  0.36763838264E-01  0.88871967033E+00  0.88000000000E+00 0.  1.
        -11    1    4    4    0    0 -0.36418864003E-01 -0.12040029640E-02 -0.94474352115E-02  0.37647024205E-01  0.51100000000E-03 0.  1.
         11    1    4    4    0    0 -0.87333457390E-01  0.27876969791E-01 -0.24038787428E-01  0.94775432716E-01  0.51100000000E-03 0. -1.
</event>
<event>
 7    1  0.1114447E+005  0.1043930E+01  0.7957747E-01            NaN
         13   -1    0    0    0    0  0.00000000000E+00  0.00000000000E+00  0.74505805969E-08  0.10566000000E+00  0.10566000000E+00 0. -1.
     999900   -1    0    0    0    0 -0.00000000000E+00 -0.00000000000E+00 -0.74505805969E-08  0.93827000000E+00  0.93827000000E+00 0.  1.
     999903    2    1    2    0    0  0.96123694526E-01  0.27443127696E-01  0.19274403878E-01  0.10424696614E+00  0.22428495220E-01 0.  0.
         14    1    1    2    0    0 -0.21607088267E-01  0.39331918444E-01  0.27754201027E-01  0.52765156558E-01  0.00000000000E+00 0. -1.
     999901    1    1    2    0    0 -0.74516606259E-01 -0.66775046140E-01 -0.47028604905E-01  0.88691787730E+00  0.88000000000E+00 0.  1.
        -11    1    3    3    0    0  0.58776683103E-02  0.56256613109E-02  0.67001045854E-02  0.10552135917E-01  0.51100000000E-03 0.  1.
         11    1    3    3    0    0  0.90246026216E-01  0.21817466385E-01  0.12574299293E-01  0.93694830225E-01  0.51100000000E-03 0. -1.
</event>
<event>
 8    1  0.1114447E+005  0.1043930E+01  0.7957747E-01            NaN
         13   -1    0    0    0    0  0.00000000000E+00  0.00000000000E+00  0.74505805969E-08  0.10566000000E+00  0.10566000000E+00 0.  1.
     999900   -1    0    0    0    0 -0.00000000000E+00 -0.00000000000E+00 -0.74505805969E-08  0.93827000000E+00  0.93827000000E+00 0. -1.
     999902    2    1    2    0    0 -0.10243526522E-01  0.12151863208E-01 -0.17467771239E-01  0.10203138901E+01  0.10200405451E+01 0.  0.
     999903    2    3    3    0    0  0.11468543029E+00  0.55160674768E-01 -0.20060605686E-01  0.13044663881E+00  0.20456043481E-01 0.  0.
         14    1    1    2    0    0  0.10243526522E-01 -0.12151863208E-01  0.17467771239E-01  0.23616109906E-01  0.00000000000E+00 0.  1.
     999901    1    3    3    0    0 -0.12492895681E+00 -0.43008811560E-01  0.25928344464E-02  0.88986725129E+00  0.88000000000E+00 0.  1.
        -11    1    4    4    0    0  0.36152006365E-01  0.12477653385E-01  0.22682111195E-02  0.38315340282E-01  0.51100000000E-03 0.  1.
         11    1    4    4    0    0  0.78533423922E-01  0.42683021382E-01 -0.22328816805E-01  0.92131298526E-01  0.51100000000E-03 0. -1.
</event>
<event>
 8    1  0.1114447E+005  0.1043930E+01  0.7957747E-01            NaN
         13   -1    0    0    0    0  0.00000000000E+00  0.00000000000E+00  0.74505805969E-08  0.10566000000E+00  0.10566000000E+00 0. -1.
     999900   -1    0    0    0    0 -0.00000000000E+00 -0.00000000000E+00 -0.74505805969E-08  0.93827000000E+00  0.93827000000E+00 0.  1.
     999902    2    1    2    0    0 -0.65977149999E-02 -0.92751568364E-02  0.21376329576E-01  0.10197121173E+01  0.10194244927E+01 0.  0.
     999903    2    3    3    0    0 -0.11238544773E-01  0.71163466537E-01 -0.10272820552E+00  0.12735913495E+00  0.21833945763E-01 0.  0.
         14    1    1    2    0    0  0.65977149999E-02  0.92751568364E-02 -0.21376329576E-01  0.24217882726E-01  0.00000000000E+00 0.  1.
     999901    1    3    3    0    0  0.46408297734E-02 -0.80438623373E-01  0.12410453510E+00  0.89235298232E+00  0.88000000000E+00 0.  1.
        -11    1    4    4    0    0 -0.14642763851E-01  0.32752565193E-01 -0.59010684259E-01  0.69062747104E-01  0.51100000000E-03 0. -1.
         11    1    4    4    0    0  0.34042190773E-02  0.38410901344E-01 -0.43717521262E-01  0.58296387846E-01  0.51100000000E-03 0.  1.
</event>
<event>
 8    1  0.1114447E+005  0.1043930E+01  0.7957747E-01            NaN
         13   -1    0    0    0    0  0.00000000000E+00  0.00000000000E+00  0.74505805969E-08  0.10566000000E+00  0.10566000000E+00 0.  1.
     999900   -1    0    0    0    0 -0.00000000000E+00 -0.00000000000E+00 -0.74505805969E-08  0.93827000000E+00  0.93827000000E+00 0. -1.
     999902    2    1    2    0    0  0.21573622983E-02 -0.18402501683E-01  0.14912775015E-01  0.10201456114E+01  0.10198683108E+01 0.  0.
     999903    2    3    3    0    0 -0.67943619107E-01  0.10271217569E+00  0.32625092025E-01  0.12891239907E+00  0.19694760518E-01 0.  0.
         14    1    1    2    0    0 -0.21573622983E-02  0.18402501683E-01 -0.14912775015E-01  0.23784388555E-01  0.00000000000E+00 0. -1.
     999901    1    3    3    0    0  0.70100981406E-01 -0.12111467737E+00 -0.17712317010E-01  0.89123321238E+00  0.88000000000E+00 0. -1.
        -11    1    4    4    0    0 -0.52683812670E-01  0.65132033826E-01  0.26655197439E-01  0.87912039103E-01  0.51100000000E-03 0. -1.
         11    1    4    4    0    0 -0.15259806437E-01  0.37580141863E-01  0.59698945864E-02  0.41000359965E-01  0.51100000000E-03 0.  1.
</event>
<event>
 8    1  0.1114447E+005  0.1043930E+01  0.7957747E-01            NaN
         13   -1    0    0    0    0  0.00000000000E+00  0.00000000000E+00  0.74505805969E-08  0.10566000000E+00  0.10566000000E+00 0. -1.
     999900   -1    0    0    0    0 -0.00000000000E+00 -0.00000000000E+00 -0.74505805969E-08  0.93827000000E+00  0.93827000000E+00 0.  1.
     999902    2    1    2    0    0 -0.18815294309E-01 -0.69401112891E-02 -0.12595198997E-01  0.10202483725E+01  0.10199734909E+01 0.  0.
     999903    2    3    3    0    0 -0.65626527797E-01 -0.80723495461E-01  0.77643986328E-01  0.13132858423E+00  0.19886793420E-01 0.  0.
         14    1    1    2    0    0  0.18815294309E-01  0.69401112891E-02  0.12595198997E-01  0.23681627529E-01  0.00000000000E+00 0. -1.
     999901    1    3    3    0    0  0.46811233488E-01  0.73783384172E-01 -0.90239185325E-01  0.88891978824E+00  0.88000000000E+00 0.  1.
        -11    1    4    4    0    0 -0.47197405716E-01 -0.44907267872E-01  0.41791896527E-01  0.77402077171E-01  0.51100000000E-03 0.  1.
         11    1    4    4    0    0 -0.18429122082E-01 -0.35816227589E-01  0.35852089801E-01  0.53926507059E-01  0.51100000000E-03 0. -1.
</event>
<event>
 8    1  0.1114447E+005  0.1043930E+01  0.7957747E-01            NaN
         13   -1    0    0    0    0  0.00000000000E+00  0.00000000000E+00  0.74505805969E-08  0.10566000000E+00  0.10566000000E+00 0. -1.
     999900   -1    0    0    0    0 -0.00000000000E+00 -0.00000000000E+00 -0.74505805969E-08  0.93827000000E+00  0.93827000000E+00 0.  1.
     999902    2    1    2    0    0  0.13600921377E-01  0.17084908868E-01 -0.86320347816E-02  0.10204482795E+01  0.10201780727E+01 0.  0.
     999903    2    3    3    0    0 -0.31622996400E-02 -0.19400414745E-01 -0.12860739213E+00  0.13140032197E+00  0.18433856638E-01 0.  0.
         14    1    1    2    0    0 -0.13600921377E-01 -0.17084908868E-01  0.86320347816E-02  0.23481720503E-01  0.00000000000E+00 0.  1.
     999901    1    3    3    0    0  0.16763221017E-01  0.36485323612E-01  0.11997535735E+00  0.88904795753E+00  0.88000000000E+00 0. -1.
        -11    1    4    4    0    0  0.65930579865E-02 -0.14554687515E-01 -0.72220483425E-01  0.73968687222E-01  0.51100000000E-03 0. -1.
         11    1    4    4    0    0 -0.97553576264E-02 -0.48457272298E-02 -0.56386908707E-01  0.57431634744E-01  0.51100000000E-03 0.  1.
</event>
<event>
 8    1  0.1114447E+005  0.1043930E+01  0.7957747E-01            NaN
         13   -1    0    0    0    0  0.00000000000E+00  0.00000000000E+00  0.74505805969E-08  0.10566000000E+00  0.10566000000E+00 0.  1.
     999900   -1    0    0    0    0 -0.00000000000E+00 -0.00000000000E+00 -0.74505805969E-08  0.93827000000E+00  0.93827000000E+00 0.  1.
     999902    2    1    2    0    0  0.21111389236E-01 -0.84503221249E-02 -0.36474028220E-02  0.10208995365E+01  0.10206397315E+01 0.  0.
     999903    2    3    3    0    0 -0.84878113649E-01  0.91773782487E-01 -0.24006673600E-01  0.12865901641E+00  0.18710980679E-01 0.  0.
         14    1    1    2    0    0 -0.21111389236E-01  0.84503221249E-02  0.36474028220E-02  0.23030463452E-01  0.00000000000E+00 0.  1.
     999901    1    3    3    0    0  0.10598950288E+00 -0.10022410461E+00  0.20359270778E-01  0.89224052014E+00  0.88000000000E+00 0. -1.
        -11    1    4    4    0    0 -0.18036546477E-01  0.17962067961E-01  0.25807521433E-02  0.25590511853E-01  0.51100000000E-03 0.  1.
         11    1    4    4    0    0 -0.66841567172E-01  0.73811714526E-01 -0.26587425744E-01  0.10306850456E+00  0.51100000000E-03 0. -1.
</event>
<event>
 8    1  0.1114447E+005  0.1043930E+01  0.7957747E-01            NaN
         13   -1    0    0    0    0  0.00000000000E+00  0.00000000000E+00  0.74505805969E-08  0.10566000000E+00  0.10566000000E+00 0.  1.
     999900   -1    0    0    0    0 -0.00000000000E+00 -0.00000000000E+00 -0.74505805969E-08  0.93827000000E+00  0.93827000000E+00 0. -1.
     999902    2    1    2    0    0  0.14596935111E-01 -0.27724386478E-02 -0.15196038166E-01  0.10226773177E+01  0.10224564634E+01 0.  0.
     999903    2    3    3    0    0 -0.24800225970E-01  0.12526170334E+00  0.24498285684E-01  0.13165514220E+00  0.20672806614E-01 0.  0.
         14    1    1    2    0    0 -0.14596935111E-01  0.27724386478E-02  0.15196038166E-01  0.21252682340E-01  0.00000000000E+00 0.  1.
     999901    1    3    3    0    0  0.39397161081E-01 -0.12803414199E+00 -0.39694323851E-01  0.89102217546E+00  0.88000000000E+00 0. -1.
        -11    1    4    4    0    0  0.28842992958E-02  0.29564432006E-01  0.45639651453E-02  0.30057706518E-01  0.51100000000E-03 0. -1.
         11    1    4    4    0    0 -0.27684525266E-01  0.95697271338E-01  0.19934320539E-01  0.10159743568E+00  0.51100000000E-03 0.  1.
</event>
<event>
 8    1  0.1114447E+005  0.1043930E+01  0.7957747E-01            NaN
         13   -1    0    0    0    0  0.00000000000E+00  0.00000000000E+00  0.74505805969E-08  0.10566000000E+00  0.10566000000E+00 0.  1.
     999900   -1    0    0    0    0 -0.00000000000E+00 -0.00000000000E+00 -0.74505805969E-08  0.93827000000E+00  0.93827000000E+00 0. -1.
     999902    2    1    2    0    0 -0.25498708473E-01 -0.15919928580E-02  0.69891278144E-02  0.10174428997E+01  0.10170980718E+01 0.  0.
     999903    2    3    3    0    0  0.16043599098E-03 -0.12656539937E+00 -0.34047366790E-02  0.12818209630E+00  0.20005787261E-01 0.  0.
         14    1    1    2    0    0  0.25498708473E-01  0.15919928580E-02 -0.69891278144E-02  0.26487100306E-01  0.00000000000E+00 0. -1.
     999901    1    3    3    0    0 -0.25659144464E-01  0.12497340651E+00  0.10393864493E-01  0.88926080339E+00  0.88000000000E+00 0.  1.
        -11    1    4    4    0    0 -0.44704592103E-02 -0.10500148274E+00  0.32208321729E-02  0.10514718857E+00  0.51100000000E-03 0. -1.
         11    1    4    4    0    0  0.46308952013E-02 -0.21563916631E-01 -0.66255688519E-02  0.23034907737E-01  0.51100000000E-03 0.  1.
</event>
<event>
 8    1  0.1114447E+005  0.1043930E+01  0.7957747E-01            NaN
         13   -1    0    0    0    0  0.00000000000E+00  0.00000000000E+00  0.74505805969E-08  0.10566000000E+00  0.10566000000E+00 0.  1.
     999900   -1    0    0    0    0 -0.00000000000E+00 -0.00000000000E+00 -0.74505805969E-08  0.93827000000E+00  0.93827000000E+00 0.  1.
     999902    2    1    2    0    0  0.11269868110E-01  0.21466334314E-01  0.15322395383E-02  0.10196367665E+01  0.10193473277E+01 0.  0.
     999903    2    3    3    0    0 -0.61076811219E-01  0.63737701694E-01 -0.93844328193E-01  0.13052619959E+00  0.20915529149E-01 0.  0.
         14    1    1    2    0    0 -0.11269868110E-01 -0.21466334314E-01 -0.15322395383E-02  0.24293233505E-01  0.00000000000E+00 0.  1.
     999901    1    3    3    0    0  0.72346679329E-01 -0.42271367380E-01  0.95376567731E-01  0.88911056691E+00  0.88000000000E+00 0.  1.
        -11    1    4    4    0    0 -0.15017309998E-01  0.13330584426E-01 -0.35145853110E-01  0.40481059676E-01  0.51100000000E-03 0.  1.
         11    1    4    4    0    0 -0.46059501221E-01  0.50407117269E-01 -0.58698475083E-01  0.90045139914E-01  0.51100000000E-03 0. -1.
</event>
<event>
 8    1  0.1114447E+005  0.1043930E+01  0.7957747E-01            NaN
         13   -1    0    0    0    0  0.00000000000E+00  0.00000000000E+00  0.74505805969E-08  0.10566000000E+00  0.10566000000E+00 0. -1.
     999900   -1    0    0    0    0 -0.00000000000E+00 -0.00000000000E+00 -0.74505805969E-08  0.93827000000E+00  0.93827000000E+00 0. -1.
     999902    2    1    2    0    0 -0.18795774301E-01 -0.12120024521E-01 -0.83855683870E-02  0.10200449862E+01  0.10197653063E+01 0.  0.
     999903    2    3    3    0    0 -0.76978708171E-01 -0.67944098026E-01  0.80565367426E-01  0.13189305668E+00  0.19049357007E-01 0.  0.
         14    1    1    2    0    0  0.18795774301E-01  0.12120024521E-01  0.83855683870E-02  0.23885013778E-01  0.00000000000E+00 0.  1.
     999901    1    3    3    0    0  0.58182933869E-01  0.55824073505E-01 -0.88950935813E-01  0.88815192955E+00  0.88000000000E+00 0. -1.
        -11    1    4    4    0    0 -0.60036773529E-01 -0.55302001574E-01  0.72776593160E-01  0.10935912942E+00  0.51100000000E-03 0. -1.
         11    1    4    4    0    0 -0.16941934642E-01 -0.12642096453E-01  0.77887742665E-02  0.22533927259E-01  0.51100000000E-03 0.  1.
</event>
<event>
 8    1  0.1114447E+005  0.1043930E+01  0.7957747E-01            NaN
         13   -1    0    0    0    0  0.00000000000E+00  0.00000000000E+00  0.74505805969E-08  0.10566000000E+00  0.10566000000E+00 0. -1.
     999900   -1    0    0    0    0 -0.00000000000E+00 -0.00000000000E+00 -0.74505805969E-08  0.93827000000E+00  0.93827000000E+00 0.  1.
     999902    2    1    2    0    0  0.13751042013E-01  0.17109207762E-01  0.92868790309E-02  0.10200959431E+01  0.10198174694E+01 0.  0.
     999903    2    3    3    0    0  0.37733446490E-01  0.24494762333E-01 -0.12040954865E+00  0.13023591730E+00  0.20955390315E-01 0.  0.
         14    1    1    2    0    0 -0.13751042013E-01 -0.17109207762E-01 -0.92868790309E-02  0.23834056911E-01  0.00000000000E+00 0.  1.
     999901    1    3    3    0    0 -0.23982404477E-01 -0.73855545708E-02  0.12969642768E+00  0.88986002579E+00  0.88000000000E+00 0. -1.
        -11    1    4    4    0    0  0.62576396162E-02 -0.12947598221E-02 -0.35546198177E-01  0.36119631538E-01  0.51100000000E-03 0.  1.
         11    1    4    4    0    0  0.31475806874E-01  0.25789522155E-01 -0.84863350474E-01  0.94116285764E-01  0.51100000000E-03 0. -1.
</event>
<event>
 8    1  0.1114447E+005  0.1043930E+01  0.7957747E-01            NaN
         13   -1    0    0    0    0  0.00000000000E+00  0.00000000000E+00  0.74505805969E-08  0.10566000000E+00  0.10566000000E+00 0. -1.
     999900   -1    0    0    0    0 -0.00000000000E+00 -0.00000000000E+00 -0.74505805969E-08  0.93827000000E+00  0.93827000000E+00 0. -1.
     999902    2    1    2    0    0  0.65212229235E-02 -0.56930731370E-02 -0.17655768692E-01  0.10242662364E+01  0.10240774675E+01 0.  0.
     999903    2    3    3    0    0  0.97021205275E-01  0.15154895907E-01  0.87717494293E-01  0.13312740931E+00  0.19640854425E-01 0.  0.
         14    1    1    2    0    0 -0.65212229235E-02  0.56930731370E-02  0.17655768692E-01  0.19663763583E-01  0.00000000000E+00 0. -1.
     999901    1    3    3    0    0 -0.90499982352E-01 -0.20847969044E-01 -0.10537326298E+00  0.89113882710E+00  0.88000000000E+00 0. -1.
        -11    1    4    4    0    0  0.46438180575E-01  0.16616297537E-01  0.38971393561E-01  0.62862044161E-01  0.51100000000E-03 0.  1.
         11    1    4    4    0    0  0.50583024700E-01 -0.14614016305E-02  0.48746100732E-01  0.70265365153E-01  0.51100000000E-03 0. -1.
</event>
<event>
 8    1  0.1114447E+005  0.1043930E+01  0.7957747E-01            NaN
         13   -1    0    0    0    0  0.00000000000E+00  0.00000000000E+00  0.74505805969E-08  0.10566000000E+00  0.10566000000E+00 0. -1.
     999900   -1    0    0    0    0 -0.00000000000E+00 -0.00000000000E+00 -0.74505805969E-08  0.93827000000E+00  0.93827000000E+00 0. -1.
     999902    2    1    2    0    0 -0.19746355774E-01  0.46922548070E-02  0.20894855343E-01  0.10148004480E+01  0.10143822842E+01 0.  0.
     999903    2    3    3    0    0  0.11377023035E+00  0.20780028766E-01 -0.36012839740E-01  0.12276682697E+00  0.19982348925E-01 0.  0.
         14    1    1    2    0    0  0.19746355774E-01 -0.46922548070E-02 -0.20894855343E-01  0.29129552028E-01  0.00000000000E+00 0.  1.
     999901    1    3    3    0    0 -0.13351658612E+00 -0.16087773959E-01  0.56907695083E-01  0.89203362100E+00  0.88000000000E+00 0. -1.
        -11    1    4    4    0    0  0.51728885955E-01  0.11771600305E-01 -0.26671178650E-01  0.59380645900E-01  0.51100000000E-03 0. -1.
         11    1    4    4    0    0  0.62041344394E-01  0.90084284618E-02 -0.93416610897E-02  0.63386181069E-01  0.51100000000E-03 0.  1.
</event>
<event>
 8    1  0.1114447E+005  0.1043930E+01  0.7957747E-01            NaN
         13   -1    0    0    0    0  0.00000000000E+00  0.00000000000E+00  0.74505805969E-08  0.10566000000E+00  0.10566000000E+00 0. -1.
     999900   -1    0    0    0    0 -0.00000000000E+00 -0.00000000000E+00 -0.74505805969E-08  0.93827000000E+00  0.93827000000E+00 0.  1.
     999902    2    1    2    0    0 -0.21537135014E-01  0.74773800921E-02  0.58466482284E-02  0.10203940128E+01  0.10201225410E+01 0.  0.
     999903    2    3    3    0    0 -0.37599181149E-02 -0.11511429377E+00  0.57504009817E-01  0.13021805776E+00  0.19611063398E-01 0.  0.
         14    1    1    2    0    0  0.21537135014E-01 -0.74773800921E-02 -0.58466482284E-02  0.23535987193E-01  0.00000000000E+00 0. -1.
     999901    1    3    3    0    0 -0.17777216899E-01  0.12259167386E+00 -0.51657361588E-01  0.89017595505E+00  0.88000000000E+00 0.  1.
        -11    1    4    4    0    0 -0.11804237506E-01 -0.73737281463E-01  0.36960946958E-01  0.83324062681E-01  0.51100000000E-03 0.  1.
         11    1    4    4    0    0  0.80443193909E-02 -0.41377012304E-01  0.20543062858E-01  0.46893995077E-01  0.51100000000E-03 0. -1.
</event>
<event>
 8    1  0.1114447E+005  0.1043930E+01  0.7957747E-01            NaN
         13   -1    0    0    0    0  0.00000000000E+00  0.00000000000E+00  0.74505805969E-08  0.10566000000E+00  0.10566000000E+00 0.  1.
     999900   -1    0    0    0    0 -0.00000000000E+00 -0.00000000000E+00 -0.74505805969E-08  0.93827000000E+00  0.93827000000E+00 0.  1.
     999902    2    1    2    0    0 -0.68372789427E-02  0.11861371651E-01  0.23373807965E-01  0.10168417107E+01  0.10164808356E+01 0.  0.
     999903    2    3    3    0    0  0.56501316662E-01 -0.95947662921E-01 -0.52701689896E-01  0.12475312369E+00  0.19685551728E-01 0.  0.
         14    1    1    2    0    0  0.68372789427E-02 -0.11861371651E-01 -0.23373807965E-01  0.27088289344E-01  0.00000000000E+00 0. -1.
     999901    1    3    3    0    0 -0.63338595605E-01  0.10780903457E+00  0.76075497861E-01  0.89208858697E+00  0.88000000000E+00 0. -1.
        -11    1    4    4    0    0  0.14225669884E-01 -0.41560341823E-01 -0.24645256377E-01  0.50371435149E-01  0.51100000000E-03 0. -1.
         11    1    4    4    0    0  0.42275646778E-01 -0.54387321098E-01 -0.28056433519E-01  0.74381688537E-01  0.51100000000E-03 0.  1.
</event>
<event>
 8    1  0.1114447E+005  0.1043930E+01  0.7957747E-01            NaN
         13   -1    0    0    0    0  0.00000000000E+00  0.00000000000E+00  0.74505805969E-08  0.10566000000E+00  0.10566000000E+00 0. -1.
     999900   -1    0    0    0    0 -0.00000000000E+00 -0.00000000000E+00 -0.74505805969E-08  0.93827000000E+00  0.93827000000E+00 0.  1.
     999902    2    1    2    0    0  0.82704252845E-03  0.17991057402E-01 -0.15626951001E-01  0.10200854253E+01  0.10198067028E+01 0.  0.
     999903    2    3    3    0    0 -0.82271442050E-01 -0.44107098497E-01  0.85558918641E-01  0.12823335273E+00  0.20234571369E-01 0.  0.
         14    1    1    2    0    0 -0.82704252845E-03 -0.17991057402E-01  0.15626951001E-01  0.23844574716E-01  0.00000000000E+00 0. -1.
     999901    1    3    3    0    0  0.83098484578E-01  0.62098155899E-01 -0.10118586964E+00  0.89185207255E+00  0.88000000000E+00 0.  1.
        -11    1    4    4    0    0 -0.47282043897E-01 -0.32508627427E-01  0.41669043570E-01  0.70915251147E-01  0.51100000000E-03 0.  1.
         11    1    4    4    0    0 -0.34989398153E-01 -0.11598471071E-01  0.43889875071E-01  0.57318101582E-01  0.51100000000E-03 0. -1.
</event>
<event>
 8    1  0.1114447E+005  0.1043930E+01  0.7957747E-01            NaN
         13   -1    0    0    0    0  0.00000000000E+00  0.00000000000E+00  0.74505805969E-08  0.10566000000E+00  0.10566000000E+00 0. -1.
     999900   -1    0    0    0    0 -0.00000000000E+00 -0.00000000000E+00 -0.74505805969E-08  0.93827000000E+00  0.93827000000E+00 0. -1.
     999902    2    1    2    0    0 -0.94553005373E-02 -0.21990136151E-01  0.27125074123E-02  0.10198400334E+01  0.10195554753E+01 0.  0.
     999903    2    3    3    0    0  0.56907928801E-03 -0.80055456608E-01 -0.10244285398E+00  0.13162287542E+00  0.20514458746E-01 0.  0.
         14    1    1    2    0    0  0.94553005373E-02  0.21990136151E-01 -0.27125074123E-02  0.24089966639E-01  0.00000000000E+00 0. -1.
     999901    1    3    3    0    0 -0.10024379825E-01  0.58065320457E-01  0.10515536140E+00  0.88821715794E+00  0.88000000000E+00 0.  1.
        -11    1    4    4    0    0 -0.58996292709E-02 -0.71120782211E-01 -0.85114670655E-01  0.11107537787E+00  0.51100000000E-03 0. -1.
         11    1    4    4    0    0  0.64687085590E-02 -0.89346743966E-02 -0.17328183328E-01  0.20547497547E-01  0.51100000000E-03 0.  1.
</event>
<event>
 8    1  0.1114447E+005  0.1043930E+01  0.7957747E-01            NaN
         13   -1    0    0    0    0  0.00000000000E+00  0.00000000000E+00  0.74505805969E-08  0.10566000000E+00  0.10566000000E+00 0. -1.
     999900   -1    0    0    0    0 -0.00000000000E+00 -0.00000000000E+00 -0.74505805969E-08  0.93827000000E+00  0.93827000000E+00 0. -1.
     999902    2    1    2    0    0 -0.19788203853E-01  0.40878877372E-03  0.12688595339E-01  0.10204195646E+01  0.10201486888E+01 0.  0.
     999903    2    3    3    0    0 -0.16674157863E-01 -0.11433286718E+00 -0.56793098489E-01  0.13024932772E+00  0.19733202366E-01 0.  0.
         14    1    1    2    0    0  0.19788203853E-01 -0.40878877372E-03 -0.12688595339E-01  0.23510435378E-01  0.00000000000E+00 0.  1.
     999901    1    3    3    0    0 -0.31140459908E-02  0.11474165596E+00  0.69481693828E-01  0.89017023691E+00  0.88000000000E+00 0.  1.
        -11    1    4    4    0    0 -0.18648831699E-01 -0.62507725083E-01 -0.28732475777E-01  0.71279807127E-01  0.51100000000E-03 0. -1.
         11    1    4    4    0    0  0.19746738362E-02 -0.51825142101E-01 -0.28060622713E-01  0.58969520590E-01  0.51100000000E-03 0.  1.
</event>
<event>
 8    1  0.1114447E+005  0.1043930E+01  0.7957747E-01            NaN
         13   -1    0    0    0    0  0.00000000000E+00  0.00000000000E+00  0.74505805969E-08  0.10566000000E+00  0.10566000000E+00 0.  1.
     999900   -1    0    0    0    0 -0.00000000000E+00 -0.00000000000E+00 -0.74505805969E-08  0.93827000000E+00  0.93827000000E+00 0.  1.
     999902    2    1    2    0    0 -0.14133768404E-01  0.37323809754E-02  0.16332928671E-01  0.10220106333E+01  0.10217755507E+01 0.  0.
     999903    2    3    3    0    0  0.94842635872E-01 -0.42236558899E-01  0.78294003992E-01  0.13193862781E+00  0.22333785184E-01 0.  0.
         14    1    1    2    0    0  0.14133768404E-01 -0.37323809754E-02 -0.16332928671E-01  0.21919366688E-01  0.00000000000E+00 0. -1.
     999901    1    3    3    0    0 -0.10897640428E+00  0.45968939874E-01 -0.61961075321E-01  0.89007200550E+00  0.88000000000E+00 0. -1.
        -11    1    4    4    0    0  0.36816823580E-01 -0.28441238336E-01  0.35764667581E-01  0.58683516466E-01  0.51100000000E-03 0.  1.
         11    1    4    4    0    0  0.58025812292E-01 -0.13795320563E-01  0.42529336410E-01  0.73255111344E-01  0.51100000000E-03 0. -1.
</event>
<event>
 8    1  0.1114447E+005  0.1043930E+01  0.7957747E-01            NaN
         13   -1    0    0    0    0  0.00000000000E+00  0.00000000000E+00  0.74505805969E-08  0.10566000000E+00  0.10566000000E+00 0.  1.
     999900   -1    0    0    0    0 -0.00000000000E+00 -0.00000000000E+00 -0.74505805969E-08  0.93827000000E+00  0.93827000000E+00 0.  1.
     999902    2    1    2    0    0 -0.19252254598E-01  0.12571873622E-01 -0.59814865914E-02  0.10201712228E+01  0.10198945261E+01 0.  0.
     999903    2    3    3    0    0 -0.55034934323E-01  0.84155203794E-01 -0.85105204950E-01  0.13300430717E+00  0.18338688496E-01 0.  0.
         14    1    1    2    0    0  0.19252254598E-01 -0.12571873622E-01  0.59814865914E-02  0.23758777227E-01  0.00000000000E+00 0. -1.
     999901    1    3    3    0    0  0.35782679724E-01 -0.71583330171E-01  0.79123718359E-01  0.88716691560E+00  0.88000000000E+00 0. -1.
        -11    1    4    4    0    0 -0.46549166173E-01  0.60158581652E-01 -0.70168689234E-01  0.10348809539E+00  0.51100000000E-03 0. -1.
         11    1    4    4    0    0 -0.84857681494E-02  0.23996622141E-01 -0.14936515716E-01  0.29516211783E-01  0.51100000000E-03 0.  1.
</event>
<event>
 8    1  0.1114447E+005  0.1043930E+01  0.7957747E-01            NaN
         13   -1    0    0    0    0  0.00000000000E+00  0.00000000000E+00  0.74505805969E-08  0.10566000000E+00  0.10566000000E+00 0.  1.
     999900   -1    0    0    0    0 -0.00000000000E+00 -0.00000000000E+00 -0.74505805969E-08  0.93827000000E+00  0.93827000000E+00 0. -1.
     999902    2    1    2    0    0  0.88955855958E-02  0.23223023071E-01 -0.35841003387E-03  0.10190589586E+01  0.10187554134E+01 0.  0.
     999903    2    3    3    0    0  0.26573943799E-01 -0.12242222945E+00 -0.32804881956E-02  0.12690784892E+00  0.20036560599E-01 0.  0.
         14    1    1    2    0    0 -0.88955855958E-02 -0.23223023071E-01  0.35841003387E-03  0.24871041422E-01  0.00000000000E+00 0. -1.
     999901    1    3    3    0    0 -0.17678358203E-01  0.14564525252E+00  0.29220781618E-02  0.89215110966E+00  0.88000000000E+00 0.  1.
        -11    1    4    4    0    0  0.24959816085E-01 -0.78844307704E-01  0.34832111531E-02  0.82775667664E-01  0.51100000000E-03 0. -1.
         11    1    4    4    0    0  0.16141277135E-02 -0.43577921748E-01 -0.67636993487E-02  0.44132181252E-01  0.51100000000E-03 0.  1.
</event>
<event>
 8    1  0.1114447E+005  0.1043930E+01  0.7957747E-01            NaN
         13   -1    0    0    0    0  0.00000000000E+00  0.00000000000E+00  0.74505805969E-08  0.10566000000E+00  0.10566000000E+00 0. -1.
     999900   -1    0    0    0    0 -0.00000000000E+00 -0.00000000000E+00 -0.74505805969E-08  0.93827000000E+00  0.93827000000E+00 0. -1.
     999902    2    1    2    0    0 -0.16837468761E-01  0.16230027369E-01  0.34648075354E-02  0.10202885315E+01  0.10200145923E+01 0.  0.
     999903    2    3    3    0    0  0.40919841472E-01 -0.77299154090E-02 -0.12068016883E+00  0.12937778348E+00  0.20993396372E-01 0.  0.
         14    1    1    2    0    0  0.16837468761E-01 -0.16230027369E-01 -0.34648075354E-02  0.23641468523E-01  0.00000000000E+00 0.  1.
     999901    1    3    3    0    0 -0.57757310233E-01  0.23959942778E-01  0.12414497636E+00  0.89091074800E+00  0.88000000000E+00 0.  1.
        -11    1    4    4    0    0  0.43344132520E-02 -0.69555279785E-02 -0.10825604810E-01  0.13587543862E-01  0.51100000000E-03 0. -1.
         11    1    4    4    0    0  0.36585428220E-01 -0.77438743053E-03 -0.10985456402E+00  0.11579023962E+00  0.51100000000E-03 0.  1.
</event>
<event>
 8    1  0.1114447E+005  0.1043930E+01  0.7957747E-01            NaN
         13   -1    0    0    0    0  0.00000000000E+00  0.00000000000E+00  0.74505805969E-08  0.10566000000E+00  0.10566000000E+00 0.  1.
     999900   -1    0    0    0    0 -0.00000000000E+00 -0.00000000000E+00 -0.74505805969E-08  0.93827000000E+00  0.93827000000E+00 0.  1.
     999902    2    1    2    0    0  0.12863798992E-01 -0.13843454030E-01  0.18105293287E-01  0.10177590201E+01  0.10174224800E+01 0.  0.
     999903    2    3    3    0    0  0.87293196704E-01  0.81457690010E-01  0.44783131773E-01  0.12908936811E+00  0.20076817854E-01 0.  0.
         14    1    1    2    0    0 -0.12863798992E-01  0.13843454030E-01 -0.18105293287E-01  0.26170979902E-01  0.00000000000E+00 0. -1.
     999901    1    3    3    0    0 -0.74429397711E-01 -0.95301144040E-01 -0.26677838486E-01  0.88866965199E+00  0.88000000000E+00 0.  1.
        -11    1    4    4    0    0  0.58532564599E-01  0.47071793755E-01  0.36449248284E-01  0.83490261152E-01  0.51100000000E-03 0. -1.
         11    1    4    4    0    0  0.28760632105E-01  0.34385896255E-01  0.83338834892E-02  0.45599106958E-01  0.51100000000E-03 0.  1.
</event>
<event>
 8    1  0.1260369E+005  0.1043930E+01  0.7957747E-01            NaN
         13   -1    0    0    0    0  0.00000000000E+00  0.00000000000E+00  0.74505805969E-08  0.10566000000E+00  0.10566000000E+00 0. -1.
     999900   -1    0    0    0    0 -0.00000000000E+00 -0.00000000000E+00 -0.74505805969E-08  0.93827000000E+00  0.93827000000E+00 0.  1.
     999902    2    1    2    0    0  0.22816038506E-02 -0.22964221891E-01 -0.55683073501E-02  0.10201904286E+01  0.10199141843E+01 0.  0.
     999903    2    3    3    0    0 -0.12069336638E-01 -0.12512958953E+00  0.39048768760E-01  0.13304083845E+00  0.19286660910E-01 0.  0.
         14    1    1    2    0    0 -0.22816038506E-02  0.22964221891E-01  0.55683073501E-02  0.23739571394E-01  0.00000000000E+00 0. -1.
     999901    1    3    3    0    0  0.14350940488E-01  0.10216536764E+00 -0.44617076111E-01  0.88714959016E+00  0.88000000000E+00 0.  1.
        -11    1    4    4    0    0 -0.88414319270E-02 -0.79549613453E-01  0.34358282911E-01  0.87103757924E-01  0.51100000000E-03 0. -1.
         11    1    4    4    0    0 -0.32279047106E-02 -0.45579976082E-01  0.46904858497E-02  0.45937080523E-01  0.51100000000E-03 0.  1.
</event>
<event>
 8    1  0.1114447E+005  0.1043930E+01  0.7957747E-01            NaN
         13   -1    0    0    0    0  0.00000000000E+00  0.00000000000E+00  0.74505805969E-08  0.10566000000E+00  0.10566000000E+00 0.  1.
     999900   -1    0    0    0    0 -0.00000000000E+00 -0.00000000000E+00 -0.74505805969E-08  0.93827000000E+00  0.93827000000E+00 0.  1.
     999902    2    1    2    0    0  0.46932390771E-02  0.18266121517E-01 -0.13702890050E-01  0.10206180528E+01  0.10203517838E+01 0.  0.
     999903    2    3    3    0    0 -0.43888140729E-01 -0.79114787634E-01 -0.91651560603E-01  0.13049492242E+00  0.21061759116E-01 0.  0.
         14    1    1    2    0    0 -0.46932390771E-02 -0.18266121517E-01  0.13702890050E-01  0.23311947238E-01  0.00000000000E+00 0.  1.
     999901    1    3    3    0    0  0.48581379806E-01  0.97380909151E-01  0.77948670553E-01  0.89012313034E+00  0.88000000000E+00 0. -1.
        -11    1    4    4    0    0 -0.21533090595E-01 -0.19415755199E-01 -0.25338802341E-01  0.38509240003E-01  0.51100000000E-03 0.  1.
         11    1    4    4    0    0 -0.22355050134E-01 -0.59699032435E-01 -0.66312758262E-01  0.91985682416E-01  0.51100000000E-03 0. -1.
</event>
<event>
 8    1  0.1114447E+005  0.1043930E+01  0.7957747E-01            NaN
         13   -1    0    0    0    0  0.00000000000E+00  0.00000000000E+00  0.74505805969E-08  0.10566000000E+00  0.10566000000E+00 0. -1.
     999900   -1    0    0    0    0 -0.00000000000E+00 -0.00000000000E+00 -0.74505805969E-08  0.93827000000E+00  0.93827000000E+00 0. -1.
     999902    2    1    2    0    0 -0.22873818494E-01 -0.95691610889E-02  0.60594505375E-02  0.10184055537E+01  0.10180856420E+01 0.  0.
     999903    2    3    3    0    0 -0.99693285551E-01  0.45741723832E-01 -0.67603506062E-01  0.13026887749E+00  0.19201300158E-01 0.  0.
         14    1    1    2    0    0  0.22873818494E-01  0.95691610889E-02 -0.60594505375E-02  0.25524446268E-01  0.00000000000E+00 0.  1.
     999901    1    3    3    0    0  0.76819467057E-01 -0.55310884921E-01  0.73662956600E-01  0.88813667624E+00  0.88000000000E+00 0.  1.
        -11    1    4    4    0    0 -0.53763472476E-01  0.28966981641E-01 -0.27283440752E-01  0.66889791884E-01  0.51100000000E-03 0. -1.
         11    1    4    4    0    0 -0.45929813076E-01  0.16774742191E-01 -0.40320065311E-01  0.63379085607E-01  0.51100000000E-03 0.  1.
</event>
<event>
 8    1  0.1114447E+005  0.1043930E+01  0.7957747E-01            NaN
         13   -1    0    0    0    0  0.00000000000E+00  0.00000000000E+00  0.74505805969E-08  0.10566000000E+00  0.10566000000E+00 0. -1.
     999900   -1    0    0    0    0 -0.00000000000E+00 -0.00000000000E+00 -0.74505805969E-08  0.93827000000E+00  0.93827000000E+00 0. -1.
     999902    2    1    2    0    0  0.12795327336E-01 -0.16504148526E-02  0.24200517859E-01  0.10165053881E+01  0.10161353723E+01 0.  0.
     999903    2    3    3    0    0  0.11793109913E+00  0.16295400769E-01  0.46817449539E-01  0.12977707101E+00  0.21838735103E-01 0.  0.
         14    1    1    2    0    0 -0.12795327336E-01  0.16504148526E-02 -0.24200517859E-01  0.27424611856E-01  0.00000000000E+00 0.  1.
     999901    1    3    3    0    0 -0.10513577179E+00 -0.17945815621E-01 -0.22616931679E-01  0.88672831713E+00  0.88000000000E+00 0. -1.
        -11    1    4    4    0    0  0.76216011170E-01  0.12858102024E-01  0.41059128610E-01  0.87523278673E-01  0.51100000000E-03 0. -1.
         11    1    4    4    0    0  0.41715087957E-01  0.34372987442E-02  0.57583209284E-02  0.42253792337E-01  0.51100000000E-03 0.  1.
</event>
<event>
 8    1  0.1114447E+005  0.1043930E+01  0.7957747E-01            NaN
         13   -1    0    0    0    0  0.00000000000E+00  0.00000000000E+00  0.74505805969E-08  0.10566000000E+00  0.10566000000E+00 0.  1.
     999900   -1    0    0    0    0 -0.00000000000E+00 -0.00000000000E+00 -0.74505805969E-08  0.93827000000E+00  0.93827000000E+00 0. -1.
     999902    2    1    2    0    0  0.17643713611E-01 -0.58237891704E-02  0.13438127013E-01  0.10209996618E+01  0.10207421364E+01 0.  0.
     999903    2    3    3    0    0  0.46895449394E-01  0.67021865946E-01 -0.99491636354E-01  0.13031717916E+00  0.19820892768E-01 0.  0.
         14    1    1    2    0    0 -0.17643713611E-01  0.58237891704E-02 -0.13438127013E-01  0.22930338155E-01  0.00000000000E+00 0. -1.
     999901    1    3    3    0    0 -0.29251735783E-01 -0.72845655116E-01  0.11292976337E+00  0.89068248269E+00  0.88000000000E+00 0.  1.
        -11    1    4    4    0    0  0.31992651732E-01  0.29647363171E-01 -0.57287316798E-01  0.72004122763E-01  0.51100000000E-03 0.  1.
         11    1    4    4    0    0  0.14902797662E-01  0.37374502775E-01 -0.42204319556E-01  0.58313056393E-01  0.51100000000E-03 0. -1.
</event>
<event>
 7    1  0.1114447E+005  0.1043930E+01  0.7957747E-01            NaN
         13   -1    0    0    0    0  0.00000000000E+00  0.00000000000E+00  0.74505805969E-08  0.10566000000E+00  0.10566000000E+00 0.  1.
     999900   -1    0    0    0    0 -0.00000000000E+00 -0.00000000000E+00 -0.74505805969E-08  0.93827000000E+00  0.93827000000E+00 0.  1.
     999902    2    1    2    0    0 -0.17630125009E-01  0.14712802714E-01  0.69529678201E-02  0.10199376755E+01  0.10196554469E+01 0.  0.
         14    1    1    2    0    0  0.17630125009E-01 -0.14712802714E-01 -0.69529678201E-02  0.23992324461E-01  0.00000000000E+00 0. -1.
     999901    1    3    3    0    0  0.61004710359E-01  0.10469783901E-01  0.10521511713E+00  0.88842636832E+00  0.88000000000E+00 0. -1.
        -11    1    3    3    0    0 -0.35664620579E-01  0.20207072682E-01 -0.38947155220E-01  0.56545848373E-01  0.51100000000E-03 0.  1.
         11    1    3    3    0    0 -0.42970214789E-01 -0.15964053869E-01 -0.59314994088E-01  0.74965458843E-01  0.51100000000E-03 0. -1.
</event>
<event>
 8    1  0.1114447E+005  0.1043930E+01  0.7957747E-01            NaN
         13   -1    0    0    0    0  0.00000000000E+00  0.00000000000E+00  0.74505805969E-08  0.10566000000E+00  0.10566000000E+00 0.  1.
     999900   -1    0    0    0    0 -0.00000000000E+00 -0.00000000000E+00 -0.74505805969E-08  0.93827000000E+00  0.93827000000E+00 0.  1.
     999902    2    1    2    0    0 -0.10202951719E-01 -0.17468163532E-01 -0.99575209458E-02  0.10213825127E+01  0.10211336093E+01 0.  0.
     999903    2    3    3    0    0 -0.12769344404E+00 -0.32717804749E-01  0.52222997455E-02  0.13331326184E+00  0.19211532162E-01 0.  0.
         14    1    1    2    0    0  0.10202951719E-01  0.17468163532E-01  0.99575209458E-02  0.22547487318E-01  0.00000000000E+00 0.  1.
     999901    1    3    3    0    0  0.11749049232E+00  0.15249641217E-01 -0.15179820691E-01  0.88806925085E+00  0.88000000000E+00 0.  1.
        -11    1    4    4    0    0 -0.26320668529E-01 -0.66882591390E-02 -0.66938184979E-02  0.27974608651E-01  0.51100000000E-03 0.  1.
         11    1    4    4    0    0 -0.10137277551E+00 -0.26029545610E-01  0.11916118243E-01  0.10533865318E+00  0.51100000000E-03 0. -1.
</event>
<event>
 8    1  0.1114447E+005  0.1043930E+01  0.7957747E-01            NaN
         13   -1    0    0    0    0  0.00000000000E+00  0.00000000000E+00  0.74505805969E-08  0.10566000000E+00  0.10566000000E+00 0.  1.
     999900   -1    0    0    0    0 -0.00000000000E+00 -0.00000000000E+00 -0.74505805969E-08  0.93827000000E+00  0.93827000000E+00 0. -1.
     999902    2    1    2    0    0  0.15426213816E-01  0.13731127153E-01 -0.68437864341E-02  0.10221734070E+01  0.10219418402E+01 0.  0.
     999903    2    3    3    0    0 -0.11490105878E+00  0.10501644894E-01  0.57048705653E-01  0.13027774155E+00  0.20129512469E-01 0.  0.
         14    1    1    2    0    0 -0.15426213816E-01 -0.13731127153E-01  0.68437864341E-02  0.21756592986E-01  0.00000000000E+00 0. -1.
     999901    1    3    3    0    0  0.13032727259E+00  0.32294822591E-02 -0.63892492088E-01  0.89189566547E+00  0.88000000000E+00 0.  1.
        -11    1    4    4    0    0 -0.36825889684E-01 -0.73962632527E-03  0.27792581532E-01  0.46145226269E-01  0.51100000000E-03 0. -1.
         11    1    4    4    0    0 -0.78075169091E-01  0.11241271219E-01  0.29256124121E-01  0.84132515277E-01  0.51100000000E-03 0.  1.
</event>
<event>
 7    1  0.1114447E+005  0.1043930E+01  0.7957747E-01            NaN
         13   -1    0    0    0    0  0.00000000000E+00  0.00000000000E+00  0.74505805969E-08  0.10566000000E+00  0.10566000000E+00 0.  1.
     999900   -1    0    0    0    0 -0.00000000000E+00 -0.00000000000E+00 -0.74505805969E-08  0.93827000000E+00  0.93827000000E+00 0.  1.
     999903    2    1    2    0    0 -0.25698988884E-02 -0.19159772126E-01 -0.82444023953E-01  0.87144747477E-01  0.20578840567E-01 0.  0.
         14    1    1    2    0    0  0.45847221214E-01  0.51684222456E-01 -0.11836016513E-01  0.70095062813E-01  0.00000000000E+00 0. -1.
     999901    1    1    2    0    0 -0.43277322326E-01 -0.32524450330E-01  0.94280040466E-01  0.88669018971E+00  0.88000000000E+00 0. -1.
        -11    1    3    3    0    0 -0.90062555265E-02 -0.50007963043E-02 -0.17069917321E-01  0.19944016663E-01  0.51100000000E-03 0.  1.
         11    1    3    3    0    0  0.64363566381E-02 -0.14158975822E-01 -0.65374106632E-01  0.67200730814E-01  0.51100000000E-03 0. -1.
</event>
<event>
 8    1  0.1383088E+005  0.1043930E+01  0.7957747E-01            NaN
         13   -1    0    0    0    0  0.00000000000E+00  0.00000000000E+00  0.74505805969E-08  0.10566000000E+00  0.10566000000E+00 0.  1.
     999900   -1    0    0    0    0 -0.00000000000E+00 -0.00000000000E+00 -0.74505805969E-08  0.93827000000E+00  0.93827000000E+00 0. -1.
     999902    2    1    2    0    0 -0.16741395417E-01  0.13092062659E-01  0.13267523215E-01  0.10188759864E+01  0.10185679025E+01 0.  0.
     999903    2    3    3    0    0 -0.69333541587E-01 -0.23613524105E-01  0.10742381264E+00  0.13153239975E+00  0.19903722024E-01 0.  0.
         14    1    1    2    0    0  0.16741395417E-01 -0.13092062659E-01 -0.13267523215E-01  0.25054013599E-01  0.00000000000E+00 0. -1.
     999901    1    3    3    0    0  0.52592146170E-01  0.36705586763E-01 -0.94156289429E-01  0.88734358665E+00  0.88000000000E+00 0. -1.
        -11    1    4    4    0    0 -0.28980149245E-01 -0.20295645415E-01  0.48453151599E-01  0.59997760741E-01  0.51100000000E-03 0. -1.
         11    1    4    4    0    0 -0.40353392342E-01 -0.33178786897E-02  0.58970661045E-01  0.71534639005E-01  0.51100000000E-03 0.  1.
</event>
<event>
 8    1  0.1114447E+005  0.1043930E+01  0.7957747E-01            NaN
         13   -1    0    0    0    0  0.00000000000E+00  0.00000000000E+00  0.74505805969E-08  0.10566000000E+00  0.10566000000E+00 0. -1.
     999900   -1    0    0    0    0 -0.00000000000E+00 -0.00000000000E+00 -0.74505805969E-08  0.93827000000E+00  0.93827000000E+00 0. -1.
     999902    2    1    2    0    0  0.18964182016E-01  0.97402915851E-02  0.10312772394E-01  0.10202473744E+01  0.10199724694E+01 0.  0.
     999903    2    3    3    0    0 -0.12250954812E+00 -0.27233553497E-01  0.17109540901E-01  0.12815540742E+00  0.19514513638E-01 0.  0.
         14    1    1    2    0    0 -0.18964182016E-01 -0.97402915851E-02 -0.10312772394E-01  0.23682625576E-01  0.00000000000E+00 0.  1.
     999901    1    3    3    0    0  0.14147373014E+00  0.36973845082E-01 -0.67967685072E-02  0.89209196701E+00  0.88000000000E+00 0. -1.
        -11    1    4    4    0    0 -0.62563294766E-01 -0.41305763262E-02  0.64738722931E-02  0.63034908236E-01  0.51100000000E-03 0. -1.
         11    1    4    4    0    0 -0.59946253357E-01 -0.23102977171E-01  0.10635668608E-01  0.65120499180E-01  0.51100000000E-03 0.  1.
</event>
<event>
 8    1  0.1114447E+005  0.1043930E+01  0.7957747E-01            NaN
         13   -1    0    0    0    0  0.00000000000E+00  0.00000000000E+00  0.74505805969E-08  0.10566000000E+00  0.10566000000E+00 0.  1.
     999900   -1    0    0    0    0 -0.00000000000E+00 -0.00000000000E+00 -0.74505805969E-08  0.93827000000E+00  0.93827000000E+00 0.  1.
     999902    2    1    2    0    0  0.12030482276E-01  0.63484053916E-02 -0.19604497082E-01  0.10200685025E+01  0.10197893796E+01 0.  0.
     999903    2    3    3    0    0  0.46207720866E-01  0.12168427257E+00 -0.13181514247E-02  0.13169648794E+00  0.20000293855E-01 0.  0.
         14    1    1    2    0    0 -0.12030482276E-01 -0.63484053916E-02  0.19604497082E-01  0.23861497452E-01  0.00000000000E+00 0.  1.
     999901    1    3    3    0    0 -0.34177238590E-01 -0.11533586718E+00 -0.18286345657E-01  0.88837201461E+00  0.88000000000E+00 0.  1.
        -11    1    4    4    0    0  0.40785958832E-01  0.96631202688E-01 -0.80304515323E-02  0.10519426336E+00  0.51100000000E-03 0.  1.
         11    1    4    4    0    0  0.54217620333E-02  0.25053069884E-01  0.67123001076E-02  0.26502224584E-01  0.51100000000E-03 0. -1.
</event>
<event>
 8    1  0.1114447E+005  0.1043930E+01  0.7957747E-01            NaN
         13   -1    0    0    0    0  0.00000000000E+00  0.00000000000E+00  0.74505805969E-08  0.10566000000E+00  0.10566000000E+00 0.  1.
     999900   -1    0    0    0    0 -0.00000000000E+00 -0.00000000000E+00 -0.74505805969E-08  0.93827000000E+00  0.93827000000E+00 0. -1.
     999902    2    1    2    0    0 -0.33677362575E-02  0.88850818431E-02  0.20321796789E-01  0.10214965038E+01  0.10212501386E+01 0.  0.
     999903    2    3    3    0    0 -0.61562327393E-01  0.84673142370E-01  0.81628844263E-01  0.13420343236E+00  0.19693446868E-01 0.  0.
         14    1    1    2    0    0  0.33677362575E-02 -0.88850818431E-02 -0.20321796789E-01  0.22433496197E-01  0.00000000000E+00 0. -1.
     999901    1    3    3    0    0  0.58194591135E-01 -0.75788060527E-01 -0.61307047473E-01  0.88729307144E+00  0.88000000000E+00 0.  1.
        -11    1    4    4    0    0 -0.37102996538E-01  0.57278142882E-01  0.41828743365E-01  0.80045755020E-01  0.51100000000E-03 0.  1.
         11    1    4    4    0    0 -0.24459330855E-01  0.27394999488E-01  0.39800100897E-01  0.54157677343E-01  0.51100000000E-03 0. -1.
</event>
<event>
 8    1  0.1114447E+005  0.1043930E+01  0.7957747E-01            NaN
         13   -1    0    0    0    0  0.00000000000E+00  0.00000000000E+00  0.74505805969E-08  0.10566000000E+00  0.10566000000E+00 0. -1.
     999900   -1    0    0    0    0 -0.00000000000E+00 -0.00000000000E+00 -0.74505805969E-08  0.93827000000E+00  0.93827000000E+00 0. -1.
     999902    2    1    2    0    0 -0.95530786140E-02 -0.94202113481E-02  0.18844264559E-01  0.10207975985E+01  0.10205354619E+01 0.  0.
     999903    2    3    3    0    0 -0.58122383532E-01 -0.11505852700E+00  0.25834134084E-01  0.13312238233E+00  0.20916263734E-01 0.  0.
         14    1    1    2    0    0  0.95530786140E-02  0.94202113481E-02 -0.18844264559E-01  0.23132401510E-01  0.00000000000E+00 0.  1.
     999901    1    3    3    0    0  0.48569304918E-01  0.10563831566E+00 -0.69898695249E-02  0.88767521616E+00  0.88000000000E+00 0.  1.
        -11    1    4    4    0    0 -0.54718574746E-01 -0.11043643114E+00  0.19892555487E-01  0.12484511456E+00  0.51100000000E-03 0.  1.
         11    1    4    4    0    0 -0.34038087861E-02 -0.46220958657E-02  0.59415785972E-02  0.82772677660E-02  0.51100000000E-03 0. -1.
</event>
<event>
 8    1  0.1114447E+005  0.1043930E+01  0.7957747E-01            NaN
         13   -1    0    0    0    0  0.00000000000E+00  0.00000000000E+00  0.74505805969E-08  0.10566000000E+00  0.10566000000E+00 0.  1.
     999900   -1    0    0    0    0 -0.00000000000E+00 -0.00000000000E+00 -0.74505805969E-08  0.93827000000E+00  0.93827000000E+00 0.  1.
     999902    2    1    2    0    0 -0.18377618857E-01  0.14867032282E-01 -0.11056005082E-01  0.10178340085E+01  0.10174994192E+01 0.  0.
     999903    2    3    3    0    0 -0.11964507221E+00  0.48628610975E-01 -0.11017003297E-01  0.13138325250E+00  0.21459253590E-01 0.  0.
         14    1    1    2    0    0  0.18377618857E-01 -0.14867032282E-01  0.11056005082E-01  0.26095991495E-01  0.00000000000E+00 0.  1.
     999901    1    3    3    0    0  0.10126745336E+00 -0.33761578692E-01 -0.39001785315E-04  0.88645075601E+00  0.88000000000E+00 0.  1.
        -11    1    4    4    0    0 -0.65704576203E-01  0.26571924097E-01  0.46731761407E-02  0.71029980857E-01  0.51100000000E-03 0.  1.
         11    1    4    4    0    0 -0.53940496011E-01  0.22056686878E-01 -0.15690179437E-01  0.60353271641E-01  0.51100000000E-03 0. -1.
</event>
<event>
 8    1  0.1114447E+005  0.1043930E+01  0.7957747E-01            NaN
         13   -1    0    0    0    0  0.00000000000E+00  0.00000000000E+00  0.74505805969E-08  0.10566000000E+00  0.10566000000E+00 0. -1.
     999900   -1    0    0    0    0 -0.00000000000E+00 -0.00000000000E+00 -0.74505805969E-08  0.93827000000E+00  0.93827000000E+00 0.  1.
     999902    2    1    2    0    0 -0.83344665732E-02 -0.96702420677E-02 -0.19298127801E-01  0.10207914034E+01  0.10205291248E+01 0.  0.
     999903    2    3    3    0    0  0.30341874752E-01  0.12326682276E+00 -0.19603060268E-01  0.12996694509E+00  0.19793632537E-01 0.  0.
         14    1    1    2    0    0  0.83344665732E-02  0.96702420677E-02  0.19298127801E-01  0.23138596572E-01  0.00000000000E+00 0.  1.
     999901    1    3    3    0    0 -0.38676341325E-01 -0.13293706482E+00  0.30493246705E-03  0.89082445833E+00  0.88000000000E+00 0. -1.
        -11    1    4    4    0    0  0.13404110806E-01  0.26322424165E-01 -0.95117489799E-02  0.31036666865E-01  0.51100000000E-03 0. -1.
         11    1    4    4    0    0  0.16937763945E-01  0.96944398592E-01 -0.10091311288E-01  0.98930278229E-01  0.51100000000E-03 0.  1.
</event>
<event>
 8    1  0.1114447E+005  0.1043930E+01  0.7957747E-01            NaN
         13   -1    0    0    0    0  0.00000000000E+00  0.00000000000E+00  0.74505805969E-08  0.10566000000E+00  0.10566000000E+00 0.  1.
     999900   -1    0    0    0    0 -0.00000000000E+00 -0.00000000000E+00 -0.74505805969E-08  0.93827000000E+00  0.93827000000E+00 0.  1.
     999902    2    1    2    0    0  0.76526377440E-02  0.11163768363E-01  0.17847039434E-01  0.10215311294E+01  0.10212855325E+01 0.  0.
     999903    2    3    3    0    0 -0.59784344220E-02  0.11754082819E+00 -0.56287070625E-01  0.13192573863E+00  0.19610666046E-01 0.  0.
         14    1    1    2    0    0 -0.76526377440E-02 -0.11163768363E-01 -0.17847039434E-01  0.22398870620E-01  0.00000000000E+00 0. -1.
     999901    1    3    3    0    0  0.13631072166E-01 -0.10637705983E+00  0.74134110059E-01  0.88960539075E+00  0.88000000000E+00 0. -1.
        -11    1    4    4    0    0 -0.10449728708E-01  0.44774674555E-01 -0.27263004926E-01  0.53455597183E-01  0.51100000000E-03 0.  1.
         11    1    4    4    0    0  0.44712942861E-02  0.72766153634E-01 -0.29024065699E-01  0.78470141442E-01  0.51100000000E-03 0. -1.
</event>
<event>
 8    1  0.1114447E+005  0.1043930E+01  0.7957747E-01            NaN
         13   -1    0    0    0    0  0.00000000000E+00  0.00000000000E+00  0.74505805969E-08  0.10566000000E+00  0.10566000000E+00 0. -1.
     999900   -1    0    0    0    0 -0.00000000000E+00 -0.00000000000E+00 -0.74505805969E-08  0.93827000000E+00  0.93827000000E+00 0.  1.
     999902    2    1    2    0    0  0.21725962577E-01 -0.11173018060E-01 -0.12551593884E-04  0.10194994057E+01  0.10192066445E+01 0.  0.
     999903    2    3    3    0    0  0.65710422079E-01 -0.97662360814E-01 -0.57136170350E-01  0.13232515732E+00  0.19738515862E-01 0.  0.
         14    1    1    2    0    0 -0.21725962577E-01  0.11173018060E-01  0.12551593884E-04  0.24430594344E-01  0.00000000000E+00 0. -1.
     999901    1    3    3    0    0 -0.43984459502E-01  0.86489342754E-01  0.57123618756E-01  0.88717424833E+00  0.88000000000E+00 0. -1.
        -11    1    4    4    0    0  0.10248206517E-01 -0.18350627547E-01 -0.24628534159E-02  0.21168326248E-01  0.51100000000E-03 0. -1.
         11    1    4    4    0    0  0.55462215562E-01 -0.79311733267E-01 -0.54673316934E-01  0.11115683107E+00  0.51100000000E-03 0.  1.
</event>
<event>
 8    1  0.1114447E+005  0.1043930E+01  0.7957747E-01            NaN
         13   -1    0    0    0    0  0.00000000000E+00  0.00000000000E+00  0.74505805969E-08  0.10566000000E+00  0.10566000000E+00 0.  1.
     999900   -1    0    0    0    0 -0.00000000000E+00 -0.00000000000E+00 -0.74505805969E-08  0.93827000000E+00  0.93827000000E+00 0.  1.
     999902    2    1    2    0    0  0.23575051119E-02 -0.89252707965E-02  0.23160297108E-01  0.10189977387E+01  0.10186926788E+01 0.  0.
     999903    2    3    3    0    0  0.57846643636E-01 -0.98276971229E-01  0.60611431358E-01  0.13194342343E+00  0.27031909312E-01 0.  0.
         14    1    1    2    0    0 -0.23575051119E-02  0.89252707965E-02 -0.23160297108E-01  0.24932261255E-01  0.00000000000E+00 0. -1.
     999901    1    3    3    0    0 -0.55489138524E-01  0.89351700432E-01 -0.37451134250E-01  0.88705431532E+00  0.88000000000E+00 0. -1.
        -11    1    4    4    0    0  0.21283828859E-01 -0.45521194136E-01  0.40905361859E-01  0.64797301150E-01  0.51100000000E-03 0. -1.
         11    1    4    4    0    0  0.36562814777E-01 -0.52755777092E-01  0.19706069500E-01  0.67146122279E-01  0.51100000000E-03 0.  1.
</event>
<event>
 8    1  0.1114447E+005  0.1043930E+01  0.7957747E-01            NaN
         13   -1    0    0    0    0  0.00000000000E+00  0.00000000000E+00  0.74505805969E-08  0.10566000000E+00  0.10566000000E+00 0. -1.
     999900   -1    0    0    0    0 -0.00000000000E+00 -0.00000000000E+00 -0.74505805969E-08  0.93827000000E+00  0.93827000000E+00 0.  1.
     999902    2    1    2    0    0  0.76714979332E-02  0.18890785399E-01  0.11100463805E-01  0.10207150490E+01  0.10204510166E+01 0.  0.
     999903    2    3    3    0    0 -0.37634188352E-01  0.12083803167E+00  0.36473581483E-01  0.13330891800E+00  0.20561698345E-01 0.  0.
         14    1    1    2    0    0 -0.76714979332E-02 -0.18890785399E-01 -0.11100463805E-01  0.23214951006E-01  0.00000000000E+00 0.  1.
     999901    1    3    3    0    0  0.45305686285E-01 -0.10194724628E+00 -0.25373117679E-01  0.88740613100E+00  0.88000000000E+00 0. -1.
        -11    1    4    4    0    0 -0.26667352317E-02  0.17520690661E-01 -0.15463237912E-02  0.17797143487E-01  0.51100000000E-03 0.  1.
         11    1    4    4    0    0 -0.34967453120E-01  0.10331734101E+00  0.38019905275E-01  0.11551177451E+00  0.51100000000E-03 0. -1.
</event>
<event>
 8    1  0.1114447E+005  0.1043930E+01  0.7957747E-01            NaN
         13   -1    0    0    0    0  0.00000000000E+00  0.00000000000E+00  0.74505805969E-08  0.10566000000E+00  0.10566000000E+00 0.  1.
     999900   -1    0    0    0    0 -0.00000000000E+00 -0.00000000000E+00 -0.74505805969E-08  0.93827000000E+00  0.93827000000E+00 0. -1.
     999902    2    1    2    0    0  0.17402183757E-01  0.45937299873E-02  0.15519081383E-01  0.10201648945E+01  0.10198880486E+01 0.  0.
     999903    2    3    3    0    0 -0.21299042509E-01 -0.34973952432E-01 -0.11968349981E+00  0.12812054333E+00  0.20344702899E-01 0.  0.
         14    1    1    2    0    0 -0.17402183757E-01 -0.45937299873E-02 -0.15519081383E-01  0.23765105547E-01  0.00000000000E+00 0. -1.
     999901    1    3    3    0    0  0.38701226266E-01  0.39567682420E-01  0.13520258119E+00  0.89204435112E+00  0.88000000000E+00 0.  1.
        -11    1    4    4    0    0 -0.13604700406E-01 -0.24052554181E-01 -0.49667614389E-01  0.56839654079E-01  0.51100000000E-03 0. -1.
         11    1    4    4    0    0 -0.76943421038E-02 -0.10921398251E-01 -0.70015885422E-01  0.71280889252E-01  0.51100000000E-03 0.  1.
</event>
<event>
 8    1  0.1114447E+005  0.1043930E+01  0.7957747E-01            NaN
         13   -1    0    0    0    0  0.00000000000E+00  0.00000000000E+00  0.74505805969E-08  0.10566000000E+00  0.10566000000E+00 0. -1.
     999900   -1    0    0    0    0 -0.00000000000E+00 -0.00000000000E+00 -0.74505805969E-08  0.93827000000E+00  0.93827000000E+00 0. -1.
     999902    2    1    2    0    0 -0.86569189720E-02  0.16252208879E-01  0.14848820951E-01  0.10202748944E+01  0.10200006353E+01 0.  0.
     999903    2    3    3    0    0  0.11843584379E+00 -0.33373332883E-01  0.35275456844E-01  0.12952660657E+00  0.19797866359E-01 0.  0.
         14    1    1    2    0    0  0.86569189720E-02 -0.16252208879E-01 -0.14848820951E-01  0.23655105646E-01  0.00000000000E+00 0.  1.
     999901    1    3    3    0    0 -0.12709276276E+00  0.49625541761E-01 -0.20426635893E-01  0.89074828779E+00  0.88000000000E+00 0.  1.
        -11    1    4    4    0    0  0.30103328713E-01 -0.54708371225E-02  0.57949203193E-03  0.30606165889E-01  0.51100000000E-03 0.  1.
         11    1    4    4    0    0  0.88332515073E-01 -0.27902495760E-01  0.34695964812E-01  0.98920440678E-01  0.51100000000E-03 0. -1.
</event>
<event>
 8    1  0.1114447E+005  0.1043930E+01  0.7957747E-01            NaN
         13   -1    0    0    0    0  0.00000000000E+00  0.00000000000E+00  0.74505805969E-08  0.10566000000E+00  0.10566000000E+00 0. -1.
     999900   -1    0    0    0    0 -0.00000000000E+00 -0.00000000000E+00 -0.74505805969E-08  0.93827000000E+00  0.93827000000E+00 0. -1.
     999902    2    1    2    0    0  0.64754280887E-02  0.22614588133E-01 -0.71602744752E-02  0.10193409720E+01  0.10190443548E+01 0.  0.
     999903    2    3    3    0    0 -0.83549340716E-01 -0.69770654683E-02  0.95280829070E-01  0.12834472926E+00  0.19098726746E-01 0.  0.
         14    1    1    2    0    0 -0.64754280887E-02 -0.22614588133E-01  0.71602744752E-02  0.24589027958E-01  0.00000000000E+00 0. -1.
     999901    1    3    3    0    0  0.90024768804E-01  0.29591653601E-01 -0.10244110355E+00  0.89099624278E+00  0.88000000000E+00 0. -1.
        -11    1    4    4    0    0 -0.26640296525E-01 -0.91452182682E-02  0.23301776097E-01  0.36559189083E-01  0.51100000000E-03 0.  1.
         11    1    4    4    0    0 -0.56909044190E-01  0.21681527999E-02  0.71979052973E-01  0.91785540175E-01  0.51100000000E-03 0. -1.
</event>
<event>
 8    1  0.1114447E+005  0.1043930E+01  0.7957747E-01            NaN
         13   -1    0    0    0    0  0.00000000000E+00  0.00000000000E+00  0.74505805969E-08  0.10566000000E+00  0.10566000000E+00 0. -1.
     999900   -1    0    0    0    0 -0.00000000000E+00 -0.00000000000E+00 -0.74505805969E-08  0.93827000000E+00  0.93827000000E+00 0.  1.
     999902    2    1    2    0    0  0.19902533982E-02  0.20673349316E-01  0.65196561871E-02  0.10221618031E+01  0.10219299865E+01 0.  0.
     999903    2    3    3    0    0  0.10064957668E+00  0.32610906361E-01 -0.76375047226E-01  0.13269696443E+00  0.24114892291E-01 0.  0.
         14    1    1    2    0    0 -0.19902533982E-02 -0.20673349316E-01 -0.65196561871E-02  0.21768196924E-01  0.00000000000E+00 0.  1.
     999901    1    3    3    0    0 -0.98659323280E-01 -0.11937557045E-01  0.82894703413E-01  0.88946483865E+00  0.88000000000E+00 0. -1.
        -11    1    4    4    0    0  0.32070361563E-01  0.15960529438E-01 -0.13849298439E-01  0.38409774524E-01  0.51100000000E-03 0. -1.
         11    1    4    4    0    0  0.68579215115E-01  0.16650376923E-01 -0.62525748787E-01  0.94287189903E-01  0.51100000000E-03 0.  1.
</event>
<event>
 8    1  0.1114447E+005  0.1043930E+01  0.7957747E-01            NaN
         13   -1    0    0    0    0  0.00000000000E+00  0.00000000000E+00  0.74505805969E-08  0.10566000000E+00  0.10566000000E+00 0. -1.
     999900   -1    0    0    0    0 -0.00000000000E+00 -0.00000000000E+00 -0.74505805969E-08  0.93827000000E+00  0.93827000000E+00 0. -1.
     999902    2    1    2    0    0  0.71254422940E-02  0.18176821430E-01 -0.12643659848E-01  0.10206699291E+01  0.10204048575E+01 0.  0.
     999903    2    3    3    0    0 -0.44369754742E-01  0.12259957614E+00  0.13762933753E-01  0.13260845868E+00  0.19906123743E-01 0.  0.
         14    1    1    2    0    0 -0.71254422940E-02 -0.18176821430E-01  0.12643659848E-01  0.23260070927E-01  0.00000000000E+00 0. -1.
     999901    1    3    3    0    0  0.51495197036E-01 -0.10442275471E+00 -0.26406593601E-01  0.88806147040E+00  0.88000000000E+00 0. -1.
        -11    1    4    4    0    0 -0.21797714890E-01  0.82731163183E-01  0.14548069511E-01  0.86784175882E-01  0.51100000000E-03 0.  1.
         11    1    4    4    0    0 -0.22572039852E-01  0.39868412952E-01 -0.78513575769E-03  0.45824282794E-01  0.51100000000E-03 0. -1.
</event>
<event>
 8    1  0.1114447E+005  0.1043930E+01  0.7957747E-01            NaN
         13   -1    0    0    0    0  0.00000000000E+00  0.00000000000E+00  0.74505805969E-08  0.10566000000E+00  0.10566000000E+00 0. -1.
     999900   -1    0    0    0    0 -0.00000000000E+00 -0.00000000000E+00 -0.74505805969E-08  0.93827000000E+00  0.93827000000E+00 0.  1.
     999902    2    1    2    0    0  0.37740810011E-02  0.22338204131E-01  0.32574394764E-02  0.10210422311E+01  0.10207856718E+01 0.  0.
     999903    2    3    3    0    0 -0.21334182018E-01 -0.91936747136E-01 -0.85541252275E-01  0.12886825875E+00  0.19550178434E-01 0.  0.
         14    1    1    2    0    0 -0.37740810011E-02 -0.22338204131E-01 -0.32574394764E-02  0.22887768855E-01  0.00000000000E+00 0. -1.
     999901    1    3    3    0    0  0.25108263019E-01  0.11427495127E+00  0.88798691751E-01  0.89217397239E+00  0.88000000000E+00 0. -1.
        -11    1    4    4    0    0 -0.14853730339E-01 -0.63527712577E-01 -0.46360229424E-01  0.80037088675E-01  0.51100000000E-03 0.  1.
         11    1    4    4    0    0 -0.64804516790E-02 -0.28409034559E-01 -0.39181022850E-01  0.48831170077E-01  0.51100000000E-03 0. -1.
</event>
<event>
 8    1  0.1114447E+005  0.1043930E+01  0.7957747E-01            NaN
         13   -1    0    0    0    0  0.00000000000E+00  0.00000000000E+00  0.74505805969E-08  0.10566000000E+00  0.10566000000E+00 0. -1.
     999900   -1    0    0    0    0 -0.00000000000E+00 -0.00000000000E+00 -0.74505805969E-08  0.93827000000E+00  0.93827000000E+00 0.  1.
     999902    2    1    2    0    0  0.84303382542E-03 -0.16756411132E-01  0.15784889661E-01  0.10208941418E+01  0.10206342136E+01 0.  0.
     999903    2    3    3    0    0  0.42337508876E-01 -0.78111235150E-01 -0.94148299067E-01  0.13096632910E+00  0.19860700529E-01 0.  0.
         14    1    1    2    0    0 -0.84303382542E-03  0.16756411132E-01 -0.15784889661E-01  0.23035858171E-01  0.00000000000E+00 0.  1.
     999901    1    3    3    0    0 -0.41494475050E-01  0.61354824018E-01  0.10993318873E+00  0.88992781273E+00  0.88000000000E+00 0. -1.
        -11    1    4    4    0    0  0.18397638125E-01 -0.51249034734E-01 -0.49205731294E-01  0.73392109677E-01  0.51100000000E-03 0. -1.
         11    1    4    4    0    0  0.23939870751E-01 -0.26862200417E-01 -0.44942567773E-01  0.57574219420E-01  0.51100000000E-03 0.  1.
</event>
<event>
 8    1  0.1114447E+005  0.1043930E+01  0.7957747E-01            NaN
         13   -1    0    0    0    0  0.00000000000E+00  0.00000000000E+00  0.74505805969E-08  0.10566000000E+00  0.10566000000E+00 0.  1.
     999900   -1    0    0    0    0 -0.00000000000E+00 -0.00000000000E+00 -0.74505805969E-08  0.93827000000E+00  0.93827000000E+00 0. -1.
     999902    2    1    2    0    0 -0.11756725252E-01  0.20369212017E-01 -0.38958424321E-02  0.10200908940E+01  0.10198123009E+01 0.  0.
     999903    2    3    3    0    0 -0.63279827268E-01 -0.60523017654E-01 -0.94284074199E-01  0.13027730941E+00  0.20379364457E-01 0.  0.
         14    1    1    2    0    0  0.11756725252E-01 -0.20369212017E-01  0.38958424321E-02  0.23839106005E-01  0.00000000000E+00 0.  1.
     999901    1    3    3    0    0  0.51523102017E-01  0.80892229671E-01  0.90388231767E-01  0.88981358458E+00  0.88000000000E+00 0.  1.
        -11    1    4    4    0    0 -0.29470722897E-01 -0.15581541382E-01 -0.29845787299E-01  0.44747514796E-01  0.51100000000E-03 0. -1.
         11    1    4    4    0    0 -0.33809104371E-01 -0.44941476272E-01 -0.64438286900E-01  0.85529794619E-01  0.51100000000E-03 0.  1.
</event>
<event>
 8    1  0.1114447E+005  0.1043930E+01  0.7957747E-01            NaN
         13   -1    0    0    0    0  0.00000000000E+00  0.00000000000E+00  0.74505805969E-08  0.10566000000E+00  0.10566000000E+00 0. -1.
     999900   -1    0    0    0    0 -0.00000000000E+00 -0.00000000000E+00 -0.74505805969E-08  0.93827000000E+00  0.93827000000E+00 0.  1.
     999902    2    1    2    0    0 -0.13468832353E-01  0.18683519254E-01 -0.40587740410E-02  0.10205428885E+01  0.10202748798E+01 0.  0.
     999903    2    3    3    0    0 -0.93953091754E-01  0.92980865410E-01 -0.58764964755E-02  0.13375028832E+00  0.19544350383E-01 0.  0.
         14    1    1    2    0    0  0.13468832353E-01 -0.18683519254E-01  0.40587740410E-02  0.23387111480E-01  0.00000000000E+00 0.  1.
     999901    1    3    3    0    0  0.80484259400E-01 -0.74297346156E-01  0.18177224345E-02  0.88679260020E+00  0.88000000000E+00 0.  1.
        -11    1    4    4    0    0 -0.34682808239E-01  0.22125184201E-01  0.58360696012E-03  0.41146356842E-01  0.51100000000E-03 0.  1.
         11    1    4    4    0    0 -0.59270283515E-01  0.70855681209E-01 -0.64601034356E-02  0.92603931477E-01  0.51100000000E-03 0. -1.
</event>
<event>
 8    1  0.1114447E+005  0.1043930E+01  0.7957747E-01            NaN
         13   -1    0    0    0    0  0.00000000000E+00  0.00000000000E+00  0.74505805969E-08  0.10566000000E+00  0.10566000000E+00 0.  1.
     999900   -1    0    0    0    0 -0.00000000000E+00 -0.00000000000E+00 -0.74505805969E-08  0.93827000000E+00  0.93827000000E+00 0.  1.
     999902    2    1    2    0    0  0.20131570940E-01  0.10704604656E-01  0.79535899126E-02  0.10197819504E+01  0.10194960019E+01 0.  0.
     999903    2    3    3    0    0 -0.24457228824E-02 -0.85075306123E-01  0.95949774963E-01  0.12993541634E+00  0.20810185773E-01 0.  0.
         14    1    1    2    0    0 -0.20131570940E-01 -0.10704604656E-01 -0.79535899126E-02  0.24148049649E-01  0.00000000000E+00 0. -1.
     999901    1    3    3    0    0  0.22577293823E-01  0.95779910779E-01 -0.87996185050E-01  0.88984653401E+00  0.88000000000E+00 0.  1.
        -11    1    4    4    0    0 -0.96028463151E-02 -0.20782894792E-01  0.26495062134E-01  0.35019891658E-01  0.51100000000E-03 0.  1.
         11    1    4    4    0    0  0.71571234327E-02 -0.64292411332E-01  0.69454712829E-01  0.94915524683E-01  0.51100000000E-03 0. -1.
</event>
<event>
 8    1  0.1114447E+005  0.1043930E+01  0.7957747E-01            NaN
         13   -1    0    0    0    0  0.00000000000E+00  0.00000000000E+00  0.74505805969E-08  0.10566000000E+00  0.10566000000E+00 0.  1.
     999900   -1    0    0    0    0 -0.00000000000E+00 -0.00000000000E+00 -0.74505805969E-08  0.93827000000E+00  0.93827000000E+00 0.  1.
     999902    2    1    2    0    0  0.14717002619E-01 -0.17619208093E-01  0.11561551579E-01  0.10182259899E+01  0.10179015033E+01 0.  0.
     999903    2    3    3    0    0  0.11222794269E+00  0.13391218867E-02 -0.61628919706E-01  0.12961772594E+00  0.20142660314E-01 0.  0.
         14    1    1    2    0    0 -0.14717002619E-01  0.17619208093E-01 -0.11561551579E-01  0.25704010092E-01  0.00000000000E+00 0. -1.
     999901    1    3    3    0    0 -0.97510940074E-01 -0.18958329980E-01  0.73190471285E-01  0.88860826397E+00  0.88000000000E+00 0.  1.
        -11    1    4    4    0    0  0.55347209626E-01 -0.71437905825E-02 -0.37568658963E-01  0.67275646519E-01  0.51100000000E-03 0. -1.
         11    1    4    4    0    0  0.56880733067E-01  0.84829124692E-02 -0.24060260743E-01  0.62342079419E-01  0.51100000000E-03 0.  1.
</event>
<event>
 8    1  0.1114447E+005  0.1043930E+01  0.7957747E-01            NaN
         13   -1    0    0    0    0  0.00000000000E+00  0.00000000000E+00  0.74505805969E-08  0.10566000000E+00  0.10566000000E+00 0.  1.
     999900   -1    0    0    0    0 -0.00000000000E+00 -0.00000000000E+00 -0.74505805969E-08  0.93827000000E+00  0.93827000000E+00 0. -1.
     999902    2    1    2    0    0 -0.55589199405E-02 -0.67426876275E-02  0.22066245012E-01  0.10201963826E+01  0.10199202785E+01 0.  0.
     999903    2    3    3    0    0  0.40897948314E-01 -0.30989808033E-01  0.12074486013E+00  0.13313176681E+00  0.22621576138E-01 0.  0.
         14    1    1    2    0    0  0.55589199405E-02  0.67426876275E-02 -0.22066245012E-01  0.23733617429E-01  0.00000000000E+00 0. -1.
     999901    1    3    3    0    0 -0.46456868255E-01  0.24247120405E-01 -0.98678615121E-01  0.88706461576E+00  0.88000000000E+00 0. -1.
        -11    1    4    4    0    0  0.35311505232E-01 -0.22439489898E-01  0.11239192625E+00  0.11992764200E+00  0.51100000000E-03 0.  1.
         11    1    4    4    0    0  0.55864430822E-02 -0.85503181355E-02  0.83529338852E-02  0.13204124811E-01  0.51100000000E-03 0. -1.
</event>
<event>
 8    1  0.1114447E+005  0.1043930E+01  0.7957747E-01            NaN
         13   -1    0    0    0    0  0.00000000000E+00  0.00000000000E+00  0.74505805969E-08  0.10566000000E+00  0.10566000000E+00 0. -1.
     999900   -1    0    0    0    0 -0.00000000000E+00 -0.00000000000E+00 -0.74505805969E-08  0.93827000000E+00  0.93827000000E+00 0. -1.
     999902    2    1    2    0    0 -0.10739404083E-01  0.84535422737E-02 -0.18279475213E-01  0.10211059690E+01  0.10208508527E+01 0.  0.
     999903    2    3    3    0    0  0.10060448889E+00  0.41076881284E-01  0.67250335197E-01  0.12937894058E+00  0.20192308415E-01 0.  0.
         14    1    1    2    0    0  0.10739404083E-01 -0.84535422737E-02  0.18279475213E-01  0.22824031000E-01  0.00000000000E+00 0. -1.
     999901    1    3    3    0    0 -0.11134389298E+00 -0.32623339010E-01 -0.85529810410E-01  0.89172702842E+00  0.88000000000E+00 0. -1.
        -11    1    4    4    0    0  0.57591219066E-01  0.15427724708E-01  0.28667494457E-01  0.66157762679E-01  0.51100000000E-03 0.  1.
         11    1    4    4    0    0  0.43013269828E-01  0.25649156575E-01  0.38582840740E-01  0.63221177898E-01  0.51100000000E-03 0. -1.
</event>
<event>
 8    1  0.1114447E+005  0.1043930E+01  0.7957747E-01            NaN
         13   -1    0    0    0    0  0.00000000000E+00  0.00000000000E+00  0.74505805969E-08  0.10566000000E+00  0.10566000000E+00 0.  1.
     999900   -1    0    0    0    0 -0.00000000000E+00 -0.00000000000E+00 -0.74505805969E-08  0.93827000000E+00  0.93827000000E+00 0. -1.
     999902    2    1    2    0    0 -0.70395258342E-02 -0.22516170870E-01  0.16729687059E-02  0.10202798055E+01  0.10200056617E+01 0.  0.
     999903    2    3    3    0    0  0.58210565245E-01  0.11096858357E+00  0.14420996947E-01  0.12773385921E+00  0.20136464178E-01 0.  0.
         14    1    1    2    0    0  0.70395258342E-02  0.22516170870E-01 -0.16729687059E-02  0.23650194479E-01  0.00000000000E+00 0.  1.
     999901    1    3    3    0    0 -0.65250091080E-01 -0.13348475444E+00 -0.12748028241E-01  0.89254594631E+00  0.88000000000E+00 0. -1.
        -11    1    4    4    0    0  0.90403258684E-02  0.17804621587E-01 -0.50537300086E-02  0.20604207086E-01  0.51100000000E-03 0. -1.
         11    1    4    4    0    0  0.49170239377E-01  0.93163961984E-01  0.19474726956E-01  0.10712965212E+00  0.51100000000E-03 0.  1.
</event>
<event>
 8    1  0.1114447E+005  0.1043930E+01  0.7957747E-01            NaN
         13   -1    0    0    0    0  0.00000000000E+00  0.00000000000E+00  0.74505805969E-08  0.10566000000E+00  0.10566000000E+00 0.  1.
     999900   -1    0    0    0    0 -0.00000000000E+00 -0.00000000000E+00 -0.74505805969E-08  0.93827000000E+00  0.93827000000E+00 0. -1.
     999902    2    1    2    0    0 -0.58995042629E-04  0.69359648012E-02  0.22711628869E-01  0.10201828070E+01  0.10199063832E+01 0.  0.
     999903    2    3    3    0    0  0.42506805220E-01  0.43772143858E-01  0.11696492317E+00  0.13336127204E+00  0.19534752580E-01 0.  0.
         14    1    1    2    0    0  0.58995042629E-04 -0.69359648012E-02 -0.22711628869E-01  0.23747192971E-01  0.00000000000E+00 0. -1.
     999901    1    3    3    0    0 -0.42565800263E-01 -0.36836179057E-01 -0.94253294304E-01  0.88682153499E+00  0.88000000000E+00 0. -1.
        -11    1    4    4    0    0  0.10242468128E-01  0.22640545802E-01  0.36908571153E-01  0.44497260737E-01  0.51100000000E-03 0. -1.
         11    1    4    4    0    0  0.32264337092E-01  0.21131598056E-01  0.80056352020E-01  0.88864011299E-01  0.51100000000E-03 0.  1.
</event>
<event>
 8    1  0.1114447E+005  0.1043930E+01  0.7957747E-01            NaN
         13   -1    0    0    0    0  0.00000000000E+00  0.00000000000E+00  0.74505805969E-08  0.10566000000E+00  0.10566000000E+00 0. -1.
     999900   -1    0    0    0    0 -0.00000000000E+00 -0.00000000000E+00 -0.74505805969E-08  0.93827000000E+00  0.93827000000E+00 0.  1.
     999902    2    1    2    0    0 -0.98428412128E-02  0.10500207325E-01  0.19491822559E-01  0.10197005340E+01  0.10194126309E+01 0.  0.
     999903    2    3    3    0    0  0.26198051703E-01  0.90203125329E-01  0.91559884282E-01  0.13243208158E+00  0.18223668395E-01 0.  0.
         14    1    1    2    0    0  0.98428412128E-02 -0.10500207325E-01 -0.19491822559E-01  0.24229466021E-01  0.00000000000E+00 0.  1.
     999901    1    3    3    0    0 -0.36040892916E-01 -0.79702918004E-01 -0.72068061723E-01  0.88726845240E+00  0.88000000000E+00 0.  1.
        -11    1    4    4    0    0  0.17943219589E-02  0.25356723665E-01  0.33357557716E-01  0.41942470171E-01  0.51100000000E-03 0.  1.
         11    1    4    4    0    0  0.24403729744E-01  0.64846401664E-01  0.58202326567E-01  0.90489611409E-01  0.51100000000E-03 0. -1.
</event>
<event>
 8    1  0.1114447E+005  0.1043930E+01  0.7957747E-01            NaN
         13   -1    0    0    0    0  0.00000000000E+00  0.00000000000E+00  0.74505805969E-08  0.10566000000E+00  0.10566000000E+00 0. -1.
     999900   -1    0    0    0    0 -0.00000000000E+00 -0.00000000000E+00 -0.74505805969E-08  0.93827000000E+00  0.93827000000E+00 0. -1.
     999902    2    1    2    0    0  0.18761023132E-01 -0.38913336322E-02  0.14702244460E-01  0.10197789243E+01  0.10194929033E+01 0.  0.
     999903    2    3    3    0    0 -0.68183976939E-01 -0.84306933500E-01 -0.66132432228E-01  0.12817343602E+00  0.17268971045E-01 0.  0.
         14    1    1    2    0    0 -0.18761023132E-01  0.38913336322E-02 -0.14702244460E-01  0.24151075722E-01  0.00000000000E+00 0.  1.
     999901    1    3    3    0    0  0.86945000070E-01  0.80415599868E-01  0.80834676688E-01  0.89160548826E+00  0.88000000000E+00 0.  1.
        -11    1    4    4    0    0 -0.29552695623E-01 -0.23911566475E-01 -0.20584881842E-01  0.43233358779E-01  0.51100000000E-03 0.  1.
         11    1    4    4    0    0 -0.38631281316E-01 -0.60395367025E-01 -0.45547550387E-01  0.84940077239E-01  0.51100000000E-03 0. -1.
</event>
<event>
 8    1  0.1114447E+005  0.1043930E+01  0.7957747E-01            NaN
         13   -1    0    0    0    0  0.00000000000E+00  0.00000000000E+00  0.74505805969E-08  0.10566000000E+00  0.10566000000E+00 0.  1.
     999900   -1    0    0    0    0 -0.00000000000E+00 -0.00000000000E+00 -0.74505805969E-08  0.93827000000E+00  0.93827000000E+00 0. -1.
     999902    2    1    2    0    0 -0.94405622420E-02 -0.65304157016E-02 -0.20607034100E-01  0.10203414350E+01  0.10200687347E+01 0.  0.
     999903    2    3    3    0    0 -0.30603085568E-01  0.11613510979E+00 -0.48786962528E-01  0.13113460197E+00  0.19804129556E-01 0.  0.
         14    1    1    2    0    0  0.94405622420E-02  0.65304157016E-02  0.20607034100E-01  0.23588565006E-01  0.00000000000E+00 0.  1.
     999901    1    3    3    0    0  0.21162523326E-01 -0.12266552549E+00  0.28179928429E-01  0.88920683303E+00  0.88000000000E+00 0. -1.
        -11    1    4    4    0    0 -0.17219973764E-01  0.81692634723E-01 -0.42375649254E-01  0.93627831520E-01  0.51100000000E-03 0.  1.
         11    1    4    4    0    0 -0.13383111804E-01  0.34442475068E-01 -0.64113132746E-02  0.37506770446E-01  0.51100000000E-03 0. -1.
</event>
<event>
 8    1  0.1114447E+005  0.1043930E+01  0.7957747E-01            NaN
         13   -1    0    0    0    0  0.00000000000E+00  0.00000000000E+00  0.74505805969E-08  0.10566000000E+00  0.10566000000E+00 0.  1.
     999900   -1    0    0    0    0 -0.00000000000E+00 -0.00000000000E+00 -0.74505805969E-08  0.93827000000E+00  0.93827000000E+00 0.  1.
     999902    2    1    2    0    0 -0.26353169145E-02 -0.13432728979E-01 -0.20098206567E-01  0.10196129070E+01  0.10193228925E+01 0.  0.
     999903    2    3    3    0    0  0.38593198299E-03  0.11043602840E+00 -0.64705776477E-01  0.12981381044E+00  0.21645381938E-01 0.  0.
         14    1    1    2    0    0  0.26353169145E-02  0.13432728979E-01  0.20098206567E-01  0.24317092965E-01  0.00000000000E+00 0.  1.
     999901    1    3    3    0    0 -0.30212488975E-02 -0.12386875738E+00  0.44607569909E-01  0.88979909659E+00  0.88000000000E+00 0. -1.
        -11    1    4    4    0    0  0.97613673504E-02  0.40702593375E-01 -0.28879284050E-01  0.50855280633E-01  0.51100000000E-03 0.  1.
         11    1    4    4    0    0 -0.93754353674E-02  0.69733435029E-01 -0.35826492427E-01  0.78958529811E-01  0.51100000000E-03 0. -1.
</event>
<event>
 8    1  0.1114447E+005  0.1043930E+01  0.7957747E-01            NaN
         13   -1    0    0    0    0  0.00000000000E+00  0.00000000000E+00  0.74505805969E-08  0.10566000000E+00  0.10566000000E+00 0. -1.
     999900   -1    0    0    0    0 -0.00000000000E+00 -0.00000000000E+00 -0.74505805969E-08  0.93827000000E+00  0.93827000000E+00 0.  1.
     999902    2    1    2    0    0 -0.12958843135E-01  0.19887012449E-01 -0.47153496822E-02  0.10197295991E+01  0.10194423946E+01 0.  0.
     999903    2    3    3    0    0 -0.45455586331E-01 -0.25727240715E-01 -0.11814857902E+00  0.13068303346E+00  0.19770363355E-01 0.  0.
         14    1    1    2    0    0  0.12958843135E-01 -0.19887012449E-01  0.47153496822E-02  0.24200400868E-01  0.00000000000E+00 0.  1.
     999901    1    3    3    0    0  0.32496743196E-01  0.45614253164E-01  0.11343322934E+00  0.88904656567E+00  0.88000000000E+00 0. -1.
        -11    1    4    4    0    0 -0.16089930638E-02 -0.86126661764E-02 -0.18535229192E-01  0.20508113505E-01  0.51100000000E-03 0.  1.
         11    1    4    4    0    0 -0.43846593267E-01 -0.17114574539E-01 -0.99613349828E-01  0.11017491996E+00  0.51100000000E-03 0. -1.
</event>
<event>
 8    1  0.1114447E+005  0.1043930E+01  0.7957747E-01            NaN
         13   -1    0    0    0    0  0.00000000000E+00  0.00000000000E+00  0.74505805969E-08  0.10566000000E+00  0.10566000000E+00 0.  1.
     999900   -1    0    0    0    0 -0.00000000000E+00 -0.00000000000E+00 -0.74505805969E-08  0.93827000000E+00  0.93827000000E+00 0. -1.
     999902    2    1    2    0    0  0.12103758710E-01 -0.34962766201E-02 -0.20409709716E-01  0.10199449802E+01  0.10196629254E+01 0.  0.
     999903    2    3    3    0    0  0.11548609133E+00  0.29423511423E-01  0.50948270249E-01  0.13041500292E+00  0.14476409390E-01 0.  0.
         14    1    1    2    0    0 -0.12103758710E-01  0.34962766201E-02  0.20409709716E-01  0.23985019820E-01  0.00000000000E+00 0.  1.
     999901    1    3    3    0    0 -0.10338233262E+00 -0.32919788043E-01 -0.71357979965E-01  0.88952997726E+00  0.88000000000E+00 0. -1.
        -11    1    4    4    0    0  0.60726260585E-01  0.16217759399E-01  0.34640984457E-01  0.71770142606E-01  0.51100000000E-03 0.  1.
         11    1    4    4    0    0  0.54759830748E-01  0.13205752024E-01  0.16307285792E-01  0.58644860311E-01  0.51100000000E-03 0. -1.
</event>
<event>
 8    1  0.1114447E+005  0.1043930E+01  0.7957747E-01            NaN
         13   -1    0    0    0    0  0.00000000000E+00  0.00000000000E+00  0.74505805969E-08  0.10566000000E+00  0.10566000000E+00 0.  1.
     999900   -1    0    0    0    0 -0.00000000000E+00 -0.00000000000E+00 -0.74505805969E-08  0.93827000000E+00  0.93827000000E+00 0.  1.
     999902    2    1    2    0    0  0.71286239657E-02 -0.20719652422E-01  0.80332274065E-02  0.10205921762E+01  0.10203253090E+01 0.  0.
     999903    2    3    3    0    0  0.35642741621E-01 -0.78554194086E-01  0.99991844263E-01  0.13345392525E+00  0.19246163460E-01 0.  0.
         14    1    1    2    0    0 -0.71286239657E-02  0.20719652422E-01 -0.80332274065E-02  0.23337823778E-01  0.00000000000E+00 0. -1.
     999901    1    3    3    0    0 -0.28514117656E-01  0.57834541664E-01 -0.91958616857E-01  0.88713825097E+00  0.88000000000E+00 0.  1.
        -11    1    4    4    0    0  0.25894402224E-01 -0.37916631249E-01  0.44109256578E-01  0.63671646976E-01  0.51100000000E-03 0. -1.
         11    1    4    4    0    0  0.97483393977E-02 -0.40637562837E-01  0.55882587686E-01  0.69782278279E-01  0.51100000000E-03 0.  1.
</event>
<event>
 8    1  0.1114447E+005  0.1043930E+01  0.7957747E-01            NaN
         13   -1    0    0    0    0  0.00000000000E+00  0.00000000000E+00  0.74505805969E-08  0.10566000000E+00  0.10566000000E+00 0. -1.
     999900   -1    0    0    0    0 -0.00000000000E+00 -0.00000000000E+00 -0.74505805969E-08  0.93827000000E+00  0.93827000000E+00 0.  1.
     999902    2    1    2    0    0 -0.44220327559E-03  0.16756319975E-01  0.20822416398E-02  0.10270390103E+01  0.10269001038E+01 0.  0.
     999903    2    3    3    0    0  0.71010304961E-01  0.31786017518E-02 -0.11454804010E+00  0.13636935325E+00  0.20561617032E-01 0.  0.
         14    1    1    2    0    0  0.44220327559E-03 -0.16756319975E-01 -0.20822416398E-02  0.16890989701E-01  0.00000000000E+00 0. -1.
     999901    1    3    3    0    0 -0.71452508236E-01  0.13577718223E-01  0.11663028174E+00  0.89066965705E+00  0.88000000000E+00 0. -1.
        -11    1    4    4    0    0  0.38237603748E-01 -0.67628968182E-02 -0.50137974041E-01  0.63418677657E-01  0.51100000000E-03 0. -1.
         11    1    4    4    0    0  0.32772701213E-01  0.99414985700E-02 -0.64410066063E-01  0.72950675595E-01  0.51100000000E-03 0.  1.
</event>
<event>
 8    1  0.1114447E+005  0.1043930E+01  0.7957747E-01            NaN
         13   -1    0    0    0    0  0.00000000000E+00  0.00000000000E+00  0.74505805969E-08  0.10566000000E+00  0.10566000000E+00 0.  1.
     999900   -1    0    0    0    0 -0.00000000000E+00 -0.00000000000E+00 -0.74505805969E-08  0.93827000000E+00  0.93827000000E+00 0. -1.
     999902    2    1    2    0    0  0.20955723587E-01 -0.37876372028E-02  0.10229792207E-01  0.10203050726E+01  0.10200315211E+01 0.  0.
     999903    2    3    3    0    0 -0.50922775834E-01 -0.81239213695E-01 -0.81595885718E-01  0.12923985583E+00  0.29190971713E-01 0.  0.
         14    1    1    2    0    0 -0.20955723587E-01  0.37876372028E-02 -0.10229792207E-01  0.23624927412E-01  0.00000000000E+00 0. -1.
     999901    1    3    3    0    0  0.71878499422E-01  0.77451576493E-01  0.91825677925E-01  0.89106521675E+00  0.88000000000E+00 0.  1.
        -11    1    4    4    0    0 -0.24663411283E-01 -0.14896507612E-01 -0.25431667442E-01  0.38434627941E-01  0.51100000000E-03 0. -1.
         11    1    4    4    0    0 -0.26259364552E-01 -0.66342706084E-01 -0.56164218277E-01  0.90805227893E-01  0.51100000000E-03 0.  1.
</event>
<event>
 8    1  0.1114447E+005  0.1043930E+01  0.7957747E-01            NaN
         13   -1    0    0    0    0  0.00000000000E+00  0.00000000000E+00  0.74505805969E-08  0.10566000000E+00  0.10566000000E+00 0. -1.
     999900   -1    0    0    0    0 -0.00000000000E+00 -0.00000000000E+00 -0.74505805969E-08  0.93827000000E+00  0.93827000000E+00 0. -1.
     999902    2    1    2    0    0 -0.68306674468E-02  0.19061724447E-01  0.13338506558E-01  0.10196828741E+01  0.10193945461E+01 0.  0.
     999903    2    3    3    0    0 -0.93246876878E-01  0.66105888549E-01 -0.60778048210E-01  0.13110300808E+00  0.20713740240E-01 0.  0.
         14    1    1    2    0    0  0.68306674468E-02 -0.19061724447E-01 -0.13338506558E-01  0.24247125888E-01  0.00000000000E+00 0.  1.
     999901    1    3    3    0    0  0.86416209431E-01 -0.47044164102E-01  0.74116554768E-01  0.88857986603E+00  0.88000000000E+00 0. -1.
        -11    1    4    4    0    0 -0.54051146040E-01  0.44596902197E-01 -0.46759700163E-01  0.84244529521E-01  0.51100000000E-03 0. -1.
         11    1    4    4    0    0 -0.39195730838E-01  0.21508986352E-01 -0.14018348047E-01  0.46858478558E-01  0.51100000000E-03 0.  1.
</event>
<event>
 8    1  0.1114447E+005  0.1043930E+01  0.7957747E-01            NaN
         13   -1    0    0    0    0  0.00000000000E+00  0.00000000000E+00  0.74505805969E-08  0.10566000000E+00  0.10566000000E+00 0. -1.
     999900   -1    0    0    0    0 -0.00000000000E+00 -0.00000000000E+00 -0.74505805969E-08  0.93827000000E+00  0.93827000000E+00 0. -1.
     999902    2    1    2    0    0 -0.18042246879E-01 -0.19467220817E-02 -0.14894054059E-01  0.10204535172E+01  0.10201834323E+01 0.  0.
     999903    2    3    3    0    0  0.90460609207E-01 -0.67406051769E-01 -0.61904171418E-01  0.13013461659E+00  0.19395730504E-01 0.  0.
         14    1    1    2    0    0  0.18042246879E-01  0.19467220817E-02  0.14894054059E-01  0.23476482820E-01  0.00000000000E+00 0. -1.
     999901    1    3    3    0    0 -0.10850285609E+00  0.65459329687E-01  0.47010117359E-01  0.89031890059E+00  0.88000000000E+00 0.  1.
        -11    1    4    4    0    0  0.76053512624E-01 -0.50466758140E-01 -0.56132100407E-01  0.10715458122E+00  0.51100000000E-03 0.  1.
         11    1    4    4    0    0  0.14407096583E-01 -0.16939293629E-01 -0.57720710112E-02  0.22980035365E-01  0.51100000000E-03 0. -1.
</event>
<event>
 8    1  0.1114447E+005  0.1043930E+01  0.7957747E-01            NaN
         13   -1    0    0    0    0  0.00000000000E+00  0.00000000000E+00  0.74505805969E-08  0.10566000000E+00  0.10566000000E+00 0. -1.
     999900   -1    0    0    0    0 -0.00000000000E+00 -0.00000000000E+00 -0.74505805969E-08  0.93827000000E+00  0.93827000000E+00 0.  1.
     999902    2    1    2    0    0 -0.20923722516E-01  0.97461778533E-02 -0.46239674556E-02  0.10203891584E+01  0.10201175733E+01 0.  0.
     999903    2    3    3    0    0 -0.12086221642E+00 -0.40663905104E-02  0.51393006787E-01  0.13285527682E+00  0.19623265336E-01 0.  0.
         14    1    1    2    0    0  0.20923722516E-01 -0.97461778533E-02  0.46239674556E-02  0.23540841567E-01  0.00000000000E+00 0. -1.
     999901    1    3    3    0    0  0.99938493904E-01  0.13812568364E-01 -0.56016974242E-01  0.88753388161E+00  0.88000000000E+00 0.  1.
        -11    1    4    4    0    0 -0.10867501749E+00 -0.19755670169E-02  0.51941794968E-01  0.12046731290E+00  0.51100000000E-03 0.  1.
         11    1    4    4    0    0 -0.12187198929E-01 -0.20908234935E-02 -0.54878818122E-03  0.12387963920E-01  0.51100000000E-03 0. -1.
</event>
<event>
 8    1  0.1114447E+005  0.1043930E+01  0.7957747E-01            NaN
         13   -1    0    0    0    0  0.00000000000E+00  0.00000000000E+00  0.74505805969E-08  0.10566000000E+00  0.10566000000E+00 0. -1.
     999900   -1    0    0    0    0 -0.00000000000E+00 -0.00000000000E+00 -0.74505805969E-08  0.93827000000E+00  0.93827000000E+00 0.  1.
     999902    2    1    2    0    0  0.66234021314E-02 -0.13057490158E-01 -0.92141948371E-02  0.10266306101E+01  0.10264848468E+01 0.  0.
     999903    2    3    3    0    0  0.23054793058E-01  0.63330810617E-01  0.11469699520E+00  0.13452122995E+00  0.19956090403E-01 0.  0.
         14    1    1    2    0    0 -0.66234021314E-02  0.13057490158E-01  0.92141948371E-02  0.17299389918E-01  0.00000000000E+00 0.  1.
     999901    1    3    3    0    0 -0.16431390927E-01 -0.76388300775E-01 -0.12391119003E+00  0.89210938013E+00  0.88000000000E+00 0.  1.
        -11    1    4    4    0    0  0.10706804916E-01  0.12684314997E-01  0.41122155147E-01  0.44348847599E-01  0.51100000000E-03 0. -1.
         11    1    4    4    0    0  0.12347988142E-01  0.50646495620E-01  0.73574840049E-01  0.90172382352E-01  0.51100000000E-03 0.  1.
</event>
<event>
 8    1  0.1114447E+005  0.1043930E+01  0.7957747E-01            NaN
         13   -1    0    0    0    0  0.00000000000E+00  0.00000000000E+00  0.74505805969E-08  0.10566000000E+00  0.10566000000E+00 0. -1.
     999900   -1    0    0    0    0 -0.00000000000E+00 -0.00000000000E+00 -0.74505805969E-08  0.93827000000E+00  0.93827000000E+00 0.  1.
     999902    2    1    2    0    0  0.18315822363E-01 -0.12797682517E-01 -0.86083325223E-02  0.10199852007E+01  0.10197041023E+01 0.  0.
     999903    2    3    3    0    0  0.26100758287E-01 -0.10240379663E+00  0.74758659339E-01  0.13148088652E+00  0.23034305444E-01 0.  0.
         14    1    1    2    0    0 -0.18315822363E-01  0.12797682517E-01  0.86083325223E-02  0.23944799341E-01  0.00000000000E+00 0.  1.
     999901    1    3    3    0    0 -0.77849359240E-02  0.89606114109E-01 -0.83366991861E-01  0.88850431414E+00  0.88000000000E+00 0.  1.
        -11    1    4    4    0    0  0.28893439109E-01 -0.71637091235E-01  0.52391403192E-01  0.93337151840E-01  0.51100000000E-03 0. -1.
         11    1    4    4    0    0 -0.27926808218E-02 -0.30766705391E-01  0.22367256147E-01  0.38143734680E-01  0.51100000000E-03 0.  1.
</event>
<event>
 8    1  0.1114447E+005  0.1043930E+01  0.7957747E-01            NaN
         13   -1    0    0    0    0  0.00000000000E+00  0.00000000000E+00  0.74505805969E-08  0.10566000000E+00  0.10566000000E+00 0. -1.
     999900   -1    0    0    0    0 -0.00000000000E+00 -0.00000000000E+00 -0.74505805969E-08  0.93827000000E+00  0.93827000000E+00 0.  1.
     999902    2    1    2    0    0 -0.10694032385E-02  0.23010527436E-01  0.29012667613E-02  0.10207126499E+01  0.10204485623E+01 0.  0.
     999903    2    3    3    0    0 -0.80730933109E-01 -0.75410335196E-01  0.64661379608E-01  0.12950732168E+00  0.19668506294E-01 0.  0.
         14    1    1    2    0    0  0.10694032385E-02 -0.23010527436E-01 -0.29012667613E-02  0.23217350085E-01  0.00000000000E+00 0.  1.
     999901    1    3    3    0    0  0.79661529871E-01  0.98420862632E-01 -0.61760112846E-01  0.89120532824E+00  0.88000000000E+00 0.  1.
        -11    1    4    4    0    0 -0.31097269666E-01 -0.25392381170E-01  0.13253343586E-01  0.42281502331E-01  0.51100000000E-03 0. -1.
         11    1    4    4    0    0 -0.49633663443E-01 -0.50017954026E-01  0.51408036022E-01  0.87225819345E-01  0.51100000000E-03 0.  1.
</event>
<event>
 8    1  0.1114447E+005  0.1043930E+01  0.7957747E-01            NaN
         13   -1    0    0    0    0  0.00000000000E+00  0.00000000000E+00  0.74505805969E-08  0.10566000000E+00  0.10566000000E+00 0. -1.
     999900   -1    0    0    0    0 -0.00000000000E+00 -0.00000000000E+00 -0.74505805969E-08  0.93827000000E+00  0.93827000000E+00 0.  1.
     999902    2    1    2    0    0  0.17526195271E-01  0.14272970068E-01  0.77857037019E-02  0.10200238841E+01  0.10197437040E+01 0.  0.
     999903    2    3    3    0    0  0.24870235525E-01 -0.11292447975E+00 -0.53134070652E-01  0.12876390796E+00  0.19658275268E-01 0.  0.
         14    1    1    2    0    0 -0.17526195271E-01 -0.14272970068E-01 -0.77857037019E-02  0.23906115899E-01  0.00000000000E+00 0.  1.
     999901    1    3    3    0    0 -0.73440402536E-02  0.12719744982E+00  0.60919774354E-01  0.89125997614E+00  0.88000000000E+00 0.  1.
        -11    1    4    4    0    0  0.25512356841E-01 -0.81106584610E-01 -0.43511414338E-01  0.95512631193E-01  0.51100000000E-03 0.  1.
         11    1    4    4    0    0 -0.64212131645E-03 -0.31817895141E-01 -0.96226563139E-02  0.33251276765E-01  0.51100000000E-03 0. -1.
</event>
<event>
 8    1  0.1114447E+005  0.1043930E+01  0.7957747E-01            NaN
         13   -1    0    0    0    0  0.00000000000E+00  0.00000000000E+00  0.74505805969E-08  0.10566000000E+00  0.10566000000E+00 0. -1.
     999900   -1    0    0    0    0 -0.00000000000E+00 -0.00000000000E+00 -0.74505805969E-08  0.93827000000E+00  0.93827000000E+00 0. -1.
     999902    2    1    2    0    0  0.18687383380E-01 -0.11698011096E-01  0.75040464754E-02  0.10206411083E+01  0.10203753719E+01 0.  0.
     999903    2    3    3    0    0 -0.35834956638E-01  0.12050912192E+00 -0.19125078056E-01  0.12869911367E+00  0.19776265254E-01 0.  0.
         14    1    1    2    0    0 -0.18687383380E-01  0.11698011096E-01 -0.75040464754E-02  0.23288891659E-01  0.00000000000E+00 0.  1.
     999901    1    3    3    0    0  0.54522340018E-01 -0.13220713301E+00  0.26629124532E-01  0.89194199467E+00  0.88000000000E+00 0.  1.
        -11    1    4    4    0    0 -0.27014250331E-01  0.10497022390E+00 -0.21978405415E-01  0.11059759966E+00  0.51100000000E-03 0.  1.
         11    1    4    4    0    0 -0.88207063071E-02  0.15538898020E-01  0.28533273586E-02  0.18101514010E-01  0.51100000000E-03 0. -1.
</event>
<event>
 7    1  0.1114447E+005  0.1043930E+01  0.7957747E-01            NaN
         13   -1    0    0    0    0  0.00000000000E+00  0.00000000000E+00  0.74505805969E-08  0.10566000000E+00  0.10566000000E+00 0.  1.
     999900   -1    0    0    0    0 -0.00000000000E+00 -0.00000000000E+00 -0.74505805969E-08  0.93827000000E+00  0.93827000000E+00 0.  1.
     999903    2    1    2    0    0  0.45864137095E-01  0.16625806304E-01 -0.95707788267E-01  0.10924044336E+00  0.19838276730E-01 0.  0.
         14    1    1    2    0    0 -0.44596470037E-01 -0.17121694017E-01 -0.85659898260E-02  0.48532192691E-01  0.00000000000E+00 0.  1.
     999901    1    1    2    0    0 -0.12676670584E-02  0.49588771308E-03  0.10427377809E+00  0.88615736395E+00  0.88000000000E+00 0. -1.
        -11    1    3    3    0    0  0.14730131860E-01 -0.30414360976E-02 -0.36914501732E-01  0.39864378551E-01  0.51100000000E-03 0. -1.
         11    1    3    3    0    0  0.31134005235E-01  0.19667242401E-01 -0.58793286535E-01  0.69376064808E-01  0.51100000000E-03 0.  1.
</event>
<event>
 8    1  0.1114447E+005  0.1043930E+01  0.7957747E-01            NaN
         13   -1    0    0    0    0  0.00000000000E+00  0.00000000000E+00  0.74505805969E-08  0.10566000000E+00  0.10566000000E+00 0. -1.
     999900   -1    0    0    0    0 -0.00000000000E+00 -0.00000000000E+00 -0.74505805969E-08  0.93827000000E+00  0.93827000000E+00 0. -1.
     999902    2    1    2    0    0 -0.68617016977E-02  0.10882729955E-01  0.20099966858E-01  0.10200652681E+01  0.10197860686E+01 0.  0.
     999903    2    3    3    0    0  0.68341708770E-01  0.86224625478E-01 -0.65163225190E-01  0.12955880203E+00  0.20831756311E-01 0.  0.
         14    1    1    2    0    0  0.68617016977E-02 -0.10882729955E-01 -0.20099966858E-01  0.23864731911E-01  0.00000000000E+00 0.  1.
     999901    1    3    3    0    0 -0.75203410467E-01 -0.75341895523E-01  0.85263192049E-01  0.89050646605E+00  0.88000000000E+00 0.  1.
        -11    1    4    4    0    0  0.46403727355E-01  0.64165522263E-01 -0.36276794976E-01  0.87102164924E-01  0.51100000000E-03 0.  1.
         11    1    4    4    0    0  0.21937981414E-01  0.22059103215E-01 -0.28886430215E-01  0.42456637111E-01  0.51100000000E-03 0. -1.
</event>
<event>
 8    1  0.1114447E+005  0.1043930E+01  0.7957747E-01            NaN
         13   -1    0    0    0    0  0.00000000000E+00  0.00000000000E+00  0.74505805969E-08  0.10566000000E+00  0.10566000000E+00 0. -1.
     999900   -1    0    0    0    0 -0.00000000000E+00 -0.00000000000E+00 -0.74505805969E-08  0.93827000000E+00  0.93827000000E+00 0. -1.
     999902    2    1    2    0    0  0.18598321652E-01 -0.15038145644E-01 -0.28011695135E-03  0.10200109311E+01  0.10197304436E+01 0.  0.
     999903    2    3    3    0    0 -0.95658908080E-01 -0.56785086701E-01  0.63045719919E-01  0.12938885452E+00  0.19787372414E-01 0.  0.
         14    1    1    2    0    0 -0.18598321652E-01  0.15038145644E-01  0.28011695135E-03  0.23919068924E-01  0.00000000000E+00 0. -1.
     999901    1    3    3    0    0  0.11425722973E+00  0.41746941058E-01 -0.63325836871E-01  0.89062207656E+00  0.88000000000E+00 0. -1.
        -11    1    4    4    0    0 -0.22799574411E-01 -0.14082823394E-01  0.25397240848E-01  0.36924618776E-01  0.51100000000E-03 0.  1.
         11    1    4    4    0    0 -0.72859333670E-01 -0.42702263307E-01  0.37648479071E-01  0.92464235744E-01  0.51100000000E-03 0. -1.
</event>
<event>
 8    1  0.1114447E+005  0.1043930E+01  0.7957747E-01            NaN
         13   -1    0    0    0    0  0.00000000000E+00  0.00000000000E+00  0.74505805969E-08  0.10566000000E+00  0.10566000000E+00 0. -1.
     999900   -1    0    0    0    0 -0.00000000000E+00 -0.00000000000E+00 -0.74505805969E-08  0.93827000000E+00  0.93827000000E+00 0.  1.
     999902    2    1    2    0    0 -0.24581775295E-02  0.26932332969E-02 -0.23584853791E-01  0.10200649320E+01  0.10197857246E+01 0.  0.
     999903    2    3    3    0    0  0.58364083702E-01  0.11260290530E+00  0.23327406648E-01  0.12990750567E+00  0.15684756330E-01 0.  0.
         14    1    1    2    0    0  0.24581775295E-02 -0.26932332969E-02  0.23584853791E-01  0.23865068001E-01  0.00000000000E+00 0. -1.
     999901    1    3    3    0    0 -0.60822261231E-01 -0.10990967200E+00 -0.46912260438E-01  0.89015742632E+00  0.88000000000E+00 0.  1.
        -11    1    4    4    0    0  0.51297565739E-01  0.87118017835E-01  0.15205405118E-01  0.10223724736E+00  0.51100000000E-03 0.  1.
         11    1    4    4    0    0  0.70665179631E-02  0.25484887466E-01  0.81220015300E-02  0.27670258313E-01  0.51100000000E-03 0. -1.
</event>
<event>
 8    1  0.1114447E+005  0.1043930E+01  0.7957747E-01            NaN
         13   -1    0    0    0    0  0.00000000000E+00  0.00000000000E+00  0.74505805969E-08  0.10566000000E+00  0.10566000000E+00 0. -1.
     999900   -1    0    0    0    0 -0.00000000000E+00 -0.00000000000E+00 -0.74505805969E-08  0.93827000000E+00  0.93827000000E+00 0.  1.
     999902    2    1    2    0    0 -0.43406967093E-02  0.15336547532E-02 -0.22421585177E-01  0.10210406744E+01  0.10207840798E+01 0.  0.
     999903    2    3    3    0    0  0.15444684632E-01 -0.11507257148E+00 -0.60086440852E-01  0.13232974577E+00  0.20507224311E-01 0.  0.
         14    1    1    2    0    0  0.43406967093E-02 -0.15336547532E-02  0.22421585177E-01  0.22889325606E-01  0.00000000000E+00 0. -1.
     999901    1    3    3    0    0 -0.19785381341E-01  0.11660622624E+00  0.37664855674E-01  0.88871092863E+00  0.88000000000E+00 0. -1.
        -11    1    4    4    0    0  0.13968480663E-02 -0.39578566454E-01 -0.30683901104E-01  0.50101666789E-01  0.51100000000E-03 0. -1.
         11    1    4    4    0    0  0.14047836566E-01 -0.75494005029E-01 -0.29402539748E-01  0.82228078976E-01  0.51100000000E-03 0.  1.
</event>
<event>
 8    1  0.1114447E+005  0.1043930E+01  0.7957747E-01            NaN
         13   -1    0    0    0    0  0.00000000000E+00  0.00000000000E+00  0.74505805969E-08  0.10566000000E+00  0.10566000000E+00 0.  1.
     999900   -1    0    0    0    0 -0.00000000000E+00 -0.00000000000E+00 -0.74505805969E-08  0.93827000000E+00  0.93827000000E+00 0. -1.
     999902    2    1    2    0    0  0.23211030875E-01 -0.36627444179E-02  0.70319892675E-03  0.10204212327E+01  0.10201503958E+01 0.  0.
     999903    2    3    3    0    0  0.84904411622E-01  0.83370917942E-01  0.54384429602E-01  0.13235445248E+00  0.20014140931E-01 0.  0.
         14    1    1    2    0    0 -0.23211030875E-01  0.36627444179E-02 -0.70319892675E-03  0.23508767294E-01  0.00000000000E+00 0. -1.
     999901    1    3    3    0    0 -0.61693380747E-01 -0.87033662360E-01 -0.53681230675E-01  0.88806678022E+00  0.88000000000E+00 0. -1.
        -11    1    4    4    0    0  0.50265403215E-01  0.49594748390E-01  0.42905454278E-01  0.82628015564E-01  0.51100000000E-03 0.  1.
         11    1    4    4    0    0  0.34639008407E-01  0.33776169552E-01  0.11478975323E-01  0.49726436917E-01  0.51100000000E-03 0. -1.
</event>
<event>
 8    1  0.1114447E+005  0.1043930E+01  0.7957747E-01            NaN
         13   -1    0    0    0    0  0.00000000000E+00  0.00000000000E+00  0.74505805969E-08  0.10566000000E+00  0.10566000000E+00 0.  1.
     999900   -1    0    0    0    0 -0.00000000000E+00 -0.00000000000E+00 -0.74505805969E-08  0.93827000000E+00  0.93827000000E+00 0.  1.
     999902    2    1    2    0    0  0.10619978030E-01 -0.17883852149E-01 -0.97433777971E-02  0.10209615540E+01  0.10207031621E+01 0.  0.
     999903    2    3    3    0    0 -0.11486375507E+00 -0.91416223530E-02  0.56055919028E-01  0.12958501105E+00  0.19306929867E-01 0.  0.
         14    1    1    2    0    0 -0.10619978030E-01  0.17883852149E-01  0.97433777971E-02  0.22968446007E-01  0.00000000000E+00 0.  1.
     999901    1    3    3    0    0  0.12548373310E+00 -0.87422297964E-02 -0.65799296826E-01  0.89137654295E+00  0.88000000000E+00 0.  1.
        -11    1    4    4    0    0 -0.53390375983E-01 -0.16282809436E-02  0.15748869564E-01  0.55690857060E-01  0.51100000000E-03 0. -1.
         11    1    4    4    0    0 -0.61473379089E-01 -0.75133414093E-02  0.40307049464E-01  0.73894153986E-01  0.51100000000E-03 0.  1.
</event>
<event>
 8    1  0.1114447E+005  0.1043930E+01  0.7957747E-01            NaN
         13   -1    0    0    0    0  0.00000000000E+00  0.00000000000E+00  0.74505805969E-08  0.10566000000E+00  0.10566000000E+00 0. -1.
     999900   -1    0    0    0    0 -0.00000000000E+00 -0.00000000000E+00 -0.74505805969E-08  0.93827000000E+00  0.93827000000E+00 0.  1.
     999902    2    1    2    0    0  0.18764897680E-01 -0.13269048951E-01  0.22523343922E-02  0.10208375325E+01  0.10205763106E+01 0.  0.
     999903    2    3    3    0    0  0.26090474105E-02 -0.75766625378E-01  0.10662649426E+00  0.13232139657E+00  0.19807929280E-01 0.  0.
         14    1    1    2    0    0 -0.18764897680E-01  0.13269048951E-01 -0.22523343922E-02  0.23092467500E-01  0.00000000000E+00 0.  1.
     999901    1    3    3    0    0  0.16155850270E-01  0.62497576427E-01 -0.10437415987E+00  0.88851613593E+00  0.88000000000E+00 0.  1.
        -11    1    4    4    0    0 -0.52941115747E-02 -0.44688476420E-01  0.50216379986E-01  0.67431694937E-01  0.51100000000E-03 0.  1.
         11    1    4    4    0    0  0.79031589852E-02 -0.31078148957E-01  0.56410114276E-01  0.64889701635E-01  0.51100000000E-03 0. -1.
</event>
<event>
 8    1  0.1114447E+005  0.1043930E+01  0.7957747E-01            NaN
         13   -1    0    0    0    0  0.00000000000E+00  0.00000000000E+00  0.74505805969E-08  0.10566000000E+00  0.10566000000E+00 0. -1.
     999900   -1    0    0    0    0 -0.00000000000E+00 -0.00000000000E+00 -0.74505805969E-08  0.93827000000E+00  0.93827000000E+00 0.  1.
     999902    2    1    2    0    0 -0.91926752464E-02 -0.17483101913E-01 -0.14132943222E-01  0.10196420562E+01  0.10193527449E+01 0.  0.
     999903    2    3    3    0    0 -0.95664142669E-02  0.80478907409E-01  0.96196555310E-01  0.12735886504E+00  0.19953256157E-01 0.  0.
         14    1    1    2    0    0  0.91926752464E-02  0.17483101913E-01  0.14132943222E-01  0.24287943816E-01  0.00000000000E+00 0. -1.
     999901    1    3    3    0    0  0.37373902054E-03 -0.97962009322E-01 -0.11032949853E+00  0.89228319114E+00  0.88000000000E+00 0.  1.
        -11    1    4    4    0    0  0.57251816378E-02  0.27613766972E-01  0.28252416776E-01  0.39921898826E-01  0.51100000000E-03 0.  1.
         11    1    4    4    0    0 -0.15291595905E-01  0.52865140437E-01  0.67944138533E-01  0.87436966214E-01  0.51100000000E-03 0. -1.
</event>
<event>
 8    1  0.1114447E+005  0.1043930E+01  0.7957747E-01            NaN
         13   -1    0    0    0    0  0.00000000000E+00  0.00000000000E+00  0.74505805969E-08  0.10566000000E+00  0.10566000000E+00 0. -1.
     999900   -1    0    0    0    0 -0.00000000000E+00 -0.00000000000E+00 -0.74505805969E-08  0.93827000000E+00  0.93827000000E+00 0. -1.
     999902    2    1    2    0    0 -0.70842743922E-02 -0.22455858404E-01  0.23421338857E-02  0.10202669885E+01  0.10199925440E+01 0.  0.
     999903    2    3    3    0    0  0.10802101240E+00 -0.70592765320E-01 -0.13896191468E-01  0.13131813058E+00  0.19986736754E-01 0.  0.
         14    1    1    2    0    0  0.70842743922E-02  0.22455858404E-01 -0.23421338857E-02  0.23663011462E-01  0.00000000000E+00 0.  1.
     999901    1    3    3    0    0 -0.11510528679E+00  0.48136906915E-01  0.16238325354E-01  0.88894885796E+00  0.88000000000E+00 0.  1.
        -11    1    4    4    0    0  0.47629509312E-01 -0.20569905654E-01 -0.97234600012E-02  0.52787289865E-01  0.51100000000E-03 0. -1.
         11    1    4    4    0    0  0.60391503089E-01 -0.50022859665E-01 -0.41727314671E-02  0.78530840714E-01  0.51100000000E-03 0.  1.
</event>
<event>
 8    1  0.1114447E+005  0.1043930E+01  0.7957747E-01            NaN
         13   -1    0    0    0    0  0.00000000000E+00  0.00000000000E+00  0.74505805969E-08  0.10566000000E+00  0.10566000000E+00 0. -1.
     999900   -1    0    0    0    0 -0.00000000000E+00 -0.00000000000E+00 -0.74505805969E-08  0.93827000000E+00  0.93827000000E+00 0.  1.
     999902    2    1    2    0    0 -0.16764194250E-01 -0.84612260446E-03 -0.18785251192E-01  0.10187379418E+01  0.10184264109E+01 0.  0.
     999903    2    3    3    0    0  0.17101357756E-01  0.78748409002E-01 -0.10108863078E+00  0.13067487461E+00  0.19058940790E-01 0.  0.
         14    1    1    2    0    0  0.16764194250E-01  0.84612260446E-03  0.18785251192E-01  0.25192058166E-01  0.00000000000E+00 0. -1.
     999901    1    3    3    0    0 -0.33865552006E-01 -0.79594531606E-01  0.82303379588E-01  0.88806306722E+00  0.88000000000E+00 0.  1.
        -11    1    4    4    0    0  0.69742027207E-02  0.23489634962E-01 -0.45269744022E-01  0.51478279877E-01  0.51100000000E-03 0.  1.
         11    1    4    4    0    0  0.10127155035E-01  0.55258774040E-01 -0.55818886758E-01  0.79196594734E-01  0.51100000000E-03 0. -1.
</event>
<event>
 8    1  0.1114447E+005  0.1043930E+01  0.7957747E-01            NaN
         13   -1    0    0    0    0  0.00000000000E+00  0.00000000000E+00  0.74505805969E-08  0.10566000000E+00  0.10566000000E+00 0.  1.
     999900   -1    0    0    0    0 -0.00000000000E+00 -0.00000000000E+00 -0.74505805969E-08  0.93827000000E+00  0.93827000000E+00 0.  1.
     999902    2    1    2    0    0  0.45117760626E-02  0.49851357788E-02 -0.13499148500E-01  0.10288490613E+01  0.10287385267E+01 0.  0.
     999903    2    3    3    0    0 -0.11269872487E+00  0.62350500330E-01 -0.43656300392E-01  0.13871505993E+00  0.27338760187E-01 0.  0.
         14    1    1    2    0    0 -0.45117760626E-02 -0.49851357788E-02  0.13499148500E-01  0.15080938704E-01  0.00000000000E+00 0.  1.
     999901    1    3    3    0    0  0.11721050093E+00 -0.57365364552E-01  0.30157151892E-01  0.89013400137E+00  0.88000000000E+00 0. -1.
        -11    1    4    4    0    0 -0.72806645312E-02  0.11037970805E-01  0.96243867417E-03  0.13267715881E-01  0.51100000000E-03 0. -1.
         11    1    4    4    0    0 -0.10541806034E+00  0.51312529525E-01 -0.44618739066E-01  0.12544734405E+00  0.51100000000E-03 0.  1.
</event>
<event>
 8    1  0.1114447E+005  0.1043930E+01  0.7957747E-01            NaN
         13   -1    0    0    0    0  0.00000000000E+00  0.00000000000E+00  0.74505805969E-08  0.10566000000E+00  0.10566000000E+00 0.  1.
     999900   -1    0    0    0    0 -0.00000000000E+00 -0.00000000000E+00 -0.74505805969E-08  0.93827000000E+00  0.93827000000E+00 0.  1.
     999902    2    1    2    0    0 -0.64974298328E-02  0.80515889513E-03 -0.21635447746E-01  0.10213256315E+01  0.10210754566E+01 0.  0.
     999903    2    3    3    0    0  0.20731146960E-01  0.11037512711E+00 -0.67757825963E-01  0.13291455150E+00  0.21510599277E-01 0.  0.
         14    1    1    2    0    0  0.64974298328E-02 -0.80515889513E-03  0.21635447746E-01  0.22604368482E-01  0.00000000000E+00 0.  1.
     999901    1    3    3    0    0 -0.27228576792E-01 -0.10956996822E+00  0.46122378217E-01  0.88841108002E+00  0.88000000000E+00 0. -1.
        -11    1    4    4    0    0  0.21619212671E-01  0.57826640172E-01 -0.38560897925E-01  0.72790896682E-01  0.51100000000E-03 0.  1.
         11    1    4    4    0    0 -0.88806571139E-03  0.52548486942E-01 -0.29196928038E-01  0.60123654816E-01  0.51100000000E-03 0. -1.
</event>
<event>
 8    1  0.1114447E+005  0.1043930E+01  0.7957747E-01            NaN
         13   -1    0    0    0    0  0.00000000000E+00  0.00000000000E+00  0.74505805969E-08  0.10566000000E+00  0.10566000000E+00 0. -1.
     999900   -1    0    0    0    0 -0.00000000000E+00 -0.00000000000E+00 -0.74505805969E-08  0.93827000000E+00  0.93827000000E+00 0.  1.
     999902    2    1    2    0    0  0.10289360575E-01  0.12894240600E-02  0.21739670200E-01  0.10198437629E+01  0.10195592940E+01 0.  0.
     999903    2    3    3    0    0  0.66559802923E-01 -0.10988487538E+00 -0.97833081829E-02  0.13050705184E+00  0.20772199182E-01 0.  0.
         14    1    1    2    0    0 -0.10289360575E-01 -0.12894240600E-02 -0.21739670200E-01  0.24086237063E-01  0.00000000000E+00 0.  1.
     999901    1    3    3    0    0 -0.56270442349E-01  0.11117429944E+00  0.31522978383E-01  0.88933671110E+00  0.88000000000E+00 0. -1.
        -11    1    4    4    0    0  0.49559416194E-01 -0.66926214159E-01 -0.12555726947E-01  0.84220907590E-01  0.51100000000E-03 0. -1.
         11    1    4    4    0    0  0.17000386730E-01 -0.42958661221E-01  0.27724187641E-02  0.46286144251E-01  0.51100000000E-03 0.  1.
</event>
<event>
 8    1  0.1114447E+005  0.1043930E+01  0.7957747E-01            NaN
         13   -1    0    0    0    0  0.00000000000E+00  0.00000000000E+00  0.74505805969E-08  0.10566000000E+00  0.10566000000E+00 0.  1.
     999900   -1    0    0    0    0 -0.00000000000E+00 -0.00000000000E+00 -0.74505805969E-08  0.93827000000E+00  0.93827000000E+00 0. -1.
     999902    2    1    2    0    0  0.98443301182E-02 -0.12891414050E-01 -0.18135725402E-01  0.10195988692E+01  0.10193085157E+01 0.  0.
     999903    2    3    3    0    0  0.90781856356E-01  0.90534019983E-01 -0.47012985450E-02  0.12975158599E+00  0.19380857578E-01 0.  0.
         14    1    1    2    0    0 -0.98443301182E-02  0.12891414050E-01  0.18135725402E-01  0.24331130832E-01  0.00000000000E+00 0.  1.
     999901    1    3    3    0    0 -0.80937526238E-01 -0.10342543403E+00 -0.13434426857E-01  0.88984728318E+00  0.88000000000E+00 0. -1.
        -11    1    4    4    0    0  0.43126055291E-01  0.29888505892E-01 -0.38731796095E-02  0.52615986836E-01  0.51100000000E-03 0. -1.
         11    1    4    4    0    0  0.47655801066E-01  0.60645514091E-01 -0.82811893548E-03  0.77135599152E-01  0.51100000000E-03 0.  1.
</event>
<event>
 8    1  0.1114447E+005  0.1043930E+01  0.7957747E-01            NaN
         13   -1    0    0    0    0  0.00000000000E+00  0.00000000000E+00  0.74505805969E-08  0.10566000000E+00  0.10566000000E+00 0. -1.
     999900   -1    0    0    0    0 -0.00000000000E+00 -0.00000000000E+00 -0.74505805969E-08  0.93827000000E+00  0.93827000000E+00 0. -1.
     999902    2    1    2    0    0  0.55768188420E-02 -0.22582176715E-01  0.73728702181E-02  0.10195288765E+01  0.10192368298E+01 0.  0.
     999903    2    3    3    0    0  0.10082327739E+00  0.14072918964E-01 -0.77650127697E-01  0.12956011631E+00  0.19821732913E-01 0.  0.
         14    1    1    2    0    0 -0.55768188420E-02  0.22582176715E-01 -0.73728702181E-02  0.24401123516E-01  0.00000000000E+00 0.  1.
     999901    1    3    3    0    0 -0.95246458550E-01 -0.36655095679E-01  0.85022997915E-01  0.88996876017E+00  0.88000000000E+00 0.  1.
        -11    1    4    4    0    0  0.31685096832E-01 -0.27193711543E-02 -0.16976423991E-01  0.36052745156E-01  0.51100000000E-03 0.  1.
         11    1    4    4    0    0  0.69138180560E-01  0.16792290118E-01 -0.60673703705E-01  0.93507371158E-01  0.51100000000E-03 0. -1.
</event>
<event>
 8    1  0.1114447E+005  0.1043930E+01  0.7957747E-01            NaN
         13   -1    0    0    0    0  0.00000000000E+00  0.00000000000E+00  0.74505805969E-08  0.10566000000E+00  0.10566000000E+00 0. -1.
     999900   -1    0    0    0    0 -0.00000000000E+00 -0.00000000000E+00 -0.74505805969E-08  0.93827000000E+00  0.93827000000E+00 0.  1.
     999902    2    1    2    0    0 -0.10169300583E-01 -0.11068718001E-01  0.16777013148E-01  0.10214044731E+01  0.10211560597E+01 0.  0.
     999903    2    3    3    0    0 -0.12589166931E+00  0.33344927877E-01 -0.11185404933E-01  0.13227785928E+00  0.20290937745E-01 0.  0.
         14    1    1    2    0    0  0.10169300583E-01  0.11068718001E-01 -0.16777013148E-01  0.22525526913E-01  0.00000000000E+00 0.  1.
     999901    1    3    3    0    0  0.11572236873E+00 -0.44413645878E-01  0.27962418082E-01  0.88912661381E+00  0.88000000000E+00 0.  1.
        -11    1    4    4    0    0 -0.10260062575E+00  0.29056207636E-01 -0.16751588987E-01  0.10794456198E+00  0.51100000000E-03 0. -1.
         11    1    4    4    0    0 -0.23291043559E-01  0.42887202410E-02  0.55661840537E-02  0.24333297296E-01  0.51100000000E-03 0.  1.
</event>
<event>
 8    1  0.1114447E+005  0.1043930E+01  0.7957747E-01            NaN
         13   -1    0    0    0    0  0.00000000000E+00  0.00000000000E+00  0.74505805969E-08  0.10566000000E+00  0.10566000000E+00 0.  1.
     999900   -1    0    0    0    0 -0.00000000000E+00 -0.00000000000E+00 -0.74505805969E-08  0.93827000000E+00  0.93827000000E+00 0.  1.
     999902    2    1    2    0    0  0.22925744715E-01 -0.30626431681E-02 -0.31480530428E-02  0.10205873397E+01  0.10203203605E+01 0.  0.
     999903    2    3    3    0    0  0.24135855119E-01  0.73401111421E-01  0.10341135446E+00  0.13086655342E+00  0.21491484649E-01 0.  0.
         14    1    1    2    0    0 -0.22925744715E-01  0.30626431681E-02  0.31480530428E-02  0.23342660343E-01  0.00000000000E+00 0.  1.
     999901    1    3    3    0    0 -0.12101104040E-02 -0.76463754590E-01 -0.10655940750E+00  0.88972078624E+00  0.88000000000E+00 0.  1.
        -11    1    4    4    0    0  0.36751591715E-02  0.41494455915E-01  0.45905859779E-01  0.61991174773E-01  0.51100000000E-03 0. -1.
         11    1    4    4    0    0  0.20460695948E-01  0.31906655506E-01  0.57505494683E-01  0.68875378648E-01  0.51100000000E-03 0.  1.
</event>
<event>
 8    1  0.1114447E+005  0.1043930E+01  0.7957747E-01            NaN
         13   -1    0    0    0    0  0.00000000000E+00  0.00000000000E+00  0.74505805969E-08  0.10566000000E+00  0.10566000000E+00 0.  1.
     999900   -1    0    0    0    0 -0.00000000000E+00 -0.00000000000E+00 -0.74505805969E-08  0.93827000000E+00  0.93827000000E+00 0.  1.
     999902    2    1    2    0    0  0.56423157228E-02 -0.68091337699E-02 -0.21699533053E-01  0.10204977623E+01  0.10202287063E+01 0.  0.
     999903    2    3    3    0    0  0.15797320790E-01  0.11345497177E+00 -0.61324632307E-01  0.13137643890E+00  0.19428643984E-01 0.  0.
         14    1    1    2    0    0 -0.56423157228E-02  0.68091337699E-02  0.21699533053E-01  0.23432237711E-01  0.00000000000E+00 0.  1.
     999901    1    3    3    0    0 -0.10155005067E-01 -0.12026410554E+00  0.39625099253E-01  0.88912132339E+00  0.88000000000E+00 0. -1.
        -11    1    4    4    0    0  0.55318202752E-02  0.33095325888E-01 -0.83564222091E-02  0.34583125138E-01  0.51100000000E-03 0.  1.
         11    1    4    4    0    0  0.10265500515E-01  0.80359645885E-01 -0.52968210098E-01  0.96793313764E-01  0.51100000000E-03 0. -1.
</event>
<event>
 8    1  0.1114447E+005  0.1043930E+01  0.7957747E-01            NaN
         13   -1    0    0    0    0  0.00000000000E+00  0.00000000000E+00  0.74505805969E-08  0.10566000000E+00  0.10566000000E+00 0.  1.
     999900   -1    0    0    0    0 -0.00000000000E+00 -0.00000000000E+00 -0.74505805969E-08  0.93827000000E+00  0.93827000000E+00 0.  1.
     999902    2    1    2    0    0  0.27716304778E-01  0.18281121979E-01  0.11859746523E-01  0.10086731346E+01  0.10080567672E+01 0.  0.
     999903    2    3    3    0    0 -0.11346263698E+00 -0.40838094846E-02 -0.17699793701E-01  0.11664990048E+00  0.20086540152E-01 0.  0.
         14    1    1    2    0    0 -0.27716304778E-01 -0.18281121979E-01 -0.11859746523E-01  0.35256865416E-01  0.00000000000E+00 0. -1.
     999901    1    3    3    0    0  0.14117894176E+00  0.22364931464E-01  0.29559540224E-01  0.89202323410E+00  0.88000000000E+00 0.  1.
        -11    1    4    4    0    0 -0.65106948496E-01  0.63969258437E-02 -0.14850900300E-01  0.67086852389E-01  0.51100000000E-03 0. -1.
         11    1    4    4    0    0 -0.48355688485E-01 -0.10480735328E-01 -0.28488934006E-02  0.49563048096E-01  0.51100000000E-03 0.  1.
</event>
<event>
 8    1  0.1114447E+005  0.1043930E+01  0.7957747E-01            NaN
         13   -1    0    0    0    0  0.00000000000E+00  0.00000000000E+00  0.74505805969E-08  0.10566000000E+00  0.10566000000E+00 0. -1.
     999900   -1    0    0    0    0 -0.00000000000E+00 -0.00000000000E+00 -0.74505805969E-08  0.93827000000E+00  0.93827000000E+00 0.  1.
     999902    2    1    2    0    0  0.21696397806E-02 -0.21233956360E-01 -0.10132617192E-01  0.10203025124E+01  0.10200289009E+01 0.  0.
     999903    2    3    3    0    0  0.68957348481E-01  0.28679419323E-01 -0.10590621782E+00  0.13118805087E+00  0.20409623115E-01 0.  0.
         14    1    1    2    0    0 -0.21696397806E-02  0.21233956360E-01  0.10132617192E-01  0.23627487608E-01  0.00000000000E+00 0. -1.
     999901    1    3    3    0    0 -0.66787708700E-01 -0.49913375683E-01  0.95773600632E-01  0.88911446152E+00  0.88000000000E+00 0. -1.
        -11    1    4    4    0    0  0.26008760938E-01  0.17798759995E-01 -0.57445040224E-01  0.65524386836E-01  0.51100000000E-03 0.  1.
         11    1    4    4    0    0  0.42948587542E-01  0.10880659328E-01 -0.48461177601E-01  0.65663664037E-01  0.51100000000E-03 0. -1.
</event>
<event>
 8    1  0.1114447E+005  0.1043930E+01  0.7957747E-01            NaN
         13   -1    0    0    0    0  0.00000000000E+00  0.00000000000E+00  0.74505805969E-08  0.10566000000E+00  0.10566000000E+00 0.  1.
     999900   -1    0    0    0    0 -0.00000000000E+00 -0.00000000000E+00 -0.74505805969E-08  0.93827000000E+00  0.93827000000E+00 0.  1.
     999902    2    1    2    0    0  0.14698372886E-01 -0.11330119209E-01  0.13017279173E-01  0.10212614464E+01  0.10210098327E+01 0.  0.
     999903    2    3    3    0    0 -0.89710015173E-01 -0.58533452779E-01 -0.70819084122E-01  0.12988172817E+00  0.19490221151E-01 0.  0.
         14    1    1    2    0    0 -0.14698372886E-01  0.11330119209E-01 -0.13017279173E-01  0.22668553634E-01  0.00000000000E+00 0.  1.
     999901    1    3    3    0    0  0.10440838806E+00  0.47203333570E-01  0.83836363295E-01  0.89137971819E+00  0.88000000000E+00 0. -1.
        -11    1    4    4    0    0 -0.39825596382E-01 -0.30612829144E-01 -0.22561696154E-01  0.55068272987E-01  0.51100000000E-03 0.  1.
         11    1    4    4    0    0 -0.49884418791E-01 -0.27920623635E-01 -0.48257387968E-01  0.74813455186E-01  0.51100000000E-03 0. -1.
</event>
<event>
 8    1  0.1114447E+005  0.1043930E+01  0.7957747E-01            NaN
         13   -1    0    0    0    0  0.00000000000E+00  0.00000000000E+00  0.74505805969E-08  0.10566000000E+00  0.10566000000E+00 0.  1.
     999900   -1    0    0    0    0 -0.00000000000E+00 -0.00000000000E+00 -0.74505805969E-08  0.93827000000E+00  0.93827000000E+00 0. -1.
     999902    2    1    2    0    0  0.25702898750E-02  0.43201616959E-02  0.22879496217E-01  0.10205047671E+01  0.10202358738E+01 0.  0.
     999903    2    3    3    0    0 -0.95009365346E-01 -0.40583518392E-02  0.89857501470E-01  0.13254190655E+00  0.21206996475E-01 0.  0.
         14    1    1    2    0    0 -0.25702898750E-02 -0.43201616959E-02 -0.22879496217E-01  0.23425232854E-01  0.00000000000E+00 0. -1.
     999901    1    3    3    0    0  0.97579655221E-01  0.83785135351E-02 -0.66978005254E-01  0.88796286059E+00  0.88000000000E+00 0. -1.
        -11    1    4    4    0    0 -0.81627405782E-01 -0.74569385548E-02  0.67154007186E-01  0.10596490508E+00  0.51100000000E-03 0. -1.
         11    1    4    4    0    0 -0.13381959564E-01  0.33985867156E-02  0.22703494285E-01  0.26577001471E-01  0.51100000000E-03 0.  1.
</event>
<event>
 8    1  0.1114447E+005  0.1043930E+01  0.7957747E-01            NaN
         13   -1    0    0    0    0  0.00000000000E+00  0.00000000000E+00  0.74505805969E-08  0.10566000000E+00  0.10566000000E+00 0.  1.
     999900   -1    0    0    0    0 -0.00000000000E+00 -0.00000000000E+00 -0.74505805969E-08  0.93827000000E+00  0.93827000000E+00 0. -1.
     999902    2    1    2    0    0 -0.10816320119E-01  0.68001450101E-02 -0.19546101235E-01  0.10205786654E+01  0.10203114855E+01 0.  0.
     999903    2    3    3    0    0  0.66685842827E-01  0.77744402214E-01 -0.81324473109E-01  0.13217771983E+00  0.19133373583E-01 0.  0.
         14    1    1    2    0    0  0.10816320119E-01 -0.68001450101E-02  0.19546101235E-01  0.23351334578E-01  0.00000000000E+00 0. -1.
     999901    1    3    3    0    0 -0.77502162946E-01 -0.70944257204E-01  0.61778371874E-01  0.88840094559E+00  0.88000000000E+00 0.  1.
        -11    1    4    4    0    0  0.54501821324E-01  0.51017621266E-01 -0.54955973243E-01  0.92702029770E-01  0.51100000000E-03 0.  1.
         11    1    4    4    0    0  0.12184021503E-01  0.26726780948E-01 -0.26368499866E-01  0.39475690064E-01  0.51100000000E-03 0. -1.
</event>
<event>
 8    1  0.1114447E+005  0.1043930E+01  0.7957747E-01            NaN
         13   -1    0    0    0    0  0.00000000000E+00  0.00000000000E+00  0.74505805969E-08  0.10566000000E+00  0.10566000000E+00 0. -1.
     999900   -1    0    0    0    0 -0.00000000000E+00 -0.00000000000E+00 -0.74505805969E-08  0.93827000000E+00  0.93827000000E+00 0.  1.
     999902    2    1    2    0    0  0.14567208490E-01 -0.14706400934E-01 -0.97067179180E-02  0.10210673194E+01  0.10208113286E+01 0.  0.
     999903    2    3    3    0    0  0.24126759585E-01 -0.12781879209E+00  0.20350087664E-01  0.13326711123E+00  0.20645888919E-01 0.  0.
         14    1    1    2    0    0 -0.14567208490E-01  0.14706400934E-01  0.97067179180E-02  0.22862680604E-01  0.00000000000E+00 0. -1.
     999901    1    3    3    0    0 -0.95595510944E-02  0.11311239116E+00 -0.30056805582E-01  0.88780020816E+00  0.88000000000E+00 0. -1.
        -11    1    4    4    0    0  0.17637006478E-01 -0.42322926699E-01  0.45337696714E-02  0.46077221165E-01  0.51100000000E-03 0. -1.
         11    1    4    4    0    0  0.64897531070E-02 -0.85495865392E-01  0.15816317992E-01  0.87189890070E-01  0.51100000000E-03 0.  1.
</event>
<event>
 8    1  0.1114447E+005  0.1043930E+01  0.7957747E-01            NaN
         13   -1    0    0    0    0  0.00000000000E+00  0.00000000000E+00  0.74505805969E-08  0.10566000000E+00  0.10566000000E+00 0.  1.
     999900   -1    0    0    0    0 -0.00000000000E+00 -0.00000000000E+00 -0.74505805969E-08  0.93827000000E+00  0.93827000000E+00 0.  1.
     999902    2    1    2    0    0 -0.88666454831E-02 -0.91376207037E-02 -0.24886571008E-01  0.10159754846E+01  0.10155908282E+01 0.  0.
     999903    2    3    3    0    0  0.60603398797E-01  0.53856118219E-01  0.90720213298E-01  0.12347381695E+00  0.21032664021E-01 0.  0.
         14    1    1    2    0    0  0.88666454831E-02  0.91376207037E-02  0.24886571008E-01  0.27954515392E-01  0.00000000000E+00 0.  1.
     999901    1    3    3    0    0 -0.69470044280E-01 -0.62993738923E-01 -0.11560678431E+00  0.89250166766E+00  0.88000000000E+00 0.  1.
        -11    1    4    4    0    0  0.15652956780E-01  0.22655253914E-01  0.19911141850E-01  0.33985147883E-01  0.51100000000E-03 0. -1.
         11    1    4    4    0    0  0.44950442017E-01  0.31200864305E-01  0.70809071448E-01  0.89488669067E-01  0.51100000000E-03 0.  1.
</event>
<event>
 8    1  0.1114447E+005  0.1043930E+01  0.7957747E-01            NaN
         13   -1    0    0    0    0  0.00000000000E+00  0.00000000000E+00  0.74505805969E-08  0.10566000000E+00  0.10566000000E+00 0.  1.
     999900   -1    0    0    0    0 -0.00000000000E+00 -0.00000000000E+00 -0.74505805969E-08  0.93827000000E+00  0.93827000000E+00 0. -1.
     999902    2    1    2    0    0  0.92402512797E-03 -0.21684866407E-01  0.16900407894E-01  0.10164216187E+01  0.10160493078E+01 0.  0.
     999903    2    3    3    0    0  0.28969363334E-01 -0.86888604793E-01 -0.86606513635E-01  0.12751681431E+00  0.19261258377E-01 0.  0.
         14    1    1    2    0    0 -0.92402512797E-03  0.21684866407E-01 -0.16900407894E-01  0.27508381278E-01  0.00000000000E+00 0. -1.
     999901    1    3    3    0    0 -0.28045338206E-01  0.65203738385E-01  0.10350692153E+00  0.88890480441E+00  0.88000000000E+00 0.  1.
        -11    1    4    4    0    0  0.97831017913E-02 -0.57669750624E-01 -0.57543794869E-01  0.82055217180E-01  0.51100000000E-03 0. -1.
         11    1    4    4    0    0  0.19186261543E-01 -0.29218854169E-01 -0.29062718766E-01  0.45461597134E-01  0.51100000000E-03 0.  1.
</event>
<event>
 8    1  0.1114447E+005  0.1043930E+01  0.7957747E-01            NaN
         13   -1    0    0    0    0  0.00000000000E+00  0.00000000000E+00  0.74505805969E-08  0.10566000000E+00  0.10566000000E+00 0.  1.
     999900   -1    0    0    0    0 -0.00000000000E+00 -0.00000000000E+00 -0.74505805969E-08  0.93827000000E+00  0.93827000000E+00 0.  1.
     999902    2    1    2    0    0 -0.23336068269E-01  0.10225913850E-02  0.77713337889E-02  0.10193127011E+01  0.10190153930E+01 0.  0.
     999903    2    3    3    0    0 -0.46104018007E-01  0.40484593900E-01  0.11460677068E+00  0.13168133633E+00  0.20992370801E-01 0.  0.
         14    1    1    2    0    0  0.23336068269E-01 -0.10225913850E-02 -0.77713337889E-02  0.24617298882E-01  0.00000000000E+00 0. -1.
     999901    1    3    3    0    0  0.22767949738E-01 -0.39462002515E-01 -0.10683543689E+00  0.88763136479E+00  0.88000000000E+00 0.  1.
        -11    1    4    4    0    0 -0.36482232666E-01  0.40821259150E-01  0.10248645236E+00  0.11619407273E+00  0.51100000000E-03 0. -1.
         11    1    4    4    0    0 -0.96217853411E-02 -0.33666524982E-03  0.12120318322E-01  0.15487263602E-01  0.51100000000E-03 0.  1.
</event>
<event>
 8    1  0.1114447E+005  0.1043930E+01  0.7957747E-01            NaN
         13   -1    0    0    0    0  0.00000000000E+00  0.00000000000E+00  0.74505805969E-08  0.10566000000E+00  0.10566000000E+00 0. -1.
     999900   -1    0    0    0    0 -0.00000000000E+00 -0.00000000000E+00 -0.74505805969E-08  0.93827000000E+00  0.93827000000E+00 0. -1.
     999902    2    1    2    0    0  0.54543067419E-02 -0.14399455583E-01 -0.16381008637E-01  0.10214482023E+01  0.10212007632E+01 0.  0.
     999903    2    3    3    0    0  0.12990373101E+00  0.83027555786E-03 -0.16458210203E-01  0.13256147732E+00  0.20639861887E-01 0.  0.
         14    1    1    2    0    0 -0.54543067419E-02  0.14399455583E-01  0.16381008637E-01  0.22481797684E-01  0.00000000000E+00 0. -1.
     999901    1    3    3    0    0 -0.12444942427E+00 -0.15229731141E-01  0.77201566209E-04  0.88888672499E+00  0.88000000000E+00 0. -1.
        -11    1    4    4    0    0  0.76630501642E-01 -0.30409777975E-02 -0.19253065617E-01  0.79072264319E-01  0.51100000000E-03 0.  1.
         11    1    4    4    0    0  0.53273229369E-01  0.38712533554E-02  0.27948554139E-02  0.53489213003E-01  0.51100000000E-03 0. -1.
</event>
<event>
 8    1  0.1114447E+005  0.1043930E+01  0.7957747E-01            NaN
         13   -1    0    0    0    0  0.00000000000E+00  0.00000000000E+00  0.74505805969E-08  0.10566000000E+00  0.10566000000E+00 0. -1.
     999900   -1    0    0    0    0 -0.00000000000E+00 -0.00000000000E+00 -0.74505805969E-08  0.93827000000E+00  0.93827000000E+00 0. -1.
     999902    2    1    2    0    0  0.57362500865E-02 -0.31903834024E-02 -0.22335343024E-01  0.10206501663E+01  0.10203846389E+01 0.  0.
     999903    2    3    3    0    0  0.55522043493E-01 -0.45729761471E-01  0.10520030859E+00  0.12904848033E+00  0.20310020913E-01 0.  0.
         14    1    1    2    0    0 -0.57362500865E-02  0.31903834024E-02  0.22335343024E-01  0.23279833747E-01  0.00000000000E+00 0. -1.
     999901    1    3    3    0    0 -0.49785793406E-01  0.42539378068E-01 -0.12753565161E+00  0.89160168593E+00  0.88000000000E+00 0. -1.
        -11    1    4    4    0    0  0.32403385119E-02 -0.64719618277E-03  0.15504656872E-01  0.15861089568E-01  0.51100000000E-03 0. -1.
         11    1    4    4    0    0  0.52281704981E-01 -0.45082565288E-01  0.89695651719E-01  0.11318739076E+00  0.51100000000E-03 0.  1.
</event>
<event>
 8    1  0.1114447E+005  0.1043930E+01  0.7957747E-01            NaN
         13   -1    0    0    0    0  0.00000000000E+00  0.00000000000E+00  0.74505805969E-08  0.10566000000E+00  0.10566000000E+00 0.  1.
     999900   -1    0    0    0    0 -0.00000000000E+00 -0.00000000000E+00 -0.74505805969E-08  0.93827000000E+00  0.93827000000E+00 0.  1.
     999902    2    1    2    0    0 -0.10832884028E-01 -0.20420229032E-01  0.31402835620E-02  0.10206019373E+01  0.10203352958E+01 0.  0.
     999903    2    3    3    0    0 -0.10676659989E+00 -0.28493017703E-01 -0.67137620612E-01  0.13256622201E+00  0.29246952078E-01 0.  0.
         14    1    1    2    0    0  0.10832884028E-01  0.20420229032E-01 -0.31402835620E-02  0.23328062735E-01  0.00000000000E+00 0. -1.
     999901    1    3    3    0    0  0.95933715864E-01  0.80727886709E-02  0.70277904174E-01  0.88803571526E+00  0.88000000000E+00 0. -1.
        -11    1    4    4    0    0 -0.61165773722E-01 -0.20016424326E-01 -0.54900146758E-01  0.84594304494E-01  0.51100000000E-03 0.  1.
         11    1    4    4    0    0 -0.45600826171E-01 -0.84765933775E-02 -0.12237473854E-01  0.47971917515E-01  0.51100000000E-03 0. -1.
</event>
<event>
 8    1  0.1114447E+005  0.1043930E+01  0.7957747E-01            NaN
         13   -1    0    0    0    0  0.00000000000E+00  0.00000000000E+00  0.74505805969E-08  0.10566000000E+00  0.10566000000E+00 0. -1.
     999900   -1    0    0    0    0 -0.00000000000E+00 -0.00000000000E+00 -0.74505805969E-08  0.93827000000E+00  0.93827000000E+00 0. -1.
     999902    2    1    2    0    0  0.17468682360E-01  0.33226765013E-02 -0.10050761103E-01  0.10235042114E+01  0.10233003752E+01 0.  0.
     999903    2    3    3    0    0  0.99590144110E-01  0.78975690118E-01 -0.43210134316E-01  0.13582923877E+00  0.20666638888E-01 0.  0.
         14    1    1    2    0    0 -0.17468682360E-01 -0.33226765013E-02  0.10050761103E-01  0.20425788633E-01  0.00000000000E+00 0. -1.
     999901    1    3    3    0    0 -0.82121461750E-01 -0.75653013617E-01  0.33159373213E-01  0.88767497260E+00  0.88000000000E+00 0.  1.
        -11    1    4    4    0    0  0.33203039547E-01  0.15077513937E-01 -0.15322449686E-01  0.39557702752E-01  0.51100000000E-03 0. -1.
         11    1    4    4    0    0  0.66387104563E-01  0.63898176182E-01 -0.27887684630E-01  0.96271536015E-01  0.51100000000E-03 0.  1.
</event>
<event>
 8    1  0.1114447E+005  0.1043930E+01  0.7957747E-01            NaN
         13   -1    0    0    0    0  0.00000000000E+00  0.00000000000E+00  0.74505805969E-08  0.10566000000E+00  0.10566000000E+00 0. -1.
     999900   -1    0    0    0    0 -0.00000000000E+00 -0.00000000000E+00 -0.74505805969E-08  0.93827000000E+00  0.93827000000E+00 0. -1.
     999902    2    1    2    0    0  0.21396499353E-01 -0.65957096593E-02  0.74418125315E-02  0.10203356332E+01  0.10200627972E+01 0.  0.
     999903    2    3    3    0    0  0.30833037938E-01  0.34509606879E-01  0.12184154672E+00  0.13192919779E+00  0.20453887820E-01 0.  0.
         14    1    1    2    0    0 -0.21396499353E-01  0.65957096593E-02 -0.74418125315E-02  0.23594366790E-01  0.00000000000E+00 0.  1.
     999901    1    3    3    0    0 -0.94365385853E-02 -0.41105316539E-01 -0.11439973419E+00  0.88840643542E+00  0.88000000000E+00 0. -1.
        -11    1    4    4    0    0  0.14278503780E-01  0.26989391043E-01  0.58016766809E-01  0.65563017404E-01  0.51100000000E-03 0. -1.
         11    1    4    4    0    0  0.16554534158E-01  0.75202158360E-02  0.63824779913E-01  0.66366180389E-01  0.51100000000E-03 0.  1.
</event>
<event>
 7    1  0.1114447E+005  0.1043930E+01  0.7957747E-01            NaN
         13   -1    0    0    0    0  0.00000000000E+00  0.00000000000E+00  0.74505805969E-08  0.10566000000E+00  0.10566000000E+00 0.  1.
     999900   -1    0    0    0    0 -0.00000000000E+00 -0.00000000000E+00 -0.74505805969E-08  0.93827000000E+00  0.93827000000E+00 0.  1.
     999903    2    1    2    0    0 -0.72928595991E-01  0.29450362595E-01 -0.33811611293E-01  0.87785210180E-01  0.19419425789E-01 0.  0.
         14    1    1    2    0    0  0.31878798279E-01 -0.18955764390E-02  0.66905106680E-01  0.74135985119E-01  0.00000000000E+00 0.  1.
     999901    1    1    2    0    0  0.41049797712E-01 -0.27554786156E-01 -0.33093495387E-01  0.88200880470E+00  0.88000000000E+00 0.  1.
        -11    1    3    3    0    0 -0.25357798192E-01  0.17636294166E-01 -0.61427519578E-02  0.31496846250E-01  0.51100000000E-03 0. -1.
         11    1    3    3    0    0 -0.47570797799E-01  0.11814068429E-01 -0.27668859335E-01  0.56288363931E-01  0.51100000000E-03 0.  1.
</event>
<event>
 8    1  0.1114447E+005  0.1043930E+01  0.7957747E-01            NaN
         13   -1    0    0    0    0  0.00000000000E+00  0.00000000000E+00  0.74505805969E-08  0.10566000000E+00  0.10566000000E+00 0. -1.
     999900   -1    0    0    0    0 -0.00000000000E+00 -0.00000000000E+00 -0.74505805969E-08  0.93827000000E+00  0.93827000000E+00 0.  1.
     999902    2    1    2    0    0  0.17279382285E-01 -0.12173072046E-01  0.10853258110E-01  0.10201696560E+01  0.10198929224E+01 0.  0.
     999903    2    3    3    0    0  0.53295439509E-01  0.10401119710E-01 -0.11629632805E+00  0.13001586717E+00  0.20753376446E-01 0.  0.
         14    1    1    2    0    0 -0.17279382285E-01  0.12173072046E-01 -0.10853258110E-01  0.23760343995E-01  0.00000000000E+00 0. -1.
     999901    1    3    3    0    0 -0.36016057224E-01 -0.22574191756E-01  0.12714958616E+00  0.89015378883E+00  0.88000000000E+00 0. -1.
        -11    1    4    4    0    0  0.38847993148E-01 -0.19431803154E-02 -0.83300908660E-01  0.91936092074E-01  0.51100000000E-03 0. -1.
         11    1    4    4    0    0  0.14447446361E-01  0.12344300026E-01 -0.32995419395E-01  0.38079775098E-01  0.51100000000E-03 0.  1.
</event>
<event>
 8    1  0.1114447E+005  0.1043930E+01  0.7957747E-01            NaN
         13   -1    0    0    0    0  0.00000000000E+00  0.00000000000E+00  0.74505805969E-08  0.10566000000E+00  0.10566000000E+00 0.  1.
     999900   -1    0    0    0    0 -0.00000000000E+00 -0.00000000000E+00 -0.74505805969E-08  0.93827000000E+00  0.93827000000E+00 0.  1.
     999902    2    1    2    0    0 -0.22079189203E-01  0.45091440515E-02  0.85026508757E-02  0.10198443601E+01  0.10195599055E+01 0.  0.
     999903    2    3    3    0    0 -0.21124589381E-01 -0.12173977563E+00 -0.34375335171E-01  0.12980041590E+00  0.19991574546E-01 0.  0.
         14    1    1    2    0    0  0.22079189203E-01 -0.45091440515E-02 -0.85026508757E-02  0.24085639868E-01  0.00000000000E+00 0. -1.
     999901    1    3    3    0    0 -0.95459982154E-03  0.12624891968E+00  0.42877986047E-01  0.89004394423E+00  0.88000000000E+00 0.  1.
        -11    1    4    4    0    0 -0.60392067498E-02 -0.23552494412E-01 -0.15042613853E-01  0.28596037553E-01  0.51100000000E-03 0.  1.
         11    1    4    4    0    0 -0.15085382632E-01 -0.98187281216E-01 -0.19332721318E-01  0.10120437835E+00  0.51100000000E-03 0. -1.
</event>
<event>
 8    1  0.1114447E+005  0.1043930E+01  0.7957747E-01            NaN
         13   -1    0    0    0    0  0.00000000000E+00  0.00000000000E+00  0.74505805969E-08  0.10566000000E+00  0.10566000000E+00 0.  1.
     999900   -1    0    0    0    0 -0.00000000000E+00 -0.00000000000E+00 -0.74505805969E-08  0.93827000000E+00  0.93827000000E+00 0.  1.
     999902    2    1    2    0    0 -0.23088339882E-01  0.13079162010E-01  0.38790167071E-02  0.10171124183E+01  0.10167588154E+01 0.  0.
     999903    2    3    3    0    0 -0.77026030581E-01  0.87819094098E-02  0.10235053289E+00  0.12996847262E+00  0.20150458406E-01 0.  0.
         14    1    1    2    0    0  0.23088339882E-01 -0.13079162010E-01 -0.38790167071E-02  0.26817581696E-01  0.00000000000E+00 0. -1.
     999901    1    3    3    0    0  0.53937690698E-01  0.42972526003E-02 -0.98471516180E-01  0.88714394568E+00  0.88000000000E+00 0.  1.
        -11    1    4    4    0    0 -0.29725565051E-01  0.69046866791E-02  0.55648278883E-01  0.63468700785E-01  0.51100000000E-03 0. -1.
         11    1    4    4    0    0 -0.47300465529E-01  0.18772227306E-02  0.46702254005E-01  0.66499771839E-01  0.51100000000E-03 0.  1.
</event>
<event>
 8    1  0.1114447E+005  0.1043930E+01  0.7957747E-01            NaN
         13   -1    0    0    0    0  0.00000000000E+00  0.00000000000E+00  0.74505805969E-08  0.10566000000E+00  0.10566000000E+00 0.  1.
     999900   -1    0    0    0    0 -0.00000000000E+00 -0.00000000000E+00 -0.74505805969E-08  0.93827000000E+00  0.93827000000E+00 0. -1.
     999902    2    1    2    0    0 -0.27382548060E-02 -0.16924734572E-01  0.15185926157E-01  0.10210267899E+01  0.10207698804E+01 0.  0.
     999903    2    3    3    0    0  0.28595511121E-01  0.99797674015E-01  0.76781104487E-01  0.13063367922E+00  0.19812651125E-01 0.  0.
         14    1    1    2    0    0  0.27382548060E-02  0.16924734572E-01 -0.15185926157E-01  0.22903210102E-01  0.00000000000E+00 0. -1.
     999901    1    3    3    0    0 -0.31333765927E-01 -0.11672240859E+00 -0.61595178330E-01  0.89039311068E+00  0.88000000000E+00 0. -1.
        -11    1    4    4    0    0  0.16550353946E-01  0.80348185541E-01  0.66234431103E-01  0.10543721411E+00  0.51100000000E-03 0.  1.
         11    1    4    4    0    0  0.12045157175E-01  0.19449488474E-01  0.10546673384E-01  0.25196465104E-01  0.51100000000E-03 0. -1.
</event>
<event>
 8    1  0.1114447E+005  0.1043930E+01  0.7957747E-01            NaN
         13   -1    0    0    0    0  0.00000000000E+00  0.00000000000E+00  0.74505805969E-08  0.10566000000E+00  0.10566000000E+00 0.  1.
     999900   -1    0    0    0    0 -0.00000000000E+00 -0.00000000000E+00 -0.74505805969E-08  0.93827000000E+00  0.93827000000E+00 0.  1.
     999902    2    1    2    0    0 -0.20142666351E-01  0.28223699865E-03  0.11383732998E-01  0.10207913734E+01  0.10205290941E+01 0.  0.
     999903    2    3    3    0    0  0.54559517854E-01  0.99855771829E-01 -0.57341410890E-01  0.12937763634E+00  0.22419170932E-01 0.  0.
         14    1    1    2    0    0  0.20142666351E-01 -0.28223699865E-03 -0.11383732998E-01  0.23138626632E-01  0.00000000000E+00 0. -1.
     999901    1    3    3    0    0 -0.74702184206E-01 -0.99573534831E-01  0.68725143888E-01  0.89141373703E+00  0.88000000000E+00 0. -1.
        -11    1    4    4    0    0  0.17463362361E-01  0.21489951727E-01 -0.51295989905E-02  0.28166663931E-01  0.51100000000E-03 0.  1.
         11    1    4    4    0    0  0.37096155493E-01  0.78365820103E-01 -0.52211811899E-01  0.10121097241E+00  0.51100000000E-03 0. -1.
</event>
<event>
 8    1  0.1114447E+005  0.1043930E+01  0.7957747E-01            NaN
         13   -1    0    0    0    0  0.00000000000E+00  0.00000000000E+00  0.74505805969E-08  0.10566000000E+00  0.10566000000E+00 0. -1.
     999900   -1    0    0    0    0 -0.00000000000E+00 -0.00000000000E+00 -0.74505805969E-08  0.93827000000E+00  0.93827000000E+00 0.  1.
     999902    2    1    2    0    0  0.12742916736E-01  0.18713179142E-01 -0.51814445493E-02  0.10207047472E+01  0.10204404777E+01 0.  0.
     999903    2    3    3    0    0 -0.31551953900E-01 -0.83403422129E-01 -0.91650029711E-01  0.12948835818E+00  0.20392408882E-01 0.  0.
         14    1    1    2    0    0 -0.12742916736E-01 -0.18713179142E-01  0.51814445493E-02  0.23225252811E-01  0.00000000000E+00 0.  1.
     999901    1    3    3    0    0  0.44294870636E-01  0.10211660127E+00  0.86468585162E-01  0.89121638901E+00  0.88000000000E+00 0. -1.
        -11    1    4    4    0    0  0.29162947860E-02 -0.89141218872E-02 -0.91503543763E-02  0.13113216635E-01  0.51100000000E-03 0. -1.
         11    1    4    4    0    0 -0.34468248686E-01 -0.74489300242E-01 -0.82499675335E-01  0.11637514154E+00  0.51100000000E-03 0.  1.
</event>
<event>
 8    1  0.1114447E+005  0.1043930E+01  0.7957747E-01            NaN
         13   -1    0    0    0    0  0.00000000000E+00  0.00000000000E+00  0.74505805969E-08  0.10566000000E+00  0.10566000000E+00 0.  1.
     999900   -1    0    0    0    0 -0.00000000000E+00 -0.00000000000E+00 -0.74505805969E-08  0.93827000000E+00  0.93827000000E+00 0. -1.
     999902    2    1    2    0    0  0.12059396034E-01 -0.87782826492E-02 -0.18056797425E-01  0.10205091714E+01  0.10202403804E+01 0.  0.
     999903    2    3    3    0    0  0.86938797041E-01  0.95273599016E-01 -0.11172901176E-01  0.13119420650E+00  0.21252599790E-01 0.  0.
         14    1    1    2    0    0 -0.12059396034E-01  0.87782826492E-02  0.18056797425E-01  0.23420828598E-01  0.00000000000E+00 0.  1.
     999901    1    3    3    0    0 -0.74879401007E-01 -0.10405188166E+00 -0.68838962493E-02  0.88931496490E+00  0.88000000000E+00 0.  1.
        -11    1    4    4    0    0  0.13005436904E-01  0.12690282995E-01  0.57496753796E-02  0.19065795538E-01  0.51100000000E-03 0.  1.
         11    1    4    4    0    0  0.73933360137E-01  0.82583316021E-01 -0.16922576556E-01  0.11212841096E+00  0.51100000000E-03 0. -1.
</event>
<event>
 8    1  0.1114447E+005  0.1043930E+01  0.7957747E-01            NaN
         13   -1    0    0    0    0  0.00000000000E+00  0.00000000000E+00  0.74505805969E-08  0.10566000000E+00  0.10566000000E+00 0. -1.
     999900   -1    0    0    0    0 -0.00000000000E+00 -0.00000000000E+00 -0.74505805969E-08  0.93827000000E+00  0.93827000000E+00 0.  1.
     999902    2    1    2    0    0  0.11777795799E-01 -0.19541663985E-01 -0.26650993579E-02  0.10209583684E+01  0.10206999040E+01 0.  0.
     999903    2    3    3    0    0  0.82875394109E-01  0.91739211991E-01 -0.36493117974E-01  0.13046264312E+00  0.20108197952E-01 0.  0.
         14    1    1    2    0    0 -0.11777795799E-01  0.19541663985E-01  0.26650993579E-02  0.22971631631E-01  0.00000000000E+00 0. -1.
     999901    1    3    3    0    0 -0.71097598310E-01 -0.11128087598E+00  0.33828018616E-01  0.89049572525E+00  0.88000000000E+00 0. -1.
        -11    1    4    4    0    0  0.34503678700E-01  0.24636529034E-01 -0.15231027262E-01  0.45052277624E-01  0.51100000000E-03 0. -1.
         11    1    4    4    0    0  0.48371715409E-01  0.67102682957E-01 -0.21262090712E-01  0.85410365496E-01  0.51100000000E-03 0.  1.
</event>
<event>
 8    1  0.1114447E+005  0.1043930E+01  0.7957747E-01            NaN
         13   -1    0    0    0    0  0.00000000000E+00  0.00000000000E+00  0.74505805969E-08  0.10566000000E+00  0.10566000000E+00 0.  1.
     999900   -1    0    0    0    0 -0.00000000000E+00 -0.00000000000E+00 -0.74505805969E-08  0.93827000000E+00  0.93827000000E+00 0.  1.
     999902    2    1    2    0    0  0.19953132054E-01  0.13061018532E-02  0.13599756624E-01  0.10197476353E+01  0.10194608639E+01 0.  0.
     999903    2    3    3    0    0  0.11631901615E+00 -0.13717438700E-01  0.60456596192E-01  0.13312051314E+00  0.18649111297E-01 0.  0.
         14    1    1    2    0    0 -0.19953132054E-01 -0.13061018532E-02 -0.13599756624E-01  0.24182364670E-01  0.00000000000E+00 0. -1.
     999901    1    3    3    0    0 -0.96365884099E-01  0.15023540553E-01 -0.46856839569E-01  0.88662712219E+00  0.88000000000E+00 0. -1.
        -11    1    4    4    0    0  0.33156640957E-01  0.42838453232E-02  0.14948684004E-01  0.36625652824E-01  0.51100000000E-03 0.  1.
         11    1    4    4    0    0  0.83162375196E-01 -0.18001284023E-01  0.45507912188E-01  0.96494860316E-01  0.51100000000E-03 0. -1.
</event>
<event>
 8    1  0.1114447E+005  0.1043930E+01  0.7957747E-01            NaN
         13   -1    0    0    0    0  0.00000000000E+00  0.00000000000E+00  0.74505805969E-08  0.10566000000E+00  0.10566000000E+00 0.  1.
     999900   -1    0    0    0    0 -0.00000000000E+00 -0.00000000000E+00 -0.74505805969E-08  0.93827000000E+00  0.93827000000E+00 0. -1.
     999902    2    1    2    0    0  0.23149700847E-02  0.91985617875E-02 -0.21373454815E-01  0.10205463049E+01  0.10202783754E+01 0.  0.
     999903    2    3    3    0    0 -0.11289624452E+00  0.37553884246E-01  0.47952366514E-01  0.12988154318E+00  0.20345258809E-01 0.  0.
         14    1    1    2    0    0 -0.23149700847E-02 -0.91985617875E-02  0.21373454815E-01  0.23383695092E-01  0.00000000000E+00 0.  1.
     999901    1    3    3    0    0  0.11521121460E+00 -0.28355322459E-01 -0.69325821328E-01  0.89066476173E+00  0.88000000000E+00 0. -1.
        -11    1    4    4    0    0 -0.76609200119E-01  0.21751142953E-01  0.22256753279E-01  0.82690422360E-01  0.51100000000E-03 0.  1.
         11    1    4    4    0    0 -0.36287044400E-01  0.15802741293E-01  0.25695613234E-01  0.47191120819E-01  0.51100000000E-03 0. -1.
</event>
<event>
 8    1  0.1114447E+005  0.1043930E+01  0.7957747E-01            NaN
         13   -1    0    0    0    0  0.00000000000E+00  0.00000000000E+00  0.74505805969E-08  0.10566000000E+00  0.10566000000E+00 0. -1.
     999900   -1    0    0    0    0 -0.00000000000E+00 -0.00000000000E+00 -0.74505805969E-08  0.93827000000E+00  0.93827000000E+00 0. -1.
     999902    2    1    2    0    0 -0.16605570985E-01  0.15984907724E-01  0.26267345158E-02  0.10207316812E+01  0.10204680313E+01 0.  0.
     999903    2    3    3    0    0  0.70416800556E-01 -0.10049298960E+00 -0.25485932648E-01  0.12835826394E+00  0.27729846706E-01 0.  0.
         14    1    1    2    0    0  0.16605570985E-01 -0.15984907724E-01 -0.26267345158E-02  0.23198318838E-01  0.00000000000E+00 0.  1.
     999901    1    3    3    0    0 -0.87022371540E-01  0.11647789733E+00  0.28112667164E-01  0.89237341722E+00  0.88000000000E+00 0. -1.
        -11    1    4    4    0    0  0.23708171074E-01 -0.27499888313E-01  0.46480630852E-02  0.36608562446E-01  0.51100000000E-03 0. -1.
         11    1    4    4    0    0  0.46708629481E-01 -0.72993101290E-01 -0.30133995733E-01  0.91749701492E-01  0.51100000000E-03 0.  1.
</event>
<event>
 8    1  0.1114447E+005  0.1043930E+01  0.7957747E-01            NaN
         13   -1    0    0    0    0  0.00000000000E+00  0.00000000000E+00  0.74505805969E-08  0.10566000000E+00  0.10566000000E+00 0.  1.
     999900   -1    0    0    0    0 -0.00000000000E+00 -0.00000000000E+00 -0.74505805969E-08  0.93827000000E+00  0.93827000000E+00 0. -1.
     999902    2    1    2    0    0  0.52745430024E-02  0.23150330704E-01 -0.14996819947E-02  0.10201390845E+01  0.10198616298E+01 0.  0.
     999903    2    3    3    0    0 -0.60222025476E-01  0.10926872936E-02  0.11344719456E+00  0.12997666977E+00  0.19894280907E-01 0.  0.
         14    1    1    2    0    0 -0.52745430024E-02 -0.23150330704E-01  0.14996819947E-02  0.23790915529E-01  0.00000000000E+00 0. -1.
     999901    1    3    3    0    0  0.65496568478E-01  0.22057643411E-01 -0.11494687656E+00  0.89016241470E+00  0.88000000000E+00 0. -1.
        -11    1    4    4    0    0 -0.28836815823E-01 -0.60836283888E-02  0.39179334096E-01  0.49029111989E-01  0.51100000000E-03 0. -1.
         11    1    4    4    0    0 -0.31385209653E-01  0.71763156825E-02  0.74267860466E-01  0.80947557782E-01  0.51100000000E-03 0.  1.
</event>
<event>
 8    1  0.1114447E+005  0.1043930E+01  0.7957747E-01            NaN
         13   -1    0    0    0    0  0.00000000000E+00  0.00000000000E+00  0.74505805969E-08  0.10566000000E+00  0.10566000000E+00 0.  1.
     999900   -1    0    0    0    0 -0.00000000000E+00 -0.00000000000E+00 -0.74505805969E-08  0.93827000000E+00  0.93827000000E+00 0.  1.
     999902    2    1    2    0    0  0.82671184461E-02 -0.20167685113E-01 -0.69655077601E-02  0.10210477128E+01  0.10207912777E+01 0.  0.
     999903    2    3    3    0    0  0.88493559284E-01  0.11276821884E-02  0.94864222671E-01  0.13129546160E+00  0.20171658120E-01 0.  0.
         14    1    1    2    0    0 -0.82671184461E-02  0.20167685113E-01  0.69655077601E-02  0.22882287224E-01  0.00000000000E+00 0. -1.
     999901    1    3    3    0    0 -0.80226440838E-01 -0.21295367302E-01 -0.10182973043E+00  0.88975225118E+00  0.88000000000E+00 0.  1.
        -11    1    4    4    0    0  0.16962620728E-01  0.47802936309E-02  0.29284559127E-01  0.34182279524E-01  0.51100000000E-03 0.  1.
         11    1    4    4    0    0  0.71530938556E-01 -0.36526114425E-02  0.65579663544E-01  0.97113182074E-01  0.51100000000E-03 0. -1.
</event>
<event>
 8    1  0.1114447E+005  0.1043930E+01  0.7957747E-01            NaN
         13   -1    0    0    0    0  0.00000000000E+00  0.00000000000E+00  0.74505805969E-08  0.10566000000E+00  0.10566000000E+00 0.  1.
     999900   -1    0    0    0    0 -0.00000000000E+00 -0.00000000000E+00 -0.74505805969E-08  0.93827000000E+00  0.93827000000E+00 0. -1.
     999902    2    1    2    0    0 -0.87851262761E-02  0.40120216351E-02 -0.14145962028E-01  0.10268015732E+01  0.10266587007E+01 0.  0.
     999903    2    3    3    0    0 -0.31449348148E-01  0.49801349166E-01 -0.12367167910E+00  0.13854135678E+00  0.20731315668E-01 0.  0.
         14    1    1    2    0    0  0.87851262761E-02 -0.40120216351E-02  0.14145962028E-01  0.17128426751E-01  0.00000000000E+00 0.  1.
     999901    1    3    3    0    0  0.22664221872E-01 -0.45789327531E-01  0.10952571707E+00  0.88826021647E+00  0.88000000000E+00 0. -1.
        -11    1    4    4    0    0 -0.22148476881E-01  0.47008833159E-01 -0.95284094082E-01  0.10853435000E+00  0.51100000000E-03 0. -1.
         11    1    4    4    0    0 -0.93008712676E-02  0.27925160078E-02 -0.28387585014E-01  0.30007006780E-01  0.51100000000E-03 0.  1.
</event>
<event>
 8    1  0.1114447E+005  0.1043930E+01  0.7957747E-01            NaN
         13   -1    0    0    0    0  0.00000000000E+00  0.00000000000E+00  0.74505805969E-08  0.10566000000E+00  0.10566000000E+00 0.  1.
     999900   -1    0    0    0    0 -0.00000000000E+00 -0.00000000000E+00 -0.74505805969E-08  0.93827000000E+00  0.93827000000E+00 0.  1.
     999902    2    1    2    0    0  0.30732250032E-02 -0.92954988560E-03  0.24186972763E-01  0.10195308519E+01  0.10192388531E+01 0.  0.
     999903    2    3    3    0    0 -0.60284952866E-01  0.11298231093E+00  0.40193569049E-04  0.12960206957E+00  0.19935312785E-01 0.  0.
         14    1    1    2    0    0 -0.30732250032E-02  0.92954988560E-03 -0.24186972763E-01  0.24399148066E-01  0.00000000000E+00 0. -1.
     999901    1    3    3    0    0  0.63358177870E-01 -0.11391186082E+00  0.24146779194E-01  0.88992878237E+00  0.88000000000E+00 0. -1.
        -11    1    4    4    0    0 -0.38683234458E-01  0.51811736210E-01 -0.20446153014E-02  0.64693818947E-01  0.51100000000E-03 0. -1.
         11    1    4    4    0    0 -0.21601718408E-01  0.61170574719E-01  0.20848088705E-02  0.64908250621E-01  0.51100000000E-03 0.  1.
</event>
<event>
 8    1  0.1114447E+005  0.1043930E+01  0.7957747E-01            NaN
         13   -1    0    0    0    0  0.00000000000E+00  0.00000000000E+00  0.74505805969E-08  0.10566000000E+00  0.10566000000E+00 0. -1.
     999900   -1    0    0    0    0 -0.00000000000E+00 -0.00000000000E+00 -0.74505805969E-08  0.93827000000E+00  0.93827000000E+00 0. -1.
     999902    2    1    2    0    0 -0.37990745095E-02 -0.13787743077E-01  0.18692535018E-01  0.10203939491E+01  0.10201224758E+01 0.  0.
     999903    2    3    3    0    0 -0.11463473704E+00 -0.57865708649E-01 -0.19970723503E-01  0.13150573414E+00  0.20133681754E-01 0.  0.
         14    1    1    2    0    0  0.37990745095E-02  0.13787743077E-01 -0.18692535018E-01  0.23536050894E-01  0.00000000000E+00 0.  1.
     999901    1    3    3    0    0  0.11083566253E+00  0.44077965572E-01  0.38663258521E-01  0.88888821496E+00  0.88000000000E+00 0.  1.
        -11    1    4    4    0    0 -0.52570937594E-01 -0.36900983106E-01 -0.59080725145E-02  0.64502344729E-01  0.51100000000E-03 0.  1.
         11    1    4    4    0    0 -0.62063799451E-01 -0.20964725542E-01 -0.14062650989E-01  0.67003389416E-01  0.51100000000E-03 0. -1.
</event>
<event>
 8    1  0.1114447E+005  0.1043930E+01  0.7957747E-01            NaN
         13   -1    0    0    0    0  0.00000000000E+00  0.00000000000E+00  0.74505805969E-08  0.10566000000E+00  0.10566000000E+00 0.  1.
     999900   -1    0    0    0    0 -0.00000000000E+00 -0.00000000000E+00 -0.74505805969E-08  0.93827000000E+00  0.93827000000E+00 0.  1.
     999902    2    1    2    0    0 -0.32874110545E-02 -0.76277252624E-02  0.22494707951E-01  0.10199508184E+01  0.10196689025E+01 0.  0.
     999903    2    3    3    0    0  0.56324182028E-01  0.85954041740E-01  0.79070274176E-01  0.13118094727E+00  0.19895273203E-01 0.  0.
         14    1    1    2    0    0  0.32874110545E-02  0.76277252624E-02 -0.22494707951E-01  0.23979181594E-01  0.00000000000E+00 0. -1.
     999901    1    3    3    0    0 -0.59611593082E-01 -0.93581767002E-01 -0.56575566225E-01  0.88876987114E+00  0.88000000000E+00 0. -1.
        -11    1    4    4    0    0  0.16445792011E-01  0.11165688173E-01  0.13800564156E-01  0.24204407848E-01  0.51100000000E-03 0.  1.
         11    1    4    4    0    0  0.39878390017E-01  0.74788353567E-01  0.65269710020E-01  0.10697653942E+00  0.51100000000E-03 0. -1.
</event>
<event>
 8    1  0.1114447E+005  0.1043930E+01  0.7957747E-01            NaN
         13   -1    0    0    0    0  0.00000000000E+00  0.00000000000E+00  0.74505805969E-08  0.10566000000E+00  0.10566000000E+00 0. -1.
     999900   -1    0    0    0    0 -0.00000000000E+00 -0.00000000000E+00 -0.74505805969E-08  0.93827000000E+00  0.93827000000E+00 0. -1.
     999902    2    1    2    0    0 -0.47193992052E-02  0.15347123999E-01  0.10825459100E-01  0.10245651476E+01  0.10243821280E+01 0.  0.
     999903    2    3    3    0    0  0.18488618034E-01  0.12500107507E+00  0.48129948119E-01  0.13667200878E+00  0.19890910322E-01 0.  0.
         14    1    1    2    0    0  0.47193992052E-02 -0.15347123999E-01 -0.10825459100E-01  0.19364852404E-01  0.00000000000E+00 0.  1.
     999901    1    3    3    0    0 -0.23208017239E-01 -0.10965395107E+00 -0.37304489019E-01  0.88789313881E+00  0.88000000000E+00 0. -1.
        -11    1    4    4    0    0  0.17335406656E-01  0.67794213210E-01  0.19253143550E-01  0.72577657211E-01  0.51100000000E-03 0.  1.
         11    1    4    4    0    0  0.11532113781E-02  0.57206861860E-01  0.28876804569E-01  0.64094351572E-01  0.51100000000E-03 0. -1.
</event>
<event>
 8    1  0.1114447E+005  0.1043930E+01  0.7957747E-01            NaN
         13   -1    0    0    0    0  0.00000000000E+00  0.00000000000E+00  0.74505805969E-08  0.10566000000E+00  0.10566000000E+00 0. -1.
     999900   -1    0    0    0    0 -0.00000000000E+00 -0.00000000000E+00 -0.74505805969E-08  0.93827000000E+00  0.93827000000E+00 0.  1.
     999902    2    1    2    0    0  0.10272901927E-01  0.15082349027E-01 -0.21161393593E-01  0.10159869446E+01  0.10156026079E+01 0.  0.
     999903    2    3    3    0    0 -0.84873670993E-01  0.62985437524E-01 -0.69614367319E-01  0.12823964560E+00  0.20701236628E-01 0.  0.
         14    1    1    2    0    0 -0.10272901927E-01 -0.15082349027E-01  0.21161393593E-01  0.27943055397E-01  0.00000000000E+00 0. -1.
     999901    1    3    3    0    0  0.95146572921E-01 -0.47903088498E-01  0.48452973727E-01  0.88774729900E+00  0.88000000000E+00 0. -1.
        -11    1    4    4    0    0 -0.51717655722E-01  0.48799895019E-01 -0.52054131804E-01  0.88125135042E-01  0.51100000000E-03 0.  1.
         11    1    4    4    0    0 -0.33156015272E-01  0.14185542505E-01 -0.17560235516E-01  0.40114510557E-01  0.51100000000E-03 0. -1.
</event>
<event>
 8    1  0.1114447E+005  0.1043930E+01  0.7957747E-01            NaN
         13   -1    0    0    0    0  0.00000000000E+00  0.00000000000E+00  0.74505805969E-08  0.10566000000E+00  0.10566000000E+00 0. -1.
     999900   -1    0    0    0    0 -0.00000000000E+00 -0.00000000000E+00 -0.74505805969E-08  0.93827000000E+00  0.93827000000E+00 0. -1.
     999902    2    1    2    0    0 -0.23036866258E-01  0.84688349635E-02 -0.77143881828E-03  0.10193736670E+01  0.10190778476E+01 0.  0.
     999903    2    3    3    0    0 -0.42574672979E-01  0.77219800047E-01  0.95066732173E-01  0.13128956281E+00  0.20585563838E-01 0.  0.
         14    1    1    2    0    0  0.23036866258E-01 -0.84688349635E-02  0.77143881828E-03  0.24556333002E-01  0.00000000000E+00 0. -1.
     999901    1    3    3    0    0  0.19537806721E-01 -0.68750965084E-01 -0.95838170991E-01  0.88808410419E+00  0.88000000000E+00 0. -1.
        -11    1    4    4    0    0 -0.40450441312E-01  0.55340612688E-01  0.72886565895E-01  0.10005765450E+00  0.51100000000E-03 0. -1.
         11    1    4    4    0    0 -0.21242316675E-02  0.21879187359E-01  0.22180166278E-01  0.31231908311E-01  0.51100000000E-03 0.  1.
</event>
<event>
 8    1  0.1114447E+005  0.1043930E+01  0.7957747E-01            NaN
         13   -1    0    0    0    0  0.00000000000E+00  0.00000000000E+00  0.74505805969E-08  0.10566000000E+00  0.10566000000E+00 0. -1.
     999900   -1    0    0    0    0 -0.00000000000E+00 -0.00000000000E+00 -0.74505805969E-08  0.93827000000E+00  0.93827000000E+00 0.  1.
     999902    2    1    2    0    0 -0.18699590189E-02  0.14580874247E-01 -0.22360116964E-01  0.10171704508E+01  0.10168183971E+01 0.  0.
     999903    2    3    3    0    0 -0.62949188871E-01 -0.10534972268E+00  0.19172425668E-01  0.12596959105E+00  0.20966437807E-01 0.  0.
         14    1    1    2    0    0  0.18699590189E-02 -0.14580874247E-01  0.22360116964E-01  0.26759549159E-01  0.00000000000E+00 0. -1.
     999901    1    3    3    0    0  0.61079229852E-01  0.11993059693E+00 -0.41532542632E-01  0.89120085979E+00  0.88000000000E+00 0.  1.
        -11    1    4    4    0    0 -0.32462884972E-01 -0.39137694529E-01  0.10804847357E-02  0.50862821412E-01  0.51100000000E-03 0.  1.
         11    1    4    4    0    0 -0.30486303899E-01 -0.66212028152E-01  0.18091940932E-01  0.75106769636E-01  0.51100000000E-03 0. -1.
</event>
<event>
 8    1  0.1114447E+005  0.1043930E+01  0.7957747E-01            NaN
         13   -1    0    0    0    0  0.00000000000E+00  0.00000000000E+00  0.74505805969E-08  0.10566000000E+00  0.10566000000E+00 0.  1.
     999900   -1    0    0    0    0 -0.00000000000E+00 -0.00000000000E+00 -0.74505805969E-08  0.93827000000E+00  0.93827000000E+00 0.  1.
     999902    2    1    2    0    0  0.13539190977E-01  0.17819176567E-01 -0.32026575055E-02  0.10213227056E+01  0.10210724652E+01 0.  0.
     999903    2    3    3    0    0 -0.16103326386E-01 -0.27857545600E-01 -0.12564488785E+00  0.13117825576E+00  0.19640187662E-01 0.  0.
         14    1    1    2    0    0 -0.13539190977E-01 -0.17819176567E-01  0.32026575055E-02  0.22607294419E-01  0.00000000000E+00 0.  1.
     999901    1    3    3    0    0  0.29642517363E-01  0.45676722167E-01  0.12244223035E+00  0.89014444983E+00  0.88000000000E+00 0. -1.
        -11    1    4    4    0    0 -0.17099554092E-01 -0.22325171636E-01 -0.72987559276E-01  0.78219262134E-01  0.51100000000E-03 0. -1.
         11    1    4    4    0    0  0.99622770617E-03 -0.55323739646E-02 -0.52657328579E-01  0.52958993621E-01  0.51100000000E-03 0.  1.
</event>
<event>
 8    1  0.1114447E+005  0.1043930E+01  0.7957747E-01            NaN
         13   -1    0    0    0    0  0.00000000000E+00  0.00000000000E+00  0.74505805969E-08  0.10566000000E+00  0.10566000000E+00 0.  1.
     999900   -1    0    0    0    0 -0.00000000000E+00 -0.00000000000E+00 -0.74505805969E-08  0.93827000000E+00  0.93827000000E+00 0. -1.
     999902    2    1    2    0    0  0.99007506790E-02 -0.16080672876E-01 -0.13578124623E-01  0.10206710582E+01  0.10204060127E+01 0.  0.
     999903    2    3    3    0    0  0.89979301982E-01 -0.29066741222E-01 -0.92189442061E-01  0.13345014347E+00  0.19206700246E-01 0.  0.
         14    1    1    2    0    0 -0.99007506790E-02  0.16080672876E-01  0.13578124623E-01  0.23258941774E-01  0.00000000000E+00 0.  1.
     999901    1    3    3    0    0 -0.80078551303E-01  0.12986068345E-01  0.78611317438E-01  0.88722091476E+00  0.88000000000E+00 0.  1.
        -11    1    4    4    0    0  0.56952843458E-01 -0.27322459964E-01 -0.55942859884E-01  0.84380139189E-01  0.51100000000E-03 0.  1.
         11    1    4    4    0    0  0.33026458524E-01 -0.17442812579E-02 -0.36246582177E-01  0.49070004282E-01  0.51100000000E-03 0. -1.
</event>
<event>
 8    1  0.1114447E+005  0.1043930E+01  0.7957747E-01            NaN
         13   -1    0    0    0    0  0.00000000000E+00  0.00000000000E+00  0.74505805969E-08  0.10566000000E+00  0.10566000000E+00 0.  1.
     999900   -1    0    0    0    0 -0.00000000000E+00 -0.00000000000E+00 -0.74505805969E-08  0.93827000000E+00  0.93827000000E+00 0.  1.
     999902    2    1    2    0    0  0.72843317393E-02 -0.89549025440E-02  0.20163687043E-01  0.10206958432E+01  0.10204313687E+01 0.  0.
     999903    2    3    3    0    0  0.12686470413E+00 -0.19752996012E-01  0.25954023119E-01  0.13252379211E+00  0.20102491263E-01 0.  0.
         14    1    1    2    0    0 -0.72843317393E-02  0.89549025440E-02 -0.20163687043E-01  0.23234156831E-01  0.00000000000E+00 0. -1.
     999901    1    3    3    0    0 -0.11958037239E+00  0.10798093468E-01 -0.57903360757E-02  0.88817205106E+00  0.88000000000E+00 0.  1.
        -11    1    4    4    0    0  0.26015260121E-01  0.40551085963E-02  0.53626439778E-02  0.26874834628E-01  0.51100000000E-03 0.  1.
         11    1    4    4    0    0  0.10084944401E+00 -0.23808104608E-01  0.20591379141E-01  0.10564895749E+00  0.51100000000E-03 0. -1.
</event>
<event>
 7    1  0.1116261E+005  0.1043930E+01  0.7957747E-01            NaN
         13   -1    0    0    0    0  0.00000000000E+00  0.00000000000E+00  0.74505805969E-08  0.10566000000E+00  0.10566000000E+00 0. -1.
     999900   -1    0    0    0    0 -0.00000000000E+00 -0.00000000000E+00 -0.74505805969E-08  0.93827000000E+00  0.93827000000E+00 0. -1.
     999903    2    1    2    0    0  0.32236572375E-01 -0.22489078107E-01  0.10733456884E+00  0.11603453180E+00  0.19958648984E-01 0.  0.
         14    1    1    2    0    0  0.19642549044E-01  0.34664552691E-01 -0.87126141939E-02  0.40784440566E-01  0.00000000000E+00 0.  1.
     999901    1    1    2    0    0 -0.51879121418E-01 -0.12175474584E-01 -0.98621954641E-01  0.88711102764E+00  0.88000000000E+00 0. -1.
        -11    1    3    3    0    0  0.17745745580E-01 -0.21302723622E-01  0.53382378004E-01  0.60155273437E-01  0.51100000000E-03 0.  1.
         11    1    3    3    0    0  0.14490826794E-01 -0.11863544850E-02  0.53952190831E-01  0.55879258358E-01  0.51100000000E-03 0. -1.
</event>
<event>
 8    1  0.1114447E+005  0.1043930E+01  0.7957747E-01            NaN
         13   -1    0    0    0    0  0.00000000000E+00  0.00000000000E+00  0.74505805969E-08  0.10566000000E+00  0.10566000000E+00 0. -1.
     999900   -1    0    0    0    0 -0.00000000000E+00 -0.00000000000E+00 -0.74505805969E-08  0.93827000000E+00  0.93827000000E+00 0.  1.
     999902    2    1    2    0    0 -0.20743323029E-01  0.56055220919E-02  0.93081099321E-02  0.10205131633E+01  0.10202444650E+01 0.  0.
     999903    2    3    3    0    0  0.70852719152E-01  0.85095727119E-01 -0.63481905882E-01  0.12921808649E+00  0.20148719955E-01 0.  0.
         14    1    1    2    0    0  0.20743323029E-01 -0.56055220919E-02 -0.93081099321E-02  0.23416836650E-01  0.00000000000E+00 0.  1.
     999901    1    3    3    0    0 -0.91596042180E-01 -0.79490205027E-01  0.72790015814E-01  0.89129507686E+00  0.88000000000E+00 0. -1.
        -11    1    4    4    0    0  0.19997081786E-01  0.31016008930E-01 -0.30945261659E-01  0.48163746013E-01  0.51100000000E-03 0. -1.
         11    1    4    4    0    0  0.50855637366E-01  0.54079718189E-01 -0.32536644223E-01  0.81054340474E-01  0.51100000000E-03 0.  1.
</event>
<event>
 8    1  0.1114447E+005  0.1043930E+01  0.7957747E-01            NaN
         13   -1    0    0    0    0  0.00000000000E+00  0.00000000000E+00  0.74505805969E-08  0.10566000000E+00  0.10566000000E+00 0.  1.
     999900   -1    0    0    0    0 -0.00000000000E+00 -0.00000000000E+00 -0.74505805969E-08  0.93827000000E+00  0.93827000000E+00 0.  1.
     999902    2    1    2    0    0 -0.12608379487E-01  0.24735388281E-01 -0.39092555356E-02  0.10158926509E+01  0.10155056795E+01 0.  0.
     999903    2    3    3    0    0 -0.10375170519E+00  0.58976229135E-01 -0.46516164259E-01  0.12949833136E+00  0.19064426423E-01 0.  0.
         14    1    1    2    0    0  0.12608379487E-01 -0.24735388281E-01  0.39092555356E-02  0.28037349117E-01  0.00000000000E+00 0.  1.
     999901    1    3    3    0    0  0.91143325708E-01 -0.34240840855E-01  0.42606908724E-01  0.88639431952E+00  0.88000000000E+00 0. -1.
        -11    1    4    4    0    0 -0.40567252758E-01  0.31822408854E-01 -0.25896677672E-01  0.57699798414E-01  0.51100000000E-03 0. -1.
         11    1    4    4    0    0 -0.63184452437E-01  0.27153820281E-01 -0.20619486587E-01  0.71798532950E-01  0.51100000000E-03 0.  1.
</event>
<event>
 8    1  0.1114447E+005  0.1043930E+01  0.7957747E-01            NaN
         13   -1    0    0    0    0  0.00000000000E+00  0.00000000000E+00  0.74505805969E-08  0.10566000000E+00  0.10566000000E+00 0.  1.
     999900   -1    0    0    0    0 -0.00000000000E+00 -0.00000000000E+00 -0.74505805969E-08  0.93827000000E+00  0.93827000000E+00 0.  1.
     999902    2    1    2    0    0  0.69569028126E-03  0.10321433649E-01  0.20662567223E-01  0.10208224761E+01  0.10205609095E+01 0.  0.
     999903    2    3    3    0    0 -0.42102641129E-01  0.11968533083E+00 -0.28779253798E-01  0.13164496127E+00  0.20123110425E-01 0.  0.
         14    1    1    2    0    0 -0.69569028126E-03 -0.10321433649E-01 -0.20662567223E-01  0.23107523922E-01  0.00000000000E+00 0. -1.
     999901    1    3    3    0    0  0.42798331410E-01 -0.10936389718E+00  0.49441821021E-01  0.88917751481E+00  0.88000000000E+00 0.  1.
        -11    1    4    4    0    0 -0.20797110850E-01  0.50516971309E-01 -0.26546065120E-02  0.54697278421E-01  0.51100000000E-03 0. -1.
         11    1    4    4    0    0 -0.21305530279E-01  0.69168359517E-01 -0.26124647286E-01  0.76947682847E-01  0.51100000000E-03 0.  1.
</event>
<event>
 7    1  0.1114447E+005  0.1043930E+01  0.7957747E-01            NaN
         13   -1    0    0    0    0  0.00000000000E+00  0.00000000000E+00  0.74505805969E-08  0.10566000000E+00  0.10566000000E+00 0. -1.
     999900   -1    0    0    0    0 -0.00000000000E+00 -0.00000000000E+00 -0.74505805969E-08  0.93827000000E+00  0.93827000000E+00 0. -1.
     999903    2    1    2    0    0 -0.94200348290E-02  0.39237465140E-01  0.10017412754E+00  0.10980623648E+00  0.19855427828E-01 0.  0.
         14    1    1    2    0    0  0.23143270191E-01 -0.16907508496E-01 -0.43263408627E-01  0.51896024170E-01  0.00000000000E+00 0.  1.
     999901    1    1    2    0    0 -0.13723235362E-01 -0.22329956644E-01 -0.56910718915E-01  0.88222773935E+00  0.88000000000E+00 0. -1.
        -11    1    3    3    0    0 -0.12525286837E-01  0.24095940566E-01  0.79332951925E-01  0.83853894032E-01  0.51100000000E-03 0.  1.
         11    1    3    3    0    0  0.31052520077E-02  0.15141524573E-01  0.20841175616E-01  0.25952342448E-01  0.51100000000E-03 0. -1.
</event>
<event>
 8    1  0.1114447E+005  0.1043930E+01  0.7957747E-01            NaN
         13   -1    0    0    0    0  0.00000000000E+00  0.00000000000E+00  0.74505805969E-08  0.10566000000E+00  0.10566000000E+00 0.  1.
     999900   -1    0    0    0    0 -0.00000000000E+00 -0.00000000000E+00 -0.74505805969E-08  0.93827000000E+00  0.93827000000E+00 0. -1.
     999902    2    1    2    0    0  0.66147689901E-02 -0.22218227007E-01 -0.94652069074E-03  0.10207286922E+01  0.10204649737E+01 0.  0.
     999903    2    3    3    0    0  0.43941491004E-01 -0.11273747799E+00 -0.53311029122E-01  0.13375120622E+00  0.20167443140E-01 0.  0.
         14    1    1    2    0    0 -0.66147689901E-02  0.22218227007E-01  0.94652069074E-03  0.23201307755E-01  0.00000000000E+00 0.  1.
     999901    1    3    3    0    0 -0.37326722013E-01  0.90519250986E-01  0.52364508432E-01  0.88697748603E+00  0.88000000000E+00 0.  1.
        -11    1    4    4    0    0  0.41732756408E-01 -0.88792725244E-01 -0.47507259295E-01  0.10900904467E+00  0.51100000000E-03 0.  1.
         11    1    4    4    0    0  0.22087345952E-02 -0.23944752749E-01 -0.58037698275E-02  0.24742161546E-01  0.51100000000E-03 0. -1.
</event>
<event>
 8    1  0.1114447E+005  0.1043930E+01  0.7957747E-01            NaN
         13   -1    0    0    0    0  0.00000000000E+00  0.00000000000E+00  0.74505805969E-08  0.10566000000E+00  0.10566000000E+00 0.  1.
     999900   -1    0    0    0    0 -0.00000000000E+00 -0.00000000000E+00 -0.74505805969E-08  0.93827000000E+00  0.93827000000E+00 0.  1.
     999902    2    1    2    0    0  0.89019324830E-02  0.19049754208E-02  0.22039320713E-01  0.10200845604E+01  0.10198058175E+01 0.  0.
     999903    2    3    3    0    0 -0.52639332262E-01  0.78011879120E-01  0.90468401380E-01  0.13201804984E+00  0.19684543438E-01 0.  0.
         14    1    1    2    0    0 -0.89019324830E-02 -0.19049754208E-02 -0.22039320713E-01  0.23845439622E-01  0.00000000000E+00 0. -1.
     999901    1    3    3    0    0  0.61541264745E-01 -0.76106903700E-01 -0.68429080667E-01  0.88806651054E+00  0.88000000000E+00 0.  1.
        -11    1    4    4    0    0 -0.15695164873E-01  0.36823826587E-01  0.46394499963E-01  0.61278406904E-01  0.51100000000E-03 0.  1.
         11    1    4    4    0    0 -0.36944167389E-01  0.41188052533E-01  0.44073901418E-01  0.70739642936E-01  0.51100000000E-03 0. -1.
</event>
<event>
 8    1  0.1114447E+005  0.1043930E+01  0.7957747E-01            NaN
         13   -1    0    0    0    0  0.00000000000E+00  0.00000000000E+00  0.74505805969E-08  0.10566000000E+00  0.10566000000E+00 0.  1.
     999900   -1    0    0    0    0 -0.00000000000E+00 -0.00000000000E+00 -0.74505805969E-08  0.93827000000E+00  0.93827000000E+00 0. -1.
     999902    2    1    2    0    0  0.18307977057E-01  0.45373553808E-02 -0.11404552381E-01  0.10218883705E+01  0.10216506293E+01 0.  0.
     999903    2    3    3    0    0  0.76799260342E-01  0.14200774908E-01 -0.10747942700E+00  0.13467644909E+00  0.22048363053E-01 0.  0.
         14    1    1    2    0    0 -0.18307977057E-01 -0.45373553808E-02  0.11404552381E-01  0.22041629540E-01  0.00000000000E+00 0. -1.
     999901    1    3    3    0    0 -0.58491283286E-01 -0.96634195271E-02  0.96074874617E-01  0.88721192138E+00  0.88000000000E+00 0. -1.
        -11    1    4    4    0    0  0.63746622448E-01  0.19772314727E-01 -0.92115542498E-01  0.11375460691E+00  0.51100000000E-03 0.  1.
         11    1    4    4    0    0  0.13052637894E-01 -0.55715398195E-02 -0.15363884500E-01  0.20921842172E-01  0.51100000000E-03 0. -1.
</event>
<event>
 8    1  0.1114447E+005  0.1043930E+01  0.7957747E-01            NaN
         13   -1    0    0    0    0  0.00000000000E+00  0.00000000000E+00  0.74505805969E-08  0.10566000000E+00  0.10566000000E+00 0.  1.
     999900   -1    0    0    0    0 -0.00000000000E+00 -0.00000000000E+00 -0.74505805969E-08  0.93827000000E+00  0.93827000000E+00 0. -1.
     999902    2    1    2    0    0 -0.22386637093E-01  0.97785368471E-03  0.53746707093E-02  0.10208864585E+01  0.10206263549E+01 0.  0.
     999903    2    3    3    0    0 -0.63045907883E-01  0.74469740219E-02 -0.11395882711E+00  0.13187829798E+00  0.19365621094E-01 0.  0.
         14    1    1    2    0    0  0.22386637093E-01 -0.97785368471E-03 -0.53746707093E-02  0.23043541468E-01  0.00000000000E+00 0.  1.
     999901    1    3    3    0    0  0.40659270791E-01 -0.64691203371E-02  0.11933349782E+00  0.88900816055E+00  0.88000000000E+00 0.  1.
        -11    1    4    4    0    0 -0.21139433230E-01 -0.90189321336E-03 -0.22285399777E-01  0.30734170119E-01  0.51100000000E-03 0. -1.
         11    1    4    4    0    0 -0.41906474653E-01  0.83488672352E-02 -0.91673427332E-01  0.10114412787E+00  0.51100000000E-03 0.  1.
</event>
<event>
 8    1  0.1114447E+005  0.1043930E+01  0.7957747E-01            NaN
         13   -1    0    0    0    0  0.00000000000E+00  0.00000000000E+00  0.74505805969E-08  0.10566000000E+00  0.10566000000E+00 0.  1.
     999900   -1    0    0    0    0 -0.00000000000E+00 -0.00000000000E+00 -0.74505805969E-08  0.93827000000E+00  0.93827000000E+00 0.  1.
     999902    2    1    2    0    0  0.18751158345E-01  0.11761233075E-01  0.60205782203E-02  0.10209913883E+01  0.10207336749E+01 0.  0.
     999903    2    3    3    0    0 -0.22793482166E-01  0.83732158822E-01  0.98031166190E-01  0.13230037364E+00  0.19043688487E-01 0.  0.
         14    1    1    2    0    0 -0.18751158345E-01 -0.11761233075E-01 -0.60205782203E-02  0.22938611659E-01  0.00000000000E+00 0. -1.
     999901    1    3    3    0    0  0.41544640510E-01 -0.71970925747E-01 -0.92010587969E-01  0.88869101470E+00  0.88000000000E+00 0.  1.
        -11    1    4    4    0    0 -0.13179302450E-01  0.23043179780E-01  0.21573487153E-01  0.34210504474E-01  0.51100000000E-03 0. -1.
         11    1    4    4    0    0 -0.96141797160E-02  0.60688979042E-01  0.76457679036E-01  0.98089869168E-01  0.51100000000E-03 0.  1.
</event>
<event>
 8    1  0.1114447E+005  0.1043930E+01  0.7957747E-01            NaN
         13   -1    0    0    0    0  0.00000000000E+00  0.00000000000E+00  0.74505805969E-08  0.10566000000E+00  0.10566000000E+00 0.  1.
     999900   -1    0    0    0    0 -0.00000000000E+00 -0.00000000000E+00 -0.74505805969E-08  0.93827000000E+00  0.93827000000E+00 0. -1.
     999902    2    1    2    0    0 -0.79921791115E-02 -0.19646518292E-01  0.37011232528E-02  0.10223995815E+01  0.10221728549E+01 0.  0.
     999903    2    3    3    0    0  0.51827750408E-01 -0.89512660280E-01 -0.81760220448E-01  0.13348825687E+00  0.20874602089E-01 0.  0.
         14    1    1    2    0    0  0.79921791115E-02  0.19646518292E-01 -0.37011232528E-02  0.21530418511E-01  0.00000000000E+00 0.  1.
     999901    1    3    3    0    0 -0.59819929520E-01  0.69866141988E-01  0.85461343701E-01  0.88891132462E+00  0.88000000000E+00 0.  1.
        -11    1    4    4    0    0  0.40596088486E-02 -0.31440593507E-02 -0.10668826656E-01  0.11851182069E-01  0.51100000000E-03 0. -1.
         11    1    4    4    0    0  0.47768141559E-01 -0.86368600929E-01 -0.71091393792E-01  0.12163707480E+00  0.51100000000E-03 0.  1.
</event>
<event>
 8    1  0.1114447E+005  0.1043930E+01  0.7957747E-01            NaN
         13   -1    0    0    0    0  0.00000000000E+00  0.00000000000E+00  0.74505805969E-08  0.10566000000E+00  0.10566000000E+00 0.  1.
     999900   -1    0    0    0    0 -0.00000000000E+00 -0.00000000000E+00 -0.74505805969E-08  0.93827000000E+00  0.93827000000E+00 0. -1.
     999902    2    1    2    0    0  0.16989590729E-01  0.14772669333E-01  0.67254733448E-02  0.10204329801E+01  0.10201624169E+01 0.  0.
     999903    2    3    3    0    0 -0.44209329087E-01  0.10819586070E+00  0.57957931006E-01  0.13189599990E+00  0.19406802213E-01 0.  0.
         14    1    1    2    0    0 -0.16989590729E-01 -0.14772669333E-01 -0.67254733448E-02  0.23497019898E-01  0.00000000000E+00 0. -1.
     999901    1    3    3    0    0  0.61198919816E-01 -0.93423191365E-01 -0.51232457661E-01  0.88853698020E+00  0.88000000000E+00 0. -1.
        -11    1    4    4    0    0 -0.33180345333E-01  0.97638822333E-01  0.52076774102E-01  0.11552716765E+00  0.51100000000E-03 0.  1.
         11    1    4    4    0    0 -0.11028983754E-01  0.10557038365E-01  0.58811569036E-02  0.16368832250E-01  0.51100000000E-03 0. -1.
</event>
<event>
 7    1  0.1114447E+005  0.1043930E+01  0.7957747E-01            NaN
         13   -1    0    0    0    0  0.00000000000E+00  0.00000000000E+00  0.74505805969E-08  0.10566000000E+00  0.10566000000E+00 0. -1.
     999900   -1    0    0    0    0 -0.00000000000E+00 -0.00000000000E+00 -0.74505805969E-08  0.93827000000E+00  0.93827000000E+00 0.  1.
     999903    2    1    2    0    0 -0.23180726817E-01  0.87197673514E-01 -0.62033637098E-01  0.11048237623E+00  0.14744591031E-01 0.  0.
         14    1    1    2    0    0  0.43244868070E-01  0.11954076914E-01  0.10932227551E-01  0.46179347857E-01  0.00000000000E+00 0. -1.
     999901    1    1    2    0    0 -0.20064141253E-01 -0.99151750428E-01  0.51101409547E-01  0.88726827591E+00  0.88000000000E+00 0.  1.
        -11    1    3    3    0    0 -0.95252369934E-02  0.17668359656E-01 -0.18604258680E-01  0.27372990972E-01  0.51100000000E-03 0.  1.
         11    1    3    3    0    0 -0.13655489824E-01  0.69529313858E-01 -0.43429378418E-01  0.83109385262E-01  0.51100000000E-03 0. -1.
</event>
<event>
 8    1  0.1114447E+005  0.1043930E+01  0.7957747E-01            NaN
         13   -1    0    0    0    0  0.00000000000E+00  0.00000000000E+00  0.74505805969E-08  0.10566000000E+00  0.10566000000E+00 0.  1.
     999900   -1    0    0    0    0 -0.00000000000E+00 -0.00000000000E+00 -0.74505805969E-08  0.93827000000E+00  0.93827000000E+00 0. -1.
     999902    2    1    2    0    0  0.18470038090E-01  0.10594336394E-01  0.99235528453E-02  0.10204383170E+01  0.10201678781E+01 0.  0.
     999903    2    3    3    0    0 -0.11246514075E+00 -0.57303591036E-01 -0.11714151959E-01  0.12790129259E+00  0.17012050461E-01 0.  0.
         14    1    1    2    0    0 -0.18470038090E-01 -0.10594336394E-01 -0.99235528453E-02  0.23491683033E-01  0.00000000000E+00 0.  1.
     999901    1    3    3    0    0  0.13093517884E+00  0.67897927430E-01  0.21637704804E-01  0.89253702437E+00  0.88000000000E+00 0. -1.
        -11    1    4    4    0    0 -0.41484350085E-01 -0.22989635536E-01 -0.12518983531E-01  0.49055689922E-01  0.51100000000E-03 0.  1.
         11    1    4    4    0    0 -0.70980790667E-01 -0.34313955500E-01  0.80483157176E-03  0.78845602672E-01  0.51100000000E-03 0. -1.
</event>
<event>
 8    1  0.1114447E+005  0.1043930E+01  0.7957747E-01            NaN
         13   -1    0    0    0    0  0.00000000000E+00  0.00000000000E+00  0.74505805969E-08  0.10566000000E+00  0.10566000000E+00 0. -1.
     999900   -1    0    0    0    0 -0.00000000000E+00 -0.00000000000E+00 -0.74505805969E-08  0.93827000000E+00  0.93827000000E+00 0.  1.
     999902    2    1    2    0    0  0.39296061986E-02 -0.19116712785E-01  0.14407654796E-01  0.10196715782E+01  0.10193829782E+01 0.  0.
     999903    2    3    3    0    0  0.10005888171E+00  0.77726733203E-01  0.16036014288E-01  0.12915367145E+00  0.19242978792E-01 0.  0.
         14    1    1    2    0    0 -0.39296061986E-02  0.19116712785E-01 -0.14407654796E-01  0.24258421822E-01  0.00000000000E+00 0. -1.
     999901    1    3    3    0    0 -0.96129275510E-01 -0.96843445988E-01 -0.16283594925E-02  0.89051790672E+00  0.88000000000E+00 0. -1.
        -11    1    4    4    0    0  0.56686628473E-01  0.34758613519E-01  0.21053692653E-02  0.66529908779E-01  0.51100000000E-03 0.  1.
         11    1    4    4    0    0  0.43372253235E-01  0.42968119684E-01  0.13930645023E-01  0.62623762675E-01  0.51100000000E-03 0. -1.
</event>
<event>
 8    1  0.1114447E+005  0.1043930E+01  0.7957747E-01            NaN
         13   -1    0    0    0    0  0.00000000000E+00  0.00000000000E+00  0.74505805969E-08  0.10566000000E+00  0.10566000000E+00 0. -1.
     999900   -1    0    0    0    0 -0.00000000000E+00 -0.00000000000E+00 -0.74505805969E-08  0.93827000000E+00  0.93827000000E+00 0. -1.
     999902    2    1    2    0    0  0.87764125904E-02 -0.20432567818E-01  0.10209449894E-01  0.10194606700E+01  0.10191669684E+01 0.  0.
     999903    2    3    3    0    0 -0.84916726331E-02 -0.10412252359E+00  0.79513618504E-01  0.13260935026E+00  0.18687317237E-01 0.  0.
         14    1    1    2    0    0 -0.87764125904E-02  0.20432567818E-01 -0.10209449894E-01  0.24469330043E-01  0.00000000000E+00 0.  1.
     999901    1    3    3    0    0  0.17268085223E-01  0.83689955772E-01 -0.69304168610E-01  0.88685131970E+00  0.88000000000E+00 0.  1.
        -11    1    4    4    0    0  0.53848607731E-02 -0.47160361391E-01  0.34099210513E-01  0.58447529380E-01  0.51100000000E-03 0. -1.
         11    1    4    4    0    0 -0.13876533406E-01 -0.56962162200E-01  0.45414407991E-01  0.74161820878E-01  0.51100000000E-03 0.  1.
</event>
<event>
 8    1  0.1114447E+005  0.1043930E+01  0.7957747E-01            NaN
         13   -1    0    0    0    0  0.00000000000E+00  0.00000000000E+00  0.74505805969E-08  0.10566000000E+00  0.10566000000E+00 0.  1.
     999900   -1    0    0    0    0 -0.00000000000E+00 -0.00000000000E+00 -0.74505805969E-08  0.93827000000E+00  0.93827000000E+00 0.  1.
     999902    2    1    2    0    0 -0.19020019109E-01  0.98195429725E-02  0.11429342014E-02  0.10224942623E+01  0.10222695465E+01 0.  0.
     999903    2    3    3    0    0 -0.23116904331E-01  0.12633124365E+00  0.33327511804E-01  0.13422200232E+00  0.20269397529E-01 0.  0.
         14    1    1    2    0    0  0.19020019109E-01 -0.98195429725E-02 -0.11429342014E-02  0.21435737675E-01  0.00000000000E+00 0.  1.
     999901    1    3    3    0    0  0.40968852221E-02 -0.11651170067E+00 -0.32184577603E-01  0.88827226001E+00  0.88000000000E+00 0. -1.
        -11    1    4    4    0    0 -0.88851152025E-02  0.21583486925E-01  0.12486616915E-01  0.26475817324E-01  0.51100000000E-03 0. -1.
         11    1    4    4    0    0 -0.14231789128E-01  0.10474775672E+00  0.20840894889E-01  0.10774618499E+00  0.51100000000E-03 0.  1.
</event>
<event>
 8    1  0.1114447E+005  0.1043930E+01  0.7957747E-01            NaN
         13   -1    0    0    0    0  0.00000000000E+00  0.00000000000E+00  0.74505805969E-08  0.10566000000E+00  0.10566000000E+00 0. -1.
     999900   -1    0    0    0    0 -0.00000000000E+00 -0.00000000000E+00 -0.74505805969E-08  0.93827000000E+00  0.93827000000E+00 0.  1.
     999902    2    1    2    0    0  0.21412454157E-01 -0.50092683427E-02 -0.78243837372E-02  0.10205889001E+01  0.10203219571E+01 0.  0.
     999903    2    3    3    0    0  0.69254049266E-01 -0.93576390925E-01 -0.61682072605E-01  0.13321434332E+00  0.19715955625E-01 0.  0.
         14    1    1    2    0    0 -0.21412454157E-01  0.50092683427E-02  0.78243837372E-02  0.23341099872E-01  0.00000000000E+00 0. -1.
     999901    1    3    3    0    0 -0.47841595109E-01  0.88567122583E-01  0.53857688867E-01  0.88737455681E+00  0.88000000000E+00 0.  1.
        -11    1    4    4    0    0  0.29859446852E-01 -0.25486964938E-01 -0.17435591792E-01  0.42958502421E-01  0.51100000000E-03 0.  1.
         11    1    4    4    0    0  0.39394602414E-01 -0.68089425988E-01 -0.44246480812E-01  0.90255840897E-01  0.51100000000E-03 0. -1.
</event>
<event>
 8    1  0.1114447E+005  0.1043930E+01  0.7957747E-01            NaN
         13   -1    0    0    0    0  0.00000000000E+00  0.00000000000E+00  0.74505805969E-08  0.10566000000E+00  0.10566000000E+00 0. -1.
     999900   -1    0    0    0    0 -0.00000000000E+00 -0.00000000000E+00 -0.74505805969E-08  0.93827000000E+00  0.93827000000E+00 0.  1.
     999902    2    1    2    0    0  0.23811362761E-02  0.90637618389E-02  0.22965259332E-01  0.10191262760E+01  0.10188243920E+01 0.  0.
     999903    2    3    3    0    0  0.84852821939E-01 -0.23794433945E-02 -0.93052458646E-01  0.12761484209E+00  0.20521323560E-01 0.  0.
         14    1    1    2    0    0 -0.23811362761E-02 -0.90637618389E-02 -0.22965259332E-01  0.24803724011E-01  0.00000000000E+00 0.  1.
     999901    1    3    3    0    0 -0.82471685663E-01  0.11443205233E-01  0.11601771798E+00  0.89151143390E+00  0.88000000000E+00 0.  1.
        -11    1    4    4    0    0  0.69882669878E-01 -0.13815641759E-02 -0.63350738904E-01  0.94334900803E-01  0.51100000000E-03 0.  1.
         11    1    4    4    0    0  0.14970152061E-01 -0.99787921858E-03 -0.29701719742E-01  0.33279941290E-01  0.51100000000E-03 0. -1.
</event>
<event>
 8    1  0.1114447E+005  0.1043930E+01  0.7957747E-01            NaN
         13   -1    0    0    0    0  0.00000000000E+00  0.00000000000E+00  0.74505805969E-08  0.10566000000E+00  0.10566000000E+00 0.  1.
     999900   -1    0    0    0    0 -0.00000000000E+00 -0.00000000000E+00 -0.74505805969E-08  0.93827000000E+00  0.93827000000E+00 0.  1.
     999902    2    1    2    0    0  0.68302797303E-02 -0.12678174530E-01  0.18827385823E-01  0.10202264288E+01  0.10199510315E+01 0.  0.
     999903    2    3    3    0    0  0.40654240620E-02 -0.11991977163E+00 -0.47203973278E-01  0.13125593156E+00  0.24548425120E-01 0.  0.
         14    1    1    2    0    0 -0.68302797303E-02  0.12678174530E-01 -0.18827385823E-01  0.23703571198E-01  0.00000000000E+00 0. -1.
     999901    1    3    3    0    0  0.27648556683E-02  0.10724159710E+00  0.66031359101E-01  0.88897049724E+00  0.88000000000E+00 0. -1.
        -11    1    4    4    0    0 -0.67512005569E-02 -0.91768251783E-01 -0.31570736469E-01  0.97282903259E-01  0.51100000000E-03 0. -1.
         11    1    4    4    0    0  0.10816624619E-01 -0.28151519850E-01 -0.15633236810E-01  0.33973028304E-01  0.51100000000E-03 0.  1.
</event>
<event>
 8    1  0.1114447E+005  0.1043930E+01  0.7957747E-01            NaN
         13   -1    0    0    0    0  0.00000000000E+00  0.00000000000E+00  0.74505805969E-08  0.10566000000E+00  0.10566000000E+00 0.  1.
     999900   -1    0    0    0    0 -0.00000000000E+00 -0.00000000000E+00 -0.74505805969E-08  0.93827000000E+00  0.93827000000E+00 0. -1.
     999902    2    1    2    0    0  0.11971562383E-01  0.12936388382E-01 -0.14984930981E-01  0.10207952511E+01  0.10205330607E+01 0.  0.
     999903    2    3    3    0    0 -0.98354374219E-02  0.47701890509E-01  0.11869818969E+00  0.12975352248E+00  0.19352265360E-01 0.  0.
         14    1    1    2    0    0 -0.11971562383E-01 -0.12936388382E-01  0.14984930981E-01  0.23134748902E-01  0.00000000000E+00 0.  1.
     999901    1    3    3    0    0  0.21806999805E-01 -0.34765502127E-01 -0.13368312067E+00  0.89104172861E+00  0.88000000000E+00 0. -1.
        -11    1    4    4    0    0 -0.13872596856E-01  0.38671755141E-01  0.81665913594E-01  0.91419561109E-01  0.51100000000E-03 0. -1.
         11    1    4    4    0    0  0.40371594341E-02  0.90301353680E-02  0.37032276093E-01  0.38333961375E-01  0.51100000000E-03 0.  1.
</event>
<event>
 8    1  0.1114447E+005  0.1043930E+01  0.7957747E-01            NaN
         13   -1    0    0    0    0  0.00000000000E+00  0.00000000000E+00  0.74505805969E-08  0.10566000000E+00  0.10566000000E+00 0.  1.
     999900   -1    0    0    0    0 -0.00000000000E+00 -0.00000000000E+00 -0.74505805969E-08  0.93827000000E+00  0.93827000000E+00 0.  1.
     999902    2    1    2    0    0  0.20908918335E-01 -0.71420703435E-02  0.74013499703E-02  0.10206282401E+01  0.10203622065E+01 0.  0.
     999903    2    3    3    0    0 -0.12469267447E+00 -0.44353093845E-02  0.23611780069E-01  0.12851281680E+00  0.19750769278E-01 0.  0.
         14    1    1    2    0    0 -0.20908918335E-01  0.71420703435E-02 -0.74013499703E-02  0.23301759936E-01  0.00000000000E+00 0.  1.
     999901    1    3    3    0    0  0.14560159281E+00 -0.27067609590E-02 -0.16210430098E-01  0.89211542326E+00  0.88000000000E+00 0.  1.
        -11    1    4    4    0    0 -0.31332516240E-01 -0.95776244369E-02  0.44792698489E-02  0.33072381879E-01  0.51100000000E-03 0. -1.
         11    1    4    4    0    0 -0.93360158233E-01  0.51423150524E-02  0.19132510220E-01  0.95440434920E-01  0.51100000000E-03 0.  1.
</event>
<event>
 8    1  0.1114447E+005  0.1043930E+01  0.7957747E-01            NaN
         13   -1    0    0    0    0  0.00000000000E+00  0.00000000000E+00  0.74505805969E-08  0.10566000000E+00  0.10566000000E+00 0.  1.
     999900   -1    0    0    0    0 -0.00000000000E+00 -0.00000000000E+00 -0.74505805969E-08  0.93827000000E+00  0.93827000000E+00 0. -1.
     999902    2    1    2    0    0 -0.27597419409E-02  0.17157431810E-03  0.22773272691E-01  0.10209894777E+01  0.10207317209E+01 0.  0.
     999903    2    3    3    0    0 -0.77468610614E-01 -0.99416277108E-01  0.34522591957E-01  0.13214910864E+00  0.19662038903E-01 0.  0.
         14    1    1    2    0    0  0.27597419409E-02 -0.17157431810E-03 -0.22773272691E-01  0.22940522278E-01  0.00000000000E+00 0. -1.
     999901    1    3    3    0    0  0.74708868673E-01  0.99587851426E-01 -0.11749319266E-01  0.88884036908E+00  0.88000000000E+00 0.  1.
        -11    1    4    4    0    0 -0.70365512013E-02 -0.14156802761E-01 -0.13798565901E-02  0.15877444455E-01  0.51100000000E-03 0.  1.
         11    1    4    4    0    0 -0.70432059413E-01 -0.85259474347E-01  0.35902448547E-01  0.11627166418E+00  0.51100000000E-03 0. -1.
</event>
<event>
 8    1  0.1114447E+005  0.1043930E+01  0.7957747E-01            NaN
         13   -1    0    0    0    0  0.00000000000E+00  0.00000000000E+00  0.74505805969E-08  0.10566000000E+00  0.10566000000E+00 0.  1.
     999900   -1    0    0    0    0 -0.00000000000E+00 -0.00000000000E+00 -0.74505805969E-08  0.93827000000E+00  0.93827000000E+00 0. -1.
     999902    2    1    2    0    0 -0.15676879627E-01 -0.20748142854E-02 -0.17616618087E-01  0.10202569216E+01  0.10199822407E+01 0.  0.
     999903    2    3    3    0    0  0.44753542552E-01 -0.99710861574E-01 -0.70003628758E-01  0.13125240385E+00  0.19533304639E-01 0.  0.
         14    1    1    2    0    0  0.15676879627E-01  0.20748142854E-02  0.17616618087E-01  0.23673078422E-01  0.00000000000E+00 0.  1.
     999901    1    3    3    0    0 -0.60430422178E-01  0.97636047289E-01  0.52387010671E-01  0.88900451773E+00  0.88000000000E+00 0.  1.
        -11    1    4    4    0    0  0.20235051726E-01 -0.50558443298E-01 -0.23634247674E-01  0.59367097716E-01  0.51100000000E-03 0. -1.
         11    1    4    4    0    0  0.24518490826E-01 -0.49152418276E-01 -0.46369381085E-01  0.71885306134E-01  0.51100000000E-03 0.  1.
</event>
<event>
 8    1  0.1114447E+005  0.1043930E+01  0.7957747E-01            NaN
         13   -1    0    0    0    0  0.00000000000E+00  0.00000000000E+00  0.74505805969E-08  0.10566000000E+00  0.10566000000E+00 0. -1.
     999900   -1    0    0    0    0 -0.00000000000E+00 -0.00000000000E+00 -0.74505805969E-08  0.93827000000E+00  0.93827000000E+00 0. -1.
     999902    2    1    2    0    0 -0.15583292204E-01  0.16581577420E-01  0.34187395879E-02  0.10209196657E+01  0.10206603197E+01 0.  0.
     999903    2    3    3    0    0  0.11498549815E+00 -0.29054038957E-01  0.46899792700E-01  0.12905565110E+00  0.19747621692E-01 0.  0.
         14    1    1    2    0    0  0.15583292204E-01 -0.16581577420E-01 -0.34187395879E-02  0.23010334331E-01  0.00000000000E+00 0.  1.
     999901    1    3    3    0    0 -0.13056879035E+00  0.45635616377E-01 -0.43481053112E-01  0.89186401456E+00  0.88000000000E+00 0. -1.
        -11    1    4    4    0    0  0.96122297903E-01 -0.16526610781E-01  0.39479092969E-01  0.10522112393E+00  0.51100000000E-03 0. -1.
         11    1    4    4    0    0  0.18863200245E-01 -0.12527428176E-01  0.74206997311E-02  0.23834527176E-01  0.51100000000E-03 0.  1.
</event>
<event>
 8    1  0.1114447E+005  0.1043930E+01  0.7957747E-01            NaN
         13   -1    0    0    0    0  0.00000000000E+00  0.00000000000E+00  0.74505805969E-08  0.10566000000E+00  0.10566000000E+00 0. -1.
     999900   -1    0    0    0    0 -0.00000000000E+00 -0.00000000000E+00 -0.74505805969E-08  0.93827000000E+00  0.93827000000E+00 0. -1.
     999902    2    1    2    0    0 -0.13851850969E-02  0.77269842257E-02 -0.22498683490E-01  0.10201011146E+01  0.10198227631E+01 0.  0.
     999903    2    3    3    0    0  0.83173644856E-01  0.97541093174E-01 -0.21074111007E-01  0.13149614084E+00  0.20371471373E-01 0.  0.
         14    1    1    2    0    0  0.13851850969E-02 -0.77269842257E-02  0.22498683490E-01  0.23828885449E-01  0.00000000000E+00 0. -1.
     999901    1    3    3    0    0 -0.84558829953E-01 -0.89814108949E-01 -0.14245724834E-02  0.88860497371E+00  0.88000000000E+00 0.  1.
        -11    1    4    4    0    0  0.61850888695E-01  0.76498473591E-01 -0.76753909242E-02  0.98674827798E-01  0.51100000000E-03 0. -1.
         11    1    4    4    0    0  0.21322756161E-01  0.21042619583E-01 -0.13398720082E-01  0.32821313046E-01  0.51100000000E-03 0.  1.
</event>
<event>
 8    1  0.1114447E+005  0.1043930E+01  0.7957747E-01            NaN
         13   -1    0    0    0    0  0.00000000000E+00  0.00000000000E+00  0.74505805969E-08  0.10566000000E+00  0.10566000000E+00 0.  1.
     999900   -1    0    0    0    0 -0.00000000000E+00 -0.00000000000E+00 -0.74505805969E-08  0.93827000000E+00  0.93827000000E+00 0.  1.
     999902    2    1    2    0    0  0.94553348206E-02 -0.18791465733E-01 -0.93857839443E-02  0.10208949076E+01  0.10206349969E+01 0.  0.
     999903    2    3    3    0    0 -0.50674566996E-01 -0.24067808364E-01  0.11556796502E+00  0.13002068290E+00  0.20056228521E-01 0.  0.
         14    1    1    2    0    0 -0.94553348206E-02  0.18791465733E-01  0.93857839443E-02  0.23035092386E-01  0.00000000000E+00 0.  1.
     999901    1    3    3    0    0  0.60129901816E-01  0.52763426306E-02 -0.12495374897E+00  0.89087422472E+00  0.88000000000E+00 0.  1.
        -11    1    4    4    0    0 -0.26045916285E-02  0.12667949012E-02  0.18891681667E-01  0.19119242247E-01  0.51100000000E-03 0. -1.
         11    1    4    4    0    0 -0.48069975367E-01 -0.25334603265E-01  0.96676283353E-01  0.11090144065E+00  0.51100000000E-03 0.  1.
</event>
<event>
 8    1  0.1114447E+005  0.1043930E+01  0.7957747E-01            NaN
         13   -1    0    0    0    0  0.00000000000E+00  0.00000000000E+00  0.74505805969E-08  0.10566000000E+00  0.10566000000E+00 0.  1.
     999900   -1    0    0    0    0 -0.00000000000E+00 -0.00000000000E+00 -0.74505805969E-08  0.93827000000E+00  0.93827000000E+00 0.  1.
     999902    2    1    2    0    0  0.32814708953E-02  0.47866802771E-05 -0.18799040167E-01  0.10248467093E+01  0.10246690224E+01 0.  0.
     999903    2    3    3    0    0  0.37678140904E-03 -0.13297353670E+00 -0.80954905499E-02  0.13478702717E+00  0.20491517723E-01 0.  0.
         14    1    1    2    0    0 -0.32814708953E-02 -0.47866802771E-05  0.18799040167E-01  0.19083290737E-01  0.00000000000E+00 0.  1.
     999901    1    3    3    0    0  0.29046894862E-02  0.13297832338E+00 -0.10703549617E-01  0.89005968209E+00  0.88000000000E+00 0.  1.
        -11    1    4    4    0    0 -0.29484454599E-02 -0.39625846998E-01 -0.11331504606E-01  0.41322695926E-01  0.51100000000E-03 0.  1.
         11    1    4    4    0    0  0.33252268690E-02 -0.93347689706E-01  0.32360140561E-02  0.93464331246E-01  0.51100000000E-03 0. -1.
</event>
<event>
 8    1  0.1114447E+005  0.1043930E+01  0.7957747E-01            NaN
         13   -1    0    0    0    0  0.00000000000E+00  0.00000000000E+00  0.74505805969E-08  0.10566000000E+00  0.10566000000E+00 0. -1.
     999900   -1    0    0    0    0 -0.00000000000E+00 -0.00000000000E+00 -0.74505805969E-08  0.93827000000E+00  0.93827000000E+00 0. -1.
     999902    2    1    2    0    0 -0.19311716965E-01  0.65473074763E-02 -0.11044925642E-01  0.10207394841E+01  0.10204760136E+01 0.  0.
     999903    2    3    3    0    0  0.30208653750E-01 -0.61854573872E-01 -0.10982940255E+00  0.13119496164E+00  0.20274842118E-01 0.  0.
         14    1    1    2    0    0  0.19311716965E-01 -0.65473074763E-02  0.11044925642E-01  0.23190515944E-01  0.00000000000E+00 0. -1.
     999901    1    3    3    0    0 -0.49520370715E-01  0.68401881348E-01  0.98784476913E-01  0.88954452242E+00  0.88000000000E+00 0.  1.
        -11    1    4    4    0    0  0.16550746107E-01 -0.42363890515E-01 -0.87201052272E-01  0.98350958585E-01  0.51100000000E-03 0.  1.
         11    1    4    4    0    0  0.13657907643E-01 -0.19490683357E-01 -0.22628350283E-01  0.32844003051E-01  0.51100000000E-03 0. -1.
</event>
<event>
 8    1  0.1114447E+005  0.1043930E+01  0.7957747E-01            NaN
         13   -1    0    0    0    0  0.00000000000E+00  0.00000000000E+00  0.74505805969E-08  0.10566000000E+00  0.10566000000E+00 0.  1.
     999900   -1    0    0    0    0 -0.00000000000E+00 -0.00000000000E+00 -0.74505805969E-08  0.93827000000E+00  0.93827000000E+00 0. -1.
     999902    2    1    2    0    0 -0.90574496980E-02  0.40271291067E-02 -0.14623501935E-01  0.10262635920E+01  0.10261115233E+01 0.  0.
     999903    2    3    3    0    0 -0.80269410237E-01  0.22297666482E-01  0.10462069699E+00  0.13518327301E+00  0.19714535567E-01 0.  0.
         14    1    1    2    0    0  0.90574496980E-02 -0.40271291067E-02  0.14623501935E-01  0.17666408031E-01  0.00000000000E+00 0.  1.
     999901    1    3    3    0    0  0.71211960539E-01 -0.18270537375E-01 -0.11924419892E+00  0.89108031896E+00  0.88000000000E+00 0. -1.
        -11    1    4    4    0    0 -0.24974014652E-01  0.10163893637E-03  0.41048777337E-01  0.48051794765E-01  0.51100000000E-03 0. -1.
         11    1    4    4    0    0 -0.55295395584E-01  0.22196027545E-01  0.63571919653E-01  0.87131478244E-01  0.51100000000E-03 0.  1.
</event>
<event>
 8    1  0.1114447E+005  0.1043930E+01  0.7957747E-01            NaN
         13   -1    0    0    0    0  0.00000000000E+00  0.00000000000E+00  0.74505805969E-08  0.10566000000E+00  0.10566000000E+00 0.  1.
     999900   -1    0    0    0    0 -0.00000000000E+00 -0.00000000000E+00 -0.74505805969E-08  0.93827000000E+00  0.93827000000E+00 0.  1.
     999902    2    1    2    0    0  0.19544113434E-01  0.30298747249E-02  0.10170502299E-01  0.10216905839E+01  0.10214485095E+01 0.  0.
     999903    2    3    3    0    0  0.14957801089E-02  0.61695261436E-02 -0.12888551320E+00  0.13058330912E+00  0.20005616652E-01 0.  0.
         14    1    1    2    0    0 -0.19544113434E-01 -0.30298747249E-02 -0.10170502299E-01  0.22239416085E-01  0.00000000000E+00 0. -1.
     999901    1    3    3    0    0  0.18048333325E-01 -0.31396514187E-02  0.13905601550E+00  0.89110727480E+00  0.88000000000E+00 0. -1.
        -11    1    4    4    0    0 -0.70879624288E-02  0.33267796437E-02 -0.10009123820E+00  0.10039832548E+00  0.51100000000E-03 0. -1.
         11    1    4    4    0    0  0.85837425377E-02  0.28427464999E-02 -0.28794275001E-01  0.30184983642E-01  0.51100000000E-03 0.  1.
</event>
<event>
 8    1  0.1114447E+005  0.1043930E+01  0.7957747E-01            NaN
         13   -1    0    0    0    0  0.00000000000E+00  0.00000000000E+00  0.74505805969E-08  0.10566000000E+00  0.10566000000E+00 0.  1.
     999900   -1    0    0    0    0 -0.00000000000E+00 -0.00000000000E+00 -0.74505805969E-08  0.93827000000E+00  0.93827000000E+00 0. -1.
     999902    2    1    2    0    0 -0.91596659346E-02 -0.13040776442E-01 -0.17249246629E-01  0.10204460089E+01  0.10201757492E+01 0.  0.
     999903    2    3    3    0    0 -0.25010072190E-01  0.28571960814E-01 -0.12557650878E+00  0.13268610270E+00  0.19856526306E-01 0.  0.
         14    1    1    2    0    0  0.91596659346E-02  0.13040776442E-01  0.17249246629E-01  0.23483991133E-01  0.00000000000E+00 0.  1.
     999901    1    3    3    0    0  0.15850406255E-01 -0.41612737257E-01  0.10832726215E+00  0.88775990617E+00  0.88000000000E+00 0.  1.
        -11    1    4    4    0    0 -0.28507654857E-02 -0.13222769983E-02 -0.29215232192E-01  0.29388198198E-01  0.51100000000E-03 0. -1.
         11    1    4    4    0    0 -0.22159306704E-01  0.29894237813E-01 -0.96361276583E-01  0.10329790450E+00  0.51100000000E-03 0.  1.
</event>
<event>
 8    1  0.1114447E+005  0.1043930E+01  0.7957747E-01            NaN
         13   -1    0    0    0    0  0.00000000000E+00  0.00000000000E+00  0.74505805969E-08  0.10566000000E+00  0.10566000000E+00 0.  1.
     999900   -1    0    0    0    0 -0.00000000000E+00 -0.00000000000E+00 -0.74505805969E-08  0.93827000000E+00  0.93827000000E+00 0.  1.
     999902    2    1    2    0    0 -0.30807161610E-02  0.73385892638E-03 -0.23517305275E-01  0.10202004191E+01  0.10199244100E+01 0.  0.
     999903    2    3    3    0    0  0.41971463376E-01  0.11437723579E+00 -0.46165825587E-01  0.13146115958E+00  0.17521336208E-01 0.  0.
         14    1    1    2    0    0  0.30807161610E-02 -0.73385892638E-03  0.23517305275E-01  0.23729580873E-01  0.00000000000E+00 0.  1.
     999901    1    3    3    0    0 -0.45052179537E-01 -0.11364337686E+00  0.22648520312E-01  0.88873925955E+00  0.88000000000E+00 0. -1.
        -11    1    4    4    0    0  0.27819682386E-01  0.85448689906E-01 -0.41248707478E-01  0.98879372592E-01  0.51100000000E-03 0. -1.
         11    1    4    4    0    0  0.14151780990E-01  0.28928545880E-01 -0.49171181094E-02  0.32581786990E-01  0.51100000000E-03 0.  1.
</event>
<event>
 8    1  0.1114447E+005  0.1043930E+01  0.7957747E-01            NaN
         13   -1    0    0    0    0  0.00000000000E+00  0.00000000000E+00  0.74505805969E-08  0.10566000000E+00  0.10566000000E+00 0. -1.
     999900   -1    0    0    0    0 -0.00000000000E+00 -0.00000000000E+00 -0.74505805969E-08  0.93827000000E+00  0.93827000000E+00 0. -1.
     999902    2    1    2    0    0 -0.97838947534E-02  0.18981062756E-02 -0.19974837674E-01  0.10216068832E+01  0.10213629630E+01 0.  0.
     999903    2    3    3    0    0 -0.40067285124E-02 -0.59091389956E-01 -0.11845566878E+00  0.13399685148E+00  0.20385399161E-01 0.  0.
         14    1    1    2    0    0  0.97838947534E-02 -0.18981062756E-02  0.19974837674E-01  0.22323116809E-01  0.00000000000E+00 0. -1.
     999901    1    3    3    0    0 -0.57771662410E-02  0.60989496232E-01  0.98480831109E-01  0.88761003171E+00  0.88000000000E+00 0.  1.
        -11    1    4    4    0    0 -0.42303374597E-02 -0.63122328750E-02 -0.30347499364E-01  0.31288526292E-01  0.51100000000E-03 0.  1.
         11    1    4    4    0    0  0.22360894725E-03 -0.52779157081E-01 -0.88108169419E-01  0.10270832519E+00  0.51100000000E-03 0. -1.
</event>
<event>
 8    1  0.1114447E+005  0.1043930E+01  0.7957747E-01            NaN
         13   -1    0    0    0    0  0.00000000000E+00  0.00000000000E+00  0.74505805969E-08  0.10566000000E+00  0.10566000000E+00 0.  1.
     999900   -1    0    0    0    0 -0.00000000000E+00 -0.00000000000E+00 -0.74505805969E-08  0.93827000000E+00  0.93827000000E+00 0.  1.
     999902    2    1    2    0    0 -0.19644053244E-01  0.92458409400E-02 -0.92270371847E-02  0.10203394803E+01  0.10200667343E+01 0.  0.
     999903    2    3    3    0    0 -0.69984117798E-01 -0.99576039494E-01  0.43294482310E-01  0.13065704612E+00  0.19587932914E-01 0.  0.
         14    1    1    2    0    0  0.19644053244E-01 -0.92458409400E-02  0.92270371847E-02  0.23590519658E-01  0.00000000000E+00 0.  1.
     999901    1    3    3    0    0  0.50340064554E-01  0.10882188043E+00 -0.52521519495E-01  0.88968243423E+00  0.88000000000E+00 0.  1.
        -11    1    4    4    0    0 -0.25998287319E-01 -0.53753858852E-01  0.22709012207E-01  0.63885433719E-01  0.51100000000E-03 0.  1.
         11    1    4    4    0    0 -0.43985830478E-01 -0.45822180642E-01  0.20585470103E-01  0.66771612396E-01  0.51100000000E-03 0. -1.
</event>
<event>
 8    1  0.1114447E+005  0.1043930E+01  0.7957747E-01            NaN
         13   -1    0    0    0    0  0.00000000000E+00  0.00000000000E+00  0.74505805969E-08  0.10566000000E+00  0.10566000000E+00 0. -1.
     999900   -1    0    0    0    0 -0.00000000000E+00 -0.00000000000E+00 -0.74505805969E-08  0.93827000000E+00  0.93827000000E+00 0. -1.
     999902    2    1    2    0    0  0.82467413640E-02 -0.16338343727E-01  0.13144403090E-01  0.10213972338E+01  0.10211486590E+01 0.  0.
     999903    2    3    3    0    0 -0.69651096570E-01  0.10432209653E+00 -0.22849622737E-01  0.12902814825E+00  0.19793501556E-01 0.  0.
         14    1    1    2    0    0 -0.82467413640E-02  0.16338343727E-01 -0.13144403090E-01  0.22532766174E-01  0.00000000000E+00 0. -1.
     999901    1    3    3    0    0  0.77897837934E-01 -0.12066044026E+00  0.35994025827E-01  0.89236908558E+00  0.88000000000E+00 0. -1.
        -11    1    4    4    0    0 -0.22028795618E-01  0.28862595512E-01 -0.15539746140E-01  0.39497621285E-01  0.51100000000E-03 0.  1.
         11    1    4    4    0    0 -0.47622300952E-01  0.75459501017E-01 -0.73098765973E-02  0.89530526965E-01  0.51100000000E-03 0. -1.
</event>
<event>
 8    1  0.1114447E+005  0.1043930E+01  0.7957747E-01            NaN
         13   -1    0    0    0    0  0.00000000000E+00  0.00000000000E+00  0.74505805969E-08  0.10566000000E+00  0.10566000000E+00 0.  1.
     999900   -1    0    0    0    0 -0.00000000000E+00 -0.00000000000E+00 -0.74505805969E-08  0.93827000000E+00  0.93827000000E+00 0.  1.
     999902    2    1    2    0    0 -0.13864921380E-01  0.10840652924E-01  0.14512186033E-01  0.10211186137E+01  0.10208637832E+01 0.  0.
     999903    2    3    3    0    0 -0.12204180754E+00  0.42469071848E-01 -0.23723330858E-01  0.13310704266E+00  0.21374366090E-01 0.  0.
         14    1    1    2    0    0  0.13864921380E-01 -0.10840652924E-01 -0.14512186033E-01  0.22811386283E-01  0.00000000000E+00 0. -1.
     999901    1    3    3    0    0  0.10817688616E+00 -0.31628418924E-01  0.38235516891E-01  0.88801157106E+00  0.88000000000E+00 0. -1.
        -11    1    4    4    0    0 -0.52151471936E-01  0.23703276254E-01 -0.19873987668E-01  0.60637099511E-01  0.51100000000E-03 0.  1.
         11    1    4    4    0    0 -0.69890335608E-01  0.18765795595E-01 -0.38493431903E-02  0.72469943146E-01  0.51100000000E-03 0. -1.
</event>
<event>
 8    1  0.1114447E+005  0.1043930E+01  0.7957747E-01            NaN
         13   -1    0    0    0    0  0.00000000000E+00  0.00000000000E+00  0.74505805969E-08  0.10566000000E+00  0.10566000000E+00 0.  1.
     999900   -1    0    0    0    0 -0.00000000000E+00 -0.00000000000E+00 -0.74505805969E-08  0.93827000000E+00  0.93827000000E+00 0. -1.
     999902    2    1    2    0    0 -0.14010512167E-01  0.10407147857E-01  0.17473533209E-01  0.10192332889E+01  0.10189340359E+01 0.  0.
     999903    2    3    3    0    0 -0.12690710258E+00 -0.19877307992E-01  0.20385492851E-01  0.13149950676E+00  0.19391542012E-01 0.  0.
         14    1    1    2    0    0  0.14010512167E-01 -0.10407147857E-01 -0.17473533209E-01  0.24696711127E-01  0.00000000000E+00 0. -1.
     999901    1    3    3    0    0  0.11289659041E+00  0.30284455848E-01 -0.29119596417E-02  0.88773378211E+00  0.88000000000E+00 0. -1.
        -11    1    4    4    0    0 -0.73201911782E-01 -0.29076607052E-02  0.16116710912E-01  0.75013224640E-01  0.51100000000E-03 0. -1.
         11    1    4    4    0    0 -0.53705190798E-01 -0.16969647287E-01  0.42687819388E-02  0.56486282121E-01  0.51100000000E-03 0.  1.
</event>
<event>
 8    1  0.1114447E+005  0.1043930E+01  0.7957747E-01            NaN
         13   -1    0    0    0    0  0.00000000000E+00  0.00000000000E+00  0.74505805969E-08  0.10566000000E+00  0.10566000000E+00 0. -1.
     999900   -1    0    0    0    0 -0.00000000000E+00 -0.00000000000E+00 -0.74505805969E-08  0.93827000000E+00  0.93827000000E+00 0.  1.
     999902    2    1    2    0    0  0.12293818553E-01 -0.12623988175E-01  0.14253640409E-01  0.10212657260E+01  0.10210142084E+01 0.  0.
     999903    2    3    3    0    0  0.71754270883E-01  0.10589397648E+00  0.21163709469E-01  0.13130516371E+00  0.20758944420E-01 0.  0.
         14    1    1    2    0    0 -0.12293818553E-01  0.12623988175E-01 -0.14253640409E-01  0.22664274023E-01  0.00000000000E+00 0.  1.
     999901    1    3    3    0    0 -0.59460452329E-01 -0.11851796466E+00 -0.69100690602E-02  0.88996056227E+00  0.88000000000E+00 0. -1.
        -11    1    4    4    0    0  0.15657261049E-01  0.40517812149E-01  0.68182708655E-02  0.43972637668E-01  0.51100000000E-03 0.  1.
         11    1    4    4    0    0  0.56097009834E-01  0.65376164332E-01  0.14345438604E-01  0.87332526041E-01  0.51100000000E-03 0. -1.
</event>
<event>
 8    1  0.1114447E+005  0.1043930E+01  0.7957747E-01            NaN
         13   -1    0    0    0    0  0.00000000000E+00  0.00000000000E+00  0.74505805969E-08  0.10566000000E+00  0.10566000000E+00 0. -1.
     999900   -1    0    0    0    0 -0.00000000000E+00 -0.00000000000E+00 -0.74505805969E-08  0.93827000000E+00  0.93827000000E+00 0.  1.
     999902    2    1    2    0    0 -0.68373531702E-02 -0.58504856668E-02  0.23481683023E-01  0.10187830913E+01  0.10184726899E+01 0.  0.
     999903    2    3    3    0    0 -0.61406672093E-01 -0.10100119791E+00 -0.47991280762E-01  0.12909783616E+00  0.19775411929E-01 0.  0.
         14    1    1    2    0    0  0.68373531702E-02  0.58504856668E-02 -0.23481683023E-01  0.25146908726E-01  0.00000000000E+00 0.  1.
     999901    1    3    3    0    0  0.54569318923E-01  0.95150712240E-01  0.71472963784E-01  0.88968525511E+00  0.88000000000E+00 0. -1.
        -11    1    4    4    0    0 -0.84729012583E-02 -0.16300442630E-01 -0.15565577880E-01  0.24084078172E-01  0.51100000000E-03 0.  1.
         11    1    4    4    0    0 -0.52933770835E-01 -0.84700755276E-01 -0.32425702882E-01  0.10501375799E+00  0.51100000000E-03 0. -1.
</event>
<event>
 8    1  0.1114447E+005  0.1043930E+01  0.7957747E-01            NaN
         13   -1    0    0    0    0  0.00000000000E+00  0.00000000000E+00  0.74505805969E-08  0.10566000000E+00  0.10566000000E+00 0.  1.
     999900   -1    0    0    0    0 -0.00000000000E+00 -0.00000000000E+00 -0.74505805969E-08  0.93827000000E+00  0.93827000000E+00 0. -1.
     999902    2    1    2    0    0 -0.39769740080E-02  0.17087019837E-01 -0.65863814715E-03  0.10263739078E+01  0.10262237486E+01 0.  0.
     999903    2    3    3    0    0  0.12751784231E+00  0.23711267292E-01 -0.33647520405E-01  0.13596780173E+00  0.23066494583E-01 0.  0.
         14    1    1    2    0    0  0.39769740080E-02 -0.17087019837E-01  0.65863814715E-03  0.17556092201E-01  0.00000000000E+00 0. -1.
     999901    1    3    3    0    0 -0.13149481632E+00 -0.66242474553E-02  0.32988882258E-01  0.89040610607E+00  0.88000000000E+00 0.  1.
        -11    1    4    4    0    0  0.95470477993E-01  0.23899200779E-01 -0.33349097796E-01  0.10391442350E+00  0.51100000000E-03 0.  1.
         11    1    4    4    0    0  0.32047364322E-01 -0.18793348670E-03 -0.29842260927E-03  0.32053378231E-01  0.51100000000E-03 0. -1.
</event>
<event>
 8    1  0.1114447E+005  0.1043930E+01  0.7957747E-01            NaN
         13   -1    0    0    0    0  0.00000000000E+00  0.00000000000E+00  0.74505805969E-08  0.10566000000E+00  0.10566000000E+00 0. -1.
     999900   -1    0    0    0    0 -0.00000000000E+00 -0.00000000000E+00 -0.74505805969E-08  0.93827000000E+00  0.93827000000E+00 0. -1.
     999902    2    1    2    0    0  0.19663068496E-01  0.79011410155E-02 -0.11407468566E-01  0.10198635372E+01  0.10195795407E+01 0.  0.
     999903    2    3    3    0    0  0.11855084200E+00 -0.49369393265E-01 -0.25159888972E-01  0.13236827812E+00  0.19917377076E-01 0.  0.
         14    1    1    2    0    0 -0.19663068496E-01 -0.79011410155E-02  0.11407468566E-01  0.24066462787E-01  0.00000000000E+00 0. -1.
     999901    1    3    3    0    0 -0.98887773503E-01  0.57270534280E-01  0.13752420407E-01  0.88749525909E+00  0.88000000000E+00 0.  1.
        -11    1    4    4    0    0  0.72381601164E-01 -0.30609427098E-01 -0.54616955637E-02  0.78778959461E-01  0.51100000000E-03 0. -1.
         11    1    4    4    0    0  0.46169240834E-01 -0.18759966167E-01 -0.19698193409E-01  0.53589318659E-01  0.51100000000E-03 0.  1.
</event>
<event>
 8    1  0.1114447E+005  0.1043930E+01  0.7957747E-01            NaN
         13   -1    0    0    0    0  0.00000000000E+00  0.00000000000E+00  0.74505805969E-08  0.10566000000E+00  0.10566000000E+00 0. -1.
     999900   -1    0    0    0    0 -0.00000000000E+00 -0.00000000000E+00 -0.74505805969E-08  0.93827000000E+00  0.93827000000E+00 0. -1.
     999902    2    1    2    0    0  0.16185105634E-01  0.14596884725E-01  0.96009448267E-02  0.10201139376E+01  0.10198358891E+01 0.  0.
     999903    2    3    3    0    0  0.94478474056E-01 -0.23593510093E-01  0.87477597680E-01  0.13239037088E+00  0.19800111816E-01 0.  0.
         14    1    1    2    0    0 -0.16185105634E-01 -0.14596884725E-01 -0.96009448267E-02  0.23816062429E-01  0.00000000000E+00 0.  1.
     999901    1    3    3    0    0 -0.78293368421E-01  0.38190394818E-01 -0.77876652854E-01  0.88772356669E+00  0.88000000000E+00 0.  1.
        -11    1    4    4    0    0  0.41924692247E-01 -0.20447050084E-01  0.43651739833E-01  0.63886596314E-01  0.51100000000E-03 0. -1.
         11    1    4    4    0    0  0.52553781809E-01 -0.31464600088E-02  0.43825857848E-01  0.68503774568E-01  0.51100000000E-03 0.  1.
</event>
<event>
 8    1  0.1114447E+005  0.1043930E+01  0.7957747E-01            NaN
         13   -1    0    0    0    0  0.00000000000E+00  0.00000000000E+00  0.74505805969E-08  0.10566000000E+00  0.10566000000E+00 0. -1.
     999900   -1    0    0    0    0 -0.00000000000E+00 -0.00000000000E+00 -0.74505805969E-08  0.93827000000E+00  0.93827000000E+00 0. -1.
     999902    2    1    2    0    0 -0.14341385999E-01 -0.17236798034E-01  0.74907925483E-02  0.10202890497E+01  0.10200151226E+01 0.  0.
     999903    2    3    3    0    0 -0.79217156844E-01  0.10055179729E+00  0.11651510817E-01  0.13006417337E+00  0.19872332864E-01 0.  0.
         14    1    1    2    0    0  0.14341385999E-01  0.17236798034E-01 -0.74907925483E-02  0.23640950316E-01  0.00000000000E+00 0.  1.
     999901    1    3    3    0    0  0.64875770844E-01 -0.11778859532E+00 -0.41607182686E-02  0.89022487631E+00  0.88000000000E+00 0.  1.
        -11    1    4    4    0    0 -0.58392942268E-01  0.60206735784E-01  0.36045849460E-02  0.83951419846E-01  0.51100000000E-03 0.  1.
         11    1    4    4    0    0 -0.20824214576E-01  0.40345061506E-01  0.80469258710E-02  0.46112753524E-01  0.51100000000E-03 0. -1.
</event>
<event>
 8    1  0.1114447E+005  0.1043930E+01  0.7957747E-01            NaN
         13   -1    0    0    0    0  0.00000000000E+00  0.00000000000E+00  0.74505805969E-08  0.10566000000E+00  0.10566000000E+00 0.  1.
     999900   -1    0    0    0    0 -0.00000000000E+00 -0.00000000000E+00 -0.74505805969E-08  0.93827000000E+00  0.93827000000E+00 0. -1.
     999902    2    1    2    0    0  0.11640369354E-01  0.90451890923E-02 -0.20137477046E-01  0.10189734052E+01  0.10186677421E+01 0.  0.
     999903    2    3    3    0    0 -0.10956082142E+00 -0.43409826202E-01  0.42341831555E-01  0.12692804685E+00  0.20734313972E-01 0.  0.
         14    1    1    2    0    0 -0.11640369354E-01 -0.90451890923E-02  0.20137477046E-01  0.24956594844E-01  0.00000000000E+00 0.  1.
     999901    1    3    3    0    0  0.12120119078E+00  0.52455015294E-01 -0.62479308600E-01  0.89204535831E+00  0.88000000000E+00 0. -1.
        -11    1    4    4    0    0 -0.20330037209E-01 -0.17221383251E-01  0.86556689790E-02  0.28019068159E-01  0.51100000000E-03 0. -1.
         11    1    4    4    0    0 -0.89230784213E-01 -0.26188442951E-01  0.33686162576E-01  0.98908978690E-01  0.51100000000E-03 0.  1.
</event>
<event>
 8    1  0.1114447E+005  0.1043930E+01  0.7957747E-01            NaN
         13   -1    0    0    0    0  0.00000000000E+00  0.00000000000E+00  0.74505805969E-08  0.10566000000E+00  0.10566000000E+00 0. -1.
     999900   -1    0    0    0    0 -0.00000000000E+00 -0.00000000000E+00 -0.74505805969E-08  0.93827000000E+00  0.93827000000E+00 0. -1.
     999902    2    1    2    0    0  0.17316235574E-01 -0.90736339830E-02  0.14028811454E-01  0.10198677807E+01  0.10195838855E+01 0.  0.
     999903    2    3    3    0    0  0.61682617630E-01 -0.82243354827E-01 -0.78492674221E-01  0.13088948554E+00  0.20055991325E-01 0.  0.
         14    1    1    2    0    0 -0.17316235574E-01  0.90736339830E-02 -0.14028811454E-01  0.24062219326E-01  0.00000000000E+00 0.  1.
     999901    1    3    3    0    0 -0.44366382056E-01  0.73169720844E-01  0.92521485675E-01  0.88897829513E+00  0.88000000000E+00 0.  1.
        -11    1    4    4    0    0  0.53285271803E-01 -0.60156010724E-01 -0.53808638394E-01  0.96714510308E-01  0.51100000000E-03 0.  1.
         11    1    4    4    0    0  0.83973458264E-02 -0.22087344103E-01 -0.24684035827E-01  0.34174975233E-01  0.51100000000E-03 0. -1.
</event>
<event>
 8    1  0.1114447E+005  0.1043930E+01  0.7957747E-01            NaN
         13   -1    0    0    0    0  0.00000000000E+00  0.00000000000E+00  0.74505805969E-08  0.10566000000E+00  0.10566000000E+00 0. -1.
     999900   -1    0    0    0    0 -0.00000000000E+00 -0.00000000000E+00 -0.74505805969E-08  0.93827000000E+00  0.93827000000E+00 0.  1.
     999902    2    1    2    0    0  0.46090395754E-02 -0.22674153069E-01  0.51188382289E-02  0.10202326802E+01  0.10199574298E+01 0.  0.
     999903    2    3    3    0    0  0.57544917672E-01 -0.50953403643E-01 -0.10466191691E+00  0.13138300928E+00  0.19992783307E-01 0.  0.
         14    1    1    2    0    0 -0.46090395754E-02  0.22674153069E-01 -0.51188382289E-02  0.23697319849E-01  0.00000000000E+00 0. -1.
     999901    1    3    3    0    0 -0.52935878096E-01  0.28279250574E-01  0.10978075514E+00  0.88884967087E+00  0.88000000000E+00 0. -1.
        -11    1    4    4    0    0  0.12302972193E-01 -0.18224604981E-01 -0.42278939222E-01  0.47657834343E-01  0.51100000000E-03 0.  1.
         11    1    4    4    0    0  0.45241945479E-01 -0.32728798663E-01 -0.62382977687E-01  0.83725174940E-01  0.51100000000E-03 0. -1.
</event>
<event>
 8    1  0.1114447E+005  0.1043930E+01  0.7957747E-01            NaN
         13   -1    0    0    0    0  0.00000000000E+00  0.00000000000E+00  0.74505805969E-08  0.10566000000E+00  0.10566000000E+00 0.  1.
     999900   -1    0    0    0    0 -0.00000000000E+00 -0.00000000000E+00 -0.74505805969E-08  0.93827000000E+00  0.93827000000E+00 0.  1.
     999902    2    1    2    0    0 -0.18684862689E-01 -0.12490051386E-01  0.88306555884E-02  0.10197824131E+01  0.10194964757E+01 0.  0.
     999903    2    3    3    0    0  0.10195756910E+00 -0.76443189171E-01  0.79490603917E-02  0.12925146053E+00  0.20095905615E-01 0.  0.
         14    1    1    2    0    0  0.18684862689E-01  0.12490051386E-01 -0.88306555884E-02  0.24147586949E-01  0.00000000000E+00 0.  1.
     999901    1    3    3    0    0 -0.12064243179E+00  0.63953137784E-01  0.88159519662E-03  0.89053095252E+00  0.88000000000E+00 0. -1.
        -11    1    4    4    0    0  0.80156440628E-01 -0.50979781246E-01  0.93621775577E-03  0.95000687865E-01  0.51100000000E-03 0. -1.
         11    1    4    4    0    0  0.21801128468E-01 -0.25463407925E-01  0.70128426360E-02  0.34250772670E-01  0.51100000000E-03 0.  1.
</event>
<event>
 8    1  0.1114447E+005  0.1043930E+01  0.7957747E-01            NaN
         13   -1    0    0    0    0  0.00000000000E+00  0.00000000000E+00  0.74505805969E-08  0.10566000000E+00  0.10566000000E+00 0.  1.
     999900   -1    0    0    0    0 -0.00000000000E+00 -0.00000000000E+00 -0.74505805969E-08  0.93827000000E+00  0.93827000000E+00 0.  1.
     999902    2    1    2    0    0 -0.41047272891E-02  0.74506550165E-03 -0.23504252763E-01  0.10200583891E+01  0.10197790267E+01 0.  0.
     999903    2    3    3    0    0  0.93227136444E-01 -0.49759473917E-01 -0.75881198188E-01  0.13170736355E+00  0.20532149432E-01 0.  0.
         14    1    1    2    0    0  0.41047272891E-02 -0.74506550165E-03  0.23504252763E-01  0.23871610893E-01  0.00000000000E+00 0.  1.
     999901    1    3    3    0    0 -0.97331863733E-01  0.50504539419E-01  0.52376945425E-01  0.88835102556E+00  0.88000000000E+00 0.  1.
        -11    1    4    4    0    0  0.30773129782E-01 -0.59467786939E-02 -0.23067849132E-01  0.38919615595E-01  0.51100000000E-03 0.  1.
         11    1    4    4    0    0  0.62454006661E-01 -0.43812695223E-01 -0.52813349056E-01  0.92787747953E-01  0.51100000000E-03 0. -1.
</event>
<event>
 8    1  0.1114447E+005  0.1043930E+01  0.7957747E-01            NaN
         13   -1    0    0    0    0  0.00000000000E+00  0.00000000000E+00  0.74505805969E-08  0.10566000000E+00  0.10566000000E+00 0. -1.
     999900   -1    0    0    0    0 -0.00000000000E+00 -0.00000000000E+00 -0.74505805969E-08  0.93827000000E+00  0.93827000000E+00 0.  1.
     999902    2    1    2    0    0 -0.12661214472E-01 -0.91074133506E-02 -0.17443779217E-01  0.10205304965E+01  0.10202622004E+01 0.  0.
     999903    2    3    3    0    0 -0.10301580787E+00 -0.63777184163E-01 -0.52483994490E-01  0.13352398410E+00  0.19856957488E-01 0.  0.
         14    1    1    2    0    0  0.12661214472E-01  0.91074133506E-02  0.17443779217E-01  0.23399503482E-01  0.00000000000E+00 0. -1.
     999901    1    3    3    0    0  0.90354593400E-01  0.54669770812E-01  0.35040215272E-01  0.88700651242E+00  0.88000000000E+00 0. -1.
        -11    1    4    4    0    0 -0.49429300930E-01 -0.37002603792E-01 -0.17619762589E-01  0.64211880774E-01  0.51100000000E-03 0.  1.
         11    1    4    4    0    0 -0.53586506941E-01 -0.26774580371E-01 -0.34864231900E-01  0.69312103324E-01  0.51100000000E-03 0. -1.
</event>
<event>
 8    1  0.1114447E+005  0.1043930E+01  0.7957747E-01            NaN
         13   -1    0    0    0    0  0.00000000000E+00  0.00000000000E+00  0.74505805969E-08  0.10566000000E+00  0.10566000000E+00 0. -1.
     999900   -1    0    0    0    0 -0.00000000000E+00 -0.00000000000E+00 -0.74505805969E-08  0.93827000000E+00  0.93827000000E+00 0.  1.
     999902    2    1    2    0    0 -0.94610953272E-03  0.20125890179E-03  0.23721601523E-01  0.10201886856E+01  0.10199124003E+01 0.  0.
     999903    2    3    3    0    0  0.38571425129E-02  0.19376935557E-01 -0.12452047396E+00  0.12757091149E+00  0.19458824289E-01 0.  0.
         14    1    1    2    0    0  0.94610953272E-03 -0.20125890179E-03 -0.23721601523E-01  0.23741314353E-01  0.00000000000E+00 0.  1.
     999901    1    3    3    0    0 -0.48032520456E-02 -0.19175676655E-01  0.14824207548E+00  0.89261777416E+00  0.88000000000E+00 0. -1.
        -11    1    4    4    0    0 -0.55528249179E-02  0.15940596523E-01 -0.62357340810E-01  0.64603680669E-01  0.51100000000E-03 0. -1.
         11    1    4    4    0    0  0.94099674309E-02  0.34363390340E-02 -0.62163133148E-01  0.62967230817E-01  0.51100000000E-03 0.  1.
</event>
<event>
 8    1  0.1114447E+005  0.1043930E+01  0.7957747E-01            NaN
         13   -1    0    0    0    0  0.00000000000E+00  0.00000000000E+00  0.74505805969E-08  0.10566000000E+00  0.10566000000E+00 0. -1.
     999900   -1    0    0    0    0 -0.00000000000E+00 -0.00000000000E+00 -0.74505805969E-08  0.93827000000E+00  0.93827000000E+00 0. -1.
     999902    2    1    2    0    0  0.17695580158E-01  0.10213054333E-01  0.12128018685E-01  0.10201701836E+01  0.10198934624E+01 0.  0.
     999903    2    3    3    0    0 -0.11777332562E+00 -0.42795816062E-01 -0.14964505560E-01  0.12781612295E+00  0.20272808363E-01 0.  0.
         14    1    1    2    0    0 -0.17695580158E-01 -0.10213054333E-01 -0.12128018685E-01  0.23759816354E-01  0.00000000000E+00 0.  1.
     999901    1    3    3    0    0  0.13546890578E+00  0.53008870395E-01  0.27092524244E-01  0.89235406070E+00  0.88000000000E+00 0.  1.
        -11    1    4    4    0    0 -0.64290746601E-01 -0.33965680694E-01 -0.95360318097E-02  0.73335970623E-01  0.51100000000E-03 0. -1.
         11    1    4    4    0    0 -0.53482579020E-01 -0.88301353678E-02 -0.54284737501E-02  0.54480152326E-01  0.51100000000E-03 0.  1.
</event>
<event>
 8    1  0.1114447E+005  0.1043930E+01  0.7957747E-01            NaN
         13   -1    0    0    0    0  0.00000000000E+00  0.00000000000E+00  0.74505805969E-08  0.10566000000E+00  0.10566000000E+00 0.  1.
     999900   -1    0    0    0    0 -0.00000000000E+00 -0.00000000000E+00 -0.74505805969E-08  0.93827000000E+00  0.93827000000E+00 0.  1.
     999902    2    1    2    0    0  0.11962814312E-01 -0.18814998131E-01  0.96027997094E-02  0.10196539451E+01  0.10193649204E+01 0.  0.
     999903    2    3    3    0    0  0.11492703060E+00  0.85605190507E-02 -0.58766442392E-01  0.13059522820E+00  0.17891730662E-01 0.  0.
         14    1    1    2    0    0 -0.11962814312E-01  0.18814998131E-01 -0.96027997094E-02  0.24276054934E-01  0.00000000000E+00 0.  1.
     999901    1    3    3    0    0 -0.10296421629E+00 -0.27375517182E-01  0.68369242102E-01  0.88905871687E+00  0.88000000000E+00 0. -1.
        -11    1    4    4    0    0  0.37614137149E-01  0.48997928026E-02 -0.28661632393E-01  0.47545573667E-01  0.51100000000E-03 0. -1.
         11    1    4    4    0    0  0.77312893455E-01  0.36607262480E-02 -0.30104809999E-01  0.83049654528E-01  0.51100000000E-03 0.  1.
</event>
<event>
 8    1  0.1114447E+005  0.1043930E+01  0.7957747E-01            NaN
         13   -1    0    0    0    0  0.00000000000E+00  0.00000000000E+00  0.74505805969E-08  0.10566000000E+00  0.10566000000E+00 0.  1.
     999900   -1    0    0    0    0 -0.00000000000E+00 -0.00000000000E+00 -0.74505805969E-08  0.93827000000E+00  0.93827000000E+00 0. -1.
     999902    2    1    2    0    0  0.17616404268E-01 -0.73124065094E-02 -0.31192538885E-02  0.10246028498E+01  0.10244205490E+01 0.  0.
     999903    2    3    3    0    0 -0.57166198174E-01 -0.11970146108E+00 -0.58802292173E-02  0.13430438293E+00  0.20166213802E-01 0.  0.
         14    1    1    2    0    0 -0.17616404268E-01  0.73124065094E-02  0.31192538885E-02  0.19327150155E-01  0.00000000000E+00 0.  1.
     999901    1    3    3    0    0  0.74782602441E-01  0.11238905457E+00  0.27609753288E-02  0.89029846692E+00  0.88000000000E+00 0.  1.
        -11    1    4    4    0    0 -0.11157059594E-01 -0.10178749457E-01 -0.33707340903E-02  0.15482567248E-01  0.51100000000E-03 0. -1.
         11    1    4    4    0    0 -0.46009138580E-01 -0.10952271162E+00 -0.25094951270E-02  0.11882181568E+00  0.51100000000E-03 0.  1.
</event>
<event>
 8    1  0.1114447E+005  0.1043930E+01  0.7957747E-01            NaN
         13   -1    0    0    0    0  0.00000000000E+00  0.00000000000E+00  0.74505805969E-08  0.10566000000E+00  0.10566000000E+00 0. -1.
     999900   -1    0    0    0    0 -0.00000000000E+00 -0.00000000000E+00 -0.74505805969E-08  0.93827000000E+00  0.93827000000E+00 0. -1.
     999902    2    1    2    0    0  0.19477533804E-01 -0.10217663186E-01 -0.92230884347E-02  0.10200796263E+01  0.10198007667E+01 0.  0.
     999903    2    3    3    0    0 -0.33247075442E-01  0.23565539875E-01  0.12002146907E+00  0.12843768874E+00  0.20745702105E-01 0.  0.
         14    1    1    2    0    0 -0.19477533804E-01  0.10217663186E-01  0.92230884347E-02  0.23850373673E-01  0.00000000000E+00 0. -1.
     999901    1    3    3    0    0  0.52724609246E-01 -0.33783203061E-01 -0.12924455750E+00  0.89164193759E+00  0.88000000000E+00 0. -1.
        -11    1    4    4    0    0 -0.31397409912E-01  0.11395971483E-01  0.87029491565E-01  0.93220486151E-01  0.51100000000E-03 0.  1.
         11    1    4    4    0    0 -0.18496655302E-02  0.12169568392E-01  0.32991977501E-01  0.35217202584E-01  0.51100000000E-03 0. -1.
</event>
<event>
 8    1  0.1114447E+005  0.1043930E+01  0.7957747E-01            NaN
         13   -1    0    0    0    0  0.00000000000E+00  0.00000000000E+00  0.74505805969E-08  0.10566000000E+00  0.10566000000E+00 0. -1.
     999900   -1    0    0    0    0 -0.00000000000E+00 -0.00000000000E+00 -0.74505805969E-08  0.93827000000E+00  0.93827000000E+00 0. -1.
     999902    2    1    2    0    0 -0.19817913379E-01  0.73281027154E-03  0.98218900293E-02  0.10217995634E+01  0.10215598815E+01 0.  0.
     999903    2    3    3    0    0  0.84963931675E-01  0.89003274945E-01  0.39502301341E-01  0.13070370051E+00  0.19559470348E-01 0.  0.
         14    1    1    2    0    0  0.19817913379E-01 -0.73281027154E-03 -0.98218900293E-02  0.22130436628E-01  0.00000000000E+00 0.  1.
     999901    1    3    3    0    0 -0.10478184505E+00 -0.88270464674E-01 -0.29680411312E-01  0.89109586286E+00  0.88000000000E+00 0. -1.
        -11    1    4    4    0    0  0.44459875334E-01  0.58254844302E-01  0.28761784377E-01  0.78726163128E-01  0.51100000000E-03 0. -1.
         11    1    4    4    0    0  0.40504056341E-01  0.30748430644E-01  0.10740516964E-01  0.51977537386E-01  0.51100000000E-03 0.  1.
</event>
<event>
 8    1  0.1114447E+005  0.1043930E+01  0.7957747E-01            NaN
         13   -1    0    0    0    0  0.00000000000E+00  0.00000000000E+00  0.74505805969E-08  0.10566000000E+00  0.10566000000E+00 0. -1.
     999900   -1    0    0    0    0 -0.00000000000E+00 -0.00000000000E+00 -0.74505805969E-08  0.93827000000E+00  0.93827000000E+00 0. -1.
     999902    2    1    2    0    0 -0.25908820876E-02  0.22872330540E-01  0.69400523368E-02  0.10198879431E+01  0.10196045292E+01 0.  0.
     999903    2    3    3    0    0  0.90323620602E-01 -0.80892324788E-01  0.37242057480E-01  0.12841813427E+00  0.20057958932E-01 0.  0.
         14    1    1    2    0    0  0.25908820876E-02 -0.22872330540E-01 -0.69400523368E-02  0.24042056916E-01  0.00000000000E+00 0. -1.
     999901    1    3    3    0    0 -0.92914502690E-01  0.10376465533E+00 -0.30302005143E-01  0.89146980881E+00  0.88000000000E+00 0. -1.
        -11    1    4    4    0    0  0.28426569475E-01 -0.38041770897E-01  0.11614727951E-01  0.48891811293E-01  0.51100000000E-03 0. -1.
         11    1    4    4    0    0  0.61897051127E-01 -0.42850553892E-01  0.25627329530E-01  0.79526322981E-01  0.51100000000E-03 0.  1.
</event>
<event>
 8    1  0.1114447E+005  0.1043930E+01  0.7957747E-01            NaN
         13   -1    0    0    0    0  0.00000000000E+00  0.00000000000E+00  0.74505805969E-08  0.10566000000E+00  0.10566000000E+00 0.  1.
     999900   -1    0    0    0    0 -0.00000000000E+00 -0.00000000000E+00 -0.74505805969E-08  0.93827000000E+00  0.93827000000E+00 0.  1.
     999902    2    1    2    0    0  0.21444246315E-01  0.52058783484E-02  0.83948843051E-02  0.10203200243E+01  0.10200468230E+01 0.  0.
     999903    2    3    3    0    0 -0.36648538565E-01 -0.90318195172E-01  0.83756411714E-01  0.13005097504E+00  0.19940608019E-01 0.  0.
         14    1    1    2    0    0 -0.21444246315E-01 -0.52058783484E-02 -0.83948843051E-02  0.23609975686E-01  0.00000000000E+00 0. -1.
     999901    1    3    3    0    0  0.58092784880E-01  0.95524073520E-01 -0.75361527409E-01  0.89026904927E+00  0.88000000000E+00 0.  1.
        -11    1    4    4    0    0 -0.20501873762E-01 -0.44598373469E-01  0.29439521201E-01  0.57238870301E-01  0.51100000000E-03 0.  1.
         11    1    4    4    0    0 -0.16146664803E-01 -0.45719821703E-01  0.54316890513E-01  0.72812104741E-01  0.51100000000E-03 0. -1.
</event>
<event>
 8    1  0.1114447E+005  0.1043930E+01  0.7957747E-01            NaN
         13   -1    0    0    0    0  0.00000000000E+00  0.00000000000E+00  0.74505805969E-08  0.10566000000E+00  0.10566000000E+00 0.  1.
     999900   -1    0    0    0    0 -0.00000000000E+00 -0.00000000000E+00 -0.74505805969E-08  0.93827000000E+00  0.93827000000E+00 0. -1.
     999902    2    1    2    0    0 -0.81387475304E-02  0.16610099869E-01 -0.99834387507E-02  0.10229108735E+01  0.10226948966E+01 0.  0.
     999903    2    3    3    0    0 -0.23338364862E-01 -0.12629032400E+00  0.15436334293E-01  0.13089196992E+00  0.20012550084E-01 0.  0.
         14    1    1    2    0    0  0.81387475304E-02 -0.16610099869E-01  0.99834387507E-02  0.21019126488E-01  0.00000000000E+00 0.  1.
     999901    1    3    3    0    0  0.15199617331E-01  0.14290042387E+00 -0.25419773044E-01  0.89201890360E+00  0.88000000000E+00 0. -1.
        -11    1    4    4    0    0 -0.25359148545E-01 -0.89897431231E-01  0.85815771716E-02  0.93800528488E-01  0.51100000000E-03 0. -1.
         11    1    4    4    0    0  0.20207836834E-02 -0.36392892772E-01  0.68547571218E-02  0.37091441428E-01  0.51100000000E-03 0.  1.
</event>
<event>
 8    1  0.1114447E+005  0.1043930E+01  0.7957747E-01            NaN
         13   -1    0    0    0    0  0.00000000000E+00  0.00000000000E+00  0.74505805969E-08  0.10566000000E+00  0.10566000000E+00 0.  1.
     999900   -1    0    0    0    0 -0.00000000000E+00 -0.00000000000E+00 -0.74505805969E-08  0.93827000000E+00  0.93827000000E+00 0. -1.
     999902    2    1    2    0    0 -0.15066337356E-01 -0.16746675910E-01 -0.61442166891E-02  0.10205805445E+01  0.10203134081E+01 0.  0.
     999903    2    3    3    0    0  0.12722265695E+00 -0.89320095885E-02 -0.46480054428E-02  0.12911575797E+00  0.19593105006E-01 0.  0.
         14    1    1    2    0    0  0.15066337356E-01  0.16746675910E-01  0.61442166891E-02  0.23349455541E-01  0.00000000000E+00 0. -1.
     999901    1    3    3    0    0 -0.14228899431E+00 -0.78146663210E-02 -0.14962112463E-02  0.89146478649E+00  0.88000000000E+00 0.  1.
        -11    1    4    4    0    0  0.86170300748E-01 -0.14246172786E-01  0.91040726404E-03  0.87346231358E-01  0.51100000000E-03 0.  1.
         11    1    4    4    0    0  0.41052356202E-01  0.53141631972E-02 -0.55584127069E-02  0.41769526607E-01  0.51100000000E-03 0. -1.
</event>
<event>
 8    1  0.1114447E+005  0.1043930E+01  0.7957747E-01            NaN
         13   -1    0    0    0    0  0.00000000000E+00  0.00000000000E+00  0.74505805969E-08  0.10566000000E+00  0.10566000000E+00 0.  1.
     999900   -1    0    0    0    0 -0.00000000000E+00 -0.00000000000E+00 -0.74505805969E-08  0.93827000000E+00  0.93827000000E+00 0.  1.
     999902    2    1    2    0    0  0.19716927332E-01  0.42293489799E-02 -0.11609024425E-01  0.10206616940E+01  0.10203964325E+01 0.  0.
     999903    2    3    3    0    0 -0.30265234364E-01 -0.98436298751E-01 -0.77836555295E-01  0.13081646163E+00  0.21183200210E-01 0.  0.
         14    1    1    2    0    0 -0.19716927332E-01 -0.42293489799E-02  0.11609024425E-01  0.23268306005E-01  0.00000000000E+00 0.  1.
     999901    1    3    3    0    0  0.49982161697E-01  0.10266564773E+00  0.66227530870E-01  0.88984523236E+00  0.88000000000E+00 0. -1.
        -11    1    4    4    0    0 -0.16095921777E-01 -0.21829644291E-01 -0.17577573506E-01  0.32324051094E-01  0.51100000000E-03 0.  1.
         11    1    4    4    0    0 -0.14169312588E-01 -0.76606654460E-01 -0.60258981789E-01  0.98492410540E-01  0.51100000000E-03 0. -1.
</event>
<event>
 8    1  0.1114447E+005  0.1043930E+01  0.7957747E-01            NaN
         13   -1    0    0    0    0  0.00000000000E+00  0.00000000000E+00  0.74505805969E-08  0.10566000000E+00  0.10566000000E+00 0.  1.
     999900   -1    0    0    0    0 -0.00000000000E+00 -0.00000000000E+00 -0.74505805969E-08  0.93827000000E+00  0.93827000000E+00 0. -1.
     999902    2    1    2    0    0 -0.22546562928E-01 -0.17046608518E-02 -0.57411612234E-02  0.10206015988E+01  0.10203349495E+01 0.  0.
     999903    2    3    3    0    0 -0.12580856378E+00 -0.40414304658E-01  0.23969376181E-03  0.13369842038E+00  0.20349432864E-01 0.  0.
         14    1    1    2    0    0  0.22546562928E-01  0.17046608518E-02  0.57411612234E-02  0.23328401160E-01  0.00000000000E+00 0.  1.
     999901    1    3    3    0    0  0.10326200085E+00  0.38709643806E-01 -0.59808549852E-02  0.88690317846E+00  0.88000000000E+00 0. -1.
        -11    1    4    4    0    0 -0.24358389200E-01 -0.30182294276E-02 -0.63998331275E-02  0.25370451678E-01  0.51100000000E-03 0.  1.
         11    1    4    4    0    0 -0.10145017458E+00 -0.37396075230E-01  0.66395268893E-02  0.10832796870E+00  0.51100000000E-03 0. -1.
</event>
<event>
 8    1  0.1114447E+005  0.1043930E+01  0.7957747E-01            NaN
         13   -1    0    0    0    0  0.00000000000E+00  0.00000000000E+00  0.74505805969E-08  0.10566000000E+00  0.10566000000E+00 0.  1.
     999900   -1    0    0    0    0 -0.00000000000E+00 -0.00000000000E+00 -0.74505805969E-08  0.93827000000E+00  0.93827000000E+00 0. -1.
     999902    2    1    2    0    0 -0.21862838446E-01  0.93617473235E-03  0.90319479790E-02  0.10202564660E+01  0.10199817744E+01 0.  0.
     999903    2    3    3    0    0 -0.21184825545E-01  0.12122510065E+00  0.41835104213E-01  0.13146744015E+00  0.19727899375E-01 0.  0.
         14    1    1    2    0    0  0.21862838446E-01 -0.93617473235E-03 -0.90319479790E-02  0.23673534006E-01  0.00000000000E+00 0.  1.
     999901    1    3    3    0    0 -0.67801290125E-03 -0.12028892592E+00 -0.32803156234E-01  0.88878902584E+00  0.88000000000E+00 0. -1.
        -11    1    4    4    0    0 -0.96885383504E-02  0.19545823762E-01  0.30410364364E-02  0.22032158894E-01  0.51100000000E-03 0. -1.
         11    1    4    4    0    0 -0.11496287194E-01  0.10167927689E+00  0.38794067776E-01  0.10943528126E+00  0.51100000000E-03 0.  1.
</event>
<event>
 8    1  0.1166461E+005  0.1043930E+01  0.7957747E-01            NaN
         13   -1    0    0    0    0  0.00000000000E+00  0.00000000000E+00  0.74505805969E-08  0.10566000000E+00  0.10566000000E+00 0. -1.
     999900   -1    0    0    0    0 -0.00000000000E+00 -0.00000000000E+00 -0.74505805969E-08  0.93827000000E+00  0.93827000000E+00 0.  1.
     999902    2    1    2    0    0 -0.68487332771E-02 -0.14399805707E-01 -0.16807174720E-01  0.10207623356E+01  0.10204993901E+01 0.  0.
     999903    2    3    3    0    0  0.40861871236E-01  0.96001108003E-01 -0.75347495412E-01  0.13065468330E+00  0.22527670635E-01 0.  0.
         14    1    1    2    0    0  0.68487332771E-02  0.14399805707E-01  0.16807174720E-01  0.23167664404E-01  0.00000000000E+00 0.  1.
     999901    1    3    3    0    0 -0.47710604513E-01 -0.11040091371E+00  0.58540320692E-01  0.89010765230E+00  0.88000000000E+00 0. -1.
        -11    1    4    4    0    0  0.33457094192E-01  0.50644064913E-01 -0.45373273376E-01  0.75783860554E-01  0.51100000000E-03 0.  1.
         11    1    4    4    0    0  0.74047770439E-02  0.45357043090E-01 -0.29974222037E-01  0.54870822744E-01  0.51100000000E-03 0. -1.
</event>
<event>
 8    1  0.1114447E+005  0.1043930E+01  0.7957747E-01            NaN
         13   -1    0    0    0    0  0.00000000000E+00  0.00000000000E+00  0.74505805969E-08  0.10566000000E+00  0.10566000000E+00 0. -1.
     999900   -1    0    0    0    0 -0.00000000000E+00 -0.00000000000E+00 -0.74505805969E-08  0.93827000000E+00  0.93827000000E+00 0. -1.
     999902    2    1    2    0    0  0.22193383099E-01 -0.63538349116E-02 -0.70563852601E-02  0.10197906122E+01  0.10195048713E+01 0.  0.
     999903    2    3    3    0    0  0.67691163953E-01 -0.19304373517E-01 -0.11042601463E+00  0.13247835328E+00  0.20046367915E-01 0.  0.
         14    1    1    2    0    0 -0.22193383099E-01  0.63538349116E-02  0.70563852601E-02  0.24139387822E-01  0.00000000000E+00 0. -1.
     999901    1    3    3    0    0 -0.45497780854E-01  0.12950538606E-01  0.10336962937E+00  0.88731225890E+00  0.88000000000E+00 0.  1.
        -11    1    4    4    0    0  0.43422812101E-01 -0.21168115359E-01 -0.80702333202E-01  0.94057202934E-01  0.51100000000E-03 0. -1.
         11    1    4    4    0    0  0.24268351852E-01  0.18637418419E-02 -0.29723681429E-01  0.38421150347E-01  0.51100000000E-03 0.  1.
</event>
<event>
 8    1  0.1114447E+005  0.1043930E+01  0.7957747E-01            NaN
         13   -1    0    0    0    0  0.00000000000E+00  0.00000000000E+00  0.74505805969E-08  0.10566000000E+00  0.10566000000E+00 0. -1.
     999900   -1    0    0    0    0 -0.00000000000E+00 -0.00000000000E+00 -0.74505805969E-08  0.93827000000E+00  0.93827000000E+00 0.  1.
     999902    2    1    2    0    0  0.46346688285E-03  0.31686050993E-02 -0.23602265986E-01  0.10201114816E+01  0.10198333751E+01 0.  0.
     999903    2    3    3    0    0 -0.84773198820E-01 -0.84880472489E-01 -0.50588649928E-01  0.13120980302E+00  0.16297578279E-01 0.  0.
         14    1    1    2    0    0 -0.46346688285E-03 -0.31686050993E-02  0.23602265986E-01  0.23818518415E-01  0.00000000000E+00 0. -1.
     999901    1    3    3    0    0  0.85236665703E-01  0.88049077589E-01  0.26986383942E-01  0.88890167857E+00  0.88000000000E+00 0.  1.
        -11    1    4    4    0    0 -0.13296553286E-01 -0.16767924757E-01 -0.15488397605E-01  0.26421832096E-01  0.51100000000E-03 0. -1.
         11    1    4    4    0    0 -0.71476645534E-01 -0.68112547732E-01 -0.35100252324E-01  0.10478797092E+00  0.51100000000E-03 0.  1.
</event>
<event>
 8    1  0.1114447E+005  0.1043930E+01  0.7957747E-01            NaN
         13   -1    0    0    0    0  0.00000000000E+00  0.00000000000E+00  0.74505805969E-08  0.10566000000E+00  0.10566000000E+00 0.  1.
     999900   -1    0    0    0    0 -0.00000000000E+00 -0.00000000000E+00 -0.74505805969E-08  0.93827000000E+00  0.93827000000E+00 0.  1.
     999902    2    1    2    0    0 -0.21969913770E-01  0.75155743799E-02  0.37282905456E-02  0.10204127485E+01  0.10201417137E+01 0.  0.
     999903    2    3    3    0    0 -0.46936728913E-01 -0.25148461535E-01  0.11915692165E+00  0.13192299052E+00  0.19230231690E-01 0.  0.
         14    1    1    2    0    0  0.21969913770E-01 -0.75155743799E-02 -0.37282905456E-02  0.23517251534E-01  0.00000000000E+00 0. -1.
     999901    1    3    3    0    0  0.24966815143E-01  0.32664035915E-01 -0.11542863111E+00  0.88848975795E+00  0.88000000000E+00 0.  1.
        -11    1    4    4    0    0 -0.42958044656E-01 -0.16743003145E-01  0.87243748925E-01  0.98678541753E-01  0.51100000000E-03 0. -1.
         11    1    4    4    0    0 -0.39786842570E-02 -0.84054583894E-02  0.31913172727E-01  0.33244448764E-01  0.51100000000E-03 0.  1.
</event>
<event>
 8    1  0.1114447E+005  0.1043930E+01  0.7957747E-01            NaN
         13   -1    0    0    0    0  0.00000000000E+00  0.00000000000E+00  0.74505805969E-08  0.10566000000E+00  0.10566000000E+00 0.  1.
     999900   -1    0    0    0    0 -0.00000000000E+00 -0.00000000000E+00 -0.74505805969E-08  0.93827000000E+00  0.93827000000E+00 0. -1.
     999902    2    1    2    0    0  0.13649821973E-01 -0.15729241555E-01 -0.11731062834E-01  0.10200271860E+01  0.10197470842E+01 0.  0.
     999903    2    3    3    0    0  0.88165646396E-01 -0.54223437912E-01 -0.81405269173E-01  0.13329785515E+00  0.20691493772E-01 0.  0.
         14    1    1    2    0    0 -0.13649821973E-01  0.15729241555E-01  0.11731062834E-01  0.23902813956E-01  0.00000000000E+00 0.  1.
     999901    1    3    3    0    0 -0.74515824423E-01  0.38494196357E-01  0.69674206340E-01  0.88672933090E+00  0.88000000000E+00 0.  1.
        -11    1    4    4    0    0  0.69150082545E-01 -0.46644177056E-01 -0.55126107333E-01  0.99982808521E-01  0.51100000000E-03 0. -1.
         11    1    4    4    0    0  0.19015563851E-01 -0.75792608558E-02 -0.26279161840E-01  0.33315046627E-01  0.51100000000E-03 0.  1.
</event>
<event>
 8    1  0.1114447E+005  0.1043930E+01  0.7957747E-01            NaN
         13   -1    0    0    0    0  0.00000000000E+00  0.00000000000E+00  0.74505805969E-08  0.10566000000E+00  0.10566000000E+00 0.  1.
     999900   -1    0    0    0    0 -0.00000000000E+00 -0.00000000000E+00 -0.74505805969E-08  0.93827000000E+00  0.93827000000E+00 0.  1.
     999902    2    1    2    0    0 -0.16174518111E-01 -0.57030773416E-02 -0.15426114652E-01  0.10208625957E+01  0.10206019470E+01 0.  0.
     999903    2    3    3    0    0  0.63982381238E-01  0.10850279093E+00  0.20237932679E-01  0.12915634748E+00  0.20129267964E-01 0.  0.
         14    1    1    2    0    0  0.16174518111E-01  0.57030773416E-02  0.15426114652E-01  0.23067404287E-01  0.00000000000E+00 0.  1.
     999901    1    3    3    0    0 -0.80156899348E-01 -0.11420586827E+00 -0.35664047331E-01  0.89170624823E+00  0.88000000000E+00 0.  1.
        -11    1    4    4    0    0  0.16199248541E-01  0.41206817454E-01  0.45308307171E-03  0.44281868335E-01  0.51100000000E-03 0. -1.
         11    1    4    4    0    0  0.47783132696E-01  0.67295973471E-01  0.19784849607E-01  0.84874479148E-01  0.51100000000E-03 0.  1.
</event>
<event>
 8    1  0.1114447E+005  0.1043930E+01  0.7957747E-01            NaN
         13   -1    0    0    0    0  0.00000000000E+00  0.00000000000E+00  0.74505805969E-08  0.10566000000E+00  0.10566000000E+00 0. -1.
     999900   -1    0    0    0    0 -0.00000000000E+00 -0.00000000000E+00 -0.74505805969E-08  0.93827000000E+00  0.93827000000E+00 0. -1.
     999902    2    1    2    0    0 -0.19388711864E-01  0.36550002035E-02 -0.10120217779E-01  0.10217556909E+01  0.10215150474E+01 0.  0.
     999903    2    3    3    0    0  0.82695481310E-01  0.18832212462E-01  0.95642351243E-01  0.12943441961E+00  0.20312921330E-01 0.  0.
         14    1    1    2    0    0  0.19388711864E-01 -0.36550002035E-02  0.10120217779E-01  0.22174309057E-01  0.00000000000E+00 0. -1.
     999901    1    3    3    0    0 -0.10208419317E+00 -0.15177212258E-01 -0.10576256902E+00  0.89232127133E+00  0.88000000000E+00 0.  1.
        -11    1    4    4    0    0  0.62551600570E-01  0.19305639067E-01  0.61700673895E-01  0.89959128018E-01  0.51100000000E-03 0.  1.
         11    1    4    4    0    0  0.20143880741E-01 -0.47342660502E-03  0.33941677349E-01  0.39475291592E-01  0.51100000000E-03 0. -1.
</event>
<event>
 8    1  0.1114447E+005  0.1043930E+01  0.7957747E-01            NaN
         13   -1    0    0    0    0  0.00000000000E+00  0.00000000000E+00  0.74505805969E-08  0.10566000000E+00  0.10566000000E+00 0.  1.
     999900   -1    0    0    0    0 -0.00000000000E+00 -0.00000000000E+00 -0.74505805969E-08  0.93827000000E+00  0.93827000000E+00 0. -1.
     999902    2    1    2    0    0 -0.47749201099E-02 -0.63318251959E-03 -0.26465899783E-01  0.10170293563E+01  0.10166735301E+01 0.  0.
     999903    2    3    3    0    0 -0.86157459639E-01  0.84697892145E-01  0.33976969777E-01  0.12710921910E+00  0.20136492250E-01 0.  0.
         14    1    1    2    0    0  0.47749201099E-02  0.63318251959E-03  0.26465899783E-01  0.26900643738E-01  0.00000000000E+00 0.  1.
     999901    1    3    3    0    0  0.81382539529E-01 -0.85331074665E-01 -0.60442869560E-01  0.88992013716E+00  0.88000000000E+00 0. -1.
        -11    1    4    4    0    0 -0.64768984979E-01  0.74292181327E-01  0.25026700363E-01  0.10169044436E+00  0.51100000000E-03 0.  1.
         11    1    4    4    0    0 -0.21388474660E-01  0.10405710818E-01  0.89502694138E-02  0.25418774744E-01  0.51100000000E-03 0. -1.
</event>
<event>
 8    1  0.1114447E+005  0.1043930E+01  0.7957747E-01            NaN
         13   -1    0    0    0    0  0.00000000000E+00  0.00000000000E+00  0.74505805969E-08  0.10566000000E+00  0.10566000000E+00 0. -1.
     999900   -1    0    0    0    0 -0.00000000000E+00 -0.00000000000E+00 -0.74505805969E-08  0.93827000000E+00  0.93827000000E+00 0. -1.
     999902    2    1    2    0    0  0.18556274860E-01 -0.14978853458E-01  0.36610386659E-02  0.10198031562E+01  0.10195177158E+01 0.  0.
     999903    2    3    3    0    0 -0.10733330160E-02 -0.40485514488E-01 -0.12207804581E+00  0.13028293236E+00  0.20745222784E-01 0.  0.
         14    1    1    2    0    0 -0.18556274860E-01  0.14978853458E-01 -0.36610386659E-02  0.24126843799E-01  0.00000000000E+00 0.  1.
     999901    1    3    3    0    0  0.19629607876E-01  0.25506661030E-01  0.12573908447E+00  0.88952022384E+00  0.88000000000E+00 0.  1.
        -11    1    4    4    0    0 -0.26069232346E-02 -0.12060884083E-02 -0.30292646795E-01  0.30432815658E-01  0.51100000000E-03 0.  1.
         11    1    4    4    0    0  0.15335902186E-02 -0.39279426080E-01 -0.91785399012E-01  0.99850116700E-01  0.51100000000E-03 0. -1.
</event>
<event>
 8    1  0.1114447E+005  0.1043930E+01  0.7957747E-01            NaN
         13   -1    0    0    0    0  0.00000000000E+00  0.00000000000E+00  0.74505805969E-08  0.10566000000E+00  0.10566000000E+00 0.  1.
     999900   -1    0    0    0    0 -0.00000000000E+00 -0.00000000000E+00 -0.74505805969E-08  0.93827000000E+00  0.93827000000E+00 0.  1.
     999902    2    1    2    0    0 -0.21057193575E-01  0.17687196273E-01 -0.23561079835E-01  0.10077172012E+01  0.10070663289E+01 0.  0.
     999903    2    3    3    0    0  0.34616993789E-03  0.10102161983E+00  0.60756335862E-01  0.11950992995E+00  0.19641881343E-01 0.  0.
         14    1    1    2    0    0  0.21057193575E-01 -0.17687196273E-01  0.23561079835E-01  0.36212798791E-01  0.00000000000E+00 0.  1.
     999901    1    3    3    0    0 -0.21403363513E-01 -0.83334423561E-01 -0.84317415697E-01  0.88820727125E+00  0.88000000000E+00 0.  1.
        -11    1    4    4    0    0 -0.53725078803E-03  0.97714431411E-01  0.53344172917E-01  0.11132951383E+00  0.51100000000E-03 0. -1.
         11    1    4    4    0    0  0.88342072593E-03  0.33071884238E-02  0.74121629452E-02  0.81804161248E-02  0.51100000000E-03 0.  1.
</event>
<event>
 8    1  0.1114447E+005  0.1043930E+01  0.7957747E-01            NaN
         13   -1    0    0    0    0  0.00000000000E+00  0.00000000000E+00  0.74505805969E-08  0.10566000000E+00  0.10566000000E+00 0. -1.
     999900   -1    0    0    0    0 -0.00000000000E+00 -0.00000000000E+00 -0.74505805969E-08  0.93827000000E+00  0.93827000000E+00 0.  1.
     999902    2    1    2    0    0 -0.20380161224E-01 -0.24984006568E-02  0.96255107772E-02  0.10212530638E+01  0.10210012619E+01 0.  0.
     999903    2    3    3    0    0 -0.22978078386E-01  0.11930480454E+00 -0.45517335521E-01  0.13114997794E+00  0.19153600402E-01 0.  0.
         14    1    1    2    0    0  0.20380161224E-01  0.24984006568E-02 -0.96255107772E-02  0.22676936192E-01  0.00000000000E+00 0.  1.
     999901    1    3    3    0    0  0.25979171619E-02 -0.12180320520E+00  0.55142846298E-01  0.89010308587E+00  0.88000000000E+00 0. -1.
        -11    1    4    4    0    0  0.15514430580E-03  0.37168167596E-01 -0.84899314861E-02  0.38129212027E-01  0.51100000000E-03 0.  1.
         11    1    4    4    0    0 -0.23133222691E-01  0.82136636945E-01 -0.37027404035E-01  0.93020765914E-01  0.51100000000E-03 0. -1.
</event>
<event>
 8    1  0.1114447E+005  0.1043930E+01  0.7957747E-01            NaN
         13   -1    0    0    0    0  0.00000000000E+00  0.00000000000E+00  0.74505805969E-08  0.10566000000E+00  0.10566000000E+00 0. -1.
     999900   -1    0    0    0    0 -0.00000000000E+00 -0.00000000000E+00 -0.74505805969E-08  0.93827000000E+00  0.93827000000E+00 0.  1.
     999902    2    1    2    0    0 -0.42653887592E-02 -0.17439463478E-01 -0.16103747101E-01  0.10198123903E+01  0.10195271709E+01 0.  0.
     999903    2    3    3    0    0 -0.76358743535E-01 -0.98190029937E-01  0.37885923309E-01  0.13153710058E+00  0.19867711271E-01 0.  0.
         14    1    1    2    0    0  0.42653887592E-02  0.17439463478E-01  0.16103747101E-01  0.24117609715E-01  0.00000000000E+00 0. -1.
     999901    1    3    3    0    0  0.72093354776E-01  0.80750566460E-01 -0.53989670410E-01  0.88827528970E+00  0.88000000000E+00 0. -1.
        -11    1    4    4    0    0 -0.71123445406E-01 -0.81727007255E-01  0.29276273930E-01  0.11222838116E+00  0.51100000000E-03 0. -1.
         11    1    4    4    0    0 -0.52352981294E-02 -0.16463022682E-01  0.86096493783E-02  0.19308719423E-01  0.51100000000E-03 0.  1.
</event>
<event>
 8    1  0.1114447E+005  0.1043930E+01  0.7957747E-01            NaN
         13   -1    0    0    0    0  0.00000000000E+00  0.00000000000E+00  0.74505805969E-08  0.10566000000E+00  0.10566000000E+00 0.  1.
     999900   -1    0    0    0    0 -0.00000000000E+00 -0.00000000000E+00 -0.74505805969E-08  0.93827000000E+00  0.93827000000E+00 0. -1.
     999902    2    1    2    0    0 -0.11654860599E-01 -0.48163837650E-03  0.20871915806E-01  0.10200196545E+01  0.10197393741E+01 0.  0.
     999903    2    3    3    0    0  0.99439688392E-01 -0.74880880834E-01  0.30112066706E-01  0.12987212379E+00  0.21555371357E-01 0.  0.
         14    1    1    2    0    0  0.11654860599E-01  0.48163837650E-03 -0.20871915806E-01  0.23910345470E-01  0.00000000000E+00 0. -1.
     999901    1    3    3    0    0 -0.11109454899E+00  0.74399242458E-01 -0.92401509003E-02  0.89014753074E+00  0.88000000000E+00 0.  1.
        -11    1    4    4    0    0  0.59578294251E-01 -0.34992465323E-01  0.24009665526E-01  0.73148964004E-01  0.51100000000E-03 0.  1.
         11    1    4    4    0    0  0.39861394140E-01 -0.39888415512E-01  0.61024011800E-02  0.56723159785E-01  0.51100000000E-03 0. -1.
</event>
<event>
 8    1  0.1114447E+005  0.1043930E+01  0.7957747E-01            NaN
         13   -1    0    0    0    0  0.00000000000E+00  0.00000000000E+00  0.74505805969E-08  0.10566000000E+00  0.10566000000E+00 0. -1.
     999900   -1    0    0    0    0 -0.00000000000E+00 -0.00000000000E+00 -0.74505805969E-08  0.93827000000E+00  0.93827000000E+00 0. -1.
     999902    2    1    2    0    0 -0.18133132368E-01 -0.90863526805E-02  0.39435568091E-03  0.10236438517E+01  0.10234428208E+01 0.  0.
     999903    2    3    3    0    0 -0.66577227504E-01 -0.84623595486E-01  0.77621397491E-01  0.13571552052E+00  0.28283228728E-01 0.  0.
         14    1    1    2    0    0  0.18133132368E-01  0.90863526805E-02 -0.39435568091E-03  0.20286148253E-01  0.00000000000E+00 0. -1.
     999901    1    3    3    0    0  0.48444095135E-01  0.75537242806E-01 -0.77227041810E-01  0.88792833122E+00  0.88000000000E+00 0. -1.
        -11    1    4    4    0    0 -0.34579016181E-01 -0.34775645503E-01  0.19655721761E-01  0.52836184563E-01  0.51100000000E-03 0. -1.
         11    1    4    4    0    0 -0.31998211323E-01 -0.49847949983E-01  0.57965675730E-01  0.82879335960E-01  0.51100000000E-03 0.  1.
</event>
<event>
 8    1  0.1114447E+005  0.1043930E+01  0.7957747E-01            NaN
         13   -1    0    0    0    0  0.00000000000E+00  0.00000000000E+00  0.74505805969E-08  0.10566000000E+00  0.10566000000E+00 0. -1.
     999900   -1    0    0    0    0 -0.00000000000E+00 -0.00000000000E+00 -0.74505805969E-08  0.93827000000E+00  0.93827000000E+00 0. -1.
     999902    2    1    2    0    0 -0.21658327228E-01 -0.64794428868E-02  0.52373209320E-02  0.10207244867E+01  0.10204606714E+01 0.  0.
     999903    2    3    3    0    0  0.12144091153E+00  0.19369221628E-01  0.30900664402E-01  0.12842176181E+00  0.20352791129E-01 0.  0.
         14    1    1    2    0    0  0.21658327228E-01  0.64794428868E-02 -0.52373209320E-02  0.23205513332E-01  0.00000000000E+00 0.  1.
     999901    1    3    3    0    0 -0.14309923876E+00 -0.25848664515E-01 -0.25663343470E-01  0.89230272486E+00  0.88000000000E+00 0. -1.
        -11    1    4    4    0    0  0.25877636754E-01  0.12680328659E-01  0.59961286949E-02  0.29439047186E-01  0.51100000000E-03 0. -1.
         11    1    4    4    0    0  0.95563274775E-01  0.66888929692E-02  0.24904535707E-01  0.98982714625E-01  0.51100000000E-03 0.  1.
</event>
<event>
 8    1  0.1114447E+005  0.1043930E+01  0.7957747E-01            NaN
         13   -1    0    0    0    0  0.00000000000E+00  0.00000000000E+00  0.74505805969E-08  0.10566000000E+00  0.10566000000E+00 0. -1.
     999900   -1    0    0    0    0 -0.00000000000E+00 -0.00000000000E+00 -0.74505805969E-08  0.93827000000E+00  0.93827000000E+00 0.  1.
     999902    2    1    2    0    0 -0.16575412120E-01 -0.53146007189E-02 -0.26263229930E-01  0.10124221198E+01  0.10119317181E+01 0.  0.
     999903    2    3    3    0    0 -0.43107596672E-01 -0.83967916990E-01  0.75578610362E-01  0.12266818674E+00  0.20651433835E-01 0.  0.
         14    1    1    2    0    0  0.16575412120E-01  0.53146007189E-02  0.26263229930E-01  0.31507880190E-01  0.00000000000E+00 0.  1.
     999901    1    3    3    0    0  0.26532184553E-01  0.78653316272E-01 -0.10184184029E+00  0.88975393307E+00  0.88000000000E+00 0. -1.
        -11    1    4    4    0    0 -0.99321908944E-02 -0.17614698657E-01  0.63597795580E-02  0.21204573605E-01  0.51100000000E-03 0. -1.
         11    1    4    4    0    0 -0.33175405778E-01 -0.66353218334E-01  0.69218830804E-01  0.10146361314E+00  0.51100000000E-03 0.  1.
</event>
<event>
 8    1  0.1114447E+005  0.1043930E+01  0.7957747E-01            NaN
         13   -1    0    0    0    0  0.00000000000E+00  0.00000000000E+00  0.74505805969E-08  0.10566000000E+00  0.10566000000E+00 0.  1.
     999900   -1    0    0    0    0 -0.00000000000E+00 -0.00000000000E+00 -0.74505805969E-08  0.93827000000E+00  0.93827000000E+00 0.  1.
     999902    2    1    2    0    0 -0.80532404872E-03  0.22665052946E-01 -0.72002658982E-02  0.10201351056E+01  0.10198575570E+01 0.  0.
     999903    2    3    3    0    0  0.12750195843E+00  0.19478369550E-01  0.71210462082E-02  0.13070944051E+00  0.19952249400E-01 0.  0.
         14    1    1    2    0    0  0.80532404872E-03 -0.22665052946E-01  0.72002658982E-02  0.23794894429E-01  0.00000000000E+00 0.  1.
     999901    1    3    3    0    0 -0.12830728248E+00  0.31866833962E-02 -0.14321312106E-01  0.88942566506E+00  0.88000000000E+00 0. -1.
        -11    1    4    4    0    0  0.83676187344E-01  0.12626293081E-01  0.14134623963E-01  0.85797297866E-01  0.51100000000E-03 0.  1.
         11    1    4    4    0    0  0.43825771084E-01  0.68520764693E-02 -0.70135777550E-02  0.44912142645E-01  0.51100000000E-03 0. -1.
</event>
<event>
 8    1  0.1114447E+005  0.1043930E+01  0.7957747E-01            NaN
         13   -1    0    0    0    0  0.00000000000E+00  0.00000000000E+00  0.74505805969E-08  0.10566000000E+00  0.10566000000E+00 0.  1.
     999900   -1    0    0    0    0 -0.00000000000E+00 -0.00000000000E+00 -0.74505805969E-08  0.93827000000E+00  0.93827000000E+00 0. -1.
     999902    2    1    2    0    0 -0.77220469780E-02  0.21280603715E-02  0.22309176713E-01  0.10202264556E+01  0.10199510590E+01 0.  0.
     999903    2    3    3    0    0  0.11211539041E+00 -0.62382462636E-01 -0.31117831466E-02  0.12940164446E+00  0.16542973823E-01 0.  0.
         14    1    1    2    0    0  0.77220469780E-02 -0.21280603715E-02 -0.22309176713E-01  0.23703544378E-01  0.00000000000E+00 0. -1.
     999901    1    3    3    0    0 -0.11983743739E+00  0.64510523008E-01  0.25420959860E-01  0.89082481116E+00  0.88000000000E+00 0.  1.
        -11    1    4    4    0    0  0.74177415576E-01 -0.37704558253E-01  0.52405004254E-02  0.83376535429E-01  0.51100000000E-03 0. -1.
         11    1    4    4    0    0  0.37937974837E-01 -0.24677904383E-01 -0.83522835719E-02  0.46025109032E-01  0.51100000000E-03 0.  1.
</event>
<event>
 8    1  0.1114447E+005  0.1043930E+01  0.7957747E-01            NaN
         13   -1    0    0    0    0  0.00000000000E+00  0.00000000000E+00  0.74505805969E-08  0.10566000000E+00  0.10566000000E+00 0.  1.
     999900   -1    0    0    0    0 -0.00000000000E+00 -0.00000000000E+00 -0.74505805969E-08  0.93827000000E+00  0.93827000000E+00 0. -1.
     999902    2    1    2    0    0 -0.13861867566E-01 -0.92331757658E-02  0.12712540494E-01  0.10229773965E+01  0.10227627986E+01 0.  0.
     999903    2    3    3    0    0  0.10122291711E+00 -0.40577984854E-01 -0.70002766448E-01  0.13108680528E+00  0.19766421139E-01 0.  0.
         14    1    1    2    0    0  0.13861867566E-01  0.92331757658E-02 -0.12712540494E-01  0.20952603489E-01  0.00000000000E+00 0. -1.
     999901    1    3    3    0    0 -0.11508478468E+00  0.31344809089E-01  0.82715306942E-01  0.89189059123E+00  0.88000000000E+00 0.  1.
        -11    1    4    4    0    0  0.18261834859E-01 -0.19868241860E-02 -0.56570088426E-02  0.19227713146E-01  0.51100000000E-03 0.  1.
         11    1    4    4    0    0  0.82961082254E-01 -0.38591160668E-01 -0.64345757606E-01  0.11185909214E+00  0.51100000000E-03 0. -1.
</event>
<event>
 8    1  0.1114447E+005  0.1043930E+01  0.7957747E-01            NaN
         13   -1    0    0    0    0  0.00000000000E+00  0.00000000000E+00  0.74505805969E-08  0.10566000000E+00  0.10566000000E+00 0. -1.
     999900   -1    0    0    0    0 -0.00000000000E+00 -0.00000000000E+00 -0.74505805969E-08  0.93827000000E+00  0.93827000000E+00 0.  1.
     999902    2    1    2    0    0 -0.67320219007E-02  0.13418007849E-01  0.18096313361E-01  0.10204174584E+01  0.10201465335E+01 0.  0.
     999903    2    3    3    0    0  0.12790589447E-02  0.11796662549E+00  0.58525082153E-01  0.13327086615E+00  0.20449396116E-01 0.  0.
         14    1    1    2    0    0  0.67320219007E-02 -0.13418007849E-01 -0.18096313361E-01  0.23512541563E-01  0.00000000000E+00 0.  1.
     999901    1    3    3    0    0 -0.80110808455E-02 -0.10454861764E+00 -0.40428768792E-01  0.88714659229E+00  0.88000000000E+00 0.  1.
        -11    1    4    4    0    0 -0.12378556271E-02  0.62737205005E-01  0.42202278752E-01  0.75622633062E-01  0.51100000000E-03 0.  1.
         11    1    4    4    0    0  0.25169145718E-02  0.55229420483E-01  0.16322803402E-01  0.57648233084E-01  0.51100000000E-03 0. -1.
</event>
<event>
 8    1  0.1114447E+005  0.1043930E+01  0.7957747E-01            NaN
         13   -1    0    0    0    0  0.00000000000E+00  0.00000000000E+00  0.74505805969E-08  0.10566000000E+00  0.10566000000E+00 0. -1.
     999900   -1    0    0    0    0 -0.00000000000E+00 -0.00000000000E+00 -0.74505805969E-08  0.93827000000E+00  0.93827000000E+00 0. -1.
     999902    2    1    2    0    0  0.16837656623E-01  0.81588111633E-02  0.14737575732E-01  0.10201125900E+01  0.10198345098E+01 0.  0.
     999903    2    3    3    0    0 -0.34432353714E-01 -0.11544497513E+00 -0.39215396301E-01  0.12836294289E+00  0.20641427630E-01 0.  0.
         14    1    1    2    0    0 -0.16837656623E-01 -0.81588111633E-02 -0.14737575732E-01  0.23817409990E-01  0.00000000000E+00 0. -1.
     999901    1    3    3    0    0  0.51270010338E-01  0.12360378630E+00  0.53952972033E-01  0.89174964712E+00  0.88000000000E+00 0. -1.
        -11    1    4    4    0    0 -0.32361523719E-01 -0.94584541405E-01 -0.39238367693E-01  0.10739373497E+00  0.51100000000E-03 0.  1.
         11    1    4    4    0    0 -0.20708299954E-02 -0.20860433729E-01  0.22971391994E-04  0.20969207923E-01  0.51100000000E-03 0. -1.
</event>
<event>
 8    1  0.1114447E+005  0.1043930E+01  0.7957747E-01            NaN
         13   -1    0    0    0    0  0.00000000000E+00  0.00000000000E+00  0.74505805969E-08  0.10566000000E+00  0.10566000000E+00 0. -1.
     999900   -1    0    0    0    0 -0.00000000000E+00 -0.00000000000E+00 -0.74505805969E-08  0.93827000000E+00  0.93827000000E+00 0.  1.
     999902    2    1    2    0    0  0.17379674970E-01 -0.86447828698E-03 -0.15798530950E-01  0.10204269363E+01  0.10201562323E+01 0.  0.
     999903    2    3    3    0    0 -0.88839967078E-01  0.60611703572E-01 -0.70747483680E-01  0.13021273693E+00  0.19591632174E-01 0.  0.
         14    1    1    2    0    0 -0.17379674970E-01  0.86447828698E-03  0.15798530950E-01  0.23503063736E-01  0.00000000000E+00 0. -1.
     999901    1    3    3    0    0  0.10621964205E+00 -0.61476181859E-01  0.54948952729E-01  0.89021419934E+00  0.88000000000E+00 0. -1.
        -11    1    4    4    0    0 -0.75387425691E-01  0.42146201568E-01 -0.53705816882E-01  0.10170615589E+00  0.51100000000E-03 0.  1.
         11    1    4    4    0    0 -0.13452541387E-01  0.18465502004E-01 -0.17041666798E-01  0.28506581034E-01  0.51100000000E-03 0. -1.
</event>
<event>
 8    1  0.1114447E+005  0.1043930E+01  0.7957747E-01            NaN
         13   -1    0    0    0    0  0.00000000000E+00  0.00000000000E+00  0.74505805969E-08  0.10566000000E+00  0.10566000000E+00 0.  1.
     999900   -1    0    0    0    0 -0.00000000000E+00 -0.00000000000E+00 -0.74505805969E-08  0.93827000000E+00  0.93827000000E+00 0. -1.
     999902    2    1    2    0    0 -0.38769106236E-03 -0.10721260984E-01 -0.21557119158E-01  0.10198508570E+01  0.10195665576E+01 0.  0.
     999903    2    3    3    0    0 -0.41571958256E-01 -0.99507453405E-01 -0.75085093639E-01  0.13280836879E+00  0.19243974058E-01 0.  0.
         14    1    1    2    0    0  0.38769106236E-03  0.10721260984E-01  0.21557119158E-01  0.24079143004E-01  0.00000000000E+00 0.  1.
     999901    1    3    3    0    0  0.41184267194E-01  0.88786192421E-01  0.53527974482E-01  0.88704248821E+00  0.88000000000E+00 0. -1.
        -11    1    4    4    0    0 -0.55544034187E-02 -0.74420853462E-02 -0.11775130174E-02  0.93746301017E-02  0.51100000000E-03 0.  1.
         11    1    4    4    0    0 -0.36017554838E-01 -0.92065368059E-01 -0.73907580622E-01  0.12343373869E+00  0.51100000000E-03 0. -1.
</event>
<event>
 8    1  0.1114447E+005  0.1043930E+01  0.7957747E-01            NaN
         13   -1    0    0    0    0  0.00000000000E+00  0.00000000000E+00  0.74505805969E-08  0.10566000000E+00  0.10566000000E+00 0.  1.
     999900   -1    0    0    0    0 -0.00000000000E+00 -0.00000000000E+00 -0.74505805969E-08  0.93827000000E+00  0.93827000000E+00 0.  1.
     999902    2    1    2    0    0  0.18796224222E-01  0.11419779923E-01  0.11742353088E-02  0.10219052810E+01  0.10216679084E+01 0.  0.
     999903    2    3    3    0    0 -0.89149511972E-01  0.29809366745E-01  0.88875532010E-01  0.13079250682E+00  0.19276561393E-01 0.  0.
         14    1    1    2    0    0 -0.18796224222E-01 -0.11419779923E-01 -0.11742353088E-02  0.22024719001E-01  0.00000000000E+00 0. -1.
     999901    1    3    3    0    0  0.10794573619E+00 -0.18389586822E-01 -0.87701296701E-01  0.89111277418E+00  0.88000000000E+00 0.  1.
        -11    1    4    4    0    0 -0.57552306944E-01  0.13986634121E-01  0.66068551611E-01  0.88731102786E-01  0.51100000000E-03 0.  1.
         11    1    4    4    0    0 -0.31597205027E-01  0.15822732623E-01  0.22806980399E-01  0.42061404032E-01  0.51100000000E-03 0. -1.
</event>
<event>
 8    1  0.1114447E+005  0.1043930E+01  0.7957747E-01            NaN
         13   -1    0    0    0    0  0.00000000000E+00  0.00000000000E+00  0.74505805969E-08  0.10566000000E+00  0.10566000000E+00 0. -1.
     999900   -1    0    0    0    0 -0.00000000000E+00 -0.00000000000E+00 -0.74505805969E-08  0.93827000000E+00  0.93827000000E+00 0. -1.
     999902    2    1    2    0    0  0.20041951489E-01  0.86639504171E-02  0.86437466152E-02  0.10204468526E+01  0.10201766125E+01 0.  0.
     999903    2    3    3    0    0 -0.97014316935E-01 -0.13592504082E-01  0.82438207769E-01  0.12935586833E+00  0.18448542335E-01 0.  0.
         14    1    1    2    0    0 -0.20041951489E-01 -0.86639504171E-02 -0.86437466152E-02  0.23483147402E-01  0.00000000000E+00 0.  1.
     999901    1    3    3    0    0  0.11705626842E+00  0.22256454499E-01 -0.73794461153E-01  0.89109098427E+00  0.88000000000E+00 0. -1.
        -11    1    4    4    0    0 -0.13907690233E-01 -0.41417956382E-02  0.21179023228E-01  0.25678599350E-01  0.51100000000E-03 0. -1.
         11    1    4    4    0    0 -0.83106626702E-01 -0.94507084442E-02  0.61259184541E-01  0.10367726898E+00  0.51100000000E-03 0.  1.
</event>
<event>
 8    1  0.1114447E+005  0.1043930E+01  0.7957747E-01            NaN
         13   -1    0    0    0    0  0.00000000000E+00  0.00000000000E+00  0.74505805969E-08  0.10566000000E+00  0.10566000000E+00 0. -1.
     999900   -1    0    0    0    0 -0.00000000000E+00 -0.00000000000E+00 -0.74505805969E-08  0.93827000000E+00  0.93827000000E+00 0. -1.
     999902    2    1    2    0    0  0.27324275731E-02  0.16430756334E-01 -0.16512976377E-01  0.10204754844E+01  0.10202059105E+01 0.  0.
     999903    2    3    3    0    0  0.92047439072E-02 -0.11963144392E+00  0.40549120107E-01  0.12816898095E+00  0.19663337728E-01 0.  0.
         14    1    1    2    0    0 -0.27324275731E-02 -0.16430756334E-01  0.16512976377E-01  0.23454515620E-01  0.00000000000E+00 0. -1.
     999901    1    3    3    0    0 -0.64723163340E-02  0.13606220025E+00 -0.57062096483E-01  0.89230650343E+00  0.88000000000E+00 0.  1.
        -11    1    4    4    0    0  0.76911418248E-03 -0.70092776708E-01  0.14571027394E-01  0.71597240474E-01  0.51100000000E-03 0. -1.
         11    1    4    4    0    0  0.84356297247E-02 -0.49538667211E-01  0.25978092713E-01  0.56571740471E-01  0.51100000000E-03 0.  1.
</event>
<event>
 8    1  0.1114447E+005  0.1043930E+01  0.7957747E-01            NaN
         13   -1    0    0    0    0  0.00000000000E+00  0.00000000000E+00  0.74505805969E-08  0.10566000000E+00  0.10566000000E+00 0.  1.
     999900   -1    0    0    0    0 -0.00000000000E+00 -0.00000000000E+00 -0.74505805969E-08  0.93827000000E+00  0.93827000000E+00 0. -1.
     999902    2    1    2    0    0 -0.89678278341E-02  0.13042182782E-03 -0.21959822925E-01  0.10202092755E+01  0.10199334749E+01 0.  0.
     999903    2    3    3    0    0  0.10509577278E+00  0.34680004010E-01  0.61497165933E-01  0.12826238945E+00  0.20530830356E-01 0.  0.
         14    1    1    2    0    0  0.89678278341E-02 -0.13042182782E-03  0.21959822925E-01  0.23720724458E-01  0.00000000000E+00 0.  1.
     999901    1    3    3    0    0 -0.11406360062E+00 -0.34549582183E-01 -0.83456988857E-01  0.89194688609E+00  0.88000000000E+00 0. -1.
        -11    1    4    4    0    0  0.35606196363E-01  0.20157395980E-02  0.22113774228E-01  0.41965992865E-01  0.51100000000E-03 0. -1.
         11    1    4    4    0    0  0.69489576421E-01  0.32664264412E-01  0.39383391705E-01  0.86296396588E-01  0.51100000000E-03 0.  1.
</event>
<event>
 8    1  0.1114447E+005  0.1043930E+01  0.7957747E-01            NaN
         13   -1    0    0    0    0  0.00000000000E+00  0.00000000000E+00  0.74505805969E-08  0.10566000000E+00  0.10566000000E+00 0.  1.
     999900   -1    0    0    0    0 -0.00000000000E+00 -0.00000000000E+00 -0.74505805969E-08  0.93827000000E+00  0.93827000000E+00 0. -1.
     999902    2    1    2    0    0 -0.17074466540E-01 -0.11366283572E-01  0.10109680572E-01  0.10210622181E+01  0.10208061117E+01 0.  0.
     999903    2    3    3    0    0  0.74030234489E-01  0.24497739881E-01  0.10318110647E+00  0.13075407755E+00  0.19226887091E-01 0.  0.
         14    1    1    2    0    0  0.17074466540E-01  0.11366283572E-01 -0.10109680572E-01  0.22867781946E-01  0.00000000000E+00 0.  1.
     999901    1    3    3    0    0 -0.91104701028E-01 -0.35864023453E-01 -0.93071425893E-01  0.89030814050E+00  0.88000000000E+00 0. -1.
        -11    1    4    4    0    0  0.10628337304E-01  0.97268268486E-02  0.12234702505E-01  0.18908246370E-01  0.51100000000E-03 0.  1.
         11    1    4    4    0    0  0.63401897184E-01  0.14770913032E-01  0.90946403960E-01  0.11184583118E+00  0.51100000000E-03 0. -1.
</event>
<event>
 8    1  0.1114447E+005  0.1043930E+01  0.7957747E-01            NaN
         13   -1    0    0    0    0  0.00000000000E+00  0.00000000000E+00  0.74505805969E-08  0.10566000000E+00  0.10566000000E+00 0.  1.
     999900   -1    0    0    0    0 -0.00000000000E+00 -0.00000000000E+00 -0.74505805969E-08  0.93827000000E+00  0.93827000000E+00 0.  1.
     999902    2    1    2    0    0 -0.14115922455E-01  0.19054484179E-01  0.37808238776E-02  0.10199169356E+01  0.10196342129E+01 0.  0.
     999903    2    3    3    0    0 -0.15060397610E-01  0.12241005925E+00  0.45212611017E-01  0.13289954007E+00  0.20175960304E-01 0.  0.
         14    1    1    2    0    0  0.14115922455E-01 -0.19054484179E-01 -0.37808238776E-02  0.24013064429E-01  0.00000000000E+00 0.  1.
     999901    1    3    3    0    0  0.94447515464E-03 -0.10335557507E+00 -0.41431787139E-01  0.88701739550E+00  0.88000000000E+00 0.  1.
        -11    1    4    4    0    0 -0.17971414399E-01  0.96160197468E-01  0.41334946429E-01  0.10620072613E+00  0.51100000000E-03 0.  1.
         11    1    4    4    0    0  0.29110167893E-02  0.26249861784E-01  0.38776645877E-02  0.26698813946E-01  0.51100000000E-03 0. -1.
</event>
<event>
 8    1  0.1114447E+005  0.1043930E+01  0.7957747E-01            NaN
         13   -1    0    0    0    0  0.00000000000E+00  0.00000000000E+00  0.74505805969E-08  0.10566000000E+00  0.10566000000E+00 0.  1.
     999900   -1    0    0    0    0 -0.00000000000E+00 -0.00000000000E+00 -0.74505805969E-08  0.93827000000E+00  0.93827000000E+00 0. -1.
     999902    2    1    2    0    0 -0.13997081275E-01 -0.83006511715E-02  0.16718762749E-01  0.10205989880E+01  0.10203322783E+01 0.  0.
     999903    2    3    3    0    0 -0.38511685902E-01 -0.59984565128E-01 -0.10693180046E+00  0.13011504394E+00  0.20352314534E-01 0.  0.
         14    1    1    2    0    0  0.13997081275E-01  0.83006511715E-02 -0.16718762749E-01  0.23331012021E-01  0.00000000000E+00 0. -1.
     999901    1    3    3    0    0  0.24514604627E-01  0.51683913957E-01  0.12365056321E+00  0.89048394403E+00  0.88000000000E+00 0.  1.
        -11    1    4    4    0    0 -0.22708106660E-01 -0.17944527182E-01 -0.36578162146E-01  0.46646406409E-01  0.51100000000E-03 0. -1.
         11    1    4    4    0    0 -0.15803579242E-01 -0.42040037947E-01 -0.70353638312E-01  0.83468637536E-01  0.51100000000E-03 0.  1.
</event>
<event>
 8    1  0.1114447E+005  0.1043930E+01  0.7957747E-01            NaN
         13   -1    0    0    0    0  0.00000000000E+00  0.00000000000E+00  0.74505805969E-08  0.10566000000E+00  0.10566000000E+00 0. -1.
     999900   -1    0    0    0    0 -0.00000000000E+00 -0.00000000000E+00 -0.74505805969E-08  0.93827000000E+00  0.93827000000E+00 0. -1.
     999902    2    1    2    0    0 -0.15548058969E-02 -0.84122186672E-02 -0.22245757568E-01  0.10200960626E+01  0.10198175917E+01 0.  0.
     999903    2    3    3    0    0 -0.86890073417E-01 -0.90798165396E-01  0.29909141380E-01  0.13060762217E+00  0.19225049608E-01 0.  0.
         14    1    1    2    0    0  0.15548058969E-02  0.84122186672E-02  0.22245757568E-01  0.23833937443E-01  0.00000000000E+00 0. -1.
     999901    1    3    3    0    0  0.85335267520E-01  0.82385946729E-01 -0.52154898948E-01  0.88948844039E+00  0.88000000000E+00 0. -1.
        -11    1    4    4    0    0 -0.73293063234E-01 -0.83693369061E-01  0.30121438525E-01  0.11525630275E+00  0.51100000000E-03 0. -1.
         11    1    4    4    0    0 -0.13597010184E-01 -0.71047963350E-02 -0.21229714427E-03  0.15351319421E-01  0.51100000000E-03 0.  1.
</event>
<event>
 8    1  0.1114447E+005  0.1043930E+01  0.7957747E-01            NaN
         13   -1    0    0    0    0  0.00000000000E+00  0.00000000000E+00  0.74505805969E-08  0.10566000000E+00  0.10566000000E+00 0. -1.
     999900   -1    0    0    0    0 -0.00000000000E+00 -0.00000000000E+00 -0.74505805969E-08  0.93827000000E+00  0.93827000000E+00 0.  1.
     999902    2    1    2    0    0  0.20322403232E-01  0.11384613652E-01 -0.46714160796E-02  0.10201722301E+01  0.10198955572E+01 0.  0.
     999903    2    3    3    0    0  0.59382228915E-01 -0.11408322828E+00  0.68034367487E-02  0.13034105424E+00  0.20031764305E-01 0.  0.
         14    1    1    2    0    0 -0.20322403232E-01 -0.11384613652E-01  0.46714160796E-02  0.23757769872E-01  0.00000000000E+00 0.  1.
     999901    1    3    3    0    0 -0.39059825683E-01  0.12546784194E+00 -0.11474852828E-01  0.88983117589E+00  0.88000000000E+00 0.  1.
        -11    1    4    4    0    0  0.29710569073E-01 -0.69958099065E-01  0.11852066976E-01  0.76925848400E-01  0.51100000000E-03 0. -1.
         11    1    4    4    0    0  0.29671659841E-01 -0.44125129219E-01 -0.50486302271E-02  0.53415205836E-01  0.51100000000E-03 0.  1.
</event>
<event>
 8    1  0.1114447E+005  0.1043930E+01  0.7957747E-01            NaN
         13   -1    0    0    0    0  0.00000000000E+00  0.00000000000E+00  0.74505805969E-08  0.10566000000E+00  0.10566000000E+00 0. -1.
     999900   -1    0    0    0    0 -0.00000000000E+00 -0.00000000000E+00 -0.74505805969E-08  0.93827000000E+00  0.93827000000E+00 0.  1.
     999902    2    1    2    0    0  0.15146208786E-01 -0.18454710102E-02  0.17577529358E-01  0.10206537687E+01  0.10203883245E+01 0.  0.
     999903    2    3    3    0    0  0.59276474757E-01  0.91098817486E-01 -0.64519546516E-01  0.13086387724E+00  0.33909990787E-01 0.  0.
         14    1    1    2    0    0 -0.15146208786E-01  0.18454710102E-02 -0.17577529358E-01  0.23276231270E-01  0.00000000000E+00 0. -1.
     999901    1    3    3    0    0 -0.44130265972E-01 -0.92944288497E-01  0.82097075874E-01  0.88978989149E+00  0.88000000000E+00 0. -1.
        -11    1    4    4    0    0  0.27346814160E-01  0.38752324360E-01 -0.92774141422E-02  0.48331381340E-01  0.51100000000E-03 0. -1.
         11    1    4    4    0    0  0.31929660597E-01  0.52346493126E-01 -0.55242132374E-01  0.82532495895E-01  0.51100000000E-03 0.  1.
</event>
<event>
 8    1  0.1114447E+005  0.1043930E+01  0.7957747E-01            NaN
         13   -1    0    0    0    0  0.00000000000E+00  0.00000000000E+00  0.74505805969E-08  0.10566000000E+00  0.10566000000E+00 0.  1.
     999900   -1    0    0    0    0 -0.00000000000E+00 -0.00000000000E+00 -0.74505805969E-08  0.93827000000E+00  0.93827000000E+00 0.  1.
     999902    2    1    2    0    0  0.14417777355E-01  0.17649174427E-01 -0.41898536653E-02  0.10207584542E+01  0.10204954195E+01 0.  0.
     999903    2    3    3    0    0 -0.78092154628E-01 -0.65915166595E-01 -0.76362908679E-01  0.12904659687E+00  0.19456015518E-01 0.  0.
         14    1    1    2    0    0 -0.14417777355E-01 -0.17649174427E-01  0.41898536653E-02  0.23171545816E-01  0.00000000000E+00 0. -1.
     999901    1    3    3    0    0  0.92509931982E-01  0.83564341022E-01  0.72173055014E-01  0.89171185731E+00  0.88000000000E+00 0. -1.
        -11    1    4    4    0    0 -0.31555013913E-01 -0.35643455228E-01 -0.43754762281E-01  0.64659996497E-01  0.51100000000E-03 0.  1.
         11    1    4    4    0    0 -0.46537140715E-01 -0.30271711367E-01 -0.32608146398E-01  0.64386600372E-01  0.51100000000E-03 0. -1.
</event>
<event>
 8    1  0.1114447E+005  0.1043930E+01  0.7957747E-01            NaN
         13   -1    0    0    0    0  0.00000000000E+00  0.00000000000E+00  0.74505805969E-08  0.10566000000E+00  0.10566000000E+00 0. -1.
     999900   -1    0    0    0    0 -0.00000000000E+00 -0.00000000000E+00 -0.74505805969E-08  0.93827000000E+00  0.93827000000E+00 0.  1.
     999902    2    1    2    0    0 -0.11048729774E-01  0.20064849024E-01 -0.12601886641E-02  0.10209896279E+01  0.10207318745E+01 0.  0.
     999903    2    3    3    0    0  0.68845285557E-01  0.42290119715E-03 -0.10921893525E+00  0.13058300689E+00  0.19577887608E-01 0.  0.
         14    1    1    2    0    0  0.11048729774E-01 -0.20064849024E-01  0.12601886641E-02  0.22940372086E-01  0.00000000000E+00 0.  1.
     999901    1    3    3    0    0 -0.79894015331E-01  0.19641947827E-01  0.10795874658E+00  0.89040662102E+00  0.88000000000E+00 0. -1.
        -11    1    4    4    0    0  0.32167497119E-01 -0.56466773060E-03 -0.33548179349E-01  0.46484493965E-01  0.51100000000E-03 0.  1.
         11    1    4    4    0    0  0.36677788438E-01  0.98756892775E-03 -0.75670755898E-01  0.84098512925E-01  0.51100000000E-03 0. -1.
</event>
<event>
 8    1  0.1114447E+005  0.1043930E+01  0.7957747E-01            NaN
         13   -1    0    0    0    0  0.00000000000E+00  0.00000000000E+00  0.74505805969E-08  0.10566000000E+00  0.10566000000E+00 0.  1.
     999900   -1    0    0    0    0 -0.00000000000E+00 -0.00000000000E+00 -0.74505805969E-08  0.93827000000E+00  0.93827000000E+00 0. -1.
     999902    2    1    2    0    0 -0.65978699725E-02 -0.10741133379E-01  0.18726507549E-01  0.10213559902E+01  0.10211064943E+01 0.  0.
     999903    2    3    3    0    0 -0.89579861913E-01 -0.93119990222E-01  0.28032947259E-01  0.13357285401E+00  0.18973058732E-01 0.  0.
         14    1    1    2    0    0  0.65978699725E-02  0.10741133379E-01 -0.18726507549E-01  0.22574009821E-01  0.00000000000E+00 0. -1.
     999901    1    3    3    0    0  0.82981991941E-01  0.82378856844E-01 -0.93064397102E-02  0.88778313617E+00  0.88000000000E+00 0. -1.
        -11    1    4    4    0    0 -0.42709134634E-01 -0.57515774421E-01  0.12853341016E-01  0.72784641132E-01  0.51100000000E-03 0. -1.
         11    1    4    4    0    0 -0.46870727280E-01 -0.35604215801E-01  0.15179606243E-01  0.60788212881E-01  0.51100000000E-03 0.  1.
</event>
<event>
 8    1  0.1114447E+005  0.1043930E+01  0.7957747E-01            NaN
         13   -1    0    0    0    0  0.00000000000E+00  0.00000000000E+00  0.74505805969E-08  0.10566000000E+00  0.10566000000E+00 0.  1.
     999900   -1    0    0    0    0 -0.00000000000E+00 -0.00000000000E+00 -0.74505805969E-08  0.93827000000E+00  0.93827000000E+00 0.  1.
     999902    2    1    2    0    0 -0.13503251836E-01 -0.11236235090E-01  0.16352184538E-01  0.10199303182E+01  0.10196479143E+01 0.  0.
     999903    2    3    3    0    0 -0.13700341363E-01 -0.51540876503E-01 -0.11503470537E+00  0.12926370388E+00  0.25138822491E-01 0.  0.
         14    1    1    2    0    0  0.13503251836E-01  0.11236235090E-01 -0.16352184538E-01  0.23999681838E-01  0.00000000000E+00 0. -1.
     999901    1    3    3    0    0  0.19708952680E-03  0.40304641413E-01  0.13138688991E+00  0.89066661429E+00  0.88000000000E+00 0. -1.
        -11    1    4    4    0    0 -0.17243827525E-01 -0.18240004844E-01 -0.42327286851E-01  0.49212881420E-01  0.51100000000E-03 0.  1.
         11    1    4    4    0    0  0.35434861623E-02 -0.33300871659E-01 -0.72707418518E-01  0.80050822456E-01  0.51100000000E-03 0. -1.
</event>
<event>
 8    1  0.1114447E+005  0.1043930E+01  0.7957747E-01            NaN
         13   -1    0    0    0    0  0.00000000000E+00  0.00000000000E+00  0.74505805969E-08  0.10566000000E+00  0.10566000000E+00 0. -1.
     999900   -1    0    0    0    0 -0.00000000000E+00 -0.00000000000E+00 -0.74505805969E-08  0.93827000000E+00  0.93827000000E+00 0.  1.
     999902    2    1    2    0    0 -0.51854526434E-03 -0.22801614486E-01 -0.74164911170E-03  0.10211104348E+01  0.10208554195E+01 0.  0.
     999903    2    3    3    0    0 -0.12553731015E-01 -0.41578439347E-01 -0.12338213416E+00  0.13232581330E+00  0.20015170631E-01 0.  0.
         14    1    1    2    0    0  0.51854526434E-03  0.22801614486E-01  0.74164911170E-03  0.22819565197E-01  0.00000000000E+00 0.  1.
     999901    1    3    3    0    0  0.12035185751E-01  0.18776824861E-01  0.12264048505E+00  0.88878462150E+00  0.88000000000E+00 0. -1.
        -11    1    4    4    0    0  0.38175050847E-02 -0.75443461460E-02 -0.11808467438E-01  0.14532430219E-01  0.51100000000E-03 0. -1.
         11    1    4    4    0    0 -0.16371236100E-01 -0.34034093201E-01 -0.11157366672E+00  0.11779338308E+00  0.51100000000E-03 0.  1.
</event>
<event>
 8    1  0.1114447E+005  0.1043930E+01  0.7957747E-01            NaN
         13   -1    0    0    0    0  0.00000000000E+00  0.00000000000E+00  0.74505805969E-08  0.10566000000E+00  0.10566000000E+00 0.  1.
     999900   -1    0    0    0    0 -0.00000000000E+00 -0.00000000000E+00 -0.74505805969E-08  0.93827000000E+00  0.93827000000E+00 0. -1.
     999902    2    1    2    0    0  0.20494150933E-01 -0.21240897669E-02 -0.12038946817E-01  0.10200666763E+01  0.10197875101E+01 0.  0.
     999903    2    3    3    0    0 -0.93591752473E-01 -0.43991320814E-01  0.71879757502E-01  0.12776022255E+00  0.21478419140E-01 0.  0.
         14    1    1    2    0    0 -0.20494150933E-01  0.21240897669E-02  0.12038946817E-01  0.23863323747E-01  0.00000000000E+00 0. -1.
     999901    1    3    3    0    0  0.11408590341E+00  0.41867231047E-01 -0.83918704319E-01  0.89230645371E+00  0.88000000000E+00 0.  1.
        -11    1    4    4    0    0 -0.44952245208E-01 -0.32934794335E-01  0.37034297392E-01  0.66911922192E-01  0.51100000000E-03 0. -1.
         11    1    4    4    0    0 -0.48639507265E-01 -0.11056526479E-01  0.34845460110E-01  0.60848300354E-01  0.51100000000E-03 0.  1.
</event>
<event>
 8    1  0.1114447E+005  0.1043930E+01  0.7957747E-01            NaN
         13   -1    0    0    0    0  0.00000000000E+00  0.00000000000E+00  0.74505805969E-08  0.10566000000E+00  0.10566000000E+00 0.  1.
     999900   -1    0    0    0    0 -0.00000000000E+00 -0.00000000000E+00 -0.74505805969E-08  0.93827000000E+00  0.93827000000E+00 0.  1.
     999902    2    1    2    0    0 -0.16890613046E-01 -0.13421922810E-01  0.92842995780E-02  0.10204430028E+01  0.10201726730E+01 0.  0.
     999903    2    3    3    0    0  0.36965432138E-01 -0.29079502621E-01  0.12136477681E+00  0.13156299579E+00  0.19166433258E-01 0.  0.
         14    1    1    2    0    0  0.16890613046E-01  0.13421922810E-01 -0.92842995780E-02  0.23486997246E-01  0.00000000000E+00 0.  1.
     999901    1    3    3    0    0 -0.53856045184E-01  0.15657579810E-01 -0.11208047723E+00  0.88888000697E+00  0.88000000000E+00 0.  1.
        -11    1    4    4    0    0  0.15187121012E-01 -0.19090992595E-01  0.81250586639E-01  0.84835332221E-01  0.51100000000E-03 0.  1.
         11    1    4    4    0    0  0.21778311126E-01 -0.99885100259E-02  0.40114190174E-01  0.46727663566E-01  0.51100000000E-03 0. -1.
</event>
<event>
 8    1  0.1114447E+005  0.1043930E+01  0.7957747E-01            NaN
         13   -1    0    0    0    0  0.00000000000E+00  0.00000000000E+00  0.74505805969E-08  0.10566000000E+00  0.10566000000E+00 0. -1.
     999900   -1    0    0    0    0 -0.00000000000E+00 -0.00000000000E+00 -0.74505805969E-08  0.93827000000E+00  0.93827000000E+00 0.  1.
     999902    2    1    2    0    0  0.17086811213E-01  0.93663850758E-02  0.13400707266E-01  0.10202811683E+01  0.10200070564E+01 0.  0.
     999903    2    3    3    0    0 -0.98207372290E-01  0.57733971872E-01  0.59547316391E-01  0.13024651629E+00  0.20985057431E-01 0.  0.
         14    1    1    2    0    0 -0.17086811213E-01 -0.93663850758E-02 -0.13400707266E-01  0.23648831727E-01  0.00000000000E+00 0. -1.
     999901    1    3    3    0    0  0.11529418350E+00 -0.48367586796E-01 -0.46146609126E-01  0.89003465199E+00  0.88000000000E+00 0.  1.
        -11    1    4    4    0    0 -0.46651526310E-01  0.16797463100E-01  0.31082531120E-01  0.58522683940E-01  0.51100000000E-03 0. -1.
         11    1    4    4    0    0 -0.51555845980E-01  0.40936508772E-01  0.28464785271E-01  0.71723832348E-01  0.51100000000E-03 0.  1.
</event>
<event>
 8    1  0.1114447E+005  0.1043930E+01  0.7957747E-01            NaN
         13   -1    0    0    0    0  0.00000000000E+00  0.00000000000E+00  0.74505805969E-08  0.10566000000E+00  0.10566000000E+00 0. -1.
     999900   -1    0    0    0    0 -0.00000000000E+00 -0.00000000000E+00 -0.74505805969E-08  0.93827000000E+00  0.93827000000E+00 0. -1.
     999902    2    1    2    0    0  0.70798149027E-02  0.23216082958E-01  0.84680958612E-03  0.10196436381E+01  0.10193543650E+01 0.  0.
     999903    2    3    3    0    0 -0.31664624247E-01 -0.12097363783E+00 -0.72209659238E-02  0.12703123839E+00  0.21154755983E-01 0.  0.
         14    1    1    2    0    0 -0.70798149027E-02 -0.23216082958E-01 -0.84680958612E-03  0.24286361882E-01  0.00000000000E+00 0. -1.
     999901    1    3    3    0    0  0.38744439149E-01  0.14418972078E+00  0.80677755099E-02  0.89261239973E+00  0.88000000000E+00 0. -1.
        -11    1    4    4    0    0 -0.92784655644E-03 -0.27582628563E-01 -0.78905497233E-02  0.28708608354E-01  0.51100000000E-03 0. -1.
         11    1    4    4    0    0 -0.30736777690E-01 -0.93391009263E-01  0.66958379948E-03  0.98322630037E-01  0.51100000000E-03 0.  1.
</event>
<event>
 8    1  0.1114447E+005  0.1043930E+01  0.7957747E-01            NaN
         13   -1    0    0    0    0  0.00000000000E+00  0.00000000000E+00  0.74505805969E-08  0.10566000000E+00  0.10566000000E+00 0.  1.
     999900   -1    0    0    0    0 -0.00000000000E+00 -0.00000000000E+00 -0.74505805969E-08  0.93827000000E+00  0.93827000000E+00 0. -1.
     999902    2    1    2    0    0 -0.25749511541E-01  0.38308912406E-02 -0.59286699588E-03  0.10178903271E+01  0.10175571991E+01 0.  0.
     999903    2    3    3    0    0  0.10131750377E+00  0.30449025748E-01 -0.64565322430E-01  0.12606802054E+00  0.23066972125E-01 0.  0.
         14    1    1    2    0    0  0.25749511541E-01 -0.38308912406E-02  0.59286699588E-03  0.26039672878E-01  0.00000000000E+00 0. -1.
     999901    1    3    3    0    0 -0.12706701531E+00 -0.26618134507E-01  0.63972455434E-01  0.89182230658E+00  0.88000000000E+00 0.  1.
        -11    1    4    4    0    0  0.89468746833E-01  0.18557915382E-01 -0.56560017944E-01  0.10746324783E+00  0.51100000000E-03 0.  1.
         11    1    4    4    0    0  0.11848756937E-01  0.11891110365E-01 -0.80053044854E-02  0.18604772710E-01  0.51100000000E-03 0. -1.
</event>
<event>
 8    1  0.1114447E+005  0.1043930E+01  0.7957747E-01            NaN
         13   -1    0    0    0    0  0.00000000000E+00  0.00000000000E+00  0.74505805969E-08  0.10566000000E+00  0.10566000000E+00 0.  1.
     999900   -1    0    0    0    0 -0.00000000000E+00 -0.00000000000E+00 -0.74505805969E-08  0.93827000000E+00  0.93827000000E+00 0. -1.
     999902    2    1    2    0    0  0.22085667318E-01  0.38375455817E-02 -0.50260923921E-02  0.10209568622E+01  0.10206983635E+01 0.  0.
     999903    2    3    3    0    0  0.78224503117E-01 -0.83230743988E-02  0.10456700041E+00  0.13230051940E+00  0.19514697074E-01 0.  0.
         14    1    1    2    0    0 -0.22085667318E-01 -0.38375455817E-02  0.50260923921E-02  0.22973137829E-01  0.00000000000E+00 0.  1.
     999901    1    3    3    0    0 -0.56138835799E-01  0.12160619981E-01 -0.10959309280E+00  0.88865634277E+00  0.88000000000E+00 0. -1.
        -11    1    4    4    0    0  0.61692395499E-01 -0.80342077692E-02  0.93817712468E-01  0.11257230765E+00  0.51100000000E-03 0.  1.
         11    1    4    4    0    0  0.16532107618E-01 -0.28886662960E-03  0.10749287945E-01  0.19728211743E-01  0.51100000000E-03 0. -1.
</event>
<event>
 8    1  0.1114447E+005  0.1043930E+01  0.7957747E-01            NaN
         13   -1    0    0    0    0  0.00000000000E+00  0.00000000000E+00  0.74505805969E-08  0.10566000000E+00  0.10566000000E+00 0.  1.
     999900   -1    0    0    0    0 -0.00000000000E+00 -0.00000000000E+00 -0.74505805969E-08  0.93827000000E+00  0.93827000000E+00 0.  1.
     999902    2    1    2    0    0 -0.19598901564E-02  0.21702679526E-01  0.40516576774E-02  0.10217655375E+01  0.10215251099E+01 0.  0.
     999903    2    3    3    0    0  0.73984979644E-01 -0.45904933830E-01  0.95440689029E-01  0.13120932496E+00  0.22932982194E-01 0.  0.
         14    1    1    2    0    0  0.19598901564E-02 -0.21702679526E-01 -0.40516576774E-02  0.22164462501E-01  0.00000000000E+00 0. -1.
     999901    1    3    3    0    0 -0.75944869801E-01  0.67607613356E-01 -0.91389031352E-01  0.89055621253E+00  0.88000000000E+00 0.  1.
        -11    1    4    4    0    0  0.41977541067E-01 -0.35949483087E-01  0.69636972037E-01  0.88904714631E-01  0.51100000000E-03 0.  1.
         11    1    4    4    0    0  0.32007438578E-01 -0.99554507435E-02  0.25803716992E-01  0.42304610333E-01  0.51100000000E-03 0. -1.
</event>
<event>
 8    1  0.1114447E+005  0.1043930E+01  0.7957747E-01            NaN
         13   -1    0    0    0    0  0.00000000000E+00  0.00000000000E+00  0.74505805969E-08  0.10566000000E+00  0.10566000000E+00 0. -1.
     999900   -1    0    0    0    0 -0.00000000000E+00 -0.00000000000E+00 -0.74505805969E-08  0.93827000000E+00  0.93827000000E+00 0.  1.
     999902    2    1    2    0    0  0.12654730543E-01  0.17447464368E-01  0.73586294474E-02  0.10211548898E+01  0.10209008783E+01 0.  0.
     999903    2    3    3    0    0  0.80317793792E-01 -0.57431673644E-01  0.85411218200E-01  0.13195447253E+00  0.19171893190E-01 0.  0.
         14    1    1    2    0    0 -0.12654730543E-01 -0.17447464368E-01 -0.73586294474E-02  0.22775110216E-01  0.00000000000E+00 0.  1.
     999901    1    3    3    0    0 -0.67663063249E-01  0.74879138012E-01 -0.78052588753E-01  0.88920041726E+00  0.88000000000E+00 0.  1.
        -11    1    4    4    0    0  0.52837874599E-01 -0.35432492863E-01  0.42779512337E-01  0.76665835543E-01  0.51100000000E-03 0. -1.
         11    1    4    4    0    0  0.27479919193E-01 -0.21999180781E-01  0.42631705863E-01  0.55288636986E-01  0.51100000000E-03 0.  1.
</event>
<event>
 8    1  0.1114447E+005  0.1043930E+01  0.7957747E-01            NaN
         13   -1    0    0    0    0  0.00000000000E+00  0.00000000000E+00  0.74505805969E-08  0.10566000000E+00  0.10566000000E+00 0.  1.
     999900   -1    0    0    0    0 -0.00000000000E+00 -0.00000000000E+00 -0.74505805969E-08  0.93827000000E+00  0.93827000000E+00 0.  1.
     999902    2    1    2    0    0 -0.35127086746E-02  0.21992623549E-01  0.10312161235E-01  0.10193870727E+01  0.10190915801E+01 0.  0.
     999903    2    3    3    0    0  0.59137505999E-01  0.26860039332E-02 -0.11235249439E+00  0.12846372428E+00  0.19374886534E-01 0.  0.
         14    1    1    2    0    0  0.35127086746E-02 -0.21992623549E-01 -0.10312161235E-01  0.24542927334E-01  0.00000000000E+00 0.  1.
     999901    1    3    3    0    0 -0.62650214674E-01  0.19306619616E-01  0.12266465562E+00  0.89092334839E+00  0.88000000000E+00 0. -1.
        -11    1    4    4    0    0  0.21945985315E-01  0.77653784847E-02 -0.57094893534E-01  0.61660484617E-01  0.51100000000E-03 0.  1.
         11    1    4    4    0    0  0.37191520685E-01 -0.50793745515E-02 -0.55257600852E-01  0.66803239664E-01  0.51100000000E-03 0. -1.
</event>
<event>
 8    1  0.1114447E+005  0.1043930E+01  0.7957747E-01            NaN
         13   -1    0    0    0    0  0.00000000000E+00  0.00000000000E+00  0.74505805969E-08  0.10566000000E+00  0.10566000000E+00 0.  1.
     999900   -1    0    0    0    0 -0.00000000000E+00 -0.00000000000E+00 -0.74505805969E-08  0.93827000000E+00  0.93827000000E+00 0.  1.
     999902    2    1    2    0    0 -0.11045186228E-01  0.17848380574E-01  0.10880194333E-01  0.10202880996E+01  0.10200141502E+01 0.  0.
     999903    2    3    3    0    0 -0.40343470285E-01  0.25133348148E-02 -0.12168735896E+00  0.12974460861E+00  0.19797416173E-01 0.  0.
         14    1    1    2    0    0  0.11045186228E-01 -0.17848380574E-01 -0.10880194333E-01  0.23641900445E-01  0.00000000000E+00 0. -1.
     999901    1    3    3    0    0  0.29298284056E-01  0.15335045760E-01  0.13256755329E+00  0.89054349094E+00  0.88000000000E+00 0. -1.
        -11    1    4    4    0    0 -0.17462630444E-01 -0.83226972993E-02 -0.60674115889E-01  0.63685321796E-01  0.51100000000E-03 0.  1.
         11    1    4    4    0    0 -0.22880839841E-01  0.10836032114E-01 -0.61013243068E-01  0.66059286815E-01  0.51100000000E-03 0. -1.
</event>
<event>
 8    1  0.1114447E+005  0.1043930E+01  0.7957747E-01            NaN
         13   -1    0    0    0    0  0.00000000000E+00  0.00000000000E+00  0.74505805969E-08  0.10566000000E+00  0.10566000000E+00 0. -1.
     999900   -1    0    0    0    0 -0.00000000000E+00 -0.00000000000E+00 -0.74505805969E-08  0.93827000000E+00  0.93827000000E+00 0. -1.
     999902    2    1    2    0    0  0.20109694602E-01  0.15061416819E-03  0.12502861378E-01  0.10202499653E+01  0.10199751211E+01 0.  0.
     999903    2    3    3    0    0 -0.96650641413E-01  0.49182143853E-01  0.67778176115E-01  0.12946804619E+00  0.20195644734E-01 0.  0.
         14    1    1    2    0    0 -0.20109694602E-01 -0.15061416819E-03 -0.12502861378E-01  0.23680034718E-01  0.00000000000E+00 0.  1.
     999901    1    3    3    0    0  0.11676033601E+00 -0.49031529685E-01 -0.55275314738E-01  0.89078191910E+00  0.88000000000E+00 0. -1.
        -11    1    4    4    0    0 -0.27846548945E-01  0.17376536307E-01  0.31254104101E-01  0.45326090129E-01  0.51100000000E-03 0. -1.
         11    1    4    4    0    0 -0.68804092468E-01  0.31805607546E-01  0.36524072014E-01  0.84141956057E-01  0.51100000000E-03 0.  1.
</event>
<event>
 8    1  0.1114447E+005  0.1043930E+01  0.7957747E-01            NaN
         13   -1    0    0    0    0  0.00000000000E+00  0.00000000000E+00  0.74505805969E-08  0.10566000000E+00  0.10566000000E+00 0. -1.
     999900   -1    0    0    0    0 -0.00000000000E+00 -0.00000000000E+00 -0.74505805969E-08  0.93827000000E+00  0.93827000000E+00 0.  1.
     999902    2    1    2    0    0 -0.11883671176E-01 -0.17924765407E-01 -0.96834735278E-02  0.10203442307E+01  0.10200715958E+01 0.  0.
     999903    2    3    3    0    0  0.31884343093E-01 -0.10776178228E+00 -0.65904706398E-01  0.13290569437E+00  0.26292208283E-01 0.  0.
         14    1    1    2    0    0  0.11883671176E-01  0.17924765407E-01  0.96834735278E-02  0.23585769334E-01  0.00000000000E+00 0. -1.
     999901    1    3    3    0    0 -0.43768014269E-01  0.89837016874E-01  0.56221232871E-01  0.88743853629E+00  0.88000000000E+00 0. -1.
        -11    1    4    4    0    0  0.14135605110E-01 -0.34269470759E-01 -0.35763860189E-01  0.51512394378E-01  0.51100000000E-03 0. -1.
         11    1    4    4    0    0  0.17748737983E-01 -0.73492311522E-01 -0.30140846210E-01  0.81393299995E-01  0.51100000000E-03 0.  1.
</event>
<event>
 8    1  0.1114447E+005  0.1043930E+01  0.7957747E-01            NaN
         13   -1    0    0    0    0  0.00000000000E+00  0.00000000000E+00  0.74505805969E-08  0.10566000000E+00  0.10566000000E+00 0.  1.
     999900   -1    0    0    0    0 -0.00000000000E+00 -0.00000000000E+00 -0.74505805969E-08  0.93827000000E+00  0.93827000000E+00 0. -1.
     999902    2    1    2    0    0 -0.90600181634E-02 -0.20230308486E-01 -0.40741466154E-02  0.10213922987E+01  0.10211436137E+01 0.  0.
     999903    2    3    3    0    0 -0.11315760346E-01  0.11260101350E+00  0.59069536201E-01  0.12918359374E+00  0.19802931872E-01 0.  0.
         14    1    1    2    0    0  0.90600181634E-02  0.20230308486E-01  0.40741466154E-02  0.22537701330E-01  0.00000000000E+00 0. -1.
     999901    1    3    3    0    0  0.22557421822E-02 -0.13283132199E+00 -0.63143682816E-01  0.89220870493E+00  0.88000000000E+00 0. -1.
        -11    1    4    4    0    0 -0.29238376720E-03  0.54749573699E-01  0.37941497917E-01  0.66613960201E-01  0.51100000000E-03 0.  1.
         11    1    4    4    0    0 -0.11023376578E-01  0.57851439803E-01  0.21128038284E-01  0.62569633539E-01  0.51100000000E-03 0. -1.
</event>
<event>
 8    1  0.1114447E+005  0.1043930E+01  0.7957747E-01            NaN
         13   -1    0    0    0    0  0.00000000000E+00  0.00000000000E+00  0.74505805969E-08  0.10566000000E+00  0.10566000000E+00 0.  1.
     999900   -1    0    0    0    0 -0.00000000000E+00 -0.00000000000E+00 -0.74505805969E-08  0.93827000000E+00  0.93827000000E+00 0. -1.
     999902    2    1    2    0    0 -0.12910369903E-01 -0.15668173424E-01  0.12258855265E-01  0.10202139961E+01  0.10199383064E+01 0.  0.
     999903    2    3    3    0    0  0.10368557371E+00 -0.63659453437E-01  0.42593912371E-01  0.13070964381E+00  0.21622798291E-01 0.  0.
         14    1    1    2    0    0  0.12910369903E-01  0.15668173424E-01 -0.12258855265E-01  0.23716003919E-01  0.00000000000E+00 0. -1.
     999901    1    3    3    0    0 -0.11659594361E+00  0.47991280013E-01 -0.30335057106E-01  0.88950435227E+00  0.88000000000E+00 0.  1.
        -11    1    4    4    0    0  0.96859675009E-02 -0.81822613350E-02  0.11726164404E-01  0.17278061802E-01  0.51100000000E-03 0. -1.
         11    1    4    4    0    0  0.93999606208E-01 -0.55477192102E-01  0.30867747967E-01  0.11343158201E+00  0.51100000000E-03 0.  1.
</event>
<event>
 8    1  0.1114447E+005  0.1043930E+01  0.7957747E-01            NaN
         13   -1    0    0    0    0  0.00000000000E+00  0.00000000000E+00  0.74505805969E-08  0.10566000000E+00  0.10566000000E+00 0. -1.
     999900   -1    0    0    0    0 -0.00000000000E+00 -0.00000000000E+00 -0.74505805969E-08  0.93827000000E+00  0.93827000000E+00 0. -1.
     999902    2    1    2    0    0  0.22933610818E-01 -0.39607202330E-02 -0.46474974041E-02  0.10201973844E+01  0.10199213039E+01 0.  0.
     999903    2    3    3    0    0  0.11538323269E+00  0.20152313640E-01  0.59047310496E-01  0.13273730107E+00  0.20327323724E-01 0.  0.
         14    1    1    2    0    0 -0.22933610818E-01  0.39607202330E-02  0.46474974041E-02  0.23732615575E-01  0.00000000000E+00 0. -1.
     999901    1    3    3    0    0 -0.92449621867E-01 -0.24113033873E-01 -0.63694807900E-01  0.88746008335E+00  0.88000000000E+00 0. -1.
        -11    1    4    4    0    0  0.51310627759E-01  0.17465944132E-01  0.20741448661E-01  0.58037130692E-01  0.51100000000E-03 0. -1.
         11    1    4    4    0    0  0.64072604927E-01  0.26863695078E-02  0.38305861835E-01  0.74700170383E-01  0.51100000000E-03 0.  1.
</event>
<event>
 8    1  0.1114447E+005  0.1043930E+01  0.7957747E-01            NaN
         13   -1    0    0    0    0  0.00000000000E+00  0.00000000000E+00  0.74505805969E-08  0.10566000000E+00  0.10566000000E+00 0. -1.
     999900   -1    0    0    0    0 -0.00000000000E+00 -0.00000000000E+00 -0.74505805969E-08  0.93827000000E+00  0.93827000000E+00 0.  1.
     999902    2    1    2    0    0 -0.14120641091E-02  0.10250347585E-01 -0.20136830568E-01  0.10212903115E+01  0.10210393454E+01 0.  0.
     999903    2    3    3    0    0  0.10876453947E+00  0.19215191751E-01  0.65664624809E-01  0.13023411676E+00  0.21216351654E-01 0.  0.
         14    1    1    2    0    0  0.14120641091E-02 -0.10250347585E-01  0.20136830568E-01  0.22639688513E-01  0.00000000000E+00 0. -1.
     999901    1    3    3    0    0 -0.11017660358E+00 -0.89648441663E-02 -0.85801455377E-01  0.89105619472E+00  0.88000000000E+00 0.  1.
        -11    1    4    4    0    0  0.10114907774E+00  0.18649184421E-01  0.53696480633E-01  0.11602801886E+00  0.51100000000E-03 0.  1.
         11    1    4    4    0    0  0.76154617364E-02  0.56600733004E-03  0.11968144176E-01  0.14206097908E-01  0.51100000000E-03 0. -1.
</event>
<event>
 8    1  0.1114447E+005  0.1043930E+01  0.7957747E-01            NaN
         13   -1    0    0    0    0  0.00000000000E+00  0.00000000000E+00  0.74505805969E-08  0.10566000000E+00  0.10566000000E+00 0. -1.
     999900   -1    0    0    0    0 -0.00000000000E+00 -0.00000000000E+00 -0.74505805969E-08  0.93827000000E+00  0.93827000000E+00 0.  1.
     999902    2    1    2    0    0 -0.35405140037E-02  0.20421449741E-01 -0.10880682558E-01  0.10205214524E+01  0.10202529464E+01 0.  0.
     999903    2    3    3    0    0 -0.53924481540E-01  0.11667195256E+00 -0.30178043252E-01  0.13363076486E+00  0.20646374921E-01 0.  0.
         14    1    1    2    0    0  0.35405140037E-02 -0.20421449741E-01  0.10880682558E-01  0.23408547624E-01  0.00000000000E+00 0. -1.
     999901    1    3    3    0    0  0.50383967537E-01 -0.96250502822E-01  0.19297360695E-01  0.88689068752E+00  0.88000000000E+00 0. -1.
        -11    1    4    4    0    0 -0.31252481160E-01  0.50516100894E-01 -0.21427836234E-01  0.63150671531E-01  0.51100000000E-03 0.  1.
         11    1    4    4    0    0 -0.22672000381E-01  0.66155851669E-01 -0.87502070187E-02  0.70480093326E-01  0.51100000000E-03 0. -1.
</event>
<event>
 8    1  0.1114447E+005  0.1043930E+01  0.7957747E-01            NaN
         13   -1    0    0    0    0  0.00000000000E+00  0.00000000000E+00  0.74505805969E-08  0.10566000000E+00  0.10566000000E+00 0. -1.
     999900   -1    0    0    0    0 -0.00000000000E+00 -0.00000000000E+00 -0.74505805969E-08  0.93827000000E+00  0.93827000000E+00 0. -1.
     999902    2    1    2    0    0  0.61068745625E-02  0.16866794040E-01 -0.15019490870E-01  0.10205341080E+01  0.10202658956E+01 0.  0.
     999903    2    3    3    0    0  0.66514369724E-01 -0.10975015525E+00  0.80355864014E-02  0.12912373451E+00  0.11794499009E-01 0.  0.
         14    1    1    2    0    0 -0.61068745625E-02 -0.16866794040E-01  0.15019490870E-01  0.23395892035E-01  0.00000000000E+00 0.  1.
     999901    1    3    3    0    0 -0.60407495162E-01  0.12661694929E+00 -0.23055077271E-01  0.89141037346E+00  0.88000000000E+00 0. -1.
        -11    1    4    4    0    0  0.55045241386E-01 -0.85490663614E-01  0.10238983514E-01  0.10219456966E+00  0.51100000000E-03 0. -1.
         11    1    4    4    0    0  0.11469128339E-01 -0.24259491638E-01 -0.22033971125E-02  0.26929164845E-01  0.51100000000E-03 0.  1.
</event>
<event>
 8    1  0.1114447E+005  0.1043930E+01  0.7957747E-01            NaN
         13   -1    0    0    0    0  0.00000000000E+00  0.00000000000E+00  0.74505805969E-08  0.10566000000E+00  0.10566000000E+00 0. -1.
     999900   -1    0    0    0    0 -0.00000000000E+00 -0.00000000000E+00 -0.74505805969E-08  0.93827000000E+00  0.93827000000E+00 0.  1.
     999902    2    1    2    0    0 -0.22764792839E-01  0.38921672398E-02 -0.58183039169E-02  0.10201132534E+01  0.10198351888E+01 0.  0.
     999903    2    3    3    0    0 -0.84005528365E-01 -0.53339432620E-01 -0.85185995152E-01  0.13257445754E+00  0.20428146149E-01 0.  0.
         14    1    1    2    0    0  0.22764792839E-01 -0.38921672398E-02  0.58183039169E-02  0.23816746615E-01  0.00000000000E+00 0.  1.
     999901    1    3    3    0    0  0.61240735526E-01  0.57231599860E-01  0.79367691235E-01  0.88753879584E+00  0.88000000000E+00 0. -1.
        -11    1    4    4    0    0 -0.53761155414E-01 -0.24919097807E-01 -0.58256994530E-01  0.83098506603E-01  0.51100000000E-03 0.  1.
         11    1    4    4    0    0 -0.30244372951E-01 -0.28420334813E-01 -0.26929000622E-01  0.49475950942E-01  0.51100000000E-03 0. -1.
</event>
<event>
 8    1  0.1114447E+005  0.1043930E+01  0.7957747E-01            NaN
         13   -1    0    0    0    0  0.00000000000E+00  0.00000000000E+00  0.74505805969E-08  0.10566000000E+00  0.10566000000E+00 0. -1.
     999900   -1    0    0    0    0 -0.00000000000E+00 -0.00000000000E+00 -0.74505805969E-08  0.93827000000E+00  0.93827000000E+00 0. -1.
     999902    2    1    2    0    0 -0.26340525833E-01  0.68864098536E-03  0.69477644735E-03  0.10175713156E+01  0.10172298669E+01 0.  0.
     999903    2    3    3    0    0  0.11665142444E+00 -0.21826135290E-01 -0.34235411413E-01  0.12506152239E+00  0.19605764061E-01 0.  0.
         14    1    1    2    0    0  0.26340525833E-01 -0.68864098536E-03 -0.69477644735E-03  0.26358684373E-01  0.00000000000E+00 0.  1.
     999901    1    3    3    0    0 -0.14299195027E+00  0.22514776276E-01  0.34930187860E-01  0.89250979323E+00  0.88000000000E+00 0.  1.
        -11    1    4    4    0    0  0.24467116713E-01 -0.12819084886E-01 -0.66375645411E-02  0.28412798553E-01  0.51100000000E-03 0. -1.
         11    1    4    4    0    0  0.92184307722E-01 -0.90070504046E-02 -0.27597846872E-01  0.96648723841E-01  0.51100000000E-03 0.  1.
</event>
<event>
 8    1  0.1114447E+005  0.1043930E+01  0.7957747E-01            NaN
         13   -1    0    0    0    0  0.00000000000E+00  0.00000000000E+00  0.74505805969E-08  0.10566000000E+00  0.10566000000E+00 0. -1.
     999900   -1    0    0    0    0 -0.00000000000E+00 -0.00000000000E+00 -0.74505805969E-08  0.93827000000E+00  0.93827000000E+00 0.  1.
     999902    2    1    2    0    0  0.85833472650E-02  0.20579398312E-01 -0.73436498218E-02  0.10204541682E+01  0.10201840985E+01 0.  0.
     999903    2    3    3    0    0 -0.84484786579E-01  0.66523016569E-01  0.71863660008E-01  0.13082149597E+00  0.19669450477E-01 0.  0.
         14    1    1    2    0    0 -0.85833472650E-02 -0.20579398312E-01  0.73436498218E-02  0.23475831782E-01  0.00000000000E+00 0. -1.
     999901    1    3    3    0    0  0.93068133844E-01 -0.45943618257E-01 -0.79207309830E-01  0.88963267225E+00  0.88000000000E+00 0. -1.
        -11    1    4    4    0    0 -0.22701984021E-01  0.86946512294E-02  0.11664004086E-01  0.26968261917E-01  0.51100000000E-03 0.  1.
         11    1    4    4    0    0 -0.61782802558E-01  0.57828365339E-01  0.60199655922E-01  0.10385323406E+00  0.51100000000E-03 0. -1.
</event>
<event>
 8    1  0.1114447E+005  0.1043930E+01  0.7957747E-01            NaN
         13   -1    0    0    0    0  0.00000000000E+00  0.00000000000E+00  0.74505805969E-08  0.10566000000E+00  0.10566000000E+00 0. -1.
     999900   -1    0    0    0    0 -0.00000000000E+00 -0.00000000000E+00 -0.74505805969E-08  0.93827000000E+00  0.93827000000E+00 0. -1.
     999902    2    1    2    0    0 -0.90159870380E-02  0.18187307423E-01  0.82441787932E-02  0.10220203524E+01  0.10217854805E+01 0.  0.
     999903    2    3    3    0    0  0.60954468984E-01 -0.75112057464E-01  0.86034978167E-01  0.13092437291E+00  0.19542402344E-01 0.  0.
         14    1    1    2    0    0  0.90159870380E-02 -0.18187307423E-01 -0.82441787932E-02  0.21909647591E-01  0.00000000000E+00 0.  1.
     999901    1    3    3    0    0 -0.69970456022E-01  0.93299364887E-01 -0.77790799374E-01  0.89109597949E+00  0.88000000000E+00 0.  1.
        -11    1    4    4    0    0  0.36169337282E-01 -0.51674088490E-01  0.66299460860E-01  0.91511267132E-01  0.51100000000E-03 0. -1.
         11    1    4    4    0    0  0.24785131702E-01 -0.23437968974E-01  0.19735517307E-01  0.39413105783E-01  0.51100000000E-03 0.  1.
</event>
<event>
 8    1  0.1114447E+005  0.1043930E+01  0.7957747E-01            NaN
         13   -1    0    0    0    0  0.00000000000E+00  0.00000000000E+00  0.74505805969E-08  0.10566000000E+00  0.10566000000E+00 0. -1.
     999900   -1    0    0    0    0 -0.00000000000E+00 -0.00000000000E+00 -0.74505805969E-08  0.93827000000E+00  0.93827000000E+00 0.  1.
     999902    2    1    2    0    0  0.12998275137E-01  0.17162943516E-01  0.94164039368E-02  0.10204312671E+01  0.10201606640E+01 0.  0.
     999903    2    3    3    0    0  0.82585446192E-01 -0.70517672260E-02  0.10167402137E+00  0.13254602979E+00  0.18993684432E-01 0.  0.
         14    1    1    2    0    0 -0.12998275137E-01 -0.17162943516E-01 -0.94164039368E-02  0.23498732940E-01  0.00000000000E+00 0. -1.
     999901    1    3    3    0    0 -0.69587171056E-01  0.24214710742E-01 -0.92257617429E-01  0.88788523727E+00  0.88000000000E+00 0.  1.
        -11    1    4    4    0    0  0.47779978491E-01  0.49887484883E-02  0.53508887297E-01  0.71911585275E-01  0.51100000000E-03 0.  1.
         11    1    4    4    0    0  0.34805467701E-01 -0.12040515714E-01  0.48165134069E-01  0.60634444513E-01  0.51100000000E-03 0. -1.
</event>
<event>
 8    1  0.1208050E+005  0.1043930E+01  0.7957747E-01            NaN
         13   -1    0    0    0    0  0.00000000000E+00  0.00000000000E+00  0.74505805969E-08  0.10566000000E+00  0.10566000000E+00 0.  1.
     999900   -1    0    0    0    0 -0.00000000000E+00 -0.00000000000E+00 -0.74505805969E-08  0.93827000000E+00  0.93827000000E+00 0. -1.
     999902    2    1    2    0    0  0.70188282096E-02 -0.22061638485E-01 -0.40329506013E-02  0.10204301163E+01  0.10201594864E+01 0.  0.
     999903    2    3    3    0    0  0.76831417295E-02 -0.64598119135E-01 -0.11372303686E+00  0.13260034181E+00  0.20444409352E-01 0.  0.
         14    1    1    2    0    0 -0.70188282096E-02  0.22061638485E-01  0.40329506013E-02  0.23499883673E-01  0.00000000000E+00 0.  1.
     999901    1    3    3    0    0 -0.66431351993E-03  0.42536480650E-01  0.10969008625E+00  0.88782977452E+00  0.88000000000E+00 0.  1.
        -11    1    4    4    0    0  0.75296675638E-02 -0.38783968079E-01 -0.49189439126E-01  0.63093217671E-01  0.51100000000E-03 0. -1.
         11    1    4    4    0    0  0.15347416568E-03 -0.25814151056E-01 -0.64533597729E-01  0.69507124138E-01  0.51100000000E-03 0.  1.
</event>
<event>
 8    1  0.1114447E+005  0.1043930E+01  0.7957747E-01            NaN
         13   -1    0    0    0    0  0.00000000000E+00  0.00000000000E+00  0.74505805969E-08  0.10566000000E+00  0.10566000000E+00 0.  1.
     999900   -1    0    0    0    0 -0.00000000000E+00 -0.00000000000E+00 -0.74505805969E-08  0.93827000000E+00  0.93827000000E+00 0.  1.
     999902    2    1    2    0    0 -0.22064158599E-01 -0.67686613827E-02 -0.43453522058E-02  0.10204454528E+01  0.10201751801E+01 0.  0.
     999903    2    3    3    0    0 -0.78029812578E-02 -0.15953131205E-01  0.12782986417E+00  0.13041285593E+00  0.18752330650E-01 0.  0.
         14    1    1    2    0    0  0.22064158599E-01  0.67686613827E-02  0.43453522058E-02  0.23484547204E-01  0.00000000000E+00 0.  1.
     999901    1    3    3    0    0 -0.14261177341E-01  0.91844698227E-02 -0.13217521638E+00  0.89003259687E+00  0.88000000000E+00 0.  1.
        -11    1    4    4    0    0 -0.90955322920E-02 -0.19672498135E-01  0.10188993428E+00  0.10417080070E+00  0.51100000000E-03 0.  1.
         11    1    4    4    0    0  0.12925510342E-02  0.37193669294E-02  0.25939929892E-01  0.26242055223E-01  0.51100000000E-03 0. -1.
</event>
<event>
 8    1  0.1114447E+005  0.1043930E+01  0.7957747E-01            NaN
         13   -1    0    0    0    0  0.00000000000E+00  0.00000000000E+00  0.74505805969E-08  0.10566000000E+00  0.10566000000E+00 0.  1.
     999900   -1    0    0    0    0 -0.00000000000E+00 -0.00000000000E+00 -0.74505805969E-08  0.93827000000E+00  0.93827000000E+00 0. -1.
     999902    2    1    2    0    0  0.16579269554E-01  0.32732021855E-02  0.15359850135E-01  0.10210933841E+01  0.10208379832E+01 0.  0.
     999903    2    3    3    0    0 -0.18629763332E-01  0.12268144645E+00 -0.35252886359E-01  0.13089135424E+00  0.22180514761E-01 0.  0.
         14    1    1    2    0    0 -0.16579269554E-01 -0.32732021855E-02 -0.15359850135E-01  0.22836615941E-01  0.00000000000E+00 0.  1.
     999901    1    3    3    0    0  0.35209032886E-01 -0.11940824426E+00  0.50612736494E-01  0.89020202982E+00  0.88000000000E+00 0.  1.
        -11    1    4    4    0    0 -0.17022234921E-01  0.61969960773E-01 -0.96804400261E-02  0.64992342318E-01  0.51100000000E-03 0.  1.
         11    1    4    4    0    0 -0.16075284108E-02  0.60711485672E-01 -0.25572446333E-01  0.65899011924E-01  0.51100000000E-03 0. -1.
</event>
<event>
 8    1  0.1114447E+005  0.1043930E+01  0.7957747E-01            NaN
         13   -1    0    0    0    0  0.00000000000E+00  0.00000000000E+00  0.74505805969E-08  0.10566000000E+00  0.10566000000E+00 0.  1.
     999900   -1    0    0    0    0 -0.00000000000E+00 -0.00000000000E+00 -0.74505805969E-08  0.93827000000E+00  0.93827000000E+00 0. -1.
     999902    2    1    2    0    0 -0.21805396274E-02 -0.40122924317E-02 -0.22623807088E-01  0.10208499244E+01  0.10205889859E+01 0.  0.
     999903    2    3    3    0    0  0.82683781129E-01 -0.10005113091E+00 -0.25844290790E-02  0.13134051571E+00  0.19920224310E-01 0.  0.
         14    1    1    2    0    0  0.21805396274E-02  0.40122924317E-02  0.22623807088E-01  0.23080075623E-01  0.00000000000E+00 0.  1.
     999901    1    3    3    0    0 -0.84864320756E-01  0.96038838474E-01 -0.20039378009E-01  0.88950940867E+00  0.88000000000E+00 0.  1.
        -11    1    4    4    0    0  0.48006718086E-01 -0.46452009931E-01  0.53076287731E-02  0.67013925808E-01  0.51100000000E-03 0. -1.
         11    1    4    4    0    0  0.34677063043E-01 -0.53599120974E-01 -0.78920578521E-02  0.64326589904E-01  0.51100000000E-03 0.  1.
</event>
<event>
 8    1  0.1114447E+005  0.1043930E+01  0.7957747E-01            NaN
         13   -1    0    0    0    0  0.00000000000E+00  0.00000000000E+00  0.74505805969E-08  0.10566000000E+00  0.10566000000E+00 0. -1.
     999900   -1    0    0    0    0 -0.00000000000E+00 -0.00000000000E+00 -0.74505805969E-08  0.93827000000E+00  0.93827000000E+00 0.  1.
     999902    2    1    2    0    0 -0.16191782455E-01 -0.80216976534E-02  0.15037944495E-01  0.10204212521E+01  0.10201504156E+01 0.  0.
     999903    2    3    3    0    0  0.10972899846E+00 -0.60318053530E-01 -0.24667353894E-01  0.12903611503E+00  0.19055706467E-01 0.  0.
         14    1    1    2    0    0  0.16191782455E-01  0.80216976534E-02 -0.15037944495E-01  0.23508747882E-01  0.00000000000E+00 0.  1.
     999901    1    3    3    0    0 -0.12592078091E+00  0.52296355877E-01  0.39705298389E-01  0.89138513709E+00  0.88000000000E+00 0.  1.
        -11    1    4    4    0    0  0.62165536802E-01 -0.26641173433E-01 -0.62950344819E-02  0.67927863707E-01  0.51100000000E-03 0.  1.
         11    1    4    4    0    0  0.47563461658E-01 -0.33676880097E-01 -0.18372319412E-01  0.61108251321E-01  0.51100000000E-03 0. -1.
</event>
<event>
 8    1  0.1114447E+005  0.1043930E+01  0.7957747E-01            NaN
         13   -1    0    0    0    0  0.00000000000E+00  0.00000000000E+00  0.74505805969E-08  0.10566000000E+00  0.10566000000E+00 0. -1.
     999900   -1    0    0    0    0 -0.00000000000E+00 -0.00000000000E+00 -0.74505805969E-08  0.93827000000E+00  0.93827000000E+00 0.  1.
     999902    2    1    2    0    0 -0.44273510953E-02  0.21024689670E-01 -0.61396143151E-03  0.10224354434E+01  0.10222094795E+01 0.  0.
     999903    2    3    3    0    0  0.75514998670E-01 -0.10324930846E+00  0.98841879371E-02  0.13005378907E+00  0.21292161899E-01 0.  0.
         14    1    1    2    0    0  0.44273510953E-02 -0.21024689670E-01  0.61396143151E-03  0.21494556568E-01  0.00000000000E+00 0.  1.
     999901    1    3    3    0    0 -0.79942349765E-01  0.12427399813E+00 -0.10498149369E-01  0.89238165436E+00  0.88000000000E+00 0.  1.
        -11    1    4    4    0    0  0.57260179961E-01 -0.65667129507E-01  0.13272615296E-01  0.88132420508E-01  0.51100000000E-03 0.  1.
         11    1    4    4    0    0  0.18254818708E-01 -0.37582178957E-01 -0.33884273589E-02  0.41921368563E-01  0.51100000000E-03 0. -1.
</event>
<event>
 8    1  0.1114447E+005  0.1043930E+01  0.7957747E-01            NaN
         13   -1    0    0    0    0  0.00000000000E+00  0.00000000000E+00  0.74505805969E-08  0.10566000000E+00  0.10566000000E+00 0. -1.
     999900   -1    0    0    0    0 -0.00000000000E+00 -0.00000000000E+00 -0.74505805969E-08  0.93827000000E+00  0.93827000000E+00 0.  1.
     999902    2    1    2    0    0 -0.15657767292E-01 -0.57554096840E-02  0.15587383345E-01  0.10210989480E+01  0.10208436730E+01 0.  0.
     999903    2    3    3    0    0 -0.26311241479E-01 -0.74744609946E-01  0.10600810455E+00  0.13371576519E+00  0.19056481464E-01 0.  0.
         14    1    1    2    0    0  0.15657767292E-01  0.57554096840E-02 -0.15587383345E-01  0.22831052029E-01  0.00000000000E+00 0.  1.
     999901    1    3    3    0    0  0.10653474187E-01  0.68989200262E-01 -0.90420721202E-01  0.88738318278E+00  0.88000000000E+00 0.  1.
        -11    1    4    4    0    0 -0.17653230619E-01 -0.26157199648E-01  0.33722822718E-01  0.46187937146E-01  0.51100000000E-03 0.  1.
         11    1    4    4    0    0 -0.86580108593E-02 -0.48587410298E-01  0.72285281829E-01  0.87527828042E-01  0.51100000000E-03 0. -1.
</event>
<event>
 8    1  0.1114447E+005  0.1043930E+01  0.7957747E-01            NaN
         13   -1    0    0    0    0  0.00000000000E+00  0.00000000000E+00  0.74505805969E-08  0.10566000000E+00  0.10566000000E+00 0. -1.
     999900   -1    0    0    0    0 -0.00000000000E+00 -0.00000000000E+00 -0.74505805969E-08  0.93827000000E+00  0.93827000000E+00 0.  1.
     999902    2    1    2    0    0 -0.61862317856E-02  0.18721124767E-01  0.12916548515E-01  0.10203591027E+01  0.10200868155E+01 0.  0.
     999903    2    3    3    0    0 -0.50923755636E-01  0.75542459168E-01  0.95974295252E-01  0.13349456994E+00  0.17602352963E-01 0.  0.
         14    1    1    2    0    0  0.61862317856E-02 -0.18721124767E-01 -0.12916548515E-01  0.23570897348E-01  0.00000000000E+00 0.  1.
     999901    1    3    3    0    0  0.44737523851E-01 -0.56821334401E-01 -0.83057746737E-01  0.88686453271E+00  0.88000000000E+00 0.  1.
        -11    1    4    4    0    0 -0.36716260310E-01  0.38945045033E-01  0.55118969916E-01  0.76832039341E-01  0.51100000000E-03 0. -1.
         11    1    4    4    0    0 -0.14207495326E-01  0.36597414136E-01  0.40855325336E-01  0.56662530602E-01  0.51100000000E-03 0.  1.
</event>
<event>
 8    1  0.1114447E+005  0.1043930E+01  0.7957747E-01            NaN
         13   -1    0    0    0    0  0.00000000000E+00  0.00000000000E+00  0.74505805969E-08  0.10566000000E+00  0.10566000000E+00 0.  1.
     999900   -1    0    0    0    0 -0.00000000000E+00 -0.00000000000E+00 -0.74505805969E-08  0.93827000000E+00  0.93827000000E+00 0.  1.
     999902    2    1    2    0    0  0.14709997864E-01  0.15521662975E-01  0.11843687031E-02  0.10225125121E+01  0.10222881828E+01 0.  0.
     999903    2    3    3    0    0 -0.10824528056E+00 -0.12019729136E-01  0.69815013114E-01  0.13089224869E+00  0.19928122334E-01 0.  0.
         14    1    1    2    0    0 -0.14709997864E-01 -0.15521662975E-01 -0.11843687031E-02  0.21417487899E-01  0.00000000000E+00 0.  1.
     999901    1    3    3    0    0  0.12295527842E+00  0.27541392111E-01 -0.68630644411E-01  0.89162026341E+00  0.88000000000E+00 0. -1.
        -11    1    4    4    0    0 -0.69608198176E-01  0.72190244243E-03  0.49476806383E-01  0.85405139701E-01  0.51100000000E-03 0. -1.
         11    1    4    4    0    0 -0.38637082381E-01 -0.12741631579E-01  0.20338206731E-01  0.45487108990E-01  0.51100000000E-03 0.  1.
</event>
<event>
 8    1  0.1114447E+005  0.1043930E+01  0.7957747E-01            NaN
         13   -1    0    0    0    0  0.00000000000E+00  0.00000000000E+00  0.74505805969E-08  0.10566000000E+00  0.10566000000E+00 0.  1.
     999900   -1    0    0    0    0 -0.00000000000E+00 -0.00000000000E+00 -0.74505805969E-08  0.93827000000E+00  0.93827000000E+00 0. -1.
     999902    2    1    2    0    0  0.10120815331E-01  0.60031141601E-02 -0.19341828683E-01  0.10212898891E+01  0.10210389136E+01 0.  0.
     999903    2    3    3    0    0 -0.29867051557E-01 -0.70147990351E-01 -0.10689335884E+00  0.13277242131E+00  0.19736878611E-01 0.  0.
         14    1    1    2    0    0 -0.10120815331E-01 -0.60031141601E-02  0.19341828683E-01  0.22640110852E-01  0.00000000000E+00 0.  1.
     999901    1    3    3    0    0  0.39987866888E-01  0.76151104511E-01  0.87551530160E-01  0.88851746784E+00  0.88000000000E+00 0.  1.
        -11    1    4    4    0    0 -0.18343857338E-01 -0.50389104542E-01 -0.59216046278E-01  0.79889675280E-01  0.51100000000E-03 0. -1.
         11    1    4    4    0    0 -0.11523194218E-01 -0.19758885809E-01 -0.47677312565E-01  0.52882746032E-01  0.51100000000E-03 0.  1.
</event>
<event>
 8    1  0.1114447E+005  0.1043930E+01  0.7957747E-01            NaN
         13   -1    0    0    0    0  0.00000000000E+00  0.00000000000E+00  0.74505805969E-08  0.10566000000E+00  0.10566000000E+00 0. -1.
     999900   -1    0    0    0    0 -0.00000000000E+00 -0.00000000000E+00 -0.74505805969E-08  0.93827000000E+00  0.93827000000E+00 0.  1.
     999902    2    1    2    0    0 -0.19428754909E-01 -0.12731772249E-01  0.36380927495E-03  0.10206984073E+01  0.10204339919E+01 0.  0.
     999903    2    3    3    0    0  0.66833179915E-03  0.11750725313E+00 -0.45374588160E-01  0.12971125946E+00  0.30947639259E-01 0.  0.
         14    1    1    2    0    0  0.19428754909E-01  0.12731772249E-01 -0.36380927495E-03  0.23231592694E-01  0.00000000000E+00 0. -1.
     999901    1    3    3    0    0 -0.20097086708E-01 -0.13023902537E+00  0.45738397435E-01  0.89098714784E+00  0.88000000000E+00 0. -1.
        -11    1    4    4    0    0  0.82192842002E-02  0.21309918600E-01 -0.18901156542E-01  0.29651038820E-01  0.51100000000E-03 0. -1.
         11    1    4    4    0    0 -0.75509524011E-02  0.96197334527E-01 -0.26473431618E-01  0.10006022064E+00  0.51100000000E-03 0.  1.
</event>
<event>
 8    1  0.1114447E+005  0.1043930E+01  0.7957747E-01            NaN
         13   -1    0    0    0    0  0.00000000000E+00  0.00000000000E+00  0.74505805969E-08  0.10566000000E+00  0.10566000000E+00 0.  1.
     999900   -1    0    0    0    0 -0.00000000000E+00 -0.00000000000E+00 -0.74505805969E-08  0.93827000000E+00  0.93827000000E+00 0.  1.
     999902    2    1    2    0    0  0.75417457982E-02  0.61073793340E-02 -0.28399587220E-01  0.10139180929E+01  0.10134738204E+01 0.  0.
     999903    2    3    3    0    0  0.20222770907E-01 -0.11945586795E+00  0.15407227433E-01  0.12383608857E+00  0.20477532158E-01 0.  0.
         14    1    1    2    0    0 -0.75417457982E-02 -0.61073793340E-02  0.28399587220E-01  0.30011907075E-01  0.00000000000E+00 0.  1.
     999901    1    3    3    0    0 -0.12681025109E-01  0.12556324729E+00 -0.43806814653E-01  0.89008200436E+00  0.88000000000E+00 0. -1.
        -11    1    4    4    0    0  0.18982583411E-01 -0.66260935571E-01  0.15384162933E-01  0.70624242622E-01  0.51100000000E-03 0. -1.
         11    1    4    4    0    0  0.12401874955E-02 -0.53194932382E-01  0.23064500216E-04  0.53211845947E-01  0.51100000000E-03 0.  1.
</event>
<event>
 8    1  0.1114447E+005  0.1043930E+01  0.7957747E-01            NaN
         13   -1    0    0    0    0  0.00000000000E+00  0.00000000000E+00  0.74505805969E-08  0.10566000000E+00  0.10566000000E+00 0. -1.
     999900   -1    0    0    0    0 -0.00000000000E+00 -0.00000000000E+00 -0.74505805969E-08  0.93827000000E+00  0.93827000000E+00 0.  1.
     999902    2    1    2    0    0  0.17351774124E-01 -0.98709519998E-02 -0.12341803742E-01  0.10204600218E+01  0.10201900882E+01 0.  0.
     999903    2    3    3    0    0 -0.31051379985E-01 -0.10045479042E+00 -0.74945953745E-01  0.13227784636E+00  0.28725938435E-01 0.  0.
         14    1    1    2    0    0 -0.17351774124E-01  0.98709519998E-02  0.12341803742E-01  0.23469978233E-01  0.00000000000E+00 0. -1.
     999901    1    3    3    0    0  0.48403154110E-01  0.90583838416E-01  0.62604150002E-01  0.88818217541E+00  0.88000000000E+00 0. -1.
        -11    1    4    4    0    0  0.17850861218E-02  0.60076420597E-03  0.43236059432E-03  0.19988763786E-02  0.51100000000E-03 0.  1.
         11    1    4    4    0    0 -0.32836466107E-01 -0.10105555462E+00 -0.75378314339E-01  0.13027896998E+00  0.51100000000E-03 0. -1.
</event>
<event>
 8    1  0.1114447E+005  0.1043930E+01  0.7957747E-01            NaN
         13   -1    0    0    0    0  0.00000000000E+00  0.00000000000E+00  0.74505805969E-08  0.10566000000E+00  0.10566000000E+00 0.  1.
     999900   -1    0    0    0    0 -0.00000000000E+00 -0.00000000000E+00 -0.74505805969E-08  0.93827000000E+00  0.93827000000E+00 0. -1.
     999902    2    1    2    0    0 -0.16520876273E-01 -0.20728903108E-02  0.17362363635E-01  0.10198740673E+01  0.10195903223E+01 0.  0.
     999903    2    3    3    0    0  0.31809669428E-01 -0.78860593619E-01 -0.93598542880E-01  0.12827745683E+00  0.21530685224E-01 0.  0.
         14    1    1    2    0    0  0.16520876273E-01  0.20728903108E-02 -0.17362363635E-01  0.24055932700E-01  0.00000000000E+00 0. -1.
     999901    1    3    3    0    0 -0.48330545701E-01  0.76787703308E-01  0.11096090652E+00  0.89159661047E+00  0.88000000000E+00 0.  1.
        -11    1    4    4    0    0  0.91434131280E-02 -0.47493748672E-01 -0.59643931678E-01  0.76791391924E-01  0.51100000000E-03 0.  1.
         11    1    4    4    0    0  0.22666256300E-01 -0.31366844947E-01 -0.33954611202E-01  0.51486064906E-01  0.51100000000E-03 0. -1.
</event>
<event>
 8    1  0.1114447E+005  0.1043930E+01  0.7957747E-01            NaN
         13   -1    0    0    0    0  0.00000000000E+00  0.00000000000E+00  0.74505805969E-08  0.10566000000E+00  0.10566000000E+00 0. -1.
     999900   -1    0    0    0    0 -0.00000000000E+00 -0.00000000000E+00 -0.74505805969E-08  0.93827000000E+00  0.93827000000E+00 0.  1.
     999902    2    1    2    0    0 -0.20377206912E-01  0.85328041023E-02 -0.10353406989E-01  0.10195326160E+01  0.10192406599E+01 0.  0.
     999903    2    3    3    0    0  0.85736317909E-01 -0.83321441468E-01 -0.40301477000E-01  0.12790816064E+00  0.21050170878E-01 0.  0.
         14    1    1    2    0    0  0.20377206912E-01 -0.85328041023E-02  0.10353406989E-01  0.24397383951E-01  0.00000000000E+00 0.  1.
     999901    1    3    3    0    0 -0.10611352482E+00  0.91854245570E-01  0.29948070011E-01  0.89162445541E+00  0.88000000000E+00 0. -1.
        -11    1    4    4    0    0  0.15060817382E-01 -0.14812493999E-01  0.10197926560E-02  0.21155124597E-01  0.51100000000E-03 0.  1.
         11    1    4    4    0    0  0.70675500528E-01 -0.68508947469E-01 -0.41321269656E-01  0.10675303605E+00  0.51100000000E-03 0. -1.
</event>
<event>
 8    1  0.1114447E+005  0.1043930E+01  0.7957747E-01            NaN
         13   -1    0    0    0    0  0.00000000000E+00  0.00000000000E+00  0.74505805969E-08  0.10566000000E+00  0.10566000000E+00 0. -1.
     999900   -1    0    0    0    0 -0.00000000000E+00 -0.00000000000E+00 -0.74505805969E-08  0.93827000000E+00  0.93827000000E+00 0.  1.
     999902    2    1    2    0    0  0.11817416335E-01 -0.33238540080E-02 -0.19869602882E-01  0.10205740489E+01  0.10203067621E+01 0.  0.
     999903    2    3    3    0    0 -0.86507934537E-01  0.60012550691E-01 -0.75334360364E-01  0.13110470477E+00  0.20689339822E-01 0.  0.
         14    1    1    2    0    0 -0.11817416335E-01  0.33238540080E-02  0.19869602882E-01  0.23355951126E-01  0.00000000000E+00 0. -1.
     999901    1    3    3    0    0  0.98325350872E-01 -0.63336404699E-01  0.55464757481E-01  0.88946934411E+00  0.88000000000E+00 0.  1.
        -11    1    4    4    0    0 -0.25075391072E-01  0.19275498937E-01 -0.11708828285E-01  0.33729480836E-01  0.51100000000E-03 0. -1.
         11    1    4    4    0    0 -0.61432543465E-01  0.40737051754E-01 -0.63625532079E-01  0.97375223931E-01  0.51100000000E-03 0.  1.
</event>
<event>
 8    1  0.1114447E+005  0.1043930E+01  0.7957747E-01            NaN
         13   -1    0    0    0    0  0.00000000000E+00  0.00000000000E+00  0.74505805969E-08  0.10566000000E+00  0.10566000000E+00 0. -1.
     999900   -1    0    0    0    0 -0.00000000000E+00 -0.00000000000E+00 -0.74505805969E-08  0.93827000000E+00  0.93827000000E+00 0. -1.
     999902    2    1    2    0    0  0.30303420540E-02  0.12588182833E-01 -0.20690554928E-01  0.10195221246E+01  0.10192299142E+01 0.  0.
     999903    2    3    3    0    0 -0.59357235665E-02  0.12375456703E+00 -0.41706090256E-01  0.13223411719E+00  0.19900706280E-01 0.  0.
         14    1    1    2    0    0 -0.30303420540E-02 -0.12588182833E-01  0.20690554928E-01  0.24407875435E-01  0.00000000000E+00 0. -1.
     999901    1    3    3    0    0  0.89660656205E-02 -0.11116638419E+00  0.21015535327E-01  0.88728800738E+00  0.88000000000E+00 0. -1.
        -11    1    4    4    0    0  0.36434559123E-02  0.78387190834E-01 -0.19708666637E-01  0.80910562471E-01  0.51100000000E-03 0. -1.
         11    1    4    4    0    0 -0.95791794789E-02  0.45367376192E-01 -0.21997423619E-01  0.51323554718E-01  0.51100000000E-03 0.  1.
</event>
<event>
 8    1  0.1114447E+005  0.1043930E+01  0.7957747E-01            NaN
         13   -1    0    0    0    0  0.00000000000E+00  0.00000000000E+00  0.74505805969E-08  0.10566000000E+00  0.10566000000E+00 0.  1.
     999900   -1    0    0    0    0 -0.00000000000E+00 -0.00000000000E+00 -0.74505805969E-08  0.93827000000E+00  0.93827000000E+00 0. -1.
     999902    2    1    2    0    0  0.86495095191E-02 -0.22252758658E-01  0.14984645129E-02  0.10200083638E+01  0.10197278154E+01 0.  0.
     999903    2    3    3    0    0 -0.21957566442E-01  0.11556849036E+00  0.43931809682E-01  0.12774602650E+00  0.23469825195E-01 0.  0.
         14    1    1    2    0    0 -0.86495095191E-02  0.22252758658E-01 -0.14984645129E-02  0.23921636205E-01  0.00000000000E+00 0.  1.
     999901    1    3    3    0    0  0.30607075962E-01 -0.13782124902E+00 -0.42433345170E-01  0.89226233730E+00  0.88000000000E+00 0. -1.
        -11    1    4    4    0    0 -0.15396522913E-01  0.54509375004E-01  0.32412724124E-01  0.65262322111E-01  0.51100000000E-03 0. -1.
         11    1    4    4    0    0 -0.65610435299E-02  0.61059115359E-01  0.11519085559E-01  0.62483704385E-01  0.51100000000E-03 0.  1.
</event>
<event>
 8    1  0.1114447E+005  0.1043930E+01  0.7957747E-01            NaN
         13   -1    0    0    0    0  0.00000000000E+00  0.00000000000E+00  0.74505805969E-08  0.10566000000E+00  0.10566000000E+00 0.  1.
     999900   -1    0    0    0    0 -0.00000000000E+00 -0.00000000000E+00 -0.74505805969E-08  0.93827000000E+00  0.93827000000E+00 0.  1.
     999902    2    1    2    0    0  0.56272216896E-02  0.99025980382E-03  0.25290950429E-01  0.10180016678E+01  0.10176714191E+01 0.  0.
     999903    2    3    3    0    0 -0.12550095580E+00 -0.99524288270E-02  0.12124264693E-01  0.12812094376E+00  0.20455749544E-01 0.  0.
         14    1    1    2    0    0 -0.56272216896E-02 -0.99025980382E-03 -0.25290950429E-01  0.25928332226E-01  0.00000000000E+00 0. -1.
     999901    1    3    3    0    0  0.13112817748E+00  0.10942688631E-01  0.13166685736E-01  0.88988072402E+00  0.88000000000E+00 0. -1.
        -11    1    4    4    0    0 -0.74192632459E-01 -0.67009028097E-02  0.17203157578E-01  0.76456906564E-01  0.51100000000E-03 0. -1.
         11    1    4    4    0    0 -0.51308323337E-01 -0.32515260172E-02 -0.50788928850E-02  0.51664037192E-01  0.51100000000E-03 0.  1.
</event>
<event>
 7    1  0.1114447E+005  0.1043930E+01  0.7957747E-01            NaN
         13   -1    0    0    0    0  0.00000000000E+00  0.00000000000E+00  0.74505805969E-08  0.10566000000E+00  0.10566000000E+00 0.  1.
     999900   -1    0    0    0    0 -0.00000000000E+00 -0.00000000000E+00 -0.74505805969E-08  0.93827000000E+00  0.93827000000E+00 0.  1.
     999902    2    1    2    0    0  0.21771681690E-01  0.51054080934E-02 -0.46962700881E-02  0.10210799175E+01  0.10208242120E+01 0.  0.
         14    1    1    2    0    0 -0.21771681690E-01 -0.51054080934E-02  0.46962700881E-02  0.22850082454E-01  0.00000000000E+00 0. -1.
     999901    1    3    3    0    0 -0.84962932565E-01  0.19923140954E-01 -0.74130122067E-01  0.88741811253E+00  0.88000000000E+00 0. -1.
        -11    1    3    3    0    0  0.43060093316E-01  0.72438929701E-02  0.12448332224E-01  0.45407793581E-01  0.51100000000E-03 0. -1.
         11    1    3    3    0    0  0.63674520938E-01 -0.22061625830E-01  0.56985519755E-01  0.88254011431E-01  0.51100000000E-03 0.  1.
</event>
<event>
 8    1  0.1114447E+005  0.1043930E+01  0.7957747E-01            NaN
         13   -1    0    0    0    0  0.00000000000E+00  0.00000000000E+00  0.74505805969E-08  0.10566000000E+00  0.10566000000E+00 0. -1.
     999900   -1    0    0    0    0 -0.00000000000E+00 -0.00000000000E+00 -0.74505805969E-08  0.93827000000E+00  0.93827000000E+00 0.  1.
     999902    2    1    2    0    0 -0.21061601000E-01 -0.28609061837E-02  0.10210379592E-01  0.10203497610E+01  0.10200772554E+01 0.  0.
     999903    2    3    3    0    0  0.47864093821E-01  0.11792617654E+00  0.13191300882E-01  0.12942375022E+00  0.19466435515E-01 0.  0.
         14    1    1    2    0    0  0.21061601000E-01  0.28609061837E-02 -0.10210379592E-01  0.23580239021E-01  0.00000000000E+00 0. -1.
     999901    1    3    3    0    0 -0.68925694821E-01 -0.12078708272E+00 -0.29809212900E-02  0.89092601076E+00  0.88000000000E+00 0.  1.
        -11    1    4    4    0    0  0.35371655617E-01  0.69425232695E-01  0.14799245698E-01  0.79311384744E-01  0.51100000000E-03 0. -1.
         11    1    4    4    0    0  0.12492438204E-01  0.48500943842E-01 -0.16079448161E-02  0.50112365474E-01  0.51100000000E-03 0.  1.
</event>
<event>
 8    1  0.1114447E+005  0.1043930E+01  0.7957747E-01            NaN
         13   -1    0    0    0    0  0.00000000000E+00  0.00000000000E+00  0.74505805969E-08  0.10566000000E+00  0.10566000000E+00 0. -1.
     999900   -1    0    0    0    0 -0.00000000000E+00 -0.00000000000E+00 -0.74505805969E-08  0.93827000000E+00  0.93827000000E+00 0. -1.
     999902    2    1    2    0    0 -0.22433461865E-01  0.31000002031E-02  0.81332621757E-02  0.10198671621E+01  0.10195832522E+01 0.  0.
     999903    2    3    3    0    0  0.41955857208E-01  0.47509565096E-01  0.11219085204E+00  0.13029075964E+00  0.19272831553E-01 0.  0.
         14    1    1    2    0    0  0.22433461865E-01 -0.31000002031E-02 -0.81332621757E-02  0.24062837866E-01  0.00000000000E+00 0.  1.
     999901    1    3    3    0    0 -0.64389319074E-01 -0.44409564893E-01 -0.10405758987E+00  0.88957640249E+00  0.88000000000E+00 0. -1.
        -11    1    4    4    0    0  0.34485849877E-01  0.35327716602E-01  0.99904688846E-01  0.11143845556E+00  0.51100000000E-03 0. -1.
         11    1    4    4    0    0  0.74700073318E-02  0.12181848493E-01  0.12286163196E-01  0.18852304086E-01  0.51100000000E-03 0.  1.
</event>
<event>
 8    1  0.1114447E+005  0.1043930E+01  0.7957747E-01            NaN
         13   -1    0    0    0    0  0.00000000000E+00  0.00000000000E+00  0.74505805969E-08  0.10566000000E+00  0.10566000000E+00 0.  1.
     999900   -1    0    0    0    0 -0.00000000000E+00 -0.00000000000E+00 -0.74505805969E-08  0.93827000000E+00  0.93827000000E+00 0. -1.
     999902    2    1    2    0    0 -0.61415527341E-02 -0.17497885151E-01 -0.14040557764E-01  0.10206699072E+01  0.10204048351E+01 0.  0.
     999903    2    3    3    0    0  0.92532178880E-01 -0.68228352009E-02 -0.91366410911E-01  0.13172123063E+00  0.19847074059E-01 0.  0.
         14    1    1    2    0    0  0.61415527341E-02  0.17497885151E-01  0.14040557764E-01  0.23260092800E-01  0.00000000000E+00 0.  1.
     999901    1    3    3    0    0 -0.98673731614E-01 -0.10675049950E-01  0.77325853146E-01  0.88894867657E+00  0.88000000000E+00 0.  1.
        -11    1    4    4    0    0  0.27365857473E-01  0.29035114762E-02 -0.38051850881E-01  0.46963017478E-01  0.51100000000E-03 0.  1.
         11    1    4    4    0    0  0.65166321407E-01 -0.97263466771E-02 -0.53314560029E-01  0.84758213157E-01  0.51100000000E-03 0. -1.
</event>
<event>
 8    1  0.1114447E+005  0.1043930E+01  0.7957747E-01            NaN
         13   -1    0    0    0    0  0.00000000000E+00  0.00000000000E+00  0.74505805969E-08  0.10566000000E+00  0.10566000000E+00 0. -1.
     999900   -1    0    0    0    0 -0.00000000000E+00 -0.00000000000E+00 -0.74505805969E-08  0.93827000000E+00  0.93827000000E+00 0.  1.
     999902    2    1    2    0    0  0.66061223625E-03 -0.17876996612E-01 -0.14959152004E-01  0.10206104879E+01  0.10203440441E+01 0.  0.
     999903    2    3    3    0    0 -0.43918051959E-02 -0.13054104333E+00  0.14455350552E-01  0.13292590015E+00  0.20002145544E-01 0.  0.
         14    1    1    2    0    0 -0.66061223625E-03  0.17876996612E-01  0.14959152004E-01  0.23319512110E-01  0.00000000000E+00 0. -1.
     999901    1    3    3    0    0  0.50524174322E-02  0.11266404671E+00 -0.29414502555E-01  0.88768458774E+00  0.88000000000E+00 0.  1.
        -11    1    4    4    0    0 -0.48870865984E-02 -0.12175246406E+00  0.82237909339E-02  0.12212877621E+00  0.51100000000E-03 0. -1.
         11    1    4    4    0    0  0.49528140246E-03 -0.87885792667E-02  0.62315596177E-02  0.10797123944E-01  0.51100000000E-03 0.  1.
</event>
<event>
 8    1  0.1114447E+005  0.1043930E+01  0.7957747E-01            NaN
         13   -1    0    0    0    0  0.00000000000E+00  0.00000000000E+00  0.74505805969E-08  0.10566000000E+00  0.10566000000E+00 0. -1.
     999900   -1    0    0    0    0 -0.00000000000E+00 -0.00000000000E+00 -0.74505805969E-08  0.93827000000E+00  0.93827000000E+00 0.  1.
     999902    2    1    2    0    0  0.16570579473E-01 -0.15367373644E-01  0.56634854294E-02  0.10206316021E+01  0.10203656462E+01 0.  0.
     999903    2    3    3    0    0 -0.13019447446E-01 -0.10356999025E+00  0.79414337113E-01  0.13265949704E+00  0.19891111678E-01 0.  0.
         14    1    1    2    0    0 -0.16570579473E-01  0.15367373644E-01 -0.56634854294E-02  0.23298397885E-01  0.00000000000E+00 0.  1.
     999901    1    3    3    0    0  0.29590026919E-01  0.88202616604E-01 -0.73750851683E-01  0.88797210508E+00  0.88000000000E+00 0.  1.
        -11    1    4    4    0    0 -0.10438911393E-01 -0.31960829618E-01  0.17236500184E-01  0.37786552642E-01  0.51100000000E-03 0.  1.
         11    1    4    4    0    0 -0.25805360525E-02 -0.71609160630E-01  0.62177836929E-01  0.94872944398E-01  0.51100000000E-03 0. -1.
</event>
<event>
 8    1  0.1114447E+005  0.1043930E+01  0.7957747E-01            NaN
         13   -1    0    0    0    0  0.00000000000E+00  0.00000000000E+00  0.74505805969E-08  0.10566000000E+00  0.10566000000E+00 0. -1.
     999900   -1    0    0    0    0 -0.00000000000E+00 -0.00000000000E+00 -0.74505805969E-08  0.93827000000E+00  0.93827000000E+00 0.  1.
     999902    2    1    2    0    0 -0.12405499515E-02 -0.68278476827E-03 -0.21643370164E-01  0.10222403566E+01  0.10220102279E+01 0.  0.
     999903    2    3    3    0    0 -0.18150259679E-01  0.10739492449E+00  0.69400249919E-01  0.13080574302E+00  0.20752011578E-01 0.  0.
         14    1    1    2    0    0  0.12405499515E-02  0.68278476827E-03  0.21643370164E-01  0.21689643410E-01  0.00000000000E+00 0. -1.
     999901    1    3    3    0    0  0.16909709727E-01 -0.10807770926E+00 -0.91043620083E-01  0.89143461357E+00  0.88000000000E+00 0.  1.
        -11    1    4    4    0    0 -0.79827353019E-03  0.61108201132E-01  0.43333881550E-01  0.74919529480E-01  0.51100000000E-03 0.  1.
         11    1    4    4    0    0 -0.17351986149E-01  0.46286723357E-01  0.26066368369E-01  0.55886213535E-01  0.51100000000E-03 0. -1.
</event>
<event>
 8    1  0.1114447E+005  0.1043930E+01  0.7957747E-01            NaN
         13   -1    0    0    0    0  0.00000000000E+00  0.00000000000E+00  0.74505805969E-08  0.10566000000E+00  0.10566000000E+00 0. -1.
     999900   -1    0    0    0    0 -0.00000000000E+00 -0.00000000000E+00 -0.74505805969E-08  0.93827000000E+00  0.93827000000E+00 0.  1.
     999902    2    1    2    0    0 -0.62817569134E-02  0.21977901717E-01  0.42825987063E-02  0.10206742634E+01  0.10204092917E+01 0.  0.
     999903    2    3    3    0    0 -0.12312695187E+00  0.14397392414E-01  0.41103123876E-01  0.13215526259E+00  0.20199392364E-01 0.  0.
         14    1    1    2    0    0  0.62817569134E-02 -0.21977901717E-01 -0.42825987063E-02  0.23255736614E-01  0.00000000000E+00 0. -1.
     999901    1    3    3    0    0  0.11684519496E+00  0.75805093028E-02 -0.36820525169E-01  0.88851900080E+00  0.88000000000E+00 0.  1.
        -11    1    4    4    0    0 -0.58568324386E-01  0.15081388037E-01  0.13682393863E-01  0.62009401782E-01  0.51100000000E-03 0.  1.
         11    1    4    4    0    0 -0.64558627485E-01 -0.68399562299E-03  0.27420730013E-01  0.70145860806E-01  0.51100000000E-03 0. -1.
</event>
<event>
 8    1  0.1114447E+005  0.1043930E+01  0.7957747E-01            NaN
         13   -1    0    0    0    0  0.00000000000E+00  0.00000000000E+00  0.74505805969E-08  0.10566000000E+00  0.10566000000E+00 0.  1.
     999900   -1    0    0    0    0 -0.00000000000E+00 -0.00000000000E+00 -0.74505805969E-08  0.93827000000E+00  0.93827000000E+00 0. -1.
     999902    2    1    2    0    0  0.54279997036E-02 -0.87282107522E-02 -0.21068727569E-01  0.10204878131E+01  0.10202185259E+01 0.  0.
     999903    2    3    3    0    0  0.90665304456E-01  0.37497642644E-01  0.81608181401E-01  0.12922759564E+00  0.20337295010E-01 0.  0.
         14    1    1    2    0    0 -0.54279997036E-02  0.87282107522E-02  0.21068727569E-01  0.23442186867E-01  0.00000000000E+00 0.  1.
     999901    1    3    3    0    0 -0.85237304753E-01 -0.46225853396E-01 -0.10267690897E+00  0.89126021749E+00  0.88000000000E+00 0. -1.
        -11    1    4    4    0    0  0.54426581543E-01  0.31210101039E-01  0.44081541437E-01  0.76679636161E-01  0.51100000000E-03 0.  1.
         11    1    4    4    0    0  0.36238722914E-01  0.62875416048E-02  0.37526639964E-01  0.52547959483E-01  0.51100000000E-03 0. -1.
</event>
<event>
 8    1  0.1114447E+005  0.1043930E+01  0.7957747E-01            NaN
         13   -1    0    0    0    0  0.00000000000E+00  0.00000000000E+00  0.74505805969E-08  0.10566000000E+00  0.10566000000E+00 0. -1.
     999900   -1    0    0    0    0 -0.00000000000E+00 -0.00000000000E+00 -0.74505805969E-08  0.93827000000E+00  0.93827000000E+00 0. -1.
     999902    2    1    2    0    0 -0.23895148285E-01  0.12990448650E-01 -0.48926978836E-02  0.10162954499E+01  0.10159196686E+01 0.  0.
     999903    2    3    3    0    0 -0.64263746435E-01  0.83204531474E-01  0.72542526237E-01  0.12919012633E+00  0.19360977864E-01 0.  0.
         14    1    1    2    0    0  0.23895148285E-01 -0.12990448650E-01  0.48926978836E-02  0.27634550119E-01  0.00000000000E+00 0. -1.
     999901    1    3    3    0    0  0.40368598150E-01 -0.70214082823E-01 -0.77435224121E-01  0.88710532355E+00  0.88000000000E+00 0. -1.
        -11    1    4    4    0    0 -0.43020483553E-01  0.68466794452E-01  0.58096903451E-01  0.99568947264E-01  0.51100000000E-03 0. -1.
         11    1    4    4    0    0 -0.21243262882E-01  0.14737737022E-01  0.14445622786E-01  0.29621179063E-01  0.51100000000E-03 0.  1.
</event>
<event>
 8    1  0.1114447E+005  0.1043930E+01  0.7957747E-01            NaN
         13   -1    0    0    0    0  0.00000000000E+00  0.00000000000E+00  0.74505805969E-08  0.10566000000E+00  0.10566000000E+00 0.  1.
     999900   -1    0    0    0    0 -0.00000000000E+00 -0.00000000000E+00 -0.74505805969E-08  0.93827000000E+00  0.93827000000E+00 0. -1.
     999902    2    1    2    0    0  0.13433605688E-01  0.15539209248E-01  0.17279204062E-01  0.10170878749E+01  0.10167336159E+01 0.  0.
     999903    2    3    3    0    0 -0.85519271757E-01  0.17398495695E-01 -0.87633519602E-01  0.12534698851E+00  0.20395594561E-01 0.  0.
         14    1    1    2    0    0 -0.13433605688E-01 -0.15539209248E-01 -0.17279204062E-01  0.26842125081E-01  0.00000000000E+00 0. -1.
     999901    1    3    3    0    0  0.98952877445E-01 -0.18592864464E-02  0.10491272366E+00  0.89174088641E+00  0.88000000000E+00 0.  1.
        -11    1    4    4    0    0 -0.75886370997E-02  0.77994310786E-02 -0.13626901255E-01  0.17446263124E-01  0.51100000000E-03 0.  1.
         11    1    4    4    0    0 -0.77930634657E-01  0.95990646159E-02 -0.74006618347E-01  0.10790072539E+00  0.51100000000E-03 0. -1.
</event>
<event>
 8    1  0.1114447E+005  0.1043930E+01  0.7957747E-01            NaN
         13   -1    0    0    0    0  0.00000000000E+00  0.00000000000E+00  0.74505805969E-08  0.10566000000E+00  0.10566000000E+00 0. -1.
     999900   -1    0    0    0    0 -0.00000000000E+00 -0.00000000000E+00 -0.74505805969E-08  0.93827000000E+00  0.93827000000E+00 0. -1.
     999902    2    1    2    0    0  0.68173001790E-02 -0.18572081424E-01 -0.12515251290E-01  0.10205199743E+01  0.10202514340E+01 0.  0.
     999903    2    3    3    0    0 -0.70061593294E-01 -0.10195285993E+00  0.40279432912E-01  0.13167240737E+00  0.20302158628E-01 0.  0.
         14    1    1    2    0    0 -0.68173001790E-02  0.18572081424E-01  0.12515251290E-01  0.23410025737E-01  0.00000000000E+00 0. -1.
     999901    1    3    3    0    0  0.76878893473E-01  0.83380778506E-01 -0.52794684202E-01  0.88884756689E+00  0.88000000000E+00 0.  1.
        -11    1    4    4    0    0 -0.62757785842E-01 -0.84052452793E-01  0.40186174002E-01  0.11233229369E+00  0.51100000000E-03 0. -1.
         11    1    4    4    0    0 -0.73038074521E-02 -0.17900407137E-01  0.93258910311E-04  0.19340113681E-01  0.51100000000E-03 0.  1.
</event>
<event>
 8    1  0.1114447E+005  0.1043930E+01  0.7957747E-01            NaN
         13   -1    0    0    0    0  0.00000000000E+00  0.00000000000E+00  0.74505805969E-08  0.10566000000E+00  0.10566000000E+00 0.  1.
     999900   -1    0    0    0    0 -0.00000000000E+00 -0.00000000000E+00 -0.74505805969E-08  0.93827000000E+00  0.93827000000E+00 0. -1.
     999902    2    1    2    0    0  0.22420983615E-01  0.32598206262E-02  0.49945244033E-02  0.10207293058E+01  0.10204656013E+01 0.  0.
     999903    2    3    3    0    0  0.13087458129E+00 -0.16173821568E-02 -0.18695713045E-01  0.13374159603E+00  0.20162164307E-01 0.  0.
         14    1    1    2    0    0 -0.22420983615E-01 -0.32598206262E-02 -0.49945244033E-02  0.23200694188E-01  0.00000000000E+00 0. -1.
     999901    1    3    3    0    0 -0.10845359767E+00  0.48772027831E-02  0.23690237448E-01  0.88698770978E+00  0.88000000000E+00 0. -1.
        -11    1    4    4    0    0  0.10040149846E+00 -0.82735395720E-02 -0.19127611782E-01  0.10254286423E+00  0.51100000000E-03 0.  1.
         11    1    4    4    0    0  0.30473082825E-01  0.66561574151E-02  0.43189873721E-03  0.31198731800E-01  0.51100000000E-03 0. -1.
</event>
<event>
 8    1  0.1114447E+005  0.1043930E+01  0.7957747E-01            NaN
         13   -1    0    0    0    0  0.00000000000E+00  0.00000000000E+00  0.74505805969E-08  0.10566000000E+00  0.10566000000E+00 0.  1.
     999900   -1    0    0    0    0 -0.00000000000E+00 -0.00000000000E+00 -0.74505805969E-08  0.93827000000E+00  0.93827000000E+00 0. -1.
     999902    2    1    2    0    0 -0.99870942327E-04 -0.16115688553E-01  0.17458294048E-01  0.10201704246E+01  0.10198937091E+01 0.  0.
     999903    2    3    3    0    0  0.55791737276E-01  0.11335742515E+00 -0.11368208138E-01  0.12847646014E+00  0.20355364595E-01 0.  0.
         14    1    1    2    0    0  0.99870942327E-04  0.16115688553E-01 -0.17458294048E-01  0.23759575392E-01  0.00000000000E+00 0. -1.
     999901    1    3    3    0    0 -0.55891608219E-01 -0.12947311371E+00  0.28826502186E-01  0.89169396447E+00  0.88000000000E+00 0.  1.
        -11    1    4    4    0    0  0.39268255284E-01  0.88170050710E-01 -0.72315150465E-03  0.96523249968E-01  0.51100000000E-03 0. -1.
         11    1    4    4    0    0  0.16523481993E-01  0.25187374444E-01 -0.10645056633E-01  0.31953210171E-01  0.51100000000E-03 0.  1.
</event>
<event>
 8    1  0.1114447E+005  0.1043930E+01  0.7957747E-01            NaN
         13   -1    0    0    0    0  0.00000000000E+00  0.00000000000E+00  0.74505805969E-08  0.10566000000E+00  0.10566000000E+00 0.  1.
     999900   -1    0    0    0    0 -0.00000000000E+00 -0.00000000000E+00 -0.74505805969E-08  0.93827000000E+00  0.93827000000E+00 0. -1.
     999902    2    1    2    0    0 -0.19332407585E-01 -0.21609414931E-02 -0.17957168658E-01  0.10174560211E+01  0.10171115393E+01 0.  0.
     999903    2    3    3    0    0 -0.31017979045E-01  0.10677677169E+00  0.58730420820E-01  0.12735211466E+00  0.20147078745E-01 0.  0.
         14    1    1    2    0    0  0.19332407585E-01  0.21609414931E-02  0.17957168658E-01  0.26473978873E-01  0.00000000000E+00 0. -1.
     999901    1    3    3    0    0  0.11685571461E-01 -0.10893771318E+00 -0.76687589478E-01  0.89010390647E+00  0.88000000000E+00 0. -1.
        -11    1    4    4    0    0 -0.86096620318E-02  0.33786650155E-01  0.29217426515E-01  0.45492671302E-01  0.51100000000E-03 0. -1.
         11    1    4    4    0    0 -0.22408317013E-01  0.72990121532E-01  0.29512994306E-01  0.81859443355E-01  0.51100000000E-03 0.  1.
</event>
<event>
 8    1  0.1114447E+005  0.1043930E+01  0.7957747E-01            NaN
         13   -1    0    0    0    0  0.00000000000E+00  0.00000000000E+00  0.74505805969E-08  0.10566000000E+00  0.10566000000E+00 0. -1.
     999900   -1    0    0    0    0 -0.00000000000E+00 -0.00000000000E+00 -0.74505805969E-08  0.93827000000E+00  0.93827000000E+00 0. -1.
     999902    2    1    2    0    0  0.71047253221E-03 -0.23253536328E-01  0.68798719178E-02  0.10196696546E+01  0.10193810083E+01 0.  0.
     999903    2    3    3    0    0 -0.78403289421E-01  0.94319565756E-01 -0.29011998483E-01  0.12760987629E+00  0.19983197772E-01 0.  0.
         14    1    1    2    0    0 -0.71047253221E-03  0.23253536328E-01 -0.68798719178E-02  0.24260345434E-01  0.00000000000E+00 0. -1.
     999901    1    3    3    0    0  0.79113761953E-01 -0.11757310208E+00  0.35891870400E-01  0.89205977828E+00  0.88000000000E+00 0.  1.
        -11    1    4    4    0    0 -0.42840230776E-01  0.51635537292E-01 -0.26037334021E-01  0.71970257525E-01  0.51100000000E-03 0.  1.
         11    1    4    4    0    0 -0.35563058645E-01  0.42684028464E-01 -0.29746644620E-02  0.55639618760E-01  0.51100000000E-03 0. -1.
</event>
<event>
 8    1  0.1114447E+005  0.1043930E+01  0.7957747E-01            NaN
         13   -1    0    0    0    0  0.00000000000E+00  0.00000000000E+00  0.74505805969E-08  0.10566000000E+00  0.10566000000E+00 0.  1.
     999900   -1    0    0    0    0 -0.00000000000E+00 -0.00000000000E+00 -0.74505805969E-08  0.93827000000E+00  0.93827000000E+00 0. -1.
     999902    2    1    2    0    0  0.20730831196E-01  0.51726889001E-02 -0.95822479068E-02  0.10205132635E+01  0.10202445675E+01 0.  0.
     999903    2    3    3    0    0  0.50175731369E-01 -0.45615695305E-01 -0.11244732534E+00  0.13257875790E+00  0.18284703823E-01 0.  0.
         14    1    1    2    0    0 -0.20730831196E-01 -0.51726889001E-02  0.95822479068E-02  0.23416736482E-01  0.00000000000E+00 0.  1.
     999901    1    3    3    0    0 -0.29444900173E-01  0.50788384205E-01  0.10286507743E+00  0.88793450562E+00  0.88000000000E+00 0.  1.
        -11    1    4    4    0    0  0.38657334039E-01 -0.24426615889E-01 -0.66878329750E-01  0.81018646927E-01  0.51100000000E-03 0.  1.
         11    1    4    4    0    0  0.11518397330E-01 -0.21189079416E-01 -0.45568995586E-01  0.51560110970E-01  0.51100000000E-03 0. -1.
</event>
<event>
 8    1  0.1114447E+005  0.1043930E+01  0.7957747E-01            NaN
         13   -1    0    0    0    0  0.00000000000E+00  0.00000000000E+00  0.74505805969E-08  0.10566000000E+00  0.10566000000E+00 0.  1.
     999900   -1    0    0    0    0 -0.00000000000E+00 -0.00000000000E+00 -0.74505805969E-08  0.93827000000E+00  0.93827000000E+00 0.  1.
     999902    2    1    2    0    0 -0.47207367616E-02  0.16456440032E-01  0.16943580455E-01  0.10198429767E+01  0.10195584889E+01 0.  0.
     999903    2    3    3    0    0  0.56162377414E-01  0.81915904947E-01  0.85449862202E-01  0.13266497549E+00  0.20829994052E-01 0.  0.
         14    1    1    2    0    0  0.47207367616E-02 -0.16456440032E-01 -0.16943580455E-01  0.24087023327E-01  0.00000000000E+00 0. -1.
     999901    1    3    3    0    0 -0.60883114176E-01 -0.65459464915E-01 -0.68506281747E-01  0.88717800118E+00  0.88000000000E+00 0.  1.
        -11    1    4    4    0    0  0.89453152404E-02  0.29642595202E-01  0.28394405371E-01  0.42014348649E-01  0.51100000000E-03 0. -1.
         11    1    4    4    0    0  0.47217062174E-01  0.52273309745E-01  0.57055456832E-01  0.90650626844E-01  0.51100000000E-03 0.  1.
</event>
<event>
 8    1  0.1114447E+005  0.1043930E+01  0.7957747E-01            NaN
         13   -1    0    0    0    0  0.00000000000E+00  0.00000000000E+00  0.74505805969E-08  0.10566000000E+00  0.10566000000E+00 0.  1.
     999900   -1    0    0    0    0 -0.00000000000E+00 -0.00000000000E+00 -0.74505805969E-08  0.93827000000E+00  0.93827000000E+00 0. -1.
     999902    2    1    2    0    0  0.96814413642E-02 -0.17502840150E-01  0.10493286919E-01  0.10213426409E+01  0.10210928466E+01 0.  0.
     999903    2    3    3    0    0 -0.43341257513E-01  0.56987340081E-01 -0.10527946858E+00  0.12906268234E+00  0.21151546898E-01 0.  0.
         14    1    1    2    0    0 -0.96814413642E-02  0.17502840150E-01 -0.10493286919E-01  0.22587359088E-01  0.00000000000E+00 0. -1.
     999901    1    3    3    0    0  0.53022698877E-01 -0.74490180230E-01  0.11577275550E+00  0.89227995857E+00  0.88000000000E+00 0.  1.
        -11    1    4    4    0    0 -0.14680381872E-01  0.32829773609E-01 -0.40054623982E-01  0.53832533569E-01  0.51100000000E-03 0.  1.
         11    1    4    4    0    0 -0.28660875641E-01  0.24157566472E-01 -0.65224844601E-01  0.75230148774E-01  0.51100000000E-03 0. -1.
</event>
<event>
 8    1  0.1114447E+005  0.1043930E+01  0.7957747E-01            NaN
         13   -1    0    0    0    0  0.00000000000E+00  0.00000000000E+00  0.74505805969E-08  0.10566000000E+00  0.10566000000E+00 0.  1.
     999900   -1    0    0    0    0 -0.00000000000E+00 -0.00000000000E+00 -0.74505805969E-08  0.93827000000E+00  0.93827000000E+00 0.  1.
     999902    2    1    2    0    0 -0.82247740239E-02  0.22112102432E-01 -0.15989984488E-02  0.10202836731E+01  0.10200096199E+01 0.  0.
     999903    2    3    3    0    0 -0.47886950992E-01 -0.52790198501E-01  0.10643776310E+00  0.12963481699E+00  0.19905356810E-01 0.  0.
         14    1    1    2    0    0  0.82247740239E-02 -0.22112102432E-01  0.15989984488E-02  0.23646326940E-01  0.00000000000E+00 0.  1.
     999901    1    3    3    0    0  0.39662176968E-01  0.74902300933E-01 -0.10803676155E+00  0.89064885607E+00  0.88000000000E+00 0.  1.
        -11    1    4    4    0    0 -0.31718333604E-01 -0.40147198752E-01  0.59962050958E-01  0.78826131012E-01  0.51100000000E-03 0.  1.
         11    1    4    4    0    0 -0.16168617388E-01 -0.12642999749E-01  0.46475712144E-01  0.50808685981E-01  0.51100000000E-03 0. -1.
</event>
<event>
 8    1  0.1114447E+005  0.1043930E+01  0.7957747E-01            NaN
         13   -1    0    0    0    0  0.00000000000E+00  0.00000000000E+00  0.74505805969E-08  0.10566000000E+00  0.10566000000E+00 0. -1.
     999900   -1    0    0    0    0 -0.00000000000E+00 -0.00000000000E+00 -0.74505805969E-08  0.93827000000E+00  0.93827000000E+00 0. -1.
     999902    2    1    2    0    0  0.15749919993E-01  0.17180535062E-01  0.21618924930E-02  0.10205226391E+01  0.10202541607E+01 0.  0.
     999903    2    3    3    0    0 -0.92648956858E-01 -0.51391551411E-01 -0.69762542518E-01  0.12831998730E+00  0.19346473529E-01 0.  0.
         14    1    1    2    0    0 -0.15749919993E-01 -0.17180535062E-01 -0.21618924930E-02  0.23407360893E-01  0.00000000000E+00 0.  1.
     999901    1    3    3    0    0  0.10839887685E+00  0.68572086473E-01  0.71924435011E-01  0.89220265181E+00  0.88000000000E+00 0. -1.
        -11    1    4    4    0    0 -0.11935993892E-01  0.20259661025E-04 -0.64797860308E-02  0.13591067237E-01  0.51100000000E-03 0.  1.
         11    1    4    4    0    0 -0.80712962966E-01 -0.51411811072E-01 -0.63282756487E-01  0.11472892006E+00  0.51100000000E-03 0. -1.
</event>
<event>
 8    1  0.1114447E+005  0.1043930E+01  0.7957747E-01            NaN
         13   -1    0    0    0    0  0.00000000000E+00  0.00000000000E+00  0.74505805969E-08  0.10566000000E+00  0.10566000000E+00 0. -1.
     999900   -1    0    0    0    0 -0.00000000000E+00 -0.00000000000E+00 -0.74505805969E-08  0.93827000000E+00  0.93827000000E+00 0.  1.
     999902    2    1    2    0    0 -0.11515619883E-01  0.23636371383E-01 -0.75343954236E-02  0.10165794119E+01  0.10162114180E+01 0.  0.
     999903    2    3    3    0    0 -0.34790905444E-01 -0.33071060286E-01 -0.11672827401E+00  0.12771453196E+00  0.19529710445E-01 0.  0.
         14    1    1    2    0    0  0.11515619883E-01 -0.23636371383E-01  0.75343954236E-02  0.27350588071E-01  0.00000000000E+00 0. -1.
     999901    1    3    3    0    0  0.23275285561E-01  0.56707431669E-01  0.10919387859E+00  0.88886487997E+00  0.88000000000E+00 0. -1.
        -11    1    4    4    0    0 -0.16678038754E-01 -0.11660506682E-01 -0.27722062115E-01  0.34393287742E-01  0.51100000000E-03 0.  1.
         11    1    4    4    0    0 -0.18112866690E-01 -0.21410553604E-01 -0.89006211894E-01  0.93321244217E-01  0.51100000000E-03 0. -1.
</event>
<event>
 8    1  0.1114447E+005  0.1043930E+01  0.7957747E-01            NaN
         13   -1    0    0    0    0  0.00000000000E+00  0.00000000000E+00  0.74505805969E-08  0.10566000000E+00  0.10566000000E+00 0. -1.
     999900   -1    0    0    0    0 -0.00000000000E+00 -0.00000000000E+00 -0.74505805969E-08  0.93827000000E+00  0.93827000000E+00 0.  1.
     999902    2    1    2    0    0 -0.67802845040E-02 -0.16903902392E-01 -0.83414360777E-02  0.10238976829E+01  0.10237017003E+01 0.  0.
     999903    2    3    3    0    0 -0.63470751996E-01  0.73969144324E-01 -0.89769597451E-01  0.13367171987E+00  0.17594811602E-01 0.  0.
         14    1    1    2    0    0  0.67802845040E-02  0.16903902392E-01  0.83414360777E-02  0.20032317137E-01  0.00000000000E+00 0. -1.
     999901    1    3    3    0    0  0.56690467492E-01 -0.90873046716E-01  0.81428161373E-01  0.89022596299E+00  0.88000000000E+00 0. -1.
        -11    1    4    4    0    0 -0.23361444030E-01  0.29529815444E-01 -0.46345775589E-01  0.59715652080E-01  0.51100000000E-03 0. -1.
         11    1    4    4    0    0 -0.40109307966E-01  0.44439328880E-01 -0.43423821862E-01  0.73956067790E-01  0.51100000000E-03 0.  1.
</event>
<event>
 8    1  0.1114447E+005  0.1043930E+01  0.7957747E-01            NaN
         13   -1    0    0    0    0  0.00000000000E+00  0.00000000000E+00  0.74505805969E-08  0.10566000000E+00  0.10566000000E+00 0. -1.
     999900   -1    0    0    0    0 -0.00000000000E+00 -0.00000000000E+00 -0.74505805969E-08  0.93827000000E+00  0.93827000000E+00 0.  1.
     999902    2    1    2    0    0 -0.16554783182E-01  0.16564295635E-01  0.33862914618E-02  0.10202677155E+01  0.10199932880E+01 0.  0.
     999903    2    3    3    0    0 -0.98181944280E-01  0.77708906747E-01  0.43269280167E-01  0.13348008048E+00  0.16319709237E-01 0.  0.
         14    1    1    2    0    0  0.16554783182E-01 -0.16564295635E-01 -0.33862914618E-02  0.23662284461E-01  0.00000000000E+00 0.  1.
     999901    1    3    3    0    0  0.81627161098E-01 -0.61144611112E-01 -0.39882988706E-01  0.88678763505E+00  0.88000000000E+00 0.  1.
        -11    1    4    4    0    0 -0.52214050290E-01  0.50015171269E-01  0.20281545543E-01  0.75096115848E-01  0.51100000000E-03 0.  1.
         11    1    4    4    0    0 -0.45967893990E-01  0.27693735477E-01  0.22987734624E-01  0.58383964636E-01  0.51100000000E-03 0. -1.
</event>
<event>
 8    1  0.1114447E+005  0.1043930E+01  0.7957747E-01            NaN
         13   -1    0    0    0    0  0.00000000000E+00  0.00000000000E+00  0.74505805969E-08  0.10566000000E+00  0.10566000000E+00 0.  1.
     999900   -1    0    0    0    0 -0.00000000000E+00 -0.00000000000E+00 -0.74505805969E-08  0.93827000000E+00  0.93827000000E+00 0.  1.
     999902    2    1    2    0    0  0.24170586025E-01  0.93040906499E-02  0.70701798803E-02  0.10170828256E+01  0.10167284314E+01 0.  0.
     999903    2    3    3    0    0 -0.15373307692E-02 -0.12234514066E+00  0.27456033238E-01  0.12668516154E+00  0.18016646811E-01 0.  0.
         14    1    1    2    0    0 -0.24170586025E-01 -0.93040906499E-02 -0.70701798803E-02  0.26847174435E-01  0.00000000000E+00 0. -1.
     999901    1    3    3    0    0  0.25707916794E-01  0.13164923131E+00 -0.20385853358E-01  0.89039766403E+00  0.88000000000E+00 0. -1.
        -11    1    4    4    0    0  0.71979677424E-02 -0.29494337786E-01  0.82635589760E-02  0.31468622929E-01  0.51100000000E-03 0.  1.
         11    1    4    4    0    0 -0.87352985115E-02 -0.92850802877E-01  0.19192474262E-01  0.95216538607E-01  0.51100000000E-03 0. -1.
</event>
<event>
 8    1  0.1114447E+005  0.1043930E+01  0.7957747E-01            NaN
         13   -1    0    0    0    0  0.00000000000E+00  0.00000000000E+00  0.74505805969E-08  0.10566000000E+00  0.10566000000E+00 0.  1.
     999900   -1    0    0    0    0 -0.00000000000E+00 -0.00000000000E+00 -0.74505805969E-08  0.93827000000E+00  0.93827000000E+00 0. -1.
     999902    2    1    2    0    0  0.11540599233E-01 -0.25203172904E-01  0.26934921197E-02  0.10160796812E+01  0.10156979267E+01 0.  0.
     999903    2    3    3    0    0 -0.86670255478E-02 -0.36735526615E-01 -0.11991414280E+00  0.12727487960E+00  0.19871514415E-01 0.  0.
         14    1    1    2    0    0 -0.11540599233E-01  0.25203172904E-01 -0.26934921197E-02  0.27850318757E-01  0.00000000000E+00 0. -1.
     999901    1    3    3    0    0  0.20207624781E-01  0.11532353712E-01  0.12260763492E+00  0.88880480164E+00  0.88000000000E+00 0.  1.
        -11    1    4    4    0    0 -0.33000460865E-02 -0.31882489211E-01 -0.71989645555E-01  0.78804527856E-01  0.51100000000E-03 0. -1.
         11    1    4    4    0    0 -0.53669794613E-02 -0.48530374040E-02 -0.47924497249E-01  0.48470351744E-01  0.51100000000E-03 0.  1.
</event>
<event>
 8    1  0.1114447E+005  0.1043930E+01  0.7957747E-01            NaN
         13   -1    0    0    0    0  0.00000000000E+00  0.00000000000E+00  0.74505805969E-08  0.10566000000E+00  0.10566000000E+00 0.  1.
     999900   -1    0    0    0    0 -0.00000000000E+00 -0.00000000000E+00 -0.74505805969E-08  0.93827000000E+00  0.93827000000E+00 0. -1.
     999902    2    1    2    0    0 -0.12160451594E-01  0.25470515016E-02 -0.19137624672E-01  0.10211130604E+01  0.10208581044E+01 0.  0.
     999903    2    3    3    0    0 -0.18956979204E-02  0.64091975212E-01  0.11037450289E+00  0.12944802577E+00  0.21514774688E-01 0.  0.
         14    1    1    2    0    0  0.12160451594E-01 -0.25470515016E-02  0.19137624672E-01  0.22816939594E-01  0.00000000000E+00 0. -1.
     999901    1    3    3    0    0 -0.10264753673E-01 -0.61544923711E-01 -0.12951212757E+00  0.89166503463E+00  0.88000000000E+00 0. -1.
        -11    1    4    4    0    0 -0.11457286580E-01  0.33525016635E-01  0.62525404053E-01  0.71867123423E-01  0.51100000000E-03 0. -1.
         11    1    4    4    0    0  0.95615886597E-02  0.30566958577E-01  0.47849098842E-01  0.57580902349E-01  0.51100000000E-03 0.  1.
</event>
<event>
 8    1  0.1114447E+005  0.1043930E+01  0.7957747E-01            NaN
         13   -1    0    0    0    0  0.00000000000E+00  0.00000000000E+00  0.74505805969E-08  0.10566000000E+00  0.10566000000E+00 0.  1.
     999900   -1    0    0    0    0 -0.00000000000E+00 -0.00000000000E+00 -0.74505805969E-08  0.93827000000E+00  0.93827000000E+00 0. -1.
     999902    2    1    2    0    0 -0.22677608593E-01  0.29734391356E-03 -0.96870547772E-02  0.10192682609E+01  0.10189698653E+01 0.  0.
     999903    2    3    3    0    0  0.86167175669E-01  0.47405512093E-01 -0.80220329315E-01  0.12851503504E+00  0.20217523505E-01 0.  0.
         14    1    1    2    0    0  0.22677608593E-01 -0.29734391356E-03  0.96870547772E-02  0.24661739095E-01  0.00000000000E+00 0.  1.
     999901    1    3    3    0    0 -0.10884478426E+00 -0.47108168179E-01  0.70533274538E-01  0.89075322586E+00  0.88000000000E+00 0.  1.
        -11    1    4    4    0    0  0.41063654390E-01  0.27728629341E-01 -0.28676655886E-01  0.57251308376E-01  0.51100000000E-03 0. -1.
         11    1    4    4    0    0  0.45103521279E-01  0.19676882751E-01 -0.51543673429E-01  0.71263726665E-01  0.51100000000E-03 0.  1.
</event>
<event>
 8    1  0.1114447E+005  0.1043930E+01  0.7957747E-01            NaN
         13   -1    0    0    0    0  0.00000000000E+00  0.00000000000E+00  0.74505805969E-08  0.10566000000E+00  0.10566000000E+00 0. -1.
     999900   -1    0    0    0    0 -0.00000000000E+00 -0.00000000000E+00 -0.74505805969E-08  0.93827000000E+00  0.93827000000E+00 0. -1.
     999902    2    1    2    0    0 -0.80461984102E-02 -0.86677764416E-02 -0.19552110851E-01  0.10210792517E+01  0.10208235311E+01 0.  0.
     999903    2    3    3    0    0 -0.10248734648E+00  0.50771986937E-01  0.59754217316E-01  0.13049421391E+00  0.19409341319E-01 0.  0.
         14    1    1    2    0    0  0.80461984102E-02  0.86677764416E-02  0.19552110851E-01  0.22850748260E-01  0.00000000000E+00 0. -1.
     999901    1    3    3    0    0  0.94441148073E-01 -0.59439763378E-01 -0.79306328167E-01  0.89058503783E+00  0.88000000000E+00 0. -1.
        -11    1    4    4    0    0 -0.58859494071E-01  0.37544662234E-01  0.29594940936E-01  0.75829831561E-01  0.51100000000E-03 0.  1.
         11    1    4    4    0    0 -0.43627852412E-01  0.13227324703E-01  0.30159276381E-01  0.54664382349E-01  0.51100000000E-03 0. -1.
</event>
<event>
 8    1  0.1114447E+005  0.1043930E+01  0.7957747E-01            NaN
         13   -1    0    0    0    0  0.00000000000E+00  0.00000000000E+00  0.74505805969E-08  0.10566000000E+00  0.10566000000E+00 0.  1.
     999900   -1    0    0    0    0 -0.00000000000E+00 -0.00000000000E+00 -0.74505805969E-08  0.93827000000E+00  0.93827000000E+00 0.  1.
     999902    2    1    2    0    0  0.16643293472E-02 -0.15152267614E-01  0.17894109755E-01  0.10204233973E+01  0.10201526108E+01 0.  0.
     999903    2    3    3    0    0  0.19873782127E-01 -0.54176359489E-02 -0.12531526006E+00  0.12860768158E+00  0.20290474650E-01 0.  0.
         14    1    1    2    0    0 -0.16643293472E-02  0.15152267614E-01 -0.17894109755E-01  0.23506602688E-01  0.00000000000E+00 0. -1.
     999901    1    3    3    0    0 -0.18209452779E-01 -0.97346316650E-02  0.14320936982E+00  0.89181571573E+00  0.88000000000E+00 0. -1.
        -11    1    4    4    0    0  0.22468194787E-03  0.41207751253E-02 -0.50410024043E-01  0.50581250623E-01  0.51100000000E-03 0.  1.
         11    1    4    4    0    0  0.19649100179E-01 -0.95384110742E-02 -0.74905236019E-01  0.78026430956E-01  0.51100000000E-03 0. -1.
</event>
<event>
 8    1  0.1114447E+005  0.1043930E+01  0.7957747E-01            NaN
         13   -1    0    0    0    0  0.00000000000E+00  0.00000000000E+00  0.74505805969E-08  0.10566000000E+00  0.10566000000E+00 0.  1.
     999900   -1    0    0    0    0 -0.00000000000E+00 -0.00000000000E+00 -0.74505805969E-08  0.93827000000E+00  0.93827000000E+00 0. -1.
     999902    2    1    2    0    0  0.33226002507E-02  0.29277475062E-02 -0.23941394990E-01  0.10195824791E+01  0.10192917296E+01 0.  0.
     999903    2    3    3    0    0  0.10205112988E+00  0.76263882490E-01  0.17636059695E-01  0.13005777684E+00  0.19323090689E-01 0.  0.
         14    1    1    2    0    0 -0.33226002507E-02 -0.29277475062E-02  0.23941394990E-01  0.24347520859E-01  0.00000000000E+00 0.  1.
     999901    1    3    3    0    0 -0.98728529630E-01 -0.73336134984E-01 -0.41577454685E-01  0.88952470230E+00  0.88000000000E+00 0. -1.
        -11    1    4    4    0    0  0.22115769608E-01  0.21827765226E-01  0.11549768474E-01  0.33154439716E-01  0.51100000000E-03 0.  1.
         11    1    4    4    0    0  0.79935360273E-01  0.54436117264E-01  0.60862912212E-02  0.96903337128E-01  0.51100000000E-03 0. -1.
</event>
<event>
 8    1  0.1114447E+005  0.1043930E+01  0.7957747E-01            NaN
         13   -1    0    0    0    0  0.00000000000E+00  0.00000000000E+00  0.74505805969E-08  0.10566000000E+00  0.10566000000E+00 0. -1.
     999900   -1    0    0    0    0 -0.00000000000E+00 -0.00000000000E+00 -0.74505805969E-08  0.93827000000E+00  0.93827000000E+00 0. -1.
     999902    2    1    2    0    0 -0.34141142775E-02 -0.11711105899E-02 -0.23918800150E-01  0.10197404015E+01  0.10194534564E+01 0.  0.
     999903    2    3    3    0    0 -0.40827216047E-01  0.40953451342E-02  0.11900533413E+00  0.12740930603E+00  0.19678117014E-01 0.  0.
         14    1    1    2    0    0  0.34141142775E-02  0.11711105899E-02  0.23918800150E-01  0.24189598528E-01  0.00000000000E+00 0. -1.
     999901    1    3    3    0    0  0.37413101770E-01 -0.52664557241E-02 -0.14292413428E+00  0.89233109545E+00  0.88000000000E+00 0. -1.
        -11    1    4    4    0    0 -0.27803902017E-01 -0.63053119614E-02  0.82131312057E-01  0.86940367307E-01  0.51100000000E-03 0. -1.
         11    1    4    4    0    0 -0.13023314031E-01  0.10400657096E-01  0.36874022072E-01  0.40468938720E-01  0.51100000000E-03 0.  1.
</event>
<event>
 8    1  0.1114447E+005  0.1043930E+01  0.7957747E-01            NaN
         13   -1    0    0    0    0  0.00000000000E+00  0.00000000000E+00  0.74505805969E-08  0.10566000000E+00  0.10566000000E+00 0.  1.
     999900   -1    0    0    0    0 -0.00000000000E+00 -0.00000000000E+00 -0.74505805969E-08  0.93827000000E+00  0.93827000000E+00 0.  1.
     999902    2    1    2    0    0 -0.60836301675E-02 -0.16129691155E-01 -0.16045107103E-01  0.10203795657E+01  0.10201077567E+01 0.  0.
     999903    2    3    3    0    0  0.11593359089E+00  0.53355568605E-01 -0.19655253254E-01  0.12924016208E+00  0.54107594120E-02 0.  0.
         14    1    1    2    0    0  0.60836301675E-02  0.16129691155E-01  0.16045107103E-01  0.23550434279E-01  0.00000000000E+00 0.  1.
     999901    1    3    3    0    0 -0.12201722106E+00 -0.69485259760E-01  0.36101461504E-02  0.89113940364E+00  0.88000000000E+00 0.  1.
        -11    1    4    4    0    0  0.73016583875E-01  0.35235364440E-01 -0.10374518411E-01  0.81736431175E-01  0.51100000000E-03 0.  1.
         11    1    4    4    0    0  0.42917007015E-01  0.18120204165E-01 -0.92807348433E-02  0.47503730909E-01  0.51100000000E-03 0. -1.
</event>
<event>
 8    1  0.1114447E+005  0.1043930E+01  0.7957747E-01            NaN
         13   -1    0    0    0    0  0.00000000000E+00  0.00000000000E+00  0.74505805969E-08  0.10566000000E+00  0.10566000000E+00 0.  1.
     999900   -1    0    0    0    0 -0.00000000000E+00 -0.00000000000E+00 -0.74505805969E-08  0.93827000000E+00  0.93827000000E+00 0. -1.
     999902    2    1    2    0    0 -0.14963182260E-02  0.20400348409E-01  0.10171597380E-01  0.10210854257E+01  0.10208298447E+01 0.  0.
     999903    2    3    3    0    0 -0.52413754726E-01  0.12130691835E+00  0.34531117441E-02  0.13383131367E+00  0.20888427769E-01 0.  0.
         14    1    1    2    0    0  0.14963182260E-02 -0.20400348409E-01 -0.10171597380E-01  0.22844574338E-01  0.00000000000E+00 0.  1.
     999901    1    3    3    0    0  0.50917436500E-01 -0.10090656994E+00  0.67184856360E-02  0.88725411199E+00  0.88000000000E+00 0. -1.
        -11    1    4    4    0    0 -0.24001419624E-01  0.79206069738E-01 -0.16593439247E-02  0.82780940865E-01  0.51100000000E-03 0.  1.
         11    1    4    4    0    0 -0.28412335102E-01  0.42100848610E-01  0.51124556687E-02  0.51050372805E-01  0.51100000000E-03 0. -1.
</event>
<event>
 8    1  0.1114447E+005  0.1043930E+01  0.7957747E-01            NaN
         13   -1    0    0    0    0  0.00000000000E+00  0.00000000000E+00  0.74505805969E-08  0.10566000000E+00  0.10566000000E+00 0.  1.
     999900   -1    0    0    0    0 -0.00000000000E+00 -0.00000000000E+00 -0.74505805969E-08  0.93827000000E+00  0.93827000000E+00 0.  1.
     999902    2    1    2    0    0  0.19309467395E-01 -0.10169853876E-01  0.90841422122E-02  0.10202909836E+01  0.10200171018E+01 0.  0.
     999903    2    3    3    0    0 -0.93830492379E-01 -0.60905549444E-01 -0.60718535408E-01  0.12886113488E+00  0.20119748681E-01 0.  0.
         14    1    1    2    0    0 -0.19309467395E-01  0.10169853876E-01 -0.90841422122E-02  0.23639016449E-01  0.00000000000E+00 0. -1.
     999901    1    3    3    0    0  0.11313995977E+00  0.50735695567E-01  0.69802677620E-01  0.89142984867E+00  0.88000000000E+00 0. -1.
        -11    1    4    4    0    0 -0.31922184503E-01 -0.12164451882E-01 -0.11947642164E-01  0.36194019221E-01  0.51100000000E-03 0.  1.
         11    1    4    4    0    0 -0.61908307875E-01 -0.48741097561E-01 -0.48770893244E-01  0.92667115658E-01  0.51100000000E-03 0. -1.
</event>
<event>
 8    1  0.1114447E+005  0.1043930E+01  0.7957747E-01            NaN
         13   -1    0    0    0    0  0.00000000000E+00  0.00000000000E+00  0.74505805969E-08  0.10566000000E+00  0.10566000000E+00 0.  1.
     999900   -1    0    0    0    0 -0.00000000000E+00 -0.00000000000E+00 -0.74505805969E-08  0.93827000000E+00  0.93827000000E+00 0.  1.
     999902    2    1    2    0    0  0.11527809364E-01  0.10800313277E-01 -0.18351157594E-01  0.10197163233E+01  0.10194287998E+01 0.  0.
     999903    2    3    3    0    0  0.23966428361E-01 -0.10251659487E-01 -0.12844497089E+00  0.13251930314E+00  0.19590021629E-01 0.  0.
         14    1    1    2    0    0 -0.11527809364E-01 -0.10800313277E-01  0.18351157594E-01  0.24213676727E-01  0.00000000000E+00 0. -1.
     999901    1    3    3    0    0 -0.12438618998E-01  0.21051972764E-01  0.11009381330E+00  0.88719702013E+00  0.88000000000E+00 0. -1.
        -11    1    4    4    0    0  0.12675092450E-01 -0.25293699492E-02 -0.24765642516E-01  0.27940183449E-01  0.51100000000E-03 0. -1.
         11    1    4    4    0    0  0.11291335911E-01 -0.77222895381E-02 -0.10367932838E+00  0.10457911969E+00  0.51100000000E-03 0.  1.
</event>
<event>
 8    1  0.1114447E+005  0.1043930E+01  0.7957747E-01            NaN
         13   -1    0    0    0    0  0.00000000000E+00  0.00000000000E+00  0.74505805969E-08  0.10566000000E+00  0.10566000000E+00 0. -1.
     999900   -1    0    0    0    0 -0.00000000000E+00 -0.00000000000E+00 -0.74505805969E-08  0.93827000000E+00  0.93827000000E+00 0. -1.
     999902    2    1    2    0    0  0.19321809511E-01  0.11674793510E-01  0.64800642284E-02  0.10204433153E+01  0.10201729929E+01 0.  0.
     999903    2    3    3    0    0 -0.28799386676E-01  0.11392544292E+00 -0.51137723102E-01  0.13134790182E+00  0.28788771614E-01 0.  0.
         14    1    1    2    0    0 -0.19321809511E-01 -0.11674793510E-01 -0.64800642284E-02  0.23486684710E-01  0.00000000000E+00 0.  1.
     999901    1    3    3    0    0  0.48121196187E-01 -0.10225064942E+00  0.57617787330E-01  0.88909541347E+00  0.88000000000E+00 0.  1.
        -11    1    4    4    0    0  0.19059334005E-02  0.50253272985E-01 -0.21555236402E-01  0.54716664420E-01  0.51100000000E-03 0. -1.
         11    1    4    4    0    0 -0.30705320076E-01  0.63672169939E-01 -0.29582486700E-01  0.76631237405E-01  0.51100000000E-03 0.  1.
</event>
<event>
 8    1  0.1114447E+005  0.1043930E+01  0.7957747E-01            NaN
         13   -1    0    0    0    0  0.00000000000E+00  0.00000000000E+00  0.74505805969E-08  0.10566000000E+00  0.10566000000E+00 0.  1.
     999900   -1    0    0    0    0 -0.00000000000E+00 -0.00000000000E+00 -0.74505805969E-08  0.93827000000E+00  0.93827000000E+00 0.  1.
     999902    2    1    2    0    0 -0.23442529537E-01 -0.44684180311E-02  0.83246402400E-02  0.10186551393E+01  0.10183415312E+01 0.  0.
     999903    2    3    3    0    0 -0.98362070366E-01 -0.40314235918E-01 -0.73783145204E-01  0.13093922259E+00  0.20019814997E-01 0.  0.
         14    1    1    2    0    0  0.23442529537E-01  0.44684180311E-02 -0.83246402400E-02  0.25274860750E-01  0.00000000000E+00 0. -1.
     999901    1    3    3    0    0  0.74919540829E-01  0.35845817887E-01  0.82107785444E-01  0.88771591666E+00  0.88000000000E+00 0. -1.
        -11    1    4    4    0    0 -0.60272273719E-01 -0.17266278641E-01 -0.51570326141E-01  0.81182701462E-01  0.51100000000E-03 0. -1.
         11    1    4    4    0    0 -0.38089796647E-01 -0.23047957277E-01 -0.22212819063E-01  0.49756521130E-01  0.51100000000E-03 0.  1.
</event>
<event>
 8    1  0.1114447E+005  0.1043930E+01  0.7957747E-01            NaN
         13   -1    0    0    0    0  0.00000000000E+00  0.00000000000E+00  0.74505805969E-08  0.10566000000E+00  0.10566000000E+00 0.  1.
     999900   -1    0    0    0    0 -0.00000000000E+00 -0.00000000000E+00 -0.74505805969E-08  0.93827000000E+00  0.93827000000E+00 0. -1.
     999902    2    1    2    0    0 -0.22856738198E-01  0.18258715839E-02 -0.18536430322E-01  0.10144450286E+01  0.10140164459E+01 0.  0.
     999903    2    3    3    0    0  0.69036375837E-01  0.61462877482E-02  0.98359212374E-01  0.12196107824E+00  0.19904067564E-01 0.  0.
         14    1    1    2    0    0  0.22856738198E-01 -0.18258715839E-02  0.18536430322E-01  0.29484971378E-01  0.00000000000E+00 0.  1.
     999901    1    3    3    0    0 -0.91893114035E-01 -0.43204161644E-02 -0.11689564270E+00  0.89248395038E+00  0.88000000000E+00 0. -1.
        -11    1    4    4    0    0  0.59378066410E-01  0.58809990486E-02  0.69917919556E-01  0.91919081351E-01  0.51100000000E-03 0. -1.
         11    1    4    4    0    0  0.96583094264E-02  0.26528869961E-03  0.28441292818E-01  0.30041996892E-01  0.51100000000E-03 0.  1.
</event>
<event>
 8    1  0.1114447E+005  0.1043930E+01  0.7957747E-01            NaN
         13   -1    0    0    0    0  0.00000000000E+00  0.00000000000E+00  0.74505805969E-08  0.10566000000E+00  0.10566000000E+00 0. -1.
     999900   -1    0    0    0    0 -0.00000000000E+00 -0.00000000000E+00 -0.74505805969E-08  0.93827000000E+00  0.93827000000E+00 0. -1.
     999902    2    1    2    0    0  0.81357011225E-02 -0.21491377069E-01 -0.41057378610E-02  0.10205863498E+01  0.10203193478E+01 0.  0.
     999903    2    3    3    0    0  0.12211077605E+00  0.42209124861E-01 -0.78686565853E-02  0.13094471903E+00  0.19797773504E-01 0.  0.
         14    1    1    2    0    0 -0.81357011225E-02  0.21491377069E-01  0.41057378610E-02  0.23343650196E-01  0.00000000000E+00 0. -1.
     999901    1    3    3    0    0 -0.11397507493E+00 -0.63700501930E-01  0.37629187243E-02  0.88964163078E+00  0.88000000000E+00 0. -1.
        -11    1    4    4    0    0  0.89088764871E-01  0.23684613489E-01  0.40145582715E-03  0.92185634619E-01  0.51100000000E-03 0. -1.
         11    1    4    4    0    0  0.33022011181E-01  0.18524511372E-01 -0.82701124125E-02  0.38759084410E-01  0.51100000000E-03 0.  1.
</event>
<event>
 8    1  0.1114447E+005  0.1043930E+01  0.7957747E-01            NaN
         13   -1    0    0    0    0  0.00000000000E+00  0.00000000000E+00  0.74505805969E-08  0.10566000000E+00  0.10566000000E+00 0.  1.
     999900   -1    0    0    0    0 -0.00000000000E+00 -0.00000000000E+00 -0.74505805969E-08  0.93827000000E+00  0.93827000000E+00 0. -1.
     999902    2    1    2    0    0 -0.56863229575E-02  0.16373429630E-01  0.18313586264E-01  0.10187147088E+01  0.10184025958E+01 0.  0.
     999903    2    3    3    0    0 -0.26258777778E-01 -0.10256245268E+00 -0.66025804177E-01  0.12648037707E+00  0.20719528386E-01 0.  0.
         14    1    1    2    0    0  0.56863229575E-02 -0.16373429630E-01 -0.18313586264E-01  0.25215291164E-01  0.00000000000E+00 0.  1.
     999901    1    3    3    0    0  0.20572454821E-01  0.11893588231E+00  0.84339390441E-01  0.89223433176E+00  0.88000000000E+00 0.  1.
        -11    1    4    4    0    0 -0.15284763354E-02 -0.41898755397E-01 -0.31370435702E-01  0.52366089226E-01  0.51100000000E-03 0. -1.
         11    1    4    4    0    0 -0.24730301443E-01 -0.60663697285E-01 -0.34655368475E-01  0.74114287846E-01  0.51100000000E-03 0.  1.
</event>
<event>
 8    1  0.1114447E+005  0.1043930E+01  0.7957747E-01            NaN
         13   -1    0    0    0    0  0.00000000000E+00  0.00000000000E+00  0.74505805969E-08  0.10566000000E+00  0.10566000000E+00 0. -1.
     999900   -1    0    0    0    0 -0.00000000000E+00 -0.00000000000E+00 -0.74505805969E-08  0.93827000000E+00  0.93827000000E+00 0.  1.
     999902    2    1    2    0    0 -0.66273520511E-02 -0.14593275974E-01  0.19326287316E-01  0.10188224139E+01  0.10185129946E+01 0.  0.
     999903    2    3    3    0    0  0.12966995265E-01  0.50657319128E-02 -0.12440732226E+00  0.12672950081E+00  0.19732712382E-01 0.  0.
         14    1    1    2    0    0  0.66273520511E-02  0.14593275974E-01 -0.19326287316E-01  0.25107586110E-01  0.00000000000E+00 0.  1.
     999901    1    3    3    0    0 -0.19594347316E-01 -0.19659007887E-01  0.14373360958E+00  0.89209291308E+00  0.88000000000E+00 0. -1.
        -11    1    4    4    0    0  0.14165904844E-02  0.10902362668E-01 -0.49285397446E-01  0.50499304577E-01  0.51100000000E-03 0. -1.
         11    1    4    4    0    0  0.11550404781E-01 -0.58366307551E-02 -0.75121924817E-01  0.76230196237E-01  0.51100000000E-03 0.  1.
</event>
<event>
 8    1  0.1114447E+005  0.1043930E+01  0.7957747E-01            NaN
         13   -1    0    0    0    0  0.00000000000E+00  0.00000000000E+00  0.74505805969E-08  0.10566000000E+00  0.10566000000E+00 0. -1.
     999900   -1    0    0    0    0 -0.00000000000E+00 -0.00000000000E+00 -0.74505805969E-08  0.93827000000E+00  0.93827000000E+00 0.  1.
     999902    2    1    2    0    0 -0.14412871249E-01 -0.16380984752E-01 -0.10723189594E-01  0.10196183914E+01  0.10193285092E+01 0.  0.
     999903    2    3    3    0    0 -0.98988784546E-01 -0.12203572164E-01 -0.84881546708E-01  0.13244873577E+00  0.19750544206E-01 0.  0.
         14    1    1    2    0    0  0.14412871249E-01  0.16380984752E-01  0.10723189594E-01  0.24311608630E-01  0.00000000000E+00 0. -1.
     999901    1    3    3    0    0  0.84575913297E-01 -0.41774125878E-02  0.74158357114E-01  0.88716965560E+00  0.88000000000E+00 0.  1.
        -11    1    4    4    0    0 -0.76754942832E-01 -0.17411430722E-01 -0.68494600803E-01  0.10433719677E+00  0.51100000000E-03 0.  1.
         11    1    4    4    0    0 -0.22233841714E-01  0.52078585584E-02 -0.16386945906E-01  0.28111539005E-01  0.51100000000E-03 0. -1.
</event>
<event>
 8    1  0.1114447E+005  0.1043930E+01  0.7957747E-01            NaN
         13   -1    0    0    0    0  0.00000000000E+00  0.00000000000E+00  0.74505805969E-08  0.10566000000E+00  0.10566000000E+00 0.  1.
     999900   -1    0    0    0    0 -0.00000000000E+00 -0.00000000000E+00 -0.74505805969E-08  0.93827000000E+00  0.93827000000E+00 0. -1.
     999902    2    1    2    0    0  0.94852908870E-02  0.22765940560E-01  0.86560022935E-02  0.10177921889E+01  0.10174565124E+01 0.  0.
     999903    2    3    3    0    0  0.20762530116E-02 -0.12357229892E+00 -0.88180728370E-02  0.12550573408E+00  0.19987670973E-01 0.  0.
         14    1    1    2    0    0 -0.94852908870E-02 -0.22765940560E-01 -0.86560022935E-02  0.26137811089E-01  0.00000000000E+00 0. -1.
     999901    1    3    3    0    0  0.74090378754E-02  0.14633823948E+00  0.17474075130E-01  0.89228645483E+00  0.88000000000E+00 0.  1.
        -11    1    4    4    0    0 -0.76113120726E-03 -0.11842757090E+00 -0.51139187753E-02  0.11854147863E+00  0.51100000000E-03 0.  1.
         11    1    4    4    0    0  0.28373842189E-02 -0.51447280203E-02 -0.37041540616E-02  0.69642554463E-02  0.51100000000E-03 0. -1.
</event>
<event>
 8    1  0.1114447E+005  0.1043930E+01  0.7957747E-01            NaN
         13   -1    0    0    0    0  0.00000000000E+00  0.00000000000E+00  0.74505805969E-08  0.10566000000E+00  0.10566000000E+00 0.  1.
     999900   -1    0    0    0    0 -0.00000000000E+00 -0.00000000000E+00 -0.74505805969E-08  0.93827000000E+00  0.93827000000E+00 0. -1.
     999902    2    1    2    0    0  0.20356555321E-01 -0.13121760890E-01 -0.25011899952E-02  0.10195819836E+01  0.10192912220E+01 0.  0.
     999903    2    3    3    0    0  0.83077144411E-01 -0.10164266206E+00 -0.50141690806E-02  0.13291624197E+00  0.20212442023E-01 0.  0.
         14    1    1    2    0    0 -0.20356555321E-01  0.13121760890E-01  0.25011899952E-02  0.24348016444E-01  0.00000000000E+00 0. -1.
     999901    1    3    3    0    0 -0.62720589090E-01  0.88520901175E-01  0.25129790854E-02  0.88666574159E+00  0.88000000000E+00 0. -1.
        -11    1    4    4    0    0  0.37393283812E-01 -0.40206932909E-01  0.72233230914E-02  0.55383144057E-01  0.51100000000E-03 0. -1.
         11    1    4    4    0    0  0.45683860598E-01 -0.61435729156E-01 -0.12237492172E-01  0.77533097911E-01  0.51100000000E-03 0.  1.
</event>
<event>
 8    1  0.1114447E+005  0.1043930E+01  0.7957747E-01            NaN
         13   -1    0    0    0    0  0.00000000000E+00  0.00000000000E+00  0.74505805969E-08  0.10566000000E+00  0.10566000000E+00 0. -1.
     999900   -1    0    0    0    0 -0.00000000000E+00 -0.00000000000E+00 -0.74505805969E-08  0.93827000000E+00  0.93827000000E+00 0.  1.
     999902    2    1    2    0    0 -0.41758883552E-03 -0.24389178120E-01 -0.39965380858E-03  0.10195339734E+01  0.10192420502E+01 0.  0.
     999903    2    3    3    0    0 -0.45815854586E-01  0.11334995491E+00 -0.29027231594E-01  0.12720409635E+00  0.19773647749E-01 0.  0.
         14    1    1    2    0    0  0.41758883552E-03  0.24389178120E-01  0.39965380858E-03  0.24396026582E-01  0.00000000000E+00 0. -1.
     999901    1    3    3    0    0  0.45398265751E-01 -0.13773913303E+00  0.28627577785E-01  0.89232987707E+00  0.88000000000E+00 0.  1.
        -11    1    4    4    0    0 -0.15804702368E-01  0.46970289817E-01 -0.21303564753E-01  0.53945340249E-01  0.51100000000E-03 0. -1.
         11    1    4    4    0    0 -0.30011152218E-01  0.66379665090E-01 -0.77236668407E-02  0.73258756100E-01  0.51100000000E-03 0.  1.
</event>
<event>
 8    1  0.1114447E+005  0.1043930E+01  0.7957747E-01            NaN
         13   -1    0    0    0    0  0.00000000000E+00  0.00000000000E+00  0.74505805969E-08  0.10566000000E+00  0.10566000000E+00 0. -1.
     999900   -1    0    0    0    0 -0.00000000000E+00 -0.00000000000E+00 -0.74505805969E-08  0.93827000000E+00  0.93827000000E+00 0.  1.
     999902    2    1    2    0    0 -0.20734058173E-01 -0.45474937269E-02 -0.78072783986E-02  0.10213128723E+01  0.10210624118E+01 0.  0.
     999903    2    3    3    0    0  0.38136406476E-01 -0.12203339811E+00 -0.21024376331E-01  0.13145706323E+00  0.22190072520E-01 0.  0.
         14    1    1    2    0    0  0.20734058173E-01  0.45474937269E-02  0.78072783986E-02  0.22617127658E-01  0.00000000000E+00 0. -1.
     999901    1    3    3    0    0 -0.58870464649E-01  0.11748590439E+00  0.13217097932E-01  0.88985580911E+00  0.88000000000E+00 0. -1.
        -11    1    4    4    0    0  0.28511200618E-01 -0.11252771928E+00 -0.20699497871E-01  0.11791567538E+00  0.51100000000E-03 0.  1.
         11    1    4    4    0    0  0.96252058572E-02 -0.95056788365E-02 -0.32487846029E-03  0.13541387852E-01  0.51100000000E-03 0. -1.
</event>
<event>
 8    1  0.1114447E+005  0.1043930E+01  0.7957747E-01            NaN
         13   -1    0    0    0    0  0.00000000000E+00  0.00000000000E+00  0.74505805969E-08  0.10566000000E+00  0.10566000000E+00 0. -1.
     999900   -1    0    0    0    0 -0.00000000000E+00 -0.00000000000E+00 -0.74505805969E-08  0.93827000000E+00  0.93827000000E+00 0. -1.
     999902    2    1    2    0    0  0.21874436427E-01  0.84552340115E-02  0.10094798114E-02  0.10204565895E+01  0.10201865761E+01 0.  0.
     999903    2    3    3    0    0  0.46727872135E-01 -0.12058183669E+00  0.68377433150E-02  0.13068008523E+00  0.17523029654E-01 0.  0.
         14    1    1    2    0    0 -0.21874436427E-01 -0.84552340115E-02 -0.10094798114E-02  0.23473410504E-01  0.00000000000E+00 0.  1.
     999901    1    3    3    0    0 -0.24853435708E-01  0.12903707071E+00 -0.58282635036E-02  0.88977650426E+00  0.88000000000E+00 0.  1.
        -11    1    4    4    0    0  0.89080544902E-03 -0.70160433400E-02  0.40797948000E-02  0.81807239965E-02  0.51100000000E-03 0. -1.
         11    1    4    4    0    0  0.45837066686E-01 -0.11356579335E+00  0.27579485150E-02  0.12249936124E+00  0.51100000000E-03 0.  1.
</event>
<event>
 8    1  0.1114447E+005  0.1043930E+01  0.7957747E-01            NaN
         13   -1    0    0    0    0  0.00000000000E+00  0.00000000000E+00  0.74505805969E-08  0.10566000000E+00  0.10566000000E+00 0.  1.
     999900   -1    0    0    0    0 -0.00000000000E+00 -0.00000000000E+00 -0.74505805969E-08  0.93827000000E+00  0.93827000000E+00 0.  1.
     999902    2    1    2    0    0 -0.28669907929E-02 -0.15357463406E-01 -0.17740024196E-01  0.10202914768E+01  0.10200176067E+01 0.  0.
     999903    2    3    3    0    0 -0.95159723051E-01 -0.59081103329E-01  0.63972989703E-01  0.13062484166E+00  0.20599907429E-01 0.  0.
         14    1    1    2    0    0  0.28669907929E-02  0.15357463406E-01  0.17740024196E-01  0.23638523155E-01  0.00000000000E+00 0.  1.
     999901    1    3    3    0    0  0.92292732259E-01  0.43723639924E-01 -0.81713013899E-01  0.88966663518E+00  0.88000000000E+00 0.  1.
        -11    1    4    4    0    0 -0.46486918587E-01 -0.23475271816E-01  0.19173518308E-01  0.55497809973E-01  0.51100000000E-03 0.  1.
         11    1    4    4    0    0 -0.48672804464E-01 -0.35605831514E-01  0.44799471396E-01  0.75127031690E-01  0.51100000000E-03 0. -1.
</event>
<event>
 8    1  0.1114447E+005  0.1043930E+01  0.7957747E-01            NaN
         13   -1    0    0    0    0  0.00000000000E+00  0.00000000000E+00  0.74505805969E-08  0.10566000000E+00  0.10566000000E+00 0. -1.
     999900   -1    0    0    0    0 -0.00000000000E+00 -0.00000000000E+00 -0.74505805969E-08  0.93827000000E+00  0.93827000000E+00 0.  1.
     999902    2    1    2    0    0 -0.15525544143E-02 -0.12935708510E-01 -0.19526458904E-01  0.10204560660E+01  0.10201860404E+01 0.  0.
     999903    2    3    3    0    0  0.34316627505E-01  0.49827070314E-01  0.11068682680E+00  0.12794205245E+00  0.21382873968E-01 0.  0.
         14    1    1    2    0    0  0.15525544143E-02  0.12935708510E-01  0.19526458904E-01  0.23473933995E-01  0.00000000000E+00 0. -1.
     999901    1    3    3    0    0 -0.35869181919E-01 -0.62762778823E-01 -0.13021328570E+00  0.89251401355E+00  0.88000000000E+00 0.  1.
        -11    1    4    4    0    0  0.79135591112E-02  0.53732019960E-02  0.63402925020E-02  0.11487216700E-01  0.51100000000E-03 0.  1.
         11    1    4    4    0    0  0.26403068393E-01  0.44453868318E-01  0.10434653430E+00  0.11645483575E+00  0.51100000000E-03 0. -1.
</event>
<event>
 8    1  0.1114447E+005  0.1043930E+01  0.7957747E-01            NaN
         13   -1    0    0    0    0  0.00000000000E+00  0.00000000000E+00  0.74505805969E-08  0.10566000000E+00  0.10566000000E+00 0. -1.
     999900   -1    0    0    0    0 -0.00000000000E+00 -0.00000000000E+00 -0.74505805969E-08  0.93827000000E+00  0.93827000000E+00 0.  1.
     999902    2    1    2    0    0  0.62447070740E-02 -0.15827722636E-01  0.17050086324E-01  0.10198422725E+01  0.10195577680E+01 0.  0.
     999903    2    3    3    0    0  0.10907784037E+00 -0.65959576978E-01 -0.24600536093E-01  0.13146024297E+00  0.20687388706E-01 0.  0.
         14    1    1    2    0    0 -0.62447070740E-02  0.15827722636E-01 -0.17050086324E-01  0.24087727455E-01  0.00000000000E+00 0.  1.
     999901    1    3    3    0    0 -0.10283313329E+00  0.50131854341E-01  0.41650622417E-01  0.88838202957E+00  0.88000000000E+00 0. -1.
        -11    1    4    4    0    0  0.35744558164E-01 -0.14853753011E-01 -0.15172493243E-01  0.41578517159E-01  0.51100000000E-03 0. -1.
         11    1    4    4    0    0  0.73333282204E-01 -0.51105823966E-01 -0.94280428497E-02  0.89881725812E-01  0.51100000000E-03 0.  1.
</event>
<event>
 8    1  0.1114447E+005  0.1043930E+01  0.7957747E-01            NaN
         13   -1    0    0    0    0  0.00000000000E+00  0.00000000000E+00  0.74505805969E-08  0.10566000000E+00  0.10566000000E+00 0.  1.
     999900   -1    0    0    0    0 -0.00000000000E+00 -0.00000000000E+00 -0.74505805969E-08  0.93827000000E+00  0.93827000000E+00 0. -1.
     999902    2    1    2    0    0  0.54953418029E-02  0.19496044430E-01  0.10925152935E-01  0.10209157979E+01  0.10206563638E+01 0.  0.
     999903    2    3    3    0    0  0.89109248171E-01  0.64101048346E-01  0.73411823185E-01  0.13362470947E+00  0.20417264483E-01 0.  0.
         14    1    1    2    0    0 -0.54953418029E-02 -0.19496044430E-01 -0.10925152935E-01  0.23014202063E-01  0.00000000000E+00 0. -1.
     999901    1    3    3    0    0 -0.83613906369E-01 -0.44605003916E-01 -0.62486670250E-01  0.88729108847E+00  0.88000000000E+00 0. -1.
        -11    1    4    4    0    0  0.65191339835E-01  0.35502672612E-01  0.51921886472E-01  0.90589701224E-01  0.51100000000E-03 0. -1.
         11    1    4    4    0    0  0.23917908336E-01  0.28598375734E-01  0.21489936713E-01  0.43035008246E-01  0.51100000000E-03 0.  1.
</event>
<event>
 8    1  0.1114447E+005  0.1043930E+01  0.7957747E-01            NaN
         13   -1    0    0    0    0  0.00000000000E+00  0.00000000000E+00  0.74505805969E-08  0.10566000000E+00  0.10566000000E+00 0.  1.
     999900   -1    0    0    0    0 -0.00000000000E+00 -0.00000000000E+00 -0.74505805969E-08  0.93827000000E+00  0.93827000000E+00 0.  1.
     999902    2    1    2    0    0 -0.35866183623E-02  0.20506625534E-01  0.52205868495E-03  0.10231055416E+01  0.10228935874E+01 0.  0.
     999903    2    3    3    0    0  0.83662577224E-01  0.82294898394E-01  0.62432868256E-01  0.13447560674E+00  0.20345727833E-01 0.  0.
         14    1    1    2    0    0  0.35866183623E-02 -0.20506625534E-01 -0.52205868495E-03  0.20824458393E-01  0.00000000000E+00 0. -1.
     999901    1    3    3    0    0 -0.87249195586E-01 -0.61788272860E-01 -0.61910809571E-01  0.88862993486E+00  0.88000000000E+00 0.  1.
        -11    1    4    4    0    0  0.78304965386E-01  0.71258131998E-01  0.60792164576E-01  0.12208741694E+00  0.51100000000E-03 0. -1.
         11    1    4    4    0    0  0.53576118382E-02  0.11036766396E-01  0.16407036800E-02  0.12388189806E-01  0.51100000000E-03 0.  1.
</event>
<event>
 8    1  0.1114447E+005  0.1043930E+01  0.7957747E-01            NaN
         13   -1    0    0    0    0  0.00000000000E+00  0.00000000000E+00  0.74505805969E-08  0.10566000000E+00  0.10566000000E+00 0. -1.
     999900   -1    0    0    0    0 -0.00000000000E+00 -0.00000000000E+00 -0.74505805969E-08  0.93827000000E+00  0.93827000000E+00 0.  1.
     999902    2    1    2    0    0  0.17291674140E-01 -0.18108077046E-01  0.74995773664E-03  0.10188807109E+01  0.10185727446E+01 0.  0.
     999903    2    3    3    0    0  0.12814117238E+00  0.13434183162E-01  0.17111410410E-01  0.13121510798E+00  0.17999079369E-01 0.  0.
         14    1    1    2    0    0 -0.17291674140E-01  0.18108077046E-01 -0.74995773664E-03  0.25049289122E-01  0.00000000000E+00 0.  1.
     999901    1    3    3    0    0 -0.11084949824E+00 -0.31542260208E-01 -0.16361452673E-01  0.88766560290E+00  0.88000000000E+00 0.  1.
        -11    1    4    4    0    0  0.11255553407E+00  0.13494908750E-01  0.92177529636E-02  0.11373692849E+00  0.51100000000E-03 0. -1.
         11    1    4    4    0    0  0.15585638311E-01 -0.60725588670E-04  0.78936574463E-02  0.17478179483E-01  0.51100000000E-03 0.  1.
</event>
<event>
 8    1  0.1114447E+005  0.1043930E+01  0.7957747E-01            NaN
         13   -1    0    0    0    0  0.00000000000E+00  0.00000000000E+00  0.74505805969E-08  0.10566000000E+00  0.10566000000E+00 0. -1.
     999900   -1    0    0    0    0 -0.00000000000E+00 -0.00000000000E+00 -0.74505805969E-08  0.93827000000E+00  0.93827000000E+00 0. -1.
     999902    2    1    2    0    0  0.19508393203E-01 -0.43131371372E-02 -0.75225973613E-02  0.10225812289E+01  0.10223583519E+01 0.  0.
     999903    2    3    3    0    0 -0.95392565725E-01  0.81803099554E-01  0.27871199249E-01  0.13024107097E+00  0.19860617482E-01 0.  0.
         14    1    1    2    0    0 -0.19508393203E-01  0.43131371372E-02  0.75225973613E-02  0.21348771121E-01  0.00000000000E+00 0. -1.
     999901    1    3    3    0    0  0.11490095893E+00 -0.86116236691E-01 -0.35393796611E-01  0.89234015791E+00  0.88000000000E+00 0. -1.
        -11    1    4    4    0    0 -0.72962684901E-01  0.65959273631E-01  0.13618220274E-01  0.99297010077E-01  0.51100000000E-03 0. -1.
         11    1    4    4    0    0 -0.22429880824E-01  0.15843825923E-01  0.14252978975E-01  0.30944060889E-01  0.51100000000E-03 0.  1.
</event>
<event>
 8    1  0.1114447E+005  0.1043930E+01  0.7957747E-01            NaN
         13   -1    0    0    0    0  0.00000000000E+00  0.00000000000E+00  0.74505805969E-08  0.10566000000E+00  0.10566000000E+00 0.  1.
     999900   -1    0    0    0    0 -0.00000000000E+00 -0.00000000000E+00 -0.74505805969E-08  0.93827000000E+00  0.93827000000E+00 0.  1.
     999902    2    1    2    0    0 -0.16678996607E-01  0.12998753372E-01  0.10354950738E-01  0.10203846921E+01  0.10201130028E+01 0.  0.
     999903    2    3    3    0    0  0.12234106712E+00  0.24412498912E-01 -0.24926876589E-01  0.12869996140E+00  0.19468540839E-01 0.  0.
         14    1    1    2    0    0  0.16678996607E-01 -0.12998753372E-01 -0.10354950738E-01  0.23545307852E-01  0.00000000000E+00 0.  1.
     999901    1    3    3    0    0 -0.13902006372E+00 -0.11413745540E-01  0.35281827327E-01  0.89168473075E+00  0.88000000000E+00 0. -1.
        -11    1    4    4    0    0  0.33564555294E-01  0.14675293079E-01 -0.11414968275E-01  0.38373248765E-01  0.51100000000E-03 0.  1.
         11    1    4    4    0    0  0.88776511822E-01  0.97372058333E-02 -0.13511908314E-01  0.90326712638E-01  0.51100000000E-03 0. -1.
</event>
<event>
 8    1  0.1114447E+005  0.1043930E+01  0.7957747E-01            NaN
         13   -1    0    0    0    0  0.00000000000E+00  0.00000000000E+00  0.74505805969E-08  0.10566000000E+00  0.10566000000E+00 0.  1.
     999900   -1    0    0    0    0 -0.00000000000E+00 -0.00000000000E+00 -0.74505805969E-08  0.93827000000E+00  0.93827000000E+00 0. -1.
     999902    2    1    2    0    0 -0.19147140963E-01 -0.13612134212E-01 -0.53562024136E-02  0.10198345210E+01  0.10195498311E+01 0.  0.
     999903    2    3    3    0    0 -0.81477214920E-01  0.37312643294E-01  0.92912052903E-01  0.13071415731E+00  0.20561406735E-01 0.  0.
         14    1    1    2    0    0  0.19147140963E-01  0.13612134212E-01  0.53562024136E-02  0.24095479019E-01  0.00000000000E+00 0.  1.
     999901    1    3    3    0    0  0.62330073958E-01 -0.50924777506E-01 -0.98268255317E-01  0.88912036367E+00  0.88000000000E+00 0. -1.
        -11    1    4    4    0    0 -0.61603651820E-01  0.19187458648E-01  0.71668101239E-01  0.96435192452E-01  0.51100000000E-03 0.  1.
         11    1    4    4    0    0 -0.19873563100E-01  0.18125184646E-01  0.21243951664E-01  0.34278964863E-01  0.51100000000E-03 0. -1.
</event>
<event>
 8    1  0.1114447E+005  0.1043930E+01  0.7957747E-01            NaN
         13   -1    0    0    0    0  0.00000000000E+00  0.00000000000E+00  0.74505805969E-08  0.10566000000E+00  0.10566000000E+00 0. -1.
     999900   -1    0    0    0    0 -0.00000000000E+00 -0.00000000000E+00 -0.74505805969E-08  0.93827000000E+00  0.93827000000E+00 0. -1.
     999902    2    1    2    0    0  0.12710974512E-01 -0.19528305182E-01 -0.39116272565E-02  0.10203032270E+01  0.10200296322E+01 0.  0.
     999903    2    3    3    0    0 -0.21229009388E-01  0.12407299972E+00 -0.11617056769E-01  0.12798454459E+00  0.20007687149E-01 0.  0.
         14    1    1    2    0    0 -0.12710974512E-01  0.19528305182E-01  0.39116272565E-02  0.23626773037E-01  0.00000000000E+00 0. -1.
     999901    1    3    3    0    0  0.33939983900E-01 -0.14360130490E+00  0.77054295129E-02  0.89231868238E+00  0.88000000000E+00 0.  1.
        -11    1    4    4    0    0 -0.96108461274E-02  0.96644769909E-01 -0.38602221390E-02  0.97199497684E-01  0.51100000000E-03 0. -1.
         11    1    4    4    0    0 -0.11618163260E-01  0.27428229813E-01 -0.77568346303E-02  0.30785046901E-01  0.51100000000E-03 0.  1.
</event>
<event>
 8    1  0.1114447E+005  0.1043930E+01  0.7957747E-01            NaN
         13   -1    0    0    0    0  0.00000000000E+00  0.00000000000E+00  0.74505805969E-08  0.10566000000E+00  0.10566000000E+00 0.  1.
     999900   -1    0    0    0    0 -0.00000000000E+00 -0.00000000000E+00 -0.74505805969E-08  0.93827000000E+00  0.93827000000E+00 0.  1.
     999902    2    1    2    0    0  0.12955099895E-01  0.11950334590E-01  0.17524867662E-01  0.10190750991E+01  0.10187719527E+01 0.  0.
     999903    2    3    3    0    0  0.52808218062E-01  0.46067603619E-01 -0.10618430787E+00  0.12887499850E+00  0.20560301592E-01 0.  0.
         14    1    1    2    0    0 -0.12955099895E-01 -0.11950334590E-01 -0.17524867662E-01  0.24854900859E-01  0.00000000000E+00 0. -1.
     999901    1    3    3    0    0 -0.39853118167E-01 -0.34117269029E-01  0.12370917553E+00  0.89020010064E+00  0.88000000000E+00 0. -1.
        -11    1    4    4    0    0  0.11392965268E-01  0.11320657770E-01 -0.11215843666E-01  0.19596255256E-01  0.51100000000E-03 0. -1.
         11    1    4    4    0    0  0.41415252794E-01  0.34746945850E-01 -0.94968464206E-01  0.10927874324E+00  0.51100000000E-03 0.  1.
</event>
<event>
 8    1  0.1114447E+005  0.1043930E+01  0.7957747E-01            NaN
         13   -1    0    0    0    0  0.00000000000E+00  0.00000000000E+00  0.74505805969E-08  0.10566000000E+00  0.10566000000E+00 0. -1.
     999900   -1    0    0    0    0 -0.00000000000E+00 -0.00000000000E+00 -0.74505805969E-08  0.93827000000E+00  0.93827000000E+00 0. -1.
     999902    2    1    2    0    0  0.19202998295E-01  0.14167371598E-01 -0.85779054282E-03  0.10200510267E+01  0.10197714899E+01 0.  0.
     999903    2    3    3    0    0 -0.11886792893E+00  0.31254122514E-01  0.31339873279E-01  0.12853982230E+00  0.20830111796E-01 0.  0.
         14    1    1    2    0    0 -0.19202998295E-01 -0.14167371598E-01  0.85779054282E-03  0.23878973305E-01  0.00000000000E+00 0. -1.
     999901    1    3    3    0    0  0.13807092723E+00 -0.17086750916E-01 -0.32197663822E-01  0.89151120439E+00  0.88000000000E+00 0. -1.
        -11    1    4    4    0    0 -0.48832722954E-02 -0.31226767604E-03 -0.24993484317E-02  0.55183079831E-02  0.51100000000E-03 0.  1.
         11    1    4    4    0    0 -0.11398465664E+00  0.31566390190E-01  0.33839221711E-01  0.12302151432E+00  0.51100000000E-03 0. -1.
</event>
<event>
 8    1  0.1114447E+005  0.1043930E+01  0.7957747E-01            NaN
         13   -1    0    0    0    0  0.00000000000E+00  0.00000000000E+00  0.74505805969E-08  0.10566000000E+00  0.10566000000E+00 0. -1.
     999900   -1    0    0    0    0 -0.00000000000E+00 -0.00000000000E+00 -0.74505805969E-08  0.93827000000E+00  0.93827000000E+00 0. -1.
     999902    2    1    2    0    0  0.14899625470E-01 -0.13078030734E-01  0.12784935220E-01  0.10203399959E+01  0.10200672619E+01 0.  0.
     999903    2    3    3    0    0  0.79493460818E-01 -0.30140862546E-01 -0.97590708690E-01  0.13093216670E+00  0.19788985466E-01 0.  0.
         14    1    1    2    0    0 -0.14899625470E-01  0.13078030734E-01 -0.12784935220E-01  0.23590004146E-01  0.00000000000E+00 0.  1.
     999901    1    3    3    0    0 -0.64593835348E-01  0.17062831812E-01  0.11037564391E+00  0.88940782916E+00  0.88000000000E+00 0.  1.
        -11    1    4    4    0    0  0.40389995159E-01 -0.47920326347E-02 -0.44579906260E-01  0.60348524828E-01  0.51100000000E-03 0.  1.
         11    1    4    4    0    0  0.39103465659E-01 -0.25348829911E-01 -0.53010802430E-01  0.70583641871E-01  0.51100000000E-03 0. -1.
</event>
<event>
 8    1  0.1171402E+005  0.1043930E+01  0.7957747E-01            NaN
         13   -1    0    0    0    0  0.00000000000E+00  0.00000000000E+00  0.74505805969E-08  0.10566000000E+00  0.10566000000E+00 0. -1.
     999900   -1    0    0    0    0 -0.00000000000E+00 -0.00000000000E+00 -0.74505805969E-08  0.93827000000E+00  0.93827000000E+00 0.  1.
     999902    2    1    2    0    0 -0.19874286578E-01 -0.47738736564E-02  0.15530603887E-01  0.10182594567E+01  0.10179358253E+01 0.  0.
     999903    2    3    3    0    0  0.65267544517E-01  0.84281387659E-01 -0.64499935170E-01  0.12607962159E+00  0.19303488585E-01 0.  0.
         14    1    1    2    0    0  0.19874286578E-01  0.47738736564E-02 -0.15530603887E-01  0.25670543309E-01  0.00000000000E+00 0.  1.
     999901    1    3    3    0    0 -0.85141831095E-01 -0.89055261316E-01  0.80030539057E-01  0.89217983510E+00  0.88000000000E+00 0.  1.
        -11    1    4    4    0    0  0.46916421852E-01  0.50291636227E-01 -0.33267805790E-01  0.76402927541E-01  0.51100000000E-03 0.  1.
         11    1    4    4    0    0  0.18351122664E-01  0.33989751432E-01 -0.31232129380E-01  0.49676694054E-01  0.51100000000E-03 0. -1.
</event>
<event>
 8    1  0.1114447E+005  0.1043930E+01  0.7957747E-01            NaN
         13   -1    0    0    0    0  0.00000000000E+00  0.00000000000E+00  0.74505805969E-08  0.10566000000E+00  0.10566000000E+00 0. -1.
     999900   -1    0    0    0    0 -0.00000000000E+00 -0.00000000000E+00 -0.74505805969E-08  0.93827000000E+00  0.93827000000E+00 0.  1.
     999902    2    1    2    0    0 -0.23277416535E-01  0.19408113978E-02  0.29837162884E-02  0.10203820185E+01  0.10201102667E+01 0.  0.
     999903    2    3    3    0    0  0.88693334370E-01 -0.69980598508E-01 -0.57339530381E-01  0.12833435591E+00  0.20447333152E-01 0.  0.
         14    1    1    2    0    0  0.23277416535E-01 -0.19408113978E-02 -0.29837162884E-02  0.23547981491E-01  0.00000000000E+00 0.  1.
     999901    1    3    3    0    0 -0.11197075091E+00  0.71921409905E-01  0.60323246670E-01  0.89204766260E+00  0.88000000000E+00 0. -1.
        -11    1    4    4    0    0  0.52236777509E-01 -0.51640301600E-01 -0.30799903541E-01  0.79651094487E-01  0.51100000000E-03 0.  1.
         11    1    4    4    0    0  0.36456556861E-01 -0.18340296907E-01 -0.26539626841E-01  0.48683261421E-01  0.51100000000E-03 0. -1.
</event>
<event>
 8    1  0.1114447E+005  0.1043930E+01  0.7957747E-01            NaN
         13   -1    0    0    0    0  0.00000000000E+00  0.00000000000E+00  0.74505805969E-08  0.10566000000E+00  0.10566000000E+00 0.  1.
     999900   -1    0    0    0    0 -0.00000000000E+00 -0.00000000000E+00 -0.74505805969E-08  0.93827000000E+00  0.93827000000E+00 0. -1.
     999902    2    1    2    0    0 -0.19830809280E-01 -0.81531476903E-02 -0.89328517682E-02  0.10207022008E+01  0.10204378727E+01 0.  0.
     999903    2    3    3    0    0 -0.65066156913E-01  0.24273545129E-01  0.10932578677E+00  0.13104899160E+00  0.19972500572E-01 0.  0.
         14    1    1    2    0    0  0.19830809280E-01  0.81531476903E-02  0.89328517682E-02  0.23227799179E-01  0.00000000000E+00 0.  1.
     999901    1    3    3    0    0  0.45235347632E-01 -0.32426692819E-01 -0.11825863854E+00  0.88965320922E+00  0.88000000000E+00 0. -1.
        -11    1    4    4    0    0 -0.21865518542E-01  0.36411801380E-02  0.20779124805E-01  0.30387369787E-01  0.51100000000E-03 0. -1.
         11    1    4    4    0    0 -0.43200638371E-01  0.20632364991E-01  0.88546661964E-01  0.10066162182E+00  0.51100000000E-03 0.  1.
</event>
<event>
 8    1  0.1114447E+005  0.1043930E+01  0.7957747E-01            NaN
         13   -1    0    0    0    0  0.00000000000E+00  0.00000000000E+00  0.74505805969E-08  0.10566000000E+00  0.10566000000E+00 0. -1.
     999900   -1    0    0    0    0 -0.00000000000E+00 -0.00000000000E+00 -0.74505805969E-08  0.93827000000E+00  0.93827000000E+00 0. -1.
     999902    2    1    2    0    0  0.20716842455E-01 -0.85144486203E-02  0.96990696725E-02  0.10195218999E+01  0.10192296842E+01 0.  0.
     999903    2    3    3    0    0  0.90748070087E-01 -0.93288561666E-01 -0.12217553635E-01  0.13240783654E+00  0.21085506819E-01 0.  0.
         14    1    1    2    0    0 -0.20716842455E-01  0.85144486203E-02 -0.96990696725E-02  0.24408100072E-01  0.00000000000E+00 0. -1.
     999901    1    3    3    0    0 -0.70031227632E-01  0.84774113046E-01  0.21916623308E-01  0.88711406339E+00  0.88000000000E+00 0.  1.
        -11    1    4    4    0    0  0.11928189662E-01 -0.99261588453E-02  0.51845951709E-02  0.16369223748E-01  0.51100000000E-03 0. -1.
         11    1    4    4    0    0  0.78819880425E-01 -0.83362402821E-01 -0.17402148806E-01  0.11603861279E+00  0.51100000000E-03 0.  1.
</event>
<event>
 8    1  0.1114447E+005  0.1043930E+01  0.7957747E-01            NaN
         13   -1    0    0    0    0  0.00000000000E+00  0.00000000000E+00  0.74505805969E-08  0.10566000000E+00  0.10566000000E+00 0. -1.
     999900   -1    0    0    0    0 -0.00000000000E+00 -0.00000000000E+00 -0.74505805969E-08  0.93827000000E+00  0.93827000000E+00 0. -1.
     999902    2    1    2    0    0  0.43391897583E-02 -0.11645871013E-01 -0.20049585036E-01  0.10203410038E+01  0.10200682935E+01 0.  0.
     999903    2    3    3    0    0  0.11763446936E+00  0.21806128978E-01 -0.51821066031E-01  0.13187925245E+00  0.19832768351E-01 0.  0.
         14    1    1    2    0    0 -0.43391897583E-02  0.11645871013E-01  0.20049585036E-01  0.23588996154E-01  0.00000000000E+00 0. -1.
     999901    1    3    3    0    0 -0.11329527960E+00 -0.33451999991E-01  0.31771480995E-01  0.88846175139E+00  0.88000000000E+00 0.  1.
        -11    1    4    4    0    0  0.45638328139E-01 -0.12228975343E-02 -0.20744103465E-01  0.50149091948E-01  0.51100000000E-03 0.  1.
         11    1    4    4    0    0  0.71996141221E-01  0.23029026512E-01 -0.31076962566E-01  0.81730160505E-01  0.51100000000E-03 0. -1.
</event>
<event>
 8    1  0.1114447E+005  0.1043930E+01  0.7957747E-01            NaN
         13   -1    0    0    0    0  0.00000000000E+00  0.00000000000E+00  0.74505805969E-08  0.10566000000E+00  0.10566000000E+00 0.  1.
     999900   -1    0    0    0    0 -0.00000000000E+00 -0.00000000000E+00 -0.74505805969E-08  0.93827000000E+00  0.93827000000E+00 0.  1.
     999902    2    1    2    0    0  0.22342419278E-01  0.50250205507E-02 -0.70885574608E-02  0.10199574704E+01  0.10196757127E+01 0.  0.
     999903    2    3    3    0    0  0.13930008446E-01 -0.54077319176E-01 -0.11675705865E+00  0.13114307164E+00  0.21163480523E-01 0.  0.
         14    1    1    2    0    0 -0.22342419278E-01 -0.50250205507E-02  0.70885574608E-02  0.23972529645E-01  0.00000000000E+00 0.  1.
     999901    1    3    3    0    0  0.84124108314E-02  0.59102339727E-01  0.10966850119E+00  0.88881439872E+00  0.88000000000E+00 0. -1.
        -11    1    4    4    0    0  0.23309179967E-03 -0.36367580985E-03 -0.17040013881E-01  0.17053145925E-01  0.51100000000E-03 0.  1.
         11    1    4    4    0    0  0.13696916647E-01 -0.53713643366E-01 -0.99717044773E-01  0.11408992571E+00  0.51100000000E-03 0. -1.
</event>
<event>
 8    1  0.1114447E+005  0.1043930E+01  0.7957747E-01            NaN
         13   -1    0    0    0    0  0.00000000000E+00  0.00000000000E+00  0.74505805969E-08  0.10566000000E+00  0.10566000000E+00 0.  1.
     999900   -1    0    0    0    0 -0.00000000000E+00 -0.00000000000E+00 -0.74505805969E-08  0.93827000000E+00  0.93827000000E+00 0.  1.
     999902    2    1    2    0    0 -0.60077431277E-02 -0.22117048539E-01 -0.14114745531E-02  0.10209680952E+01  0.10207098521E+01 0.  0.
     999903    2    3    3    0    0  0.96012797447E-01 -0.74165888758E-01 -0.48729813015E-01  0.13228575730E+00  0.20146726258E-01 0.  0.
         14    1    1    2    0    0  0.60077431277E-02  0.22117048539E-01  0.14114745531E-02  0.22961904842E-01  0.00000000000E+00 0.  1.
     999901    1    3    3    0    0 -0.10202054057E+00  0.52048840220E-01  0.47318338462E-01  0.88868233786E+00  0.88000000000E+00 0.  1.
        -11    1    4    4    0    0  0.35053142281E-01 -0.17658184139E-01 -0.95832624976E-02  0.40405869524E-01  0.51100000000E-03 0. -1.
         11    1    4    4    0    0  0.60959655166E-01 -0.56507704619E-01 -0.39146550517E-01  0.91879887775E-01  0.51100000000E-03 0.  1.
</event>
<event>
 8    1  0.1114447E+005  0.1043930E+01  0.7957747E-01            NaN
         13   -1    0    0    0    0  0.00000000000E+00  0.00000000000E+00  0.74505805969E-08  0.10566000000E+00  0.10566000000E+00 0.  1.
     999900   -1    0    0    0    0 -0.00000000000E+00 -0.00000000000E+00 -0.74505805969E-08  0.93827000000E+00  0.93827000000E+00 0.  1.
     999902    2    1    2    0    0  0.64557140456E-02 -0.13533095479E-01  0.17072289079E-01  0.10212081169E+01  0.10209553046E+01 0.  0.
     999903    2    3    3    0    0 -0.11220075730E+00 -0.58909790235E-01  0.32509702424E-01  0.13195184543E+00  0.17176595593E-01 0.  0.
         14    1    1    2    0    0 -0.64557140456E-02  0.13533095479E-01 -0.17072289079E-01  0.22721883097E-01  0.00000000000E+00 0. -1.
     999901    1    3    3    0    0  0.11865647135E+00  0.45376694756E-01 -0.15437413344E-01  0.88925627147E+00  0.88000000000E+00 0. -1.
        -11    1    4    4    0    0 -0.86357957593E-01 -0.43768391825E-01  0.17283453330E-01  0.98348095267E-01  0.51100000000E-03 0.  1.
         11    1    4    4    0    0 -0.25842799710E-01 -0.15141398410E-01  0.15226249094E-01  0.33603750165E-01  0.51100000000E-03 0. -1.
</event>
<event>
 8    1  0.1114447E+005  0.1043930E+01  0.7957747E-01            NaN
         13   -1    0    0    0    0  0.00000000000E+00  0.00000000000E+00  0.74505805969E-08  0.10566000000E+00  0.10566000000E+00 0. -1.
     999900   -1    0    0    0    0 -0.00000000000E+00 -0.00000000000E+00 -0.74505805969E-08  0.93827000000E+00  0.93827000000E+00 0. -1.
     999902    2    1    2    0    0  0.10762449871E-01 -0.10218646171E-01 -0.18430216860E-01  0.10202672878E+01  0.10199928502E+01 0.  0.
     999903    2    3    3    0    0 -0.40565332478E-01  0.50428573043E-01 -0.11297173034E+00  0.13164435074E+00  0.19468848129E-01 0.  0.
         14    1    1    2    0    0 -0.10762449871E-01  0.10218646171E-01  0.18430216860E-01  0.23662712235E-01  0.00000000000E+00 0. -1.
     999901    1    3    3    0    0  0.51327782349E-01 -0.60647219214E-01  0.94541513479E-01  0.88862293703E+00  0.88000000000E+00 0.  1.
        -11    1    4    4    0    0 -0.14515562507E-01  0.10346536697E-01 -0.18103718815E-01  0.25411771533E-01  0.51100000000E-03 0. -1.
         11    1    4    4    0    0 -0.26049769971E-01  0.40082036346E-01 -0.94868011524E-01  0.10623257921E+00  0.51100000000E-03 0.  1.
</event>
<event>
 8    1  0.1114447E+005  0.1043930E+01  0.7957747E-01            NaN
         13   -1    0    0    0    0  0.00000000000E+00  0.00000000000E+00  0.74505805969E-08  0.10566000000E+00  0.10566000000E+00 0.  1.
     999900   -1    0    0    0    0 -0.00000000000E+00 -0.00000000000E+00 -0.74505805969E-08  0.93827000000E+00  0.93827000000E+00 0. -1.
     999902    2    1    2    0    0  0.20984083924E-01 -0.11111288313E-01  0.57759344203E-02  0.10194932669E+01  0.10192003568E+01 0.  0.
     999903    2    3    3    0    0  0.64710539091E-01  0.11078175185E+00 -0.18814583578E-02  0.12998297928E+00  0.20784239337E-01 0.  0.
         14    1    1    2    0    0 -0.20984083924E-01  0.11111288313E-01 -0.57759344203E-02  0.24436733099E-01  0.00000000000E+00 0. -1.
     999901    1    3    3    0    0 -0.43726455166E-01 -0.12189304016E+00  0.76573927780E-02  0.88951028762E+00  0.88000000000E+00 0. -1.
        -11    1    4    4    0    0  0.37965804233E-01  0.53420930198E-01  0.76241285597E-02  0.65981713615E-01  0.51100000000E-03 0.  1.
         11    1    4    4    0    0  0.26744734858E-01  0.57360821650E-01 -0.95055869175E-02  0.64001265664E-01  0.51100000000E-03 0. -1.
</event>
<event>
 8    1  0.1114447E+005  0.1043930E+01  0.7957747E-01            NaN
         13   -1    0    0    0    0  0.00000000000E+00  0.00000000000E+00  0.74505805969E-08  0.10566000000E+00  0.10566000000E+00 0.  1.
     999900   -1    0    0    0    0 -0.00000000000E+00 -0.00000000000E+00 -0.74505805969E-08  0.93827000000E+00  0.93827000000E+00 0. -1.
     999902    2    1    2    0    0  0.18482378138E-01  0.10942533455E-01 -0.96426055723E-02  0.10203860585E+01  0.10201144010E+01 0.  0.
     999903    2    3    3    0    0 -0.93883521389E-01  0.10233367702E-01 -0.86702515171E-01  0.12990033262E+00  0.20926845800E-01 0.  0.
         14    1    1    2    0    0 -0.18482378138E-01 -0.10942533455E-01  0.96426055723E-02  0.23543941520E-01  0.00000000000E+00 0.  1.
     999901    1    3    3    0    0  0.11236589953E+00  0.70916575333E-03  0.77059909598E-01  0.89048572586E+00  0.88000000000E+00 0.  1.
        -11    1    4    4    0    0 -0.89558949138E-01  0.96882762757E-02 -0.74386807565E-01  0.11682605158E+00  0.51100000000E-03 0. -1.
         11    1    4    4    0    0 -0.43245722513E-02  0.54509142623E-03 -0.12315707605E-01  0.13074281037E-01  0.51100000000E-03 0.  1.
</event>
<event>
 8    1  0.1114447E+005  0.1043930E+01  0.7957747E-01            NaN
         13   -1    0    0    0    0  0.00000000000E+00  0.00000000000E+00  0.74505805969E-08  0.10566000000E+00  0.10566000000E+00 0. -1.
     999900   -1    0    0    0    0 -0.00000000000E+00 -0.00000000000E+00 -0.74505805969E-08  0.93827000000E+00  0.93827000000E+00 0.  1.
     999902    2    1    2    0    0  0.11004372466E-02  0.16663360390E-01  0.16682125440E-01  0.10203255121E+01  0.10200524392E+01 0.  0.
     999903    2    3    3    0    0  0.53593397801E-01  0.10637572291E+00  0.55672716761E-01  0.13335083085E+00  0.22247381502E-01 0.  0.
         14    1    1    2    0    0 -0.11004372466E-02 -0.16663360390E-01 -0.16682125440E-01  0.23604487938E-01  0.00000000000E+00 0.  1.
     999901    1    3    3    0    0 -0.52492960555E-01 -0.89712362524E-01 -0.38990591322E-01  0.88697468121E+00  0.88000000000E+00 0.  1.
        -11    1    4    4    0    0  0.40781521112E-01  0.97179772767E-01  0.48758326917E-01  0.11612353880E+00  0.51100000000E-03 0. -1.
         11    1    4    4    0    0  0.12811876689E-01  0.91959501473E-02  0.69143898439E-02  0.17227292049E-01  0.51100000000E-03 0.  1.
</event>
<event>
 8    1  0.1114447E+005  0.1043930E+01  0.7957747E-01            NaN
         13   -1    0    0    0    0  0.00000000000E+00  0.00000000000E+00  0.74505805969E-08  0.10566000000E+00  0.10566000000E+00 0. -1.
     999900   -1    0    0    0    0 -0.00000000000E+00 -0.00000000000E+00 -0.74505805969E-08  0.93827000000E+00  0.93827000000E+00 0. -1.
     999902    2    1    2    0    0  0.34449503299E-02  0.18231816550E-02  0.23353297232E-01  0.10202536792E+01  0.10199789222E+01 0.  0.
     999903    2    3    3    0    0 -0.57135349133E-01  0.11392979407E+00 -0.16949013737E-01  0.13016259315E+00  0.20262909258E-01 0.  0.
         14    1    1    2    0    0 -0.34449503299E-02 -0.18231816550E-02 -0.23353297232E-01  0.23676320781E-01  0.00000000000E+00 0.  1.
     999901    1    3    3    0    0  0.60580299463E-01 -0.11210661241E+00  0.40302310969E-01  0.89009108607E+00  0.88000000000E+00 0.  1.
        -11    1    4    4    0    0 -0.72003851689E-02  0.56913186666E-02  0.21473966837E-02  0.94397610278E-02  0.51100000000E-03 0.  1.
         11    1    4    4    0    0 -0.49934963964E-01  0.10823847540E+00 -0.19096410420E-01  0.12072283212E+00  0.51100000000E-03 0. -1.
</event>
<event>
 8    1  0.1114447E+005  0.1043930E+01  0.7957747E-01            NaN
         13   -1    0    0    0    0  0.00000000000E+00  0.00000000000E+00  0.74505805969E-08  0.10566000000E+00  0.10566000000E+00 0.  1.
     999900   -1    0    0    0    0 -0.00000000000E+00 -0.00000000000E+00 -0.74505805969E-08  0.93827000000E+00  0.93827000000E+00 0. -1.
     999902    2    1    2    0    0 -0.17846978006E-01 -0.14561249663E-01  0.67018404162E-02  0.10199412676E+01  0.10196591245E+01 0.  0.
     999903    2    3    3    0    0 -0.70078639031E-01 -0.17096239270E-01 -0.10612740688E+00  0.13119776603E+00  0.27322706212E-01 0.  0.
         14    1    1    2    0    0  0.17846978006E-01  0.14561249663E-01 -0.67018404162E-02  0.23988732369E-01  0.00000000000E+00 0. -1.
     999901    1    3    3    0    0  0.52231661024E-01  0.25349896078E-02  0.11282924730E+00  0.88874350160E+00  0.88000000000E+00 0.  1.
        -11    1    4    4    0    0 -0.26249296533E-01  0.65171365644E-02 -0.42967202717E-01  0.50773420879E-01  0.51100000000E-03 0.  1.
         11    1    4    4    0    0 -0.43829342497E-01 -0.23613375835E-01 -0.63160204167E-01  0.80424345154E-01  0.51100000000E-03 0. -1.
</event>
<event>
 8    1  0.1114447E+005  0.1043930E+01  0.7957747E-01            NaN
         13   -1    0    0    0    0  0.00000000000E+00  0.00000000000E+00  0.74505805969E-08  0.10566000000E+00  0.10566000000E+00 0. -1.
     999900   -1    0    0    0    0 -0.00000000000E+00 -0.00000000000E+00 -0.74505805969E-08  0.93827000000E+00  0.93827000000E+00 0. -1.
     999902    2    1    2    0    0 -0.51892364427E-03 -0.17001799827E-01  0.16455861589E-01  0.10202630217E+01  0.10199884841E+01 0.  0.
     999903    2    3    3    0    0  0.12115863225E+00  0.33800587607E-01  0.28426938614E-01  0.13035874776E+00  0.19063535542E-01 0.  0.
         14    1    1    2    0    0  0.51892364427E-03  0.17001799827E-01 -0.16455861589E-01  0.23666978255E-01  0.00000000000E+00 0.  1.
     999901    1    3    3    0    0 -0.12167755589E+00 -0.50802387433E-01 -0.11971077025E-01  0.88990427399E+00  0.88000000000E+00 0. -1.
        -11    1    4    4    0    0  0.50087615329E-01  0.23770921890E-01  0.12363744831E-01  0.56806243003E-01  0.51100000000E-03 0. -1.
         11    1    4    4    0    0  0.71071016918E-01  0.10029665717E-01  0.16063193783E-01  0.73552504754E-01  0.51100000000E-03 0.  1.
</event>
<event>
 8    1  0.1114447E+005  0.1043930E+01  0.7957747E-01            NaN
         13   -1    0    0    0    0  0.00000000000E+00  0.00000000000E+00  0.74505805969E-08  0.10566000000E+00  0.10566000000E+00 0.  1.
     999900   -1    0    0    0    0 -0.00000000000E+00 -0.00000000000E+00 -0.74505805969E-08  0.93827000000E+00  0.93827000000E+00 0. -1.
     999902    2    1    2    0    0  0.17010271280E-01  0.16152247514E-01 -0.70040137931E-02  0.10194493824E+01  0.10191554065E+01 0.  0.
     999903    2    3    3    0    0  0.50229156979E-01  0.11214946334E+00 -0.46126317844E-01  0.13274226363E+00  0.19809114471E-01 0.  0.
         14    1    1    2    0    0 -0.17010271280E-01 -0.16152247514E-01  0.70040137931E-02  0.24480617598E-01  0.00000000000E+00 0.  1.
     999901    1    3    3    0    0 -0.33218885699E-01 -0.95997215828E-01  0.39122304051E-01  0.88670711878E+00  0.88000000000E+00 0. -1.
        -11    1    4    4    0    0  0.24833371156E-02  0.16680805121E-01 -0.11896367194E-01  0.20644633592E-01  0.51100000000E-03 0. -1.
         11    1    4    4    0    0  0.47745819863E-01  0.95468658221E-01 -0.34229950650E-01  0.11209763003E+00  0.51100000000E-03 0.  1.
</event>
<event>
 8    1  0.1114447E+005  0.1043930E+01  0.7957747E-01            NaN
         13   -1    0    0    0    0  0.00000000000E+00  0.00000000000E+00  0.74505805969E-08  0.10566000000E+00  0.10566000000E+00 0.  1.
     999900   -1    0    0    0    0 -0.00000000000E+00 -0.00000000000E+00 -0.74505805969E-08  0.93827000000E+00  0.93827000000E+00 0. -1.
     999902    2    1    2    0    0  0.49088150055E-02 -0.45598979666E-02 -0.23326052737E-01  0.10196608041E+01  0.10193719446E+01 0.  0.
     999903    2    3    3    0    0  0.76896267013E-01  0.34722971239E-01  0.94224087640E-01  0.12806483473E+00  0.20092351550E-01 0.  0.
         14    1    1    2    0    0 -0.49088150055E-02  0.45598979666E-02  0.23326052737E-01  0.24269195918E-01  0.00000000000E+00 0.  1.
     999901    1    3    3    0    0 -0.71987452008E-01 -0.39282869206E-01 -0.11755014038E+00  0.89159596935E+00  0.88000000000E+00 0. -1.
        -11    1    4    4    0    0  0.48209187037E-01  0.25073661000E-01  0.46353190627E-01  0.71426140824E-01  0.51100000000E-03 0. -1.
         11    1    4    4    0    0  0.28687079977E-01  0.96493102395E-02  0.47870897013E-01  0.56638693907E-01  0.51100000000E-03 0.  1.
</event>
<event>
 8    1  0.1114447E+005  0.1043930E+01  0.7957747E-01            NaN
         13   -1    0    0    0    0  0.00000000000E+00  0.00000000000E+00  0.74505805969E-08  0.10566000000E+00  0.10566000000E+00 0.  1.
     999900   -1    0    0    0    0 -0.00000000000E+00 -0.00000000000E+00 -0.74505805969E-08  0.93827000000E+00  0.93827000000E+00 0.  1.
     999902    2    1    2    0    0 -0.22203822791E-02 -0.21679420838E-01 -0.96262113561E-02  0.10201058247E+01  0.10198275845E+01 0.  0.
     999903    2    3    3    0    0 -0.12830718302E+00 -0.63843815993E-02 -0.15440217418E-01  0.13096825251E+00  0.20267937942E-01 0.  0.
         14    1    1    2    0    0  0.22203822791E-02  0.21679420838E-01  0.96262113561E-02  0.23824175335E-01  0.00000000000E+00 0. -1.
     999901    1    3    3    0    0  0.12608680074E+00 -0.15295039239E-01  0.58140060622E-02  0.88913757215E+00  0.88000000000E+00 0.  1.
        -11    1    4    4    0    0 -0.18150891434E-01 -0.67597203978E-02  0.18414220905E-02  0.19462801341E-01  0.51100000000E-03 0. -1.
         11    1    4    4    0    0 -0.11015629159E+00  0.37533879851E-03 -0.17281639509E-01  0.11150545117E+00  0.51100000000E-03 0.  1.
</event>
<event>
 8    1  0.1114447E+005  0.1043930E+01  0.7957747E-01            NaN
         13   -1    0    0    0    0  0.00000000000E+00  0.00000000000E+00  0.74505805969E-08  0.10566000000E+00  0.10566000000E+00 0.  1.
     999900   -1    0    0    0    0 -0.00000000000E+00 -0.00000000000E+00 -0.74505805969E-08  0.93827000000E+00  0.93827000000E+00 0.  1.
     999902    2    1    2    0    0  0.13887863026E-01  0.18534743017E-01 -0.62559497223E-02  0.10199394530E+01  0.10196572667E+01 0.  0.
     999903    2    3    3    0    0 -0.53294446816E-01 -0.14124731134E-01 -0.11602939916E+00  0.12997860319E+00  0.19794184177E-01 0.  0.
         14    1    1    2    0    0 -0.13887863026E-01 -0.18534743017E-01  0.62559497223E-02  0.23990546994E-01  0.00000000000E+00 0.  1.
     999901    1    3    3    0    0  0.67182309842E-01  0.32659474152E-01  0.10977344943E+00  0.88996084982E+00  0.88000000000E+00 0.  1.
        -11    1    4    4    0    0 -0.19296323514E-01 -0.35161444129E-02 -0.63885985725E-01  0.66831068117E-01  0.51100000000E-03 0. -1.
         11    1    4    4    0    0 -0.33998123301E-01 -0.10608586721E-01 -0.52143413432E-01  0.63147535071E-01  0.51100000000E-03 0.  1.
</event>
<event>
 8    1  0.1114447E+005  0.1043930E+01  0.7957747E-01            NaN
         13   -1    0    0    0    0  0.00000000000E+00  0.00000000000E+00  0.74505805969E-08  0.10566000000E+00  0.10566000000E+00 0. -1.
     999900   -1    0    0    0    0 -0.00000000000E+00 -0.00000000000E+00 -0.74505805969E-08  0.93827000000E+00  0.93827000000E+00 0.  1.
     999902    2    1    2    0    0  0.25054530178E-01  0.46269128436E-02  0.58813788434E-02  0.10177817989E+01  0.10174458520E+01 0.  0.
     999903    2    3    3    0    0 -0.11573980005E-01  0.85163064537E-01  0.94065346128E-01  0.12896003296E+00  0.19892113593E-01 0.  0.
         14    1    1    2    0    0 -0.25054530178E-01 -0.46269128436E-02 -0.58813788434E-02  0.26148201124E-01  0.00000000000E+00 0. -1.
     999901    1    3    3    0    0  0.36628510183E-01 -0.80536151694E-01 -0.88183967284E-01  0.88882176592E+00  0.88000000000E+00 0.  1.
        -11    1    4    4    0    0 -0.21388492685E-02  0.26736681559E-01  0.43541348682E-01  0.51142301308E-01  0.51100000000E-03 0.  1.
         11    1    4    4    0    0 -0.94351307366E-02  0.58426382978E-01  0.50523997446E-01  0.77817731648E-01  0.51100000000E-03 0. -1.
</event>
<event>
 8    1  0.1114447E+005  0.1043930E+01  0.7957747E-01            NaN
         13   -1    0    0    0    0  0.00000000000E+00  0.00000000000E+00  0.74505805969E-08  0.10566000000E+00  0.10566000000E+00 0.  1.
     999900   -1    0    0    0    0 -0.00000000000E+00 -0.00000000000E+00 -0.74505805969E-08  0.93827000000E+00  0.93827000000E+00 0.  1.
     999902    2    1    2    0    0  0.17556371193E-01 -0.83738094552E-02  0.17091916131E-01  0.10180363627E+01  0.10177070086E+01 0.  0.
     999903    2    3    3    0    0 -0.10211281577E+00  0.29367815137E-01 -0.63317024214E-01  0.12550583539E+00  0.21287870982E-01 0.  0.
         14    1    1    2    0    0 -0.17556371193E-01  0.83738094552E-02 -0.17091916131E-01  0.25893637274E-01  0.00000000000E+00 0.  1.
     999901    1    3    3    0    0  0.11966918697E+00 -0.37741624592E-01  0.80408940345E-01  0.89253052733E+00  0.88000000000E+00 0. -1.
        -11    1    4    4    0    0 -0.85898228268E-01  0.19687577709E-01 -0.44051569866E-01  0.98523643174E-01  0.51100000000E-03 0. -1.
         11    1    4    4    0    0 -0.16214587506E-01  0.96802374278E-02 -0.19265454348E-01  0.26982192218E-01  0.51100000000E-03 0.  1.
</event>
<event>
 8    1  0.1114447E+005  0.1043930E+01  0.7957747E-01            NaN
         13   -1    0    0    0    0  0.00000000000E+00  0.00000000000E+00  0.74505805969E-08  0.10566000000E+00  0.10566000000E+00 0. -1.
     999900   -1    0    0    0    0 -0.00000000000E+00 -0.00000000000E+00 -0.74505805969E-08  0.93827000000E+00  0.93827000000E+00 0.  1.
     999902    2    1    2    0    0  0.22123998257E-01  0.59315861936E-02 -0.45091386546E-02  0.10205850360E+01  0.10203180035E+01 0.  0.
     999903    2    3    3    0    0 -0.61350440782E-01  0.84704397148E-01  0.74014620960E-01  0.12966465876E+00  0.19900958168E-01 0.  0.
         14    1    1    2    0    0 -0.22123998257E-01 -0.59315861936E-02  0.45091386546E-02  0.23344964019E-01  0.00000000000E+00 0.  1.
     999901    1    3    3    0    0  0.83474439039E-01 -0.78772810954E-01 -0.78523759615E-01  0.89092037722E+00  0.88000000000E+00 0.  1.
        -11    1    4    4    0    0 -0.28400621932E-01  0.28938570293E-01  0.19462684162E-01  0.44978810261E-01  0.51100000000E-03 0.  1.
         11    1    4    4    0    0 -0.32949818850E-01  0.55765826855E-01  0.54551936798E-01  0.84685848502E-01  0.51100000000E-03 0. -1.
</event>
<event>
 8    1  0.1114447E+005  0.1043930E+01  0.7957747E-01            NaN
         13   -1    0    0    0    0  0.00000000000E+00  0.00000000000E+00  0.74505805969E-08  0.10566000000E+00  0.10566000000E+00 0. -1.
     999900   -1    0    0    0    0 -0.00000000000E+00 -0.00000000000E+00 -0.74505805969E-08  0.93827000000E+00  0.93827000000E+00 0.  1.
     999902    2    1    2    0    0  0.51219724194E-02 -0.17287322535E-02  0.23996927538E-01  0.10193317145E+01  0.10190348711E+01 0.  0.
     999903    2    3    3    0    0  0.20905332208E-01 -0.58900010031E-01 -0.10930399196E+00  0.12731893178E+00  0.18881303841E-01 0.  0.
         14    1    1    2    0    0 -0.51219724194E-02  0.17287322535E-02 -0.23996927538E-01  0.24598285467E-01  0.00000000000E+00 0.  1.
     999901    1    3    3    0    0 -0.15783359789E-01  0.57171277778E-01  0.13330091950E+00  0.89201278275E+00  0.88000000000E+00 0. -1.
        -11    1    4    4    0    0  0.59916867963E-02 -0.39122083082E-01 -0.77308662998E-01  0.86852335552E-01  0.51100000000E-03 0. -1.
         11    1    4    4    0    0  0.14913645412E-01 -0.19777926949E-01 -0.31995328966E-01  0.40466596231E-01  0.51100000000E-03 0.  1.
</event>
<event>
 8    1  0.1114447E+005  0.1043930E+01  0.7957747E-01            NaN
         13   -1    0    0    0    0  0.00000000000E+00  0.00000000000E+00  0.74505805969E-08  0.10566000000E+00  0.10566000000E+00 0.  1.
     999900   -1    0    0    0    0 -0.00000000000E+00 -0.00000000000E+00 -0.74505805969E-08  0.93827000000E+00  0.93827000000E+00 0. -1.
     999902    2    1    2    0    0  0.20911491329E-01  0.63958106938E-02 -0.84318184254E-02  0.10204930116E+01  0.10202238452E+01 0.  0.
     999903    2    3    3    0    0 -0.82582702933E-01 -0.47176215981E-01 -0.85945323956E-01  0.12943220904E+00  0.17905302273E-01 0.  0.
         14    1    1    2    0    0 -0.20911491329E-01 -0.63958106938E-02  0.84318184254E-02  0.23436988416E-01  0.00000000000E+00 0.  1.
     999901    1    3    3    0    0  0.10349419426E+00  0.53572026675E-01  0.77513505531E-01  0.89106080254E+00  0.88000000000E+00 0.  1.
        -11    1    4    4    0    0 -0.50393184905E-01 -0.27107182745E-01 -0.39844151454E-01  0.69728688266E-01  0.51100000000E-03 0. -1.
         11    1    4    4    0    0 -0.32189518028E-01 -0.20069033236E-01 -0.46101172503E-01  0.59703520776E-01  0.51100000000E-03 0.  1.
</event>
<event>
 8    1  0.1114447E+005  0.1043930E+01  0.7957747E-01            NaN
         13   -1    0    0    0    0  0.00000000000E+00  0.00000000000E+00  0.74505805969E-08  0.10566000000E+00  0.10566000000E+00 0. -1.
     999900   -1    0    0    0    0 -0.00000000000E+00 -0.00000000000E+00 -0.74505805969E-08  0.93827000000E+00  0.93827000000E+00 0.  1.
     999902    2    1    2    0    0  0.13173140510E-01  0.19557566580E-01 -0.23017490623E-01  0.10109779907E+01  0.10104408260E+01 0.  0.
     999903    2    3    3    0    0 -0.86736857593E-01 -0.13169560964E-01 -0.83339908214E-01  0.12266956080E+00  0.20138546217E-01 0.  0.
         14    1    1    2    0    0 -0.13173140510E-01 -0.19557566580E-01  0.23017490623E-01  0.32952009286E-01  0.00000000000E+00 0. -1.
     999901    1    3    3    0    0  0.99909998103E-01  0.32727127544E-01  0.60322417591E-01  0.88830842992E+00  0.88000000000E+00 0. -1.
        -11    1    4    4    0    0 -0.77637122744E-01 -0.50811764332E-02 -0.72972205732E-01  0.10667026349E+00  0.51100000000E-03 0.  1.
         11    1    4    4    0    0 -0.90997348486E-02 -0.80883845310E-02 -0.10367702482E-01  0.15999297310E-01  0.51100000000E-03 0. -1.
</event>
<event>
 8    1  0.1114447E+005  0.1043930E+01  0.7957747E-01            NaN
         13   -1    0    0    0    0  0.00000000000E+00  0.00000000000E+00  0.74505805969E-08  0.10566000000E+00  0.10566000000E+00 0. -1.
     999900   -1    0    0    0    0 -0.00000000000E+00 -0.00000000000E+00 -0.74505805969E-08  0.93827000000E+00  0.93827000000E+00 0. -1.
     999902    2    1    2    0    0 -0.22726822877E-01 -0.11162448025E-02 -0.92535391721E-02  0.10193661553E+01  0.10190701527E+01 0.  0.
     999903    2    3    3    0    0  0.10067272091E+00 -0.61694852089E-01  0.40596919807E-01  0.12729985542E+00  0.24817167097E-01 0.  0.
         14    1    1    2    0    0  0.22726822877E-01  0.11162448025E-02  0.92535391721E-02  0.24563844726E-01  0.00000000000E+00 0.  1.
     999901    1    3    3    0    0 -0.12339954379E+00  0.60578607286E-01 -0.49850458979E-01  0.89206629985E+00  0.88000000000E+00 0. -1.
        -11    1    4    4    0    0  0.17710530451E-01 -0.20461289420E-01  0.16011583074E-01  0.31447721175E-01  0.51100000000E-03 0. -1.
         11    1    4    4    0    0  0.82962190462E-01 -0.41233562668E-01  0.24585336733E-01  0.95852134248E-01  0.51100000000E-03 0.  1.
</event>
<event>
 8    1  0.1114447E+005  0.1043930E+01  0.7957747E-01            NaN
         13   -1    0    0    0    0  0.00000000000E+00  0.00000000000E+00  0.74505805969E-08  0.10566000000E+00  0.10566000000E+00 0. -1.
     999900   -1    0    0    0    0 -0.00000000000E+00 -0.00000000000E+00 -0.74505805969E-08  0.93827000000E+00  0.93827000000E+00 0. -1.
     999902    2    1    2    0    0 -0.21018208996E-01  0.44086592643E-02 -0.82406404614E-02  0.10209276188E+01  0.10206684541E+01 0.  0.
     999903    2    3    3    0    0  0.48045264820E-01 -0.43835961879E-01  0.10946334440E+00  0.12910278457E+00  0.21339310926E-01 0.  0.
         14    1    1    2    0    0  0.21018208996E-01 -0.44086592643E-02  0.82406404614E-02  0.23002381205E-01  0.00000000000E+00 0. -1.
     999901    1    3    3    0    0 -0.69063473816E-01  0.48244621143E-01 -0.11770398486E+00  0.89182483422E+00  0.88000000000E+00 0. -1.
        -11    1    4    4    0    0  0.45811962001E-02 -0.13491482574E-01  0.34120359784E-01  0.36979285194E-01  0.51100000000E-03 0.  1.
         11    1    4    4    0    0  0.43464068620E-01 -0.30344479305E-01  0.75342984618E-01  0.92123499377E-01  0.51100000000E-03 0. -1.
</event>
<event>
 8    1  0.1114447E+005  0.1043930E+01  0.7957747E-01            NaN
         13   -1    0    0    0    0  0.00000000000E+00  0.00000000000E+00  0.74505805969E-08  0.10566000000E+00  0.10566000000E+00 0. -1.
     999900   -1    0    0    0    0 -0.00000000000E+00 -0.00000000000E+00 -0.74505805969E-08  0.93827000000E+00  0.93827000000E+00 0.  1.
     999902    2    1    2    0    0  0.14053548971E-01  0.15709011663E-01 -0.11683237019E-01  0.10198307611E+01  0.10195459813E+01 0.  0.
     999903    2    3    3    0    0  0.41299082300E-01  0.11286142213E-01  0.12060791964E+00  0.12951462011E+00  0.19868954079E-01 0.  0.
         14    1    1    2    0    0 -0.14053548971E-01 -0.15709011663E-01  0.11683237019E-01  0.24099238854E-01  0.00000000000E+00 0. -1.
     999901    1    3    3    0    0 -0.27245533328E-01  0.44228694495E-02 -0.13229115666E+00  0.89031614104E+00  0.88000000000E+00 0.  1.
        -11    1    4    4    0    0  0.25701366933E-03 -0.17983297335E-02  0.19767854678E-01  0.19857725082E-01  0.51100000000E-03 0.  1.
         11    1    4    4    0    0  0.41042068630E-01  0.13084471947E-01  0.10084006497E+00  0.10965689503E+00  0.51100000000E-03 0. -1.
</event>
<event>
 8    1  0.1114447E+005  0.1043930E+01  0.7957747E-01            NaN
         13   -1    0    0    0    0  0.00000000000E+00  0.00000000000E+00  0.74505805969E-08  0.10566000000E+00  0.10566000000E+00 0. -1.
     999900   -1    0    0    0    0 -0.00000000000E+00 -0.00000000000E+00 -0.74505805969E-08  0.93827000000E+00  0.93827000000E+00 0.  1.
     999902    2    1    2    0    0 -0.11029614693E-01  0.23419090708E-01  0.89742004540E-02  0.10165321445E+01  0.10161628602E+01 0.  0.
     999903    2    3    3    0    0 -0.22062784874E-01  0.12088497522E+00  0.38910271584E-01  0.13057644709E+00  0.20886732411E-01 0.  0.
         14    1    1    2    0    0  0.11029614693E-01 -0.23419090708E-01 -0.89742004540E-02  0.27397855457E-01  0.00000000000E+00 0.  1.
     999901    1    3    3    0    0  0.11033170181E-01 -0.97465884512E-01 -0.29936071130E-01  0.88595569745E+00  0.88000000000E+00 0.  1.
        -11    1    4    4    0    0 -0.12910983771E-01  0.88600587115E-01  0.37243474065E-01  0.96974713305E-01  0.51100000000E-03 0.  1.
         11    1    4    4    0    0 -0.91518011032E-02  0.32284388104E-01  0.16667975192E-02  0.33601733789E-01  0.51100000000E-03 0. -1.
</event>
<event>
 8    1  0.1114447E+005  0.1043930E+01  0.7957747E-01            NaN
         13   -1    0    0    0    0  0.00000000000E+00  0.00000000000E+00  0.74505805969E-08  0.10566000000E+00  0.10566000000E+00 0. -1.
     999900   -1    0    0    0    0 -0.00000000000E+00 -0.00000000000E+00 -0.74505805969E-08  0.93827000000E+00  0.93827000000E+00 0.  1.
     999902    2    1    2    0    0 -0.15940335007E-01 -0.16090817039E-01  0.55906699651E-02  0.10206005280E+01  0.10203338539E+01 0.  0.
     999903    2    3    3    0    0 -0.22775106220E-01  0.49948998208E-01  0.11729239639E+00  0.13105837218E+00  0.20129152571E-01 0.  0.
         14    1    1    2    0    0  0.15940335007E-01  0.16090817039E-01 -0.55906699651E-02  0.23329471999E-01  0.00000000000E+00 0. -1.
     999901    1    3    3    0    0  0.68347712131E-02 -0.66039815247E-01 -0.11170172642E+00  0.88954215582E+00  0.88000000000E+00 0.  1.
        -11    1    4    4    0    0 -0.97788319191E-02  0.35000402685E-01  0.57072286097E-01  0.67662106848E-01  0.51100000000E-03 0. -1.
         11    1    4    4    0    0 -0.12996274301E-01  0.14948595523E-01  0.60220110290E-01  0.63396265332E-01  0.51100000000E-03 0.  1.
</event>
<event>
 8    1  0.1114447E+005  0.1043930E+01  0.7957747E-01            NaN
         13   -1    0    0    0    0  0.00000000000E+00  0.00000000000E+00  0.74505805969E-08  0.10566000000E+00  0.10566000000E+00 0.  1.
     999900   -1    0    0    0    0 -0.00000000000E+00 -0.00000000000E+00 -0.74505805969E-08  0.93827000000E+00  0.93827000000E+00 0.  1.
     999902    2    1    2    0    0  0.16831611878E-02 -0.12062623096E-01  0.20496805792E-01  0.10200876227E+01  0.10198089522E+01 0.  0.
     999903    2    3    3    0    0 -0.94685447982E-01  0.80834092203E-01 -0.26689550693E-01  0.12871606113E+00  0.18868167750E-01 0.  0.
         14    1    1    2    0    0 -0.16831611878E-02  0.12062623096E-01 -0.20496805792E-01  0.23842377298E-01  0.00000000000E+00 0. -1.
     999901    1    3    3    0    0  0.96368609169E-01 -0.92896715298E-01  0.47186356485E-01  0.89137156158E+00  0.88000000000E+00 0.  1.
        -11    1    4    4    0    0 -0.48745208085E-01  0.48692307133E-01 -0.68536984620E-02  0.69240670049E-01  0.51100000000E-03 0. -1.
         11    1    4    4    0    0 -0.45940239896E-01  0.32141785070E-01 -0.19835852231E-01  0.59475391079E-01  0.51100000000E-03 0.  1.
</event>
<event>
 8    1  0.1114447E+005  0.1043930E+01  0.7957747E-01            NaN
         13   -1    0    0    0    0  0.00000000000E+00  0.00000000000E+00  0.74505805969E-08  0.10566000000E+00  0.10566000000E+00 0. -1.
     999900   -1    0    0    0    0 -0.00000000000E+00 -0.00000000000E+00 -0.74505805969E-08  0.93827000000E+00  0.93827000000E+00 0.  1.
     999902    2    1    2    0    0  0.94773952486E-02 -0.20863646237E-01  0.26204880080E-02  0.10208653146E+01  0.10206047280E+01 0.  0.
     999903    2    3    3    0    0 -0.74921735091E-01 -0.61363414427E-01 -0.86621385333E-01  0.13141179902E+00  0.19673878765E-01 0.  0.
         14    1    1    2    0    0 -0.94773952486E-02  0.20863646237E-01 -0.26204880080E-02  0.23064685396E-01  0.00000000000E+00 0.  1.
     999901    1    3    3    0    0  0.84399130340E-01  0.40499768190E-01  0.89241873341E-01  0.88945351558E+00  0.88000000000E+00 0.  1.
        -11    1    4    4    0    0 -0.16988106522E-01 -0.45765554994E-02 -0.13283980236E-01  0.22051437036E-01  0.51100000000E-03 0. -1.
         11    1    4    4    0    0 -0.57933628569E-01 -0.56786858928E-01 -0.73337405097E-01  0.10936036199E+00  0.51100000000E-03 0.  1.
</event>
<event>
 8    1  0.1114447E+005  0.1043930E+01  0.7957747E-01            NaN
         13   -1    0    0    0    0  0.00000000000E+00  0.00000000000E+00  0.74505805969E-08  0.10566000000E+00  0.10566000000E+00 0. -1.
     999900   -1    0    0    0    0 -0.00000000000E+00 -0.00000000000E+00 -0.74505805969E-08  0.93827000000E+00  0.93827000000E+00 0.  1.
     999902    2    1    2    0    0 -0.98659042929E-02  0.13801295925E-01 -0.15613637873E-01  0.10208736012E+01  0.10206132040E+01 0.  0.
     999903    2    3    3    0    0 -0.16895785059E-01 -0.65029690015E-01 -0.11259132894E+00  0.13201567325E+00  0.15394885343E-01 0.  0.
         14    1    1    2    0    0  0.98659042929E-02 -0.13801295925E-01  0.15613637873E-01  0.23056398772E-01  0.00000000000E+00 0. -1.
     999901    1    3    3    0    0  0.70298807662E-02  0.78830985940E-01  0.96977691066E-01  0.88885792798E+00  0.88000000000E+00 0. -1.
        -11    1    4    4    0    0 -0.19535765479E-01 -0.50973143576E-01 -0.87665036741E-01  0.10327307145E+00  0.51100000000E-03 0.  1.
         11    1    4    4    0    0  0.26399804196E-02 -0.14056546438E-01 -0.24926292198E-01  0.28742601798E-01  0.51100000000E-03 0. -1.
</event>
<event>
 8    1  0.1114447E+005  0.1043930E+01  0.7957747E-01            NaN
         13   -1    0    0    0    0  0.00000000000E+00  0.00000000000E+00  0.74505805969E-08  0.10566000000E+00  0.10566000000E+00 0. -1.
     999900   -1    0    0    0    0 -0.00000000000E+00 -0.00000000000E+00 -0.74505805969E-08  0.93827000000E+00  0.93827000000E+00 0.  1.
     999902    2    1    2    0    0  0.21746774227E-01  0.17082143542E-02  0.87277295273E-02  0.10204350336E+01  0.10201645182E+01 0.  0.
     999903    2    3    3    0    0 -0.62900355961E-01 -0.11021040016E+00 -0.11810280895E-01  0.12908060192E+00  0.20482479651E-01 0.  0.
         14    1    1    2    0    0 -0.21746774227E-01 -0.17082143542E-02 -0.87277295273E-02  0.23494966445E-01  0.00000000000E+00 0.  1.
     999901    1    3    3    0    0  0.84647130188E-01  0.11191861452E+00  0.20538010422E-01  0.89135443164E+00  0.88000000000E+00 0. -1.
        -11    1    4    4    0    0 -0.55357219586E-01 -0.92657459556E-01 -0.17024995150E-01  0.10927002403E+00  0.51100000000E-03 0.  1.
         11    1    4    4    0    0 -0.75431363749E-02 -0.17552940608E-01  0.52147142546E-02  0.19810577884E-01  0.51100000000E-03 0. -1.
</event>
<event>
 8    1  0.1114447E+005  0.1043930E+01  0.7957747E-01            NaN
         13   -1    0    0    0    0  0.00000000000E+00  0.00000000000E+00  0.74505805969E-08  0.10566000000E+00  0.10566000000E+00 0.  1.
     999900   -1    0    0    0    0 -0.00000000000E+00 -0.00000000000E+00 -0.74505805969E-08  0.93827000000E+00  0.93827000000E+00 0.  1.
     999902    2    1    2    0    0 -0.18853868740E-01  0.95079299470E-02 -0.99377753411E-02  0.10205927234E+01  0.10203258689E+01 0.  0.
     999903    2    3    3    0    0 -0.29369196867E-01 -0.11921421649E+00  0.37207386531E-01  0.12991734521E+00  0.20482866896E-01 0.  0.
         14    1    1    2    0    0  0.18853868740E-01 -0.95079299470E-02  0.99377753411E-02  0.23337276556E-01  0.00000000000E+00 0. -1.
     999901    1    3    3    0    0  0.10515328127E-01  0.12872214643E+00 -0.47145161872E-01  0.89067537824E+00  0.88000000000E+00 0.  1.
        -11    1    4    4    0    0 -0.85765579650E-02 -0.66040196677E-01  0.12767546740E-01  0.67809559019E-01  0.51100000000E-03 0. -1.
         11    1    4    4    0    0 -0.20792638902E-01 -0.53174019810E-01  0.24439839791E-01  0.62107786188E-01  0.51100000000E-03 0.  1.
</event>
<event>
 8    1  0.1114447E+005  0.1043930E+01  0.7957747E-01            NaN
         13   -1    0    0    0    0  0.00000000000E+00  0.00000000000E+00  0.74505805969E-08  0.10566000000E+00  0.10566000000E+00 0. -1.
     999900   -1    0    0    0    0 -0.00000000000E+00 -0.00000000000E+00 -0.74505805969E-08  0.93827000000E+00  0.93827000000E+00 0.  1.
     999902    2    1    2    0    0  0.47345407588E-02  0.16682699752E-01  0.15347196197E-01  0.10207726086E+01  0.10205098988E+01 0.  0.
     999903    2    3    3    0    0 -0.10425498319E+00  0.35143271347E-01 -0.66695184588E-01  0.13007037926E+00  0.19128640110E-01 0.  0.
         14    1    1    2    0    0 -0.47345407588E-02 -0.16682699752E-01 -0.15347196197E-01  0.23157391440E-01  0.00000000000E+00 0.  1.
     999901    1    3    3    0    0  0.10898952395E+00 -0.18460571595E-01  0.82042380784E-01  0.89070222930E+00  0.88000000000E+00 0. -1.
        -11    1    4    4    0    0 -0.87608253357E-01  0.28190990853E-01 -0.46941019211E-01  0.10331339907E+00  0.51100000000E-03 0. -1.
         11    1    4    4    0    0 -0.16646729835E-01  0.69522804945E-02 -0.19754165376E-01  0.26756980192E-01  0.51100000000E-03 0.  1.
</event>
<event>
 8    1  0.1114447E+005  0.1043930E+01  0.7957747E-01            NaN
         13   -1    0    0    0    0  0.00000000000E+00  0.00000000000E+00  0.74505805969E-08  0.10566000000E+00  0.10566000000E+00 0. -1.
     999900   -1    0    0    0    0 -0.00000000000E+00 -0.00000000000E+00 -0.74505805969E-08  0.93827000000E+00  0.93827000000E+00 0.  1.
     999902    2    1    2    0    0  0.81083901423E-02 -0.33993497850E-02 -0.21726606919E-01  0.10204918470E+01  0.10202226535E+01 0.  0.
     999903    2    3    3    0    0  0.38819828094E-02 -0.12476701552E+00  0.32504151040E-01  0.13049805602E+00  0.19782437607E-01 0.  0.
         14    1    1    2    0    0 -0.81083901423E-02  0.33993497850E-02  0.21726606919E-01  0.23438153039E-01  0.00000000000E+00 0. -1.
     999901    1    3    3    0    0  0.42264073329E-02  0.12136766574E+00 -0.54230757959E-01  0.88999379094E+00  0.88000000000E+00 0.  1.
        -11    1    4    4    0    0  0.65815842212E-02 -0.79173617541E-01  0.11692587392E-01  0.80304151115E-01  0.51100000000E-03 0.  1.
         11    1    4    4    0    0 -0.26996014118E-02 -0.45593397980E-01  0.20811563649E-01  0.50193904905E-01  0.51100000000E-03 0. -1.
</event>
<event>
 8    1  0.1114447E+005  0.1043930E+01  0.7957747E-01            NaN
         13   -1    0    0    0    0  0.00000000000E+00  0.00000000000E+00  0.74505805969E-08  0.10566000000E+00  0.10566000000E+00 0. -1.
     999900   -1    0    0    0    0 -0.00000000000E+00 -0.00000000000E+00 -0.74505805969E-08  0.93827000000E+00  0.93827000000E+00 0.  1.
     999902    2    1    2    0    0 -0.77036976875E-02 -0.20844917691E-01  0.75598529908E-02  0.10204564206E+01  0.10201864033E+01 0.  0.
     999903    2    3    3    0    0 -0.45178753012E-01  0.10426491150E+00  0.58457186988E-01  0.12936305417E+00  0.20131209099E-01 0.  0.
         14    1    1    2    0    0  0.77036976875E-02  0.20844917691E-01 -0.75598529908E-02  0.23473579379E-01  0.00000000000E+00 0.  1.
     999901    1    3    3    0    0  0.37475055325E-01 -0.12510982919E+00 -0.50897333998E-01  0.89109336645E+00  0.88000000000E+00 0.  1.
        -11    1    4    4    0    0 -0.24083878648E-01  0.65632674360E-01  0.45727280632E-01  0.83539969292E-01  0.51100000000E-03 0. -1.
         11    1    4    4    0    0 -0.21094874365E-01  0.38632237136E-01  0.12729906357E-01  0.45823084875E-01  0.51100000000E-03 0.  1.
</event>
<event>
 8    1  0.1114447E+005  0.1043930E+01  0.7957747E-01            NaN
         13   -1    0    0    0    0  0.00000000000E+00  0.00000000000E+00  0.74505805969E-08  0.10566000000E+00  0.10566000000E+00 0. -1.
     999900   -1    0    0    0    0 -0.00000000000E+00 -0.00000000000E+00 -0.74505805969E-08  0.93827000000E+00  0.93827000000E+00 0. -1.
     999902    2    1    2    0    0  0.14516217170E-02 -0.21743154814E-01 -0.86588753362E-02  0.10204811598E+01  0.10202117179E+01 0.  0.
     999903    2    3    3    0    0  0.15351169533E-01  0.36943781334E-01  0.12081476758E+00  0.12896515983E+00  0.20863916227E-01 0.  0.
         14    1    1    2    0    0 -0.14516217170E-02  0.21743154814E-01  0.86588753362E-02  0.23448840247E-01  0.00000000000E+00 0.  1.
     999901    1    3    3    0    0 -0.13899547816E-01 -0.58686936148E-01 -0.12947364291E+00  0.89151599992E+00  0.88000000000E+00 0.  1.
        -11    1    4    4    0    0  0.79948331589E-02  0.22606628385E-01  0.40674072824E-01  0.47218834433E-01  0.51100000000E-03 0.  1.
         11    1    4    4    0    0  0.73563363740E-02  0.14337152949E-01  0.80140694755E-01  0.81746325400E-01  0.51100000000E-03 0. -1.
</event>
<event>
 8    1  0.1114447E+005  0.1043930E+01  0.7957747E-01            NaN
         13   -1    0    0    0    0  0.00000000000E+00  0.00000000000E+00  0.74505805969E-08  0.10566000000E+00  0.10566000000E+00 0. -1.
     999900   -1    0    0    0    0 -0.00000000000E+00 -0.00000000000E+00 -0.74505805969E-08  0.93827000000E+00  0.93827000000E+00 0.  1.
     999902    2    1    2    0    0 -0.10455681938E-01 -0.21411938846E-01 -0.90405046699E-02  0.10184442562E+01  0.10181253262E+01 0.  0.
     999903    2    3    3    0    0 -0.53374893047E-01 -0.93092156046E-01 -0.74517112103E-01  0.13206550067E+00  0.19325313595E-01 0.  0.
         14    1    1    2    0    0  0.10455681938E-01  0.21411938846E-01  0.90405046699E-02  0.25485743752E-01  0.00000000000E+00 0.  1.
     999901    1    3    3    0    0  0.42919211109E-01  0.71680217201E-01  0.65476607433E-01  0.88637875558E+00  0.88000000000E+00 0. -1.
        -11    1    4    4    0    0 -0.15902642212E-01 -0.17187595313E-01 -0.92815717623E-02  0.25193573731E-01  0.51100000000E-03 0.  1.
         11    1    4    4    0    0 -0.37472250835E-01 -0.75904560734E-01 -0.65235540341E-01  0.10687192694E+00  0.51100000000E-03 0. -1.
</event>
<event>
 8    1  0.1114447E+005  0.1043930E+01  0.7957747E-01            NaN
         13   -1    0    0    0    0  0.00000000000E+00  0.00000000000E+00  0.74505805969E-08  0.10566000000E+00  0.10566000000E+00 0.  1.
     999900   -1    0    0    0    0 -0.00000000000E+00 -0.00000000000E+00 -0.74505805969E-08  0.93827000000E+00  0.93827000000E+00 0. -1.
     999902    2    1    2    0    0 -0.20304050348E-01  0.71092592861E-02  0.79428424273E-02  0.10209978223E+01  0.10207402551E+01 0.  0.
     999903    2    3    3    0    0  0.64494774883E-01  0.76002256372E-01  0.80837933339E-01  0.13125022883E+00  0.27494220141E-01 0.  0.
         14    1    1    2    0    0  0.20304050348E-01 -0.71092592861E-02 -0.79428424273E-02  0.22932177697E-01  0.00000000000E+00 0. -1.
     999901    1    3    3    0    0 -0.84798825231E-01 -0.68892997086E-01 -0.72895090911E-01  0.88974759347E+00  0.88000000000E+00 0. -1.
        -11    1    4    4    0    0  0.28150621902E-01  0.16134694423E-01  0.33962410743E-01  0.46973315213E-01  0.51100000000E-03 0.  1.
         11    1    4    4    0    0  0.36344152981E-01  0.59867561949E-01  0.46875522596E-01  0.84276913619E-01  0.51100000000E-03 0. -1.
</event>
<event>
 8    1  0.1114447E+005  0.1043930E+01  0.7957747E-01            NaN
         13   -1    0    0    0    0  0.00000000000E+00  0.00000000000E+00  0.74505805969E-08  0.10566000000E+00  0.10566000000E+00 0.  1.
     999900   -1    0    0    0    0 -0.00000000000E+00 -0.00000000000E+00 -0.74505805969E-08  0.93827000000E+00  0.93827000000E+00 0. -1.
     999902    2    1    2    0    0 -0.20166992842E-01  0.93519170326E-02  0.10129397639E-01  0.10195011104E+01  0.10192083906E+01 0.  0.
     999903    2    3    3    0    0  0.11360342132E+00  0.41802790171E-01  0.37800432444E-01  0.12837077812E+00  0.19924190846E-01 0.  0.
         14    1    1    2    0    0  0.20166992842E-01 -0.93519170326E-02 -0.10129397639E-01  0.24428889639E-01  0.00000000000E+00 0.  1.
     999901    1    3    3    0    0 -0.13377041416E+00 -0.32450873138E-01 -0.27671034805E-01  0.89113033224E+00  0.88000000000E+00 0. -1.
        -11    1    4    4    0    0  0.79222891064E-01  0.34513303075E-01  0.34570204341E-01  0.93074135541E-01  0.51100000000E-03 0. -1.
         11    1    4    4    0    0  0.34380530255E-01  0.72894870959E-02  0.32302281036E-02  0.35296642579E-01  0.51100000000E-03 0.  1.
</event>
<event>
 8    1  0.1114447E+005  0.1043930E+01  0.7957747E-01            NaN
         13   -1    0    0    0    0  0.00000000000E+00  0.00000000000E+00  0.74505805969E-08  0.10566000000E+00  0.10566000000E+00 0. -1.
     999900   -1    0    0    0    0 -0.00000000000E+00 -0.00000000000E+00 -0.74505805969E-08  0.93827000000E+00  0.93827000000E+00 0. -1.
     999902    2    1    2    0    0 -0.18760713761E-01 -0.17219736579E-01 -0.11114065566E-01  0.10161450011E+01  0.10157650600E+01 0.  0.
     999903    2    3    3    0    0  0.91056743710E-01  0.41163553965E-01 -0.72906977895E-01  0.12525396032E+00  0.19681422726E-01 0.  0.
         14    1    1    2    0    0  0.18760713761E-01  0.17219736579E-01  0.11114065566E-01  0.27784998868E-01  0.00000000000E+00 0. -1.
     999901    1    3    3    0    0 -0.10981745747E+00 -0.58383290545E-01  0.61792912329E-01  0.89089104081E+00  0.88000000000E+00 0.  1.
        -11    1    4    4    0    0  0.66714898979E-01  0.28406048999E-01 -0.41620668058E-01  0.83608148503E-01  0.51100000000E-03 0. -1.
         11    1    4    4    0    0  0.24341844732E-01  0.12757504966E-01 -0.31286309837E-01  0.41645811820E-01  0.51100000000E-03 0.  1.
</event>
<event>
 8    1  0.1114447E+005  0.1043930E+01  0.7957747E-01            NaN
         13   -1    0    0    0    0  0.00000000000E+00  0.00000000000E+00  0.74505805969E-08  0.10566000000E+00  0.10566000000E+00 0. -1.
     999900   -1    0    0    0    0 -0.00000000000E+00 -0.00000000000E+00 -0.74505805969E-08  0.93827000000E+00  0.93827000000E+00 0.  1.
     999902    2    1    2    0    0  0.76199550696E-02  0.10375234021E-01  0.20218271646E-01  0.10199615269E+01  0.10196798657E+01 0.  0.
     999903    2    3    3    0    0 -0.28174588723E-01  0.12469549116E+00  0.24658565641E-01  0.13183423488E+00  0.20723118999E-01 0.  0.
         14    1    1    2    0    0 -0.76199550696E-02 -0.10375234021E-01 -0.20218271646E-01  0.23968473139E-01  0.00000000000E+00 0.  1.
     999901    1    3    3    0    0  0.35794543792E-01 -0.11432025714E+00 -0.44402939947E-02  0.88812729198E+00  0.88000000000E+00 0.  1.
        -11    1    4    4    0    0 -0.54781775343E-02  0.33976178393E-01 -0.23399026545E-02  0.34498223037E-01  0.51100000000E-03 0.  1.
         11    1    4    4    0    0 -0.22696411188E-01  0.90719312766E-01  0.26998468295E-01  0.97336011839E-01  0.51100000000E-03 0. -1.
</event>
<event>
 8    1  0.1114447E+005  0.1043930E+01  0.7957747E-01            NaN
         13   -1    0    0    0    0  0.00000000000E+00  0.00000000000E+00  0.74505805969E-08  0.10566000000E+00  0.10566000000E+00 0. -1.
     999900   -1    0    0    0    0 -0.00000000000E+00 -0.00000000000E+00 -0.74505805969E-08  0.93827000000E+00  0.93827000000E+00 0.  1.
     999902    2    1    2    0    0 -0.11692196320E-01 -0.50368131623E-02 -0.20246450245E-01  0.10200135686E+01  0.10197331438E+01 0.  0.
     999903    2    3    3    0    0 -0.11278052194E+00 -0.50540250572E-01 -0.44734496884E-01  0.13272045088E+00  0.18433117262E-01 0.  0.
         14    1    1    2    0    0  0.11692196320E-01  0.50368131623E-02  0.20246450245E-01  0.23916431363E-01  0.00000000000E+00 0. -1.
     999901    1    3    3    0    0  0.10108832562E+00  0.45503437410E-01  0.24488046640E-01  0.88729311776E+00  0.88000000000E+00 0. -1.
        -11    1    4    4    0    0 -0.86466057814E-01 -0.34924255277E-01 -0.25893785919E-01  0.96782395252E-01  0.51100000000E-03 0. -1.
         11    1    4    4    0    0 -0.26314464131E-01 -0.15615995295E-01 -0.18840710965E-01  0.35938055627E-01  0.51100000000E-03 0.  1.
</event>
<event>
 8    1  0.1114447E+005  0.1043930E+01  0.7957747E-01            NaN
         13   -1    0    0    0    0  0.00000000000E+00  0.00000000000E+00  0.74505805969E-08  0.10566000000E+00  0.10566000000E+00 0.  1.
     999900   -1    0    0    0    0 -0.00000000000E+00 -0.00000000000E+00 -0.74505805969E-08  0.93827000000E+00  0.93827000000E+00 0.  1.
     999902    2    1    2    0    0 -0.14916718075E-01 -0.16075915686E-01 -0.99287331736E-02  0.10198567101E+01  0.10195725506E+01 0.  0.
     999903    2    3    3    0    0  0.10837500148E+00  0.40737870552E-01  0.49331736488E-01  0.12747761036E+00  0.20302853887E-01 0.  0.
         14    1    1    2    0    0  0.14916718075E-01  0.16075915686E-01  0.99287331736E-02  0.24073289882E-01  0.00000000000E+00 0.  1.
     999901    1    3    3    0    0 -0.12329171955E+00 -0.56813786238E-01 -0.59260469662E-01  0.89237909976E+00  0.88000000000E+00 0.  1.
        -11    1    4    4    0    0  0.93234311964E-01  0.28101579131E-01  0.45031975478E-01  0.10728688463E+00  0.51100000000E-03 0. -1.
         11    1    4    4    0    0  0.15140689516E-01  0.12636291421E-01  0.42997610104E-02  0.20190725733E-01  0.51100000000E-03 0.  1.
</event>
<event>
 8    1  0.1114447E+005  0.1043930E+01  0.7957747E-01            NaN
         13   -1    0    0    0    0  0.00000000000E+00  0.00000000000E+00  0.74505805969E-08  0.10566000000E+00  0.10566000000E+00 0.  1.
     999900   -1    0    0    0    0 -0.00000000000E+00 -0.00000000000E+00 -0.74505805969E-08  0.93827000000E+00  0.93827000000E+00 0. -1.
     999902    2    1    2    0    0 -0.12322973896E-02 -0.43752695066E-02  0.24799240601E-01  0.10187176246E+01  0.10184055846E+01 0.  0.
     999903    2    3    3    0    0  0.11834442429E+00  0.77818736599E-02  0.49830619286E-01  0.13019471637E+00  0.20040290245E-01 0.  0.
         14    1    1    2    0    0  0.12322973896E-02  0.43752695066E-02 -0.24799240601E-01  0.25212375424E-01  0.00000000000E+00 0. -1.
     999901    1    3    3    0    0 -0.11957672168E+00 -0.12157143166E-01 -0.25031378685E-01  0.88852290821E+00  0.88000000000E+00 0.  1.
        -11    1    4    4    0    0  0.88996772696E-02 -0.22781499126E-02  0.92174501665E-02  0.13023698826E-01  0.51100000000E-03 0.  1.
         11    1    4    4    0    0  0.10944474702E+00  0.10060023572E-01  0.40613169119E-01  0.11717101754E+00  0.51100000000E-03 0. -1.
</event>
<event>
 8    1  0.1114447E+005  0.1043930E+01  0.7957747E-01            NaN
         13   -1    0    0    0    0  0.00000000000E+00  0.00000000000E+00  0.74505805969E-08  0.10566000000E+00  0.10566000000E+00 0. -1.
     999900   -1    0    0    0    0 -0.00000000000E+00 -0.00000000000E+00 -0.74505805969E-08  0.93827000000E+00  0.93827000000E+00 0.  1.
     999902    2    1    2    0    0  0.15419218096E-01  0.49479083385E-02 -0.17759963133E-01  0.10198956418E+01  0.10196124116E+01 0.  0.
     999903    2    3    3    0    0  0.98423123683E-01  0.56625127745E-01  0.62430133691E-01  0.13085647788E+00  0.18231287494E-01 0.  0.
         14    1    1    2    0    0 -0.15419218096E-01 -0.49479083385E-02  0.17759963133E-01  0.24034358200E-01  0.00000000000E+00 0.  1.
     999901    1    3    3    0    0 -0.83003905587E-01 -0.51677219407E-01 -0.80190096824E-01  0.88903916392E+00  0.88000000000E+00 0.  1.
        -11    1    4    4    0    0  0.94201436712E-01  0.51616884792E-01  0.54173522777E-01  0.12030480109E+00  0.51100000000E-03 0.  1.
         11    1    4    4    0    0  0.42216869707E-02  0.50082429530E-02  0.82566109149E-02  0.10551676794E-01  0.51100000000E-03 0. -1.
</event>
<event>
 8    1  0.1114447E+005  0.1043930E+01  0.7957747E-01            NaN
         13   -1    0    0    0    0  0.00000000000E+00  0.00000000000E+00  0.74505805969E-08  0.10566000000E+00  0.10566000000E+00 0.  1.
     999900   -1    0    0    0    0 -0.00000000000E+00 -0.00000000000E+00 -0.74505805969E-08  0.93827000000E+00  0.93827000000E+00 0.  1.
     999902    2    1    2    0    0 -0.20173226039E-01 -0.93094093546E-03 -0.10919688433E-01  0.10209720973E+01  0.10207139453E+01 0.  0.
     999903    2    3    3    0    0 -0.41687185364E-01 -0.31646524620E-01 -0.12110427054E+00  0.13330834361E+00  0.19119262237E-01 0.  0.
         14    1    1    2    0    0  0.20173226039E-01  0.93094093546E-03  0.10919688433E-01  0.22957902677E-01  0.00000000000E+00 0.  1.
     999901    1    3    3    0    0  0.21513959325E-01  0.30715583685E-01  0.11018458211E+00  0.88766375372E+00  0.88000000000E+00 0. -1.
        -11    1    4    4    0    0 -0.29598554975E-01 -0.16158510932E-01 -0.56701547408E-01  0.65973468392E-01  0.51100000000E-03 0.  1.
         11    1    4    4    0    0 -0.12088630389E-01 -0.15488013688E-01 -0.64402723130E-01  0.67334875215E-01  0.51100000000E-03 0. -1.
</event>
<event>
 8    1  0.1114447E+005  0.1043930E+01  0.7957747E-01            NaN
         13   -1    0    0    0    0  0.00000000000E+00  0.00000000000E+00  0.74505805969E-08  0.10566000000E+00  0.10566000000E+00 0. -1.
     999900   -1    0    0    0    0 -0.00000000000E+00 -0.00000000000E+00 -0.74505805969E-08  0.93827000000E+00  0.93827000000E+00 0. -1.
     999902    2    1    2    0    0  0.14573705958E-01  0.15403803052E-01  0.34842134033E-02  0.10224402397E+01  0.10222143777E+01 0.  0.
     999903    2    3    3    0    0 -0.29661607357E-03  0.59853673967E-01 -0.11700851068E+00  0.13299354989E+00  0.20340660513E-01 0.  0.
         14    1    1    2    0    0 -0.14573705958E-01 -0.15403803052E-01 -0.34842134033E-02  0.21489760279E-01  0.00000000000E+00 0. -1.
     999901    1    3    3    0    0  0.14870322032E-01 -0.44449870915E-01  0.12049272409E+00  0.88944668984E+00  0.88000000000E+00 0.  1.
        -11    1    4    4    0    0 -0.35572971690E-02  0.25463542095E-02 -0.29385149203E-02  0.52947402057E-02  0.51100000000E-03 0. -1.
         11    1    4    4    0    0  0.32606810954E-02  0.57307319757E-01 -0.11406999576E+00  0.12769880968E+00  0.51100000000E-03 0.  1.
</event>
<event>
 8    1  0.1114447E+005  0.1043930E+01  0.7957747E-01            NaN
         13   -1    0    0    0    0  0.00000000000E+00  0.00000000000E+00  0.74505805969E-08  0.10566000000E+00  0.10566000000E+00 0.  1.
     999900   -1    0    0    0    0 -0.00000000000E+00 -0.00000000000E+00 -0.74505805969E-08  0.93827000000E+00  0.93827000000E+00 0. -1.
     999902    2    1    2    0    0 -0.16371650723E-01 -0.62628474827E-02 -0.15550395924E-01  0.10204977782E+01  0.10202287225E+01 0.  0.
     999903    2    3    3    0    0 -0.21793350343E-01 -0.11037393460E+00  0.63519621386E-01  0.13082335406E+00  0.20558504528E-01 0.  0.
         14    1    1    2    0    0  0.16371650723E-01  0.62628474827E-02  0.15550395924E-01  0.23432221819E-01  0.00000000000E+00 0.  1.
     999901    1    3    3    0    0  0.54216996203E-02  0.10411108712E+00 -0.79070017310E-01  0.88967442412E+00  0.88000000000E+00 0. -1.
        -11    1    4    4    0    0 -0.10573309775E-02 -0.43951431314E-01  0.17099747036E-01  0.47175297911E-01  0.51100000000E-03 0. -1.
         11    1    4    4    0    0 -0.20736019366E-01 -0.66422503291E-01  0.46419874350E-01  0.83648056154E-01  0.51100000000E-03 0.  1.
</event>
<event>
 8    1  0.1114447E+005  0.1043930E+01  0.7957747E-01            NaN
         13   -1    0    0    0    0  0.00000000000E+00  0.00000000000E+00  0.74505805969E-08  0.10566000000E+00  0.10566000000E+00 0.  1.
     999900   -1    0    0    0    0 -0.00000000000E+00 -0.00000000000E+00 -0.74505805969E-08  0.93827000000E+00  0.93827000000E+00 0. -1.
     999902    2    1    2    0    0  0.12887462862E-01 -0.57544211831E-02  0.19663332328E-01  0.10197257297E+01  0.10194384322E+01 0.  0.
     999903    2    3    3    0    0 -0.12563297351E+00  0.57007729121E-02  0.20533303214E-01  0.12881614416E+00  0.18863711488E-01 0.  0.
         14    1    1    2    0    0 -0.12887462862E-01  0.57544211831E-02 -0.19663332328E-01  0.24204270293E-01  0.00000000000E+00 0. -1.
     999901    1    3    3    0    0  0.13852043637E+00 -0.11455194095E-01 -0.86997088566E-03  0.89090958554E+00  0.88000000000E+00 0.  1.
        -11    1    4    4    0    0 -0.62269926534E-01  0.86205358393E-02  0.17746075792E-01  0.65322597282E-01  0.51100000000E-03 0.  1.
         11    1    4    4    0    0 -0.63363046977E-01 -0.29197629271E-02  0.27872274220E-02  0.63493546881E-01  0.51100000000E-03 0. -1.
</event>
<event>
 8    1  0.1114447E+005  0.1043930E+01  0.7957747E-01            NaN
         13   -1    0    0    0    0  0.00000000000E+00  0.00000000000E+00  0.74505805969E-08  0.10566000000E+00  0.10566000000E+00 0. -1.
     999900   -1    0    0    0    0 -0.00000000000E+00 -0.00000000000E+00 -0.74505805969E-08  0.93827000000E+00  0.93827000000E+00 0. -1.
     999902    2    1    2    0    0  0.16569761621E-01 -0.15187046261E-01 -0.77373347043E-02  0.10201588048E+01  0.10198818153E+01 0.  0.
     999903    2    3    3    0    0 -0.92203796893E-01 -0.66474189151E-01  0.60060315941E-01  0.12939588486E+00  0.14686574908E-01 0.  0.
         14    1    1    2    0    0 -0.16569761621E-01  0.15187046261E-01  0.77373347043E-02  0.23771195229E-01  0.00000000000E+00 0. -1.
     999901    1    3    3    0    0  0.10877355851E+00  0.51287142891E-01 -0.67797650645E-01  0.89076291991E+00  0.88000000000E+00 0. -1.
        -11    1    4    4    0    0 -0.23911100214E-01 -0.12912091648E-01  0.86663619343E-02  0.28527701876E-01  0.51100000000E-03 0.  1.
         11    1    4    4    0    0 -0.68292696679E-01 -0.53562097504E-01  0.51393954007E-01  0.10086818298E+00  0.51100000000E-03 0. -1.
</event>
<event>
 8    1  0.1114447E+005  0.1043930E+01  0.7957747E-01            NaN
         13   -1    0    0    0    0  0.00000000000E+00  0.00000000000E+00  0.74505805969E-08  0.10566000000E+00  0.10566000000E+00 0. -1.
     999900   -1    0    0    0    0 -0.00000000000E+00 -0.00000000000E+00 -0.74505805969E-08  0.93827000000E+00  0.93827000000E+00 0. -1.
     999902    2    1    2    0    0  0.20564444939E-01 -0.61152074994E-02  0.13402221708E-01  0.10186335239E+01  0.10183193724E+01 0.  0.
     999903    2    3    3    0    0  0.11239772199E+00 -0.34595772151E-01 -0.53928297465E-01  0.13083968960E+00  0.19510196001E-01 0.  0.
         14    1    1    2    0    0 -0.20564444939E-01  0.61152074994E-02 -0.13402221708E-01  0.25296476140E-01  0.00000000000E+00 0. -1.
     999901    1    3    3    0    0 -0.91833277051E-01  0.28480564652E-01  0.67330519172E-01  0.88779383426E+00  0.88000000000E+00 0.  1.
        -11    1    4    4    0    0  0.47209409408E-01 -0.23005786473E-01 -0.29688383088E-01  0.60329559582E-01  0.51100000000E-03 0. -1.
         11    1    4    4    0    0  0.65188312582E-01 -0.11589985678E-01 -0.24239914377E-01  0.70510130019E-01  0.51100000000E-03 0.  1.
</event>
<event>
 8    1  0.1114447E+005  0.1043930E+01  0.7957747E-01            NaN
         13   -1    0    0    0    0  0.00000000000E+00  0.00000000000E+00  0.74505805969E-08  0.10566000000E+00  0.10566000000E+00 0.  1.
     999900   -1    0    0    0    0 -0.00000000000E+00 -0.00000000000E+00 -0.74505805969E-08  0.93827000000E+00  0.93827000000E+00 0. -1.
     999902    2    1    2    0    0 -0.72988936795E-02 -0.19208899776E-01 -0.11219379140E-01  0.10205178205E+01  0.10202492303E+01 0.  0.
     999903    2    3    3    0    0  0.25787454256E-01  0.11983075027E+00  0.30786777097E-01  0.12799821409E+00  0.20280918568E-01 0.  0.
         14    1    1    2    0    0  0.72988936795E-02  0.19208899776E-01  0.11219379140E-01  0.23412179476E-01  0.00000000000E+00 0.  1.
     999901    1    3    3    0    0 -0.33086347936E-01 -0.13903965005E+00 -0.42006156237E-01  0.89251960643E+00  0.88000000000E+00 0.  1.
        -11    1    4    4    0    0  0.66375660000E-02  0.76709475850E-01  0.17191169048E-01  0.78893588978E-01  0.51100000000E-03 0. -1.
         11    1    4    4    0    0  0.19149888256E-01  0.43121274425E-01  0.13595608049E-01  0.49104625113E-01  0.51100000000E-03 0.  1.
</event>
<event>
 8    1  0.1114447E+005  0.1043930E+01  0.7957747E-01            NaN
         13   -1    0    0    0    0  0.00000000000E+00  0.00000000000E+00  0.74505805969E-08  0.10566000000E+00  0.10566000000E+00 0.  1.
     999900   -1    0    0    0    0 -0.00000000000E+00 -0.00000000000E+00 -0.74505805969E-08  0.93827000000E+00  0.93827000000E+00 0. -1.
     999902    2    1    2    0    0  0.89005658287E-02  0.13123481644E-01  0.18106377059E-01  0.10198616238E+01  0.10195775816E+01 0.  0.
     999903    2    3    3    0    0  0.97521460227E-01 -0.83448911512E-01 -0.23596834177E-02  0.12991850783E+00  0.19977350485E-01 0.  0.
         14    1    1    2    0    0 -0.89005658287E-02 -0.13123481644E-01 -0.18106377059E-01  0.24068376197E-01  0.00000000000E+00 0. -1.
     999901    1    3    3    0    0 -0.88620894399E-01  0.96572393156E-01  0.20466060477E-01  0.88994311598E+00  0.88000000000E+00 0.  1.
        -11    1    4    4    0    0  0.40042310697E-01 -0.33587806562E-01 -0.10759990479E-01  0.53362589065E-01  0.51100000000E-03 0.  1.
         11    1    4    4    0    0  0.57479149530E-01 -0.49861104950E-01  0.84003070615E-02  0.76555918760E-01  0.51100000000E-03 0. -1.
</event>
<event>
 8    1  0.1114447E+005  0.1043930E+01  0.7957747E-01            NaN
         13   -1    0    0    0    0  0.00000000000E+00  0.00000000000E+00  0.74505805969E-08  0.10566000000E+00  0.10566000000E+00 0.  1.
     999900   -1    0    0    0    0 -0.00000000000E+00 -0.00000000000E+00 -0.74505805969E-08  0.93827000000E+00  0.93827000000E+00 0.  1.
     999902    2    1    2    0    0  0.54921031107E-02  0.12316671451E-02  0.23076466382E-01  0.10201770317E+01  0.10199004719E+01 0.  0.
     999903    2    3    3    0    0  0.82248803090E-01  0.77087850333E-01 -0.60547535737E-01  0.12964981416E+00  0.20872660325E-01 0.  0.
         14    1    1    2    0    0 -0.54921031107E-02 -0.12316671451E-02 -0.23076466382E-01  0.23752968261E-01  0.00000000000E+00 0. -1.
     999901    1    3    3    0    0 -0.76756699979E-01 -0.75856183188E-01  0.83624002119E-01  0.89052721758E+00  0.88000000000E+00 0.  1.
        -11    1    4    4    0    0  0.70611071646E-02  0.11904644201E-01 -0.14332432637E-01  0.19931370606E-01  0.51100000000E-03 0.  1.
         11    1    4    4    0    0  0.75187695925E-01  0.65183206133E-01 -0.46215103100E-01  0.10971844355E+00  0.51100000000E-03 0. -1.
</event>
<event>
 8    1  0.1114447E+005  0.1043930E+01  0.7957747E-01            NaN
         13   -1    0    0    0    0  0.00000000000E+00  0.00000000000E+00  0.74505805969E-08  0.10566000000E+00  0.10566000000E+00 0. -1.
     999900   -1    0    0    0    0 -0.00000000000E+00 -0.00000000000E+00 -0.74505805969E-08  0.93827000000E+00  0.93827000000E+00 0.  1.
     999902    2    1    2    0    0  0.13546555046E-01  0.10807380017E-01  0.17610719928E-01  0.10192227931E+01  0.10189232826E+01 0.  0.
     999903    2    3    3    0    0  0.12755865537E+00 -0.40118176011E-02  0.25847000448E-01  0.13170591779E+00  0.19775644363E-01 0.  0.
         14    1    1    2    0    0 -0.13546555046E-01 -0.10807380017E-01 -0.17610719928E-01  0.24707206901E-01  0.00000000000E+00 0.  1.
     999901    1    3    3    0    0 -0.11401210032E+00  0.14819197618E-01 -0.82362805200E-02  0.88751687531E+00  0.88000000000E+00 0. -1.
        -11    1    4    4    0    0  0.98699838103E-01 -0.99301283271E-02  0.15094004130E-01  0.10034119579E+00  0.51100000000E-03 0. -1.
         11    1    4    4    0    0  0.28858817264E-01  0.59183107259E-02  0.10752996318E-01  0.31364722006E-01  0.51100000000E-03 0.  1.
</event>
<event>
 8    1  0.1114447E+005  0.1043930E+01  0.7957747E-01            NaN
         13   -1    0    0    0    0  0.00000000000E+00  0.00000000000E+00  0.74505805969E-08  0.10566000000E+00  0.10566000000E+00 0.  1.
     999900   -1    0    0    0    0 -0.00000000000E+00 -0.00000000000E+00 -0.74505805969E-08  0.93827000000E+00  0.93827000000E+00 0.  1.
     999902    2    1    2    0    0 -0.15908466758E-01 -0.16769743137E-01 -0.43785396630E-03  0.10208108453E+01  0.10205490123E+01 0.  0.
     999903    2    3    3    0    0 -0.17507038257E-01 -0.82211065285E-01 -0.10043655871E+00  0.13273153404E+00  0.21563908714E-01 0.  0.
         14    1    1    2    0    0  0.15908466758E-01  0.16769743137E-01  0.43785396630E-03  0.23119154733E-01  0.00000000000E+00 0.  1.
     999901    1    3    3    0    0  0.15985714994E-02  0.65441322148E-01  0.99998704748E-01  0.88807931123E+00  0.88000000000E+00 0. -1.
        -11    1    4    4    0    0 -0.10426042967E-01 -0.15473684625E-01 -0.30825605789E-01  0.36036320305E-01  0.51100000000E-03 0.  1.
         11    1    4    4    0    0 -0.70809952901E-02 -0.66737380659E-01 -0.69610952925E-01  0.96695213737E-01  0.51100000000E-03 0. -1.
</event>
<event>
 8    1  0.1114447E+005  0.1043930E+01  0.7957747E-01            NaN
         13   -1    0    0    0    0  0.00000000000E+00  0.00000000000E+00  0.74505805969E-08  0.10566000000E+00  0.10566000000E+00 0. -1.
     999900   -1    0    0    0    0 -0.00000000000E+00 -0.00000000000E+00 -0.74505805969E-08  0.93827000000E+00  0.93827000000E+00 0. -1.
     999902    2    1    2    0    0  0.11376704951E-01  0.90561144207E-03 -0.20471874025E-01  0.10204918436E+01  0.10202226501E+01 0.  0.
     999903    2    3    3    0    0  0.44771549661E-01 -0.30765553996E-01  0.11519959702E+00  0.12890616271E+00  0.19870597897E-01 0.  0.
         14    1    1    2    0    0 -0.11376704951E-01 -0.90561144207E-03  0.20471874025E-01  0.23438156364E-01  0.00000000000E+00 0. -1.
     999901    1    3    3    0    0 -0.33394844710E-01  0.31671165438E-01 -0.13567147104E+00  0.89158568092E+00  0.88000000000E+00 0. -1.
        -11    1    4    4    0    0  0.22278838329E-01 -0.23705454614E-01  0.81697151480E-01  0.87937369170E-01  0.51100000000E-03 0. -1.
         11    1    4    4    0    0  0.22492711332E-01 -0.70600993824E-02  0.33502445537E-01  0.40968793542E-01  0.51100000000E-03 0.  1.
</event>
<event>
 8    1  0.1114447E+005  0.1043930E+01  0.7957747E-01            NaN
         13   -1    0    0    0    0  0.00000000000E+00  0.00000000000E+00  0.74505805969E-08  0.10566000000E+00  0.10566000000E+00 0. -1.
     999900   -1    0    0    0    0 -0.00000000000E+00 -0.00000000000E+00 -0.74505805969E-08  0.93827000000E+00  0.93827000000E+00 0.  1.
     999902    2    1    2    0    0 -0.21558446683E-01 -0.81571082830E-02 -0.73901324661E-02  0.10197242342E+01  0.10194369008E+01 0.  0.
     999903    2    3    3    0    0 -0.10581582493E+00 -0.33819307553E-01  0.68638883269E-01  0.13206536647E+00  0.19728921836E-01 0.  0.
         14    1    1    2    0    0  0.21558446683E-01  0.81571082830E-02  0.73901324661E-02  0.24205765776E-01  0.00000000000E+00 0. -1.
     999901    1    3    3    0    0  0.84257378246E-01  0.25662199270E-01 -0.76029015735E-01  0.88765886775E+00  0.88000000000E+00 0.  1.
        -11    1    4    4    0    0 -0.80230113592E-01 -0.24677908420E-01  0.41423032063E-01  0.93605550035E-01  0.51100000000E-03 0.  1.
         11    1    4    4    0    0 -0.25585711337E-01 -0.91413991336E-02  0.27215851206E-01  0.38459816440E-01  0.51100000000E-03 0. -1.
</event>
<event>
 8    1  0.1114447E+005  0.1043930E+01  0.7957747E-01            NaN
         13   -1    0    0    0    0  0.00000000000E+00  0.00000000000E+00  0.74505805969E-08  0.10566000000E+00  0.10566000000E+00 0.  1.
     999900   -1    0    0    0    0 -0.00000000000E+00 -0.00000000000E+00 -0.74505805969E-08  0.93827000000E+00  0.93827000000E+00 0. -1.
     999902    2    1    2    0    0 -0.10098207702E-01  0.20582251204E-01  0.63079025722E-02  0.10201520165E+01  0.10198748670E+01 0.  0.
     999903    2    3    3    0    0  0.11399080055E+00 -0.22252562384E-01  0.52987576499E-01  0.12919079672E+00  0.19836823131E-01 0.  0.
         14    1    1    2    0    0  0.10098207702E-01 -0.20582251204E-01 -0.63079025722E-02  0.23777983478E-01  0.00000000000E+00 0.  1.
     999901    1    3    3    0    0 -0.12408900825E+00  0.42834813589E-01 -0.46679673927E-01  0.89096121980E+00  0.88000000000E+00 0. -1.
        -11    1    4    4    0    0  0.38473099341E-01  0.71777977231E-03  0.12399267716E-01  0.40431393021E-01  0.51100000000E-03 0.  1.
         11    1    4    4    0    0  0.75517701211E-01 -0.22970342157E-01  0.40588308783E-01  0.88759403703E-01  0.51100000000E-03 0. -1.
</event>
<event>
 8    1  0.1114447E+005  0.1043930E+01  0.7957747E-01            NaN
         13   -1    0    0    0    0  0.00000000000E+00  0.00000000000E+00  0.74505805969E-08  0.10566000000E+00  0.10566000000E+00 0. -1.
     999900   -1    0    0    0    0 -0.00000000000E+00 -0.00000000000E+00 -0.74505805969E-08  0.93827000000E+00  0.93827000000E+00 0.  1.
     999902    2    1    2    0    0  0.84495330436E-02 -0.23760270118E-01 -0.98905651741E-02  0.10168418416E+01  0.10164809701E+01 0.  0.
     999903    2    3    3    0    0  0.45601695735E-01  0.11126911118E+00 -0.30159902699E-01  0.12553714454E+00  0.19738925276E-01 0.  0.
         14    1    1    2    0    0 -0.84495330436E-02  0.23760270118E-01  0.98905651741E-02  0.27088158376E-01  0.00000000000E+00 0. -1.
     999901    1    3    3    0    0 -0.37152162691E-01 -0.13502938130E+00  0.20269337525E-01  0.89130469709E+00  0.88000000000E+00 0.  1.
        -11    1    4    4    0    0  0.21406699689E-01  0.75489885427E-01 -0.22855560343E-01  0.81728864870E-01  0.51100000000E-03 0.  1.
         11    1    4    4    0    0  0.24194996046E-01  0.35779225752E-01 -0.73043423567E-02  0.43808279667E-01  0.51100000000E-03 0. -1.
</event>
<event>
 8    1  0.1114447E+005  0.1043930E+01  0.7957747E-01            NaN
         13   -1    0    0    0    0  0.00000000000E+00  0.00000000000E+00  0.74505805969E-08  0.10566000000E+00  0.10566000000E+00 0. -1.
     999900   -1    0    0    0    0 -0.00000000000E+00 -0.00000000000E+00 -0.74505805969E-08  0.93827000000E+00  0.93827000000E+00 0. -1.
     999902    2    1    2    0    0 -0.12450755375E-01 -0.26722981906E-01  0.11097465796E-01  0.10124293203E+01  0.10119391463E+01 0.  0.
     999903    2    3    3    0    0 -0.72063570473E-01 -0.93298035413E-01  0.41776237406E-01  0.12737163155E+00  0.24095578663E-01 0.  0.
         14    1    1    2    0    0  0.12450755375E-01  0.26722981906E-01 -0.11097465796E-01  0.31500679650E-01  0.00000000000E+00 0.  1.
     999901    1    3    3    0    0  0.59612815098E-01  0.66575053507E-01 -0.30678771610E-01  0.88505768880E+00  0.88000000000E+00 0. -1.
        -11    1    4    4    0    0 -0.37381483440E-01 -0.60887299075E-01  0.15491124236E-01  0.73108648899E-01  0.51100000000E-03 0. -1.
         11    1    4    4    0    0 -0.34682087033E-01 -0.32410736338E-01  0.26285113170E-01  0.54262982653E-01  0.51100000000E-03 0.  1.
</event>
<event>
 8    1  0.1114447E+005  0.1043930E+01  0.7957747E-01            NaN
         13   -1    0    0    0    0  0.00000000000E+00  0.00000000000E+00  0.74505805969E-08  0.10566000000E+00  0.10566000000E+00 0.  1.
     999900   -1    0    0    0    0 -0.00000000000E+00 -0.00000000000E+00 -0.74505805969E-08  0.93827000000E+00  0.93827000000E+00 0. -1.
     999902    2    1    2    0    0 -0.10678931978E-01 -0.17888233590E-01 -0.10309283939E-01  0.10206854345E+01  0.10204207203E+01 0.  0.
     999903    2    3    3    0    0  0.10076036221E+00 -0.74026532629E-01  0.32925727790E-01  0.13083179984E+00  0.20006953101E-01 0.  0.
         14    1    1    2    0    0  0.10678931978E-01  0.17888233590E-01  0.10309283939E-01  0.23244565483E-01  0.00000000000E+00 0.  1.
     999901    1    3    3    0    0 -0.11143929419E+00  0.56138299040E-01 -0.43235011729E-01  0.88985363468E+00  0.88000000000E+00 0. -1.
        -11    1    4    4    0    0  0.56300313032E-01 -0.49760054784E-01  0.12303194852E-01  0.76140777669E-01  0.51100000000E-03 0. -1.
         11    1    4    4    0    0  0.44460049181E-01 -0.24266477846E-01  0.20622532939E-01  0.54691022171E-01  0.51100000000E-03 0.  1.
</event>
<event>
 8    1  0.1114447E+005  0.1043930E+01  0.7957747E-01            NaN
         13   -1    0    0    0    0  0.00000000000E+00  0.00000000000E+00  0.74505805969E-08  0.10566000000E+00  0.10566000000E+00 0.  1.
     999900   -1    0    0    0    0 -0.00000000000E+00 -0.00000000000E+00 -0.74505805969E-08  0.93827000000E+00  0.93827000000E+00 0.  1.
     999902    2    1    2    0    0  0.11978976330E-01 -0.18457245784E-01  0.75627480746E-02  0.10206628353E+01  0.10203976001E+01 0.  0.
     999903    2    3    3    0    0  0.10206288789E+00  0.39499629363E-01 -0.69586702852E-01  0.13081669786E+00  0.17136085345E-01 0.  0.
         14    1    1    2    0    0 -0.11978976330E-01  0.18457245784E-01 -0.75627480746E-02  0.23267164723E-01  0.00000000000E+00 0. -1.
     999901    1    3    3    0    0 -0.90083911559E-01 -0.57956875147E-01  0.77149450926E-01  0.88984613742E+00  0.88000000000E+00 0. -1.
        -11    1    4    4    0    0  0.89756485053E-01  0.28284421434E-01 -0.58623780640E-01  0.11087490195E+00  0.51100000000E-03 0.  1.
         11    1    4    4    0    0  0.12306402835E-01  0.11215207929E-01 -0.10962922212E-01  0.19941795909E-01  0.51100000000E-03 0. -1.
</event>
<event>
 8    1  0.1114447E+005  0.1043930E+01  0.7957747E-01            NaN
         13   -1    0    0    0    0  0.00000000000E+00  0.00000000000E+00  0.74505805969E-08  0.10566000000E+00  0.10566000000E+00 0. -1.
     999900   -1    0    0    0    0 -0.00000000000E+00 -0.00000000000E+00 -0.74505805969E-08  0.93827000000E+00  0.93827000000E+00 0.  1.
     999902    2    1    2    0    0 -0.12331566359E-01 -0.13288926182E-01  0.16884188084E-01  0.10191562458E+01  0.10188550999E+01 0.  0.
     999903    2    3    3    0    0  0.11098378633E+00 -0.36767483019E-01  0.52034940999E-01  0.12955324772E+00  0.20178212816E-01 0.  0.
         14    1    1    2    0    0  0.12331566359E-01  0.13288926182E-01 -0.16884188084E-01  0.24773754160E-01  0.00000000000E+00 0.  1.
     999901    1    3    3    0    0 -0.12331535269E+00  0.23478556837E-01 -0.35150752914E-01  0.88960299812E+00  0.88000000000E+00 0.  1.
        -11    1    4    4    0    0  0.85088095718E-01 -0.19337449016E-01  0.41302300688E-01  0.96540468874E-01  0.51100000000E-03 0. -1.
         11    1    4    4    0    0  0.25895690616E-01 -0.17430034002E-01  0.10732640310E-01  0.33012778842E-01  0.51100000000E-03 0.  1.
</event>
<event>
 8    1  0.1114447E+005  0.1043930E+01  0.7957747E-01            NaN
         13   -1    0    0    0    0  0.00000000000E+00  0.00000000000E+00  0.74505805969E-08  0.10566000000E+00  0.10566000000E+00 0. -1.
     999900   -1    0    0    0    0 -0.00000000000E+00 -0.00000000000E+00 -0.74505805969E-08  0.93827000000E+00  0.93827000000E+00 0. -1.
     999902    2    1    2    0    0 -0.18244877387E-01  0.45500687763E-02 -0.12997595429E-01  0.10210713875E+01  0.10208154889E+01 0.  0.
     999903    2    3    3    0    0  0.45123445908E-01 -0.46519214488E-01 -0.11252068362E+00  0.13172979896E+00  0.22173700767E-01 0.  0.
         14    1    1    2    0    0  0.18244877387E-01 -0.45500687763E-02  0.12997595429E-01  0.22858612462E-01  0.00000000000E+00 0. -1.
     999901    1    3    3    0    0 -0.63368323295E-01  0.51069283265E-01  0.99523088187E-01  0.88934158858E+00  0.88000000000E+00 0.  1.
        -11    1    4    4    0    0  0.22836632612E-01 -0.30125825225E-01 -0.83343756947E-01  0.91517867532E-01  0.51100000000E-03 0.  1.
         11    1    4    4    0    0  0.22286813296E-01 -0.16393389263E-01 -0.29176926669E-01  0.40211931430E-01  0.51100000000E-03 0. -1.
</event>
<event>
 8    1  0.1114447E+005  0.1043930E+01  0.7957747E-01            NaN
         13   -1    0    0    0    0  0.00000000000E+00  0.00000000000E+00  0.74505805969E-08  0.10566000000E+00  0.10566000000E+00 0.  1.
     999900   -1    0    0    0    0 -0.00000000000E+00 -0.00000000000E+00 -0.74505805969E-08  0.93827000000E+00  0.93827000000E+00 0.  1.
     999902    2    1    2    0    0  0.19909908263E-01  0.23676457548E-01  0.87954769288E-02  0.10117688510E+01  0.10112575678E+01 0.  0.
     999903    2    3    3    0    0  0.42272802235E-01  0.50983429403E-01 -0.10246843682E+00  0.12406088765E+00  0.22472726077E-01 0.  0.
         14    1    1    2    0    0 -0.19909908263E-01 -0.23676457548E-01 -0.87954769288E-02  0.32161148977E-01  0.00000000000E+00 0.  1.
     999901    1    3    3    0    0 -0.22362893971E-01 -0.27306971855E-01  0.11126391375E+00  0.88770796338E+00  0.88000000000E+00 0. -1.
        -11    1    4    4    0    0  0.29269302037E-01  0.28127626159E-01 -0.43544032155E-01  0.59533177744E-01  0.51100000000E-03 0. -1.
         11    1    4    4    0    0  0.13003500198E-01  0.22855803244E-01 -0.58924404664E-01  0.64527709903E-01  0.51100000000E-03 0.  1.
</event>
<event>
 8    1  0.1114447E+005  0.1043930E+01  0.7957747E-01            NaN
         13   -1    0    0    0    0  0.00000000000E+00  0.00000000000E+00  0.74505805969E-08  0.10566000000E+00  0.10566000000E+00 0. -1.
     999900   -1    0    0    0    0 -0.00000000000E+00 -0.00000000000E+00 -0.74505805969E-08  0.93827000000E+00  0.93827000000E+00 0. -1.
     999902    2    1    2    0    0 -0.13152715347E-01  0.14751092461E-01 -0.13628904333E-01  0.10199230076E+01  0.10196404297E+01 0.  0.
     999903    2    3    3    0    0  0.10409167311E+00  0.63428946570E-01  0.37929892305E-01  0.12931979091E+00  0.20654876352E-01 0.  0.
         14    1    1    2    0    0  0.13152715347E-01 -0.14751092461E-01  0.13628904333E-01  0.24006992379E-01  0.00000000000E+00 0. -1.
     999901    1    3    3    0    0 -0.11724438846E+00 -0.48677854109E-01 -0.51558796638E-01  0.89060321671E+00  0.88000000000E+00 0.  1.
        -11    1    4    4    0    0  0.30159047649E-01  0.80528244852E-02  0.11002418697E-01  0.33101819821E-01  0.51100000000E-03 0.  1.
         11    1    4    4    0    0  0.73932625460E-01  0.55376122085E-01  0.26927473608E-01  0.96217971089E-01  0.51100000000E-03 0. -1.
</event>
<event>
 8    1  0.1114447E+005  0.1043930E+01  0.7957747E-01            NaN
         13   -1    0    0    0    0  0.00000000000E+00  0.00000000000E+00  0.74505805969E-08  0.10566000000E+00  0.10566000000E+00 0.  1.
     999900   -1    0    0    0    0 -0.00000000000E+00 -0.00000000000E+00 -0.74505805969E-08  0.93827000000E+00  0.93827000000E+00 0.  1.
     999902    2    1    2    0    0 -0.22344837874E-01  0.56218958294E-02  0.17959444382E-02  0.10208189007E+01  0.10205572523E+01 0.  0.
     999903    2    3    3    0    0  0.10169316923E+00  0.72347311635E-01  0.25891054640E-01  0.12929308359E+00  0.21696096076E-01 0.  0.
         14    1    1    2    0    0  0.22344837874E-01 -0.56218958294E-02 -0.17959444382E-02  0.23111099255E-01  0.00000000000E+00 0.  1.
     999901    1    3    3    0    0 -0.12403800710E+00 -0.66725415805E-01 -0.24095110202E-01  0.89152581716E+00  0.88000000000E+00 0. -1.
        -11    1    4    4    0    0  0.52711773082E-01  0.31321062074E-01  0.28943132704E-02  0.61385487871E-01  0.51100000000E-03 0. -1.
         11    1    4    4    0    0  0.48981396147E-01  0.41026249561E-01  0.22996741370E-01  0.67907595718E-01  0.51100000000E-03 0.  1.
</event>
<event>
 8    1  0.1114447E+005  0.1043930E+01  0.7957747E-01            NaN
         13   -1    0    0    0    0  0.00000000000E+00  0.00000000000E+00  0.74505805969E-08  0.10566000000E+00  0.10566000000E+00 0. -1.
     999900   -1    0    0    0    0 -0.00000000000E+00 -0.00000000000E+00 -0.74505805969E-08  0.93827000000E+00  0.93827000000E+00 0. -1.
     999902    2    1    2    0    0 -0.38475182092E-02 -0.16357678068E-01  0.14969971382E-01  0.10214249545E+01  0.10211769977E+01 0.  0.
     999903    2    3    3    0    0  0.75396147317E-01  0.28556494145E-01  0.10305780738E+00  0.13234885642E+00  0.19881039821E-01 0.  0.
         14    1    1    2    0    0  0.38475182092E-02  0.16357678068E-01 -0.14969971382E-01  0.22505045464E-01  0.00000000000E+00 0.  1.
     999901    1    3    3    0    0 -0.79243665527E-01 -0.44914172213E-01 -0.88087836003E-01  0.88907609812E+00  0.88000000000E+00 0. -1.
        -11    1    4    4    0    0  0.32271439007E-01  0.29069439867E-02  0.33816317851E-01  0.46836957340E-01  0.51100000000E-03 0. -1.
         11    1    4    4    0    0  0.43124708310E-01  0.25649550158E-01  0.69241489534E-01  0.85511899079E-01  0.51100000000E-03 0.  1.
</event>
<event>
 8    1  0.1114447E+005  0.1043930E+01  0.7957747E-01            NaN
         13   -1    0    0    0    0  0.00000000000E+00  0.00000000000E+00  0.74505805969E-08  0.10566000000E+00  0.10566000000E+00 0. -1.
     999900   -1    0    0    0    0 -0.00000000000E+00 -0.00000000000E+00 -0.74505805969E-08  0.93827000000E+00  0.93827000000E+00 0.  1.
     999902    2    1    2    0    0  0.10779162779E-01 -0.15331839740E-01  0.21900788893E-01  0.10151046602E+01  0.10146953094E+01 0.  0.
     999903    2    3    3    0    0  0.11610183219E+00 -0.42259716794E-02  0.50042844829E-01  0.12830807682E+00  0.21475148030E-01 0.  0.
         14    1    1    2    0    0 -0.10779162779E-01  0.15331839740E-01 -0.21900788893E-01  0.28825339793E-01  0.00000000000E+00 0. -1.
     999901    1    3    3    0    0 -0.10532266941E+00 -0.11105868061E-01 -0.28142055935E-01  0.88679658339E+00  0.88000000000E+00 0.  1.
        -11    1    4    4    0    0  0.48127791608E-01 -0.95931007532E-02  0.13282581400E-01  0.50842895244E-01  0.51100000000E-03 0. -1.
         11    1    4    4    0    0  0.67974040585E-01  0.53671290738E-02  0.36760263428E-01  0.77465181574E-01  0.51100000000E-03 0.  1.
</event>
<event>
 8    1  0.1114447E+005  0.1043930E+01  0.7957747E-01            NaN
         13   -1    0    0    0    0  0.00000000000E+00  0.00000000000E+00  0.74505805969E-08  0.10566000000E+00  0.10566000000E+00 0.  1.
     999900   -1    0    0    0    0 -0.00000000000E+00 -0.00000000000E+00 -0.74505805969E-08  0.93827000000E+00  0.93827000000E+00 0.  1.
     999902    2    1    2    0    0 -0.24924802444E-02 -0.39375266671E-02  0.23481586563E-01  0.10199904620E+01  0.10197094885E+01 0.  0.
     999903    2    3    3    0    0 -0.12755373291E+00 -0.18711869823E-01  0.11967142116E-01  0.13095099120E+00  0.19617868250E-01 0.  0.
         14    1    1    2    0    0  0.24924802444E-02  0.39375266671E-02 -0.23481586563E-01  0.23939538039E-01  0.00000000000E+00 0. -1.
     999901    1    3    3    0    0  0.12506125267E+00  0.14774343156E-01  0.11514444447E-01  0.88903947076E+00  0.88000000000E+00 0. -1.
        -11    1    4    4    0    0 -0.48344471461E-01 -0.13812810610E-01  0.11533948942E-01  0.51587544592E-01  0.51100000000E-03 0. -1.
         11    1    4    4    0    0 -0.79209261450E-01 -0.48990592129E-02  0.43319317381E-03  0.79363446611E-01  0.51100000000E-03 0.  1.
</event>
<event>
 7    1  0.1114447E+005  0.1043930E+01  0.7957747E-01            NaN
         13   -1    0    0    0    0  0.00000000000E+00  0.00000000000E+00  0.74505805969E-08  0.10566000000E+00  0.10566000000E+00 0. -1.
     999900   -1    0    0    0    0 -0.00000000000E+00 -0.00000000000E+00 -0.74505805969E-08  0.93827000000E+00  0.93827000000E+00 0.  1.
     999903    2    1    2    0    0  0.13494972491E-02 -0.35353965487E-01  0.66808864089E-01  0.78603849202E-01  0.21527117086E-01 0.  0.
         14    1    1    2    0    0 -0.51365179129E-01  0.54803022742E-01 -0.35646086517E-01  0.83140822781E-01  0.00000000000E+00 0.  1.
     999901    1    1    2    0    0  0.50015681880E-01 -0.19449057255E-01 -0.31162777572E-01  0.88218532802E+00  0.88000000000E+00 0.  1.
        -11    1    3    3    0    0  0.16604080360E-02 -0.34427198095E-01  0.44604384168E-01  0.56371988891E-01  0.51100000000E-03 0. -1.
         11    1    3    3    0    0 -0.31091078694E-03 -0.92676739146E-03  0.22204479921E-01  0.22231860311E-01  0.51100000000E-03 0.  1.
</event>
<event>
 8    1  0.1114447E+005  0.1043930E+01  0.7957747E-01            NaN
         13   -1    0    0    0    0  0.00000000000E+00  0.00000000000E+00  0.74505805969E-08  0.10566000000E+00  0.10566000000E+00 0.  1.
     999900   -1    0    0    0    0 -0.00000000000E+00 -0.00000000000E+00 -0.74505805969E-08  0.93827000000E+00  0.93827000000E+00 0.  1.
     999902    2    1    2    0    0 -0.16874610056E-01 -0.16537403086E-01  0.13412519390E-02  0.10202648965E+01  0.10199904029E+01 0.  0.
     999903    2    3    3    0    0 -0.42315099130E-01  0.10139776338E+00 -0.65575329332E-01  0.12951591347E+00  0.20054276142E-01 0.  0.
         14    1    1    2    0    0  0.16874610056E-01  0.16537403086E-01 -0.13412519390E-02  0.23665103468E-01  0.00000000000E+00 0. -1.
     999901    1    3    3    0    0  0.25440489074E-01 -0.11793516647E+00  0.66916581271E-01  0.89074898306E+00  0.88000000000E+00 0. -1.
        -11    1    4    4    0    0 -0.18571508306E-01  0.67717675331E-01 -0.45523383253E-01  0.83685267621E-01  0.51100000000E-03 0. -1.
         11    1    4    4    0    0 -0.23743590824E-01  0.33680088054E-01 -0.20051946079E-01  0.45830645851E-01  0.51100000000E-03 0.  1.
</event>
<event>
 8    1  0.1114447E+005  0.1043930E+01  0.7957747E-01            NaN
         13   -1    0    0    0    0  0.00000000000E+00  0.00000000000E+00  0.74505805969E-08  0.10566000000E+00  0.10566000000E+00 0.  1.
     999900   -1    0    0    0    0 -0.00000000000E+00 -0.00000000000E+00 -0.74505805969E-08  0.93827000000E+00  0.93827000000E+00 0. -1.
     999902    2    1    2    0    0  0.24447699668E-01 -0.86155627814E-02  0.20363473648E-01  0.10109665505E+01  0.10104290066E+01 0.  0.
     999903    2    3    3    0    0 -0.10628687710E+00 -0.24914781331E-01  0.47209898959E-01  0.12075425865E+00  0.20860725058E-01 0.  0.
         14    1    1    2    0    0 -0.24447699668E-01  0.86155627814E-02 -0.20363473648E-01  0.32963449457E-01  0.00000000000E+00 0.  1.
     999901    1    3    3    0    0  0.13073457677E+00  0.16299218549E-01 -0.26846425311E-01  0.89021229189E+00  0.88000000000E+00 0.  1.
        -11    1    4    4    0    0 -0.72404236077E-01 -0.25148748663E-01  0.26821949529E-01  0.81206594922E-01  0.51100000000E-03 0. -1.
         11    1    4    4    0    0 -0.33882641021E-01  0.23396733208E-03  0.20387949431E-01  0.39547663727E-01  0.51100000000E-03 0.  1.
</event>
<event>
 8    1  0.1114447E+005  0.1043930E+01  0.7957747E-01            NaN
         13   -1    0    0    0    0  0.00000000000E+00  0.00000000000E+00  0.74505805969E-08  0.10566000000E+00  0.10566000000E+00 0. -1.
     999900   -1    0    0    0    0 -0.00000000000E+00 -0.00000000000E+00 -0.74505805969E-08  0.93827000000E+00  0.93827000000E+00 0.  1.
     999902    2    1    2    0    0 -0.22640847139E-01 -0.55705069209E-02 -0.36024958682E-02  0.10203372790E+01  0.10200644815E+01 0.  0.
     999903    2    3    3    0    0  0.64166725835E-01 -0.98737599114E-01  0.50324925230E-01  0.12953773449E+00  0.19517796360E-01 0.  0.
         14    1    1    2    0    0  0.22640847139E-01  0.55705069209E-02  0.36024958682E-02  0.23592720975E-01  0.00000000000E+00 0. -1.
     999901    1    3    3    0    0 -0.86807572974E-01  0.93167092193E-01 -0.53927421098E-01  0.89079954453E+00  0.88000000000E+00 0. -1.
        -11    1    4    4    0    0  0.18875285287E-01 -0.14996463236E-01  0.87710018862E-02  0.25658563859E-01  0.51100000000E-03 0. -1.
         11    1    4    4    0    0  0.45291440549E-01 -0.83741135877E-01  0.41553923344E-01  0.10387917063E+00  0.51100000000E-03 0.  1.
</event>
<event>
 8    1  0.1114447E+005  0.1043930E+01  0.7957747E-01            NaN
         13   -1    0    0    0    0  0.00000000000E+00  0.00000000000E+00  0.74505805969E-08  0.10566000000E+00  0.10566000000E+00 0. -1.
     999900   -1    0    0    0    0 -0.00000000000E+00 -0.00000000000E+00 -0.74505805969E-08  0.93827000000E+00  0.93827000000E+00 0.  1.
     999902    2    1    2    0    0 -0.29444521720E-02  0.23346753393E-01  0.74805004338E-02  0.10192379248E+01  0.10189387856E+01 0.  0.
     999903    2    3    3    0    0 -0.72651194927E-01  0.54377163501E-01  0.91241492079E-01  0.13197369126E+00  0.29274105856E-01 0.  0.
         14    1    1    2    0    0  0.29444521720E-02 -0.23346753393E-01 -0.74805004338E-02  0.24692075233E-01  0.00000000000E+00 0.  1.
     999901    1    3    3    0    0  0.69706742755E-01 -0.31030410108E-01 -0.83760991645E-01  0.88726423351E+00  0.88000000000E+00 0.  1.
        -11    1    4    4    0    0 -0.36050689826E-01  0.39718055737E-01  0.66441641180E-01  0.85392792390E-01  0.51100000000E-03 0.  1.
         11    1    4    4    0    0 -0.36600505101E-01  0.14659107764E-01  0.24799850899E-01  0.46580898871E-01  0.51100000000E-03 0. -1.
</event>
<event>
 8    1  0.1114447E+005  0.1043930E+01  0.7957747E-01            NaN
         13   -1    0    0    0    0  0.00000000000E+00  0.00000000000E+00  0.74505805969E-08  0.10566000000E+00  0.10566000000E+00 0. -1.
     999900   -1    0    0    0    0 -0.00000000000E+00 -0.00000000000E+00 -0.74505805969E-08  0.93827000000E+00  0.93827000000E+00 0.  1.
     999902    2    1    2    0    0  0.22496298258E-01 -0.67639802309E-02  0.69560780293E-02  0.10194305738E+01  0.10191361405E+01 0.  0.
     999903    2    3    3    0    0  0.98755448866E-01  0.42725443148E-01 -0.72274161961E-01  0.13120645115E+00  0.20334113305E-01 0.  0.
         14    1    1    2    0    0 -0.22496298258E-01  0.67639802309E-02 -0.69560780293E-02  0.24499426226E-01  0.00000000000E+00 0.  1.
     999901    1    3    3    0    0 -0.76259150608E-01 -0.49489423379E-01  0.79230239991E-01  0.88822412262E+00  0.88000000000E+00 0. -1.
        -11    1    4    4    0    0  0.60274572204E-01  0.35770967196E-01 -0.41626677760E-01  0.81520718660E-01  0.51100000000E-03 0. -1.
         11    1    4    4    0    0  0.38480876662E-01  0.69544759519E-02 -0.30647484201E-01  0.49685732493E-01  0.51100000000E-03 0.  1.
</event>
<event>
 8    1  0.1114447E+005  0.1043930E+01  0.7957747E-01            NaN
         13   -1    0    0    0    0  0.00000000000E+00  0.00000000000E+00  0.74505805969E-08  0.10566000000E+00  0.10566000000E+00 0.  1.
     999900   -1    0    0    0    0 -0.00000000000E+00 -0.00000000000E+00 -0.74505805969E-08  0.93827000000E+00  0.93827000000E+00 0.  1.
     999902    2    1    2    0    0  0.43278426346E-02  0.49902623454E-02 -0.21657386640E-01  0.10212876650E+01  0.10210366395E+01 0.  0.
     999903    2    3    3    0    0  0.93631123944E-01  0.79344543453E-02  0.87686064071E-01  0.13003027535E+00  0.19730274662E-01 0.  0.
         14    1    1    2    0    0 -0.43278426346E-02 -0.49902623454E-02  0.21657386640E-01  0.22642335043E-01  0.00000000000E+00 0.  1.
     999901    1    3    3    0    0 -0.89303281309E-01 -0.29441919999E-02 -0.10934345071E+00  0.89125738961E+00  0.88000000000E+00 0.  1.
        -11    1    4    4    0    0  0.32167865188E-01  0.92052450030E-02  0.40470002370E-01  0.52512763203E-01  0.51100000000E-03 0.  1.
         11    1    4    4    0    0  0.61463258756E-01 -0.12707906577E-02  0.47216061700E-01  0.77517512146E-01  0.51100000000E-03 0. -1.
</event>
<event>
 8    1  0.1114447E+005  0.1043930E+01  0.7957747E-01            NaN
         13   -1    0    0    0    0  0.00000000000E+00  0.00000000000E+00  0.74505805969E-08  0.10566000000E+00  0.10566000000E+00 0. -1.
     999900   -1    0    0    0    0 -0.00000000000E+00 -0.00000000000E+00 -0.74505805969E-08  0.93827000000E+00  0.93827000000E+00 0.  1.
     999902    2    1    2    0    0 -0.17810655646E-01  0.15438987054E-01  0.93821254695E-02  0.10185606079E+01  0.10182446199E+01 0.  0.
     999903    2    3    3    0    0 -0.32710562575E-02 -0.87463412653E-01 -0.89667993398E-01  0.12692658555E+00  0.20235135710E-01 0.  0.
         14    1    1    2    0    0  0.17810655646E-01 -0.15438987054E-01 -0.93821254695E-02  0.25369392072E-01  0.00000000000E+00 0.  1.
     999901    1    3    3    0    0 -0.14539599388E-01  0.10290239971E+00  0.99050118867E-01  0.89163402238E+00  0.88000000000E+00 0.  1.
        -11    1    4    4    0    0 -0.15867895641E-02 -0.35903084724E-01 -0.23170245183E-01  0.42762960336E-01  0.51100000000E-03 0. -1.
         11    1    4    4    0    0 -0.16842666934E-02 -0.51560327929E-01 -0.66497748214E-01  0.84163625213E-01  0.51100000000E-03 0.  1.
</event>
<event>
 8    1  0.1114447E+005  0.1043930E+01  0.7957747E-01            NaN
         13   -1    0    0    0    0  0.00000000000E+00  0.00000000000E+00  0.74505805969E-08  0.10566000000E+00  0.10566000000E+00 0.  1.
     999900   -1    0    0    0    0 -0.00000000000E+00 -0.00000000000E+00 -0.74505805969E-08  0.93827000000E+00  0.93827000000E+00 0.  1.
     999902    2    1    2    0    0  0.21637874261E-01 -0.48585615871E-02  0.72276772258E-02  0.10206052805E+01  0.10203387163E+01 0.  0.
     999903    2    3    3    0    0  0.11877603298E+00  0.43372586290E-01  0.37184419062E-01  0.13344155720E+00  0.20857634433E-01 0.  0.
         14    1    1    2    0    0 -0.21637874261E-01  0.48585615871E-02 -0.72276772258E-02  0.23324719534E-01  0.00000000000E+00 0. -1.
     999901    1    3    3    0    0 -0.97138158719E-01 -0.48231147877E-01 -0.29956741836E-01  0.88716372327E+00  0.88000000000E+00 0.  1.
        -11    1    4    4    0    0  0.71234593332E-01  0.36038234786E-01  0.26938729966E-01  0.84256026175E-01  0.51100000000E-03 0. -1.
         11    1    4    4    0    0  0.47541439648E-01  0.73343515037E-02  0.10245689095E-01  0.49185531021E-01  0.51100000000E-03 0.  1.
</event>
<event>
 8    1  0.1114447E+005  0.1043930E+01  0.7957747E-01            NaN
         13   -1    0    0    0    0  0.00000000000E+00  0.00000000000E+00  0.74505805969E-08  0.10566000000E+00  0.10566000000E+00 0. -1.
     999900   -1    0    0    0    0 -0.00000000000E+00 -0.00000000000E+00 -0.74505805969E-08  0.93827000000E+00  0.93827000000E+00 0. -1.
     999902    2    1    2    0    0  0.19180762461E-01  0.17315495936E-01 -0.84139722742E-02  0.10167542208E+01  0.10163909791E+01 0.  0.
     999903    2    3    3    0    0 -0.58713582993E-01  0.55036294992E-01 -0.97411909705E-01  0.12804109460E+00  0.20716253513E-01 0.  0.
         14    1    1    2    0    0 -0.19180762461E-01 -0.17315495936E-01  0.84139722742E-02  0.27175779244E-01  0.00000000000E+00 0. -1.
     999901    1    3    3    0    0  0.77894345454E-01 -0.37720799056E-01  0.88997937431E-01  0.88871312616E+00  0.88000000000E+00 0.  1.
        -11    1    4    4    0    0 -0.28980557003E-01  0.14366583720E-01 -0.32317646940E-01  0.45727047103E-01  0.51100000000E-03 0.  1.
         11    1    4    4    0    0 -0.29733025990E-01  0.40669711272E-01 -0.65094262765E-01  0.82314047497E-01  0.51100000000E-03 0. -1.
</event>
<event>
 8    1  0.1114447E+005  0.1043930E+01  0.7957747E-01            NaN
         13   -1    0    0    0    0  0.00000000000E+00  0.00000000000E+00  0.74505805969E-08  0.10566000000E+00  0.10566000000E+00 0.  1.
     999900   -1    0    0    0    0 -0.00000000000E+00 -0.00000000000E+00 -0.74505805969E-08  0.93827000000E+00  0.93827000000E+00 0. -1.
     999902    2    1    2    0    0 -0.16843610427E-01  0.10400984352E-01  0.12418598559E-01  0.10205610189E+01  0.10202934303E+01 0.  0.
     999903    2    3    3    0    0 -0.80030759119E-01 -0.47283206114E-01  0.92172434744E-01  0.13282189281E+00  0.22478289488E-01 0.  0.
         14    1    1    2    0    0  0.16843610427E-01 -0.10400984352E-01 -0.12418598559E-01  0.23368981105E-01  0.00000000000E+00 0. -1.
     999901    1    3    3    0    0  0.63187148692E-01  0.57684190467E-01 -0.79753836184E-01  0.88773912608E+00  0.88000000000E+00 0. -1.
        -11    1    4    4    0    0 -0.17546923253E-01 -0.21394283430E-01  0.21938118361E-01  0.35315039818E-01  0.51100000000E-03 0. -1.
         11    1    4    4    0    0 -0.62483835866E-01 -0.25888922684E-01  0.70234316383E-01  0.97506852995E-01  0.51100000000E-03 0.  1.
</event>
<event>
 8    1  0.1114447E+005  0.1043930E+01  0.7957747E-01            NaN
         13   -1    0    0    0    0  0.00000000000E+00  0.00000000000E+00  0.74505805969E-08  0.10566000000E+00  0.10566000000E+00 0. -1.
     999900   -1    0    0    0    0 -0.00000000000E+00 -0.00000000000E+00 -0.74505805969E-08  0.93827000000E+00  0.93827000000E+00 0. -1.
     999902    2    1    2    0    0 -0.55789079062E-02 -0.53901288795E-02 -0.21881430292E-01  0.10207141715E+01  0.10204501189E+01 0.  0.
     999903    2    3    3    0    0  0.73258662001E-01 -0.10656368824E+00  0.56957183074E-02  0.13098839873E+00  0.20071576582E-01 0.  0.
         14    1    1    2    0    0  0.55789079062E-02  0.53901288795E-02  0.21881430292E-01  0.23215828531E-01  0.00000000000E+00 0. -1.
     999901    1    3    3    0    0 -0.78837569908E-01  0.10117355936E+00 -0.27577148599E-01  0.88972577273E+00  0.88000000000E+00 0. -1.
        -11    1    4    4    0    0  0.35889917755E-01 -0.36636832436E-01 -0.20019318792E-02  0.51328476888E-01  0.51100000000E-03 0. -1.
         11    1    4    4    0    0  0.37368744246E-01 -0.69926855804E-01  0.76976501866E-02  0.79659921847E-01  0.51100000000E-03 0.  1.
</event>
<event>
 8    1  0.1114447E+005  0.1043930E+01  0.7957747E-01            NaN
         13   -1    0    0    0    0  0.00000000000E+00  0.00000000000E+00  0.74505805969E-08  0.10566000000E+00  0.10566000000E+00 0. -1.
     999900   -1    0    0    0    0 -0.00000000000E+00 -0.00000000000E+00 -0.74505805969E-08  0.93827000000E+00  0.93827000000E+00 0.  1.
     999902    2    1    2    0    0  0.69585207318E-02 -0.20375287684E-01 -0.91703568900E-02  0.10205276752E+01  0.10202593137E+01 0.  0.
     999903    2    3    3    0    0 -0.82124475205E-01 -0.66319388985E-01 -0.77681024725E-01  0.13219195479E+00  0.17253420698E-01 0.  0.
         14    1    1    2    0    0 -0.69585207318E-02  0.20375287684E-01  0.91703568900E-02  0.23402324766E-01  0.00000000000E+00 0. -1.
     999901    1    3    3    0    0  0.89082995936E-01  0.45944101301E-01  0.68510667835E-01  0.88833572044E+00  0.88000000000E+00 0.  1.
        -11    1    4    4    0    0 -0.36026022517E-01 -0.40064847565E-01 -0.40543365117E-01  0.67432127987E-01  0.51100000000E-03 0.  1.
         11    1    4    4    0    0 -0.46098452688E-01 -0.26254541420E-01 -0.37137659608E-01  0.64759826803E-01  0.51100000000E-03 0. -1.
</event>
<event>
 8    1  0.1431061E+005  0.1043930E+01  0.7957747E-01            NaN
         13   -1    0    0    0    0  0.00000000000E+00  0.00000000000E+00  0.74505805969E-08  0.10566000000E+00  0.10566000000E+00 0.  1.
     999900   -1    0    0    0    0 -0.00000000000E+00 -0.00000000000E+00 -0.74505805969E-08  0.93827000000E+00  0.93827000000E+00 0.  1.
     999902    2    1    2    0    0 -0.21942698777E-01  0.49022532361E-03 -0.62476988564E-02  0.10211099191E+01  0.10208548922E+01 0.  0.
     999903    2    3    3    0    0  0.11892308928E+00 -0.39556982948E-01 -0.22357147381E-01  0.12886193595E+00  0.19952454336E-01 0.  0.
         14    1    1    2    0    0  0.21942698777E-01 -0.49022532361E-03  0.62476988564E-02  0.22820080882E-01  0.00000000000E+00 0.  1.
     999901    1    3    3    0    0 -0.14086578806E+00  0.40047208272E-01  0.16109448525E-01  0.89224798317E+00  0.88000000000E+00 0. -1.
        -11    1    4    4    0    0  0.55154784264E-01 -0.13299607158E-01 -0.12944453099E-02  0.56752678240E-01  0.51100000000E-03 0. -1.
         11    1    4    4    0    0  0.63768305015E-01 -0.26257375790E-01 -0.21062702072E-01  0.72109257710E-01  0.51100000000E-03 0.  1.
</event>
<event>
 8    1  0.1114447E+005  0.1043930E+01  0.7957747E-01            NaN
         13   -1    0    0    0    0  0.00000000000E+00  0.00000000000E+00  0.74505805969E-08  0.10566000000E+00  0.10566000000E+00 0.  1.
     999900   -1    0    0    0    0 -0.00000000000E+00 -0.00000000000E+00 -0.74505805969E-08  0.93827000000E+00  0.93827000000E+00 0.  1.
     999902    2    1    2    0    0  0.10685185147E-01  0.12321151915E-01  0.17958059247E-01  0.10196714787E+01  0.10193828763E+01 0.  0.
     999903    2    3    3    0    0 -0.42501824941E-01  0.15091176685E-02 -0.11862973224E+00  0.12748204646E+00  0.19234766451E-01 0.  0.
         14    1    1    2    0    0 -0.10685185147E-01 -0.12321151915E-01 -0.17958059247E-01  0.24258521350E-01  0.00000000000E+00 0. -1.
     999901    1    3    3    0    0  0.53187010088E-01  0.10812034247E-01  0.13658779148E+00  0.89218943219E+00  0.88000000000E+00 0. -1.
        -11    1    4    4    0    0 -0.39442572032E-01  0.16481771471E-02 -0.85136043057E-01  0.93844765036E-01  0.51100000000E-03 0. -1.
         11    1    4    4    0    0 -0.30592529093E-02 -0.13905947869E-03 -0.33493689179E-01  0.33637281426E-01  0.51100000000E-03 0.  1.
</event>
<event>
 8    1  0.1114447E+005  0.1043930E+01  0.7957747E-01            NaN
         13   -1    0    0    0    0  0.00000000000E+00  0.00000000000E+00  0.74505805969E-08  0.10566000000E+00  0.10566000000E+00 0. -1.
     999900   -1    0    0    0    0 -0.00000000000E+00 -0.00000000000E+00 -0.74505805969E-08  0.93827000000E+00  0.93827000000E+00 0.  1.
     999902    2    1    2    0    0 -0.16652208935E-01  0.74782174497E-02  0.90003363571E-02  0.10235774608E+01  0.10233750986E+01 0.  0.
     999903    2    3    3    0    0 -0.26844115405E-01  0.58104962342E-01  0.11781641484E+00  0.13537259634E+00  0.18661164338E-01 0.  0.
         14    1    1    2    0    0  0.16652208935E-01 -0.74782174497E-02 -0.90003363571E-02  0.20352539232E-01  0.00000000000E+00 0. -1.
     999901    1    3    3    0    0  0.10191906470E-01 -0.50626744892E-01 -0.10881607848E+00  0.88820486443E+00  0.88000000000E+00 0.  1.
        -11    1    4    4    0    0 -0.77272500432E-02  0.19865546860E-01  0.23001017358E-01  0.31363326765E-01  0.51100000000E-03 0.  1.
         11    1    4    4    0    0 -0.19116865362E-01  0.38239415482E-01  0.94815397479E-01  0.10400926958E+00  0.51100000000E-03 0. -1.
</event>
<event>
 8    1  0.1114447E+005  0.1043930E+01  0.7957747E-01            NaN
         13   -1    0    0    0    0  0.00000000000E+00  0.00000000000E+00  0.74505805969E-08  0.10566000000E+00  0.10566000000E+00 0.  1.
     999900   -1    0    0    0    0 -0.00000000000E+00 -0.00000000000E+00 -0.74505805969E-08  0.93827000000E+00  0.93827000000E+00 0.  1.
     999902    2    1    2    0    0  0.19592150468E-01 -0.13278477082E-01  0.31436330466E-02  0.10200542227E+01  0.10197747616E+01 0.  0.
     999903    2    3    3    0    0 -0.12245513252E+00  0.18888032397E-01  0.24903933157E-01  0.12781791677E+00  0.19110120645E-01 0.  0.
         14    1    1    2    0    0 -0.19592150468E-01  0.13278477082E-01 -0.31436330466E-02  0.23875777313E-01  0.00000000000E+00 0. -1.
     999901    1    3    3    0    0  0.14204728299E+00 -0.32166509478E-01 -0.21760300110E-01  0.89223630592E+00  0.88000000000E+00 0. -1.
        -11    1    4    4    0    0 -0.86779562990E-01  0.86174881965E-02  0.24888514035E-01  0.90689872133E-01  0.51100000000E-03 0.  1.
         11    1    4    4    0    0 -0.35675569534E-01  0.10270544200E-01  0.15419122135E-04  0.37128044636E-01  0.51100000000E-03 0. -1.
</event>
<event>
 8    1  0.1114447E+005  0.1043930E+01  0.7957747E-01            NaN
         13   -1    0    0    0    0  0.00000000000E+00  0.00000000000E+00  0.74505805969E-08  0.10566000000E+00  0.10566000000E+00 0. -1.
     999900   -1    0    0    0    0 -0.00000000000E+00 -0.00000000000E+00 -0.74505805969E-08  0.93827000000E+00  0.93827000000E+00 0. -1.
     999902    2    1    2    0    0  0.14465992483E-02 -0.25036200790E-01  0.41239275275E-03  0.10188486510E+01  0.10185398861E+01 0.  0.
     999903    2    3    3    0    0  0.16622706007E-01  0.11276421212E+00 -0.50376942465E-01  0.12654891180E+00  0.22016104459E-01 0.  0.
         14    1    1    2    0    0 -0.14465992483E-02  0.25036200790E-01 -0.41239275275E-03  0.25081348990E-01  0.00000000000E+00 0. -1.
     999901    1    3    3    0    0 -0.15176106759E-01 -0.13780041291E+00  0.50789335218E-01  0.89229973921E+00  0.88000000000E+00 0.  1.
        -11    1    4    4    0    0  0.17548042152E-01  0.51941015592E-01 -0.29321691131E-01  0.62175763573E-01  0.51100000000E-03 0. -1.
         11    1    4    4    0    0 -0.92533614474E-03  0.60823196532E-01 -0.21055251334E-01  0.64373148231E-01  0.51100000000E-03 0.  1.
</event>
<event>
 8    1  0.1114447E+005  0.1043930E+01  0.7957747E-01            NaN
         13   -1    0    0    0    0  0.00000000000E+00  0.00000000000E+00  0.74505805969E-08  0.10566000000E+00  0.10566000000E+00 0. -1.
     999900   -1    0    0    0    0 -0.00000000000E+00 -0.00000000000E+00 -0.74505805969E-08  0.93827000000E+00  0.93827000000E+00 0.  1.
     999902    2    1    2    0    0  0.33309824363E-02 -0.19516373309E-01  0.46864707289E-02  0.10235843056E+01  0.10233820809E+01 0.  0.
     999903    2    3    3    0    0 -0.72986590216E-02  0.87540419610E-01  0.93704044000E-01  0.13257461179E+00  0.32847897032E-01 0.  0.
         14    1    1    2    0    0 -0.33309824363E-02  0.19516373309E-01 -0.46864707289E-02  0.20345694361E-01  0.00000000000E+00 0.  1.
     999901    1    3    3    0    0  0.10629641458E-01 -0.10705679292E+00 -0.89017573271E-01  0.89100969385E+00  0.88000000000E+00 0.  1.
        -11    1    4    4    0    0 -0.34047770007E-02  0.15439204302E-01  0.38684765253E-01  0.41793943576E-01  0.51100000000E-03 0.  1.
         11    1    4    4    0    0 -0.38938820209E-02  0.72101215308E-01  0.55019278747E-01  0.90780668211E-01  0.51100000000E-03 0. -1.
</event>
<event>
 8    1  0.1114447E+005  0.1043930E+01  0.7957747E-01            NaN
         13   -1    0    0    0    0  0.00000000000E+00  0.00000000000E+00  0.74505805969E-08  0.10566000000E+00  0.10566000000E+00 0.  1.
     999900   -1    0    0    0    0 -0.00000000000E+00 -0.00000000000E+00 -0.74505805969E-08  0.93827000000E+00  0.93827000000E+00 0. -1.
     999902    2    1    2    0    0 -0.16537244993E-01  0.13509184841E-01 -0.86990850265E-02  0.10208724063E+01  0.10206119818E+01 0.  0.
     999903    2    3    3    0    0  0.12312777297E+00  0.28274198431E-01 -0.21025418259E-01  0.12965062618E+00  0.20182613372E-01 0.  0.
         14    1    1    2    0    0  0.16537244993E-01 -0.13509184841E-01  0.86990850265E-02  0.23057593702E-01  0.00000000000E+00 0. -1.
     999901    1    3    3    0    0 -0.13966501796E+00 -0.14765013591E-01  0.12326333233E-01  0.89122178012E+00  0.88000000000E+00 0. -1.
        -11    1    4    4    0    0  0.11262754414E+00  0.30378006354E-01 -0.22575852761E-01  0.11881800039E+00  0.51100000000E-03 0. -1.
         11    1    4    4    0    0  0.10500228832E-01 -0.21038079226E-02  0.15504345017E-02  0.10832625787E-01  0.51100000000E-03 0.  1.
</event>
<event>
 8    1  0.1114447E+005  0.1043930E+01  0.7957747E-01            NaN
         13   -1    0    0    0    0  0.00000000000E+00  0.00000000000E+00  0.74505805969E-08  0.10566000000E+00  0.10566000000E+00 0.  1.
     999900   -1    0    0    0    0 -0.00000000000E+00 -0.00000000000E+00 -0.74505805969E-08  0.93827000000E+00  0.93827000000E+00 0. -1.
     999902    2    1    2    0    0  0.17367581125E-01  0.11852608875E-01  0.10332976508E-01  0.10205016493E+01  0.10202326836E+01 0.  0.
     999903    2    3    3    0    0  0.66197540974E-01 -0.63966496291E-01 -0.90036444486E-01  0.13021690704E+00  0.19392123807E-01 0.  0.
         14    1    1    2    0    0 -0.17367581125E-01 -0.11852608875E-01 -0.10332976508E-01  0.23428350663E-01  0.00000000000E+00 0. -1.
     999901    1    3    3    0    0 -0.48829959849E-01  0.75819105167E-01  0.10036942099E+00  0.89028474229E+00  0.88000000000E+00 0.  1.
        -11    1    4    4    0    0  0.16246735639E-01 -0.10292881894E-01 -0.10041272241E-01  0.21702260386E-01  0.51100000000E-03 0. -1.
         11    1    4    4    0    0  0.49950805335E-01 -0.53673614397E-01 -0.79995172245E-01  0.10851464666E+00  0.51100000000E-03 0.  1.
</event>
<event>
 8    1  0.1114447E+005  0.1043930E+01  0.7957747E-01            NaN
         13   -1    0    0    0    0  0.00000000000E+00  0.00000000000E+00  0.74505805969E-08  0.10566000000E+00  0.10566000000E+00 0.  1.
     999900   -1    0    0    0    0 -0.00000000000E+00 -0.00000000000E+00 -0.74505805969E-08  0.93827000000E+00  0.93827000000E+00 0. -1.
     999902    2    1    2    0    0 -0.76839151009E-02 -0.15336185172E-02  0.22450858355E-01  0.10201511107E+01  0.10198739398E+01 0.  0.
     999903    2    3    3    0    0  0.11361085490E+00 -0.52920771778E-01  0.29335285222E-01  0.13031940968E+00  0.20360627300E-01 0.  0.
         14    1    1    2    0    0  0.76839151009E-02  0.15336185172E-02 -0.22450858355E-01  0.23778889333E-01  0.00000000000E+00 0. -1.
     999901    1    3    3    0    0 -0.12129477000E+00  0.51387153261E-01 -0.68844268674E-02  0.88983170099E+00  0.88000000000E+00 0. -1.
        -11    1    4    4    0    0  0.53899366276E-01 -0.35437915046E-01  0.18990196302E-01  0.67244897088E-01  0.51100000000E-03 0. -1.
         11    1    4    4    0    0  0.59711488622E-01 -0.17482856732E-01  0.10345088920E-01  0.63074512592E-01  0.51100000000E-03 0.  1.
</event>
<event>
 8    1  0.1114447E+005  0.1043930E+01  0.7957747E-01            NaN
         13   -1    0    0    0    0  0.00000000000E+00  0.00000000000E+00  0.74505805969E-08  0.10566000000E+00  0.10566000000E+00 0.  1.
     999900   -1    0    0    0    0 -0.00000000000E+00 -0.00000000000E+00 -0.74505805969E-08  0.93827000000E+00  0.93827000000E+00 0. -1.
     999902    2    1    2    0    0  0.18331581202E-01 -0.59809348928E-02 -0.13428629638E-01  0.10204322013E+01  0.10201616200E+01 0.  0.
     999903    2    3    3    0    0 -0.11935323650E+00  0.42487352276E-01 -0.75153918073E-02  0.12838890059E+00  0.19412844095E-01 0.  0.
         14    1    1    2    0    0 -0.18331581202E-01  0.59809348928E-02  0.13428629638E-01  0.23497798738E-01  0.00000000000E+00 0.  1.
     999901    1    3    3    0    0  0.13768481770E+00 -0.48468287169E-01 -0.59132378308E-02  0.89204330067E+00  0.88000000000E+00 0.  1.
        -11    1    4    4    0    0 -0.42449096675E-01  0.61841415867E-02 -0.61134536623E-02  0.43333645731E-01  0.51100000000E-03 0.  1.
         11    1    4    4    0    0 -0.76904139823E-01  0.36303210689E-01 -0.14019381450E-02  0.85055254863E-01  0.51100000000E-03 0. -1.
</event>
<event>
 8    1  0.1114447E+005  0.1043930E+01  0.7957747E-01            NaN
         13   -1    0    0    0    0  0.00000000000E+00  0.00000000000E+00  0.74505805969E-08  0.10566000000E+00  0.10566000000E+00 0. -1.
     999900   -1    0    0    0    0 -0.00000000000E+00 -0.00000000000E+00 -0.74505805969E-08  0.93827000000E+00  0.93827000000E+00 0. -1.
     999902    2    1    2    0    0 -0.11861172268E-01 -0.18753879354E-01 -0.53736933496E-02  0.10210986186E+01  0.10208433361E+01 0.  0.
     999903    2    3    3    0    0 -0.43046817105E-01  0.63557071436E-01  0.10322332890E+00  0.13006497704E+00  0.19217513652E-01 0.  0.
         14    1    1    2    0    0  0.11861172268E-01  0.18753879354E-01  0.53736933496E-02  0.22831381443E-01  0.00000000000E+00 0.  1.
     999901    1    3    3    0    0  0.31185644837E-01 -0.82310950790E-01 -0.10859702225E+00  0.89103364151E+00  0.88000000000E+00 0. -1.
        -11    1    4    4    0    0 -0.34773347583E-01  0.35108381692E-01  0.61618997989E-01  0.78987000205E-01  0.51100000000E-03 0. -1.
         11    1    4    4    0    0 -0.82734695217E-02  0.28448689744E-01  0.41604330916E-01  0.51077976840E-01  0.51100000000E-03 0.  1.
</event>
<event>
 8    1  0.1114447E+005  0.1043930E+01  0.7957747E-01            NaN
         13   -1    0    0    0    0  0.00000000000E+00  0.00000000000E+00  0.74505805969E-08  0.10566000000E+00  0.10566000000E+00 0. -1.
     999900   -1    0    0    0    0 -0.00000000000E+00 -0.00000000000E+00 -0.74505805969E-08  0.93827000000E+00  0.93827000000E+00 0. -1.
     999902    2    1    2    0    0 -0.31994689888E-02 -0.23194574054E-01  0.64068472786E-02  0.10196550631E+01  0.10193660654E+01 0.  0.
     999903    2    3    3    0    0  0.12749794881E+00 -0.13658278436E-01 -0.44889244012E-02  0.12988460185E+00  0.20188705642E-01 0.  0.
         14    1    1    2    0    0  0.31994689888E-02  0.23194574054E-01 -0.64068472786E-02  0.24274936857E-01  0.00000000000E+00 0.  1.
     999901    1    3    3    0    0 -0.13069741779E+00 -0.95362956179E-02  0.10895771680E-01  0.88977046129E+00  0.88000000000E+00 0. -1.
        -11    1    4    4    0    0  0.11132865727E+00 -0.73560997272E-02 -0.90346480302E-02  0.11193778682E+00  0.51100000000E-03 0.  1.
         11    1    4    4    0    0  0.16169291535E-01 -0.63021787088E-02  0.45457236291E-02  0.17946815025E-01  0.51100000000E-03 0. -1.
</event>
<event>
 8    1  0.1277605E+005  0.1043930E+01  0.7957747E-01            NaN
         13   -1    0    0    0    0  0.00000000000E+00  0.00000000000E+00  0.74505805969E-08  0.10566000000E+00  0.10566000000E+00 0.  1.
     999900   -1    0    0    0    0 -0.00000000000E+00 -0.00000000000E+00 -0.74505805969E-08  0.93827000000E+00  0.93827000000E+00 0.  1.
     999902    2    1    2    0    0 -0.13846609307E-01 -0.14958286554E-01  0.10932995043E-01  0.10207997318E+01  0.10205376442E+01 0.  0.
     999903    2    3    3    0    0  0.88829270003E-01  0.66642724719E-01 -0.60855669578E-01  0.12818857705E+00  0.19925029469E-01 0.  0.
         14    1    1    2    0    0  0.13846609307E-01  0.14958286554E-01 -0.10932995043E-01  0.23130268190E-01  0.00000000000E+00 0. -1.
     999901    1    3    3    0    0 -0.10267587931E+00 -0.81601011272E-01  0.71788664622E-01  0.89261115476E+00  0.88000000000E+00 0.  1.
        -11    1    4    4    0    0  0.28028839121E-01  0.19453086554E-01 -0.86942040625E-02  0.35212053394E-01  0.51100000000E-03 0. -1.
         11    1    4    4    0    0  0.60800430882E-01  0.47189638164E-01 -0.52161465516E-01  0.92976523656E-01  0.51100000000E-03 0.  1.
</event>
<event>
 8    1  0.1114447E+005  0.1043930E+01  0.7957747E-01            NaN
         13   -1    0    0    0    0  0.00000000000E+00  0.00000000000E+00  0.74505805969E-08  0.10566000000E+00  0.10566000000E+00 0. -1.
     999900   -1    0    0    0    0 -0.00000000000E+00 -0.00000000000E+00 -0.74505805969E-08  0.93827000000E+00  0.93827000000E+00 0.  1.
     999902    2    1    2    0    0 -0.15288132394E-01 -0.27940296557E-02 -0.23617985874E-01  0.10156573480E+01  0.10152637616E+01 0.  0.
     999903    2    3    3    0    0  0.79054891138E-01 -0.58938354269E-01 -0.78045912150E-01  0.12716694827E+00  0.18890815539E-01 0.  0.
         14    1    1    2    0    0  0.15288132394E-01  0.27940296557E-02  0.23617985874E-01  0.28272651990E-01  0.00000000000E+00 0. -1.
     999901    1    3    3    0    0 -0.94343023531E-01  0.56144324613E-01  0.54427926276E-01  0.88849039974E+00  0.88000000000E+00 0. -1.
        -11    1    4    4    0    0  0.14391277174E-01 -0.16596102344E-01 -0.25711630169E-01  0.33821421003E-01  0.51100000000E-03 0.  1.
         11    1    4    4    0    0  0.64663613963E-01 -0.42342251925E-01 -0.52334281982E-01  0.93345527265E-01  0.51100000000E-03 0. -1.
</event>
<event>
 8    1  0.1114447E+005  0.1043930E+01  0.7957747E-01            NaN
         13   -1    0    0    0    0  0.00000000000E+00  0.00000000000E+00  0.74505805969E-08  0.10566000000E+00  0.10566000000E+00 0.  1.
     999900   -1    0    0    0    0 -0.00000000000E+00 -0.00000000000E+00 -0.74505805969E-08  0.93827000000E+00  0.93827000000E+00 0. -1.
     999902    2    1    2    0    0 -0.35987792086E-02 -0.22042115541E-01 -0.81569267251E-02  0.10201530884E+01  0.10198759642E+01 0.  0.
     999903    2    3    3    0    0  0.67567394733E-01  0.72989002926E-01 -0.79352991737E-01  0.12933076191E+00  0.23168972761E-01 0.  0.
         14    1    1    2    0    0  0.35987792086E-02  0.22042115541E-01  0.81569267251E-02  0.23776911552E-01  0.00000000000E+00 0.  1.
     999901    1    3    3    0    0 -0.71166173941E-01 -0.95031118468E-01  0.71196065012E-01  0.89082232654E+00  0.88000000000E+00 0.  1.
        -11    1    4    4    0    0  0.28460027233E-01  0.15420326019E-01 -0.21924317368E-01  0.39098547514E-01  0.51100000000E-03 0. -1.
         11    1    4    4    0    0  0.39107367500E-01  0.57568676907E-01 -0.57428674369E-01  0.90232214393E-01  0.51100000000E-03 0.  1.
</event>
<event>
 8    1  0.1114447E+005  0.1043930E+01  0.7957747E-01            NaN
         13   -1    0    0    0    0  0.00000000000E+00  0.00000000000E+00  0.74505805969E-08  0.10566000000E+00  0.10566000000E+00 0.  1.
     999900   -1    0    0    0    0 -0.00000000000E+00 -0.00000000000E+00 -0.74505805969E-08  0.93827000000E+00  0.93827000000E+00 0.  1.
     999902    2    1    2    0    0 -0.62038064452E-02  0.35807018313E-02  0.22348234003E-01  0.10204618897E+01  0.10201919996E+01 0.  0.
     999903    2    3    3    0    0 -0.12047466423E-01 -0.23469913878E-01 -0.12363395328E+00  0.12800646602E+00  0.20107775463E-01 0.  0.
         14    1    1    2    0    0  0.62038064452E-02 -0.35807018313E-02 -0.22348234003E-01  0.23468110343E-01  0.00000000000E+00 0. -1.
     999901    1    3    3    0    0  0.58436599774E-02  0.27050615709E-01  0.14598218729E+00  0.89245542364E+00  0.88000000000E+00 0. -1.
        -11    1    4    4    0    0 -0.11570768864E-01 -0.82203687120E-02 -0.89426636969E-01  0.90547455372E-01  0.51100000000E-03 0.  1.
         11    1    4    4    0    0 -0.47669755825E-03 -0.15249545166E-01 -0.34207316315E-01  0.37459010649E-01  0.51100000000E-03 0. -1.
</event>
<event>
 8    1  0.1114447E+005  0.1043930E+01  0.7957747E-01            NaN
         13   -1    0    0    0    0  0.00000000000E+00  0.00000000000E+00  0.74505805969E-08  0.10566000000E+00  0.10566000000E+00 0. -1.
     999900   -1    0    0    0    0 -0.00000000000E+00 -0.00000000000E+00 -0.74505805969E-08  0.93827000000E+00  0.93827000000E+00 0.  1.
     999902    2    1    2    0    0 -0.99921101977E-02  0.93837975690E-02  0.95678907384E-02  0.10272134676E+01  0.10270774389E+01 0.  0.
     999903    2    3    3    0    0  0.55280778946E-01  0.12187704939E+00 -0.21981936869E-01  0.13709511961E+00  0.20047109131E-01 0.  0.
         14    1    1    2    0    0  0.99921101977E-02 -0.93837975690E-02 -0.95678907384E-02  0.16716532422E-01  0.00000000000E+00 0.  1.
     999901    1    3    3    0    0 -0.65272889144E-01 -0.11249325182E+00  0.31549827607E-01  0.89011834797E+00  0.88000000000E+00 0.  1.
        -11    1    4    4    0    0  0.27496784162E-01  0.62192120471E-01 -0.10457211358E-02  0.68009467294E-01  0.51100000000E-03 0. -1.
         11    1    4    4    0    0  0.27783994785E-01  0.59684928918E-01 -0.20936215733E-01  0.69085652319E-01  0.51100000000E-03 0.  1.
</event>
<event>
 8    1  0.1114447E+005  0.1043930E+01  0.7957747E-01            NaN
         13   -1    0    0    0    0  0.00000000000E+00  0.00000000000E+00  0.74505805969E-08  0.10566000000E+00  0.10566000000E+00 0. -1.
     999900   -1    0    0    0    0 -0.00000000000E+00 -0.00000000000E+00 -0.74505805969E-08  0.93827000000E+00  0.93827000000E+00 0.  1.
     999902    2    1    2    0    0  0.63436904357E-02 -0.94097833978E-02 -0.21906950191E-01  0.10192581355E+01  0.10189594918E+01 0.  0.
     999903    2    3    3    0    0  0.11819554217E+00  0.49839605923E-01 -0.77964826576E-02  0.13008974189E+00  0.20208495628E-01 0.  0.
         14    1    1    2    0    0 -0.63436904357E-02  0.94097833978E-02  0.21906950191E-01  0.24671864514E-01  0.00000000000E+00 0. -1.
     999901    1    3    3    0    0 -0.11185185174E+00 -0.59249389321E-01 -0.14110467534E-01  0.88916839359E+00  0.88000000000E+00 0. -1.
        -11    1    4    4    0    0  0.83077739524E-01  0.36949635066E-01  0.35500332927E-02  0.90994781132E-01  0.51100000000E-03 0. -1.
         11    1    4    4    0    0  0.35117802649E-01  0.12889970857E-01 -0.11346515950E-01  0.39094960760E-01  0.51100000000E-03 0.  1.
</event>
<event>
 8    1  0.1114447E+005  0.1043930E+01  0.7957747E-01            NaN
         13   -1    0    0    0    0  0.00000000000E+00  0.00000000000E+00  0.74505805969E-08  0.10566000000E+00  0.10566000000E+00 0.  1.
     999900   -1    0    0    0    0 -0.00000000000E+00 -0.00000000000E+00 -0.74505805969E-08  0.93827000000E+00  0.93827000000E+00 0. -1.
     999902    2    1    2    0    0 -0.22205950435E-01 -0.73574054414E-02  0.75555134786E-02  0.10193470499E+01  0.10190505811E+01 0.  0.
     999903    2    3    3    0    0 -0.92298926479E-02  0.72893998051E-01  0.10568722871E+00  0.13016849680E+00  0.19373212865E-01 0.  0.
         14    1    1    2    0    0  0.22205950435E-01  0.73574054414E-02 -0.75555134786E-02  0.24582950056E-01  0.00000000000E+00 0.  1.
     999901    1    3    3    0    0 -0.12976057787E-01 -0.80251403493E-01 -0.98131715230E-01  0.88917855314E+00  0.88000000000E+00 0. -1.
        -11    1    4    4    0    0 -0.40513065696E-02  0.15510567034E-01  0.38198502783E-01  0.41429186699E-01  0.51100000000E-03 0.  1.
         11    1    4    4    0    0 -0.51785860783E-02  0.57383431018E-01  0.67488725925E-01  0.88739310100E-01  0.51100000000E-03 0. -1.
</event>
<event>
 8    1  0.1114447E+005  0.1043930E+01  0.7957747E-01            NaN
         13   -1    0    0    0    0  0.00000000000E+00  0.00000000000E+00  0.74505805969E-08  0.10566000000E+00  0.10566000000E+00 0.  1.
     999900   -1    0    0    0    0 -0.00000000000E+00 -0.00000000000E+00 -0.74505805969E-08  0.93827000000E+00  0.93827000000E+00 0.  1.
     999902    2    1    2    0    0 -0.19536196099E-02 -0.20457750724E-01 -0.11769905820E-01  0.10202473718E+01  0.10199724667E+01 0.  0.
     999903    2    3    3    0    0 -0.12852507379E+00  0.11183780708E-01 -0.45534463914E-02  0.13059935333E+00  0.19791050292E-01 0.  0.
         14    1    1    2    0    0  0.19536196099E-02  0.20457750724E-01  0.11769905820E-01  0.23682628175E-01  0.00000000000E+00 0. -1.
     999901    1    3    3    0    0  0.12657145418E+00 -0.31641531432E-01 -0.72164594281E-02  0.88964801850E+00  0.88000000000E+00 0. -1.
        -11    1    4    4    0    0 -0.64304775147E-01 -0.29147561656E-02 -0.73320398600E-02  0.64789041046E-01  0.51100000000E-03 0.  1.
         11    1    4    4    0    0 -0.64220298647E-01  0.14098536874E-01  0.27785934686E-02  0.65810312284E-01  0.51100000000E-03 0. -1.
</event>
<event>
 8    1  0.1114447E+005  0.1043930E+01  0.7957747E-01            NaN
         13   -1    0    0    0    0  0.00000000000E+00  0.00000000000E+00  0.74505805969E-08  0.10566000000E+00  0.10566000000E+00 0.  1.
     999900   -1    0    0    0    0 -0.00000000000E+00 -0.00000000000E+00 -0.74505805969E-08  0.93827000000E+00  0.93827000000E+00 0. -1.
     999902    2    1    2    0    0 -0.46162430885E-02  0.15191603437E-01  0.18357832144E-01  0.10196585246E+01  0.10193696103E+01 0.  0.
     999903    2    3    3    0    0 -0.74708065693E-01 -0.99683106217E-01 -0.27146504771E-01  0.12826651929E+00  0.14048149544E-01 0.  0.
         14    1    1    2    0    0  0.46162430885E-02 -0.15191603437E-01 -0.18357832144E-01  0.24271475363E-01  0.00000000000E+00 0. -1.
     999901    1    3    3    0    0  0.70091822604E-01  0.11487470965E+00  0.45504336916E-01  0.89139200534E+00  0.88000000000E+00 0. -1.
        -11    1    4    4    0    0 -0.31501835231E-01 -0.53031204461E-01 -0.10954787111E-01  0.62649363533E-01  0.51100000000E-03 0. -1.
         11    1    4    4    0    0 -0.43206230462E-01 -0.46651901756E-01 -0.16191717660E-01  0.65617155759E-01  0.51100000000E-03 0.  1.
</event>
<event>
 8    1  0.1114447E+005  0.1043930E+01  0.7957747E-01            NaN
         13   -1    0    0    0    0  0.00000000000E+00  0.00000000000E+00  0.74505805969E-08  0.10566000000E+00  0.10566000000E+00 0. -1.
     999900   -1    0    0    0    0 -0.00000000000E+00 -0.00000000000E+00 -0.74505805969E-08  0.93827000000E+00  0.93827000000E+00 0.  1.
     999902    2    1    2    0    0  0.37883249337E-02 -0.16399993219E-01 -0.17613133021E-01  0.10195674542E+01  0.10192763413E+01 0.  0.
     999903    2    3    3    0    0  0.11902913751E+00 -0.10069537545E-01 -0.51079325084E-01  0.13140051855E+00  0.19689277842E-01 0.  0.
         14    1    1    2    0    0 -0.37883249337E-02  0.16399993219E-01  0.17613133021E-01  0.24362545808E-01  0.00000000000E+00 0. -1.
     999901    1    3    3    0    0 -0.11524081258E+00 -0.63304556738E-02  0.33466192063E-01  0.88816693564E+00  0.88000000000E+00 0.  1.
        -11    1    4    4    0    0  0.62020299284E-01 -0.34718579033E-02 -0.37012441703E-01  0.72310118811E-01  0.51100000000E-03 0.  1.
         11    1    4    4    0    0  0.57008838227E-01 -0.65976796421E-02 -0.14066883381E-01  0.59090399742E-01  0.51100000000E-03 0. -1.
</event>
<event>
 8    1  0.1114447E+005  0.1043930E+01  0.7957747E-01            NaN
         13   -1    0    0    0    0  0.00000000000E+00  0.00000000000E+00  0.74505805969E-08  0.10566000000E+00  0.10566000000E+00 0. -1.
     999900   -1    0    0    0    0 -0.00000000000E+00 -0.00000000000E+00 -0.74505805969E-08  0.93827000000E+00  0.93827000000E+00 0. -1.
     999902    2    1    2    0    0  0.54245790293E-03  0.43151320565E-02  0.19291703177E-01  0.10241541451E+01  0.10239631969E+01 0.  0.
     999903    2    3    3    0    0 -0.11429848341E+00 -0.65322965618E-01 -0.97096271438E-02  0.13349204105E+00  0.19864919248E-01 0.  0.
         14    1    1    2    0    0 -0.54245790293E-03 -0.43151320565E-02 -0.19291703177E-01  0.19775854892E-01  0.00000000000E+00 0.  1.
     999901    1    3    3    0    0  0.11484094131E+00  0.69638097675E-01  0.29001330320E-01  0.89066210406E+00  0.88000000000E+00 0. -1.
        -11    1    4    4    0    0 -0.37084540719E-01 -0.32145525394E-01 -0.25604013627E-02  0.49146869070E-01  0.51100000000E-03 0.  1.
         11    1    4    4    0    0 -0.77213942691E-01 -0.33177440224E-01 -0.71492257811E-02  0.84345171978E-01  0.51100000000E-03 0. -1.
</event>
<event>
 8    1  0.1114447E+005  0.1043930E+01  0.7957747E-01            NaN
         13   -1    0    0    0    0  0.00000000000E+00  0.00000000000E+00  0.74505805969E-08  0.10566000000E+00  0.10566000000E+00 0. -1.
     999900   -1    0    0    0    0 -0.00000000000E+00 -0.00000000000E+00 -0.74505805969E-08  0.93827000000E+00  0.93827000000E+00 0.  1.
     999902    2    1    2    0    0 -0.12129887715E-01  0.12045947533E-01  0.16513877056E-01  0.10201613828E+01  0.10198844541E+01 0.  0.
     999903    2    3    3    0    0  0.36580493138E-01  0.12283307448E+00 -0.19680279493E-01  0.13114141359E+00  0.19612758432E-01 0.  0.
         14    1    1    2    0    0  0.12129887715E-01 -0.12045947533E-01 -0.16513877056E-01  0.23768617195E-01  0.00000000000E+00 0.  1.
     999901    1    3    3    0    0 -0.48710380854E-01 -0.11078712694E+00  0.36194156549E-01  0.88901996922E+00  0.88000000000E+00 0. -1.
        -11    1    4    4    0    0  0.27820165682E-01  0.64781434616E-01 -0.16112429550E-01  0.72321970358E-01  0.51100000000E-03 0. -1.
         11    1    4    4    0    0  0.87603274560E-02  0.58051639860E-01 -0.35678499429E-02  0.58819443229E-01  0.51100000000E-03 0.  1.
</event>
<event>
 8    1  0.1114447E+005  0.1043930E+01  0.7957747E-01            NaN
         13   -1    0    0    0    0  0.00000000000E+00  0.00000000000E+00  0.74505805969E-08  0.10566000000E+00  0.10566000000E+00 0. -1.
     999900   -1    0    0    0    0 -0.00000000000E+00 -0.00000000000E+00 -0.74505805969E-08  0.93827000000E+00  0.93827000000E+00 0.  1.
     999902    2    1    2    0    0 -0.21673780374E-01 -0.75098136402E-02  0.58899760045E-02  0.10202478997E+01  0.10199730070E+01 0.  0.
     999903    2    3    3    0    0 -0.53906554821E-02  0.93774799779E-01  0.87310853008E-01  0.13055521553E+00  0.24468490145E-01 0.  0.
         14    1    1    2    0    0  0.21673780374E-01  0.75098136402E-02 -0.58899760045E-02  0.23682100286E-01  0.00000000000E+00 0. -1.
     999901    1    3    3    0    0 -0.16283124892E-01 -0.10128461342E+00 -0.81420877003E-01  0.88969268418E+00  0.88000000000E+00 0.  1.
        -11    1    4    4    0    0 -0.14880301547E-01  0.46147436609E-01  0.44467458283E-01  0.65792288658E-01  0.51100000000E-03 0. -1.
         11    1    4    4    0    0  0.94896460647E-02  0.47627363170E-01  0.42843394725E-01  0.64762926876E-01  0.51100000000E-03 0.  1.
</event>
<event>
 8    1  0.1114447E+005  0.1043930E+01  0.7957747E-01            NaN
         13   -1    0    0    0    0  0.00000000000E+00  0.00000000000E+00  0.74505805969E-08  0.10566000000E+00  0.10566000000E+00 0.  1.
     999900   -1    0    0    0    0 -0.00000000000E+00 -0.00000000000E+00 -0.74505805969E-08  0.93827000000E+00  0.93827000000E+00 0. -1.
     999902    2    1    2    0    0 -0.69174963876E-02  0.74951511049E-02  0.33248583206E-01  0.10091521718E+01  0.10085527297E+01 0.  0.
     999903    2    3    3    0    0  0.84169423123E-01  0.55075402728E-01  0.67091694493E-01  0.12252594652E+00  0.19837346726E-01 0.  0.
         14    1    1    2    0    0  0.69174963876E-02 -0.74951511049E-02 -0.33248583206E-01  0.34777828160E-01  0.00000000000E+00 0.  1.
     999901    1    3    3    0    0 -0.91086919511E-01 -0.47580251624E-01 -0.33843111287E-01  0.88662622532E+00  0.88000000000E+00 0. -1.
        -11    1    4    4    0    0  0.76294751726E-01  0.45759109342E-01  0.51763714874E-01  0.10292972616E+00  0.51100000000E-03 0.  1.
         11    1    4    4    0    0  0.78746713975E-02  0.93162933860E-02  0.15327979618E-01  0.19596220356E-01  0.51100000000E-03 0. -1.
</event>
<event>
 8    1  0.1114447E+005  0.1043930E+01  0.7957747E-01            NaN
         13   -1    0    0    0    0  0.00000000000E+00  0.00000000000E+00  0.74505805969E-08  0.10566000000E+00  0.10566000000E+00 0.  1.
     999900   -1    0    0    0    0 -0.00000000000E+00 -0.00000000000E+00 -0.74505805969E-08  0.93827000000E+00  0.93827000000E+00 0.  1.
     999902    2    1    2    0    0 -0.11596456401E-01 -0.81183451531E-02  0.19251638497E-01  0.10200341653E+01  0.10197542290E+01 0.  0.
     999903    2    3    3    0    0 -0.87925304704E-01  0.65977671339E-01  0.70370209612E-01  0.13215499504E+00  0.20713859886E-01 0.  0.
         14    1    1    2    0    0  0.11596456401E-01  0.81183451531E-02 -0.19251638497E-01  0.23895834656E-01  0.00000000000E+00 0. -1.
     999901    1    3    3    0    0  0.76328848302E-01 -0.74096016492E-01 -0.51118571115E-01  0.88787917030E+00  0.88000000000E+00 0.  1.
        -11    1    4    4    0    0 -0.30192629373E-01  0.27725354853E-01  0.37230207483E-01  0.55377248401E-01  0.51100000000E-03 0.  1.
         11    1    4    4    0    0 -0.57732675330E-01  0.38252316485E-01  0.33140002129E-01  0.76777746642E-01  0.51100000000E-03 0. -1.
</event>
<event>
 8    1  0.1114447E+005  0.1043930E+01  0.7957747E-01            NaN
         13   -1    0    0    0    0  0.00000000000E+00  0.00000000000E+00  0.74505805969E-08  0.10566000000E+00  0.10566000000E+00 0. -1.
     999900   -1    0    0    0    0 -0.00000000000E+00 -0.00000000000E+00 -0.74505805969E-08  0.93827000000E+00  0.93827000000E+00 0.  1.
     999902    2    1    2    0    0  0.24058858651E-02  0.23779597944E-01  0.40772328297E-02  0.10196837345E+01  0.10193954272E+01 0.  0.
     999903    2    3    3    0    0  0.57073528008E-01  0.17301927468E-01  0.11497073289E+00  0.13101738556E+00  0.19762125492E-01 0.  0.
         14    1    1    2    0    0 -0.24058858651E-02 -0.23779597944E-01 -0.40772328297E-02  0.24246265542E-01  0.00000000000E+00 0.  1.
     999901    1    3    3    0    0 -0.54667642143E-01  0.64776704763E-02 -0.11089350006E+00  0.88866634890E+00  0.88000000000E+00 0.  1.
        -11    1    4    4    0    0  0.21163465621E-01  0.16018062270E-01  0.55709915674E-01  0.61711639270E-01  0.51100000000E-03 0. -1.
         11    1    4    4    0    0  0.35910062388E-01  0.12838651973E-02  0.59260817215E-01  0.69305746288E-01  0.51100000000E-03 0.  1.
</event>
<event>
 8    1  0.1114447E+005  0.1043930E+01  0.7957747E-01            NaN
         13   -1    0    0    0    0  0.00000000000E+00  0.00000000000E+00  0.74505805969E-08  0.10566000000E+00  0.10566000000E+00 0.  1.
     999900   -1    0    0    0    0 -0.00000000000E+00 -0.00000000000E+00 -0.74505805969E-08  0.93827000000E+00  0.93827000000E+00 0. -1.
     999902    2    1    2    0    0  0.16232799858E-01  0.28320150991E-02 -0.17203054273E-01  0.10201083884E+01  0.10198302089E+01 0.  0.
     999903    2    3    3    0    0  0.95712519504E-01  0.32191047943E-01 -0.84873979634E-01  0.13345268707E+00  0.20220714861E-01 0.  0.
         14    1    1    2    0    0 -0.16232799858E-01 -0.28320150991E-02  0.17203054273E-01  0.23821611555E-01  0.00000000000E+00 0.  1.
     999901    1    3    3    0    0 -0.79479719646E-01 -0.29359032844E-01  0.67670925362E-01  0.88665570138E+00  0.88000000000E+00 0.  1.
        -11    1    4    4    0    0  0.46842001284E-01  0.11494048277E-01 -0.52451627172E-01  0.71258126162E-01  0.51100000000E-03 0.  1.
         11    1    4    4    0    0  0.48870518220E-01  0.20696999665E-01 -0.32422352462E-01  0.62194560907E-01  0.51100000000E-03 0. -1.
</event>
<event>
 8    1  0.1114447E+005  0.1043930E+01  0.7957747E-01            NaN
         13   -1    0    0    0    0  0.00000000000E+00  0.00000000000E+00  0.74505805969E-08  0.10566000000E+00  0.10566000000E+00 0. -1.
     999900   -1    0    0    0    0 -0.00000000000E+00 -0.00000000000E+00 -0.74505805969E-08  0.93827000000E+00  0.93827000000E+00 0.  1.
     999902    2    1    2    0    0  0.12305957404E-01 -0.12497253404E-01  0.12922003993E-01  0.10221447730E+01  0.10219125896E+01 0.  0.
     999903    2    3    3    0    0 -0.12862317623E+00  0.95458206474E-02  0.42878812113E-02  0.13061717052E+00  0.20184527631E-01 0.  0.
         14    1    1    2    0    0 -0.12305957404E-01  0.12497253404E-01 -0.12922003993E-01  0.21785227047E-01  0.00000000000E+00 0.  1.
     999901    1    3    3    0    0  0.14092913363E+00 -0.22043074051E-01  0.86341227819E-02  0.89152760243E+00  0.88000000000E+00 0. -1.
        -11    1    4    4    0    0 -0.10211476872E+00  0.57834094773E-03  0.77686955322E-02  0.10241276395E+00  0.51100000000E-03 0. -1.
         11    1    4    4    0    0 -0.26508407510E-01  0.89674796997E-02 -0.34808143208E-02  0.28204406574E-01  0.51100000000E-03 0.  1.
</event>
<event>
 8    1  0.1523468E+005  0.1043930E+01  0.7957747E-01            NaN
         13   -1    0    0    0    0  0.00000000000E+00  0.00000000000E+00  0.74505805969E-08  0.10566000000E+00  0.10566000000E+00 0.  1.
     999900   -1    0    0    0    0 -0.00000000000E+00 -0.00000000000E+00 -0.74505805969E-08  0.93827000000E+00  0.93827000000E+00 0.  1.
     999902    2    1    2    0    0 -0.15451637236E-01  0.16670793796E-01  0.46989545678E-02  0.10207190407E+01  0.10204551001E+01 0.  0.
     999903    2    3    3    0    0 -0.11457610034E-02  0.16901714468E-01  0.12996975165E+00  0.13173226685E+00  0.13201252465E-01 0.  0.
         14    1    1    2    0    0  0.15451637236E-01 -0.16670793796E-01 -0.46989545678E-02  0.23210959331E-01  0.00000000000E+00 0. -1.
     999901    1    3    3    0    0 -0.14305876232E-01 -0.23092067203E-03 -0.12527079708E+00  0.88898677382E+00  0.88000000000E+00 0.  1.
        -11    1    4    4    0    0 -0.13430312124E-03  0.14764207023E-01  0.62622577342E-01  0.64341651831E-01  0.51100000000E-03 0. -1.
         11    1    4    4    0    0 -0.10114578821E-02  0.21375074447E-02  0.67347174305E-01  0.67390615021E-01  0.51100000000E-03 0.  1.
</event>
<event>
 8    1  0.1114447E+005  0.1043930E+01  0.7957747E-01            NaN
         13   -1    0    0    0    0  0.00000000000E+00  0.00000000000E+00  0.74505805969E-08  0.10566000000E+00  0.10566000000E+00 0.  1.
     999900   -1    0    0    0    0 -0.00000000000E+00 -0.00000000000E+00 -0.74505805969E-08  0.93827000000E+00  0.93827000000E+00 0. -1.
     999902    2    1    2    0    0  0.13711506031E-01  0.15421195795E-01  0.12349260626E-01  0.10198816546E+01  0.10195980907E+01 0.  0.
     999903    2    3    3    0    0  0.97588879197E-01  0.87172697429E-01 -0.59700697914E-02  0.13279694075E+00  0.21833854901E-01 0.  0.
         14    1    1    2    0    0 -0.13711506031E-01 -0.15421195795E-01 -0.12349260626E-01  0.24048345378E-01  0.00000000000E+00 0. -1.
     999901    1    3    3    0    0 -0.83877373166E-01 -0.71751501634E-01  0.18319330418E-01  0.88708471387E+00  0.88000000000E+00 0.  1.
        -11    1    4    4    0    0  0.55638257999E-01  0.44423759969E-01 -0.13374184588E-01  0.72444572863E-01  0.51100000000E-03 0. -1.
         11    1    4    4    0    0  0.41950621198E-01  0.42748937461E-01  0.74041147967E-02  0.60352367889E-01  0.51100000000E-03 0.  1.
</event>
<event>
 8    1  0.1114447E+005  0.1043930E+01  0.7957747E-01            NaN
         13   -1    0    0    0    0  0.00000000000E+00  0.00000000000E+00  0.74505805969E-08  0.10566000000E+00  0.10566000000E+00 0. -1.
     999900   -1    0    0    0    0 -0.00000000000E+00 -0.00000000000E+00 -0.74505805969E-08  0.93827000000E+00  0.93827000000E+00 0. -1.
     999902    2    1    2    0    0  0.12981129937E-01  0.15592263364E-01 -0.12230022589E-01  0.10202403005E+01  0.10199652292E+01 0.  0.
     999903    2    3    3    0    0  0.31373567509E-02 -0.70596565429E-01 -0.10822540973E+00  0.13077949277E+00  0.19920300240E-01 0.  0.
         14    1    1    2    0    0 -0.12981129937E-01 -0.15592263364E-01  0.12230022589E-01  0.23689699530E-01  0.00000000000E+00 0. -1.
     999901    1    3    3    0    0  0.98437731865E-02  0.86188828793E-01  0.95995387137E-01  0.88946080770E+00  0.88000000000E+00 0.  1.
        -11    1    4    4    0    0  0.67568029415E-02 -0.19301052760E-01 -0.19691230663E-01  0.28393497665E-01  0.51100000000E-03 0.  1.
         11    1    4    4    0    0 -0.36194461906E-02 -0.51295512669E-01 -0.88534179063E-01  0.10238599511E+00  0.51100000000E-03 0. -1.
</event>
<event>
 8    1  0.1114447E+005  0.1043930E+01  0.7957747E-01            NaN
         13   -1    0    0    0    0  0.00000000000E+00  0.00000000000E+00  0.74505805969E-08  0.10566000000E+00  0.10566000000E+00 0. -1.
     999900   -1    0    0    0    0 -0.00000000000E+00 -0.00000000000E+00 -0.74505805969E-08  0.93827000000E+00  0.93827000000E+00 0. -1.
     999902    2    1    2    0    0 -0.87137045421E-02  0.12197606485E-01  0.18819578565E-01  0.10198699337E+01  0.10195860900E+01 0.  0.
     999903    2    3    3    0    0  0.65989981454E-01 -0.85811031617E-01 -0.64123312976E-01  0.12742057546E+00  0.20149267592E-01 0.  0.
         14    1    1    2    0    0  0.87137045421E-02 -0.12197606485E-01 -0.18819578565E-01  0.24060066254E-01  0.00000000000E+00 0.  1.
     999901    1    3    3    0    0 -0.74703685996E-01  0.98008638102E-01  0.82942891541E-01  0.89244935828E+00  0.88000000000E+00 0.  1.
        -11    1    4    4    0    0  0.61208138490E-01 -0.85650822228E-01 -0.61847205399E-01  0.12209765560E+00  0.51100000000E-03 0. -1.
         11    1    4    4    0    0  0.47818429642E-02 -0.16020938946E-03 -0.22761075774E-02  0.53229198648E-02  0.51100000000E-03 0.  1.
</event>
<event>
 8    1  0.1114447E+005  0.1043930E+01  0.7957747E-01            NaN
         13   -1    0    0    0    0  0.00000000000E+00  0.00000000000E+00  0.74505805969E-08  0.10566000000E+00  0.10566000000E+00 0.  1.
     999900   -1    0    0    0    0 -0.00000000000E+00 -0.00000000000E+00 -0.74505805969E-08  0.93827000000E+00  0.93827000000E+00 0. -1.
     999902    2    1    2    0    0  0.94568696710E-02 -0.16744462242E-01 -0.15478797874E-01  0.10192439192E+01  0.10189449270E+01 0.  0.
     999903    2    3    3    0    0 -0.40452216329E-01 -0.12274664930E+00 -0.13141780079E-01  0.13147545721E+00  0.20247660225E-01 0.  0.
         14    1    1    2    0    0 -0.94568696710E-02  0.16744462242E-01  0.15478797874E-01  0.24686080761E-01  0.00000000000E+00 0.  1.
     999901    1    3    3    0    0  0.49909086000E-01  0.10600218706E+00 -0.23370177945E-02  0.88776846203E+00  0.88000000000E+00 0.  1.
        -11    1    4    4    0    0 -0.55748797726E-02 -0.43566386062E-01 -0.91058905316E-02  0.44858529204E-01  0.51100000000E-03 0.  1.
         11    1    4    4    0    0 -0.34877336556E-01 -0.79180263235E-01 -0.40358895474E-02  0.86616928003E-01  0.51100000000E-03 0. -1.
</event>
<event>
 8    1  0.1114447E+005  0.1043930E+01  0.7957747E-01            NaN
         13   -1    0    0    0    0  0.00000000000E+00  0.00000000000E+00  0.74505805969E-08  0.10566000000E+00  0.10566000000E+00 0. -1.
     999900   -1    0    0    0    0 -0.00000000000E+00 -0.00000000000E+00 -0.74505805969E-08  0.93827000000E+00  0.93827000000E+00 0.  1.
     999902    2    1    2    0    0  0.16995115542E-01 -0.12392816005E-01  0.88986772215E-02  0.10210913858E+01  0.10208359398E+01 0.  0.
     999903    2    3    3    0    0  0.27165424270E-01  0.88287910589E-01 -0.89076322503E-01  0.12989042956E+00  0.20105149314E-01 0.  0.
         14    1    1    2    0    0 -0.16995115542E-01  0.12392816005E-01 -0.88986772215E-02  0.22838614168E-01  0.00000000000E+00 0.  1.
     999901    1    3    3    0    0 -0.10170308728E-01 -0.10068072659E+00  0.97974999725E-01  0.89120095627E+00  0.88000000000E+00 0. -1.
        -11    1    4    4    0    0  0.21653662920E-01  0.41810461153E-01 -0.52224137942E-01  0.70317974121E-01  0.51100000000E-03 0.  1.
         11    1    4    4    0    0  0.55117613504E-02  0.46477449436E-01 -0.36852184561E-01  0.59572455440E-01  0.51100000000E-03 0. -1.
</event>
<event>
 8    1  0.1114447E+005  0.1043930E+01  0.7957747E-01            NaN
         13   -1    0    0    0    0  0.00000000000E+00  0.00000000000E+00  0.74505805969E-08  0.10566000000E+00  0.10566000000E+00 0. -1.
     999900   -1    0    0    0    0 -0.00000000000E+00 -0.00000000000E+00 -0.74505805969E-08  0.93827000000E+00  0.93827000000E+00 0.  1.
     999902    2    1    2    0    0 -0.20303573145E-01 -0.40242867894E-02  0.11064204133E-01  0.10204598790E+01  0.10201899422E+01 0.  0.
     999903    2    3    3    0    0  0.10934122082E+00 -0.64942047576E-01  0.12087147130E-01  0.12887713321E+00  0.17036555510E-01 0.  0.
         14    1    1    2    0    0  0.20303573145E-01  0.40242867894E-02 -0.11064204133E-01  0.23470120999E-01  0.00000000000E+00 0.  1.
     999901    1    3    3    0    0 -0.12964479397E+00  0.60917760786E-01 -0.10229429963E-02  0.89158274579E+00  0.88000000000E+00 0.  1.
        -11    1    4    4    0    0  0.11186810584E-02 -0.29332357835E-02 -0.12899286138E-02  0.34322523656E-02  0.51100000000E-03 0. -1.
         11    1    4    4    0    0  0.10822253977E+00 -0.62008811792E-01  0.13377075743E-01  0.12544488084E+00  0.51100000000E-03 0.  1.
</event>
<event>
 8    1  0.1114447E+005  0.1043930E+01  0.7957747E-01            NaN
         13   -1    0    0    0    0  0.00000000000E+00  0.00000000000E+00  0.74505805969E-08  0.10566000000E+00  0.10566000000E+00 0. -1.
     999900   -1    0    0    0    0 -0.00000000000E+00 -0.00000000000E+00 -0.74505805969E-08  0.93827000000E+00  0.93827000000E+00 0. -1.
     999902    2    1    2    0    0 -0.16588766098E-01 -0.12389729323E-01  0.12971134009E-01  0.10194975857E+01  0.10192047803E+01 0.  0.
     999903    2    3    3    0    0 -0.76875650408E-01  0.80423918157E-01  0.66336528369E-01  0.13096129101E+00  0.19299028733E-01 0.  0.
         14    1    1    2    0    0  0.16588766098E-01  0.12389729323E-01 -0.12971134009E-01  0.24432414348E-01  0.00000000000E+00 0.  1.
     999901    1    3    3    0    0  0.60286884310E-01 -0.92813647480E-01 -0.53365394360E-01  0.88853629464E+00  0.88000000000E+00 0. -1.
        -11    1    4    4    0    0 -0.29558880198E-01  0.19028576961E-01  0.16758698951E-01  0.38947775947E-01  0.51100000000E-03 0.  1.
         11    1    4    4    0    0 -0.47316770210E-01  0.61395341196E-01  0.49577829418E-01  0.92013515064E-01  0.51100000000E-03 0. -1.
</event>
<event>
 8    1  0.1114447E+005  0.1043930E+01  0.7957747E-01            NaN
         13   -1    0    0    0    0  0.00000000000E+00  0.00000000000E+00  0.74505805969E-08  0.10566000000E+00  0.10566000000E+00 0. -1.
     999900   -1    0    0    0    0 -0.00000000000E+00 -0.00000000000E+00 -0.74505805969E-08  0.93827000000E+00  0.93827000000E+00 0. -1.
     999902    2    1    2    0    0 -0.15691083412E-01 -0.40489434513E-02 -0.17878304850E-01  0.10198003952E+01  0.10195148887E+01 0.  0.
     999903    2    3    3    0    0  0.41103769131E-01  0.98627341296E-01 -0.72026392079E-01  0.13036231978E+00  0.19739832168E-01 0.  0.
         14    1    1    2    0    0  0.15691083412E-01  0.40489434513E-02  0.17878304850E-01  0.24129604763E-01  0.00000000000E+00 0. -1.
     999901    1    3    3    0    0 -0.56794852544E-01 -0.10267628475E+00  0.54148087229E-01  0.88943807546E+00  0.88000000000E+00 0.  1.
        -11    1    4    4    0    0  0.31733035014E-01  0.50677671389E-01 -0.40135055588E-01  0.72015940574E-01  0.51100000000E-03 0.  1.
         11    1    4    4    0    0  0.93707341174E-02  0.47949669907E-01 -0.31891336491E-01  0.58346379204E-01  0.51100000000E-03 0. -1.
</event>
<event>
 8    1  0.1114447E+005  0.1043930E+01  0.7957747E-01            NaN
         13   -1    0    0    0    0  0.00000000000E+00  0.00000000000E+00  0.74505805969E-08  0.10566000000E+00  0.10566000000E+00 0.  1.
     999900   -1    0    0    0    0 -0.00000000000E+00 -0.00000000000E+00 -0.74505805969E-08  0.93827000000E+00  0.93827000000E+00 0. -1.
     999902    2    1    2    0    0  0.17609214388E-01  0.92253497636E-02 -0.12465353899E-01  0.10204656322E+01  0.10201958292E+01 0.  0.
     999903    2    3    3    0    0  0.11791046330E+00  0.19919259124E-01  0.52930946291E-01  0.13229257679E+00  0.19999663978E-01 0.  0.
         14    1    1    2    0    0 -0.17609214388E-01 -0.92253497636E-02  0.12465353899E-01  0.23464367826E-01  0.00000000000E+00 0.  1.
     999901    1    3    3    0    0 -0.10030124891E+00 -0.10693909360E-01 -0.65396300190E-01  0.88817305538E+00  0.88000000000E+00 0. -1.
        -11    1    4    4    0    0  0.95764125958E-01  0.22449632299E-01  0.37939348705E-01  0.10542489797E+00  0.51100000000E-03 0. -1.
         11    1    4    4    0    0  0.22146337342E-01 -0.25303731749E-02  0.14991597586E-01  0.26867678821E-01  0.51100000000E-03 0.  1.
</event>
<event>
 8    1  0.1114447E+005  0.1043930E+01  0.7957747E-01            NaN
         13   -1    0    0    0    0  0.00000000000E+00  0.00000000000E+00  0.74505805969E-08  0.10566000000E+00  0.10566000000E+00 0.  1.
     999900   -1    0    0    0    0 -0.00000000000E+00 -0.00000000000E+00 -0.74505805969E-08  0.93827000000E+00  0.93827000000E+00 0.  1.
     999902    2    1    2    0    0 -0.23580901222E-02 -0.11411860211E-02  0.23633560202E-01  0.10201516892E+01  0.10198745320E+01 0.  0.
     999903    2    3    3    0    0  0.61590159743E-02 -0.12147274321E+00 -0.39935548469E-01  0.12965000125E+00  0.20511313205E-01 0.  0.
         14    1    1    2    0    0  0.23580901222E-02  0.11411860211E-02 -0.23633560202E-01  0.23778310755E-01  0.00000000000E+00 0. -1.
     999901    1    3    3    0    0 -0.85171060965E-02  0.12033155719E+00  0.63569108671E-01  0.89050168800E+00  0.88000000000E+00 0. -1.
        -11    1    4    4    0    0  0.11517989044E-01 -0.38468914875E-01 -0.13716602267E-01  0.42437339479E-01  0.51100000000E-03 0. -1.
         11    1    4    4    0    0 -0.53589730697E-02 -0.83003828339E-01 -0.26218946202E-01  0.87212661766E-01  0.51100000000E-03 0.  1.
</event>
<event>
 8    1  0.1114447E+005  0.1043930E+01  0.7957747E-01            NaN
         13   -1    0    0    0    0  0.00000000000E+00  0.00000000000E+00  0.74505805969E-08  0.10566000000E+00  0.10566000000E+00 0. -1.
     999900   -1    0    0    0    0 -0.00000000000E+00 -0.00000000000E+00 -0.74505805969E-08  0.93827000000E+00  0.93827000000E+00 0.  1.
     999902    2    1    2    0    0 -0.83900702345E-03 -0.19715086269E-01  0.13151465916E-01  0.10202160882E+01  0.10199404477E+01 0.  0.
     999903    2    3    3    0    0 -0.36872445402E-01  0.11759766429E+00 -0.28018433960E-01  0.12788870383E+00  0.19537145433E-01 0.  0.
         14    1    1    2    0    0  0.83900702345E-03  0.19715086269E-01 -0.13151465916E-01  0.23713911848E-01  0.00000000000E+00 0.  1.
     999901    1    3    3    0    0  0.36033438378E-01 -0.13731275055E+00  0.41169899876E-01  0.89232738432E+00  0.88000000000E+00 0. -1.
        -11    1    4    4    0    0 -0.89513439224E-02  0.55854609227E-01 -0.18145186477E-01  0.59408525005E-01  0.51100000000E-03 0. -1.
         11    1    4    4    0    0 -0.27921101480E-01  0.61743055058E-01 -0.98732474833E-02  0.68480178830E-01  0.51100000000E-03 0.  1.
</event>
<event>
 8    1  0.1114447E+005  0.1043930E+01  0.7957747E-01            NaN
         13   -1    0    0    0    0  0.00000000000E+00  0.00000000000E+00  0.74505805969E-08  0.10566000000E+00  0.10566000000E+00 0.  1.
     999900   -1    0    0    0    0 -0.00000000000E+00 -0.00000000000E+00 -0.74505805969E-08  0.93827000000E+00  0.93827000000E+00 0.  1.
     999902    2    1    2    0    0 -0.13711590909E-01  0.10015849407E-01 -0.16625977679E-01  0.10201655707E+01  0.10198887408E+01 0.  0.
     999903    2    3    3    0    0  0.10439705285E+00  0.11555194746E-02  0.71517278537E-01  0.12786663495E+00  0.18305063147E-01 0.  0.
         14    1    1    2    0    0  0.13711590909E-01 -0.10015849407E-01  0.16625977679E-01  0.23764429267E-01  0.00000000000E+00 0.  1.
     999901    1    3    3    0    0 -0.11810864376E+00  0.88603299320E-02 -0.88143256216E-01  0.89229893578E+00  0.88000000000E+00 0. -1.
        -11    1    4    4    0    0  0.60418313891E-01 -0.82811910883E-02  0.42608078824E-01  0.74395297441E-01  0.51100000000E-03 0. -1.
         11    1    4    4    0    0  0.43978738956E-01  0.94367105629E-02  0.28909199713E-01  0.53471337513E-01  0.51100000000E-03 0.  1.
</event>
<event>
 8    1  0.1114447E+005  0.1043930E+01  0.7957747E-01            NaN
         13   -1    0    0    0    0  0.00000000000E+00  0.00000000000E+00  0.74505805969E-08  0.10566000000E+00  0.10566000000E+00 0. -1.
     999900   -1    0    0    0    0 -0.00000000000E+00 -0.00000000000E+00 -0.74505805969E-08  0.93827000000E+00  0.93827000000E+00 0. -1.
     999902    2    1    2    0    0  0.20743187831E-01  0.96508551185E-02  0.10090440235E-02  0.10210294101E+01  0.10207725601E+01 0.  0.
     999903    2    3    3    0    0 -0.56210055367E-01  0.75268612258E-01  0.88810843272E-01  0.13089647196E+00  0.20532563723E-01 0.  0.
         14    1    1    2    0    0 -0.20743187831E-01 -0.96508551185E-02 -0.10090440235E-02  0.22900589856E-01  0.00000000000E+00 0. -1.
     999901    1    3    3    0    0  0.76953243198E-01 -0.65617757139E-01 -0.87801799249E-01  0.89013293819E+00  0.88000000000E+00 0. -1.
        -11    1    4    4    0    0 -0.28007741525E-01  0.53885271575E-01  0.57711677813E-01  0.83779203595E-01  0.51100000000E-03 0. -1.
         11    1    4    4    0    0 -0.28202313842E-01  0.21383340683E-01  0.31099165459E-01  0.47117268364E-01  0.51100000000E-03 0.  1.
</event>
<event>
 7    1  0.1114447E+005  0.1043930E+01  0.7957747E-01            NaN
         13   -1    0    0    0    0  0.00000000000E+00  0.00000000000E+00  0.74505805969E-08  0.10566000000E+00  0.10566000000E+00 0.  1.
     999900   -1    0    0    0    0 -0.00000000000E+00 -0.00000000000E+00 -0.74505805969E-08  0.93827000000E+00  0.93827000000E+00 0. -1.
     999903    2    1    2    0    0  0.93015650910E-01  0.58161572320E-01 -0.33032280183E-01  0.11645615266E+00  0.20885979749E-01 0.  0.
         14    1    1    2    0    0 -0.32672115259E-01  0.20594508512E-02  0.28404406887E-01  0.43341882561E-01  0.00000000000E+00 0.  1.
     999901    1    1    2    0    0 -0.60343535651E-01 -0.60221023172E-01  0.46278732960E-02  0.88413196478E+00  0.88000000000E+00 0.  1.
        -11    1    3    3    0    0  0.28195641561E-01  0.15216841724E-01 -0.18098106353E-03  0.32044349740E-01  0.51100000000E-03 0.  1.
         11    1    3    3    0    0  0.64820009349E-01  0.42944730597E-01 -0.32851299119E-01  0.84411802924E-01  0.51100000000E-03 0. -1.
</event>
<event>
 8    1  0.1114447E+005  0.1043930E+01  0.7957747E-01            NaN
         13   -1    0    0    0    0  0.00000000000E+00  0.00000000000E+00  0.74505805969E-08  0.10566000000E+00  0.10566000000E+00 0.  1.
     999900   -1    0    0    0    0 -0.00000000000E+00 -0.00000000000E+00 -0.74505805969E-08  0.93827000000E+00  0.93827000000E+00 0. -1.
     999902    2    1    2    0    0  0.20563702455E-01  0.10867632276E-01 -0.12113395357E-02  0.10206396880E+01  0.10203739188E+01 0.  0.
     999903    2    3    3    0    0  0.31579525544E-01 -0.59099370524E-01  0.11046037656E+00  0.13075918927E+00  0.20161070375E-01 0.  0.
         14    1    1    2    0    0 -0.20563702455E-01 -0.10867632276E-01  0.12113395357E-02  0.23290312008E-01  0.00000000000E+00 0. -1.
     999901    1    3    3    0    0 -0.11015823088E-01  0.69967002800E-01 -0.11167171609E+00  0.88988049873E+00  0.88000000000E+00 0. -1.
        -11    1    4    4    0    0  0.32920983115E-01 -0.45206987922E-01  0.85771388211E-01  0.10239362794E+00  0.51100000000E-03 0. -1.
         11    1    4    4    0    0 -0.13414575719E-02 -0.13892382601E-01  0.24688988345E-01  0.28365561324E-01  0.51100000000E-03 0.  1.
</event>
<event>
 8    1  0.1114447E+005  0.1043930E+01  0.7957747E-01            NaN
         13   -1    0    0    0    0  0.00000000000E+00  0.00000000000E+00  0.74505805969E-08  0.10566000000E+00  0.10566000000E+00 0. -1.
     999900   -1    0    0    0    0 -0.00000000000E+00 -0.00000000000E+00 -0.74505805969E-08  0.93827000000E+00  0.93827000000E+00 0.  1.
     999902    2    1    2    0    0 -0.20349564706E-02  0.74838389500E-02 -0.22830685939E-01  0.10198179882E+01  0.10195329028E+01 0.  0.
     999903    2    3    3    0    0 -0.41379485765E-01 -0.46719789532E-02 -0.12476388529E+00  0.13297745403E+00  0.19567498033E-01 0.  0.
         14    1    1    2    0    0  0.20349564706E-02 -0.74838389500E-02  0.22830685939E-01  0.24112011814E-01  0.00000000000E+00 0. -1.
     999901    1    3    3    0    0  0.39344529294E-01  0.12155817903E-01  0.10193319935E+00  0.88684053416E+00  0.88000000000E+00 0. -1.
        -11    1    4    4    0    0 -0.17762345555E-01 -0.11529854760E-01 -0.64397190898E-01  0.67791576077E-01  0.51100000000E-03 0.  1.
         11    1    4    4    0    0 -0.23617140210E-01  0.68578758069E-02 -0.60366694387E-01  0.65185877953E-01  0.51100000000E-03 0. -1.
</event>
<event>
 8    1  0.1114447E+005  0.1043930E+01  0.7957747E-01            NaN
         13   -1    0    0    0    0  0.00000000000E+00  0.00000000000E+00  0.74505805969E-08  0.10566000000E+00  0.10566000000E+00 0. -1.
     999900   -1    0    0    0    0 -0.00000000000E+00 -0.00000000000E+00 -0.74505805969E-08  0.93827000000E+00  0.93827000000E+00 0. -1.
     999902    2    1    2    0    0 -0.21022701459E-01 -0.69829106034E-02  0.91202874491E-02  0.10199739014E+01  0.10196925345E+01 0.  0.
     999903    2    3    3    0    0  0.98706335568E-01  0.35766169860E-01 -0.69395936746E-01  0.12737806696E+00  0.19677812846E-01 0.  0.
         14    1    1    2    0    0  0.21022701459E-01  0.69829106034E-02 -0.91202874491E-02  0.23956098603E-01  0.00000000000E+00 0. -1.
     999901    1    3    3    0    0 -0.11972903703E+00 -0.42749080463E-01  0.78516224195E-01  0.89259583443E+00  0.88000000000E+00 0.  1.
        -11    1    4    4    0    0  0.22828276331E-01  0.15248609791E-01 -0.24825139072E-01  0.37016198505E-01  0.51100000000E-03 0.  1.
         11    1    4    4    0    0  0.75878059237E-01  0.20517560068E-01 -0.44570797674E-01  0.90361868457E-01  0.51100000000E-03 0. -1.
</event>
<event>
 8    1  0.1114447E+005  0.1043930E+01  0.7957747E-01            NaN
         13   -1    0    0    0    0  0.00000000000E+00  0.00000000000E+00  0.74505805969E-08  0.10566000000E+00  0.10566000000E+00 0.  1.
     999900   -1    0    0    0    0 -0.00000000000E+00 -0.00000000000E+00 -0.74505805969E-08  0.93827000000E+00  0.93827000000E+00 0. -1.
     999902    2    1    2    0    0  0.14750799361E-02  0.27030494028E-02 -0.23739269220E-01  0.10199918455E+01  0.10197109050E+01 0.  0.
     999903    2    3    3    0    0  0.70312955886E-01 -0.22188101815E-01 -0.10879381035E+00  0.13286586938E+00  0.19519796307E-01 0.  0.
         14    1    1    2    0    0 -0.14750799361E-02 -0.27030494028E-02  0.23739269220E-01  0.23938154482E-01  0.00000000000E+00 0.  1.
     999901    1    3    3    0    0 -0.68837875949E-01  0.24891151218E-01  0.85054541130E-01  0.88712597614E+00  0.88000000000E+00 0.  1.
        -11    1    4    4    0    0  0.41583480073E-01 -0.22602134404E-01 -0.72310035975E-01  0.86423635184E-01  0.51100000000E-03 0.  1.
         11    1    4    4    0    0  0.28729475812E-01  0.41403258887E-03 -0.36483774375E-01  0.46442234195E-01  0.51100000000E-03 0. -1.
</event>
<event>
 8    1  0.1114447E+005  0.1043930E+01  0.7957747E-01            NaN
         13   -1    0    0    0    0  0.00000000000E+00  0.00000000000E+00  0.74505805969E-08  0.10566000000E+00  0.10566000000E+00 0. -1.
     999900   -1    0    0    0    0 -0.00000000000E+00 -0.00000000000E+00 -0.74505805969E-08  0.93827000000E+00  0.93827000000E+00 0.  1.
     999902    2    1    2    0    0  0.48154560074E-02  0.21608537302E-01 -0.88447686597E-02  0.10200899615E+01  0.10198113464E+01 0.  0.
     999903    2    3    3    0    0  0.12504384508E+00 -0.11925720851E-01  0.29761241467E-01  0.13044405669E+00  0.18754583995E-01 0.  0.
         14    1    1    2    0    0 -0.48154560074E-02 -0.21608537302E-01  0.88447686597E-02  0.23840038455E-01  0.00000000000E+00 0.  1.
     999901    1    3    3    0    0 -0.12022838908E+00  0.33534258154E-01 -0.38606010127E-01  0.88964590486E+00  0.88000000000E+00 0. -1.
        -11    1    4    4    0    0  0.69792945263E-01  0.10459270940E-02  0.10974871462E-01  0.70660159189E-01  0.51100000000E-03 0. -1.
         11    1    4    4    0    0  0.55250899820E-01 -0.12971647945E-01  0.18786370005E-01  0.59783897500E-01  0.51100000000E-03 0.  1.
</event>
<event>
 8    1  0.1114447E+005  0.1043930E+01  0.7957747E-01            NaN
         13   -1    0    0    0    0  0.00000000000E+00  0.00000000000E+00  0.74505805969E-08  0.10566000000E+00  0.10566000000E+00 0. -1.
     999900   -1    0    0    0    0 -0.00000000000E+00 -0.00000000000E+00 -0.74505805969E-08  0.93827000000E+00  0.93827000000E+00 0.  1.
     999902    2    1    2    0    0 -0.21391672323E-01  0.76244956668E-02  0.17956079545E-02  0.10211492891E+01  0.10208951513E+01 0.  0.
     999903    2    3    3    0    0  0.54155812838E-01  0.31103015633E-01  0.11296140738E+00  0.13063455127E+00  0.20121053262E-01 0.  0.
         14    1    1    2    0    0  0.21391672323E-01 -0.76244956668E-02 -0.17956079545E-02  0.22780710851E-01  0.00000000000E+00 0. -1.
     999901    1    3    3    0    0 -0.75547485161E-01 -0.23478519966E-01 -0.11116579942E+00  0.89051473788E+00  0.88000000000E+00 0.  1.
        -11    1    4    4    0    0  0.40226744012E-01  0.17626053836E-01  0.60948699885E-01  0.75125720271E-01  0.51100000000E-03 0.  1.
         11    1    4    4    0    0  0.13929068827E-01  0.13476961797E-01  0.52012707491E-01  0.55508831002E-01  0.51100000000E-03 0. -1.
</event>
<event>
 8    1  0.1114447E+005  0.1043930E+01  0.7957747E-01            NaN
         13   -1    0    0    0    0  0.00000000000E+00  0.00000000000E+00  0.74505805969E-08  0.10566000000E+00  0.10566000000E+00 0. -1.
     999900   -1    0    0    0    0 -0.00000000000E+00 -0.00000000000E+00 -0.74505805969E-08  0.93827000000E+00  0.93827000000E+00 0. -1.
     999902    2    1    2    0    0  0.30245358852E-02 -0.17853937724E-01  0.15607985406E-01  0.10200235131E+01  0.10197433241E+01 0.  0.
     999903    2    3    3    0    0  0.15620414111E-01  0.99662231624E-01 -0.75493521343E-01  0.12746080336E+00  0.19246477063E-01 0.  0.
         14    1    1    2    0    0 -0.30245358852E-02  0.17853937724E-01 -0.15607985406E-01  0.23906486944E-01  0.00000000000E+00 0.  1.
     999901    1    3    3    0    0 -0.12595878226E-01 -0.11751616935E+00  0.91101506749E-01  0.89256270970E+00  0.88000000000E+00 0.  1.
        -11    1    4    4    0    0 -0.34197359923E-02  0.35644076945E-01 -0.23750048907E-01  0.42971161954E-01  0.51100000000E-03 0. -1.
         11    1    4    4    0    0  0.19040150104E-01  0.64018154679E-01 -0.51743472436E-01  0.84489641407E-01  0.51100000000E-03 0.  1.
</event>
<event>
 8    1  0.1114447E+005  0.1043930E+01  0.7957747E-01            NaN
         13   -1    0    0    0    0  0.00000000000E+00  0.00000000000E+00  0.74505805969E-08  0.10566000000E+00  0.10566000000E+00 0. -1.
     999900   -1    0    0    0    0 -0.00000000000E+00 -0.00000000000E+00 -0.74505805969E-08  0.93827000000E+00  0.93827000000E+00 0.  1.
     999902    2    1    2    0    0  0.98028820226E-02  0.20234318291E-01  0.51539098627E-02  0.10208629907E+01  0.10206023510E+01 0.  0.
     999903    2    3    3    0    0 -0.79533634904E-01  0.10332187306E+00  0.68285453903E-02  0.13244453103E+00  0.22224226313E-01 0.  0.
         14    1    1    2    0    0 -0.98028820226E-02 -0.20234318291E-01 -0.51539098627E-02  0.23067009332E-01  0.00000000000E+00 0. -1.
     999901    1    3    3    0    0  0.89336516927E-01 -0.83087554768E-01 -0.16746355276E-02  0.88841845963E+00  0.88000000000E+00 0.  1.
        -11    1    4    4    0    0 -0.29630558562E-02  0.10125700883E-02  0.33390580454E-02  0.46060208229E-02  0.51100000000E-03 0.  1.
         11    1    4    4    0    0 -0.76570579048E-01  0.10230930297E+00  0.34894873449E-02  0.12783851021E+00  0.51100000000E-03 0. -1.
</event>
<event>
 8    1  0.1114447E+005  0.1043930E+01  0.7957747E-01            NaN
         13   -1    0    0    0    0  0.00000000000E+00  0.00000000000E+00  0.74505805969E-08  0.10566000000E+00  0.10566000000E+00 0.  1.
     999900   -1    0    0    0    0 -0.00000000000E+00 -0.00000000000E+00 -0.74505805969E-08  0.93827000000E+00  0.93827000000E+00 0.  1.
     999902    2    1    2    0    0 -0.10992022067E-01  0.19505571179E-01 -0.74554758451E-02  0.10203317802E+01  0.10200588541E+01 0.  0.
     999903    2    3    3    0    0  0.16614892134E-01  0.13035990910E+00 -0.32396646706E-02  0.13293750540E+00  0.19802130513E-01 0.  0.
         14    1    1    2    0    0  0.10992022067E-01 -0.19505571179E-01  0.74554758451E-02  0.23598219768E-01  0.00000000000E+00 0.  1.
     999901    1    3    3    0    0 -0.27606914202E-01 -0.11085433792E+00 -0.42158111745E-02  0.88739427484E+00  0.88000000000E+00 0. -1.
        -11    1    4    4    0    0  0.17351805810E-01  0.58698358346E-01 -0.26244958105E-02  0.61267703862E-01  0.51100000000E-03 0.  1.
         11    1    4    4    0    0 -0.73691367546E-03  0.71661550754E-01 -0.61516886007E-03  0.71669801534E-01  0.51100000000E-03 0. -1.
</event>
<event>
 8    1  0.1114447E+005  0.1043930E+01  0.7957747E-01            NaN
         13   -1    0    0    0    0  0.00000000000E+00  0.00000000000E+00  0.74505805969E-08  0.10566000000E+00  0.10566000000E+00 0.  1.
     999900   -1    0    0    0    0 -0.00000000000E+00 -0.00000000000E+00 -0.74505805969E-08  0.93827000000E+00  0.93827000000E+00 0. -1.
     999902    2    1    2    0    0 -0.10748683754E-02 -0.94969781519E-02  0.21344942321E-01  0.10205429416E+01  0.10202749341E+01 0.  0.
     999903    2    3    3    0    0  0.10936753554E+00 -0.22771476285E-01 -0.62485983694E-01  0.12958763353E+00  0.20215307163E-01 0.  0.
         14    1    1    2    0    0  0.10748683754E-02  0.94969781519E-02 -0.21344942321E-01  0.23387058360E-01  0.00000000000E+00 0. -1.
     999901    1    3    3    0    0 -0.11044240392E+00  0.13274498133E-01  0.83830926015E-01  0.89095530811E+00  0.88000000000E+00 0.  1.
        -11    1    4    4    0    0  0.95987048349E-01 -0.18920575575E-01 -0.61629111368E-01  0.11562832750E+00  0.51100000000E-03 0. -1.
         11    1    4    4    0    0  0.13380487196E-01 -0.38509007100E-02 -0.85687232617E-03  0.13959306038E-01  0.51100000000E-03 0.  1.
</event>
<event>
 8    1  0.1114447E+005  0.1043930E+01  0.7957747E-01            NaN
         13   -1    0    0    0    0  0.00000000000E+00  0.00000000000E+00  0.74505805969E-08  0.10566000000E+00  0.10566000000E+00 0.  1.
     999900   -1    0    0    0    0 -0.00000000000E+00 -0.00000000000E+00 -0.74505805969E-08  0.93827000000E+00  0.93827000000E+00 0. -1.
     999902    2    1    2    0    0 -0.11173792127E-01  0.20153001236E-01 -0.70560905381E-02  0.10198305082E+01  0.10195457224E+01 0.  0.
     999903    2    3    3    0    0 -0.89058257569E-01 -0.56184468211E-01  0.72699212713E-01  0.12951915394E+00  0.20049139614E-01 0.  0.
         14    1    1    2    0    0  0.11173792127E-01 -0.20153001236E-01  0.70560905381E-02  0.24099491758E-01  0.00000000000E+00 0.  1.
     999901    1    3    3    0    0  0.77884465443E-01  0.76337469447E-01 -0.79755303251E-01  0.89031135430E+00  0.88000000000E+00 0. -1.
        -11    1    4    4    0    0 -0.55156918328E-01 -0.40522544907E-01  0.56738855593E-01  0.88903999574E-01  0.51100000000E-03 0.  1.
         11    1    4    4    0    0 -0.33901339242E-01 -0.15661923304E-01  0.15960357120E-01  0.40615154368E-01  0.51100000000E-03 0. -1.
</event>
<event>
 8    1  0.1114447E+005  0.1043930E+01  0.7957747E-01            NaN
         13   -1    0    0    0    0  0.00000000000E+00  0.00000000000E+00  0.74505805969E-08  0.10566000000E+00  0.10566000000E+00 0.  1.
     999900   -1    0    0    0    0 -0.00000000000E+00 -0.00000000000E+00 -0.74505805969E-08  0.93827000000E+00  0.93827000000E+00 0.  1.
     999902    2    1    2    0    0 -0.51408188225E-02 -0.22146230365E-01 -0.59301801439E-02  0.10204342435E+01  0.10201637098E+01 0.  0.
     999903    2    3    3    0    0 -0.62189910137E-01  0.26779227262E-01 -0.11040354231E+00  0.13107324669E+00  0.20162884390E-01 0.  0.
         14    1    1    2    0    0  0.51408188225E-02  0.22146230365E-01  0.59301801439E-02  0.23495756512E-01  0.00000000000E+00 0. -1.
     999901    1    3    3    0    0  0.57049091315E-01 -0.48925457627E-01  0.10447336217E+00  0.88936099680E+00  0.88000000000E+00 0. -1.
        -11    1    4    4    0    0 -0.16544701622E-02  0.59213960324E-02 -0.14514226558E-01  0.15770989064E-01  0.51100000000E-03 0.  1.
         11    1    4    4    0    0 -0.60535439975E-01  0.20857831230E-01 -0.95889315755E-01  0.11530225763E+00  0.51100000000E-03 0. -1.
</event>
<event>
 8    1  0.1114447E+005  0.1043930E+01  0.7957747E-01            NaN
         13   -1    0    0    0    0  0.00000000000E+00  0.00000000000E+00  0.74505805969E-08  0.10566000000E+00  0.10566000000E+00 0. -1.
     999900   -1    0    0    0    0 -0.00000000000E+00 -0.00000000000E+00 -0.74505805969E-08  0.93827000000E+00  0.93827000000E+00 0. -1.
     999902    2    1    2    0    0  0.84305395003E-02  0.73183217494E-04  0.19871861169E-01  0.10223436567E+01  0.10221157381E+01 0.  0.
     999903    2    3    3    0    0 -0.20775164614E-01  0.86409911194E-01 -0.93065255070E-01  0.13045700694E+00  0.21438487354E-01 0.  0.
         14    1    1    2    0    0 -0.84305395003E-02 -0.73183217494E-04 -0.19871861169E-01  0.21586343330E-01  0.00000000000E+00 0.  1.
     999901    1    3    3    0    0  0.29205704114E-01 -0.86336727977E-01  0.11293711624E+00  0.89188664973E+00  0.88000000000E+00 0.  1.
        -11    1    4    4    0    0  0.39538859588E-02  0.17568275664E-01 -0.22441285995E-01  0.28777594793E-01  0.51100000000E-03 0. -1.
         11    1    4    4    0    0 -0.24729050572E-01  0.68841635530E-01 -0.70623969075E-01  0.10167941214E+00  0.51100000000E-03 0.  1.
</event>
<event>
 8    1  0.1114447E+005  0.1043930E+01  0.7957747E-01            NaN
         13   -1    0    0    0    0  0.00000000000E+00  0.00000000000E+00  0.74505805969E-08  0.10566000000E+00  0.10566000000E+00 0. -1.
     999900   -1    0    0    0    0 -0.00000000000E+00 -0.00000000000E+00 -0.74505805969E-08  0.93827000000E+00  0.93827000000E+00 0.  1.
     999902    2    1    2    0    0  0.22503345274E-01 -0.59388175117E-03  0.65148129446E-02  0.10204950681E+01  0.10202259495E+01 0.  0.
     999903    2    3    3    0    0  0.12862611421E+00  0.92948324622E-02 -0.27749795875E-01  0.13340212363E+00  0.19874713895E-01 0.  0.
         14    1    1    2    0    0 -0.22503345274E-01  0.59388175117E-03 -0.65148129446E-02  0.23434931870E-01  0.00000000000E+00 0.  1.
     999901    1    3    3    0    0 -0.10612276893E+00 -0.98887142134E-02  0.34264608820E-01  0.88709294449E+00  0.88000000000E+00 0.  1.
        -11    1    4    4    0    0  0.91546342655E-01  0.15580638731E-01 -0.20401759798E-01  0.95078820358E-01  0.51100000000E-03 0.  1.
         11    1    4    4    0    0  0.37079771553E-01 -0.62858062690E-02 -0.73480360774E-02  0.38323303277E-01  0.51100000000E-03 0. -1.
</event>
<event>
 8    1  0.1114447E+005  0.1043930E+01  0.7957747E-01            NaN
         13   -1    0    0    0    0  0.00000000000E+00  0.00000000000E+00  0.74505805969E-08  0.10566000000E+00  0.10566000000E+00 0. -1.
     999900   -1    0    0    0    0 -0.00000000000E+00 -0.00000000000E+00 -0.74505805969E-08  0.93827000000E+00  0.93827000000E+00 0.  1.
     999902    2    1    2    0    0 -0.17802707454E-01  0.42565066801E-02  0.14996047309E-01  0.10202670400E+01  0.10199925966E+01 0.  0.
     999903    2    3    3    0    0  0.84508928708E-01  0.60129273435E-01 -0.73510839870E-01  0.12817797154E+00  0.16384756782E-01 0.  0.
         14    1    1    2    0    0  0.17802707454E-01 -0.42565066801E-02 -0.14996047309E-01  0.23662960015E-01  0.00000000000E+00 0.  1.
     999901    1    3    3    0    0 -0.10231163616E+00 -0.55872766755E-01  0.88506887179E-01  0.89208906844E+00  0.88000000000E+00 0. -1.
        -11    1    4    4    0    0  0.37077457255E-01  0.36044167592E-01 -0.38923683273E-01  0.64724292924E-01  0.51100000000E-03 0. -1.
         11    1    4    4    0    0  0.47431471452E-01  0.24085105843E-01 -0.34587156597E-01  0.63453678617E-01  0.51100000000E-03 0.  1.
</event>
<event>
 8    1  0.1114447E+005  0.1043930E+01  0.7957747E-01            NaN
         13   -1    0    0    0    0  0.00000000000E+00  0.00000000000E+00  0.74505805969E-08  0.10566000000E+00  0.10566000000E+00 0. -1.
     999900   -1    0    0    0    0 -0.00000000000E+00 -0.00000000000E+00 -0.74505805969E-08  0.93827000000E+00  0.93827000000E+00 0.  1.
     999902    2    1    2    0    0  0.35057146840E-03 -0.28592100558E-02  0.23442536321E-01  0.10203111412E+01  0.10200377318E+01 0.  0.
     999903    2    3    3    0    0 -0.52726341572E-01  0.11728974360E+00 -0.22990474163E-02  0.13019004892E+00  0.20179498758E-01 0.  0.
         14    1    1    2    0    0 -0.35057146840E-03  0.28592100558E-02 -0.23442536321E-01  0.23618858814E-01  0.00000000000E+00 0.  1.
     999901    1    3    3    0    0  0.53076913040E-01 -0.12014895365E+00  0.25741583738E-01  0.89012109227E+00  0.88000000000E+00 0.  1.
        -11    1    4    4    0    0 -0.25786909801E-01  0.40278029926E-01 -0.76021066132E-02  0.48428685278E-01  0.51100000000E-03 0.  1.
         11    1    4    4    0    0 -0.26939431770E-01  0.77011713673E-01  0.53030591969E-02  0.81761363643E-01  0.51100000000E-03 0. -1.
</event>
<event>
 8    1  0.1114447E+005  0.1043930E+01  0.7957747E-01            NaN
         13   -1    0    0    0    0  0.00000000000E+00  0.00000000000E+00  0.74505805969E-08  0.10566000000E+00  0.10566000000E+00 0. -1.
     999900   -1    0    0    0    0 -0.00000000000E+00 -0.00000000000E+00 -0.74505805969E-08  0.93827000000E+00  0.93827000000E+00 0. -1.
     999902    2    1    2    0    0  0.62452145817E-02 -0.98411200075E-02 -0.19488489523E-01  0.10212220373E+01  0.10209695381E+01 0.  0.
     999903    2    3    3    0    0  0.11950510800E+00  0.25786008342E-01 -0.47772426116E-01  0.13279810872E+00  0.20167893250E-01 0.  0.
         14    1    1    2    0    0 -0.62452145817E-02  0.98411200075E-02  0.19488489523E-01  0.22707962746E-01  0.00000000000E+00 0. -1.
     999901    1    3    3    0    0 -0.11325989341E+00 -0.35627128349E-01  0.28283936593E-01  0.88842392854E+00  0.88000000000E+00 0.  1.
        -11    1    4    4    0    0  0.73219020437E-01  0.20593417207E-01 -0.38710201581E-01  0.85345501425E-01  0.51100000000E-03 0. -1.
         11    1    4    4    0    0  0.46286087558E-01  0.51925911351E-02 -0.90622245357E-02  0.47452607291E-01  0.51100000000E-03 0.  1.
</event>
<event>
 8    1  0.1114447E+005  0.1043930E+01  0.7957747E-01            NaN
         13   -1    0    0    0    0  0.00000000000E+00  0.00000000000E+00  0.74505805969E-08  0.10566000000E+00  0.10566000000E+00 0.  1.
     999900   -1    0    0    0    0 -0.00000000000E+00 -0.00000000000E+00 -0.74505805969E-08  0.93827000000E+00  0.93827000000E+00 0.  1.
     999902    2    1    2    0    0 -0.14648139006E-01 -0.19102141451E-01  0.41966783877E-02  0.10194949454E+01  0.10192020760E+01 0.  0.
     999903    2    3    3    0    0 -0.58109515109E-03 -0.47520201425E-01  0.12061745339E+00  0.13126115595E+00  0.20552707427E-01 0.  0.
         14    1    1    2    0    0  0.14648139006E-01  0.19102141451E-01 -0.41966783877E-02  0.24435054611E-01  0.00000000000E+00 0. -1.
     999901    1    3    3    0    0 -0.14067043854E-01  0.28418059974E-01 -0.11642077500E+00  0.88823378944E+00  0.88000000000E+00 0.  1.
        -11    1    4    4    0    0  0.59078544868E-02 -0.37226108312E-01  0.73597201686E-01  0.82689147424E-01  0.51100000000E-03 0.  1.
         11    1    4    4    0    0 -0.64889496379E-02 -0.10294093113E-01  0.47020251706E-01  0.48572008522E-01  0.51100000000E-03 0. -1.
</event>
<event>
 8    1  0.1114447E+005  0.1043930E+01  0.7957747E-01            NaN
         13   -1    0    0    0    0  0.00000000000E+00  0.00000000000E+00  0.74505805969E-08  0.10566000000E+00  0.10566000000E+00 0.  1.
     999900   -1    0    0    0    0 -0.00000000000E+00 -0.00000000000E+00 -0.74505805969E-08  0.93827000000E+00  0.93827000000E+00 0. -1.
     999902    2    1    2    0    0  0.17530348221E-01  0.36517261241E-02  0.15957581477E-01  0.10199447416E+01  0.10196626812E+01 0.  0.
     999903    2    3    3    0    0 -0.11793298065E+00  0.23524346551E-01 -0.38322261628E-01  0.12770512366E+00  0.19453022075E-01 0.  0.
         14    1    1    2    0    0 -0.17530348221E-01 -0.36517261241E-02 -0.15957581477E-01  0.23985258369E-01  0.00000000000E+00 0. -1.
     999901    1    3    3    0    0  0.13546332887E+00 -0.19872620427E-01  0.54279843105E-01  0.89223961797E+00  0.88000000000E+00 0.  1.
        -11    1    4    4    0    0 -0.41186864570E-01  0.73105629965E-02 -0.23141534737E-01  0.47807885285E-01  0.51100000000E-03 0.  1.
         11    1    4    4    0    0 -0.76746116076E-01  0.16213783554E-01 -0.15180726891E-01  0.79897238374E-01  0.51100000000E-03 0. -1.
</event>
<event>
 7    1  0.1114447E+005  0.1043930E+01  0.7957747E-01            NaN
         13   -1    0    0    0    0  0.00000000000E+00  0.00000000000E+00  0.74505805969E-08  0.10566000000E+00  0.10566000000E+00 0.  1.
     999900   -1    0    0    0    0 -0.00000000000E+00 -0.00000000000E+00 -0.74505805969E-08  0.93827000000E+00  0.93827000000E+00 0.  1.
     999903    2    1    2    0    0  0.79009658380E-01 -0.10957075960E-01 -0.46667559582E-01  0.95163067601E-01  0.22706049565E-01 0.  0.
         14    1    1    2    0    0 -0.64234149907E-01  0.16161911462E-01 -0.91206386134E-02  0.66861195361E-01  0.00000000000E+00 0.  1.
     999901    1    1    2    0    0 -0.14775508473E-01 -0.52048355022E-02  0.55788198196E-01  0.88190573704E+00  0.88000000000E+00 0. -1.
        -11    1    3    3    0    0  0.31016947553E-01 -0.12673108073E-01 -0.27885405279E-01  0.43594903972E-01  0.51100000000E-03 0.  1.
         11    1    3    3    0    0  0.47992710828E-01  0.17160321132E-02 -0.18782154303E-01  0.51568163629E-01  0.51100000000E-03 0. -1.
</event>
<event>
 8    1  0.1114447E+005  0.1043930E+01  0.7957747E-01            NaN
         13   -1    0    0    0    0  0.00000000000E+00  0.00000000000E+00  0.74505805969E-08  0.10566000000E+00  0.10566000000E+00 0.  1.
     999900   -1    0    0    0    0 -0.00000000000E+00 -0.00000000000E+00 -0.74505805969E-08  0.93827000000E+00  0.93827000000E+00 0. -1.
     999902    2    1    2    0    0 -0.14162779654E-01  0.12311707876E-01  0.14421395624E-01  0.10202627414E+01  0.10199881972E+01 0.  0.
     999903    2    3    3    0    0  0.22897378512E-01 -0.98338104736E-01  0.79729215582E-01  0.13016052945E+00  0.19757095518E-01 0.  0.
         14    1    1    2    0    0  0.14162779654E-01 -0.12311707876E-01 -0.14421395624E-01  0.23667258610E-01  0.00000000000E+00 0.  1.
     999901    1    3    3    0    0 -0.37060158166E-01  0.11064981261E+00 -0.65307819958E-01  0.89010221194E+00  0.88000000000E+00 0. -1.
        -11    1    4    4    0    0  0.23057007232E-01 -0.56409010480E-01  0.46359317019E-01  0.76570552051E-01  0.51100000000E-03 0. -1.
         11    1    4    4    0    0 -0.15962872051E-03 -0.41929094256E-01  0.33369898563E-01  0.53589977398E-01  0.51100000000E-03 0.  1.
</event>
<event>
 8    1  0.1114447E+005  0.1043930E+01  0.7957747E-01            NaN
         13   -1    0    0    0    0  0.00000000000E+00  0.00000000000E+00  0.74505805969E-08  0.10566000000E+00  0.10566000000E+00 0.  1.
     999900   -1    0    0    0    0 -0.00000000000E+00 -0.00000000000E+00 -0.74505805969E-08  0.93827000000E+00  0.93827000000E+00 0.  1.
     999902    2    1    2    0    0 -0.18939947481E-01 -0.40341895408E-02 -0.12922637311E-01  0.10206493030E+01  0.10203837557E+01 0.  0.
     999903    2    3    3    0    0  0.65314699335E-01 -0.37891740586E-01  0.10204590945E+00  0.12853779318E+00  0.20169350192E-01 0.  0.
         14    1    1    2    0    0  0.18939947481E-01  0.40341895408E-02  0.12922637311E-01  0.23280696959E-01  0.00000000000E+00 0.  1.
     999901    1    3    3    0    0 -0.84254646816E-01  0.33857551045E-01 -0.11496854676E+00  0.89211150986E+00  0.88000000000E+00 0.  1.
        -11    1    4    4    0    0  0.43113712839E-02 -0.82801443977E-02  0.20130616837E-01  0.22195755649E-01  0.51100000000E-03 0.  1.
         11    1    4    4    0    0  0.61003328051E-01 -0.29611596188E-01  0.81915292615E-01  0.10634203754E+00  0.51100000000E-03 0. -1.
</event>
<event>
 8    1  0.1114447E+005  0.1043930E+01  0.7957747E-01            NaN
         13   -1    0    0    0    0  0.00000000000E+00  0.00000000000E+00  0.74505805969E-08  0.10566000000E+00  0.10566000000E+00 0.  1.
     999900   -1    0    0    0    0 -0.00000000000E+00 -0.00000000000E+00 -0.74505805969E-08  0.93827000000E+00  0.93827000000E+00 0. -1.
     999902    2    1    2    0    0 -0.18251178744E-01  0.81883893439E-02  0.12294523326E-01  0.10204499968E+01  0.10201798300E+01 0.  0.
     999903    2    3    3    0    0  0.12061958183E+00  0.40657938981E-01  0.35154114263E-03  0.12888844840E+00  0.20247395571E-01 0.  0.
         14    1    1    2    0    0  0.18251178744E-01 -0.81883893439E-02 -0.12294523326E-01  0.23480003181E-01  0.00000000000E+00 0. -1.
     999901    1    3    3    0    0 -0.13887076057E+00 -0.32469549638E-01  0.11942982183E-01  0.89156154842E+00  0.88000000000E+00 0. -1.
        -11    1    4    4    0    0  0.70093905158E-01  0.32218635131E-01  0.58436997066E-02  0.77366697857E-01  0.51100000000E-03 0. -1.
         11    1    4    4    0    0  0.50525676669E-01  0.84393038506E-02 -0.54921585639E-02  0.51521750543E-01  0.51100000000E-03 0.  1.
</event>
<event>
 8    1  0.1114447E+005  0.1043930E+01  0.7957747E-01            NaN
         13   -1    0    0    0    0  0.00000000000E+00  0.00000000000E+00  0.74505805969E-08  0.10566000000E+00  0.10566000000E+00 0. -1.
     999900   -1    0    0    0    0 -0.00000000000E+00 -0.00000000000E+00 -0.74505805969E-08  0.93827000000E+00  0.93827000000E+00 0.  1.
     999902    2    1    2    0    0 -0.10334662498E-01 -0.12578266270E-01  0.12364586156E-01  0.10234873724E+01  0.10232831966E+01 0.  0.
     999903    2    3    3    0    0  0.46552614345E-01  0.27738731360E-01  0.12083282357E+00  0.13409039633E+00  0.21049465920E-01 0.  0.
         14    1    1    2    0    0  0.10334662498E-01  0.12578266270E-01 -0.12364586156E-01  0.20442627574E-01  0.00000000000E+00 0.  1.
     999901    1    3    3    0    0 -0.56887276843E-01 -0.40316997631E-01 -0.10846823742E+00  0.88939697610E+00  0.88000000000E+00 0. -1.
        -11    1    4    4    0    0  0.21502984581E-01  0.19142290648E-01  0.83422559687E-01  0.88251856767E-01  0.51100000000E-03 0.  1.
         11    1    4    4    0    0  0.25049629764E-01  0.85964407121E-02  0.37410263884E-01  0.45838539561E-01  0.51100000000E-03 0. -1.
</event>
<event>
 8    1  0.1114447E+005  0.1043930E+01  0.7957747E-01            NaN
         13   -1    0    0    0    0  0.00000000000E+00  0.00000000000E+00  0.74505805969E-08  0.10566000000E+00  0.10566000000E+00 0.  1.
     999900   -1    0    0    0    0 -0.00000000000E+00 -0.00000000000E+00 -0.74505805969E-08  0.93827000000E+00  0.93827000000E+00 0. -1.
     999902    2    1    2    0    0 -0.67325973495E-02  0.18740550101E-01 -0.15082070671E-01  0.10189499091E+01  0.10186436631E+01 0.  0.
     999903    2    3    3    0    0  0.72737491680E-01 -0.86844483962E-01  0.53113630394E-01  0.12647338387E+00  0.18486535699E-01 0.  0.
         14    1    1    2    0    0  0.67325973495E-02 -0.18740550101E-01  0.15082070671E-01  0.24980090890E-01  0.00000000000E+00 0. -1.
     999901    1    3    3    0    0 -0.79470089029E-01  0.10558503406E+00 -0.68195701065E-01  0.89247652524E+00  0.88000000000E+00 0.  1.
        -11    1    4    4    0    0  0.61075065004E-01 -0.65380271632E-01  0.35064319110E-01  0.96096363508E-01  0.51100000000E-03 0. -1.
         11    1    4    4    0    0  0.11662426676E-01 -0.21464212330E-01  0.18049311284E-01  0.30377020357E-01  0.51100000000E-03 0.  1.
</event>
<event>
 8    1  0.1114447E+005  0.1043930E+01  0.7957747E-01            NaN
         13   -1    0    0    0    0  0.00000000000E+00  0.00000000000E+00  0.74505805969E-08  0.10566000000E+00  0.10566000000E+00 0. -1.
     999900   -1    0    0    0    0 -0.00000000000E+00 -0.00000000000E+00 -0.74505805969E-08  0.93827000000E+00  0.93827000000E+00 0. -1.
     999902    2    1    2    0    0  0.21230841354E-01  0.67379451952E-03 -0.86248979299E-02  0.10210042178E+01  0.10207467959E+01 0.  0.
     999903    2    3    3    0    0 -0.17297326066E-01 -0.11464717996E+00 -0.58291538568E-01  0.13125699416E+00  0.19680490003E-01 0.  0.
         14    1    1    2    0    0 -0.21230841354E-01 -0.67379451952E-03  0.86248979299E-02  0.22925782166E-01  0.00000000000E+00 0. -1.
     999901    1    3    3    0    0  0.38528167420E-01  0.11532097448E+00  0.49666640638E-01  0.88974722367E+00  0.88000000000E+00 0. -1.
        -11    1    4    4    0    0 -0.92782309636E-02 -0.49796844432E-01 -0.14848827715E-01  0.52787878255E-01  0.51100000000E-03 0. -1.
         11    1    4    4    0    0 -0.80190951024E-02 -0.64850335525E-01 -0.43442710852E-01  0.78469115907E-01  0.51100000000E-03 0.  1.
</event>
<event>
 8    1  0.1114447E+005  0.1043930E+01  0.7957747E-01            NaN
         13   -1    0    0    0    0  0.00000000000E+00  0.00000000000E+00  0.74505805969E-08  0.10566000000E+00  0.10566000000E+00 0. -1.
     999900   -1    0    0    0    0 -0.00000000000E+00 -0.00000000000E+00 -0.74505805969E-08  0.93827000000E+00  0.93827000000E+00 0.  1.
     999902    2    1    2    0    0 -0.22428039835E-01 -0.67610738311E-02 -0.25149487506E-02  0.10203704147E+01  0.10200983919E+01 0.  0.
     999903    2    3    3    0    0  0.10140430803E+00 -0.46897583980E-01 -0.60832586743E-01  0.12888494839E+00  0.20700464776E-01 0.  0.
         14    1    1    2    0    0  0.22428039835E-01  0.67610738311E-02  0.25149487506E-02  0.23559585255E-01  0.00000000000E+00 0. -1.
     999901    1    3    3    0    0 -0.12383234786E+00  0.40136510149E-01  0.58317637993E-01  0.89148546636E+00  0.88000000000E+00 0. -1.
        -11    1    4    4    0    0  0.11917250766E-01 -0.86408027724E-02 -0.12738912326E-02  0.14784054188E-01  0.51100000000E-03 0. -1.
         11    1    4    4    0    0  0.89487057259E-01 -0.38256781208E-01 -0.59558695511E-01  0.11410089420E+00  0.51100000000E-03 0.  1.
</event>
<event>
 8    1  0.1114447E+005  0.1043930E+01  0.7957747E-01            NaN
         13   -1    0    0    0    0  0.00000000000E+00  0.00000000000E+00  0.74505805969E-08  0.10566000000E+00  0.10566000000E+00 0.  1.
     999900   -1    0    0    0    0 -0.00000000000E+00 -0.00000000000E+00 -0.74505805969E-08  0.93827000000E+00  0.93827000000E+00 0.  1.
     999902    2    1    2    0    0  0.20788402252E-01  0.80972380535E-02 -0.75194212565E-02  0.10203871746E+01  0.10201155432E+01 0.  0.
     999903    2    3    3    0    0  0.48716008019E-01  0.64842562388E-01 -0.10343535008E+00  0.13291895071E+00  0.19767864715E-01 0.  0.
         14    1    1    2    0    0 -0.20788402252E-01 -0.80972380535E-02  0.75194212565E-02  0.23542825411E-01  0.00000000000E+00 0. -1.
     999901    1    3    3    0    0 -0.27927605767E-01 -0.56745324335E-01  0.95915928828E-01  0.88746822388E+00  0.88000000000E+00 0. -1.
        -11    1    4    4    0    0  0.40337743768E-01  0.48487302698E-01 -0.66462073468E-01  0.91627618248E-01  0.51100000000E-03 0.  1.
         11    1    4    4    0    0  0.83782642516E-02  0.16355259690E-01 -0.36973276617E-01  0.41291332459E-01  0.51100000000E-03 0. -1.
</event>
<event>
 8    1  0.1114447E+005  0.1043930E+01  0.7957747E-01            NaN
         13   -1    0    0    0    0  0.00000000000E+00  0.00000000000E+00  0.74505805969E-08  0.10566000000E+00  0.10566000000E+00 0.  1.
     999900   -1    0    0    0    0 -0.00000000000E+00 -0.00000000000E+00 -0.74505805969E-08  0.93827000000E+00  0.93827000000E+00 0. -1.
     999902    2    1    2    0    0 -0.60087194251E-02 -0.20946065686E-01  0.90714068202E-02  0.10203263393E+01  0.10200532858E+01 0.  0.
     999903    2    3    3    0    0  0.79263563414E-01  0.53597337707E-01 -0.83254226717E-01  0.12827695512E+00  0.19191765250E-01 0.  0.
         14    1    1    2    0    0  0.60087194251E-02  0.20946065686E-01 -0.90714068202E-02  0.23603660702E-01  0.00000000000E+00 0.  1.
     999901    1    3    3    0    0 -0.85272282839E-01 -0.74543403393E-01  0.92325633537E-01  0.89204938418E+00  0.88000000000E+00 0.  1.
        -11    1    4    4    0    0  0.49163634199E-01  0.21739495689E-01 -0.45935642118E-01  0.70710769606E-01  0.51100000000E-03 0.  1.
         11    1    4    4    0    0  0.30099929214E-01  0.31857842018E-01 -0.37318584599E-01  0.57566185511E-01  0.51100000000E-03 0. -1.
</event>
<event>
 8    1  0.1114447E+005  0.1043930E+01  0.7957747E-01            NaN
         13   -1    0    0    0    0  0.00000000000E+00  0.00000000000E+00  0.74505805969E-08  0.10566000000E+00  0.10566000000E+00 0. -1.
     999900   -1    0    0    0    0 -0.00000000000E+00 -0.00000000000E+00 -0.74505805969E-08  0.93827000000E+00  0.93827000000E+00 0. -1.
     999902    2    1    2    0    0  0.91997333497E-02  0.49122659068E-02  0.20970604962E-01  0.10205092459E+01  0.10202404566E+01 0.  0.
     999903    2    3    3    0    0  0.72816059496E-01  0.10271884520E+00 -0.31388871359E-01  0.13126536559E+00  0.19798870665E-01 0.  0.
         14    1    1    2    0    0 -0.91997333497E-02 -0.49122659068E-02 -0.20970604962E-01  0.23420754098E-01  0.00000000000E+00 0.  1.
     999901    1    3    3    0    0 -0.63616326146E-01 -0.97806579293E-01  0.52359476321E-01  0.88924388031E+00  0.88000000000E+00 0.  1.
        -11    1    4    4    0    0  0.68219058766E-01  0.86625029955E-01 -0.30907410159E-01  0.11451316482E+00  0.51100000000E-03 0. -1.
         11    1    4    4    0    0  0.45970007297E-02  0.16093815244E-01 -0.48146119981E-03  0.16752200772E-01  0.51100000000E-03 0.  1.
</event>
<event>
 8    1  0.1114447E+005  0.1043930E+01  0.7957747E-01            NaN
         13   -1    0    0    0    0  0.00000000000E+00  0.00000000000E+00  0.74505805969E-08  0.10566000000E+00  0.10566000000E+00 0. -1.
     999900   -1    0    0    0    0 -0.00000000000E+00 -0.00000000000E+00 -0.74505805969E-08  0.93827000000E+00  0.93827000000E+00 0.  1.
     999902    2    1    2    0    0  0.12200030305E-01 -0.15980004804E-01 -0.13415448869E-01  0.10197602759E+01  0.10194738078E+01 0.  0.
     999903    2    3    3    0    0  0.43030307759E-01  0.11446821530E+00 -0.36602151082E-01  0.12930821811E+00  0.20647472169E-01 0.  0.
         14    1    1    2    0    0 -0.12200030305E-01  0.15980004804E-01  0.13415448869E-01  0.24169724064E-01  0.00000000000E+00 0. -1.
     999901    1    3    3    0    0 -0.30830277453E-01 -0.13044822010E+00  0.23186702212E-01  0.89045205783E+00  0.88000000000E+00 0.  1.
        -11    1    4    4    0    0  0.40244876392E-01  0.94369351669E-01 -0.23824348645E-01  0.10532371680E+00  0.51100000000E-03 0. -1.
         11    1    4    4    0    0  0.27854313665E-02  0.20098863627E-01 -0.12777802436E-01  0.23984501310E-01  0.51100000000E-03 0.  1.
</event>
<event>
 8    1  0.1192091E+005  0.1043930E+01  0.7957747E-01            NaN
         13   -1    0    0    0    0  0.00000000000E+00  0.00000000000E+00  0.74505805969E-08  0.10566000000E+00  0.10566000000E+00 0.  1.
     999900   -1    0    0    0    0 -0.00000000000E+00 -0.00000000000E+00 -0.74505805969E-08  0.93827000000E+00  0.93827000000E+00 0.  1.
     999902    2    1    2    0    0  0.11286794263E-02 -0.21021442917E-01  0.99089478412E-02  0.10206628079E+01  0.10203975722E+01 0.  0.
     999903    2    3    3    0    0  0.59050224597E-01  0.11248524609E+00 -0.25153299038E-02  0.12862396119E+00  0.19948355718E-01 0.  0.
         14    1    1    2    0    0 -0.11286794263E-02  0.21021442917E-01 -0.99089478412E-02  0.23267192071E-01  0.00000000000E+00 0. -1.
     999901    1    3    3    0    0 -0.57921545171E-01 -0.13350668901E+00  0.12424277745E-01  0.89203884673E+00  0.88000000000E+00 0.  1.
        -11    1    4    4    0    0  0.32315796323E-01  0.71426024117E-01  0.70007623788E-02  0.78709970195E-01  0.51100000000E-03 0. -1.
         11    1    4    4    0    0  0.26734428274E-01  0.41059221973E-01 -0.95160922826E-02  0.49913991000E-01  0.51100000000E-03 0.  1.
</event>
<event>
 8    1  0.1114447E+005  0.1043930E+01  0.7957747E-01            NaN
         13   -1    0    0    0    0  0.00000000000E+00  0.00000000000E+00  0.74505805969E-08  0.10566000000E+00  0.10566000000E+00 0. -1.
     999900   -1    0    0    0    0 -0.00000000000E+00 -0.00000000000E+00 -0.74505805969E-08  0.93827000000E+00  0.93827000000E+00 0. -1.
     999902    2    1    2    0    0 -0.21596885021E-01  0.10924438356E-01 -0.30228405595E-02  0.10195392977E+01  0.10192475034E+01 0.  0.
     999903    2    3    3    0    0 -0.46404486526E-01  0.41620412687E-02  0.12036679005E+00  0.13055889964E+00  0.19666295315E-01 0.  0.
         14    1    1    2    0    0  0.21596885021E-01 -0.10924438356E-01  0.30228405595E-02  0.24390702348E-01  0.00000000000E+00 0. -1.
     999901    1    3    3    0    0  0.24807601505E-01  0.67623970872E-02 -0.12338963061E+00  0.88898039801E+00  0.88000000000E+00 0. -1.
        -11    1    4    4    0    0 -0.11953118821E-01  0.40438573146E-02  0.57487081586E-01  0.58857926415E-01  0.51100000000E-03 0.  1.
         11    1    4    4    0    0 -0.34451367705E-01  0.11818395407E-03  0.62879708462E-01  0.71700973226E-01  0.51100000000E-03 0. -1.
</event>
<event>
 8    1  0.1114447E+005  0.1043930E+01  0.7957747E-01            NaN
         13   -1    0    0    0    0  0.00000000000E+00  0.00000000000E+00  0.74505805969E-08  0.10566000000E+00  0.10566000000E+00 0. -1.
     999900   -1    0    0    0    0 -0.00000000000E+00 -0.00000000000E+00 -0.74505805969E-08  0.93827000000E+00  0.93827000000E+00 0.  1.
     999902    2    1    2    0    0  0.18968046083E-01 -0.10406244544E-01  0.10715317255E-01  0.10197867873E+01  0.10195009548E+01 0.  0.
     999903    2    3    3    0    0  0.13054762682E+00 -0.78667758156E-02 -0.78133614958E-02  0.13254399992E+00  0.20057274715E-01 0.  0.
         14    1    1    2    0    0 -0.18968046083E-01  0.10406244544E-01 -0.10715317255E-01  0.24143212744E-01  0.00000000000E+00 0.  1.
     999901    1    3    3    0    0 -0.11157958073E+00 -0.25394687286E-02  0.18528678751E-01  0.88724278733E+00  0.88000000000E+00 0. -1.
        -11    1    4    4    0    0  0.62785368069E-01  0.62369924740E-02 -0.35098347778E-02  0.63194007468E-01  0.51100000000E-03 0. -1.
         11    1    4    4    0    0  0.67762258746E-01 -0.14103768290E-01 -0.43035267180E-02  0.69349992455E-01  0.51100000000E-03 0.  1.
</event>
<event>
 8    1  0.1114447E+005  0.1043930E+01  0.7957747E-01            NaN
         13   -1    0    0    0    0  0.00000000000E+00  0.00000000000E+00  0.74505805969E-08  0.10566000000E+00  0.10566000000E+00 0.  1.
     999900   -1    0    0    0    0 -0.00000000000E+00 -0.00000000000E+00 -0.74505805969E-08  0.93827000000E+00  0.93827000000E+00 0. -1.
     999902    2    1    2    0    0  0.75160592662E-02  0.15392597355E-01 -0.16454986077E-01  0.10201773208E+01  0.10199007678E+01 0.  0.
     999903    2    3    3    0    0  0.10978421855E+00 -0.11026683209E-01 -0.70201863982E-01  0.13223279461E+00  0.19571609000E-01 0.  0.
         14    1    1    2    0    0 -0.75160592662E-02 -0.15392597355E-01  0.16454986077E-01  0.23752679154E-01  0.00000000000E+00 0.  1.
     999901    1    3    3    0    0 -0.10226815928E+00  0.26419280564E-01  0.53746877905E-01  0.88794452624E+00  0.88000000000E+00 0. -1.
        -11    1    4    4    0    0  0.36803687132E-01 -0.13027776540E-01 -0.23902574115E-01  0.45780219729E-01  0.51100000000E-03 0.  1.
         11    1    4    4    0    0  0.72980531416E-01  0.20010933311E-02 -0.46299289867E-01  0.86452574880E-01  0.51100000000E-03 0. -1.
</event>
<event>
 8    1  0.1114447E+005  0.1043930E+01  0.7957747E-01            NaN
         13   -1    0    0    0    0  0.00000000000E+00  0.00000000000E+00  0.74505805969E-08  0.10566000000E+00  0.10566000000E+00 0.  1.
     999900   -1    0    0    0    0 -0.00000000000E+00 -0.00000000000E+00 -0.74505805969E-08  0.93827000000E+00  0.93827000000E+00 0. -1.
     999902    2    1    2    0    0  0.21546415247E-01 -0.89982231642E-02 -0.76746461493E-02  0.10193512241E+01  0.10190548572E+01 0.  0.
     999903    2    3    3    0    0  0.81083869311E-02 -0.12535094495E+00  0.30857427070E-01  0.13075499572E+00  0.19133289342E-01 0.  0.
         14    1    1    2    0    0 -0.21546415247E-01  0.89982231642E-02  0.76746461493E-02  0.24578775878E-01  0.00000000000E+00 0.  1.
     999901    1    3    3    0    0  0.13438028316E-01  0.11635272178E+00 -0.38532073219E-01  0.88859622841E+00  0.88000000000E+00 0. -1.
        -11    1    4    4    0    0  0.12855360926E-01 -0.76941772490E-01  0.24074625046E-01  0.81640341441E-01  0.51100000000E-03 0. -1.
         11    1    4    4    0    0 -0.47469739952E-02 -0.48409172459E-01  0.67828020238E-02  0.49114654275E-01  0.51100000000E-03 0.  1.
</event>
<event>
 8    1  0.1114447E+005  0.1043930E+01  0.7957747E-01            NaN
         13   -1    0    0    0    0  0.00000000000E+00  0.00000000000E+00  0.74505805969E-08  0.10566000000E+00  0.10566000000E+00 0.  1.
     999900   -1    0    0    0    0 -0.00000000000E+00 -0.00000000000E+00 -0.74505805969E-08  0.93827000000E+00  0.93827000000E+00 0.  1.
     999902    2    1    2    0    0  0.17348645758E-01 -0.88919315532E-02 -0.96019218707E-02  0.10221989425E+01  0.10219679247E+01 0.  0.
     999903    2    3    3    0    0  0.39767855096E-01  0.10352855903E+00  0.67596259175E-01  0.13141246595E+00  0.20008426172E-01 0.  0.
         14    1    1    2    0    0 -0.17348645758E-01  0.88919315532E-02  0.96019218707E-02  0.21731057499E-01  0.00000000000E+00 0.  1.
     999901    1    3    3    0    0 -0.22419209338E-01 -0.11242049059E+00 -0.77198181046E-01  0.89078647655E+00  0.88000000000E+00 0.  1.
        -11    1    4    4    0    0  0.28961837598E-01  0.56067898996E-01  0.29835887149E-01  0.69805720524E-01  0.51100000000E-03 0. -1.
         11    1    4    4    0    0  0.10806017498E-01  0.47460660038E-01  0.37760372026E-01  0.61606745425E-01  0.51100000000E-03 0.  1.
</event>
<event>
 8    1  0.1114447E+005  0.1043930E+01  0.7957747E-01            NaN
         13   -1    0    0    0    0  0.00000000000E+00  0.00000000000E+00  0.74505805969E-08  0.10566000000E+00  0.10566000000E+00 0.  1.
     999900   -1    0    0    0    0 -0.00000000000E+00 -0.00000000000E+00 -0.74505805969E-08  0.93827000000E+00  0.93827000000E+00 0.  1.
     999902    2    1    2    0    0  0.24133150088E-02  0.22036297613E-01  0.21953564727E-02  0.10216535081E+01  0.10214106170E+01 0.  0.
     999903    2    3    3    0    0  0.11965311219E+00 -0.36042760107E-01 -0.34246449339E-01  0.13123430782E+00  0.20824899611E-01 0.  0.
         14    1    1    2    0    0 -0.24133150088E-02 -0.22036297613E-01 -0.21953564727E-02  0.22276491911E-01  0.00000000000E+00 0. -1.
     999901    1    3    3    0    0 -0.11723979718E+00  0.58079057721E-01  0.36441805812E-01  0.89041920026E+00  0.88000000000E+00 0. -1.
        -11    1    4    4    0    0  0.89966357960E-01 -0.35413737819E-01 -0.22309622645E-01  0.99227308613E-01  0.51100000000E-03 0.  1.
         11    1    4    4    0    0  0.29686754233E-01 -0.62902228800E-03 -0.11936826695E-01  0.32006999211E-01  0.51100000000E-03 0. -1.
</event>
<event>
 8    1  0.1114447E+005  0.1043930E+01  0.7957747E-01            NaN
         13   -1    0    0    0    0  0.00000000000E+00  0.00000000000E+00  0.74505805969E-08  0.10566000000E+00  0.10566000000E+00 0.  1.
     999900   -1    0    0    0    0 -0.00000000000E+00 -0.00000000000E+00 -0.74505805969E-08  0.93827000000E+00  0.93827000000E+00 0.  1.
     999902    2    1    2    0    0 -0.10325416381E-01  0.96739163712E-02  0.19107324102E-01  0.10201541989E+01  0.10198771009E+01 0.  0.
     999903    2    3    3    0    0  0.50115315583E-01  0.21600717839E-01 -0.11386917342E+00  0.12803420726E+00  0.21176253368E-01 0.  0.
         14    1    1    2    0    0  0.10325416381E-01 -0.96739163712E-02 -0.19107324102E-01  0.23775801054E-01  0.00000000000E+00 0. -1.
     999901    1    3    3    0    0 -0.60440731964E-01 -0.11926801467E-01  0.13297649752E+00  0.89211999169E+00  0.88000000000E+00 0. -1.
        -11    1    4    4    0    0  0.40470763119E-01  0.21577028506E-01 -0.10626801568E+00  0.11574369574E+00  0.51100000000E-03 0. -1.
         11    1    4    4    0    0  0.96445524634E-02  0.23689332603E-04 -0.76011577385E-02  0.12290511518E-01  0.51100000000E-03 0.  1.
</event>
<event>
 8    1  0.1114447E+005  0.1043930E+01  0.7957747E-01            NaN
         13   -1    0    0    0    0  0.00000000000E+00  0.00000000000E+00  0.74505805969E-08  0.10566000000E+00  0.10566000000E+00 0. -1.
     999900   -1    0    0    0    0 -0.00000000000E+00 -0.00000000000E+00 -0.74505805969E-08  0.93827000000E+00  0.93827000000E+00 0. -1.
     999902    2    1    2    0    0  0.16016144469E-01  0.13848299155E-01 -0.12087225410E-01  0.10195498177E+01  0.10192582781E+01 0.  0.
     999903    2    3    3    0    0 -0.40487326496E-01  0.10263483302E+00  0.65701329611E-01  0.12987192644E+00  0.19414427829E-01 0.  0.
         14    1    1    2    0    0 -0.16016144469E-01 -0.13848299155E-01  0.12087225410E-01  0.24380182346E-01  0.00000000000E+00 0. -1.
     999901    1    3    3    0    0  0.56503470964E-01 -0.88786533866E-01 -0.77788555021E-01  0.88967789122E+00  0.88000000000E+00 0. -1.
        -11    1    4    4    0    0 -0.26013047390E-01  0.81206789431E-01  0.43206041712E-01  0.95594165333E-01  0.51100000000E-03 0. -1.
         11    1    4    4    0    0 -0.14474279106E-01  0.21428043590E-01  0.22495287899E-01  0.34277761105E-01  0.51100000000E-03 0.  1.
</event>
<event>
 8    1  0.1114447E+005  0.1043930E+01  0.7957747E-01            NaN
         13   -1    0    0    0    0  0.00000000000E+00  0.00000000000E+00  0.74505805969E-08  0.10566000000E+00  0.10566000000E+00 0. -1.
     999900   -1    0    0    0    0 -0.00000000000E+00 -0.00000000000E+00 -0.74505805969E-08  0.93827000000E+00  0.93827000000E+00 0.  1.
     999902    2    1    2    0    0  0.15762995094E-01 -0.15996006703E-01 -0.68360869983E-02  0.10204549850E+01  0.10201849342E+01 0.  0.
     999903    2    3    3    0    0 -0.66915946817E-01  0.17981496421E-01  0.10658141631E+00  0.12868494275E+00  0.19978439323E-01 0.  0.
         14    1    1    2    0    0 -0.15762995094E-01  0.15996006703E-01  0.68360869983E-02  0.23475015021E-01  0.00000000000E+00 0. -1.
     999901    1    3    3    0    0  0.82678941911E-01 -0.33977503124E-01 -0.11341750331E+00  0.89177004223E+00  0.88000000000E+00 0.  1.
        -11    1    4    4    0    0 -0.32351318687E-01  0.85367977788E-03  0.60259623710E-01  0.68401900270E-01  0.51100000000E-03 0.  1.
         11    1    4    4    0    0 -0.34564628130E-01  0.17127816643E-01  0.46321792597E-01  0.60283042484E-01  0.51100000000E-03 0. -1.
</event>
<event>
 8    1  0.1114447E+005  0.1043930E+01  0.7957747E-01            NaN
         13   -1    0    0    0    0  0.00000000000E+00  0.00000000000E+00  0.74505805969E-08  0.10566000000E+00  0.10566000000E+00 0. -1.
     999900   -1    0    0    0    0 -0.00000000000E+00 -0.00000000000E+00 -0.74505805969E-08  0.93827000000E+00  0.93827000000E+00 0.  1.
     999902    2    1    2    0    0  0.83888354242E-02 -0.21036552954E-01 -0.66947610707E-02  0.10203137144E+01  0.10200403653E+01 0.  0.
     999903    2    3    3    0    0 -0.65143061591E-01 -0.49911016672E-01  0.99383170032E-01  0.13042990063E+00  0.20005410126E-01 0.  0.
         14    1    1    2    0    0 -0.83888354242E-02  0.21036552954E-01  0.66947610707E-02  0.23616285604E-01  0.00000000000E+00 0.  1.
     999901    1    3    3    0    0  0.73531897015E-01  0.28874463718E-01 -0.10607793110E+00  0.88988381376E+00  0.88000000000E+00 0.  1.
        -11    1    4    4    0    0 -0.11605635056E-01 -0.12042354293E-01  0.33638851752E-01  0.37570500797E-01  0.51100000000E-03 0.  1.
         11    1    4    4    0    0 -0.53537426534E-01 -0.37868662379E-01  0.65744318280E-01  0.92859399834E-01  0.51100000000E-03 0. -1.
</event>
<event>
 8    1  0.1114447E+005  0.1043930E+01  0.7957747E-01            NaN
         13   -1    0    0    0    0  0.00000000000E+00  0.00000000000E+00  0.74505805969E-08  0.10566000000E+00  0.10566000000E+00 0. -1.
     999900   -1    0    0    0    0 -0.00000000000E+00 -0.00000000000E+00 -0.74505805969E-08  0.93827000000E+00  0.93827000000E+00 0.  1.
     999902    2    1    2    0    0  0.21011200544E-01 -0.71475720514E-02  0.78459417584E-02  0.10203903072E+01  0.10201187489E+01 0.  0.
     999903    2    3    3    0    0 -0.55617777929E-01 -0.54466453831E-02  0.11612555564E+00  0.13044684368E+00  0.20204731809E-01 0.  0.
         14    1    1    2    0    0 -0.21011200544E-01  0.71475720514E-02 -0.78459417584E-02  0.23539692789E-01  0.00000000000E+00 0.  1.
     999901    1    3    3    0    0  0.76628978473E-01 -0.17009266684E-02 -0.10827961388E+00  0.88994346353E+00  0.88000000000E+00 0.  1.
        -11    1    4    4    0    0 -0.34742545714E-01 -0.13033675874E-01  0.68990800151E-01  0.78338450431E-01  0.51100000000E-03 0. -1.
         11    1    4    4    0    0 -0.20875232215E-01  0.75870304905E-02  0.47134755485E-01  0.52108393253E-01  0.51100000000E-03 0.  1.
</event>
<event>
 8    1  0.1114447E+005  0.1043930E+01  0.7957747E-01            NaN
         13   -1    0    0    0    0  0.00000000000E+00  0.00000000000E+00  0.74505805969E-08  0.10566000000E+00  0.10566000000E+00 0. -1.
     999900   -1    0    0    0    0 -0.00000000000E+00 -0.00000000000E+00 -0.74505805969E-08  0.93827000000E+00  0.93827000000E+00 0.  1.
     999902    2    1    2    0    0 -0.10811050298E-01 -0.76615031718E-02  0.19486761483E-01  0.10203649557E+01  0.10200928053E+01 0.  0.
     999903    2    3    3    0    0 -0.12374968582E+00  0.40138048508E-01 -0.34336179473E-02  0.13156504778E+00  0.19300890838E-01 0.  0.
         14    1    1    2    0    0  0.10811050298E-01  0.76615031718E-02 -0.19486761483E-01  0.23565044292E-01  0.00000000000E+00 0.  1.
     999901    1    3    3    0    0  0.11293863552E+00 -0.47799551679E-01  0.22920379430E-01  0.88879990793E+00  0.88000000000E+00 0. -1.
        -11    1    4    4    0    0 -0.18138228521E-01  0.12948460538E-01  0.19423838828E-02  0.22376146682E-01  0.51100000000E-03 0. -1.
         11    1    4    4    0    0 -0.10561145730E+00  0.27189587970E-01 -0.53760018301E-02  0.10918890110E+00  0.51100000000E-03 0.  1.
</event>
<event>
 8    1  0.1114447E+005  0.1043930E+01  0.7957747E-01            NaN
         13   -1    0    0    0    0  0.00000000000E+00  0.00000000000E+00  0.74505805969E-08  0.10566000000E+00  0.10566000000E+00 0.  1.
     999900   -1    0    0    0    0 -0.00000000000E+00 -0.00000000000E+00 -0.74505805969E-08  0.93827000000E+00  0.93827000000E+00 0. -1.
     999902    2    1    2    0    0  0.59115503068E-02 -0.19037009218E-01 -0.12777172625E-01  0.10202527897E+01  0.10199780118E+01 0.  0.
     999903    2    3    3    0    0  0.11928581899E+00  0.10773073972E-01  0.47712396987E-01  0.13042058424E+00  0.19694929099E-01 0.  0.
         14    1    1    2    0    0 -0.59115503068E-02  0.19037009218E-01  0.12777172625E-01  0.23677210294E-01  0.00000000000E+00 0.  1.
     999901    1    3    3    0    0 -0.11337426868E+00 -0.29810083190E-01 -0.60489569612E-01  0.88983220547E+00  0.88000000000E+00 0. -1.
        -11    1    4    4    0    0  0.21116235820E-01  0.77231121611E-02  0.37017548458E-02  0.22792673968E-01  0.51100000000E-03 0. -1.
         11    1    4    4    0    0  0.98169583167E-01  0.30499618110E-02  0.44010642141E-01  0.10762791027E+00  0.51100000000E-03 0.  1.
</event>
<event>
 8    1  0.1114447E+005  0.1043930E+01  0.7957747E-01            NaN
         13   -1    0    0    0    0  0.00000000000E+00  0.00000000000E+00  0.74505805969E-08  0.10566000000E+00  0.10566000000E+00 0.  1.
     999900   -1    0    0    0    0 -0.00000000000E+00 -0.00000000000E+00 -0.74505805969E-08  0.93827000000E+00  0.93827000000E+00 0.  1.
     999902    2    1    2    0    0  0.88176724321E-02 -0.53560756769E-02 -0.21813702414E-01  0.10197995937E+01  0.10195140680E+01 0.  0.
     999903    2    3    3    0    0  0.30679921544E-01 -0.11226033588E+00 -0.59637422639E-01  0.13225403851E+00  0.19770379989E-01 0.  0.
         14    1    1    2    0    0 -0.88176724321E-02  0.53560756769E-02  0.21813702414E-01  0.24130406270E-01  0.00000000000E+00 0.  1.
     999901    1    3    3    0    0 -0.21862249112E-01  0.10690426020E+00  0.37823720225E-01  0.88754555522E+00  0.88000000000E+00 0. -1.
        -11    1    4    4    0    0  0.78921249967E-02 -0.32171651765E-01 -0.73675058131E-02  0.33938798994E-01  0.51100000000E-03 0. -1.
         11    1    4    4    0    0  0.22787796547E-01 -0.80088684113E-01 -0.52269916826E-01  0.98315239512E-01  0.51100000000E-03 0.  1.
</event>
<event>
 7    1  0.1114447E+005  0.1043930E+01  0.7957747E-01            NaN
         13   -1    0    0    0    0  0.00000000000E+00  0.00000000000E+00  0.74505805969E-08  0.10566000000E+00  0.10566000000E+00 0.  1.
     999900   -1    0    0    0    0 -0.00000000000E+00 -0.00000000000E+00 -0.74505805969E-08  0.93827000000E+00  0.93827000000E+00 0.  1.
     999903    2    1    2    0    0 -0.47041194939E-01  0.43545454190E-01  0.94106053392E-01  0.11574026946E+00  0.20755242420E-01 0.  0.
         14    1    1    2    0    0  0.30830869560E-01  0.11689323255E-01  0.20602744030E-01  0.38880018744E-01  0.00000000000E+00 0. -1.
     999901    1    1    2    0    0  0.16210325379E-01 -0.55234777445E-01 -0.11470879742E+00  0.88930971180E+00  0.88000000000E+00 0.  1.
        -11    1    3    3    0    0 -0.32210008684E-01  0.15761696414E-01  0.51380999763E-01  0.62659268994E-01  0.51100000000E-03 0.  1.
         11    1    3    3    0    0 -0.14831186255E-01  0.27783757776E-01  0.42725053629E-01  0.53081000466E-01  0.51100000000E-03 0. -1.
</event>
<event>
 8    1  0.1114447E+005  0.1043930E+01  0.7957747E-01            NaN
         13   -1    0    0    0    0  0.00000000000E+00  0.00000000000E+00  0.74505805969E-08  0.10566000000E+00  0.10566000000E+00 0. -1.
     999900   -1    0    0    0    0 -0.00000000000E+00 -0.00000000000E+00 -0.74505805969E-08  0.93827000000E+00  0.93827000000E+00 0. -1.
     999902    2    1    2    0    0 -0.20539004488E-01  0.83862387008E-02 -0.87424341794E-02  0.10200844583E+01  0.10198057129E+01 0.  0.
     999903    2    3    3    0    0  0.21448033527E-01 -0.11115595610E+00 -0.59921277328E-01  0.12953826537E+00  0.19337476597E-01 0.  0.
         14    1    1    2    0    0  0.20539004488E-01 -0.83862387008E-02  0.87424341794E-02  0.23845541728E-01  0.00000000000E+00 0.  1.
     999901    1    3    3    0    0 -0.41987038015E-01  0.11954219480E+00  0.51178843148E-01  0.89054619290E+00  0.88000000000E+00 0.  1.
        -11    1    4    4    0    0  0.22582676621E-01 -0.68065116341E-01 -0.36200082965E-01  0.80333955919E-01  0.51100000000E-03 0.  1.
         11    1    4    4    0    0 -0.11346430940E-02 -0.43090839759E-01 -0.23721194363E-01  0.49204309456E-01  0.51100000000E-03 0. -1.
</event>
<event>
 8    1  0.1114447E+005  0.1043930E+01  0.7957747E-01            NaN
         13   -1    0    0    0    0  0.00000000000E+00  0.00000000000E+00  0.74505805969E-08  0.10566000000E+00  0.10566000000E+00 0. -1.
     999900   -1    0    0    0    0 -0.00000000000E+00 -0.00000000000E+00 -0.74505805969E-08  0.93827000000E+00  0.93827000000E+00 0. -1.
     999902    2    1    2    0    0 -0.20431193345E-01 -0.62982286335E-02 -0.48922893616E-02  0.10219974707E+01  0.10217621026E+01 0.  0.
     999903    2    3    3    0    0  0.15092509856E-01  0.53472352306E-02  0.12858742216E+00  0.13114709961E+00  0.20210388884E-01 0.  0.
         14    1    1    2    0    0  0.20431193345E-01  0.62982286335E-02  0.48922893616E-02  0.21932529280E-01  0.00000000000E+00 0. -1.
     999901    1    3    3    0    0 -0.35523703201E-01 -0.11645463864E-01 -0.13347971153E+00  0.89085037111E+00  0.88000000000E+00 0. -1.
        -11    1    4    4    0    0  0.15438022911E-01  0.39677043399E-02  0.48687531887E-01  0.51232920192E-01  0.51100000000E-03 0.  1.
         11    1    4    4    0    0 -0.34551305510E-03  0.13795308908E-02  0.79899890277E-01  0.79914179418E-01  0.51100000000E-03 0. -1.
</event>
<event>
 8    1  0.1114447E+005  0.1043930E+01  0.7957747E-01            NaN
         13   -1    0    0    0    0  0.00000000000E+00  0.00000000000E+00  0.74505805969E-08  0.10566000000E+00  0.10566000000E+00 0. -1.
     999900   -1    0    0    0    0 -0.00000000000E+00 -0.00000000000E+00 -0.74505805969E-08  0.93827000000E+00  0.93827000000E+00 0. -1.
     999902    2    1    2    0    0 -0.27134221261E-02  0.75714166267E-02  0.21908647632E-01  0.10205916656E+01  0.10203247866E+01 0.  0.
     999903    2    3    3    0    0  0.93323270652E-01 -0.77138323535E-01 -0.39610093764E-01  0.12919762148E+00  0.21529330325E-01 0.  0.
         14    1    1    2    0    0  0.27134221261E-02 -0.75714166267E-02 -0.21908647632E-01  0.23338334354E-01  0.00000000000E+00 0.  1.
     999901    1    3    3    0    0 -0.96036692778E-01  0.84709740162E-01  0.61518741395E-01  0.89139404417E+00  0.88000000000E+00 0. -1.
        -11    1    4    4    0    0  0.53191177942E-01 -0.46268914373E-01 -0.11966107579E-01  0.71509179129E-01  0.51100000000E-03 0. -1.
         11    1    4    4    0    0  0.40132092710E-01 -0.30869409163E-01 -0.27643986185E-01  0.57688442348E-01  0.51100000000E-03 0.  1.
</event>
<event>
 8    1  0.1114447E+005  0.1043930E+01  0.7957747E-01            NaN
         13   -1    0    0    0    0  0.00000000000E+00  0.00000000000E+00  0.74505805969E-08  0.10566000000E+00  0.10566000000E+00 0.  1.
     999900   -1    0    0    0    0 -0.00000000000E+00 -0.00000000000E+00 -0.74505805969E-08  0.93827000000E+00  0.93827000000E+00 0. -1.
     999902    2    1    2    0    0  0.99015102707E-02  0.21003995151E-01  0.50408726142E-02  0.10201683057E+01  0.10198915403E+01 0.  0.
     999903    2    3    3    0    0  0.66330179404E-01  0.22503907080E-01  0.11029913637E+00  0.13209975740E+00  0.19450652623E-01 0.  0.
         14    1    1    2    0    0 -0.99015102707E-02 -0.21003995151E-01 -0.50408726142E-02  0.23761694272E-01  0.00000000000E+00 0. -1.
     999901    1    3    3    0    0 -0.56428669133E-01 -0.14999119291E-02 -0.10525826376E+00  0.88806854833E+00  0.88000000000E+00 0. -1.
        -11    1    4    4    0    0  0.26644104865E-01  0.97144159223E-02  0.28090211087E-01  0.39919910831E-01  0.51100000000E-03 0. -1.
         11    1    4    4    0    0  0.39686074539E-01  0.12789491158E-01  0.82208925286E-01  0.92179846572E-01  0.51100000000E-03 0.  1.
</event>
<event>
 8    1  0.1114447E+005  0.1043930E+01  0.7957747E-01            NaN
         13   -1    0    0    0    0  0.00000000000E+00  0.00000000000E+00  0.74505805969E-08  0.10566000000E+00  0.10566000000E+00 0. -1.
     999900   -1    0    0    0    0 -0.00000000000E+00 -0.00000000000E+00 -0.74505805969E-08  0.93827000000E+00  0.93827000000E+00 0.  1.
     999902    2    1    2    0    0 -0.48860554446E-02  0.10235844228E-01  0.15741469310E-01  0.10245279408E+01  0.10243442105E+01 0.  0.
     999903    2    3    3    0    0  0.36048315730E-01 -0.95289847449E-01  0.85487985354E-01  0.13454149661E+00  0.20336729764E-01 0.  0.
         14    1    1    2    0    0  0.48860554446E-02 -0.10235844228E-01 -0.15741469310E-01  0.19402059192E-01  0.00000000000E+00 0.  1.
     999901    1    3    3    0    0 -0.40934371175E-01  0.10552569168E+00 -0.69746516044E-01  0.88998644419E+00  0.88000000000E+00 0.  1.
        -11    1    4    4    0    0  0.21166644179E-01 -0.68125503492E-01  0.48353990698E-01  0.86182832335E-01  0.51100000000E-03 0.  1.
         11    1    4    4    0    0  0.14881671551E-01 -0.27164343957E-01  0.37133994656E-01  0.48358664280E-01  0.51100000000E-03 0. -1.
</event>
<event>
 8    1  0.1114447E+005  0.1043930E+01  0.7957747E-01            NaN
         13   -1    0    0    0    0  0.00000000000E+00  0.00000000000E+00  0.74505805969E-08  0.10566000000E+00  0.10566000000E+00 0. -1.
     999900   -1    0    0    0    0 -0.00000000000E+00 -0.00000000000E+00 -0.74505805969E-08  0.93827000000E+00  0.93827000000E+00 0.  1.
     999902    2    1    2    0    0 -0.16379927570E-01 -0.17758325738E-01  0.20312159115E-02  0.10196857017E+01  0.10193974418E+01 0.  0.
     999903    2    3    3    0    0 -0.10233086540E+00  0.34475427027E-01 -0.71123472911E-01  0.13094077931E+00  0.20658610939E-01 0.  0.
         14    1    1    2    0    0  0.16379927570E-01  0.17758325738E-01 -0.20312159115E-02  0.24244298263E-01  0.00000000000E+00 0.  1.
     999901    1    3    3    0    0  0.85950937827E-01 -0.52233752765E-01  0.73154688823E-01  0.88874492243E+00  0.88000000000E+00 0. -1.
        -11    1    4    4    0    0 -0.72763079246E-02 -0.19236389000E-02 -0.16992200150E-02  0.77326265454E-02  0.51100000000E-03 0.  1.
         11    1    4    4    0    0 -0.95054557472E-01  0.36399065927E-01 -0.69424252896E-01  0.12320815277E+00  0.51100000000E-03 0. -1.
</event>
<event>
 8    1  0.1114447E+005  0.1043930E+01  0.7957747E-01            NaN
         13   -1    0    0    0    0  0.00000000000E+00  0.00000000000E+00  0.74505805969E-08  0.10566000000E+00  0.10566000000E+00 0. -1.
     999900   -1    0    0    0    0 -0.00000000000E+00 -0.00000000000E+00 -0.74505805969E-08  0.93827000000E+00  0.93827000000E+00 0.  1.
     999902    2    1    2    0    0  0.67674255889E-02  0.18800736843E-01 -0.12867841230E-01  0.10201634880E+01  0.10198866090E+01 0.  0.
     999903    2    3    3    0    0  0.65403176912E-01  0.69846305113E-01  0.87326108694E-01  0.13107258771E+00  0.19952245500E-01 0.  0.
         14    1    1    2    0    0 -0.67674255889E-02 -0.18800736843E-01  0.12867841230E-01  0.23766512005E-01  0.00000000000E+00 0. -1.
     999901    1    3    3    0    0 -0.58635751323E-01 -0.51045568269E-01 -0.10019394992E+00  0.88909090029E+00  0.88000000000E+00 0.  1.
        -11    1    4    4    0    0  0.29891048911E-01  0.23701457686E-01  0.45498988874E-01  0.59377209525E-01  0.51100000000E-03 0. -1.
         11    1    4    4    0    0  0.35512128001E-01  0.46144847427E-01  0.41827119821E-01  0.71695378182E-01  0.51100000000E-03 0.  1.
</event>
<event>
 8    1  0.1114447E+005  0.1043930E+01  0.7957747E-01            NaN
         13   -1    0    0    0    0  0.00000000000E+00  0.00000000000E+00  0.74505805969E-08  0.10566000000E+00  0.10566000000E+00 0. -1.
     999900   -1    0    0    0    0 -0.00000000000E+00 -0.00000000000E+00 -0.74505805969E-08  0.93827000000E+00  0.93827000000E+00 0. -1.
     999902    2    1    2    0    0  0.11738511203E-01  0.14396748713E-01 -0.14762728123E-01  0.10202024388E+01  0.10199264772E+01 0.  0.
     999903    2    3    3    0    0  0.83754204148E-01  0.98600870582E-01 -0.25827748974E-01  0.13318551176E+00  0.18286867807E-01 0.  0.
         14    1    1    2    0    0 -0.11738511203E-01 -0.14396748713E-01  0.14762728123E-01  0.23727561198E-01  0.00000000000E+00 0. -1.
     999901    1    3    3    0    0 -0.72015692945E-01 -0.84204121869E-01  0.11065020851E-01  0.88701692704E+00  0.88000000000E+00 0. -1.
        -11    1    4    4    0    0  0.60923777245E-01  0.78820064785E-01 -0.26053475283E-01  0.10297258830E+00  0.51100000000E-03 0. -1.
         11    1    4    4    0    0  0.22830426903E-01  0.19780805798E-01  0.22572630968E-03  0.30212923459E-01  0.51100000000E-03 0.  1.
</event>
<event>
 8    1  0.1114447E+005  0.1043930E+01  0.7957747E-01            NaN
         13   -1    0    0    0    0  0.00000000000E+00  0.00000000000E+00  0.74505805969E-08  0.10566000000E+00  0.10566000000E+00 0.  1.
     999900   -1    0    0    0    0 -0.00000000000E+00 -0.00000000000E+00 -0.74505805969E-08  0.93827000000E+00  0.93827000000E+00 0. -1.
     999902    2    1    2    0    0  0.17163621115E-01 -0.17973966487E-01 -0.38717716678E-02  0.10187775851E+01  0.10184670460E+01 0.  0.
     999903    2    3    3    0    0 -0.12775767503E-01 -0.33732392482E-01 -0.12333409702E+00  0.13006168999E+00  0.20091022337E-01 0.  0.
         14    1    1    2    0    0 -0.17163621115E-01  0.17973966487E-01  0.38717716678E-02  0.25152414932E-01  0.00000000000E+00 0.  1.
     999901    1    3    3    0    0  0.29939388618E-01  0.15758425995E-01  0.11946232535E+00  0.88871589507E+00  0.88000000000E+00 0.  1.
        -11    1    4    4    0    0 -0.13969772601E-01 -0.14002622333E-01 -0.43059499635E-01  0.47387863516E-01  0.51100000000E-03 0.  1.
         11    1    4    4    0    0  0.11940050989E-02 -0.19729770149E-01 -0.80274597383E-01  0.82673826477E-01  0.51100000000E-03 0. -1.
</event>
<event>
 8    1  0.1114447E+005  0.1043930E+01  0.7957747E-01            NaN
         13   -1    0    0    0    0  0.00000000000E+00  0.00000000000E+00  0.74505805969E-08  0.10566000000E+00  0.10566000000E+00 0.  1.
     999900   -1    0    0    0    0 -0.00000000000E+00 -0.00000000000E+00 -0.74505805969E-08  0.93827000000E+00  0.93827000000E+00 0. -1.
     999902    2    1    2    0    0 -0.22683171642E-01 -0.22193949852E-02 -0.66097808565E-02  0.10201994039E+01  0.10199233709E+01 0.  0.
     999903    2    3    3    0    0 -0.10679162039E+00 -0.65927360432E-02 -0.77042909569E-01  0.13337688336E+00  0.20146184378E-01 0.  0.
         14    1    1    2    0    0  0.22683171642E-01  0.22193949852E-02  0.66097808565E-02  0.23730596133E-01  0.00000000000E+00 0. -1.
     999901    1    3    3    0    0  0.84108448749E-01  0.43733410580E-02  0.70433128712E-01  0.88682252051E+00  0.88000000000E+00 0.  1.
        -11    1    4    4    0    0 -0.31230663088E-01 -0.61109518866E-03 -0.34146819748E-01  0.46281682923E-01  0.51100000000E-03 0. -1.
         11    1    4    4    0    0 -0.75560957303E-01 -0.59816408545E-02 -0.42896089821E-01  0.87095200435E-01  0.51100000000E-03 0.  1.
</event>
<event>
 8    1  0.1114447E+005  0.1043930E+01  0.7957747E-01            NaN
         13   -1    0    0    0    0  0.00000000000E+00  0.00000000000E+00  0.74505805969E-08  0.10566000000E+00  0.10566000000E+00 0. -1.
     999900   -1    0    0    0    0 -0.00000000000E+00 -0.00000000000E+00 -0.74505805969E-08  0.93827000000E+00  0.93827000000E+00 0.  1.
     999902    2    1    2    0    0  0.17801581857E-01  0.76840736106E-02 -0.13889851868E-01  0.10200790191E+01  0.10198001451E+01 0.  0.
     999903    2    3    3    0    0 -0.88165423320E-01  0.62887899378E-01 -0.69543026584E-01  0.13026232765E+00  0.20100042326E-01 0.  0.
         14    1    1    2    0    0 -0.17801581857E-01 -0.76840736106E-02  0.13889851868E-01  0.23850980877E-01  0.00000000000E+00 0.  1.
     999901    1    3    3    0    0  0.10596700518E+00 -0.55203825767E-01  0.55653174715E-01  0.88981669147E+00  0.88000000000E+00 0. -1.
        -11    1    4    4    0    0 -0.44762781092E-01  0.22282459635E-01 -0.39132476269E-01  0.63496664467E-01  0.51100000000E-03 0. -1.
         11    1    4    4    0    0 -0.43402642228E-01  0.40605439743E-01 -0.30410550315E-01  0.66765663185E-01  0.51100000000E-03 0.  1.
</event>
<event>
 8    1  0.1114447E+005  0.1043930E+01  0.7957747E-01            NaN
         13   -1    0    0    0    0  0.00000000000E+00  0.00000000000E+00  0.74505805969E-08  0.10566000000E+00  0.10566000000E+00 0.  1.
     999900   -1    0    0    0    0 -0.00000000000E+00 -0.00000000000E+00 -0.74505805969E-08  0.93827000000E+00  0.93827000000E+00 0.  1.
     999902    2    1    2    0    0 -0.13239201676E-02 -0.17007534256E-01 -0.16025076139E-01  0.10205246149E+01  0.10202561823E+01 0.  0.
     999903    2    3    3    0    0 -0.71462135706E-01  0.21344034075E-01 -0.10716544414E+00  0.13221342014E+00  0.20821897506E-01 0.  0.
         14    1    1    2    0    0  0.13239201676E-02  0.17007534256E-01  0.16025076139E-01  0.23405385092E-01  0.00000000000E+00 0.  1.
     999901    1    3    3    0    0  0.70138215538E-01 -0.38351568331E-01  0.91140368006E-01  0.88831119477E+00  0.88000000000E+00 0. -1.
        -11    1    4    4    0    0 -0.42181550505E-01  0.62665625269E-02 -0.45899861025E-01  0.62654699520E-01  0.51100000000E-03 0.  1.
         11    1    4    4    0    0 -0.29280585201E-01  0.15077471548E-01 -0.61265583120E-01  0.69558720618E-01  0.51100000000E-03 0. -1.
</event>
<event>
 8    1  0.1114447E+005  0.1043930E+01  0.7957747E-01            NaN
         13   -1    0    0    0    0  0.00000000000E+00  0.00000000000E+00  0.74505805969E-08  0.10566000000E+00  0.10566000000E+00 0. -1.
     999900   -1    0    0    0    0 -0.00000000000E+00 -0.00000000000E+00 -0.74505805969E-08  0.93827000000E+00  0.93827000000E+00 0.  1.
     999902    2    1    2    0    0  0.57470803041E-02 -0.21254288112E-01  0.70357771141E-02  0.10208155921E+01  0.10205538678E+01 0.  0.
     999903    2    3    3    0    0 -0.53311303908E-01 -0.74736963234E-01  0.93739971304E-01  0.13297219000E+00  0.21603525051E-01 0.  0.
         14    1    1    2    0    0 -0.57470803041E-02  0.21254288112E-01 -0.70357771141E-02  0.23114407947E-01  0.00000000000E+00 0. -1.
     999901    1    3    3    0    0  0.59058384212E-01  0.53482675122E-01 -0.86704194190E-01  0.88784340206E+00  0.88000000000E+00 0. -1.
        -11    1    4    4    0    0 -0.17598892647E-01 -0.35044576513E-01  0.52359172221E-01  0.65418555487E-01  0.51100000000E-03 0. -1.
         11    1    4    4    0    0 -0.35712411261E-01 -0.39692386721E-01  0.41380799083E-01  0.67553634510E-01  0.51100000000E-03 0.  1.
</event>
<event>
 8    1  0.1114447E+005  0.1043930E+01  0.7957747E-01            NaN
         13   -1    0    0    0    0  0.00000000000E+00  0.00000000000E+00  0.74505805969E-08  0.10566000000E+00  0.10566000000E+00 0.  1.
     999900   -1    0    0    0    0 -0.00000000000E+00 -0.00000000000E+00 -0.74505805969E-08  0.93827000000E+00  0.93827000000E+00 0.  1.
     999902    2    1    2    0    0 -0.65974012696E-02 -0.23377512488E-01  0.10441050861E-02  0.10196169593E+01  0.10193270426E+01 0.  0.
     999903    2    3    3    0    0 -0.95332923941E-01 -0.46402470439E-01  0.75558268559E-01  0.13172253862E+00  0.20005488848E-01 0.  0.
         14    1    1    2    0    0  0.65974012696E-02  0.23377512488E-01 -0.10441050861E-02  0.24313040720E-01  0.00000000000E+00 0. -1.
     999901    1    3    3    0    0  0.88735522672E-01  0.23024957951E-01 -0.74514163473E-01  0.88789442066E+00  0.88000000000E+00 0.  1.
        -11    1    4    4    0    0 -0.56919320523E-01 -0.29436548503E-01  0.57166160641E-01  0.85875202941E-01  0.51100000000E-03 0. -1.
         11    1    4    4    0    0 -0.38413603418E-01 -0.16965921935E-01  0.18392107918E-01  0.45847335684E-01  0.51100000000E-03 0.  1.
</event>
<event>
 8    1  0.1114447E+005  0.1043930E+01  0.7957747E-01            NaN
         13   -1    0    0    0    0  0.00000000000E+00  0.00000000000E+00  0.74505805969E-08  0.10566000000E+00  0.10566000000E+00 0. -1.
     999900   -1    0    0    0    0 -0.00000000000E+00 -0.00000000000E+00 -0.74505805969E-08  0.93827000000E+00  0.93827000000E+00 0. -1.
     999902    2    1    2    0    0  0.85146721849E-02 -0.21748574721E-01 -0.47891154853E-02  0.10200881089E+01  0.10198094499E+01 0.  0.
     999903    2    3    3    0    0  0.10402625755E+00  0.72532500907E-01  0.18327244889E-01  0.12961309504E+00  0.19525382315E-01 0.  0.
         14    1    1    2    0    0 -0.85146721849E-02  0.21748574721E-01  0.47891154853E-02  0.23841891115E-01  0.00000000000E+00 0. -1.
     999901    1    3    3    0    0 -0.95511585361E-01 -0.94281075628E-01 -0.23116360374E-01  0.89047501384E+00  0.88000000000E+00 0. -1.
        -11    1    4    4    0    0  0.43000670370E-01  0.41393758420E-01  0.11200007298E-01  0.60730570332E-01  0.51100000000E-03 0.  1.
         11    1    4    4    0    0  0.61025587176E-01  0.31138742487E-01  0.71272375910E-02  0.68882524711E-01  0.51100000000E-03 0. -1.
</event>
<event>
 8    1  0.1114447E+005  0.1043930E+01  0.7957747E-01            NaN
         13   -1    0    0    0    0  0.00000000000E+00  0.00000000000E+00  0.74505805969E-08  0.10566000000E+00  0.10566000000E+00 0.  1.
     999900   -1    0    0    0    0 -0.00000000000E+00 -0.00000000000E+00 -0.74505805969E-08  0.93827000000E+00  0.93827000000E+00 0. -1.
     999902    2    1    2    0    0 -0.23797224906E-01 -0.31568806696E-02  0.29200946895E-02  0.10197473458E+01  0.10194605675E+01 0.  0.
     999903    2    3    3    0    0 -0.12536263109E+00 -0.40006913940E-01  0.50820573830E-02  0.13313687289E+00  0.19576955243E-01 0.  0.
         14    1    1    2    0    0  0.23797224906E-01  0.31568806696E-02 -0.29200946895E-02  0.24182654151E-01  0.00000000000E+00 0. -1.
     999901    1    3    3    0    0  0.10156540619E+00  0.36850033270E-01 -0.21619626935E-02  0.88661047296E+00  0.88000000000E+00 0. -1.
        -11    1    4    4    0    0 -0.69045262158E-01 -0.17532781257E-01 -0.60140004513E-02  0.71491789511E-01  0.51100000000E-03 0.  1.
         11    1    4    4    0    0 -0.56317368937E-01 -0.22474132683E-01  0.11096057834E-01  0.61645083375E-01  0.51100000000E-03 0. -1.
</event>
<event>
 8    1  0.1114447E+005  0.1043930E+01  0.7957747E-01            NaN
         13   -1    0    0    0    0  0.00000000000E+00  0.00000000000E+00  0.74505805969E-08  0.10566000000E+00  0.10566000000E+00 0.  1.
     999900   -1    0    0    0    0 -0.00000000000E+00 -0.00000000000E+00 -0.74505805969E-08  0.93827000000E+00  0.93827000000E+00 0.  1.
     999902    2    1    2    0    0  0.19000188221E-02  0.20047047707E-01 -0.82228172982E-02  0.10221789330E+01  0.10219474850E+01 0.  0.
     999903    2    3    3    0    0  0.10723094446E+00 -0.28441324323E-01  0.67373503214E-01  0.13135878849E+00  0.20212817689E-01 0.  0.
         14    1    1    2    0    0 -0.19000188221E-02 -0.20047047707E-01  0.82228172982E-02  0.21751067045E-01  0.00000000000E+00 0.  1.
     999901    1    3    3    0    0 -0.10533092563E+00  0.48488372030E-01 -0.75596320512E-01  0.89082014447E+00  0.88000000000E+00 0.  1.
        -11    1    4    4    0    0  0.62288826837E-01 -0.26739582839E-01  0.40594188914E-01  0.79012989652E-01  0.51100000000E-03 0. -1.
         11    1    4    4    0    0  0.44942117619E-01 -0.17017414835E-02  0.26779314300E-01  0.52345798834E-01  0.51100000000E-03 0.  1.
</event>
<event>
 8    1  0.1114447E+005  0.1043930E+01  0.7957747E-01            NaN
         13   -1    0    0    0    0  0.00000000000E+00  0.00000000000E+00  0.74505805969E-08  0.10566000000E+00  0.10566000000E+00 0. -1.
     999900   -1    0    0    0    0 -0.00000000000E+00 -0.00000000000E+00 -0.74505805969E-08  0.93827000000E+00  0.93827000000E+00 0.  1.
     999902    2    1    2    0    0  0.15239407729E-01 -0.12277785775E-01  0.13986842232E-01  0.10198755757E+01  0.10195918667E+01 0.  0.
     999903    2    3    3    0    0  0.60706798449E-02  0.82987760320E-01 -0.95160122558E-01  0.12798284128E+00  0.20008428700E-01 0.  0.
         14    1    1    2    0    0 -0.15239407729E-01  0.12277785775E-01 -0.13986842232E-01  0.24054424273E-01  0.00000000000E+00 0.  1.
     999901    1    3    3    0    0  0.91687278846E-02 -0.95265546095E-01  0.10914696479E+00  0.89189273445E+00  0.88000000000E+00 0. -1.
        -11    1    4    4    0    0 -0.13690531547E-02  0.50722196641E-01 -0.69681103873E-01  0.86199378748E-01  0.51100000000E-03 0.  1.
         11    1    4    4    0    0  0.74397329996E-02  0.32265563679E-01 -0.25479018685E-01  0.41783462528E-01  0.51100000000E-03 0. -1.
</event>
<event>
 8    1  0.1114447E+005  0.1043930E+01  0.7957747E-01            NaN
         13   -1    0    0    0    0  0.00000000000E+00  0.00000000000E+00  0.74505805969E-08  0.10566000000E+00  0.10566000000E+00 0.  1.
     999900   -1    0    0    0    0 -0.00000000000E+00 -0.00000000000E+00 -0.74505805969E-08  0.93827000000E+00  0.93827000000E+00 0.  1.
     999902    2    1    2    0    0 -0.36751970295E-02  0.31144101473E-02 -0.23236412823E-01  0.10201994816E+01  0.10199234504E+01 0.  0.
     999903    2    3    3    0    0 -0.44162944721E-01  0.12157366315E+00  0.41499656972E-02  0.13091782425E+00  0.19792251808E-01 0.  0.
         14    1    1    2    0    0  0.36751970295E-02 -0.31144101473E-02  0.23236412823E-01  0.23730518423E-01  0.00000000000E+00 0.  1.
     999901    1    3    3    0    0  0.40487747691E-01 -0.11845925300E+00 -0.27386378520E-01  0.88928165733E+00  0.88000000000E+00 0.  1.
        -11    1    4    4    0    0 -0.21318136025E-01  0.85707874954E-01  0.33239327523E-02  0.88383326497E-01  0.51100000000E-03 0.  1.
         11    1    4    4    0    0 -0.22844808696E-01  0.35865788197E-01  0.82603294489E-03  0.42534497749E-01  0.51100000000E-03 0. -1.
</event>
<event>
 8    1  0.1114447E+005  0.1043930E+01  0.7957747E-01            NaN
         13   -1    0    0    0    0  0.00000000000E+00  0.00000000000E+00  0.74505805969E-08  0.10566000000E+00  0.10566000000E+00 0. -1.
     999900   -1    0    0    0    0 -0.00000000000E+00 -0.00000000000E+00 -0.74505805969E-08  0.93827000000E+00  0.93827000000E+00 0. -1.
     999902    2    1    2    0    0  0.18851336723E-01 -0.72115505698E-02  0.15703850723E-01  0.10183567662E+01  0.10180356148E+01 0.  0.
     999903    2    3    3    0    0 -0.11989118252E+00  0.22161836637E-01  0.30257277372E-01  0.12688378024E+00  0.17859121100E-01 0.  0.
         14    1    1    2    0    0 -0.18851336723E-01  0.72115505698E-02 -0.15703850723E-01  0.25573233769E-01  0.00000000000E+00 0.  1.
     999901    1    3    3    0    0  0.13874251924E+00 -0.29373387206E-01 -0.14553426648E-01  0.89147298599E+00  0.88000000000E+00 0.  1.
        -11    1    4    4    0    0 -0.36469581387E-01 -0.10054361275E-02  0.11902233715E-01  0.38379233405E-01  0.51100000000E-03 0.  1.
         11    1    4    4    0    0 -0.83421601128E-01  0.23167272764E-01  0.18355043657E-01  0.88504546837E-01  0.51100000000E-03 0. -1.
</event>
<event>
 8    1  0.1114447E+005  0.1043930E+01  0.7957747E-01            NaN
         13   -1    0    0    0    0  0.00000000000E+00  0.00000000000E+00  0.74505805969E-08  0.10566000000E+00  0.10566000000E+00 0.  1.
     999900   -1    0    0    0    0 -0.00000000000E+00 -0.00000000000E+00 -0.74505805969E-08  0.93827000000E+00  0.93827000000E+00 0.  1.
     999902    2    1    2    0    0  0.25748346116E-02  0.22331299997E-01  0.73003125035E-02  0.10202950408E+01  0.10200212542E+01 0.  0.
     999903    2    3    3    0    0 -0.11984829461E+00  0.35457163442E-01  0.34978788752E-01  0.13129233615E+00  0.19832743387E-01 0.  0.
         14    1    1    2    0    0 -0.25748346116E-02 -0.22331299997E-01 -0.73003125035E-02  0.23634959181E-01  0.00000000000E+00 0.  1.
     999901    1    3    3    0    0  0.12242312922E+00 -0.13125863445E-01 -0.27678476248E-01  0.88900270467E+00  0.88000000000E+00 0. -1.
        -11    1    4    4    0    0 -0.94569309137E-01  0.19703336686E-01  0.29471835914E-01  0.10099715808E+00  0.51100000000E-03 0.  1.
         11    1    4    4    0    0 -0.25278985469E-01  0.15753826756E-01  0.55069528381E-02  0.30295178071E-01  0.51100000000E-03 0. -1.
</event>
<event>
 8    1  0.1114447E+005  0.1043930E+01  0.7957747E-01            NaN
         13   -1    0    0    0    0  0.00000000000E+00  0.00000000000E+00  0.74505805969E-08  0.10566000000E+00  0.10566000000E+00 0. -1.
     999900   -1    0    0    0    0 -0.00000000000E+00 -0.00000000000E+00 -0.74505805969E-08  0.93827000000E+00  0.93827000000E+00 0.  1.
     999902    2    1    2    0    0 -0.19679459900E-01  0.12807705706E-01 -0.40172144993E-02  0.10201086550E+01  0.10198304817E+01 0.  0.
     999903    2    3    3    0    0 -0.11736922024E+00 -0.31560925384E-01 -0.48577949923E-01  0.13247273644E+00  0.20434843026E-01 0.  0.
         14    1    1    2    0    0  0.19679459900E-01 -0.12807705706E-01  0.40172144993E-02  0.23821345045E-01  0.00000000000E+00 0.  1.
     999901    1    3    3    0    0  0.97689760342E-01  0.44368631090E-01  0.44560735424E-01  0.88763591852E+00  0.88000000000E+00 0. -1.
        -11    1    4    4    0    0 -0.37312758987E-01 -0.59030370454E-03 -0.16977604251E-01  0.41001104971E-01  0.51100000000E-03 0. -1.
         11    1    4    4    0    0 -0.80056461254E-01 -0.30970621679E-01 -0.31600345672E-01  0.91471631467E-01  0.51100000000E-03 0.  1.
</event>
<event>
 8    1  0.1114447E+005  0.1043930E+01  0.7957747E-01            NaN
         13   -1    0    0    0    0  0.00000000000E+00  0.00000000000E+00  0.74505805969E-08  0.10566000000E+00  0.10566000000E+00 0.  1.
     999900   -1    0    0    0    0 -0.00000000000E+00 -0.00000000000E+00 -0.74505805969E-08  0.93827000000E+00  0.93827000000E+00 0.  1.
     999902    2    1    2    0    0 -0.23420152848E-01 -0.72597875991E-02  0.14555102390E-03  0.10194100232E+01  0.10191150898E+01 0.  0.
     999903    2    3    3    0    0 -0.11156590438E+00 -0.48094926098E-03  0.68381772098E-01  0.13235207246E+00  0.19844948908E-01 0.  0.
         14    1    1    2    0    0  0.23420152848E-01  0.72597875991E-02 -0.14555102390E-03  0.24519976764E-01  0.00000000000E+00 0.  1.
     999901    1    3    3    0    0  0.88145751534E-01 -0.67788383381E-02 -0.68236221074E-01  0.88705795077E+00  0.88000000000E+00 0. -1.
        -11    1    4    4    0    0 -0.45015963750E-01 -0.17399745036E-02  0.39016049535E-01  0.59598471004E-01  0.51100000000E-03 0.  1.
         11    1    4    4    0    0 -0.66549940632E-01  0.12590252426E-02  0.29365722563E-01  0.72753601459E-01  0.51100000000E-03 0. -1.
</event>
<event>
 8    1  0.1114447E+005  0.1043930E+01  0.7957747E-01            NaN
         13   -1    0    0    0    0  0.00000000000E+00  0.00000000000E+00  0.74505805969E-08  0.10566000000E+00  0.10566000000E+00 0.  1.
     999900   -1    0    0    0    0 -0.00000000000E+00 -0.00000000000E+00 -0.74505805969E-08  0.93827000000E+00  0.93827000000E+00 0. -1.
     999902    2    1    2    0    0 -0.30380107428E-02  0.42102081778E-02 -0.23118540526E-01  0.10202356488E+01  0.10199604683E+01 0.  0.
     999903    2    3    3    0    0  0.65526605392E-01 -0.37068154505E-01 -0.10746251284E+00  0.13258768060E+00  0.19066129337E-01 0.  0.
         14    1    1    2    0    0  0.30380107428E-02 -0.42102081778E-02  0.23118540526E-01  0.23694351188E-01  0.00000000000E+00 0.  1.
     999901    1    3    3    0    0 -0.68564616135E-01  0.41278362683E-01  0.84343972312E-01  0.88764796822E+00  0.88000000000E+00 0.  1.
        -11    1    4    4    0    0  0.23504296604E-01 -0.12420684505E-01 -0.54404781635E-01  0.60554659178E-01  0.51100000000E-03 0.  1.
         11    1    4    4    0    0  0.42022308788E-01 -0.24647470000E-01 -0.53057731203E-01  0.72033021418E-01  0.51100000000E-03 0. -1.
</event>
<event>
 8    1  0.1114447E+005  0.1043930E+01  0.7957747E-01            NaN
         13   -1    0    0    0    0  0.00000000000E+00  0.00000000000E+00  0.74505805969E-08  0.10566000000E+00  0.10566000000E+00 0.  1.
     999900   -1    0    0    0    0 -0.00000000000E+00 -0.00000000000E+00 -0.74505805969E-08  0.93827000000E+00  0.93827000000E+00 0. -1.
     999902    2    1    2    0    0 -0.58041179757E-02  0.22489675612E-01 -0.17391467546E-02  0.10206384151E+01  0.10203726165E+01 0.  0.
     999903    2    3    3    0    0 -0.25056259612E-01  0.11709207495E+00 -0.56079046618E-01  0.13369248462E+00  0.19759828235E-01 0.  0.
         14    1    1    2    0    0  0.58041179757E-02 -0.22489675612E-01  0.17391467546E-02  0.23291584876E-01  0.00000000000E+00 0.  1.
     999901    1    3    3    0    0  0.19252141637E-01 -0.94602399342E-01  0.54339899864E-01  0.88694593050E+00  0.88000000000E+00 0. -1.
        -11    1    4    4    0    0 -0.22066826132E-01  0.75346902558E-01 -0.44577625781E-01  0.90285803878E-01  0.51100000000E-03 0. -1.
         11    1    4    4    0    0 -0.29894334804E-02  0.41745172396E-01 -0.11501420837E-01  0.43406680743E-01  0.51100000000E-03 0.  1.
</event>
<event>
 8    1  0.1114447E+005  0.1043930E+01  0.7957747E-01            NaN
         13   -1    0    0    0    0  0.00000000000E+00  0.00000000000E+00  0.74505805969E-08  0.10566000000E+00  0.10566000000E+00 0.  1.
     999900   -1    0    0    0    0 -0.00000000000E+00 -0.00000000000E+00 -0.74505805969E-08  0.93827000000E+00  0.93827000000E+00 0.  1.
     999902    2    1    2    0    0  0.14860619483E-01  0.14780519021E-01 -0.11200898970E-01  0.10201652805E+01  0.10198884438E+01 0.  0.
     999903    2    3    3    0    0 -0.37663121084E-01  0.11789873392E+00  0.38473044527E-01  0.13119980863E+00  0.20361544093E-01 0.  0.
         14    1    1    2    0    0 -0.14860619483E-01 -0.14780519021E-01  0.11200898970E-01  0.23764719475E-01  0.00000000000E+00 0.  1.
     999901    1    3    3    0    0  0.52523740568E-01 -0.10311821490E+00 -0.49673943497E-01  0.88896547190E+00  0.88000000000E+00 0.  1.
        -11    1    4    4    0    0 -0.17176058343E-01  0.54704743918E-01  0.28463544368E-01  0.64016095370E-01  0.51100000000E-03 0. -1.
         11    1    4    4    0    0 -0.20487062741E-01  0.63193990004E-01  0.10009500159E-01  0.67183713256E-01  0.51100000000E-03 0.  1.
</event>
<event>
 8    1  0.1114447E+005  0.1043930E+01  0.7957747E-01            NaN
         13   -1    0    0    0    0  0.00000000000E+00  0.00000000000E+00  0.74505805969E-08  0.10566000000E+00  0.10566000000E+00 0.  1.
     999900   -1    0    0    0    0 -0.00000000000E+00 -0.00000000000E+00 -0.74505805969E-08  0.93827000000E+00  0.93827000000E+00 0. -1.
     999902    2    1    2    0    0 -0.21916963120E-01  0.89161879022E-02  0.67613813944E-02  0.10193217096E+01  0.10190246217E+01 0.  0.
     999903    2    3    3    0    0 -0.10508976055E+00 -0.58967452053E-01 -0.47272467628E-01  0.13115192871E+00  0.21097962814E-01 0.  0.
         14    1    1    2    0    0  0.21916963120E-01 -0.89161879022E-02 -0.67613813944E-02  0.24608290422E-01  0.00000000000E+00 0. -1.
     999901    1    3    3    0    0  0.83172797430E-01  0.67883639955E-01  0.54033849023E-01  0.88816978087E+00  0.88000000000E+00 0.  1.
        -11    1    4    4    0    0 -0.94450577997E-01 -0.58966752311E-01 -0.45801247813E-01  0.12039935625E+00  0.51100000000E-03 0.  1.
         11    1    4    4    0    0 -0.10639182553E-01 -0.69974163621E-06 -0.14712198156E-02  0.10752572465E-01  0.51100000000E-03 0. -1.
</event>
<event>
 8    1  0.1114447E+005  0.1043930E+01  0.7957747E-01            NaN
         13   -1    0    0    0    0  0.00000000000E+00  0.00000000000E+00  0.74505805969E-08  0.10566000000E+00  0.10566000000E+00 0. -1.
     999900   -1    0    0    0    0 -0.00000000000E+00 -0.00000000000E+00 -0.74505805969E-08  0.93827000000E+00  0.93827000000E+00 0.  1.
     999902    2    1    2    0    0 -0.15492545349E-01 -0.17147764427E-01 -0.35181289152E-02  0.10205539007E+01  0.10202861472E+01 0.  0.
     999903    2    3    3    0    0  0.12166848073E+00  0.92894621728E-02 -0.36222892728E-01  0.12893645159E+00  0.20566897703E-01 0.  0.
         14    1    1    2    0    0  0.15492545349E-01  0.17147764427E-01  0.35181289152E-02  0.23376099275E-01  0.00000000000E+00 0.  1.
     999901    1    3    3    0    0 -0.13716102608E+00 -0.26437226600E-01  0.32704763812E-01  0.89161744913E+00  0.88000000000E+00 0.  1.
        -11    1    4    4    0    0  0.63334340911E-01 -0.37344525980E-03 -0.94955049807E-02  0.64045327198E-01  0.51100000000E-03 0.  1.
         11    1    4    4    0    0  0.58334139817E-01  0.96629074326E-02 -0.26727387747E-01  0.64891124393E-01  0.51100000000E-03 0. -1.
</event>
<event>
 8    1  0.1114447E+005  0.1043930E+01  0.7957747E-01            NaN
         13   -1    0    0    0    0  0.00000000000E+00  0.00000000000E+00  0.74505805969E-08  0.10566000000E+00  0.10566000000E+00 0. -1.
     999900   -1    0    0    0    0 -0.00000000000E+00 -0.00000000000E+00 -0.74505805969E-08  0.93827000000E+00  0.93827000000E+00 0.  1.
     999902    2    1    2    0    0  0.41213931208E-02 -0.65880566283E-03  0.23505359562E-01  0.10200569643E+01  0.10197775682E+01 0.  0.
     999903    2    3    3    0    0  0.71288594989E-01 -0.32331752062E-01 -0.99636414872E-01  0.12838521686E+00  0.20686777740E-01 0.  0.
         14    1    1    2    0    0 -0.41213931208E-02  0.65880566283E-03 -0.23505359562E-01  0.23873035716E-01  0.00000000000E+00 0.  1.
     999901    1    3    3    0    0 -0.67167201868E-01  0.31672946399E-01  0.12314177443E+00  0.89167174742E+00  0.88000000000E+00 0. -1.
        -11    1    4    4    0    0  0.57187535019E-01 -0.19034036441E-01 -0.64673734377E-01  0.88406231364E-01  0.51100000000E-03 0. -1.
         11    1    4    4    0    0  0.14101059970E-01 -0.13297715621E-01 -0.34962680495E-01  0.39978985497E-01  0.51100000000E-03 0.  1.
</event>
<event>
 8    1  0.1114447E+005  0.1043930E+01  0.7957747E-01            NaN
         13   -1    0    0    0    0  0.00000000000E+00  0.00000000000E+00  0.74505805969E-08  0.10566000000E+00  0.10566000000E+00 0. -1.
     999900   -1    0    0    0    0 -0.00000000000E+00 -0.00000000000E+00 -0.74505805969E-08  0.93827000000E+00  0.93827000000E+00 0. -1.
     999902    2    1    2    0    0  0.77464954812E-02 -0.64261632366E-02  0.23128615738E-01  0.10187062685E+01  0.10183939438E+01 0.  0.
     999903    2    3    3    0    0  0.88425896204E-01  0.88132211841E-01 -0.23945616060E-01  0.12872512525E+00  0.20256837316E-01 0.  0.
         14    1    1    2    0    0 -0.77464954812E-02  0.64261632366E-02 -0.23128615738E-01  0.25223731527E-01  0.00000000000E+00 0.  1.
     999901    1    3    3    0    0 -0.80679400723E-01 -0.94558375077E-01  0.47074231798E-01  0.88998114323E+00  0.88000000000E+00 0.  1.
        -11    1    4    4    0    0  0.15745436373E-01  0.22844892088E-01  0.14210214743E-02  0.27786476641E-01  0.51100000000E-03 0. -1.
         11    1    4    4    0    0  0.72680459830E-01  0.65287319753E-01 -0.25366637534E-01  0.10093864861E+00  0.51100000000E-03 0.  1.
</event>
<event>
 8    1  0.1156225E+005  0.1043930E+01  0.7957747E-01            NaN
         13   -1    0    0    0    0  0.00000000000E+00  0.00000000000E+00  0.74505805969E-08  0.10566000000E+00  0.10566000000E+00 0.  1.
     999900   -1    0    0    0    0 -0.00000000000E+00 -0.00000000000E+00 -0.74505805969E-08  0.93827000000E+00  0.93827000000E+00 0.  1.
     999902    2    1    2    0    0  0.10119492794E-01 -0.21736494738E-01  0.77217183219E-03  0.10199409278E+01  0.10196587765E+01 0.  0.
     999903    2    3    3    0    0 -0.30636993781E-01  0.12104487052E+00  0.15542327341E-01  0.12737957582E+00  0.19836993987E-01 0.  0.
         14    1    1    2    0    0 -0.10119492794E-01  0.21736494738E-01 -0.77217183219E-03  0.23989072246E-01  0.00000000000E+00 0. -1.
     999901    1    3    3    0    0  0.40756486575E-01 -0.14278136526E+00 -0.14770155509E-01  0.89256135193E+00  0.88000000000E+00 0. -1.
        -11    1    4    4    0    0 -0.30685364316E-01  0.87842209224E-01  0.85169618720E-02  0.93437920916E-01  0.51100000000E-03 0. -1.
         11    1    4    4    0    0  0.48370534381E-04  0.33202661298E-01  0.70253654687E-02  0.33941654909E-01  0.51100000000E-03 0.  1.
</event>
<event>
 8    1  0.1114447E+005  0.1043930E+01  0.7957747E-01            NaN
         13   -1    0    0    0    0  0.00000000000E+00  0.00000000000E+00  0.74505805969E-08  0.10566000000E+00  0.10566000000E+00 0.  1.
     999900   -1    0    0    0    0 -0.00000000000E+00 -0.00000000000E+00 -0.74505805969E-08  0.93827000000E+00  0.93827000000E+00 0.  1.
     999902    2    1    2    0    0 -0.17725834888E-01  0.24226006791E-02 -0.15243864670E-01  0.10204257530E+01  0.10201550214E+01 0.  0.
     999903    2    3    3    0    0 -0.11876233043E+00 -0.19417032378E-01 -0.54109581286E-01  0.13352334184E+00  0.20472512167E-01 0.  0.
         14    1    1    2    0    0  0.17725834888E-01 -0.24226006791E-02  0.15243864670E-01  0.23504246991E-01  0.00000000000E+00 0.  1.
     999901    1    3    3    0    0  0.10103649554E+00  0.21839633057E-01  0.38865716616E-01  0.88690241117E+00  0.88000000000E+00 0. -1.
        -11    1    4    4    0    0 -0.66357380974E-01 -0.13754883870E-01 -0.19704234201E-01  0.70576319020E-01  0.51100000000E-03 0.  1.
         11    1    4    4    0    0 -0.52404949457E-01 -0.56621485075E-02 -0.34405347085E-01  0.62947022823E-01  0.51100000000E-03 0. -1.
</event>
<event>
 8    1  0.1114447E+005  0.1043930E+01  0.7957747E-01            NaN
         13   -1    0    0    0    0  0.00000000000E+00  0.00000000000E+00  0.74505805969E-08  0.10566000000E+00  0.10566000000E+00 0. -1.
     999900   -1    0    0    0    0 -0.00000000000E+00 -0.00000000000E+00 -0.74505805969E-08  0.93827000000E+00  0.93827000000E+00 0.  1.
     999902    2    1    2    0    0  0.15126220311E-01 -0.36672832682E-02  0.18749317134E-01  0.10195622262E+01  0.10192709869E+01 0.  0.
     999903    2    3    3    0    0 -0.78114032267E-01 -0.15745462189E-02 -0.98053869675E-01  0.12695866990E+00  0.19991530013E-01 0.  0.
         14    1    1    2    0    0 -0.15126220311E-01  0.36672832682E-02 -0.18749317134E-01  0.24367773810E-01  0.00000000000E+00 0.  1.
     999901    1    3    3    0    0  0.93240252578E-01 -0.20927370493E-02  0.11680318681E+00  0.89260355629E+00  0.88000000000E+00 0. -1.
        -11    1    4    4    0    0 -0.53594843017E-01 -0.12469187894E-02 -0.51506140230E-01  0.74344506232E-01  0.51100000000E-03 0. -1.
         11    1    4    4    0    0 -0.24519189250E-01 -0.32762742944E-03 -0.46547729446E-01  0.52614163670E-01  0.51100000000E-03 0.  1.
</event>
<event>
 8    1  0.1114447E+005  0.1043930E+01  0.7957747E-01            NaN
         13   -1    0    0    0    0  0.00000000000E+00  0.00000000000E+00  0.74505805969E-08  0.10566000000E+00  0.10566000000E+00 0.  1.
     999900   -1    0    0    0    0 -0.00000000000E+00 -0.00000000000E+00 -0.74505805969E-08  0.93827000000E+00  0.93827000000E+00 0.  1.
     999902    2    1    2    0    0  0.18361013926E-01 -0.10566821394E-01 -0.10687787030E-01  0.10202020979E+01  0.10199261283E+01 0.  0.
     999903    2    3    3    0    0 -0.70613924889E-01 -0.10088600909E+00 -0.38636446411E-01  0.13067681834E+00  0.20477857343E-01 0.  0.
         14    1    1    2    0    0 -0.18361013926E-01  0.10566821394E-01  0.10687787030E-01  0.23727902106E-01  0.00000000000E+00 0.  1.
     999901    1    3    3    0    0  0.88974938814E-01  0.90319187698E-01  0.27948659381E-01  0.88952527955E+00  0.88000000000E+00 0. -1.
        -11    1    4    4    0    0 -0.53990420117E-01 -0.60448719515E-01 -0.23165645269E-01  0.84296627437E-01  0.51100000000E-03 0.  1.
         11    1    4    4    0    0 -0.16623504772E-01 -0.40437289578E-01 -0.15470801142E-01  0.46380190904E-01  0.51100000000E-03 0. -1.
</event>
<event>
 8    1  0.1114447E+005  0.1043930E+01  0.7957747E-01            NaN
         13   -1    0    0    0    0  0.00000000000E+00  0.00000000000E+00  0.74505805969E-08  0.10566000000E+00  0.10566000000E+00 0.  1.
     999900   -1    0    0    0    0 -0.00000000000E+00 -0.00000000000E+00 -0.74505805969E-08  0.93827000000E+00  0.93827000000E+00 0.  1.
     999902    2    1    2    0    0  0.16212628337E-01 -0.73981275218E-02  0.15819164084E-01  0.10201008674E+01  0.10198225101E+01 0.  0.
     999903    2    3    3    0    0  0.90700265146E-01 -0.30977267331E-01  0.90831519571E-01  0.13346044572E+00  0.19369988002E-01 0.  0.
         14    1    1    2    0    0 -0.16212628337E-01  0.73981275218E-02 -0.15819164084E-01  0.23829132606E-01  0.00000000000E+00 0. -1.
     999901    1    3    3    0    0 -0.74487636809E-01  0.23579139809E-01 -0.75012355487E-01  0.88664042167E+00  0.88000000000E+00 0.  1.
        -11    1    4    4    0    0  0.63915830809E-01 -0.30721868229E-01  0.68208000942E-01  0.98395422298E-01  0.51100000000E-03 0.  1.
         11    1    4    4    0    0  0.26784434337E-01 -0.25539910170E-03  0.22623518629E-01  0.35065023422E-01  0.51100000000E-03 0. -1.
</event>
<event>
 8    1  0.1114447E+005  0.1043930E+01  0.7957747E-01            NaN
         13   -1    0    0    0    0  0.00000000000E+00  0.00000000000E+00  0.74505805969E-08  0.10566000000E+00  0.10566000000E+00 0. -1.
     999900   -1    0    0    0    0 -0.00000000000E+00 -0.00000000000E+00 -0.74505805969E-08  0.93827000000E+00  0.93827000000E+00 0.  1.
     999902    2    1    2    0    0  0.18073478092E-01 -0.57192336449E-02 -0.11777944978E-01  0.10216122888E+01  0.10213684881E+01 0.  0.
     999903    2    3    3    0    0  0.10264294066E+00  0.31812077806E-01  0.75009321004E-01  0.13251576827E+00  0.19658307183E-01 0.  0.
         14    1    1    2    0    0 -0.18073478092E-01  0.57192336449E-02  0.11777944978E-01  0.22317711166E-01  0.00000000000E+00 0. -1.
     999901    1    3    3    0    0 -0.84569462569E-01 -0.37531311451E-01 -0.86787265982E-01  0.88909652056E+00  0.88000000000E+00 0. -1.
        -11    1    4    4    0    0  0.82513389923E-01  0.17005482084E-01  0.57826708727E-01  0.10218529885E+00  0.51100000000E-03 0.  1.
         11    1    4    4    0    0  0.20129550738E-01  0.14806595722E-01  0.17182612277E-01  0.30330469423E-01  0.51100000000E-03 0. -1.
</event>
<event>
 8    1  0.1114447E+005  0.1043930E+01  0.7957747E-01            NaN
         13   -1    0    0    0    0  0.00000000000E+00  0.00000000000E+00  0.74505805969E-08  0.10566000000E+00  0.10566000000E+00 0.  1.
     999900   -1    0    0    0    0 -0.00000000000E+00 -0.00000000000E+00 -0.74505805969E-08  0.93827000000E+00  0.93827000000E+00 0.  1.
     999902    2    1    2    0    0 -0.10494167239E-01  0.17982997717E-01 -0.10636446408E-01  0.10205494580E+01  0.10202816015E+01 0.  0.
     999903    2    3    3    0    0 -0.10757633652E+00  0.67088277424E-01 -0.36876012786E-01  0.13346164331E+00  0.19459310621E-01 0.  0.
         14    1    1    2    0    0  0.10494167239E-01 -0.17982997717E-01  0.10636446408E-01  0.23380542019E-01  0.00000000000E+00 0. -1.
     999901    1    3    3    0    0  0.97082169283E-01 -0.49105279708E-01  0.26239566377E-01  0.88708781467E+00  0.88000000000E+00 0. -1.
        -11    1    4    4    0    0 -0.53990905152E-01  0.22804023196E-01 -0.13804782252E-01  0.60215234343E-01  0.51100000000E-03 0. -1.
         11    1    4    4    0    0 -0.53585431370E-01  0.44284254229E-01 -0.23071230534E-01  0.73246408970E-01  0.51100000000E-03 0.  1.
</event>
<event>
 8    1  0.1114447E+005  0.1043930E+01  0.7957747E-01            NaN
         13   -1    0    0    0    0  0.00000000000E+00  0.00000000000E+00  0.74505805969E-08  0.10566000000E+00  0.10566000000E+00 0.  1.
     999900   -1    0    0    0    0 -0.00000000000E+00 -0.00000000000E+00 -0.74505805969E-08  0.93827000000E+00  0.93827000000E+00 0.  1.
     999902    2    1    2    0    0 -0.12870635589E-01 -0.88470997210E-02 -0.19092879524E-01  0.10192629677E+01  0.10189644424E+01 0.  0.
     999903    2    3    3    0    0 -0.89809694773E-01  0.72231054990E-01 -0.59379271295E-01  0.13127857631E+00  0.20616987103E-01 0.  0.
         14    1    1    2    0    0  0.12870635589E-01  0.88470997210E-02  0.19092879524E-01  0.24667032299E-01  0.00000000000E+00 0.  1.
     999901    1    3    3    0    0  0.76939059183E-01 -0.81078154711E-01  0.40286391771E-01  0.88798439140E+00  0.88000000000E+00 0. -1.
        -11    1    4    4    0    0 -0.80854633299E-01  0.63398312104E-01 -0.45006872287E-01  0.11217262312E+00  0.51100000000E-03 0. -1.
         11    1    4    4    0    0 -0.89550614737E-02  0.88327428860E-02 -0.14372399008E-01  0.19105953186E-01  0.51100000000E-03 0.  1.
</event>
<event>
 8    1  0.1114447E+005  0.1043930E+01  0.7957747E-01            NaN
         13   -1    0    0    0    0  0.00000000000E+00  0.00000000000E+00  0.74505805969E-08  0.10566000000E+00  0.10566000000E+00 0.  1.
     999900   -1    0    0    0    0 -0.00000000000E+00 -0.00000000000E+00 -0.74505805969E-08  0.93827000000E+00  0.93827000000E+00 0.  1.
     999902    2    1    2    0    0  0.18460439166E-01 -0.89905489229E-02 -0.10558536140E-01  0.10208410314E+01  0.10205798896E+01 0.  0.
     999903    2    3    3    0    0 -0.23880577083E-01  0.66295302476E-01 -0.10883717359E+00  0.13116726445E+00  0.19848723276E-01 0.  0.
         14    1    1    2    0    0 -0.18460439166E-01  0.89905489229E-02  0.10558536140E-01  0.23088968568E-01  0.00000000000E+00 0.  1.
     999901    1    3    3    0    0  0.42341016249E-01 -0.75285851399E-01  0.98278637450E-01  0.88967376698E+00  0.88000000000E+00 0. -1.
        -11    1    4    4    0    0 -0.24649024267E-01  0.63863631611E-01 -0.95046148120E-01  0.11713312611E+00  0.51100000000E-03 0. -1.
         11    1    4    4    0    0  0.76844718375E-03  0.24316708649E-02 -0.13791025471E-01  0.14034138335E-01  0.51100000000E-03 0.  1.
</event>
<event>
 8    1  0.1114447E+005  0.1043930E+01  0.7957747E-01            NaN
         13   -1    0    0    0    0  0.00000000000E+00  0.00000000000E+00  0.74505805969E-08  0.10566000000E+00  0.10566000000E+00 0. -1.
     999900   -1    0    0    0    0 -0.00000000000E+00 -0.00000000000E+00 -0.74505805969E-08  0.93827000000E+00  0.93827000000E+00 0. -1.
     999902    2    1    2    0    0 -0.17572934427E-01 -0.15862141926E-01  0.41706282291E-02  0.10198923273E+01  0.10196090180E+01 0.  0.
     999903    2    3    3    0    0  0.77779985351E-01 -0.55867109907E-01 -0.84952657176E-01  0.12936689990E+00  0.18654241825E-01 0.  0.
         14    1    1    2    0    0  0.17572934427E-01  0.15862141926E-01 -0.41706282291E-02  0.24037672739E-01  0.00000000000E+00 0. -1.
     999901    1    3    3    0    0 -0.95352919778E-01  0.40004967981E-01  0.89123285406E-01  0.89052542736E+00  0.88000000000E+00 0. -1.
        -11    1    4    4    0    0  0.33813538715E-01 -0.30067229140E-01 -0.29376060605E-01  0.53950048436E-01  0.51100000000E-03 0.  1.
         11    1    4    4    0    0  0.43966446636E-01 -0.25799880767E-01 -0.55576596572E-01  0.75416851465E-01  0.51100000000E-03 0. -1.
</event>
<event>
 8    1  0.1114447E+005  0.1043930E+01  0.7957747E-01            NaN
         13   -1    0    0    0    0  0.00000000000E+00  0.00000000000E+00  0.74505805969E-08  0.10566000000E+00  0.10566000000E+00 0. -1.
     999900   -1    0    0    0    0 -0.00000000000E+00 -0.00000000000E+00 -0.74505805969E-08  0.93827000000E+00  0.93827000000E+00 0. -1.
     999902    2    1    2    0    0  0.18984075854E-01  0.52740661881E-02 -0.65334556301E-02  0.10231719425E+01  0.10229613516E+01 0.  0.
     999903    2    3    3    0    0 -0.92899005446E-01  0.83765717758E-02 -0.91243310201E-01  0.13204725485E+00  0.20266812481E-01 0.  0.
         14    1    1    2    0    0 -0.18984075854E-01 -0.52740661881E-02  0.65334556301E-02  0.20758057536E-01  0.00000000000E+00 0. -1.
     999901    1    3    3    0    0  0.11188308130E+00 -0.31025055877E-02  0.84709854571E-01  0.89112468762E+00  0.88000000000E+00 0.  1.
        -11    1    4    4    0    0 -0.21317841932E-01  0.97192909282E-02 -0.28060166258E-01  0.36558843694E-01  0.51100000000E-03 0. -1.
         11    1    4    4    0    0 -0.71581163514E-01 -0.13427191524E-02 -0.63183143943E-01  0.95488411152E-01  0.51100000000E-03 0.  1.
</event>
<event>
 8    1  0.1114447E+005  0.1043930E+01  0.7957747E-01            NaN
         13   -1    0    0    0    0  0.00000000000E+00  0.00000000000E+00  0.74505805969E-08  0.10566000000E+00  0.10566000000E+00 0. -1.
     999900   -1    0    0    0    0 -0.00000000000E+00 -0.00000000000E+00 -0.74505805969E-08  0.93827000000E+00  0.93827000000E+00 0.  1.
     999902    2    1    2    0    0  0.15630445265E-01  0.18304456938E-01  0.57364817874E-02  0.10191858858E+01  0.10188854689E+01 0.  0.
     999903    2    3    3    0    0  0.48683341629E-01  0.11249188145E+00 -0.45118685017E-01  0.13208385512E+00  0.19645811256E-01 0.  0.
         14    1    1    2    0    0 -0.15630445265E-01 -0.18304456938E-01 -0.57364817874E-02  0.24744114174E-01  0.00000000000E+00 0. -1.
     999901    1    3    3    0    0 -0.33052896364E-01 -0.94187424516E-01  0.50855166805E-01  0.88710203071E+00  0.88000000000E+00 0. -1.
        -11    1    4    4    0    0  0.24383432494E-01  0.33214229057E-01 -0.15853955520E-01  0.44151396565E-01  0.51100000000E-03 0.  1.
         11    1    4    4    0    0  0.24299909135E-01  0.79277652397E-01 -0.29264729498E-01  0.87932458553E-01  0.51100000000E-03 0. -1.
</event>
<event>
 8    1  0.1114447E+005  0.1043930E+01  0.7957747E-01            NaN
         13   -1    0    0    0    0  0.00000000000E+00  0.00000000000E+00  0.74505805969E-08  0.10566000000E+00  0.10566000000E+00 0.  1.
     999900   -1    0    0    0    0 -0.00000000000E+00 -0.00000000000E+00 -0.74505805969E-08  0.93827000000E+00  0.93827000000E+00 0. -1.
     999902    2    1    2    0    0  0.23465323666E-01  0.32549456958E-02 -0.37276650483E-02  0.10199485160E+01  0.10196665454E+01 0.  0.
     999903    2    3    3    0    0  0.14175394304E-01 -0.10209527731E+00  0.76204328712E-01  0.13001925149E+00  0.21760482323E-01 0.  0.
         14    1    1    2    0    0 -0.23465323666E-01 -0.32549456958E-02  0.37276650483E-02  0.23981483961E-01  0.00000000000E+00 0.  1.
     999901    1    3    3    0    0  0.92899293627E-02  0.10535022301E+00 -0.79931993761E-01  0.88992926455E+00  0.88000000000E+00 0. -1.
        -11    1    4    4    0    0  0.39434862079E-02 -0.82212919698E-01  0.65668734825E-01  0.10529557969E+00  0.51100000000E-03 0.  1.
         11    1    4    4    0    0  0.10231908096E-01 -0.19882357612E-01  0.10535593887E-01  0.24723671795E-01  0.51100000000E-03 0. -1.
</event>
<event>
 8    1  0.1114447E+005  0.1043930E+01  0.7957747E-01            NaN
         13   -1    0    0    0    0  0.00000000000E+00  0.00000000000E+00  0.74505805969E-08  0.10566000000E+00  0.10566000000E+00 0. -1.
     999900   -1    0    0    0    0 -0.00000000000E+00 -0.00000000000E+00 -0.74505805969E-08  0.93827000000E+00  0.93827000000E+00 0. -1.
     999902    2    1    2    0    0 -0.15903270822E-01 -0.94738611050E-02 -0.15678849908E-01  0.10196710964E+01  0.10193824849E+01 0.  0.
     999903    2    3    3    0    0  0.15631186148E-01  0.11833007553E+00 -0.46653031893E-01  0.12934100702E+00  0.17499998743E-01 0.  0.
         14    1    1    2    0    0  0.15903270822E-01  0.94738611050E-02  0.15678849908E-01  0.24258903551E-01  0.00000000000E+00 0. -1.
     999901    1    3    3    0    0 -0.31534456970E-01 -0.12780393664E+00  0.30974181986E-01  0.89033008943E+00  0.88000000000E+00 0.  1.
        -11    1    4    4    0    0  0.10862999191E-01  0.56801250621E-01 -0.31235204834E-01  0.65728882279E-01  0.51100000000E-03 0. -1.
         11    1    4    4    0    0  0.47681869571E-02  0.61528824910E-01 -0.15417827059E-01  0.63612124739E-01  0.51100000000E-03 0.  1.
</event>
<event>
 8    1  0.1114447E+005  0.1043930E+01  0.7957747E-01            NaN
         13   -1    0    0    0    0  0.00000000000E+00  0.00000000000E+00  0.74505805969E-08  0.10566000000E+00  0.10566000000E+00 0. -1.
     999900   -1    0    0    0    0 -0.00000000000E+00 -0.00000000000E+00 -0.74505805969E-08  0.93827000000E+00  0.93827000000E+00 0.  1.
     999902    2    1    2    0    0 -0.23750013896E-01 -0.12703154197E-02  0.52420491051E-02  0.10195752070E+01  0.10192842817E+01 0.  0.
     999903    2    3    3    0    0  0.10036549728E+00 -0.45196252246E-01  0.62603212188E-01  0.12793377066E+00  0.18219583918E-01 0.  0.
         14    1    1    2    0    0  0.23750013896E-01  0.12703154197E-02 -0.52420491051E-02  0.24354792960E-01  0.00000000000E+00 0.  1.
     999901    1    3    3    0    0 -0.12411551117E+00  0.43925936826E-01 -0.57361163083E-01  0.89164143638E+00  0.88000000000E+00 0.  1.
        -11    1    4    4    0    0  0.36709884946E-01 -0.26121657730E-01  0.27328277099E-01  0.52697746683E-01  0.51100000000E-03 0.  1.
         11    1    4    4    0    0  0.63655612332E-01 -0.19074594516E-01  0.35274935089E-01  0.75236023977E-01  0.51100000000E-03 0. -1.
</event>
<event>
 8    1  0.1114447E+005  0.1043930E+01  0.7957747E-01            NaN
         13   -1    0    0    0    0  0.00000000000E+00  0.00000000000E+00  0.74505805969E-08  0.10566000000E+00  0.10566000000E+00 0.  1.
     999900   -1    0    0    0    0 -0.00000000000E+00 -0.00000000000E+00 -0.74505805969E-08  0.93827000000E+00  0.93827000000E+00 0. -1.
     999902    2    1    2    0    0 -0.98646349005E-02 -0.37420065954E-02  0.21125223442E-01  0.10203166838E+01  0.10200434043E+01 0.  0.
     999903    2    3    3    0    0 -0.11565586144E+00 -0.34228534829E-01  0.52323540354E-01  0.13290778879E+00  0.19464238059E-01 0.  0.
         14    1    1    2    0    0  0.98646349005E-02  0.37420065954E-02 -0.21125223442E-01  0.23613316170E-01  0.00000000000E+00 0. -1.
     999901    1    3    3    0    0  0.10579122654E+00  0.30486528234E-01 -0.31198316911E-01  0.88740889504E+00  0.88000000000E+00 0.  1.
        -11    1    4    4    0    0 -0.78475652500E-01 -0.28286877799E-01  0.27623980447E-01  0.87874461066E-01  0.51100000000E-03 0. -1.
         11    1    4    4    0    0 -0.37180208943E-01 -0.59416570301E-02  0.24699559906E-01  0.45033327724E-01  0.51100000000E-03 0.  1.
</event>
<event>
 7    1  0.1114447E+005  0.1043930E+01  0.7957747E-01            NaN
         13   -1    0    0    0    0  0.00000000000E+00  0.00000000000E+00  0.74505805969E-08  0.10566000000E+00  0.10566000000E+00 0. -1.
     999900   -1    0    0    0    0 -0.00000000000E+00 -0.00000000000E+00 -0.74505805969E-08  0.93827000000E+00  0.93827000000E+00 0. -1.
     999902    2    1    2    0    0  0.21460310124E-01 -0.22598073709E-02  0.84624814021E-02  0.10207510175E+01  0.10204878120E+01 0.  0.
         14    1    1    2    0    0 -0.21460310124E-01  0.22598073709E-02 -0.84624814021E-02  0.23178982537E-01  0.00000000000E+00 0.  1.
     999901    1    3    3    0    0  0.11388197238E+00  0.36748756681E-01 -0.34271111632E-01  0.88875985724E+00  0.88000000000E+00 0. -1.
        -11    1    3    3    0    0 -0.62917280469E-02 -0.75291924278E-03  0.37032158712E-01  0.37573855659E-01  0.51100000000E-03 0.  1.
         11    1    3    3    0    0 -0.86129934209E-01 -0.38255644809E-01  0.57014343219E-02  0.94417304563E-01  0.51100000000E-03 0. -1.
</event>
<event>
 8    1  0.1114447E+005  0.1043930E+01  0.7957747E-01            NaN
         13   -1    0    0    0    0  0.00000000000E+00  0.00000000000E+00  0.74505805969E-08  0.10566000000E+00  0.10566000000E+00 0. -1.
     999900   -1    0    0    0    0 -0.00000000000E+00 -0.00000000000E+00 -0.74505805969E-08  0.93827000000E+00  0.93827000000E+00 0.  1.
     999902    2    1    2    0    0  0.11117912214E-01 -0.17927903483E-01  0.86889662760E-02  0.10211151840E+01  0.10208602760E+01 0.  0.
     999903    2    3    3    0    0 -0.24844007781E-01 -0.69441587675E-01  0.10845397299E+00  0.13325259556E+00  0.23550608129E-01 0.  0.
         14    1    1    2    0    0 -0.11117912214E-01  0.17927903483E-01 -0.86889662760E-02  0.22814816025E-01  0.00000000000E+00 0.  1.
     999901    1    3    3    0    0  0.35961919995E-01  0.51513684191E-01 -0.99765006717E-01  0.88786258842E+00  0.88000000000E+00 0.  1.
        -11    1    4    4    0    0 -0.14348363213E-01 -0.29296355118E-01  0.29165626577E-01  0.43761248208E-01  0.51100000000E-03 0.  1.
         11    1    4    4    0    0 -0.10495644568E-01 -0.40145232557E-01  0.79288346416E-01  0.89491347349E-01  0.51100000000E-03 0. -1.
</event>
<event>
 8    1  0.1114447E+005  0.1043930E+01  0.7957747E-01            NaN
         13   -1    0    0    0    0  0.00000000000E+00  0.00000000000E+00  0.74505805969E-08  0.10566000000E+00  0.10566000000E+00 0. -1.
     999900   -1    0    0    0    0 -0.00000000000E+00 -0.00000000000E+00 -0.74505805969E-08  0.93827000000E+00  0.93827000000E+00 0. -1.
     999902    2    1    2    0    0 -0.13057124474E-01  0.20910444264E-01  0.77815744863E-02  0.10180787316E+01  0.10177504682E+01 0.  0.
     999903    2    3    3    0    0  0.12421730668E+00  0.11387190259E-01  0.16907919898E-01  0.12733844842E+00  0.19224861750E-01 0.  0.
         14    1    1    2    0    0  0.13057124474E-01 -0.20910444264E-01 -0.77815744863E-02  0.25851268447E-01  0.00000000000E+00 0.  1.
     999901    1    3    3    0    0 -0.13727443116E+00  0.95232540047E-02 -0.91263454117E-02  0.89074028313E+00  0.88000000000E+00 0.  1.
        -11    1    4    4    0    0  0.28987595628E-01  0.10620881243E-01  0.63317299859E-02  0.31518815718E-01  0.51100000000E-03 0. -1.
         11    1    4    4    0    0  0.95229711054E-01  0.76630901568E-03  0.10576189912E-01  0.95819632701E-01  0.51100000000E-03 0.  1.
</event>
<event>
 8    1  0.1114447E+005  0.1043930E+01  0.7957747E-01            NaN
         13   -1    0    0    0    0  0.00000000000E+00  0.00000000000E+00  0.74505805969E-08  0.10566000000E+00  0.10566000000E+00 0.  1.
     999900   -1    0    0    0    0 -0.00000000000E+00 -0.00000000000E+00 -0.74505805969E-08  0.93827000000E+00  0.93827000000E+00 0.  1.
     999902    2    1    2    0    0 -0.12637695915E-01 -0.43031719719E-03 -0.20343428436E-01  0.10199768872E+01  0.10196955913E+01 0.  0.
     999903    2    3    3    0    0 -0.63424448942E-01  0.10863093238E+00  0.28964622493E-01  0.13042366548E+00  0.18655909686E-01 0.  0.
         14    1    1    2    0    0  0.12637695915E-01  0.43031719719E-03  0.20343428436E-01  0.23953112772E-01  0.00000000000E+00 0. -1.
     999901    1    3    3    0    0  0.50786753027E-01 -0.10906124958E+00 -0.49308050929E-01  0.88955322175E+00  0.88000000000E+00 0.  1.
        -11    1    4    4    0    0 -0.41677378763E-01  0.59786110814E-01  0.93895735562E-02  0.73483386962E-01  0.51100000000E-03 0.  1.
         11    1    4    4    0    0 -0.21747070179E-01  0.48844821568E-01  0.19575048937E-01  0.56940278514E-01  0.51100000000E-03 0. -1.
</event>
<event>
 8    1  0.1114447E+005  0.1043930E+01  0.7957747E-01            NaN
         13   -1    0    0    0    0  0.00000000000E+00  0.00000000000E+00  0.74505805969E-08  0.10566000000E+00  0.10566000000E+00 0.  1.
     999900   -1    0    0    0    0 -0.00000000000E+00 -0.00000000000E+00 -0.74505805969E-08  0.93827000000E+00  0.93827000000E+00 0.  1.
     999902    2    1    2    0    0 -0.17793139286E-01  0.14322880337E-01 -0.66141728999E-02  0.10201500086E+01  0.10198728117E+01 0.  0.
     999903    2    3    3    0    0 -0.29815427954E-01  0.11602159175E+00 -0.54427975492E-01  0.13292212186E+00  0.18865748507E-01 0.  0.
         14    1    1    2    0    0  0.17793139286E-01 -0.14322880337E-01  0.66141728999E-02  0.23779991378E-01  0.00000000000E+00 0.  1.
     999901    1    3    3    0    0  0.12022288668E-01 -0.10169871142E+00  0.47813802592E-01  0.88722788676E+00  0.88000000000E+00 0. -1.
        -11    1    4    4    0    0 -0.96957729218E-02  0.70297981240E-01 -0.26978036667E-01  0.75920285579E-01  0.51100000000E-03 0. -1.
         11    1    4    4    0    0 -0.20119655032E-01  0.45723610513E-01 -0.27449938825E-01  0.57001836281E-01  0.51100000000E-03 0.  1.
</event>
<event>
 8    1  0.1114447E+005  0.1043930E+01  0.7957747E-01            NaN
         13   -1    0    0    0    0  0.00000000000E+00  0.00000000000E+00  0.74505805969E-08  0.10566000000E+00  0.10566000000E+00 0.  1.
     999900   -1    0    0    0    0 -0.00000000000E+00 -0.00000000000E+00 -0.74505805969E-08  0.93827000000E+00  0.93827000000E+00 0. -1.
     999902    2    1    2    0    0 -0.49289330283E-02  0.72570690347E-04  0.20773194443E-01  0.10225799355E+01  0.10223570312E+01 0.  0.
     999903    2    3    3    0    0 -0.60681323984E-01 -0.59818375524E-01  0.10288944942E+00  0.13497735896E+00  0.19292161581E-01 0.  0.
         14    1    1    2    0    0  0.49289330283E-02 -0.72570690347E-04 -0.20773194443E-01  0.21350064512E-01  0.00000000000E+00 0. -1.
     999901    1    3    3    0    0  0.55752390956E-01  0.59890946215E-01 -0.82116254975E-01  0.88760257653E+00  0.88000000000E+00 0. -1.
        -11    1    4    4    0    0 -0.22816132352E-01 -0.28790274235E-01  0.57389605096E-01  0.68141644243E-01  0.51100000000E-03 0.  1.
         11    1    4    4    0    0 -0.37865191632E-01 -0.31028101289E-01  0.45499844321E-01  0.66835714713E-01  0.51100000000E-03 0. -1.
</event>
<event>
 8    1  0.1114447E+005  0.1043930E+01  0.7957747E-01            NaN
         13   -1    0    0    0    0  0.00000000000E+00  0.00000000000E+00  0.74505805969E-08  0.10566000000E+00  0.10566000000E+00 0.  1.
     999900   -1    0    0    0    0 -0.00000000000E+00 -0.00000000000E+00 -0.74505805969E-08  0.93827000000E+00  0.93827000000E+00 0. -1.
     999902    2    1    2    0    0 -0.24950265710E-01 -0.13897513962E-01  0.10896260410E-01  0.10133622859E+01  0.10129011489E+01 0.  0.
     999903    2    3    3    0    0 -0.66017444736E-01 -0.61274307857E-02  0.10680893223E+00  0.12716471878E+00  0.19153831994E-01 0.  0.
         14    1    1    2    0    0  0.24950265710E-01  0.13897513962E-01 -0.10896260410E-01  0.30567714083E-01  0.00000000000E+00 0.  1.
     999901    1    3    3    0    0  0.41067179026E-01 -0.77700831761E-02 -0.95912671822E-01  0.88619756714E+00  0.88000000000E+00 0. -1.
        -11    1    4    4    0    0 -0.29005450725E-01 -0.72967753557E-02  0.32704551191E-01  0.44321641350E-01  0.51100000000E-03 0. -1.
         11    1    4    4    0    0 -0.37011994010E-01  0.11693445700E-02  0.74104381041E-01  0.82843077429E-01  0.51100000000E-03 0.  1.
</event>
<event>
 8    1  0.1114447E+005  0.1043930E+01  0.7957747E-01            NaN
         13   -1    0    0    0    0  0.00000000000E+00  0.00000000000E+00  0.74505805969E-08  0.10566000000E+00  0.10566000000E+00 0. -1.
     999900   -1    0    0    0    0 -0.00000000000E+00 -0.00000000000E+00 -0.74505805969E-08  0.93827000000E+00  0.93827000000E+00 0. -1.
     999902    2    1    2    0    0 -0.19857836916E-02  0.56511110677E-02  0.22642946207E-01  0.10205081853E+01  0.10202393713E+01 0.  0.
     999903    2    3    3    0    0  0.78868240336E-01 -0.10098840462E+00  0.14438777392E-01  0.13035276742E+00  0.19092105194E-01 0.  0.
         14    1    1    2    0    0  0.19857836916E-02 -0.56511110677E-02 -0.22642946207E-01  0.23421814749E-01  0.00000000000E+00 0.  1.
     999901    1    3    3    0    0 -0.80854024027E-01  0.10663951569E+00  0.82041688158E-02  0.89015541783E+00  0.88000000000E+00 0.  1.
        -11    1    4    4    0    0  0.31696271239E-01 -0.54167368775E-01  0.11614796922E-01  0.63827283186E-01  0.51100000000E-03 0. -1.
         11    1    4    4    0    0  0.47171969097E-01 -0.46821035843E-01  0.28239804693E-02  0.66525484235E-01  0.51100000000E-03 0.  1.
</event>
<event>
 8    1  0.1114447E+005  0.1043930E+01  0.7957747E-01            NaN
         13   -1    0    0    0    0  0.00000000000E+00  0.00000000000E+00  0.74505805969E-08  0.10566000000E+00  0.10566000000E+00 0. -1.
     999900   -1    0    0    0    0 -0.00000000000E+00 -0.00000000000E+00 -0.74505805969E-08  0.93827000000E+00  0.93827000000E+00 0.  1.
     999902    2    1    2    0    0  0.89564418817E-02  0.87638519486E-02  0.20792660426E-01  0.10196533100E+01  0.10193642699E+01 0.  0.
     999903    2    3    3    0    0 -0.12151998465E+00  0.38835059222E-01  0.93832446673E-02  0.12945190007E+00  0.19861537121E-01 0.  0.
         14    1    1    2    0    0 -0.89564418817E-02 -0.87638519486E-02 -0.20792660426E-01  0.24276690049E-01  0.00000000000E+00 0.  1.
     999901    1    3    3    0    0  0.13047642653E+00 -0.30071207273E-01  0.11409415758E-01  0.89020140988E+00  0.88000000000E+00 0.  1.
        -11    1    4    4    0    0 -0.88401375775E-01  0.19273584088E-01  0.35912380598E-02  0.90550717249E-01  0.51100000000E-03 0. -1.
         11    1    4    4    0    0 -0.33118608876E-01  0.19561475134E-01  0.57920066075E-02  0.38901182821E-01  0.51100000000E-03 0.  1.
</event>
<event>
 8    1  0.1114447E+005  0.1043930E+01  0.7957747E-01            NaN
         13   -1    0    0    0    0  0.00000000000E+00  0.00000000000E+00  0.74505805969E-08  0.10566000000E+00  0.10566000000E+00 0. -1.
     999900   -1    0    0    0    0 -0.00000000000E+00 -0.00000000000E+00 -0.74505805969E-08  0.93827000000E+00  0.93827000000E+00 0.  1.
     999902    2    1    2    0    0  0.16329448827E-02  0.17215347250E-01  0.15739074025E-01  0.10205472469E+01  0.10202793392E+01 0.  0.
     999903    2    3    3    0    0  0.85207905141E-01 -0.36159994116E-01  0.91586063135E-01  0.13173541825E+00  0.19956983425E-01 0.  0.
         14    1    1    2    0    0 -0.16329448827E-02 -0.17215347250E-01 -0.15739074025E-01  0.23382753070E-01  0.00000000000E+00 0.  1.
     999901    1    3    3    0    0 -0.83574960258E-01  0.53375341366E-01 -0.75846989110E-01  0.88881182868E+00  0.88000000000E+00 0. -1.
        -11    1    4    4    0    0  0.54927318485E-01 -0.23768846301E-01  0.71888234906E-01  0.93542224740E-01  0.51100000000E-03 0. -1.
         11    1    4    4    0    0  0.30280586656E-01 -0.12391147815E-01  0.19697828229E-01  0.38193193508E-01  0.51100000000E-03 0.  1.
</event>
<event>
 8    1  0.1114447E+005  0.1043930E+01  0.7957747E-01            NaN
         13   -1    0    0    0    0  0.00000000000E+00  0.00000000000E+00  0.74505805969E-08  0.10566000000E+00  0.10566000000E+00 0. -1.
     999900   -1    0    0    0    0 -0.00000000000E+00 -0.00000000000E+00 -0.74505805969E-08  0.93827000000E+00  0.93827000000E+00 0. -1.
     999902    2    1    2    0    0 -0.14638521692E-02  0.20866365421E-01  0.28447017600E-02  0.10228198035E+01  0.10226019313E+01 0.  0.
     999903    2    3    3    0    0 -0.39970414040E-01  0.70688686343E-01 -0.10528238615E+00  0.13396858640E+00  0.16391367601E-01 0.  0.
         14    1    1    2    0    0  0.14638521692E-02 -0.20866365421E-01 -0.28447017600E-02  0.21110196521E-01  0.00000000000E+00 0.  1.
     999901    1    3    3    0    0  0.38506561871E-01 -0.49822320923E-01  0.10812708791E+00  0.88885121708E+00  0.88000000000E+00 0.  1.
        -11    1    4    4    0    0 -0.31809697876E-01  0.65684854324E-01 -0.96298947604E-01  0.12083089587E+00  0.51100000000E-03 0. -1.
         11    1    4    4    0    0 -0.81607161640E-02  0.50038320195E-02 -0.89834385475E-02  0.13137690525E-01  0.51100000000E-03 0.  1.
</event>
<event>
 8    1  0.1114447E+005  0.1043930E+01  0.7957747E-01            NaN
         13   -1    0    0    0    0  0.00000000000E+00  0.00000000000E+00  0.74505805969E-08  0.10566000000E+00  0.10566000000E+00 0. -1.
     999900   -1    0    0    0    0 -0.00000000000E+00 -0.00000000000E+00 -0.74505805969E-08  0.93827000000E+00  0.93827000000E+00 0. -1.
     999902    2    1    2    0    0  0.14255283515E-01  0.34803137209E-02 -0.23652774978E-01  0.10160951396E+01  0.10157138146E+01 0.  0.
     999903    2    3    3    0    0  0.12003319698E+00 -0.12643771677E-01  0.36344596374E-01  0.12758591750E+00  0.19733304829E-01 0.  0.
         14    1    1    2    0    0 -0.14255283515E-01 -0.34803137209E-02  0.23652774978E-01  0.27834860442E-01  0.00000000000E+00 0. -1.
     999901    1    3    3    0    0 -0.10577791347E+00  0.16124085398E-01 -0.59997371352E-01  0.88850922205E+00  0.88000000000E+00 0. -1.
        -11    1    4    4    0    0  0.95598743723E-01 -0.30539549299E-02  0.24221096583E-01  0.98667973947E-01  0.51100000000E-03 0. -1.
         11    1    4    4    0    0  0.24434453260E-01 -0.95898167471E-02  0.12123499791E-01  0.28917943556E-01  0.51100000000E-03 0.  1.
</event>
<event>
 8    1  0.1114447E+005  0.1043930E+01  0.7957747E-01            NaN
         13   -1    0    0    0    0  0.00000000000E+00  0.00000000000E+00  0.74505805969E-08  0.10566000000E+00  0.10566000000E+00 0. -1.
     999900   -1    0    0    0    0 -0.00000000000E+00 -0.00000000000E+00 -0.74505805969E-08  0.93827000000E+00  0.93827000000E+00 0. -1.
     999902    2    1    2    0    0  0.17397559253E-01  0.55107889778E-02  0.12178966602E-01  0.10219898293E+01  0.10217542954E+01 0.  0.
     999903    2    3    3    0    0  0.35755444971E-01 -0.57569101890E-01  0.11265796557E+00  0.13383887713E+00  0.25067398897E-01 0.  0.
         14    1    1    2    0    0 -0.17397559253E-01 -0.55107889778E-02 -0.12178966602E-01  0.21940170706E-01  0.00000000000E+00 0.  1.
     999901    1    3    3    0    0 -0.18357885718E-01  0.63079890868E-01 -0.10047899897E+00  0.88815095217E+00  0.88000000000E+00 0. -1.
        -11    1    4    4    0    0  0.24625858935E-01 -0.17773109115E-01  0.39662572172E-01  0.49956952351E-01  0.51100000000E-03 0. -1.
         11    1    4    4    0    0  0.11129586036E-01 -0.39795992775E-01  0.72995393396E-01  0.83881924777E-01  0.51100000000E-03 0.  1.
</event>
<event>
 8    1  0.1114447E+005  0.1043930E+01  0.7957747E-01            NaN
         13   -1    0    0    0    0  0.00000000000E+00  0.00000000000E+00  0.74505805969E-08  0.10566000000E+00  0.10566000000E+00 0.  1.
     999900   -1    0    0    0    0 -0.00000000000E+00 -0.00000000000E+00 -0.74505805969E-08  0.93827000000E+00  0.93827000000E+00 0.  1.
     999902    2    1    2    0    0  0.75493658535E-02  0.79471253136E-02 -0.20186126767E-01  0.10209598141E+01  0.10207013827E+01 0.  0.
     999903    2    3    3    0    0  0.32122503487E-01  0.83726963904E-02  0.12287654662E+00  0.12906803328E+00  0.21399865247E-01 0.  0.
         14    1    1    2    0    0 -0.75493658535E-02 -0.79471253136E-02  0.20186126767E-01  0.22970185881E-01  0.00000000000E+00 0.  1.
     999901    1    3    3    0    0 -0.24573137633E-01 -0.42557107679E-03 -0.14306267338E+00  0.89189178083E+00  0.88000000000E+00 0.  1.
        -11    1    4    4    0    0  0.31449665444E-01  0.39198313236E-03  0.96483388847E-01  0.10148172521E+00  0.51100000000E-03 0.  1.
         11    1    4    4    0    0  0.67283804258E-03  0.79807132580E-02  0.26393157769E-01  0.27586308074E-01  0.51100000000E-03 0. -1.
</event>
<event>
 8    1  0.1114447E+005  0.1043930E+01  0.7957747E-01            NaN
         13   -1    0    0    0    0  0.00000000000E+00  0.00000000000E+00  0.74505805969E-08  0.10566000000E+00  0.10566000000E+00 0.  1.
     999900   -1    0    0    0    0 -0.00000000000E+00 -0.00000000000E+00 -0.74505805969E-08  0.93827000000E+00  0.93827000000E+00 0.  1.
     999902    2    1    2    0    0 -0.14767936712E-01 -0.14915994564E-01 -0.11402396953E-01  0.10200429009E+01  0.10197631716E+01 0.  0.
     999903    2    3    3    0    0 -0.45145891420E-01  0.10511043052E+00 -0.57619895077E-01  0.13017480953E+00  0.23217980350E-01 0.  0.
         14    1    1    2    0    0  0.14767936712E-01  0.14915994564E-01  0.11402396953E-01  0.23887099130E-01  0.00000000000E+00 0. -1.
     999901    1    3    3    0    0  0.30377954708E-01 -0.12002642508E+00  0.46217498124E-01  0.88986809134E+00  0.88000000000E+00 0. -1.
        -11    1    4    4    0    0 -0.89103659088E-02  0.17819599483E-01 -0.20617517862E-01  0.28675353706E-01  0.51100000000E-03 0. -1.
         11    1    4    4    0    0 -0.36235525512E-01  0.87290831037E-01 -0.37002377214E-01  0.10149945582E+00  0.51100000000E-03 0.  1.
</event>
<event>
 8    1  0.1114447E+005  0.1043930E+01  0.7957747E-01            NaN
         13   -1    0    0    0    0  0.00000000000E+00  0.00000000000E+00  0.74505805969E-08  0.10566000000E+00  0.10566000000E+00 0.  1.
     999900   -1    0    0    0    0 -0.00000000000E+00 -0.00000000000E+00 -0.74505805969E-08  0.93827000000E+00  0.93827000000E+00 0. -1.
     999902    2    1    2    0    0 -0.14174975359E-01 -0.68103485985E-02 -0.18162203164E-01  0.10199055042E+01  0.10196225091E+01 0.  0.
     999903    2    3    3    0    0 -0.64707182504E-03 -0.12632071648E+00 -0.30902090724E-01  0.13163300269E+00  0.20370716060E-01 0.  0.
         14    1    1    2    0    0  0.14174975359E-01  0.68103485985E-02  0.18162203164E-01  0.24024495796E-01  0.00000000000E+00 0.  1.
     999901    1    3    3    0    0 -0.13527903534E-01  0.11951036788E+00  0.12739887560E-01  0.88827250151E+00  0.88000000000E+00 0.  1.
        -11    1    4    4    0    0 -0.18510382915E-02 -0.33947444969E-01  0.65881349517E-03  0.34008094903E-01  0.51100000000E-03 0.  1.
         11    1    4    4    0    0  0.12039664665E-02 -0.92373271512E-01 -0.31560904219E-01  0.97624907791E-01  0.51100000000E-03 0. -1.
</event>
<event>
 8    1  0.1114447E+005  0.1043930E+01  0.7957747E-01            NaN
         13   -1    0    0    0    0  0.00000000000E+00  0.00000000000E+00  0.74505805969E-08  0.10566000000E+00  0.10566000000E+00 0.  1.
     999900   -1    0    0    0    0 -0.00000000000E+00 -0.00000000000E+00 -0.74505805969E-08  0.93827000000E+00  0.93827000000E+00 0. -1.
     999902    2    1    2    0    0 -0.22548514290E-01  0.56818712759E-02 -0.19470489638E-02  0.10205952586E+01  0.10203284626E+01 0.  0.
     999903    2    3    3    0    0  0.51206912924E-01  0.70920744804E-01  0.93871744538E-01  0.12993414746E+00  0.20471401465E-01 0.  0.
         14    1    1    2    0    0  0.22548514290E-01 -0.56818712759E-02  0.19470489638E-02  0.23334741429E-01  0.00000000000E+00 0.  1.
     999901    1    3    3    0    0 -0.73755427214E-01 -0.65238873528E-01 -0.95818793502E-01  0.89066111111E+00  0.88000000000E+00 0.  1.
        -11    1    4    4    0    0  0.23957301285E-01  0.27792689151E-01  0.53494409321E-01  0.64871402056E-01  0.51100000000E-03 0. -1.
         11    1    4    4    0    0  0.27249611639E-01  0.43128055652E-01  0.40377335217E-01  0.65062745401E-01  0.51100000000E-03 0.  1.
</event>
<event>
 8    1  0.1206136E+005  0.1043930E+01  0.7957747E-01            NaN
         13   -1    0    0    0    0  0.00000000000E+00  0.00000000000E+00  0.74505805969E-08  0.10566000000E+00  0.10566000000E+00 0. -1.
     999900   -1    0    0    0    0 -0.00000000000E+00 -0.00000000000E+00 -0.74505805969E-08  0.93827000000E+00  0.93827000000E+00 0.  1.
     999902    2    1    2    0    0  0.21353962328E-01 -0.14381817057E-01 -0.43079004416E-02  0.10178266214E+01  0.10174918402E+01 0.  0.
     999903    2    3    3    0    0  0.18070511808E-01  0.21011977036E-01  0.12334501296E+00  0.12790596874E+00  0.19439599791E-01 0.  0.
         14    1    1    2    0    0 -0.21353962328E-01  0.14381817057E-01  0.43079004416E-02  0.26103378616E-01  0.00000000000E+00 0. -1.
     999901    1    3    3    0    0  0.32834505198E-02 -0.35393794093E-01 -0.12765291340E+00  0.88992065265E+00  0.88000000000E+00 0.  1.
        -11    1    4    4    0    0  0.13056989694E-01  0.88114674004E-03  0.46882448537E-01  0.48677371553E-01  0.51100000000E-03 0.  1.
         11    1    4    4    0    0  0.50135221141E-02  0.20130830296E-01  0.76462564424E-01  0.79228597184E-01  0.51100000000E-03 0. -1.
</event>
<event>
 8    1  0.1114447E+005  0.1043930E+01  0.7957747E-01            NaN
         13   -1    0    0    0    0  0.00000000000E+00  0.00000000000E+00  0.74505805969E-08  0.10566000000E+00  0.10566000000E+00 0.  1.
     999900   -1    0    0    0    0 -0.00000000000E+00 -0.00000000000E+00 -0.74505805969E-08  0.93827000000E+00  0.93827000000E+00 0.  1.
     999902    2    1    2    0    0 -0.51378702833E-02  0.21062857154E-01  0.90543358176E-02  0.10204348375E+01  0.10201643176E+01 0.  0.
     999903    2    3    3    0    0 -0.51578277440E-01  0.12119359148E+00 -0.86813961464E-02  0.13336244388E+00  0.19025495521E-01 0.  0.
         14    1    1    2    0    0  0.51378702833E-02 -0.21062857154E-01 -0.90543358176E-02  0.23495162473E-01  0.00000000000E+00 0. -1.
     999901    1    3    3    0    0  0.46440407157E-01 -0.10013073433E+00  0.17735731964E-01  0.88707239364E+00  0.88000000000E+00 0.  1.
        -11    1    4    4    0    0 -0.28679854643E-01  0.88521664144E-01 -0.34139556473E-02  0.93115709197E-01  0.51100000000E-03 0. -1.
         11    1    4    4    0    0 -0.22898422797E-01  0.32671927338E-01 -0.52674404991E-02  0.40246734688E-01  0.51100000000E-03 0.  1.
</event>
<event>
 8    1  0.1114447E+005  0.1043930E+01  0.7957747E-01            NaN
         13   -1    0    0    0    0  0.00000000000E+00  0.00000000000E+00  0.74505805969E-08  0.10566000000E+00  0.10566000000E+00 0.  1.
     999900   -1    0    0    0    0 -0.00000000000E+00 -0.00000000000E+00 -0.74505805969E-08  0.93827000000E+00  0.93827000000E+00 0. -1.
     999902    2    1    2    0    0 -0.19524072250E-01  0.12426375634E-01  0.66885672634E-02  0.10198397293E+01  0.10195551640E+01 0.  0.
     999903    2    3    3    0    0 -0.10302725242E-01  0.12991630366E+00  0.55394996712E-02  0.13198262553E+00  0.20108089894E-01 0.  0.
         14    1    1    2    0    0  0.19524072250E-01 -0.12426375634E-01 -0.66885672634E-02  0.24090270664E-01  0.00000000000E+00 0.  1.
     999901    1    3    3    0    0 -0.92213470079E-02 -0.11748992803E+00  0.11490675922E-02  0.88785710381E+00  0.88000000000E+00 0.  1.
        -11    1    4    4    0    0 -0.16129808949E-01  0.93761310723E-01  0.16811214278E-02  0.95154828651E-01  0.51100000000E-03 0.  1.
         11    1    4    4    0    0  0.58270837070E-02  0.36154992940E-01  0.38583782434E-02  0.36827796876E-01  0.51100000000E-03 0. -1.
</event>
<event>
 8    1  0.1114447E+005  0.1043930E+01  0.7957747E-01            NaN
         13   -1    0    0    0    0  0.00000000000E+00  0.00000000000E+00  0.74505805969E-08  0.10566000000E+00  0.10566000000E+00 0.  1.
     999900   -1    0    0    0    0 -0.00000000000E+00 -0.00000000000E+00 -0.74505805969E-08  0.93827000000E+00  0.93827000000E+00 0.  1.
     999902    2    1    2    0    0 -0.24922736158E-01  0.68109122234E-02 -0.10103229506E-01  0.10161882165E+01  0.10158094727E+01 0.  0.
     999903    2    3    3    0    0 -0.86980199380E-01  0.57477521484E-01 -0.74948793106E-01  0.13017287742E+00  0.21411115540E-01 0.  0.
         14    1    1    2    0    0  0.24922736158E-01 -0.68109122234E-02  0.10103229506E-01  0.27741783457E-01  0.00000000000E+00 0.  1.
     999901    1    3    3    0    0  0.62057463222E-01 -0.50666609261E-01  0.64845563600E-01  0.88601533912E+00  0.88000000000E+00 0. -1.
        -11    1    4    4    0    0 -0.55593735121E-01  0.29676062384E-01 -0.34198405930E-01  0.71701632844E-01  0.51100000000E-03 0. -1.
         11    1    4    4    0    0 -0.31386464259E-01  0.27801459100E-01 -0.40750387176E-01  0.58471244580E-01  0.51100000000E-03 0.  1.
</event>
<event>
 8    1  0.1114447E+005  0.1043930E+01  0.7957747E-01            NaN
         13   -1    0    0    0    0  0.00000000000E+00  0.00000000000E+00  0.74505805969E-08  0.10566000000E+00  0.10566000000E+00 0. -1.
     999900   -1    0    0    0    0 -0.00000000000E+00 -0.00000000000E+00 -0.74505805969E-08  0.93827000000E+00  0.93827000000E+00 0. -1.
     999902    2    1    2    0    0  0.13977358172E-02 -0.24756735322E-01 -0.88284107517E-02  0.10176090873E+01  0.10172686293E+01 0.  0.
     999903    2    3    3    0    0 -0.11182670867E+00  0.50987758429E-02 -0.59745704578E-01  0.12839387308E+00  0.19601712744E-01 0.  0.
         14    1    1    2    0    0 -0.13977358172E-02  0.24756735322E-01  0.88284107517E-02  0.26320912705E-01  0.00000000000E+00 0. -1.
     999901    1    3    3    0    0  0.11322444449E+00 -0.29855511165E-01  0.50917293826E-01  0.88921521421E+00  0.88000000000E+00 0.  1.
        -11    1    4    4    0    0 -0.74970972752E-01 -0.23980264482E-02 -0.31506489331E-01  0.81359186803E-01  0.51100000000E-03 0. -1.
         11    1    4    4    0    0 -0.36855735918E-01  0.74968022912E-02 -0.28239215247E-01  0.47034686280E-01  0.51100000000E-03 0.  1.
</event>
<event>
 8    1  0.1114447E+005  0.1043930E+01  0.7957747E-01            NaN
         13   -1    0    0    0    0  0.00000000000E+00  0.00000000000E+00  0.74505805969E-08  0.10566000000E+00  0.10566000000E+00 0.  1.
     999900   -1    0    0    0    0 -0.00000000000E+00 -0.00000000000E+00 -0.74505805969E-08  0.93827000000E+00  0.93827000000E+00 0. -1.
     999902    2    1    2    0    0  0.10666489297E-01  0.10662322052E-01 -0.17521758647E-01  0.10208113683E+01  0.10205495473E+01 0.  0.
     999903    2    3    3    0    0  0.85469536523E-01  0.16600193758E-01 -0.99676663411E-01  0.13380506473E+00  0.19691369007E-01 0.  0.
         14    1    1    2    0    0 -0.10666489297E-01 -0.10662322052E-01  0.17521758647E-01  0.23118631697E-01  0.00000000000E+00 0.  1.
     999901    1    3    3    0    0 -0.74803047226E-01 -0.59378717062E-02  0.82154904765E-01  0.88700630357E+00  0.88000000000E+00 0.  1.
        -11    1    4    4    0    0  0.18873712525E-01  0.32703958293E-02 -0.10959019682E-01  0.22074277944E-01  0.51100000000E-03 0. -1.
         11    1    4    4    0    0  0.66595823998E-01  0.13329797929E-01 -0.88717643730E-01  0.11173078679E+00  0.51100000000E-03 0.  1.
</event>
<event>
 8    1  0.1114447E+005  0.1043930E+01  0.7957747E-01            NaN
         13   -1    0    0    0    0  0.00000000000E+00  0.00000000000E+00  0.74505805969E-08  0.10566000000E+00  0.10566000000E+00 0.  1.
     999900   -1    0    0    0    0 -0.00000000000E+00 -0.00000000000E+00 -0.74505805969E-08  0.93827000000E+00  0.93827000000E+00 0. -1.
     999902    2    1    2    0    0  0.83089781832E-02  0.12827545138E-01 -0.17415919913E-01  0.10207589124E+01  0.10204958883E+01 0.  0.
     999903    2    3    3    0    0 -0.91543568488E-02  0.97876151301E-01 -0.88310954742E-01  0.13364880684E+00  0.19990887905E-01 0.  0.
         14    1    1    2    0    0 -0.83089781832E-02 -0.12827545138E-01  0.17415919913E-01  0.23171087569E-01  0.00000000000E+00 0.  1.
     999901    1    3    3    0    0  0.17463335032E-01 -0.85048606163E-01  0.70895034829E-01  0.88711010559E+00  0.88000000000E+00 0.  1.
        -11    1    4    4    0    0  0.16003262766E-02  0.27443275237E-01 -0.35792686276E-01  0.45133933041E-01  0.51100000000E-03 0. -1.
         11    1    4    4    0    0 -0.10754683125E-01  0.70432876064E-01 -0.52518268466E-01  0.88514873798E-01  0.51100000000E-03 0.  1.
</event>
<event>
 8    1  0.1114447E+005  0.1043930E+01  0.7957747E-01            NaN
         13   -1    0    0    0    0  0.00000000000E+00  0.00000000000E+00  0.74505805969E-08  0.10566000000E+00  0.10566000000E+00 0.  1.
     999900   -1    0    0    0    0 -0.00000000000E+00 -0.00000000000E+00 -0.74505805969E-08  0.93827000000E+00  0.93827000000E+00 0.  1.
     999902    2    1    2    0    0 -0.85181178256E-02  0.18126830054E-01 -0.14335628944E-01  0.10192997228E+01  0.10190020973E+01 0.  0.
     999903    2    3    3    0    0 -0.46247429218E-01  0.80196797578E-01  0.89265919691E-01  0.13024997012E+00  0.20647015467E-01 0.  0.
         14    1    1    2    0    0  0.85181178256E-02 -0.18126830054E-01  0.14335628944E-01  0.24630277228E-01  0.00000000000E+00 0. -1.
     999901    1    3    3    0    0  0.37729311392E-01 -0.62069967524E-01 -0.10360154864E+00  0.88904975265E+00  0.88000000000E+00 0.  1.
        -11    1    4    4    0    0 -0.26238088712E-01  0.31830578850E-01  0.49959251948E-01  0.64790516477E-01  0.51100000000E-03 0.  1.
         11    1    4    4    0    0 -0.20009340505E-01  0.48366218728E-01  0.39306667743E-01  0.65459453645E-01  0.51100000000E-03 0. -1.
</event>
<event>
 8    1  0.1114447E+005  0.1043930E+01  0.7957747E-01            NaN
         13   -1    0    0    0    0  0.00000000000E+00  0.00000000000E+00  0.74505805969E-08  0.10566000000E+00  0.10566000000E+00 0. -1.
     999900   -1    0    0    0    0 -0.00000000000E+00 -0.00000000000E+00 -0.74505805969E-08  0.93827000000E+00  0.93827000000E+00 0. -1.
     999902    2    1    2    0    0 -0.66418489587E-02 -0.10071594914E-01  0.20934207701E-01  0.10197682071E+01  0.10194819293E+01 0.  0.
     999903    2    3    3    0    0 -0.10292449699E+00 -0.60381115448E-01 -0.48137242381E-01  0.13040199384E+00  0.21169664839E-01 0.  0.
         14    1    1    2    0    0  0.66418489587E-02  0.10071594914E-01 -0.20934207701E-01  0.24161792851E-01  0.00000000000E+00 0.  1.
     999901    1    3    3    0    0  0.96282648029E-01  0.50309520534E-01  0.69071450082E-01  0.88936621331E+00  0.88000000000E+00 0.  1.
        -11    1    4    4    0    0 -0.31278016601E-01 -0.83865877802E-02 -0.16861753381E-01  0.36513408841E-01  0.51100000000E-03 0. -1.
         11    1    4    4    0    0 -0.71646480386E-01 -0.51994527668E-01 -0.31275489000E-01  0.93888584995E-01  0.51100000000E-03 0.  1.
</event>
<event>
 8    1  0.1114447E+005  0.1043930E+01  0.7957747E-01            NaN
         13   -1    0    0    0    0  0.00000000000E+00  0.00000000000E+00  0.74505805969E-08  0.10566000000E+00  0.10566000000E+00 0. -1.
     999900   -1    0    0    0    0 -0.00000000000E+00 -0.00000000000E+00 -0.74505805969E-08  0.93827000000E+00  0.93827000000E+00 0. -1.
     999902    2    1    2    0    0 -0.61616602055E-02 -0.22501954911E-01  0.43109623225E-02  0.10202047302E+01  0.10199288226E+01 0.  0.
     999903    2    3    3    0    0  0.21254032219E-02 -0.12417570059E+00  0.44922448883E-01  0.13338145647E+00  0.18667205456E-01 0.  0.
         14    1    1    2    0    0  0.61616602055E-02  0.22501954911E-01 -0.43109623225E-02  0.23725269807E-01  0.00000000000E+00 0.  1.
     999901    1    3    3    0    0 -0.82870634274E-02  0.10167374568E+00 -0.40611486561E-01  0.88682327373E+00  0.88000000000E+00 0.  1.
        -11    1    4    4    0    0 -0.21497233184E-02 -0.52480153193E-01  0.28272372616E-01  0.59652124554E-01  0.51100000000E-03 0.  1.
         11    1    4    4    0    0  0.42751265403E-02 -0.71695547398E-01  0.16650076267E-01  0.73729331913E-01  0.51100000000E-03 0. -1.
</event>
<event>
 7    1  0.1114447E+005  0.1043930E+01  0.7957747E-01            NaN
         13   -1    0    0    0    0  0.00000000000E+00  0.00000000000E+00  0.74505805969E-08  0.10566000000E+00  0.10566000000E+00 0.  1.
     999900   -1    0    0    0    0 -0.00000000000E+00 -0.00000000000E+00 -0.74505805969E-08  0.93827000000E+00  0.93827000000E+00 0.  1.
     999903    2    1    2    0    0  0.62391143286E-01  0.18762107853E-01 -0.93193611213E-01  0.11532196773E+00  0.19220708051E-01 0.  0.
         14    1    1    2    0    0 -0.23474301612E-01 -0.26732631064E-02 -0.30907587450E-01  0.38903317774E-01  0.00000000000E+00 0.  1.
     999901    1    1    2    0    0 -0.38916841674E-01 -0.16088844747E-01  0.12410119866E+00  0.88970471450E+00  0.88000000000E+00 0. -1.
        -11    1    3    3    0    0  0.25526015783E-01  0.12609788833E-01 -0.54691553125E-01  0.61660452159E-01  0.51100000000E-03 0. -1.
         11    1    3    3    0    0  0.36865127503E-01  0.61523190209E-02 -0.38502058088E-01  0.53661515569E-01  0.51100000000E-03 0.  1.
</event>
<event>
 8    1  0.1114447E+005  0.1043930E+01  0.7957747E-01            NaN
         13   -1    0    0    0    0  0.00000000000E+00  0.00000000000E+00  0.74505805969E-08  0.10566000000E+00  0.10566000000E+00 0.  1.
     999900   -1    0    0    0    0 -0.00000000000E+00 -0.00000000000E+00 -0.74505805969E-08  0.93827000000E+00  0.93827000000E+00 0. -1.
     999902    2    1    2    0    0 -0.52642767118E-02 -0.20586275412E-01  0.10375908348E-01  0.10202832916E+01  0.10200092295E+01 0.  0.
     999903    2    3    3    0    0 -0.48687802532E-01 -0.12180014368E+00  0.11552094160E-01  0.13341733039E+00  0.21469887119E-01 0.  0.
         14    1    1    2    0    0  0.52642767118E-02  0.20586275412E-01 -0.10375908348E-01  0.23646708411E-01  0.00000000000E+00 0.  1.
     999901    1    3    3    0    0  0.43423525820E-01  0.10121386827E+00 -0.11761858121E-02  0.88686596120E+00  0.88000000000E+00 0. -1.
        -11    1    4    4    0    0 -0.40520195784E-01 -0.77349251125E-01  0.27160109591E-02  0.87363783987E-01  0.51100000000E-03 0.  1.
         11    1    4    4    0    0 -0.81676067482E-02 -0.44450892553E-01  0.88360832011E-02  0.46053546401E-01  0.51100000000E-03 0. -1.
</event>
<event>
 8    1  0.1114447E+005  0.1043930E+01  0.7957747E-01            NaN
         13   -1    0    0    0    0  0.00000000000E+00  0.00000000000E+00  0.74505805969E-08  0.10566000000E+00  0.10566000000E+00 0. -1.
     999900   -1    0    0    0    0 -0.00000000000E+00 -0.00000000000E+00 -0.74505805969E-08  0.93827000000E+00  0.93827000000E+00 0. -1.
     999902    2    1    2    0    0 -0.23708493321E-02 -0.24779453713E-01  0.11467498945E-02  0.10190109854E+01  0.10187062536E+01 0.  0.
     999903    2    3    3    0    0 -0.82416984469E-01  0.45282478128E-01  0.85944675813E-01  0.12855787250E+00  0.17250423976E-01 0.  0.
         14    1    1    2    0    0  0.23708493321E-02  0.24779453713E-01 -0.11467498945E-02  0.24919014592E-01  0.00000000000E+00 0.  1.
     999901    1    3    3    0    0  0.80046135137E-01 -0.70061931842E-01 -0.84797925919E-01  0.89045311291E+00  0.88000000000E+00 0.  1.
        -11    1    4    4    0    0 -0.66097269383E-01  0.43362466293E-01  0.68718078746E-01  0.10474534820E+00  0.51100000000E-03 0.  1.
         11    1    4    4    0    0 -0.16319715086E-01  0.19200118351E-02  0.17226597067E-01  0.23812524298E-01  0.51100000000E-03 0. -1.
</event>
<event>
 8    1  0.1114447E+005  0.1043930E+01  0.7957747E-01            NaN
         13   -1    0    0    0    0  0.00000000000E+00  0.00000000000E+00  0.74505805969E-08  0.10566000000E+00  0.10566000000E+00 0.  1.
     999900   -1    0    0    0    0 -0.00000000000E+00 -0.00000000000E+00 -0.74505805969E-08  0.93827000000E+00  0.93827000000E+00 0.  1.
     999902    2    1    2    0    0  0.57164483284E-02  0.22130881430E-01 -0.81176268157E-02  0.10196740820E+01  0.10193855423E+01 0.  0.
     999903    2    3    3    0    0 -0.68218380379E-02 -0.88147589611E-01  0.89532339191E-01  0.12734338897E+00  0.19589893469E-01 0.  0.
         14    1    1    2    0    0 -0.57164483284E-02 -0.22130881430E-01  0.81176268157E-02  0.24255918030E-01  0.00000000000E+00 0.  1.
     999901    1    3    3    0    0  0.12538286366E-01  0.11027847104E+00 -0.97649966006E-01  0.89233069300E+00  0.88000000000E+00 0.  1.
        -11    1    4    4    0    0  0.43183517782E-02 -0.11490802866E-01  0.18715601059E-01  0.22387977948E-01  0.51100000000E-03 0.  1.
         11    1    4    4    0    0 -0.11140189816E-01 -0.76656786745E-01  0.70816738131E-01  0.10495541103E+00  0.51100000000E-03 0. -1.
</event>
<event>
 8    1  0.1114447E+005  0.1043930E+01  0.7957747E-01            NaN
         13   -1    0    0    0    0  0.00000000000E+00  0.00000000000E+00  0.74505805969E-08  0.10566000000E+00  0.10566000000E+00 0.  1.
     999900   -1    0    0    0    0 -0.00000000000E+00 -0.00000000000E+00 -0.74505805969E-08  0.93827000000E+00  0.93827000000E+00 0.  1.
     999902    2    1    2    0    0 -0.16862943422E-01 -0.15375375776E-01  0.44748554411E-02  0.10206752075E+01  0.10204102576E+01 0.  0.
     999903    2    3    3    0    0  0.41516792433E-01  0.76361146999E-01 -0.92902078078E-01  0.12865163703E+00  0.19125343751E-01 0.  0.
         14    1    1    2    0    0  0.16862943422E-01  0.15375375776E-01 -0.44748554411E-02  0.23254792459E-01  0.00000000000E+00 0.  1.
     999901    1    3    3    0    0 -0.58379735855E-01 -0.91736522776E-01  0.97376933519E-01  0.89202357051E+00  0.88000000000E+00 0.  1.
        -11    1    4    4    0    0  0.75376667064E-02  0.33174414426E-01 -0.36825959541E-01  0.50137516981E-01  0.51100000000E-03 0.  1.
         11    1    4    4    0    0  0.33979125727E-01  0.43186732574E-01 -0.56076118538E-01  0.78514120047E-01  0.51100000000E-03 0. -1.
</event>
<event>
 8    1  0.1114447E+005  0.1043930E+01  0.7957747E-01            NaN
         13   -1    0    0    0    0  0.00000000000E+00  0.00000000000E+00  0.74505805969E-08  0.10566000000E+00  0.10566000000E+00 0.  1.
     999900   -1    0    0    0    0 -0.00000000000E+00 -0.00000000000E+00 -0.74505805969E-08  0.93827000000E+00  0.93827000000E+00 0. -1.
     999902    2    1    2    0    0 -0.22195038300E-01  0.17798525628E-01 -0.73278323715E-02  0.10145513621E+01  0.10141259103E+01 0.  0.
     999903    2    3    3    0    0  0.55538845322E-02 -0.11312205529E+00 -0.45489563004E-01  0.12361560742E+00  0.19597781210E-01 0.  0.
         14    1    1    2    0    0  0.22195038300E-01 -0.17798525628E-01  0.73278323715E-02  0.29378637936E-01  0.00000000000E+00 0.  1.
     999901    1    3    3    0    0 -0.27748922833E-01  0.13092058092E+00  0.38161730632E-01  0.89093575465E+00  0.88000000000E+00 0.  1.
        -11    1    4    4    0    0  0.30851052907E-02 -0.81721199337E-01 -0.41958186069E-01  0.91916390240E-01  0.51100000000E-03 0. -1.
         11    1    4    4    0    0  0.24687792415E-02 -0.31400855952E-01 -0.35313769350E-02  0.31699217175E-01  0.51100000000E-03 0.  1.
</event>
<event>
 8    1  0.1114447E+005  0.1043930E+01  0.7957747E-01            NaN
         13   -1    0    0    0    0  0.00000000000E+00  0.00000000000E+00  0.74505805969E-08  0.10566000000E+00  0.10566000000E+00 0.  1.
     999900   -1    0    0    0    0 -0.00000000000E+00 -0.00000000000E+00 -0.74505805969E-08  0.93827000000E+00  0.93827000000E+00 0.  1.
     999902    2    1    2    0    0  0.14460541996E-01  0.99039855110E-04 -0.21813725622E-01  0.10177583415E+01  0.10174217837E+01 0.  0.
     999903    2    3    3    0    0 -0.80576337975E-01  0.76355297342E-01 -0.61650068514E-01  0.12846988459E+00  0.19521849929E-01 0.  0.
         14    1    1    2    0    0 -0.14460541996E-01 -0.99039855110E-04  0.21813725622E-01  0.26171658512E-01  0.00000000000E+00 0.  1.
     999901    1    3    3    0    0  0.95036879971E-01 -0.76256257487E-01  0.39836342891E-01  0.88928845690E+00  0.88000000000E+00 0. -1.
        -11    1    4    4    0    0 -0.14211796763E-01  0.22922155587E-01 -0.96358122239E-02  0.28644552400E-01  0.51100000000E-03 0. -1.
         11    1    4    4    0    0 -0.66364541212E-01  0.53433141756E-01 -0.52014256290E-01  0.99825332188E-01  0.51100000000E-03 0.  1.
</event>
<event>
 8    1  0.1114447E+005  0.1043930E+01  0.7957747E-01            NaN
         13   -1    0    0    0    0  0.00000000000E+00  0.00000000000E+00  0.74505805969E-08  0.10566000000E+00  0.10566000000E+00 0.  1.
     999900   -1    0    0    0    0 -0.00000000000E+00 -0.00000000000E+00 -0.74505805969E-08  0.93827000000E+00  0.93827000000E+00 0.  1.
     999902    2    1    2    0    0 -0.13922188482E-01 -0.88155960057E-02  0.17167481792E-01  0.10201336873E+01  0.10198561053E+01 0.  0.
     999903    2    3    3    0    0  0.70939592037E-01 -0.40725586369E-01 -0.96616387242E-01  0.12818832011E+00  0.20162341751E-01 0.  0.
         14    1    1    2    0    0  0.13922188482E-01  0.88155960057E-02 -0.17167481792E-01  0.23796312658E-01  0.00000000000E+00 0.  1.
     999901    1    3    3    0    0 -0.84861780519E-01  0.31909990363E-01  0.11378386903E+00  0.89194536723E+00  0.88000000000E+00 0.  1.
        -11    1    4    4    0    0  0.52094289438E-01 -0.33712908826E-01 -0.59490264508E-01  0.85963526602E-01  0.51100000000E-03 0. -1.
         11    1    4    4    0    0  0.18845302598E-01 -0.70126775429E-02 -0.37126122734E-01  0.42224793506E-01  0.51100000000E-03 0.  1.
</event>
<event>
 8    1  0.1114447E+005  0.1043930E+01  0.7957747E-01            NaN
         13   -1    0    0    0    0  0.00000000000E+00  0.00000000000E+00  0.74505805969E-08  0.10566000000E+00  0.10566000000E+00 0.  1.
     999900   -1    0    0    0    0 -0.00000000000E+00 -0.00000000000E+00 -0.74505805969E-08  0.93827000000E+00  0.93827000000E+00 0.  1.
     999902    2    1    2    0    0 -0.10069956678E-01  0.32514551063E-02 -0.20831536266E-01  0.10205648788E+01  0.10202973796E+01 0.  0.
     999903    2    3    3    0    0 -0.70366951169E-01  0.80634577095E-01  0.71537599783E-01  0.13030877380E+00  0.20231300147E-01 0.  0.
         14    1    1    2    0    0  0.10069956678E-01 -0.32514551063E-02  0.20831536266E-01  0.23365121249E-01  0.00000000000E+00 0.  1.
     999901    1    3    3    0    0  0.60296994491E-01 -0.77383121988E-01 -0.92369136049E-01  0.89025610495E+00  0.88000000000E+00 0.  1.
        -11    1    4    4    0    0 -0.48404392641E-01  0.55801678304E-01  0.37703334115E-01  0.82937416483E-01  0.51100000000E-03 0.  1.
         11    1    4    4    0    0 -0.21962558528E-01  0.24832898791E-01  0.33834265668E-01  0.47371357314E-01  0.51100000000E-03 0. -1.
</event>
<event>
 8    1  0.1114447E+005  0.1043930E+01  0.7957747E-01            NaN
         13   -1    0    0    0    0  0.00000000000E+00  0.00000000000E+00  0.74505805969E-08  0.10566000000E+00  0.10566000000E+00 0. -1.
     999900   -1    0    0    0    0 -0.00000000000E+00 -0.00000000000E+00 -0.74505805969E-08  0.93827000000E+00  0.93827000000E+00 0. -1.
     999902    2    1    2    0    0  0.30891521216E-02 -0.24300412716E-01  0.76623930409E-03  0.10194220413E+01  0.10191274004E+01 0.  0.
     999903    2    3    3    0    0 -0.59817435825E-01 -0.17955385968E-01 -0.11213783411E+00  0.12995881663E+00  0.20344008154E-01 0.  0.
         14    1    1    2    0    0 -0.30891521216E-02  0.24300412716E-01 -0.76623930409E-03  0.24507958742E-01  0.00000000000E+00 0. -1.
     999901    1    3    3    0    0  0.62906587947E-01 -0.63450267481E-02  0.11290407341E+00  0.88946322463E+00  0.88000000000E+00 0.  1.
        -11    1    4    4    0    0 -0.31415421300E-01  0.83771130735E-03 -0.48858729589E-01  0.58095327125E-01  0.51100000000E-03 0.  1.
         11    1    4    4    0    0 -0.28402014525E-01 -0.18793097276E-01 -0.63279104519E-01  0.71863489506E-01  0.51100000000E-03 0. -1.
</event>
<event>
 8    1  0.1114447E+005  0.1043930E+01  0.7957747E-01            NaN
         13   -1    0    0    0    0  0.00000000000E+00  0.00000000000E+00  0.74505805969E-08  0.10566000000E+00  0.10566000000E+00 0.  1.
     999900   -1    0    0    0    0 -0.00000000000E+00 -0.00000000000E+00 -0.74505805969E-08  0.93827000000E+00  0.93827000000E+00 0.  1.
     999902    2    1    2    0    0  0.34382775715E-02  0.19693581172E-01 -0.12258120228E-01  0.10204796183E+01  0.10202101406E+01 0.  0.
     999903    2    3    3    0    0 -0.86299208838E-02 -0.91761214643E-01 -0.89651767391E-01  0.12999795672E+00  0.19168549973E-01 0.  0.
         14    1    1    2    0    0 -0.34382775715E-02 -0.19693581172E-01  0.12258120228E-01  0.23450381736E-01  0.00000000000E+00 0.  1.
     999901    1    3    3    0    0  0.12068198455E-01  0.11145479581E+00  0.77393647162E-01  0.89048166154E+00  0.88000000000E+00 0. -1.
        -11    1    4    4    0    0 -0.38204974793E-02 -0.23043237143E-02 -0.53235755378E-02  0.69647459593E-02  0.51100000000E-03 0. -1.
         11    1    4    4    0    0 -0.48094234045E-02 -0.89456890929E-01 -0.84328191853E-01  0.12303321076E+00  0.51100000000E-03 0.  1.
</event>
<event>
 8    1  0.1114447E+005  0.1043930E+01  0.7957747E-01            NaN
         13   -1    0    0    0    0  0.00000000000E+00  0.00000000000E+00  0.74505805969E-08  0.10566000000E+00  0.10566000000E+00 0. -1.
     999900   -1    0    0    0    0 -0.00000000000E+00 -0.00000000000E+00 -0.74505805969E-08  0.93827000000E+00  0.93827000000E+00 0. -1.
     999902    2    1    2    0    0  0.12323738121E-01 -0.11710362193E-01  0.16271201884E-01  0.10203979131E+01  0.10201265323E+01 0.  0.
     999903    2    3    3    0    0 -0.23880130903E-01 -0.12631168557E+00  0.23831854994E-01  0.13219672702E+00  0.19573317479E-01 0.  0.
         14    1    1    2    0    0 -0.12323738121E-01  0.11710362193E-01 -0.16271201884E-01  0.23532086918E-01  0.00000000000E+00 0.  1.
     999901    1    3    3    0    0  0.36203869024E-01  0.11460132338E+00 -0.75606531099E-02  0.88820118607E+00  0.88000000000E+00 0.  1.
        -11    1    4    4    0    0 -0.14586567203E-01 -0.32184860070E-01  0.41242345999E-02  0.35579538959E-01  0.51100000000E-03 0.  1.
         11    1    4    4    0    0 -0.92935636999E-02 -0.94126825503E-01  0.19707620394E-01  0.96617188057E-01  0.51100000000E-03 0. -1.
</event>
<event>
 8    1  0.1114447E+005  0.1043930E+01  0.7957747E-01            NaN
         13   -1    0    0    0    0  0.00000000000E+00  0.00000000000E+00  0.74505805969E-08  0.10566000000E+00  0.10566000000E+00 0.  1.
     999900   -1    0    0    0    0 -0.00000000000E+00 -0.00000000000E+00 -0.74505805969E-08  0.93827000000E+00  0.93827000000E+00 0.  1.
     999902    2    1    2    0    0 -0.12179869384E-01  0.13501146654E-01 -0.14239332790E-01  0.10208347889E+01  0.10205735042E+01 0.  0.
     999903    2    3    3    0    0  0.10065093522E+00 -0.82833057988E-02  0.76939428751E-01  0.12869190827E+00  0.21040618839E-01 0.  0.
         14    1    1    2    0    0  0.12179869384E-01 -0.13501146654E-01  0.14239332790E-01  0.23095211138E-01  0.00000000000E+00 0.  1.
     999901    1    3    3    0    0 -0.11283080461E+00  0.21784452452E-01 -0.91178761542E-01  0.89214288059E+00  0.88000000000E+00 0.  1.
        -11    1    4    4    0    0  0.29324189593E-01  0.70191290476E-02  0.24365056231E-01  0.38769747923E-01  0.51100000000E-03 0.  1.
         11    1    4    4    0    0  0.71326745630E-01 -0.15302434846E-01  0.52574372521E-01  0.89922160346E-01  0.51100000000E-03 0. -1.
</event>
<event>
 8    1  0.1114447E+005  0.1043930E+01  0.7957747E-01            NaN
         13   -1    0    0    0    0  0.00000000000E+00  0.00000000000E+00  0.74505805969E-08  0.10566000000E+00  0.10566000000E+00 0.  1.
     999900   -1    0    0    0    0 -0.00000000000E+00 -0.00000000000E+00 -0.74505805969E-08  0.93827000000E+00  0.93827000000E+00 0. -1.
     999902    2    1    2    0    0 -0.58605915044E-02 -0.14310689364E-01  0.16920607412E-01  0.10210073187E+01  0.10207499672E+01 0.  0.
     999903    2    3    3    0    0  0.10055333694E+00 -0.39944317073E-01  0.73550398880E-01  0.13241970888E+00  0.20464508034E-01 0.  0.
         14    1    1    2    0    0  0.58605915044E-02  0.14310689364E-01 -0.16920607412E-01  0.22922681301E-01  0.00000000000E+00 0. -1.
     999901    1    3    3    0    0 -0.10641392844E+00  0.25633627709E-01 -0.56629791468E-01  0.88858760982E+00  0.88000000000E+00 0. -1.
        -11    1    4    4    0    0  0.63090539941E-01 -0.29481713522E-01  0.57607777858E-01  0.90379781218E-01  0.51100000000E-03 0. -1.
         11    1    4    4    0    0  0.37462796998E-01 -0.10462603551E-01  0.15942621022E-01  0.42039927664E-01  0.51100000000E-03 0.  1.
</event>
<event>
 8    1  0.1114447E+005  0.1043930E+01  0.7957747E-01            NaN
         13   -1    0    0    0    0  0.00000000000E+00  0.00000000000E+00  0.74505805969E-08  0.10566000000E+00  0.10566000000E+00 0.  1.
     999900   -1    0    0    0    0 -0.00000000000E+00 -0.00000000000E+00 -0.74505805969E-08  0.93827000000E+00  0.93827000000E+00 0. -1.
     999902    2    1    2    0    0  0.72222905909E-02  0.22894226364E-01  0.31800870270E-02  0.10197138889E+01  0.10194263069E+01 0.  0.
     999903    2    3    3    0    0  0.12363244802E+00 -0.30007716462E-01  0.20014087574E-01  0.13031334705E+00  0.19888676840E-01 0.  0.
         14    1    1    2    0    0 -0.72222905909E-02 -0.22894226364E-01 -0.31800870270E-02  0.24216111077E-01  0.00000000000E+00 0. -1.
     999901    1    3    3    0    0 -0.11641015743E+00  0.52901942825E-01 -0.16834000547E-01  0.88940054187E+00  0.88000000000E+00 0. -1.
        -11    1    4    4    0    0  0.64413840099E-01 -0.25557626806E-01  0.13047984351E-01  0.70518409659E-01  0.51100000000E-03 0. -1.
         11    1    4    4    0    0  0.59218607926E-01 -0.44500896560E-02  0.69661032228E-02  0.59794937392E-01  0.51100000000E-03 0.  1.
</event>
<event>
 8    1  0.1114447E+005  0.1043930E+01  0.7957747E-01            NaN
         13   -1    0    0    0    0  0.00000000000E+00  0.00000000000E+00  0.74505805969E-08  0.10566000000E+00  0.10566000000E+00 0.  1.
     999900   -1    0    0    0    0 -0.00000000000E+00 -0.00000000000E+00 -0.74505805969E-08  0.93827000000E+00  0.93827000000E+00 0. -1.
     999902    2    1    2    0    0 -0.16572018963E-01 -0.16996978433E-01  0.16421436865E-03  0.10201906644E+01  0.10199144257E+01 0.  0.
     999903    2    3    3    0    0  0.49409977917E-01 -0.10866140433E+00  0.51368281692E-01  0.13149620206E+00  0.20097365079E-01 0.  0.
         14    1    1    2    0    0  0.16572018963E-01  0.16996978433E-01 -0.16421436865E-03  0.23739335600E-01  0.00000000000E+00 0. -1.
     999901    1    3    3    0    0 -0.65981996881E-01  0.91664425895E-01 -0.51204067324E-01  0.88869446234E+00  0.88000000000E+00 0. -1.
        -11    1    4    4    0    0  0.27018495688E-01 -0.37473217668E-01  0.23502735149E-01  0.51835131254E-01  0.51100000000E-03 0.  1.
         11    1    4    4    0    0  0.22391482230E-01 -0.71188186661E-01  0.27865546543E-01  0.79661070804E-01  0.51100000000E-03 0. -1.
</event>
<event>
 8    1  0.1114447E+005  0.1043930E+01  0.7957747E-01            NaN
         13   -1    0    0    0    0  0.00000000000E+00  0.00000000000E+00  0.74505805969E-08  0.10566000000E+00  0.10566000000E+00 0. -1.
     999900   -1    0    0    0    0 -0.00000000000E+00 -0.00000000000E+00 -0.74505805969E-08  0.93827000000E+00  0.93827000000E+00 0.  1.
     999902    2    1    2    0    0  0.17537369509E-01 -0.12443386512E-01  0.10746122729E-01  0.10198909411E+01  0.10196075988E+01 0.  0.
     999903    2    3    3    0    0  0.96737945196E-01  0.36949138129E-01 -0.78109047691E-01  0.13050486412E+00  0.14388446043E-01 0.  0.
         14    1    1    2    0    0 -0.17537369509E-01  0.12443386512E-01 -0.10746122729E-01  0.24039058860E-01  0.00000000000E+00 0. -1.
     999901    1    3    3    0    0 -0.79200575687E-01 -0.49392524641E-01  0.88855170421E-01  0.88938607702E+00  0.88000000000E+00 0. -1.
        -11    1    4    4    0    0  0.41764580289E-01  0.93556865095E-02 -0.27785737789E-01  0.51030553419E-01  0.51100000000E-03 0.  1.
         11    1    4    4    0    0  0.54973364907E-01  0.27593451619E-01 -0.50323309902E-01  0.79474310704E-01  0.51100000000E-03 0. -1.
</event>
<event>
 8    1  0.1114447E+005  0.1043930E+01  0.7957747E-01            NaN
         13   -1    0    0    0    0  0.00000000000E+00  0.00000000000E+00  0.74505805969E-08  0.10566000000E+00  0.10566000000E+00 0.  1.
     999900   -1    0    0    0    0 -0.00000000000E+00 -0.00000000000E+00 -0.74505805969E-08  0.93827000000E+00  0.93827000000E+00 0. -1.
     999902    2    1    2    0    0 -0.61841359629E-02 -0.21541342926E-01 -0.10612109576E-01  0.10191330272E+01  0.10188313095E+01 0.  0.
     999903    2    3    3    0    0  0.27024127748E-01  0.72143231419E-01 -0.10118644430E+00  0.12891771704E+00  0.21121835538E-01 0.  0.
         14    1    1    2    0    0  0.61841359629E-02  0.21541342926E-01  0.10612109576E-01  0.24796972846E-01  0.00000000000E+00 0.  1.
     999901    1    3    3    0    0 -0.33208263711E-01 -0.93684574345E-01  0.90574334726E-01  0.89021531011E+00  0.88000000000E+00 0. -1.
        -11    1    4    4    0    0  0.25858108060E-01  0.44233332015E-01 -0.57057808226E-01  0.76688226046E-01  0.51100000000E-03 0. -1.
         11    1    4    4    0    0  0.11660196887E-02  0.27909899404E-01 -0.44128636076E-01  0.52229490995E-01  0.51100000000E-03 0.  1.
</event>
<event>
 8    1  0.1114447E+005  0.1043930E+01  0.7957747E-01            NaN
         13   -1    0    0    0    0  0.00000000000E+00  0.00000000000E+00  0.74505805969E-08  0.10566000000E+00  0.10566000000E+00 0. -1.
     999900   -1    0    0    0    0 -0.00000000000E+00 -0.00000000000E+00 -0.74505805969E-08  0.93827000000E+00  0.93827000000E+00 0. -1.
     999902    2    1    2    0    0  0.19578061118E-01 -0.20526397278E-02  0.13266227203E-01  0.10201917062E+01  0.10199154920E+01 0.  0.
     999903    2    3    3    0    0  0.94184712529E-01 -0.39654745087E-01 -0.80457952152E-01  0.13127984752E+00  0.17822946377E-01 0.  0.
         14    1    1    2    0    0 -0.19578061118E-01  0.20526397278E-02 -0.13266227203E-01  0.23738293771E-01  0.00000000000E+00 0.  1.
     999901    1    3    3    0    0 -0.74606651411E-01  0.37602105359E-01  0.93724179355E-01  0.88891185871E+00  0.88000000000E+00 0.  1.
        -11    1    4    4    0    0  0.65589952000E-01 -0.29795847219E-01 -0.46229790053E-01  0.85599584837E-01  0.51100000000E-03 0.  1.
         11    1    4    4    0    0  0.28594760528E-01 -0.98588978676E-02 -0.34228162099E-01  0.45680262680E-01  0.51100000000E-03 0. -1.
</event>
<event>
 8    1  0.1114447E+005  0.1043930E+01  0.7957747E-01            NaN
         13   -1    0    0    0    0  0.00000000000E+00  0.00000000000E+00  0.74505805969E-08  0.10566000000E+00  0.10566000000E+00 0.  1.
     999900   -1    0    0    0    0 -0.00000000000E+00 -0.00000000000E+00 -0.74505805969E-08  0.93827000000E+00  0.93827000000E+00 0.  1.
     999902    2    1    2    0    0  0.21104036446E-01  0.57966790227E-02  0.32690645359E-02  0.10218015426E+01  0.10215619041E+01 0.  0.
     999903    2    3    3    0    0  0.12811579413E+00  0.34044425552E-01 -0.14088113930E-01  0.13469911163E+00  0.19305338690E-01 0.  0.
         14    1    1    2    0    0 -0.21104036446E-01 -0.57966790227E-02 -0.32690645359E-02  0.22128457356E-01  0.00000000000E+00 0.  1.
     999901    1    3    3    0    0 -0.10701175769E+00 -0.28247746529E-01  0.17357178466E-01  0.88710243101E+00  0.88000000000E+00 0.  1.
        -11    1    4    4    0    0  0.57289532930E-01  0.59729249965E-02 -0.94262396926E-02  0.58368497771E-01  0.51100000000E-03 0.  1.
         11    1    4    4    0    0  0.70826261204E-01  0.28071500555E-01 -0.46618742374E-02  0.76330613858E-01  0.51100000000E-03 0. -1.
</event>
<event>
 8    1  0.1114447E+005  0.1043930E+01  0.7957747E-01            NaN
         13   -1    0    0    0    0  0.00000000000E+00  0.00000000000E+00  0.74505805969E-08  0.10566000000E+00  0.10566000000E+00 0.  1.
     999900   -1    0    0    0    0 -0.00000000000E+00 -0.00000000000E+00 -0.74505805969E-08  0.93827000000E+00  0.93827000000E+00 0. -1.
     999902    2    1    2    0    0 -0.86854797114E-02  0.19065059357E-01  0.88562641717E-02  0.10211847266E+01  0.10209313877E+01 0.  0.
     999903    2    3    3    0    0  0.57268468745E-01 -0.92300833815E-01 -0.66483044657E-01  0.12853233238E+00  0.17362137133E-01 0.  0.
         14    1    1    2    0    0  0.86854797114E-02 -0.19065059357E-01 -0.88562641717E-02  0.22745273381E-01  0.00000000000E+00 0. -1.
     999901    1    3    3    0    0 -0.65953948456E-01  0.11136589317E+00  0.75339308829E-01  0.89265239424E+00  0.88000000000E+00 0. -1.
        -11    1    4    4    0    0  0.30379269545E-01 -0.64622325871E-01 -0.43447903162E-01  0.83587836611E-01  0.51100000000E-03 0. -1.
         11    1    4    4    0    0  0.26889199200E-01 -0.27678507944E-01 -0.23035141495E-01  0.44944495773E-01  0.51100000000E-03 0.  1.
</event>
<event>
 8    1  0.1114447E+005  0.1043930E+01  0.7957747E-01            NaN
         13   -1    0    0    0    0  0.00000000000E+00  0.00000000000E+00  0.74505805969E-08  0.10566000000E+00  0.10566000000E+00 0.  1.
     999900   -1    0    0    0    0 -0.00000000000E+00 -0.00000000000E+00 -0.74505805969E-08  0.93827000000E+00  0.93827000000E+00 0. -1.
     999902    2    1    2    0    0 -0.10433247228E-01  0.14937730572E-01 -0.13556240878E-01  0.10212196475E+01  0.10209670947E+01 0.  0.
     999903    2    3    3    0    0  0.46152563898E-01 -0.11738205861E+00  0.17875788569E-01  0.12897615324E+00  0.20166741222E-01 0.  0.
         14    1    1    2    0    0  0.10433247228E-01 -0.14937730572E-01  0.13556240878E-01  0.22710352465E-01  0.00000000000E+00 0.  1.
     999901    1    3    3    0    0 -0.56585811127E-01  0.13231978918E+00 -0.31432029446E-01  0.89224349429E+00  0.88000000000E+00 0. -1.
        -11    1    4    4    0    0  0.28847441184E-01 -0.72207100195E-01  0.20853873008E-01  0.80505809243E-01  0.51100000000E-03 0.  1.
         11    1    4    4    0    0  0.17305122715E-01 -0.45174958412E-01 -0.29780844389E-02  0.48470344001E-01  0.51100000000E-03 0. -1.
</event>
<event>
 8    1  0.1114447E+005  0.1043930E+01  0.7957747E-01            NaN
         13   -1    0    0    0    0  0.00000000000E+00  0.00000000000E+00  0.74505805969E-08  0.10566000000E+00  0.10566000000E+00 0.  1.
     999900   -1    0    0    0    0 -0.00000000000E+00 -0.00000000000E+00 -0.74505805969E-08  0.93827000000E+00  0.93827000000E+00 0.  1.
     999902    2    1    2    0    0  0.19619545135E-01  0.10857870678E-01 -0.50318272663E-02  0.10209487208E+01  0.10206900369E+01 0.  0.
     999903    2    3    3    0    0  0.82697557343E-01  0.85523428819E-01 -0.58249692621E-01  0.13393918176E+00  0.19837712889E-01 0.  0.
         14    1    1    2    0    0 -0.19619545135E-01 -0.10857870678E-01  0.50318272663E-02  0.22981279177E-01  0.00000000000E+00 0. -1.
     999901    1    3    3    0    0 -0.63078012208E-01 -0.74665558141E-01  0.53217865355E-01  0.88700953906E+00  0.88000000000E+00 0. -1.
        -11    1    4    4    0    0  0.47619386223E-01  0.62788034305E-01 -0.38080003497E-01  0.87523088288E-01  0.51100000000E-03 0.  1.
         11    1    4    4    0    0  0.35078171120E-01  0.22735394513E-01 -0.20169689124E-01  0.46416093472E-01  0.51100000000E-03 0. -1.
</event>
<event>
 8    1  0.1114447E+005  0.1043930E+01  0.7957747E-01            NaN
         13   -1    0    0    0    0  0.00000000000E+00  0.00000000000E+00  0.74505805969E-08  0.10566000000E+00  0.10566000000E+00 0.  1.
     999900   -1    0    0    0    0 -0.00000000000E+00 -0.00000000000E+00 -0.74505805969E-08  0.93827000000E+00  0.93827000000E+00 0.  1.
     999902    2    1    2    0    0  0.13829587584E-01  0.43784917976E-03  0.19486294698E-01  0.10200309438E+01  0.10197509311E+01 0.  0.
     999903    2    3    3    0    0 -0.36554972715E-01  0.13812078969E-01  0.12468294053E+00  0.13223377768E+00  0.20319860807E-01 0.  0.
         14    1    1    2    0    0 -0.13829587584E-01 -0.43784917976E-03 -0.19486294698E-01  0.23899056167E-01  0.00000000000E+00 0. -1.
     999901    1    3    3    0    0  0.50384560299E-01 -0.13374229789E-01 -0.10519664584E+00  0.88779716616E+00  0.88000000000E+00 0.  1.
        -11    1    4    4    0    0 -0.26009853158E-01 -0.39426171384E-03  0.81925884732E-01  0.85958010759E-01  0.51100000000E-03 0.  1.
         11    1    4    4    0    0 -0.10545119557E-01  0.14206340683E-01  0.42757055801E-01  0.46275766918E-01  0.51100000000E-03 0. -1.
</event>
<event>
 8    1  0.1114447E+005  0.1043930E+01  0.7957747E-01            NaN
         13   -1    0    0    0    0  0.00000000000E+00  0.00000000000E+00  0.74505805969E-08  0.10566000000E+00  0.10566000000E+00 0. -1.
     999900   -1    0    0    0    0 -0.00000000000E+00 -0.00000000000E+00 -0.74505805969E-08  0.93827000000E+00  0.93827000000E+00 0. -1.
     999902    2    1    2    0    0  0.13361020042E-01  0.11007847810E-02 -0.19809700321E-01  0.10200102841E+01  0.10197297813E+01 0.  0.
     999903    2    3    3    0    0 -0.10774403332E+00  0.68169709850E-01  0.61237134304E-04  0.12896621736E+00  0.19400912671E-01 0.  0.
         14    1    1    2    0    0 -0.13361020042E-01 -0.11007847810E-02  0.19809700321E-01  0.23919715937E-01  0.00000000000E+00 0. -1.
     999901    1    3    3    0    0  0.12110505336E+00 -0.67068925069E-01 -0.19870937456E-01  0.89104406671E+00  0.88000000000E+00 0.  1.
        -11    1    4    4    0    0 -0.41725782276E-01  0.22600402495E-01 -0.87769781711E-02  0.48260911370E-01  0.51100000000E-03 0. -1.
         11    1    4    4    0    0 -0.66018251041E-01  0.45569307356E-01  0.88382153054E-02  0.80705305985E-01  0.51100000000E-03 0.  1.
</event>
<event>
 8    1  0.1114447E+005  0.1043930E+01  0.7957747E-01            NaN
         13   -1    0    0    0    0  0.00000000000E+00  0.00000000000E+00  0.74505805969E-08  0.10566000000E+00  0.10566000000E+00 0.  1.
     999900   -1    0    0    0    0 -0.00000000000E+00 -0.00000000000E+00 -0.74505805969E-08  0.93827000000E+00  0.93827000000E+00 0. -1.
     999902    2    1    2    0    0 -0.57338326489E-02 -0.17888710813E-02  0.24004164663E-01  0.10191857720E+01  0.10188853523E+01 0.  0.
     999903    2    3    3    0    0  0.11381520319E+00 -0.42368935166E-02 -0.53876826933E-01  0.12769072794E+00  0.20745066330E-01 0.  0.
         14    1    1    2    0    0  0.57338326489E-02  0.17888710813E-02 -0.24004164663E-01  0.24744227969E-01  0.00000000000E+00 0. -1.
     999901    1    3    3    0    0 -0.11954903584E+00  0.24480224352E-02  0.77880991596E-01  0.89149504409E+00  0.88000000000E+00 0.  1.
        -11    1    4    4    0    0  0.50487574708E-01 -0.11331369073E-01 -0.28696169527E-01  0.59170316811E-01  0.51100000000E-03 0.  1.
         11    1    4    4    0    0  0.63327628486E-01  0.70944755566E-02 -0.25180657406E-01  0.68520411131E-01  0.51100000000E-03 0. -1.
</event>
<event>
 8    1  0.1114447E+005  0.1043930E+01  0.7957747E-01            NaN
         13   -1    0    0    0    0  0.00000000000E+00  0.00000000000E+00  0.74505805969E-08  0.10566000000E+00  0.10566000000E+00 0. -1.
     999900   -1    0    0    0    0 -0.00000000000E+00 -0.00000000000E+00 -0.74505805969E-08  0.93827000000E+00  0.93827000000E+00 0.  1.
     999902    2    1    2    0    0  0.20729469326E-01  0.62864886803E-02  0.70339104424E-02  0.10211548659E+01  0.10209008538E+01 0.  0.
     999903    2    3    3    0    0  0.10565129155E+00 -0.71263265878E-01  0.33232036081E-01  0.13328549366E+00  0.20494051033E-01 0.  0.
         14    1    1    2    0    0 -0.20729469326E-01 -0.62864886803E-02 -0.70339104424E-02  0.22775134128E-01  0.00000000000E+00 0.  1.
     999901    1    3    3    0    0 -0.84921822229E-01  0.77549754558E-01 -0.26198125638E-01  0.88786937221E+00  0.88000000000E+00 0.  1.
        -11    1    4    4    0    0  0.33457076447E-01 -0.33465901148E-01  0.16303086962E-01  0.50053913628E-01  0.51100000000E-03 0.  1.
         11    1    4    4    0    0  0.72194215108E-01 -0.37797364730E-01  0.16928949119E-01  0.83231580033E-01  0.51100000000E-03 0. -1.
</event>
<event>
 8    1  0.1114447E+005  0.1043930E+01  0.7957747E-01            NaN
         13   -1    0    0    0    0  0.00000000000E+00  0.00000000000E+00  0.74505805969E-08  0.10566000000E+00  0.10566000000E+00 0.  1.
     999900   -1    0    0    0    0 -0.00000000000E+00 -0.00000000000E+00 -0.74505805969E-08  0.93827000000E+00  0.93827000000E+00 0.  1.
     999902    2    1    2    0    0  0.17260381642E-01 -0.86763306479E-02  0.13819401274E-01  0.10201776245E+01  0.10199010787E+01 0.  0.
     999903    2    3    3    0    0  0.35272462395E-01 -0.44720113573E-01  0.11857529084E+00  0.13304889334E+00  0.19946760649E-01 0.  0.
         14    1    1    2    0    0 -0.17260381642E-01  0.86763306479E-02 -0.13819401274E-01  0.23752375450E-01  0.00000000000E+00 0. -1.
     999901    1    3    3    0    0 -0.18012080753E-01  0.36043782925E-01 -0.10475588956E+00  0.88712873121E+00  0.88000000000E+00 0.  1.
        -11    1    4    4    0    0  0.56390997412E-02 -0.18042852557E-01  0.53325074224E-01  0.56578870935E-01  0.51100000000E-03 0. -1.
         11    1    4    4    0    0  0.29633362654E-01 -0.26677261016E-01  0.65250216613E-01  0.76470022405E-01  0.51100000000E-03 0.  1.
</event>
<event>
 8    1  0.1114447E+005  0.1043930E+01  0.7957747E-01            NaN
         13   -1    0    0    0    0  0.00000000000E+00  0.00000000000E+00  0.74505805969E-08  0.10566000000E+00  0.10566000000E+00 0.  1.
     999900   -1    0    0    0    0 -0.00000000000E+00 -0.00000000000E+00 -0.74505805969E-08  0.93827000000E+00  0.93827000000E+00 0.  1.
     999902    2    1    2    0    0  0.14186632780E-02  0.21259686644E-01 -0.97692678077E-02  0.10204901733E+01  0.10202209409E+01 0.  0.
     999903    2    3    3    0    0  0.49524347951E-01  0.11713776318E+00 -0.35753430924E-01  0.13359562536E+00  0.19888858397E-01 0.  0.
         14    1    1    2    0    0 -0.14186632780E-02 -0.21259686644E-01  0.97692678077E-02  0.23439826689E-01  0.00000000000E+00 0. -1.
     999901    1    3    3    0    0 -0.48105684673E-01 -0.95878076538E-01  0.25984163117E-01  0.88689454795E+00  0.88000000000E+00 0. -1.
        -11    1    4    4    0    0  0.34776053245E-01  0.84565465678E-01 -0.34760555441E-01  0.97822539326E-01  0.51100000000E-03 0.  1.
         11    1    4    4    0    0  0.14748294706E-01  0.32572297504E-01 -0.99287548313E-03  0.35773086030E-01  0.51100000000E-03 0. -1.
</event>
<event>
 8    1  0.1114447E+005  0.1043930E+01  0.7957747E-01            NaN
         13   -1    0    0    0    0  0.00000000000E+00  0.00000000000E+00  0.74505805969E-08  0.10566000000E+00  0.10566000000E+00 0. -1.
     999900   -1    0    0    0    0 -0.00000000000E+00 -0.00000000000E+00 -0.74505805969E-08  0.93827000000E+00  0.93827000000E+00 0. -1.
     999902    2    1    2    0    0 -0.22996536050E-01  0.58037369036E-02  0.90525134027E-02  0.10185435463E+01  0.10182271277E+01 0.  0.
     999903    2    3    3    0    0  0.73127163663E-01 -0.44165834892E-01 -0.90837543276E-01  0.12629092110E+00  0.19993360089E-01 0.  0.
         14    1    1    2    0    0  0.22996536050E-01 -0.58037369036E-02 -0.90525134027E-02  0.25386453696E-01  0.00000000000E+00 0.  1.
     999901    1    3    3    0    0 -0.96123699714E-01  0.49969571796E-01  0.99890056679E-01  0.89225262520E+00  0.88000000000E+00 0.  1.
        -11    1    4    4    0    0  0.28309734663E-02 -0.41736857433E-02 -0.13367350965E-01  0.14296197266E-01  0.51100000000E-03 0. -1.
         11    1    4    4    0    0  0.70296190197E-01 -0.39992149149E-01 -0.77470192311E-01  0.11199472384E+00  0.51100000000E-03 0.  1.
</event>
<event>
 8    1  0.1114447E+005  0.1043930E+01  0.7957747E-01            NaN
         13   -1    0    0    0    0  0.00000000000E+00  0.00000000000E+00  0.74505805969E-08  0.10566000000E+00  0.10566000000E+00 0. -1.
     999900   -1    0    0    0    0 -0.00000000000E+00 -0.00000000000E+00 -0.74505805969E-08  0.93827000000E+00  0.93827000000E+00 0.  1.
     999902    2    1    2    0    0  0.67915190563E-02 -0.16314566954E-01 -0.13404114182E-01  0.10217498264E+01  0.10215090541E+01 0.  0.
     999903    2    3    3    0    0 -0.12273758628E+00 -0.24943699844E-01  0.32843900881E-01  0.13102476778E+00  0.20051551050E-01 0.  0.
         14    1    1    2    0    0 -0.67915190563E-02  0.16314566954E-01  0.13404114182E-01  0.22180173647E-01  0.00000000000E+00 0. -1.
     999901    1    3    3    0    0  0.12952910534E+00  0.86291328891E-02 -0.46248015063E-01  0.89072505857E+00  0.88000000000E+00 0. -1.
        -11    1    4    4    0    0 -0.45456018084E-01  0.54238137155E-03  0.12143995170E-01  0.47056152598E-01  0.51100000000E-03 0.  1.
         11    1    4    4    0    0 -0.77281568199E-01 -0.25486081215E-01  0.20699905710E-01  0.83968615187E-01  0.51100000000E-03 0. -1.
</event>
<event>
 8    1  0.1114447E+005  0.1043930E+01  0.7957747E-01            NaN
         13   -1    0    0    0    0  0.00000000000E+00  0.00000000000E+00  0.74505805969E-08  0.10566000000E+00  0.10566000000E+00 0. -1.
     999900   -1    0    0    0    0 -0.00000000000E+00 -0.00000000000E+00 -0.74505805969E-08  0.93827000000E+00  0.93827000000E+00 0. -1.
     999902    2    1    2    0    0 -0.10938521076E-01 -0.92133973634E-03 -0.20871985019E-01  0.10203473821E+01  0.10200748209E+01 0.  0.
     999903    2    3    3    0    0  0.10485544529E+00  0.37891579595E-01  0.60114512052E-01  0.12822995814E+00  0.19968259668E-01 0.  0.
         14    1    1    2    0    0  0.10938521076E-01  0.92133973634E-03  0.20871985019E-01  0.23582617939E-01  0.00000000000E+00 0. -1.
     999901    1    3    3    0    0 -0.11579396637E+00 -0.38812919331E-01 -0.80986497070E-01  0.89211742392E+00  0.88000000000E+00 0.  1.
        -11    1    4    4    0    0  0.31210170203E-01  0.23791134157E-02  0.13289559333E-01  0.34008946073E-01  0.51100000000E-03 0.  1.
         11    1    4    4    0    0  0.73645275088E-01  0.35512466179E-01  0.46824952718E-01  0.94221012068E-01  0.51100000000E-03 0. -1.
</event>
<event>
 8    1  0.1114447E+005  0.1043930E+01  0.7957747E-01            NaN
         13   -1    0    0    0    0  0.00000000000E+00  0.00000000000E+00  0.74505805969E-08  0.10566000000E+00  0.10566000000E+00 0. -1.
     999900   -1    0    0    0    0 -0.00000000000E+00 -0.00000000000E+00 -0.74505805969E-08  0.93827000000E+00  0.93827000000E+00 0.  1.
     999902    2    1    2    0    0  0.22849655278E-01 -0.81958970592E-02  0.94322620700E-03  0.10196366027E+01  0.10193471599E+01 0.  0.
     999903    2    3    3    0    0  0.11417576199E+00  0.47510174098E-01  0.42190130029E-01  0.13219931977E+00  0.20083122426E-01 0.  0.
         14    1    1    2    0    0 -0.22849655278E-01  0.81958970592E-02 -0.94322620700E-03  0.24293397264E-01  0.00000000000E+00 0. -1.
     999901    1    3    3    0    0 -0.91326106710E-01 -0.55706071157E-01 -0.41246903822E-01  0.88743728297E+00  0.88000000000E+00 0.  1.
        -11    1    4    4    0    0  0.64420615787E-01  0.20082763096E-01  0.14615012742E-01  0.69044860999E-01  0.51100000000E-03 0. -1.
         11    1    4    4    0    0  0.49755146201E-01  0.27427411002E-01  0.27575117287E-01  0.63154458767E-01  0.51100000000E-03 0.  1.
</event>
<event>
 8    1  0.1114447E+005  0.1043930E+01  0.7957747E-01            NaN
         13   -1    0    0    0    0  0.00000000000E+00  0.00000000000E+00  0.74505805969E-08  0.10566000000E+00  0.10566000000E+00 0. -1.
     999900   -1    0    0    0    0 -0.00000000000E+00 -0.00000000000E+00 -0.74505805969E-08  0.93827000000E+00  0.93827000000E+00 0. -1.
     999902    2    1    2    0    0  0.27161737047E-02  0.14628192414E-01 -0.16525014994E-01  0.10216940441E+01  0.10214520459E+01 0.  0.
     999903    2    3    3    0    0 -0.98067277080E-01 -0.69868916805E-01 -0.48973095609E-01  0.13132898229E+00  0.18710454976E-01 0.  0.
         14    1    1    2    0    0 -0.27161737047E-02 -0.14628192414E-01  0.16525014994E-01  0.22235955870E-01  0.00000000000E+00 0. -1.
     999901    1    3    3    0    0  0.10078345078E+00  0.84497109219E-01  0.32448080615E-01  0.89036506184E+00  0.88000000000E+00 0. -1.
        -11    1    4    4    0    0 -0.54487687592E-01 -0.48562083971E-01 -0.24485834634E-01  0.76987020448E-01  0.51100000000E-03 0.  1.
         11    1    4    4    0    0 -0.43579589488E-01 -0.21306832833E-01 -0.24487260975E-01  0.54341961838E-01  0.51100000000E-03 0. -1.
</event>
<event>
 8    1  0.1114447E+005  0.1043930E+01  0.7957747E-01            NaN
         13   -1    0    0    0    0  0.00000000000E+00  0.00000000000E+00  0.74505805969E-08  0.10566000000E+00  0.10566000000E+00 0.  1.
     999900   -1    0    0    0    0 -0.00000000000E+00 -0.00000000000E+00 -0.74505805969E-08  0.93827000000E+00  0.93827000000E+00 0. -1.
     999902    2    1    2    0    0 -0.16078050234E-01 -0.16533283706E-01  0.36117280394E-02  0.10205869550E+01  0.10203199670E+01 0.  0.
     999903    2    3    3    0    0  0.89885871377E-01 -0.83654089179E-01 -0.39934350843E-01  0.13062638500E+00  0.19774315943E-01 0.  0.
         14    1    1    2    0    0  0.16078050234E-01  0.16533283706E-01 -0.36117280394E-02  0.23343044978E-01  0.00000000000E+00 0. -1.
     999901    1    3    3    0    0 -0.10596392161E+00  0.67120805472E-01  0.43546078882E-01  0.88996057002E+00  0.88000000000E+00 0. -1.
        -11    1    4    4    0    0  0.68395516591E-01 -0.74117665040E-01 -0.32597885841E-01  0.10599178385E+00  0.51100000000E-03 0.  1.
         11    1    4    4    0    0  0.21490354785E-01 -0.95364241385E-02 -0.73364650018E-02  0.24634601151E-01  0.51100000000E-03 0. -1.
</event>
<event>
 8    1  0.1114447E+005  0.1043930E+01  0.7957747E-01            NaN
         13   -1    0    0    0    0  0.00000000000E+00  0.00000000000E+00  0.74505805969E-08  0.10566000000E+00  0.10566000000E+00 0.  1.
     999900   -1    0    0    0    0 -0.00000000000E+00 -0.00000000000E+00 -0.74505805969E-08  0.93827000000E+00  0.93827000000E+00 0.  1.
     999902    2    1    2    0    0 -0.37066698723E-02  0.16196400151E-01  0.16046983224E-01  0.10208308994E+01  0.10205695256E+01 0.  0.
     999903    2    3    3    0    0  0.67527185246E-01 -0.10035456630E+00  0.42108960313E-01  0.12991136510E+00  0.21744850387E-01 0.  0.
         14    1    1    2    0    0  0.37066698723E-02 -0.16196400151E-01 -0.16046983224E-01  0.23099100632E-01  0.00000000000E+00 0. -1.
     999901    1    3    3    0    0 -0.71233855119E-01  0.11655096645E+00 -0.26061977089E-01  0.89091953427E+00  0.88000000000E+00 0.  1.
        -11    1    4    4    0    0  0.27273739841E-01 -0.54353494858E-01  0.12922039800E-01  0.62172337271E-01  0.51100000000E-03 0.  1.
         11    1    4    4    0    0  0.40253445405E-01 -0.46001071442E-01  0.29186920513E-01  0.67739027826E-01  0.51100000000E-03 0. -1.
</event>
<event>
 8    1  0.1114447E+005  0.1043930E+01  0.7957747E-01            NaN
         13   -1    0    0    0    0  0.00000000000E+00  0.00000000000E+00  0.74505805969E-08  0.10566000000E+00  0.10566000000E+00 0. -1.
     999900   -1    0    0    0    0 -0.00000000000E+00 -0.00000000000E+00 -0.74505805969E-08  0.93827000000E+00  0.93827000000E+00 0. -1.
     999902    2    1    2    0    0  0.16492467544E-03 -0.22220894739E-01 -0.79622132436E-02  0.10203250810E+01  0.10200519980E+01 0.  0.
     999903    2    3    3    0    0  0.47681465674E-01 -0.42815986132E-01  0.11209574947E+00  0.13066453116E+00  0.20025778793E-01 0.  0.
         14    1    1    2    0    0 -0.16492467544E-03  0.22220894739E-01  0.79622132436E-02  0.23604919040E-01  0.00000000000E+00 0. -1.
     999901    1    3    3    0    0 -0.47516540998E-01  0.20595091392E-01 -0.12005796272E+00  0.88966054980E+00  0.88000000000E+00 0. -1.
        -11    1    4    4    0    0  0.23641178517E-01 -0.18884909009E-01  0.33991506997E-01  0.45510754541E-01  0.51100000000E-03 0.  1.
         11    1    4    4    0    0  0.24040287156E-01 -0.23931077122E-01  0.78104242476E-01  0.85153776619E-01  0.51100000000E-03 0. -1.
</event>
<event>
 8    1  0.1114447E+005  0.1043930E+01  0.7957747E-01            NaN
         13   -1    0    0    0    0  0.00000000000E+00  0.00000000000E+00  0.74505805969E-08  0.10566000000E+00  0.10566000000E+00 0. -1.
     999900   -1    0    0    0    0 -0.00000000000E+00 -0.00000000000E+00 -0.74505805969E-08  0.93827000000E+00  0.93827000000E+00 0.  1.
     999902    2    1    2    0    0  0.99152622671E-02  0.20589756830E-01  0.70220164110E-02  0.10200226951E+01  0.10197424868E+01 0.  0.
     999903    2    3    3    0    0 -0.37303117104E-01  0.10726644198E-01 -0.12185290494E+00  0.12932880736E+00  0.19267239808E-01 0.  0.
         14    1    1    2    0    0 -0.99152622671E-02 -0.20589756830E-01 -0.70220164110E-02  0.23907304880E-01  0.00000000000E+00 0. -1.
     999901    1    3    3    0    0  0.47218379371E-01  0.98631126316E-02  0.12887492135E+00  0.89069388776E+00  0.88000000000E+00 0. -1.
        -11    1    4    4    0    0 -0.21392123278E-01 -0.30647306490E-02 -0.50496229612E-01  0.54928552123E-01  0.51100000000E-03 0. -1.
         11    1    4    4    0    0 -0.15910993825E-01  0.13791374847E-01 -0.71356675326E-01  0.74400255237E-01  0.51100000000E-03 0.  1.
</event>
<event>
 8    1  0.1114447E+005  0.1043930E+01  0.7957747E-01            NaN
         13   -1    0    0    0    0  0.00000000000E+00  0.00000000000E+00  0.74505805969E-08  0.10566000000E+00  0.10566000000E+00 0. -1.
     999900   -1    0    0    0    0 -0.00000000000E+00 -0.00000000000E+00 -0.74505805969E-08  0.93827000000E+00  0.93827000000E+00 0. -1.
     999902    2    1    2    0    0 -0.93891905398E-03  0.19045302560E-01 -0.14043256755E-01  0.10202484000E+01  0.10199735190E+01 0.  0.
     999903    2    3    3    0    0  0.11713489060E+00  0.53081842421E-02 -0.54463266314E-01  0.13133675640E+00  0.23115725979E-01 0.  0.
         14    1    1    2    0    0  0.93891905398E-03 -0.19045302560E-01  0.14043256755E-01  0.23681600006E-01  0.00000000000E+00 0. -1.
     999901    1    3    3    0    0 -0.11807380966E+00  0.13737118317E-01  0.40420009560E-01  0.88891164360E+00  0.88000000000E+00 0.  1.
        -11    1    4    4    0    0  0.55659376869E-01 -0.36745872431E-02 -0.15114965351E-01  0.57794395260E-01  0.51100000000E-03 0. -1.
         11    1    4    4    0    0  0.61475513732E-01  0.89827714853E-02 -0.39348300963E-01  0.73542361139E-01  0.51100000000E-03 0.  1.
</event>
<event>
 8    1  0.1114447E+005  0.1043930E+01  0.7957747E-01            NaN
         13   -1    0    0    0    0  0.00000000000E+00  0.00000000000E+00  0.74505805969E-08  0.10566000000E+00  0.10566000000E+00 0.  1.
     999900   -1    0    0    0    0 -0.00000000000E+00 -0.00000000000E+00 -0.74505805969E-08  0.93827000000E+00  0.93827000000E+00 0.  1.
     999902    2    1    2    0    0  0.19464682548E-01  0.94244784550E-02 -0.99243014477E-02  0.10201353279E+01  0.10198577846E+01 0.  0.
     999903    2    3    3    0    0 -0.11027005173E+00 -0.32825465778E-01 -0.53566341430E-01  0.12855202461E+00  0.20476195560E-01 0.  0.
         14    1    1    2    0    0 -0.19464682548E-01 -0.94244784550E-02  0.99243014477E-02  0.23794672094E-01  0.00000000000E+00 0.  1.
     999901    1    3    3    0    0  0.12973473428E+00  0.42249944233E-01  0.43642039982E-01  0.89158330330E+00  0.88000000000E+00 0.  1.
        -11    1    4    4    0    0 -0.95547931018E-01 -0.28291982896E-01 -0.53575915934E-01  0.11313922091E+00  0.51100000000E-03 0. -1.
         11    1    4    4    0    0 -0.14722120712E-01 -0.45334828827E-02  0.95745038683E-05  0.15412803703E-01  0.51100000000E-03 0.  1.
</event>
<event>
 8    1  0.1114447E+005  0.1043930E+01  0.7957747E-01            NaN
         13   -1    0    0    0    0  0.00000000000E+00  0.00000000000E+00  0.74505805969E-08  0.10566000000E+00  0.10566000000E+00 0. -1.
     999900   -1    0    0    0    0 -0.00000000000E+00 -0.00000000000E+00 -0.74505805969E-08  0.93827000000E+00  0.93827000000E+00 0.  1.
     999902    2    1    2    0    0  0.13223878280E-01  0.43503219821E-02 -0.18475169162E-01  0.10207971633E+01  0.10205350168E+01 0.  0.
     999903    2    3    3    0    0  0.30006977804E-01 -0.43054054076E-01  0.11618271029E+00  0.12913490000E+00  0.20574983321E-01 0.  0.
         14    1    1    2    0    0 -0.13223878280E-01 -0.43503219821E-02  0.18475169162E-01  0.23132836698E-01  0.00000000000E+00 0. -1.
     999901    1    3    3    0    0 -0.16783099524E-01  0.47404376058E-01 -0.13465787945E+00  0.89166226330E+00  0.88000000000E+00 0.  1.
        -11    1    4    4    0    0  0.20996375811E-01 -0.26651995441E-01  0.50539466056E-01  0.60874258997E-01  0.51100000000E-03 0.  1.
         11    1    4    4    0    0  0.90106019926E-02 -0.16402058634E-01  0.65643244233E-01  0.68260641003E-01  0.51100000000E-03 0. -1.
</event>
<event>
 8    1  0.1114447E+005  0.1043930E+01  0.7957747E-01            NaN
         13   -1    0    0    0    0  0.00000000000E+00  0.00000000000E+00  0.74505805969E-08  0.10566000000E+00  0.10566000000E+00 0.  1.
     999900   -1    0    0    0    0 -0.00000000000E+00 -0.00000000000E+00 -0.74505805969E-08  0.93827000000E+00  0.93827000000E+00 0.  1.
     999902    2    1    2    0    0  0.12044452644E-01  0.16519562548E-01  0.97551963920E-02  0.10212776570E+01  0.10210264071E+01 0.  0.
     999903    2    3    3    0    0  0.92268948149E-01 -0.52698818612E-01 -0.74282821150E-01  0.13094651504E+00  0.18393694783E-01 0.  0.
         14    1    1    2    0    0 -0.12044452644E-01 -0.16519562548E-01 -0.97551963920E-02  0.22652342989E-01  0.00000000000E+00 0. -1.
     999901    1    3    3    0    0 -0.80224495505E-01  0.69218381159E-01  0.84038017542E-01  0.89033114197E+00  0.88000000000E+00 0. -1.
        -11    1    4    4    0    0  0.48631128827E-01 -0.28221545434E-01 -0.50365075607E-01  0.75487378280E-01  0.51100000000E-03 0. -1.
         11    1    4    4    0    0  0.43637819322E-01 -0.24477273178E-01 -0.23917745542E-01  0.55459136761E-01  0.51100000000E-03 0.  1.
</event>
<event>
 8    1  0.1114447E+005  0.1043930E+01  0.7957747E-01            NaN
         13   -1    0    0    0    0  0.00000000000E+00  0.00000000000E+00  0.74505805969E-08  0.10566000000E+00  0.10566000000E+00 0. -1.
     999900   -1    0    0    0    0 -0.00000000000E+00 -0.00000000000E+00 -0.74505805969E-08  0.93827000000E+00  0.93827000000E+00 0.  1.
     999902    2    1    2    0    0 -0.71346284250E-04 -0.21069962760E-01  0.83173943302E-02  0.10212776829E+01  0.10210264336E+01 0.  0.
     999903    2    3    3    0    0  0.10300073474E+00 -0.14707516762E-01 -0.77301438915E-01  0.13111201338E+00  0.19732845430E-01 0.  0.
         14    1    1    2    0    0  0.71346284250E-04  0.21069962760E-01 -0.83173943302E-02  0.22652317087E-01  0.00000000000E+00 0.  1.
     999901    1    3    3    0    0 -0.10307208102E+00 -0.63624459972E-02  0.85618833246E-01  0.89016566953E+00  0.88000000000E+00 0. -1.
        -11    1    4    4    0    0 -0.32647798478E-03 -0.16276741906E-02 -0.10440232421E-02  0.20265775770E-02  0.51100000000E-03 0.  1.
         11    1    4    4    0    0  0.10332721272E+00 -0.13079842572E-01 -0.76257415673E-01  0.12908543580E+00  0.51100000000E-03 0. -1.
</event>
<event>
 8    1  0.1114447E+005  0.1043930E+01  0.7957747E-01            NaN
         13   -1    0    0    0    0  0.00000000000E+00  0.00000000000E+00  0.74505805969E-08  0.10566000000E+00  0.10566000000E+00 0. -1.
     999900   -1    0    0    0    0 -0.00000000000E+00 -0.00000000000E+00 -0.74505805969E-08  0.93827000000E+00  0.93827000000E+00 0. -1.
     999902    2    1    2    0    0 -0.50890713389E-02 -0.18192378753E-01 -0.14558232351E-01  0.10200804000E+01  0.10198015586E+01 0.  0.
     999903    2    3    3    0    0  0.49520453633E-01 -0.10360725484E+00 -0.63802649219E-01  0.13289219342E+00  0.20070337335E-01 0.  0.
         14    1    1    2    0    0  0.50890713389E-02  0.18192378753E-01  0.14558232351E-01  0.23849600017E-01  0.00000000000E+00 0. -1.
     999901    1    3    3    0    0 -0.54609524972E-01  0.85414876087E-01  0.49244416868E-01  0.88718820656E+00  0.88000000000E+00 0.  1.
        -11    1    4    4    0    0  0.18588966684E-01 -0.61312900419E-01 -0.32318117701E-01  0.71760318372E-01  0.51100000000E-03 0.  1.
         11    1    4    4    0    0  0.30931486949E-01 -0.42294354421E-01 -0.31484531519E-01  0.61131875047E-01  0.51100000000E-03 0. -1.
</event>
<event>
 7    1  0.1114447E+005  0.1043930E+01  0.7957747E-01            NaN
         13   -1    0    0    0    0  0.00000000000E+00  0.00000000000E+00  0.74505805969E-08  0.10566000000E+00  0.10566000000E+00 0. -1.
     999900   -1    0    0    0    0 -0.00000000000E+00 -0.00000000000E+00 -0.74505805969E-08  0.93827000000E+00  0.93827000000E+00 0. -1.
     999903    2    1    2    0    0  0.16598187288E-01  0.16143241687E-03  0.10946031791E+00  0.11234167676E+00  0.19067387300E-01 0.  0.
         14    1    1    2    0    0  0.15915628548E-01  0.30842054767E-01 -0.31722532578E-01  0.47019768688E-01  0.00000000000E+00 0.  1.
     999901    1    1    2    0    0 -0.32513815837E-01 -0.31003487183E-01 -0.77737785331E-01  0.88456855455E+00  0.88000000000E+00 0. -1.
        -11    1    3    3    0    0  0.11553878504E-01  0.27770820329E-02  0.24960090297E-01  0.27649078135E-01  0.51100000000E-03 0. -1.
         11    1    3    3    0    0  0.50443087845E-02 -0.26156496160E-02  0.84500227612E-01  0.84692598623E-01  0.51100000000E-03 0.  1.
</event>
<event>
 8    1  0.1114447E+005  0.1043930E+01  0.7957747E-01            NaN
         13   -1    0    0    0    0  0.00000000000E+00  0.00000000000E+00  0.74505805969E-08  0.10566000000E+00  0.10566000000E+00 0.  1.
     999900   -1    0    0    0    0 -0.00000000000E+00 -0.00000000000E+00 -0.74505805969E-08  0.93827000000E+00  0.93827000000E+00 0. -1.
     999902    2    1    2    0    0 -0.20846492091E-01 -0.77211059685E-02 -0.73669294168E-02  0.10205107054E+01  0.10202419500E+01 0.  0.
     999903    2    3    3    0    0 -0.99209604936E-01 -0.70054797136E-02  0.84929880837E-01  0.13222021759E+00  0.19428814240E-01 0.  0.
         14    1    1    2    0    0  0.20846492091E-01  0.77211059685E-02  0.73669294168E-02  0.23419294586E-01  0.00000000000E+00 0.  1.
     999901    1    3    3    0    0  0.78363112845E-01 -0.71562625489E-03 -0.92296810254E-01  0.88829048782E+00  0.88000000000E+00 0. -1.
        -11    1    4    4    0    0 -0.85208735761E-01 -0.54975255950E-02  0.62838574305E-01  0.10601744658E+00  0.51100000000E-03 0. -1.
         11    1    4    4    0    0 -0.14000869176E-01 -0.15079541186E-02  0.22091306532E-01  0.26202771010E-01  0.51100000000E-03 0.  1.
</event>
<event>
 8    1  0.1114447E+005  0.1043930E+01  0.7957747E-01            NaN
         13   -1    0    0    0    0  0.00000000000E+00  0.00000000000E+00  0.74505805969E-08  0.10566000000E+00  0.10566000000E+00 0.  1.
     999900   -1    0    0    0    0 -0.00000000000E+00 -0.00000000000E+00 -0.74505805969E-08  0.93827000000E+00  0.93827000000E+00 0.  1.
     999902    2    1    2    0    0  0.17364592363E-01  0.16555460023E-01  0.83351185013E-02  0.10185314464E+01  0.10182147223E+01 0.  0.
     999903    2    3    3    0    0  0.10428942047E+00 -0.36882637360E-01 -0.64465542016E-01  0.12964928764E+00  0.20408809775E-01 0.  0.
         14    1    1    2    0    0 -0.17364592363E-01 -0.16555460023E-01 -0.83351185013E-02  0.25398553600E-01  0.00000000000E+00 0. -1.
     999901    1    3    3    0    0 -0.86924828110E-01  0.53438097383E-01  0.72800660517E-01  0.88888215876E+00  0.88000000000E+00 0. -1.
        -11    1    4    4    0    0  0.79318842512E-01 -0.36667551000E-01 -0.52625640308E-01  0.10200836835E+00  0.51100000000E-03 0.  1.
         11    1    4    4    0    0  0.24970577961E-01 -0.21508635976E-03 -0.11839901708E-01  0.27640919292E-01  0.51100000000E-03 0. -1.
</event>
<event>
 8    1  0.1114447E+005  0.1043930E+01  0.7957747E-01            NaN
         13   -1    0    0    0    0  0.00000000000E+00  0.00000000000E+00  0.74505805969E-08  0.10566000000E+00  0.10566000000E+00 0. -1.
     999900   -1    0    0    0    0 -0.00000000000E+00 -0.00000000000E+00 -0.74505805969E-08  0.93827000000E+00  0.93827000000E+00 0.  1.
     999902    2    1    2    0    0 -0.65090679973E-02  0.10842375306E-01  0.19759377459E-01  0.10204702884E+01  0.10202005938E+01 0.  0.
     999903    2    3    3    0    0 -0.60526321362E-01 -0.18166864134E-01 -0.11040785883E+00  0.12878485679E+00  0.20054264316E-01 0.  0.
         14    1    1    2    0    0  0.65090679973E-02 -0.10842375306E-01 -0.19759377459E-01  0.23459711551E-01  0.00000000000E+00 0.  1.
     999901    1    3    3    0    0  0.54017253365E-01  0.29009239440E-01  0.13016723629E+00  0.89168543166E+00  0.88000000000E+00 0. -1.
        -11    1    4    4    0    0 -0.90285203073E-02 -0.22651411766E-02 -0.54558695828E-02  0.10801512736E-01  0.51100000000E-03 0. -1.
         11    1    4    4    0    0 -0.51497801055E-01 -0.15901722958E-01 -0.10495198924E+00  0.11798334405E+00  0.51100000000E-03 0.  1.
</event>
<event>
 8    1  0.1114447E+005  0.1043930E+01  0.7957747E-01            NaN
         13   -1    0    0    0    0  0.00000000000E+00  0.00000000000E+00  0.74505805969E-08  0.10566000000E+00  0.10566000000E+00 0.  1.
     999900   -1    0    0    0    0 -0.00000000000E+00 -0.00000000000E+00 -0.74505805969E-08  0.93827000000E+00  0.93827000000E+00 0.  1.
     999902    2    1    2    0    0 -0.21949412106E-01  0.78050000345E-02 -0.29626746196E-02  0.10204465557E+01  0.10201763087E+01 0.  0.
     999903    2    3    3    0    0 -0.52616733781E-01  0.11754161651E+00 -0.25393094915E-01  0.13281727867E+00  0.20274810886E-01 0.  0.
         14    1    1    2    0    0  0.21949412106E-01 -0.78050000345E-02  0.29626746196E-02  0.23483444344E-01  0.00000000000E+00 0. -1.
     999901    1    3    3    0    0  0.30667321674E-01 -0.10973661648E+00  0.22430420295E-01  0.88762927699E+00  0.88000000000E+00 0.  1.
        -11    1    4    4    0    0 -0.21551522670E-01  0.31264639500E-01 -0.13709627800E-01  0.40375250190E-01  0.51100000000E-03 0.  1.
         11    1    4    4    0    0 -0.31065211111E-01  0.86276977014E-01 -0.11683467114E-01  0.92442028476E-01  0.51100000000E-03 0. -1.
</event>
<event>
 8    1  0.1114447E+005  0.1043930E+01  0.7957747E-01            NaN
         13   -1    0    0    0    0  0.00000000000E+00  0.00000000000E+00  0.74505805969E-08  0.10566000000E+00  0.10566000000E+00 0.  1.
     999900   -1    0    0    0    0 -0.00000000000E+00 -0.00000000000E+00 -0.74505805969E-08  0.93827000000E+00  0.93827000000E+00 0. -1.
     999902    2    1    2    0    0 -0.20570316821E-01 -0.66751411381E-02 -0.90095845911E-02  0.10205020667E+01  0.10202331107E+01 0.  0.
     999903    2    3    3    0    0  0.12316273456E+00 -0.22513662638E-01  0.19449236458E-01  0.12824652411E+00  0.19823570755E-01 0.  0.
         14    1    1    2    0    0  0.20570316821E-01  0.66751411381E-02  0.90095845911E-02  0.23427933281E-01  0.00000000000E+00 0. -1.
     999901    1    3    3    0    0 -0.14373305138E+00  0.15838521500E-01 -0.28458821049E-01  0.89225554261E+00  0.88000000000E+00 0. -1.
        -11    1    4    4    0    0  0.90611519041E-01 -0.24439715172E-01  0.10550966840E-01  0.94442210282E-01  0.51100000000E-03 0. -1.
         11    1    4    4    0    0  0.32551215519E-01  0.19260525339E-02  0.88982696181E-02  0.33804313827E-01  0.51100000000E-03 0.  1.
</event>
<event>
 7    1  0.1349111E+005  0.1043930E+01  0.7957747E-01            NaN
         13   -1    0    0    0    0  0.00000000000E+00  0.00000000000E+00  0.74505805969E-08  0.10566000000E+00  0.10566000000E+00 0.  1.
     999900   -1    0    0    0    0 -0.00000000000E+00 -0.00000000000E+00 -0.74505805969E-08  0.93827000000E+00  0.93827000000E+00 0. -1.
     999903    2    1    2    0    0  0.26580076824E-01  0.10002030700E+00  0.62497088364E-02  0.10568421637E+00  0.20482490838E-01 0.  0.
         14    1    1    2    0    0  0.46770551503E-01  0.98494803859E-03 -0.15823818043E-01  0.49384692243E-01  0.00000000000E+00 0. -1.
     999901    1    1    2    0    0 -0.73350628327E-01 -0.10100525504E+00  0.95741092062E-02  0.88886109139E+00  0.88000000000E+00 0. -1.
        -11    1    3    3    0    0 -0.11306086859E-02  0.32131521640E-01  0.10699637565E-02  0.32173263781E-01  0.51100000000E-03 0. -1.
         11    1    3    3    0    0  0.27710685510E-01  0.67888785365E-01  0.51797450799E-02  0.73510952584E-01  0.51100000000E-03 0.  1.
</event>
<event>
 8    1  0.1114447E+005  0.1043930E+01  0.7957747E-01            NaN
         13   -1    0    0    0    0  0.00000000000E+00  0.00000000000E+00  0.74505805969E-08  0.10566000000E+00  0.10566000000E+00 0. -1.
     999900   -1    0    0    0    0 -0.00000000000E+00 -0.00000000000E+00 -0.74505805969E-08  0.93827000000E+00  0.93827000000E+00 0. -1.
     999902    2    1    2    0    0 -0.17973466435E-02 -0.24847112021E-01 -0.13996678753E-02  0.10189786774E+01  0.10186731450E+01 0.  0.
     999903    2    3    3    0    0 -0.87845556583E-01 -0.57065449220E-01  0.76033438895E-01  0.13081303870E+00  0.18911899925E-01 0.  0.
         14    1    1    2    0    0  0.17973466435E-02  0.24847112021E-01  0.13996678753E-02  0.24951322628E-01  0.00000000000E+00 0.  1.
     999901    1    3    3    0    0  0.86048209940E-01  0.32218337199E-01 -0.77433106770E-01  0.88816563867E+00  0.88000000000E+00 0. -1.
        -11    1    4    4    0    0 -0.66948789805E-01 -0.37956598110E-01  0.46617337112E-01  0.89979336721E-01  0.51100000000E-03 0.  1.
         11    1    4    4    0    0 -0.20896766779E-01 -0.19108851110E-01  0.29416101783E-01  0.40833701983E-01  0.51100000000E-03 0. -1.
</event>
<event>
 8    1  0.1114447E+005  0.1043930E+01  0.7957747E-01            NaN
         13   -1    0    0    0    0  0.00000000000E+00  0.00000000000E+00  0.74505805969E-08  0.10566000000E+00  0.10566000000E+00 0.  1.
     999900   -1    0    0    0    0 -0.00000000000E+00 -0.00000000000E+00 -0.74505805969E-08  0.93827000000E+00  0.93827000000E+00 0.  1.
     999902    2    1    2    0    0  0.14120378583E-01 -0.16077982886E-01 -0.10127118751E-01  0.10202562770E+01  0.10199815810E+01 0.  0.
     999903    2    3    3    0    0 -0.10061777299E+00 -0.39806772835E-02  0.77435549847E-01  0.12841637595E+00  0.18833990502E-01 0.  0.
         14    1    1    2    0    0 -0.14120378583E-01  0.16077982886E-01  0.10127118751E-01  0.23673722969E-01  0.00000000000E+00 0.  1.
     999901    1    3    3    0    0  0.11473815158E+00 -0.12097305603E-01 -0.87562668598E-01  0.89183990108E+00  0.88000000000E+00 0. -1.
        -11    1    4    4    0    0 -0.32827721582E-01 -0.10086318860E-01  0.24504876987E-01  0.42191743856E-01  0.51100000000E-03 0. -1.
         11    1    4    4    0    0 -0.67790051410E-01  0.61056415769E-02  0.52930672860E-01  0.86224632093E-01  0.51100000000E-03 0.  1.
</event>
<event>
 8    1  0.1114447E+005  0.1043930E+01  0.7957747E-01            NaN
         13   -1    0    0    0    0  0.00000000000E+00  0.00000000000E+00  0.74505805969E-08  0.10566000000E+00  0.10566000000E+00 0. -1.
     999900   -1    0    0    0    0 -0.00000000000E+00 -0.00000000000E+00 -0.74505805969E-08  0.93827000000E+00  0.93827000000E+00 0. -1.
     999902    2    1    2    0    0  0.45438995547E-02  0.16499443916E-01 -0.13100229174E-01  0.10223778614E+01  0.10221506723E+01 0.  0.
     999903    2    3    3    0    0 -0.13331412399E-01  0.66524229959E-01  0.11148963807E+00  0.13201577721E+00  0.19875268739E-01 0.  0.
         14    1    1    2    0    0 -0.45438995547E-02 -0.16499443916E-01  0.13100229174E-01  0.21552138574E-01  0.00000000000E+00 0. -1.
     999901    1    3    3    0    0  0.17875311954E-01 -0.50024786043E-01 -0.12458986724E+00  0.89036208422E+00  0.88000000000E+00 0. -1.
        -11    1    4    4    0    0 -0.89409372034E-02  0.18498338016E-01  0.20464742071E-01  0.29003373191E-01  0.51100000000E-03 0. -1.
         11    1    4    4    0    0 -0.43904751959E-02  0.48025891943E-01  0.91024895995E-01  0.10301240402E+00  0.51100000000E-03 0.  1.
</event>
<event>
 8    1  0.1114447E+005  0.1043930E+01  0.7957747E-01            NaN
         13   -1    0    0    0    0  0.00000000000E+00  0.00000000000E+00  0.74505805969E-08  0.10566000000E+00  0.10566000000E+00 0.  1.
     999900   -1    0    0    0    0 -0.00000000000E+00 -0.00000000000E+00 -0.74505805969E-08  0.93827000000E+00  0.93827000000E+00 0. -1.
     999902    2    1    2    0    0  0.14570809673E-01 -0.18209046602E-01 -0.43397889206E-02  0.10202084562E+01  0.10199326362E+01 0.  0.
     999903    2    3    3    0    0 -0.90457670282E-01 -0.26134028108E-01  0.87514430588E-01  0.12918040693E+00  0.12775931883E-01 0.  0.
         14    1    1    2    0    0 -0.14570809673E-01  0.18209046602E-01  0.43397889206E-02  0.23721543806E-01  0.00000000000E+00 0. -1.
     999901    1    3    3    0    0  0.10502847995E+00  0.79249815059E-02 -0.91854219508E-01  0.89102804926E+00  0.88000000000E+00 0.  1.
        -11    1    4    4    0    0 -0.34113268451E-01 -0.11416866510E-01  0.41756265264E-01  0.55117209065E-01  0.51100000000E-03 0. -1.
         11    1    4    4    0    0 -0.56344401830E-01 -0.14717161598E-01  0.45758165324E-01  0.74063197864E-01  0.51100000000E-03 0.  1.
</event>
<event>
 8    1  0.1114447E+005  0.1043930E+01  0.7957747E-01            NaN
         13   -1    0    0    0    0  0.00000000000E+00  0.00000000000E+00  0.74505805969E-08  0.10566000000E+00  0.10566000000E+00 0. -1.
     999900   -1    0    0    0    0 -0.00000000000E+00 -0.00000000000E+00 -0.74505805969E-08  0.93827000000E+00  0.93827000000E+00 0. -1.
     999902    2    1    2    0    0 -0.22530649008E-01 -0.41331712430E-02 -0.57807231591E-02  0.10203052247E+01  0.10200316767E+01 0.  0.
     999903    2    3    3    0    0 -0.94503007000E-01  0.87777781269E-01  0.21001861860E-01  0.13219208415E+00  0.19947724002E-01 0.  0.
         14    1    1    2    0    0  0.22530649008E-01  0.41331712430E-02  0.57807231591E-02  0.23624775332E-01  0.00000000000E+00 0. -1.
     999901    1    3    3    0    0  0.71972357991E-01 -0.91910952512E-01 -0.26782585019E-01  0.88811314052E+00  0.88000000000E+00 0.  1.
        -11    1    4    4    0    0 -0.39753083366E-01  0.35412125371E-01 -0.11637291827E-02  0.53253559947E-01  0.51100000000E-03 0. -1.
         11    1    4    4    0    0 -0.54749923634E-01  0.52365655897E-01  0.22165591042E-01  0.78938524199E-01  0.51100000000E-03 0.  1.
</event>
<event>
 8    1  0.1114447E+005  0.1043930E+01  0.7957747E-01            NaN
         13   -1    0    0    0    0  0.00000000000E+00  0.00000000000E+00  0.74505805969E-08  0.10566000000E+00  0.10566000000E+00 0.  1.
     999900   -1    0    0    0    0 -0.00000000000E+00 -0.00000000000E+00 -0.74505805969E-08  0.93827000000E+00  0.93827000000E+00 0.  1.
     999902    2    1    2    0    0 -0.41351501045E-02  0.21904881396E-01 -0.76557732420E-02  0.10203602278E+01  0.10200879670E+01 0.  0.
     999903    2    3    3    0    0 -0.10568602799E+00  0.58978967015E-01 -0.50490726291E-01  0.13271057746E+00  0.20364892983E-01 0.  0.
         14    1    1    2    0    0  0.41351501045E-02 -0.21904881396E-01  0.76557732420E-02  0.23569772152E-01  0.00000000000E+00 0.  1.
     999901    1    3    3    0    0  0.10155087789E+00 -0.37074085619E-01  0.42834953049E-01  0.88764965038E+00  0.88000000000E+00 0. -1.
        -11    1    4    4    0    0 -0.84176875289E-01  0.55314232097E-01 -0.44200731650E-01  0.10999716544E+00  0.51100000000E-03 0. -1.
         11    1    4    4    0    0 -0.21509152704E-01  0.36647349178E-02 -0.62899946407E-02  0.22713412022E-01  0.51100000000E-03 0.  1.
</event>
<event>
 8    1  0.1114447E+005  0.1043930E+01  0.7957747E-01            NaN
         13   -1    0    0    0    0  0.00000000000E+00  0.00000000000E+00  0.74505805969E-08  0.10566000000E+00  0.10566000000E+00 0. -1.
     999900   -1    0    0    0    0 -0.00000000000E+00 -0.00000000000E+00 -0.74505805969E-08  0.93827000000E+00  0.93827000000E+00 0. -1.
     999902    2    1    2    0    0 -0.10627137658E-01  0.19983460380E-01  0.78892001713E-02  0.10199609737E+01  0.10196792994E+01 0.  0.
     999903    2    3    3    0    0  0.20834825180E-01  0.12466496916E+00  0.35195605147E-01  0.13277795246E+00  0.20391409024E-01 0.  0.
         14    1    1    2    0    0  0.10627137658E-01 -0.19983460380E-01 -0.78892001713E-02  0.23969026324E-01  0.00000000000E+00 0.  1.
     999901    1    3    3    0    0 -0.31461962838E-01 -0.10468150878E+00 -0.27306404976E-01  0.88718302122E+00  0.88000000000E+00 0. -1.
        -11    1    4    4    0    0  0.22191917101E-01  0.86510320869E-01  0.30146290440E-01  0.94263337251E-01  0.51100000000E-03 0. -1.
         11    1    4    4    0    0 -0.13570919211E-02  0.38154648289E-01  0.50493147066E-02  0.38514615207E-01  0.51100000000E-03 0.  1.
</event>
<event>
 7    1  0.1114447E+005  0.1043930E+01  0.7957747E-01            NaN
         13   -1    0    0    0    0  0.00000000000E+00  0.00000000000E+00  0.74505805969E-08  0.10566000000E+00  0.10566000000E+00 0.  1.
     999900   -1    0    0    0    0 -0.00000000000E+00 -0.00000000000E+00 -0.74505805969E-08  0.93827000000E+00  0.93827000000E+00 0.  1.
     999903    2    1    2    0    0 -0.92568512806E-01 -0.60115804582E-01  0.12967455967E-01  0.11296392943E+00  0.20244873780E-01 0.  0.
         14    1    1    2    0    0  0.19167122873E-01  0.43204378633E-01 -0.66115648007E-02  0.47725357216E-01  0.00000000000E+00 0. -1.
     999901    1    1    2    0    0  0.73401389933E-01  0.16911425949E-01 -0.63558911668E-02  0.88324071335E+00  0.88000000000E+00 0. -1.
        -11    1    3    3    0    0 -0.79570751366E-01 -0.58358376879E-01  0.82772065440E-02  0.99025137688E-01  0.51100000000E-03 0. -1.
         11    1    3    3    0    0 -0.12997761440E-01 -0.17574277029E-02  0.46902494235E-02  0.13938791743E-01  0.51100000000E-03 0.  1.
</event>
<event>
 8    1  0.1114447E+005  0.1043930E+01  0.7957747E-01            NaN
         13   -1    0    0    0    0  0.00000000000E+00  0.00000000000E+00  0.74505805969E-08  0.10566000000E+00  0.10566000000E+00 0. -1.
     999900   -1    0    0    0    0 -0.00000000000E+00 -0.00000000000E+00 -0.74505805969E-08  0.93827000000E+00  0.93827000000E+00 0.  1.
     999902    2    1    2    0    0 -0.14007481922E-01  0.61066825736E-02  0.18132772990E-01  0.10202171643E+01  0.10199415492E+01 0.  0.
     999903    2    3    3    0    0  0.33274966735E-01 -0.83582564700E-01  0.93243083035E-01  0.13121696759E+00  0.20744915447E-01 0.  0.
         14    1    1    2    0    0  0.14007481922E-01 -0.61066825736E-02 -0.18132772990E-01  0.23712835725E-01  0.00000000000E+00 0.  1.
     999901    1    3    3    0    0 -0.47282448657E-01  0.89689247274E-01 -0.75110310045E-01  0.88900019668E+00  0.88000000000E+00 0.  1.
        -11    1    4    4    0    0  0.43148717646E-02 -0.17080965034E-01  0.81926837554E-02  0.19436014842E-01  0.51100000000E-03 0. -1.
         11    1    4    4    0    0  0.28960094970E-01 -0.66501599667E-01  0.85050399280E-01  0.11178095275E+00  0.51100000000E-03 0.  1.
</event>
<event>
 8    1  0.1137120E+005  0.1043930E+01  0.7957747E-01            NaN
         13   -1    0    0    0    0  0.00000000000E+00  0.00000000000E+00  0.74505805969E-08  0.10566000000E+00  0.10566000000E+00 0. -1.
     999900   -1    0    0    0    0 -0.00000000000E+00 -0.00000000000E+00 -0.74505805969E-08  0.93827000000E+00  0.93827000000E+00 0.  1.
     999902    2    1    2    0    0 -0.22379115359E-01  0.14744056546E-02 -0.68446702440E-02  0.10204811581E+01  0.10202117162E+01 0.  0.
     999903    2    3    3    0    0  0.12016684975E+00 -0.37830105913E-01 -0.11572333078E-01  0.12813226466E+00  0.20316733565E-01 0.  0.
         14    1    1    2    0    0  0.22379115359E-01 -0.14744056546E-02  0.68446702440E-02  0.23448841913E-01  0.00000000000E+00 0.  1.
     999901    1    3    3    0    0 -0.14254596511E+00  0.39304511567E-01  0.47276628342E-02  0.89234889342E+00  0.88000000000E+00 0. -1.
        -11    1    4    4    0    0  0.71258992920E-01 -0.12229120458E-01 -0.40408879918E-02  0.72415366849E-01  0.51100000000E-03 0. -1.
         11    1    4    4    0    0  0.48907856830E-01 -0.25600985455E-01 -0.75314450863E-02  0.55716897815E-01  0.51100000000E-03 0.  1.
</event>
<event>
 8    1  0.1114447E+005  0.1043930E+01  0.7957747E-01            NaN
         13   -1    0    0    0    0  0.00000000000E+00  0.00000000000E+00  0.74505805969E-08  0.10566000000E+00  0.10566000000E+00 0. -1.
     999900   -1    0    0    0    0 -0.00000000000E+00 -0.00000000000E+00 -0.74505805969E-08  0.93827000000E+00  0.93827000000E+00 0.  1.
     999902    2    1    2    0    0  0.23646969793E-01  0.41725233656E-03  0.16686360438E-02  0.10202205583E+01  0.10199450230E+01 0.  0.
     999903    2    3    3    0    0  0.10075371994E+00  0.84503003546E-01  0.38123146860E-02  0.13285340776E+00  0.18531716612E-01 0.  0.
         14    1    1    2    0    0 -0.23646969793E-01 -0.41725233656E-03 -0.16686360438E-02  0.23709441709E-01  0.00000000000E+00 0. -1.
     999901    1    3    3    0    0 -0.77106750150E-01 -0.84085751209E-01 -0.21436786422E-02  0.88736715053E+00  0.88000000000E+00 0.  1.
        -11    1    4    4    0    0  0.83502954983E-01  0.60122006880E-01  0.41573550112E-02  0.10298030843E+00  0.51100000000E-03 0.  1.
         11    1    4    4    0    0  0.17250764961E-01  0.24380996666E-01 -0.34504032514E-03  0.29873099337E-01  0.51100000000E-03 0. -1.
</event>
<event>
 8    1  0.1114447E+005  0.1043930E+01  0.7957747E-01            NaN
         13   -1    0    0    0    0  0.00000000000E+00  0.00000000000E+00  0.74505805969E-08  0.10566000000E+00  0.10566000000E+00 0. -1.
     999900   -1    0    0    0    0 -0.00000000000E+00 -0.00000000000E+00 -0.74505805969E-08  0.93827000000E+00  0.93827000000E+00 0. -1.
     999902    2    1    2    0    0  0.16333766182E-01  0.11953303233E-01 -0.12747924609E-01  0.10200096539E+01  0.10197291361E+01 0.  0.
     999903    2    3    3    0    0  0.84180648345E-01 -0.51510455398E-02  0.97485968709E-01  0.13037643206E+00  0.19534203711E-01 0.  0.
         14    1    1    2    0    0 -0.16333766182E-01 -0.11953303233E-01  0.12747924609E-01  0.23920346103E-01  0.00000000000E+00 0. -1.
     999901    1    3    3    0    0 -0.67846882163E-01  0.17104348773E-01 -0.11023389332E+00  0.88963322184E+00  0.88000000000E+00 0. -1.
        -11    1    4    4    0    0  0.69070343723E-01  0.34190591746E-02  0.76399045735E-01  0.10305084986E+00  0.51100000000E-03 0.  1.
         11    1    4    4    0    0  0.15110304622E-01 -0.85701047144E-02  0.21086922974E-01  0.27325582192E-01  0.51100000000E-03 0. -1.
</event>
<event>
 8    1  0.1114447E+005  0.1043930E+01  0.7957747E-01            NaN
         13   -1    0    0    0    0  0.00000000000E+00  0.00000000000E+00  0.74505805969E-08  0.10566000000E+00  0.10566000000E+00 0. -1.
     999900   -1    0    0    0    0 -0.00000000000E+00 -0.00000000000E+00 -0.74505805969E-08  0.93827000000E+00  0.93827000000E+00 0. -1.
     999902    2    1    2    0    0  0.11162205800E-01 -0.17990831906E-01  0.10302031956E-01  0.10203843691E+01  0.10201126722E+01 0.  0.
     999903    2    3    3    0    0  0.15147297657E-01 -0.56264648275E-01 -0.11602254132E+00  0.13053119933E+00  0.13491205773E-01 0.  0.
         14    1    1    2    0    0 -0.11162205800E-01  0.17990831906E-01 -0.10302031956E-01  0.23545630877E-01  0.00000000000E+00 0.  1.
     999901    1    3    3    0    0 -0.39850918570E-02  0.38273816369E-01  0.12632457327E+00  0.88985316979E+00  0.88000000000E+00 0.  1.
        -11    1    4    4    0    0  0.10474620100E-01 -0.15592595897E-01 -0.39597049232E-01  0.43829603489E-01  0.51100000000E-03 0. -1.
         11    1    4    4    0    0  0.46726775567E-02 -0.40672052378E-01 -0.76425492084E-01  0.86701595842E-01  0.51100000000E-03 0.  1.
</event>
<event>
 8    1  0.1114447E+005  0.1043930E+01  0.7957747E-01            NaN
         13   -1    0    0    0    0  0.00000000000E+00  0.00000000000E+00  0.74505805969E-08  0.10566000000E+00  0.10566000000E+00 0.  1.
     999900   -1    0    0    0    0 -0.00000000000E+00 -0.00000000000E+00 -0.74505805969E-08  0.93827000000E+00  0.93827000000E+00 0. -1.
     999902    2    1    2    0    0 -0.16731880717E-01  0.50349136005E-02  0.15312920265E-01  0.10206965819E+01  0.10204321245E+01 0.  0.
     999903    2    3    3    0    0 -0.82403633562E-01  0.63816332754E-01 -0.77606316940E-01  0.13142608373E+00  0.19677192512E-01 0.  0.
         14    1    1    2    0    0  0.16731880717E-01 -0.50349136005E-02 -0.15312920265E-01  0.23233418051E-01  0.00000000000E+00 0. -1.
     999901    1    3    3    0    0  0.65671752845E-01 -0.58781419154E-01  0.92919237205E-01  0.88927049822E+00  0.88000000000E+00 0.  1.
        -11    1    4    4    0    0 -0.68730402883E-01  0.42962160696E-01 -0.57301440758E-01  0.99263949983E-01  0.51100000000E-03 0. -1.
         11    1    4    4    0    0 -0.13673230679E-01  0.20854172058E-01 -0.20304876182E-01  0.32162133747E-01  0.51100000000E-03 0.  1.
</event>
<event>
 8    1  0.1114447E+005  0.1043930E+01  0.7957747E-01            NaN
         13   -1    0    0    0    0  0.00000000000E+00  0.00000000000E+00  0.74505805969E-08  0.10566000000E+00  0.10566000000E+00 0.  1.
     999900   -1    0    0    0    0 -0.00000000000E+00 -0.00000000000E+00 -0.74505805969E-08  0.93827000000E+00  0.93827000000E+00 0. -1.
     999902    2    1    2    0    0 -0.13625899467E-02  0.18955686506E-01  0.13352023575E-01  0.10207039104E+01  0.10204396217E+01 0.  0.
     999903    2    3    3    0    0 -0.61878191632E-01  0.63986212805E-01  0.97528459225E-01  0.13347476380E+00  0.19508105587E-01 0.  0.
         14    1    1    2    0    0  0.13625899467E-02 -0.18955686506E-01 -0.13352023575E-01  0.23226089551E-01  0.00000000000E+00 0. -1.
     999901    1    3    3    0    0  0.60515601685E-01 -0.45030526300E-01 -0.84176435650E-01  0.88722914665E+00  0.88000000000E+00 0.  1.
        -11    1    4    4    0    0 -0.28826773927E-01  0.43045163561E-01  0.59752679475E-01  0.79085477975E-01  0.51100000000E-03 0.  1.
         11    1    4    4    0    0 -0.33051417705E-01  0.20941049244E-01  0.37775779750E-01  0.54389285825E-01  0.51100000000E-03 0. -1.
</event>
<event>
 8    1  0.1114447E+005  0.1043930E+01  0.7957747E-01            NaN
         13   -1    0    0    0    0  0.00000000000E+00  0.00000000000E+00  0.74505805969E-08  0.10566000000E+00  0.10566000000E+00 0.  1.
     999900   -1    0    0    0    0 -0.00000000000E+00 -0.00000000000E+00 -0.74505805969E-08  0.93827000000E+00  0.93827000000E+00 0. -1.
     999902    2    1    2    0    0  0.91679173202E-03 -0.20798674602E-01 -0.43319752549E-02  0.10226652079E+01  0.10224440993E+01 0.  0.
     999903    2    3    3    0    0 -0.55800254148E-01  0.41486880481E-01 -0.11098259178E+00  0.13223235382E+00  0.18260068562E-01 0.  0.
         14    1    1    2    0    0 -0.91679173202E-03  0.20798674602E-01  0.43319752549E-02  0.21264792073E-01  0.00000000000E+00 0.  1.
     999901    1    3    3    0    0  0.56717045880E-01 -0.62285555084E-01  0.10665061653E+00  0.89043285411E+00  0.88000000000E+00 0.  1.
        -11    1    4    4    0    0 -0.40590423125E-01  0.24125609737E-01 -0.86703185817E-01  0.98728572594E-01  0.51100000000E-03 0. -1.
         11    1    4    4    0    0 -0.15209831023E-01  0.17361270745E-01 -0.24279405963E-01  0.33503781227E-01  0.51100000000E-03 0.  1.
</event>
<event>
 8    1  0.1114447E+005  0.1043930E+01  0.7957747E-01            NaN
         13   -1    0    0    0    0  0.00000000000E+00  0.00000000000E+00  0.74505805969E-08  0.10566000000E+00  0.10566000000E+00 0. -1.
     999900   -1    0    0    0    0 -0.00000000000E+00 -0.00000000000E+00 -0.74505805969E-08  0.93827000000E+00  0.93827000000E+00 0. -1.
     999902    2    1    2    0    0 -0.15100948377E-01  0.14549218180E-01  0.91161787968E-02  0.10210646746E+01  0.10208086239E+01 0.  0.
     999903    2    3    3    0    0 -0.67025834120E-01  0.23561388676E-01 -0.10892904056E+00  0.13161985514E+00  0.20264474185E-01 0.  0.
         14    1    1    2    0    0  0.15100948377E-01 -0.14549218180E-01 -0.91161787968E-02  0.22865325438E-01  0.00000000000E+00 0.  1.
     999901    1    3    3    0    0  0.51924885743E-01 -0.90121704955E-02  0.11804521936E+00  0.88944481942E+00  0.88000000000E+00 0.  1.
        -11    1    4    4    0    0 -0.52385947547E-01  0.25877927309E-01 -0.79481583095E-01  0.98648556982E-01  0.51100000000E-03 0.  1.
         11    1    4    4    0    0 -0.14639886573E-01 -0.23165386333E-02 -0.29447457469E-01  0.32971298162E-01  0.51100000000E-03 0. -1.
</event>
<event>
 8    1  0.1114447E+005  0.1043930E+01  0.7957747E-01            NaN
         13   -1    0    0    0    0  0.00000000000E+00  0.00000000000E+00  0.74505805969E-08  0.10566000000E+00  0.10566000000E+00 0.  1.
     999900   -1    0    0    0    0 -0.00000000000E+00 -0.00000000000E+00 -0.74505805969E-08  0.93827000000E+00  0.93827000000E+00 0. -1.
     999902    2    1    2    0    0  0.78616720139E-03  0.23210844104E-01  0.72397597176E-02  0.10196035645E+01  0.10193133244E+01 0.  0.
     999903    2    3    3    0    0  0.11594835850E+00  0.52952032166E-01 -0.22490658513E-01  0.13110439943E+00  0.20846924963E-01 0.  0.
         14    1    1    2    0    0 -0.78616720139E-03 -0.23210844104E-01 -0.72397597176E-02  0.24326435490E-01  0.00000000000E+00 0. -1.
     999901    1    3    3    0    0 -0.11516219130E+00 -0.29741188063E-01  0.29730418230E-01  0.88849916508E+00  0.88000000000E+00 0.  1.
        -11    1    4    4    0    0  0.45639784319E-01  0.29747840041E-01 -0.15990059815E-01  0.56779107369E-01  0.51100000000E-03 0. -1.
         11    1    4    4    0    0  0.70308574185E-01  0.23204192125E-01 -0.65005986980E-02  0.74325292065E-01  0.51100000000E-03 0.  1.
</event>
<event>
 8    1  0.1114447E+005  0.1043930E+01  0.7957747E-01            NaN
         13   -1    0    0    0    0  0.00000000000E+00  0.00000000000E+00  0.74505805969E-08  0.10566000000E+00  0.10566000000E+00 0. -1.
     999900   -1    0    0    0    0 -0.00000000000E+00 -0.00000000000E+00 -0.74505805969E-08  0.93827000000E+00  0.93827000000E+00 0.  1.
     999902    2    1    2    0    0  0.10762078274E-01 -0.14769749388E-01  0.16343968942E-01  0.10194127990E+01  0.10191179331E+01 0.  0.
     999903    2    3    3    0    0  0.32857048851E-01 -0.62958875998E-01  0.11030444906E+00  0.13282442127E+00  0.20780993151E-01 0.  0.
         14    1    1    2    0    0 -0.10762078274E-01  0.14769749388E-01 -0.16343968942E-01  0.24517201034E-01  0.00000000000E+00 0. -1.
     999901    1    3    3    0    0 -0.22094970577E-01  0.48189126610E-01 -0.93960480117E-01  0.88658837770E+00  0.88000000000E+00 0. -1.
        -11    1    4    4    0    0  0.21419013262E-01 -0.33743670480E-01  0.78807799852E-01  0.88364811238E-01  0.51100000000E-03 0. -1.
         11    1    4    4    0    0  0.11438035589E-01 -0.29215205518E-01  0.31496649207E-01  0.44459610028E-01  0.51100000000E-03 0.  1.
</event>
<event>
 8    1  0.1114447E+005  0.1043930E+01  0.7957747E-01            NaN
         13   -1    0    0    0    0  0.00000000000E+00  0.00000000000E+00  0.74505805969E-08  0.10566000000E+00  0.10566000000E+00 0. -1.
     999900   -1    0    0    0    0 -0.00000000000E+00 -0.00000000000E+00 -0.74505805969E-08  0.93827000000E+00  0.93827000000E+00 0.  1.
     999902    2    1    2    0    0  0.66557561322E-02 -0.74570051569E-02 -0.20880027656E-01  0.10207808840E+01  0.10205183642E+01 0.  0.
     999903    2    3    3    0    0  0.35146779604E-01  0.62049706588E-01 -0.11047148155E+00  0.13304806949E+00  0.20307101039E-01 0.  0.
         14    1    1    2    0    0 -0.66557561322E-02  0.74570051569E-02  0.20880027656E-01  0.23149115977E-01  0.00000000000E+00 0. -1.
     999901    1    3    3    0    0 -0.28491023472E-01 -0.69506711744E-01  0.89591453899E-01  0.88773281454E+00  0.88000000000E+00 0. -1.
        -11    1    4    4    0    0  0.79630918098E-03  0.18960000025E-01 -0.30590227215E-01  0.36001928161E-01  0.51100000000E-03 0.  1.
         11    1    4    4    0    0  0.34350470423E-01  0.43089706563E-01 -0.79881254340E-01  0.97046141324E-01  0.51100000000E-03 0. -1.
</event>
<event>
 8    1  0.1114447E+005  0.1043930E+01  0.7957747E-01            NaN
         13   -1    0    0    0    0  0.00000000000E+00  0.00000000000E+00  0.74505805969E-08  0.10566000000E+00  0.10566000000E+00 0.  1.
     999900   -1    0    0    0    0 -0.00000000000E+00 -0.00000000000E+00 -0.74505805969E-08  0.93827000000E+00  0.93827000000E+00 0.  1.
     999902    2    1    2    0    0  0.85624014408E-02 -0.19121047682E-01 -0.10487100784E-01  0.10205012043E+01  0.10202322283E+01 0.  0.
     999903    2    3    3    0    0  0.71366698286E-01 -0.59903056371E-01  0.90778347261E-01  0.13153425170E+00  0.19467132597E-01 0.  0.
         14    1    1    2    0    0 -0.85624014408E-02  0.19121047682E-01  0.10487100784E-01  0.23428795653E-01  0.00000000000E+00 0.  1.
     999901    1    3    3    0    0 -0.62804296845E-01  0.40782008689E-01 -0.10126544805E+00  0.88896695265E+00  0.88000000000E+00 0.  1.
        -11    1    4    4    0    0  0.52400314082E-01 -0.52123577454E-01  0.63742685100E-01  0.97601492136E-01  0.51100000000E-03 0. -1.
         11    1    4    4    0    0  0.18966384204E-01 -0.77794789170E-02  0.27035662161E-01  0.33932759562E-01  0.51100000000E-03 0.  1.
</event>
<event>
 8    1  0.1114447E+005  0.1043930E+01  0.7957747E-01            NaN
         13   -1    0    0    0    0  0.00000000000E+00  0.00000000000E+00  0.74505805969E-08  0.10566000000E+00  0.10566000000E+00 0. -1.
     999900   -1    0    0    0    0 -0.00000000000E+00 -0.00000000000E+00 -0.74505805969E-08  0.93827000000E+00  0.93827000000E+00 0.  1.
     999902    2    1    2    0    0  0.80045059312E-02 -0.21485049960E-02 -0.23207659735E-01  0.10192868740E+01  0.10189889341E+01 0.  0.
     999903    2    3    3    0    0 -0.20338685503E-02  0.11476729696E+00  0.53517182104E-01  0.12818824025E+00  0.19810782031E-01 0.  0.
         14    1    1    2    0    0 -0.80045059312E-02  0.21485049960E-02  0.23207659735E-01  0.24643126005E-01  0.00000000000E+00 0. -1.
     999901    1    3    3    0    0  0.10038374481E-01 -0.11691580196E+00 -0.76724841839E-01  0.89109863375E+00  0.88000000000E+00 0.  1.
        -11    1    4    4    0    0 -0.70052071434E-02  0.37180109947E-01  0.10204034079E-01  0.39189500319E-01  0.51100000000E-03 0. -1.
         11    1    4    4    0    0  0.49713385932E-02  0.77587187014E-01  0.43313148025E-01  0.88998739930E-01  0.51100000000E-03 0.  1.
</event>
<event>
 8    1  0.1114447E+005  0.1043930E+01  0.7957747E-01            NaN
         13   -1    0    0    0    0  0.00000000000E+00  0.00000000000E+00  0.74505805969E-08  0.10566000000E+00  0.10566000000E+00 0. -1.
     999900   -1    0    0    0    0 -0.00000000000E+00 -0.00000000000E+00 -0.74505805969E-08  0.93827000000E+00  0.93827000000E+00 0.  1.
     999902    2    1    2    0    0  0.65268077393E-02  0.23178448890E-01  0.63592187243E-02  0.10190245915E+01  0.10187201964E+01 0.  0.
     999903    2    3    3    0    0 -0.78537136507E-01 -0.53029108135E-01  0.83826050526E-01  0.12826953175E+00  0.21121029981E-01 0.  0.
         14    1    1    2    0    0 -0.65268077393E-02 -0.23178448890E-01 -0.63592187243E-02  0.24905408549E-01  0.00000000000E+00 0.  1.
     999901    1    3    3    0    0  0.85063944247E-01  0.76207557025E-01 -0.77466831802E-01  0.89075505970E+00  0.88000000000E+00 0.  1.
        -11    1    4    4    0    0 -0.33371613653E-01 -0.24534011719E-01  0.23206419355E-01  0.47480325916E-01  0.51100000000E-03 0. -1.
         11    1    4    4    0    0 -0.45165522854E-01 -0.28495096416E-01  0.60619631171E-01  0.80789205831E-01  0.51100000000E-03 0.  1.
</event>
<event>
 8    1  0.1114447E+005  0.1043930E+01  0.7957747E-01            NaN
         13   -1    0    0    0    0  0.00000000000E+00  0.00000000000E+00  0.74505805969E-08  0.10566000000E+00  0.10566000000E+00 0. -1.
     999900   -1    0    0    0    0 -0.00000000000E+00 -0.00000000000E+00 -0.74505805969E-08  0.93827000000E+00  0.93827000000E+00 0. -1.
     999902    2    1    2    0    0  0.82576731518E-02  0.22233169258E-01  0.28104137348E-02  0.10200469222E+01  0.10197672882E+01 0.  0.
     999903    2    3    3    0    0  0.24626943391E-01  0.24630858205E-01  0.12498754961E+00  0.13145198946E+00  0.21084886954E-01 0.  0.
         14    1    1    2    0    0 -0.82576731518E-02 -0.22233169258E-01 -0.28104137348E-02  0.23883077827E-01  0.00000000000E+00 0. -1.
     999901    1    3    3    0    0 -0.16369270239E-01 -0.23976889470E-02 -0.12217713587E+00  0.88859493272E+00  0.88000000000E+00 0. -1.
        -11    1    4    4    0    0  0.75815166955E-02  0.15837420527E-01  0.31987406491E-01  0.36493267590E-01  0.51100000000E-03 0. -1.
         11    1    4    4    0    0  0.17045426695E-01  0.87934376776E-02  0.93000143118E-01  0.94958721866E-01  0.51100000000E-03 0.  1.
</event>
<event>
 8    1  0.1114447E+005  0.1043930E+01  0.7957747E-01            NaN
         13   -1    0    0    0    0  0.00000000000E+00  0.00000000000E+00  0.74505805969E-08  0.10566000000E+00  0.10566000000E+00 0. -1.
     999900   -1    0    0    0    0 -0.00000000000E+00 -0.00000000000E+00 -0.74505805969E-08  0.93827000000E+00  0.93827000000E+00 0.  1.
     999902    2    1    2    0    0 -0.12746440893E-01 -0.78131928754E-02  0.17804698667E-01  0.10206808058E+01  0.10204159849E+01 0.  0.
     999903    2    3    3    0    0  0.11206451130E+00  0.47174021966E-01  0.41548719051E-01  0.12985807026E+00  0.18787743756E-01 0.  0.
         14    1    1    2    0    0  0.12746440893E-01  0.78131928754E-02 -0.17804698667E-01  0.23249194243E-01  0.00000000000E+00 0.  1.
     999901    1    3    3    0    0 -0.12481095219E+00 -0.54987214842E-01 -0.23744020384E-01  0.89082273550E+00  0.88000000000E+00 0. -1.
        -11    1    4    4    0    0  0.87140441844E-01  0.29875901226E-01  0.36545914209E-01  0.99105454165E-01  0.51100000000E-03 0.  1.
         11    1    4    4    0    0  0.24924069451E-01  0.17298120740E-01  0.50028048421E-02  0.30752616091E-01  0.51100000000E-03 0. -1.
</event>
<event>
 8    1  0.1114447E+005  0.1043930E+01  0.7957747E-01            NaN
         13   -1    0    0    0    0  0.00000000000E+00  0.00000000000E+00  0.74505805969E-08  0.10566000000E+00  0.10566000000E+00 0.  1.
     999900   -1    0    0    0    0 -0.00000000000E+00 -0.00000000000E+00 -0.74505805969E-08  0.93827000000E+00  0.93827000000E+00 0.  1.
     999902    2    1    2    0    0 -0.12808005645E-01 -0.11478513854E-01  0.16336940736E-01  0.10202087664E+01  0.10199329538E+01 0.  0.
     999903    2    3    3    0    0 -0.54152126873E-01 -0.72607820536E-01 -0.91798099091E-01  0.13052381359E+00  0.20130237682E-01 0.  0.
         14    1    1    2    0    0  0.12808005645E-01  0.11478513854E-01 -0.16336940736E-01  0.23721233558E-01  0.00000000000E+00 0. -1.
     999901    1    3    3    0    0  0.41344121227E-01  0.61129306682E-01  0.10813503983E+00  0.88968495285E+00  0.88000000000E+00 0. -1.
        -11    1    4    4    0    0 -0.28678844913E-01 -0.27939566410E-01 -0.29454295193E-01  0.49708270369E-01  0.51100000000E-03 0.  1.
         11    1    4    4    0    0 -0.25473281960E-01 -0.44668254126E-01 -0.62343803898E-01  0.80815543220E-01  0.51100000000E-03 0. -1.
</event>
<event>
 8    1  0.1114447E+005  0.1043930E+01  0.7957747E-01            NaN
         13   -1    0    0    0    0  0.00000000000E+00  0.00000000000E+00  0.74505805969E-08  0.10566000000E+00  0.10566000000E+00 0. -1.
     999900   -1    0    0    0    0 -0.00000000000E+00 -0.00000000000E+00 -0.74505805969E-08  0.93827000000E+00  0.93827000000E+00 0.  1.
     999902    2    1    2    0    0 -0.22121166620E-02  0.19590747552E-01  0.13022859385E-01  0.10203019295E+01  0.10200283043E+01 0.  0.
     999903    2    3    3    0    0  0.84745817837E-01  0.90468714769E-01 -0.39609899356E-01  0.13161999769E+00  0.19708822167E-01 0.  0.
         14    1    1    2    0    0  0.22121166620E-02 -0.19590747552E-01 -0.13022859385E-01  0.23628070517E-01  0.00000000000E+00 0.  1.
     999901    1    3    3    0    0 -0.86957934499E-01 -0.70877967217E-01  0.52632758741E-01  0.88868193180E+00  0.88000000000E+00 0. -1.
        -11    1    4    4    0    0  0.71618724048E-01  0.70347670069E-01 -0.24855425301E-01  0.10342190100E+00  0.51100000000E-03 0.  1.
         11    1    4    4    0    0  0.13127093789E-01  0.20121044700E-01 -0.14754474054E-01  0.28198096687E-01  0.51100000000E-03 0. -1.
</event>
<event>
 8    1  0.1114447E+005  0.1043930E+01  0.7957747E-01            NaN
         13   -1    0    0    0    0  0.00000000000E+00  0.00000000000E+00  0.74505805969E-08  0.10566000000E+00  0.10566000000E+00 0.  1.
     999900   -1    0    0    0    0 -0.00000000000E+00 -0.00000000000E+00 -0.74505805969E-08  0.93827000000E+00  0.93827000000E+00 0. -1.
     999902    2    1    2    0    0 -0.12651050395E-01  0.11753608858E-01  0.17441170524E-01  0.10193863485E+01  0.10190908383E+01 0.  0.
     999903    2    3    3    0    0  0.33601180587E-01  0.12426352657E+00 -0.76252942552E-02  0.13066475091E+00  0.21087167770E-01 0.  0.
         14    1    1    2    0    0  0.12651050395E-01 -0.11753608858E-01 -0.17441170524E-01  0.24543651450E-01  0.00000000000E+00 0. -1.
     999901    1    3    3    0    0 -0.46252230982E-01 -0.11250991772E+00  0.25066464779E-01  0.88872159764E+00  0.88000000000E+00 0.  1.
        -11    1    4    4    0    0  0.87511630515E-02  0.65072183277E-01 -0.10029810525E-01  0.66421608769E-01  0.51100000000E-03 0. -1.
         11    1    4    4    0    0  0.24850017536E-01  0.59191343296E-01  0.24045162695E-02  0.64243142141E-01  0.51100000000E-03 0.  1.
</event>
<event>
 8    1  0.1114447E+005  0.1043930E+01  0.7957747E-01            NaN
         13   -1    0    0    0    0  0.00000000000E+00  0.00000000000E+00  0.74505805969E-08  0.10566000000E+00  0.10566000000E+00 0.  1.
     999900   -1    0    0    0    0 -0.00000000000E+00 -0.00000000000E+00 -0.74505805969E-08  0.93827000000E+00  0.93827000000E+00 0. -1.
     999902    2    1    2    0    0  0.14739066721E-01  0.12754241611E-01  0.13544598746E-01  0.10201946483E+01  0.10199185033E+01 0.  0.
     999903    2    3    3    0    0 -0.83488107451E-01  0.24892254267E-01  0.95812948752E-01  0.13083308483E+00  0.18635625282E-01 0.  0.
         14    1    1    2    0    0 -0.14739066721E-01 -0.12754241611E-01 -0.13544598746E-01  0.23735351737E-01  0.00000000000E+00 0. -1.
     999901    1    3    3    0    0  0.98227174172E-01 -0.12138012656E-01 -0.82268350005E-01  0.88936156343E+00  0.88000000000E+00 0. -1.
        -11    1    4    4    0    0 -0.68475387248E-01  0.14794355693E-01  0.83225360530E-01  0.10878636576E+00  0.51100000000E-03 0.  1.
         11    1    4    4    0    0 -0.15012720204E-01  0.10097898574E-01  0.12587588222E-01  0.22046719070E-01  0.51100000000E-03 0. -1.
</event>
<event>
 8    1  0.1114447E+005  0.1043930E+01  0.7957747E-01            NaN
         13   -1    0    0    0    0  0.00000000000E+00  0.00000000000E+00  0.74505805969E-08  0.10566000000E+00  0.10566000000E+00 0. -1.
     999900   -1    0    0    0    0 -0.00000000000E+00 -0.00000000000E+00 -0.74505805969E-08  0.93827000000E+00  0.93827000000E+00 0. -1.
     999902    2    1    2    0    0 -0.15008703973E-02 -0.20222134780E-01 -0.11860035039E-01  0.10204385595E+01  0.10201681263E+01 0.  0.
     999903    2    3    3    0    0  0.64676031941E-01 -0.29753228166E-01  0.10693535011E+00  0.12994287297E+00  0.19538102233E-01 0.  0.
         14    1    1    2    0    0  0.15008703973E-02  0.20222134780E-01  0.11860035039E-01  0.23491440529E-01  0.00000000000E+00 0. -1.
     999901    1    3    3    0    0 -0.66176902338E-01  0.95310933861E-02 -0.11879538515E+00  0.89049568650E+00  0.88000000000E+00 0.  1.
        -11    1    4    4    0    0  0.27992677982E-01 -0.96621577799E-02  0.28775907193E-01  0.41294809230E-01  0.51100000000E-03 0.  1.
         11    1    4    4    0    0  0.36683353959E-01 -0.20091070386E-01  0.78159442916E-01  0.88648063740E-01  0.51100000000E-03 0. -1.
</event>
<event>
 8    1  0.1114447E+005  0.1043930E+01  0.7957747E-01            NaN
         13   -1    0    0    0    0  0.00000000000E+00  0.00000000000E+00  0.74505805969E-08  0.10566000000E+00  0.10566000000E+00 0. -1.
     999900   -1    0    0    0    0 -0.00000000000E+00 -0.00000000000E+00 -0.74505805969E-08  0.93827000000E+00  0.93827000000E+00 0.  1.
     999902    2    1    2    0    0 -0.27116099687E-01 -0.10493144444E-01  0.99350534533E-02  0.10132038836E+01  0.10127378809E+01 0.  0.
     999903    2    3    3    0    0 -0.11525727534E+00  0.69918256229E-03  0.51764282624E-01  0.12774139458E+00  0.18804110137E-01 0.  0.
         14    1    1    2    0    0  0.27116099687E-01  0.10493144444E-01 -0.99350534533E-02  0.30726116411E-01  0.00000000000E+00 0.  1.
     999901    1    3    3    0    0  0.88141175655E-01 -0.11192327006E-01 -0.41829229171E-01  0.88546248901E+00  0.88000000000E+00 0. -1.
        -11    1    4    4    0    0 -0.99794940247E-01  0.43760245787E-02  0.50103197244E-01  0.11175317081E+00  0.51100000000E-03 0. -1.
         11    1    4    4    0    0 -0.15462335095E-01 -0.36768420164E-02  0.16610853796E-02  0.15988223774E-01  0.51100000000E-03 0.  1.
</event>
<event>
 8    1  0.1114447E+005  0.1043930E+01  0.7957747E-01            NaN
         13   -1    0    0    0    0  0.00000000000E+00  0.00000000000E+00  0.74505805969E-08  0.10566000000E+00  0.10566000000E+00 0.  1.
     999900   -1    0    0    0    0 -0.00000000000E+00 -0.00000000000E+00 -0.74505805969E-08  0.93827000000E+00  0.93827000000E+00 0. -1.
     999902    2    1    2    0    0 -0.78905010924E-02 -0.11045005975E-01 -0.19993624147E-01  0.10197639666E+01  0.10194775870E+01 0.  0.
     999903    2    3    3    0    0  0.98874910779E-01  0.48331570002E-01 -0.68287923082E-01  0.13001300690E+00  0.11311626076E-01 0.  0.
         14    1    1    2    0    0  0.78905010924E-02  0.11045005975E-01  0.19993624147E-01  0.24166033415E-01  0.00000000000E+00 0.  1.
     999901    1    3    3    0    0 -0.10676541187E+00 -0.59376575978E-01  0.48294298935E-01  0.88975095968E+00  0.88000000000E+00 0. -1.
        -11    1    4    4    0    0  0.38350665213E-01  0.14694443044E-01 -0.20716636193E-01  0.46001525136E-01  0.51100000000E-03 0.  1.
         11    1    4    4    0    0  0.60524245565E-01  0.33637126958E-01 -0.47571286890E-01  0.84011481766E-01  0.51100000000E-03 0. -1.
</event>
<event>
 8    1  0.1114447E+005  0.1043930E+01  0.7957747E-01            NaN
         13   -1    0    0    0    0  0.00000000000E+00  0.00000000000E+00  0.74505805969E-08  0.10566000000E+00  0.10566000000E+00 0. -1.
     999900   -1    0    0    0    0 -0.00000000000E+00 -0.00000000000E+00 -0.74505805969E-08  0.93827000000E+00  0.93827000000E+00 0.  1.
     999902    2    1    2    0    0 -0.71741489281E-02  0.15189309346E-01  0.16825351410E-01  0.10201544668E+01  0.10198773750E+01 0.  0.
     999903    2    3    3    0    0 -0.11505084702E+00 -0.88384830020E-02  0.60633206652E-01  0.13216018469E+00  0.21797075170E-01 0.  0.
         14    1    1    2    0    0  0.71741489281E-02 -0.15189309346E-01 -0.16825351410E-01  0.23775533250E-01  0.00000000000E+00 0. -1.
     999901    1    3    3    0    0  0.10787669809E+00  0.24027792348E-01 -0.43807855242E-01  0.88799428206E+00  0.88000000000E+00 0.  1.
        -11    1    4    4    0    0 -0.54710854554E-01 -0.14410355993E-01  0.24952172685E-01  0.61836946954E-01  0.51100000000E-03 0. -1.
         11    1    4    4    0    0 -0.60339992465E-01  0.55718729907E-02  0.35681033967E-01  0.70323237733E-01  0.51100000000E-03 0.  1.
</event>
<event>
 8    1  0.1114447E+005  0.1043930E+01  0.7957747E-01            NaN
         13   -1    0    0    0    0  0.00000000000E+00  0.00000000000E+00  0.74505805969E-08  0.10566000000E+00  0.10566000000E+00 0. -1.
     999900   -1    0    0    0    0 -0.00000000000E+00 -0.00000000000E+00 -0.74505805969E-08  0.93827000000E+00  0.93827000000E+00 0. -1.
     999902    2    1    2    0    0 -0.15067891913E-01  0.13593922007E-01  0.12538812197E-01  0.10200750656E+01  0.10197960981E+01 0.  0.
     999903    2    3    3    0    0 -0.37228454782E-01  0.11741922951E+00  0.46063435205E-01  0.13306058696E+00  0.20249603338E-01 0.  0.
         14    1    1    2    0    0  0.15067891913E-01 -0.13593922007E-01 -0.12538812197E-01  0.23854934365E-01  0.00000000000E+00 0.  1.
     999901    1    3    3    0    0  0.22160562869E-01 -0.10382530751E+00 -0.33524623008E-01  0.88701447867E+00  0.88000000000E+00 0. -1.
        -11    1    4    4    0    0 -0.22081319665E-01  0.48954052103E-01  0.28376393480E-01  0.60741787292E-01  0.51100000000E-03 0. -1.
         11    1    4    4    0    0 -0.15147135117E-01  0.68465177409E-01  0.17687041725E-01  0.72318799672E-01  0.51100000000E-03 0.  1.
</event>
<event>
 8    1  0.1114447E+005  0.1043930E+01  0.7957747E-01            NaN
         13   -1    0    0    0    0  0.00000000000E+00  0.00000000000E+00  0.74505805969E-08  0.10566000000E+00  0.10566000000E+00 0.  1.
     999900   -1    0    0    0    0 -0.00000000000E+00 -0.00000000000E+00 -0.74505805969E-08  0.93827000000E+00  0.93827000000E+00 0.  1.
     999902    2    1    2    0    0  0.65223161260E-02 -0.22259519410E-01 -0.66736767163E-02  0.10197936214E+01  0.10195079526E+01 0.  0.
     999903    2    3    3    0    0  0.93717269341E-01 -0.71437091457E-01 -0.57543736099E-01  0.13265825606E+00  0.20018659501E-01 0.  0.
         14    1    1    2    0    0 -0.65223161260E-02  0.22259519410E-01  0.66736767163E-02  0.24136378621E-01  0.00000000000E+00 0.  1.
     999901    1    3    3    0    0 -0.87194953215E-01  0.49177572047E-01  0.50870059382E-01  0.88713536532E+00  0.88000000000E+00 0. -1.
        -11    1    4    4    0    0  0.42817976047E-01 -0.33054777962E-01 -0.15428297238E-01  0.56252030146E-01  0.51100000000E-03 0. -1.
         11    1    4    4    0    0  0.50899293294E-01 -0.38382313495E-01 -0.42115438861E-01  0.76406225914E-01  0.51100000000E-03 0.  1.
</event>
<event>
 8    1  0.1114447E+005  0.1043930E+01  0.7957747E-01            NaN
         13   -1    0    0    0    0  0.00000000000E+00  0.00000000000E+00  0.74505805969E-08  0.10566000000E+00  0.10566000000E+00 0.  1.
     999900   -1    0    0    0    0 -0.00000000000E+00 -0.00000000000E+00 -0.74505805969E-08  0.93827000000E+00  0.93827000000E+00 0.  1.
     999902    2    1    2    0    0  0.47994099246E-02 -0.17641495576E-01  0.15244189814E-01  0.10201257562E+01  0.10198479869E+01 0.  0.
     999903    2    3    3    0    0 -0.11846386347E+00 -0.47773707688E-01 -0.90197918744E-02  0.13069305742E+00  0.26140094099E-01 0.  0.
         14    1    1    2    0    0 -0.47994099246E-02  0.17641495576E-01 -0.15244189814E-01  0.23804243841E-01  0.00000000000E+00 0. -1.
     999901    1    3    3    0    0  0.12326327339E+00  0.30132212112E-01  0.24263981689E-01  0.88943269874E+00  0.88000000000E+00 0.  1.
        -11    1    4    4    0    0 -0.94561813155E-01 -0.47730379614E-01 -0.11985564750E-01  0.10660225386E+00  0.51100000000E-03 0. -1.
         11    1    4    4    0    0 -0.23902050311E-01 -0.43328073311E-04  0.29657728761E-02  0.24090803559E-01  0.51100000000E-03 0.  1.
</event>
<event>
 8    1  0.1114447E+005  0.1043930E+01  0.7957747E-01            NaN
         13   -1    0    0    0    0  0.00000000000E+00  0.00000000000E+00  0.74505805969E-08  0.10566000000E+00  0.10566000000E+00 0.  1.
     999900   -1    0    0    0    0 -0.00000000000E+00 -0.00000000000E+00 -0.74505805969E-08  0.93827000000E+00  0.93827000000E+00 0.  1.
     999902    2    1    2    0    0  0.53436437086E-02 -0.17637772629E-01  0.13877091693E-01  0.10208601230E+01  0.10205994177E+01 0.  0.
     999903    2    3    3    0    0 -0.89658309822E-01  0.90102723362E-01  0.12080821089E-01  0.12921186710E+00  0.19815324442E-01 0.  0.
         14    1    1    2    0    0 -0.53436437086E-02  0.17637772629E-01 -0.13877091693E-01  0.23069877010E-01  0.00000000000E+00 0. -1.
     999901    1    3    3    0    0  0.95001953531E-01 -0.10774049599E+00  0.17962706037E-02  0.89164825589E+00  0.88000000000E+00 0. -1.
        -11    1    4    4    0    0 -0.10195461386E-01  0.61860250863E-02 -0.38643263770E-02  0.12546253568E-01  0.51100000000E-03 0. -1.
         11    1    4    4    0    0 -0.79462848436E-01  0.83916698276E-01  0.15945147466E-01  0.11666561353E+00  0.51100000000E-03 0.  1.
</event>
<event>
 8    1  0.1114447E+005  0.1043930E+01  0.7957747E-01            NaN
         13   -1    0    0    0    0  0.00000000000E+00  0.00000000000E+00  0.74505805969E-08  0.10566000000E+00  0.10566000000E+00 0. -1.
     999900   -1    0    0    0    0 -0.00000000000E+00 -0.00000000000E+00 -0.74505805969E-08  0.93827000000E+00  0.93827000000E+00 0.  1.
     999902    2    1    2    0    0 -0.10487140233E-01  0.44573720162E-02 -0.20446128248E-01  0.10205228977E+01  0.10202544253E+01 0.  0.
     999903    2    3    3    0    0 -0.12312405672E+00 -0.14655384902E-01  0.39691907965E-01  0.13110232466E+00  0.15429138767E-01 0.  0.
         14    1    1    2    0    0  0.10487140233E-01 -0.44573720162E-02  0.20446128248E-01  0.23407102253E-01  0.00000000000E+00 0. -1.
     999901    1    3    3    0    0  0.11263691649E+00  0.19112756919E-01 -0.60138036213E-01  0.88942057309E+00  0.88000000000E+00 0.  1.
        -11    1    4    4    0    0 -0.72627997334E-01 -0.13379901267E-02  0.20741133655E-01  0.75545165038E-01  0.51100000000E-03 0. -1.
         11    1    4    4    0    0 -0.50496059386E-01 -0.13317394776E-01  0.18950774310E-01  0.55557159621E-01  0.51100000000E-03 0.  1.
</event>
<event>
 8    1  0.1114447E+005  0.1043930E+01  0.7957747E-01            NaN
         13   -1    0    0    0    0  0.00000000000E+00  0.00000000000E+00  0.74505805969E-08  0.10566000000E+00  0.10566000000E+00 0.  1.
     999900   -1    0    0    0    0 -0.00000000000E+00 -0.00000000000E+00 -0.74505805969E-08  0.93827000000E+00  0.93827000000E+00 0. -1.
     999902    2    1    2    0    0  0.91969369798E-02  0.14431625092E-01 -0.15235132480E-01  0.10210178915E+01  0.10207607801E+01 0.  0.
     999903    2    3    3    0    0 -0.32707811659E-01  0.10958932990E+00 -0.68085331354E-01  0.13332191866E+00  0.77135905068E-02 0.  0.
         14    1    1    2    0    0 -0.91969369798E-02 -0.14431625092E-01  0.15235132480E-01  0.22912108464E-01  0.00000000000E+00 0.  1.
     999901    1    3    3    0    0  0.41904748638E-01 -0.95157704805E-01  0.52850198874E-01  0.88769597288E+00  0.88000000000E+00 0. -1.
        -11    1    4    4    0    0 -0.15495611706E-01  0.60392891579E-01 -0.33661104569E-01  0.70857225582E-01  0.51100000000E-03 0. -1.
         11    1    4    4    0    0 -0.17212199953E-01  0.49196438318E-01 -0.34424226785E-01  0.62464693076E-01  0.51100000000E-03 0.  1.
</event>
<event>
 8    1  0.1114447E+005  0.1043930E+01  0.7957747E-01            NaN
         13   -1    0    0    0    0  0.00000000000E+00  0.00000000000E+00  0.74505805969E-08  0.10566000000E+00  0.10566000000E+00 0. -1.
     999900   -1    0    0    0    0 -0.00000000000E+00 -0.00000000000E+00 -0.74505805969E-08  0.93827000000E+00  0.93827000000E+00 0.  1.
     999902    2    1    2    0    0  0.21622064374E-01  0.61780117851E-02 -0.56982789808E-02  0.10207318992E+01  0.10204682544E+01 0.  0.
     999903    2    3    3    0    0  0.64099667549E-02  0.39162684902E-01 -0.12431352637E+00  0.13203117708E+00  0.20089184156E-01 0.  0.
         14    1    1    2    0    0 -0.21622064374E-01 -0.61780117851E-02  0.56982789808E-02  0.23198100801E-01  0.00000000000E+00 0. -1.
     999901    1    3    3    0    0  0.15212097619E-01 -0.32984673116E-01  0.11861524739E+00  0.88870072212E+00  0.88000000000E+00 0. -1.
        -11    1    4    4    0    0  0.13037895442E-01  0.19540655967E-01 -0.58835887176E-01  0.63354137150E-01  0.51100000000E-03 0. -1.
         11    1    4    4    0    0 -0.66279286867E-02  0.19622028935E-01 -0.65477639198E-01  0.68677039934E-01  0.51100000000E-03 0.  1.
</event>
<event>
 8    1  0.1114447E+005  0.1043930E+01  0.7957747E-01            NaN
         13   -1    0    0    0    0  0.00000000000E+00  0.00000000000E+00  0.74505805969E-08  0.10566000000E+00  0.10566000000E+00 0.  1.
     999900   -1    0    0    0    0 -0.00000000000E+00 -0.00000000000E+00 -0.74505805969E-08  0.93827000000E+00  0.93827000000E+00 0.  1.
     999902    2    1    2    0    0  0.78147297728E-02  0.21434711246E-01 -0.68969995879E-02  0.10200954568E+01  0.10198169716E+01 0.  0.
     999903    2    3    3    0    0 -0.30258329383E-01 -0.11754451597E+00  0.34669991292E-01  0.12740704631E+00  0.17270420437E-01 0.  0.
         14    1    1    2    0    0 -0.78147297728E-02 -0.21434711246E-01  0.68969995879E-02  0.23834543229E-01  0.00000000000E+00 0. -1.
     999901    1    3    3    0    0  0.38073059156E-01  0.13897922722E+00 -0.41566990880E-01  0.89268841046E+00  0.88000000000E+00 0.  1.
        -11    1    4    4    0    0 -0.11554995249E-01 -0.41334559750E-01  0.38354568316E-02  0.43093335854E-01  0.51100000000E-03 0. -1.
         11    1    4    4    0    0 -0.18703334134E-01 -0.76209956223E-01  0.30834534461E-01  0.84313710460E-01  0.51100000000E-03 0.  1.
</event>
<event>
 8    1  0.1114447E+005  0.1043930E+01  0.7957747E-01            NaN
         13   -1    0    0    0    0  0.00000000000E+00  0.00000000000E+00  0.74505805969E-08  0.10566000000E+00  0.10566000000E+00 0.  1.
     999900   -1    0    0    0    0 -0.00000000000E+00 -0.00000000000E+00 -0.74505805969E-08  0.93827000000E+00  0.93827000000E+00 0. -1.
     999902    2    1    2    0    0  0.11962540994E-01  0.63200852094E-02 -0.20690349907E-01  0.10192088260E+01  0.10189089727E+01 0.  0.
     999903    2    3    3    0    0  0.10676962249E+00  0.73946126228E-01 -0.49644206649E-02  0.13139748965E+00  0.19309918209E-01 0.  0.
         14    1    1    2    0    0 -0.11962540994E-01 -0.63200852094E-02  0.20690349907E-01  0.24721173989E-01  0.00000000000E+00 0.  1.
     999901    1    3    3    0    0 -0.94807081500E-01 -0.67626041018E-01 -0.15725929243E-01  0.88781133636E+00  0.88000000000E+00 0. -1.
        -11    1    4    4    0    0  0.84254283114E-01  0.59626776174E-01 -0.11676424257E-01  0.10387847065E+00  0.51100000000E-03 0.  1.
         11    1    4    4    0    0  0.22515339381E-01  0.14319350054E-01  0.67120035919E-02  0.27519018998E-01  0.51100000000E-03 0. -1.
</event>
<event>
 8    1  0.1114447E+005  0.1043930E+01  0.7957747E-01            NaN
         13   -1    0    0    0    0  0.00000000000E+00  0.00000000000E+00  0.74505805969E-08  0.10566000000E+00  0.10566000000E+00 0.  1.
     999900   -1    0    0    0    0 -0.00000000000E+00 -0.00000000000E+00 -0.74505805969E-08  0.93827000000E+00  0.93827000000E+00 0. -1.
     999902    2    1    2    0    0 -0.12695763882E-01 -0.17627283694E-01 -0.53440173256E-02  0.10215589904E+01  0.10213140108E+01 0.  0.
     999903    2    3    3    0    0  0.82519708930E-01 -0.56057330700E-01 -0.84140266493E-01  0.13209190066E+00  0.20414678257E-01 0.  0.
         14    1    1    2    0    0  0.12695763882E-01  0.17627283694E-01  0.53440173256E-02  0.22371009637E-01  0.00000000000E+00 0.  1.
     999901    1    3    3    0    0 -0.95215472812E-01  0.38430047006E-01  0.78796249167E-01  0.88946708970E+00  0.88000000000E+00 0. -1.
        -11    1    4    4    0    0  0.48375491505E-01 -0.23114918542E-01 -0.36548265990E-01  0.64888554502E-01  0.51100000000E-03 0. -1.
         11    1    4    4    0    0  0.34144217425E-01 -0.32942412159E-01 -0.47592000503E-01  0.67203346161E-01  0.51100000000E-03 0.  1.
</event>
<event>
 8    1  0.1114447E+005  0.1043930E+01  0.7957747E-01            NaN
         13   -1    0    0    0    0  0.00000000000E+00  0.00000000000E+00  0.74505805969E-08  0.10566000000E+00  0.10566000000E+00 0. -1.
     999900   -1    0    0    0    0 -0.00000000000E+00 -0.00000000000E+00 -0.74505805969E-08  0.93827000000E+00  0.93827000000E+00 0. -1.
     999902    2    1    2    0    0  0.12293946645E-01  0.61050695680E-02  0.18218244073E-01  0.10211195328E+01  0.10208647231E+01 0.  0.
     999903    2    3    3    0    0 -0.55598948813E-01 -0.31856669042E-01  0.11416565818E+00  0.13249337676E+00  0.20361898423E-01 0.  0.
         14    1    1    2    0    0 -0.12293946645E-01 -0.61050695680E-02 -0.18218244073E-01  0.22810467239E-01  0.00000000000E+00 0.  1.
     999901    1    3    3    0    0  0.67892895458E-01  0.37961738610E-01 -0.95947414105E-01  0.88862615600E+00  0.88000000000E+00 0. -1.
        -11    1    4    4    0    0 -0.36423976272E-01 -0.92544478922E-02  0.64760287766E-01  0.74876610806E-01  0.51100000000E-03 0. -1.
         11    1    4    4    0    0 -0.19174972541E-01 -0.22602221150E-01  0.49405370411E-01  0.57616765957E-01  0.51100000000E-03 0.  1.
</event>
<event>
 8    1  0.1114447E+005  0.1043930E+01  0.7957747E-01            NaN
         13   -1    0    0    0    0  0.00000000000E+00  0.00000000000E+00  0.74505805969E-08  0.10566000000E+00  0.10566000000E+00 0. -1.
     999900   -1    0    0    0    0 -0.00000000000E+00 -0.00000000000E+00 -0.74505805969E-08  0.93827000000E+00  0.93827000000E+00 0. -1.
     999902    2    1    2    0    0 -0.41484527413E-02  0.63436076364E-03  0.24341732678E-01  0.10192291493E+01  0.10189297949E+01 0.  0.
     999903    2    3    3    0    0 -0.87633085178E-01 -0.94273917121E-01  0.26094602131E-02  0.12993192302E+00  0.17560360773E-01 0.  0.
         14    1    1    2    0    0  0.41484527413E-02 -0.63436076364E-03 -0.24341732678E-01  0.24700850664E-01  0.00000000000E+00 0.  1.
     999901    1    3    3    0    0  0.83484632437E-01  0.94908277884E-01  0.21732272465E-01  0.88929722631E+00  0.88000000000E+00 0.  1.
        -11    1    4    4    0    0 -0.60949895604E-01 -0.70766702961E-01 -0.51177301648E-02  0.93537523514E-01  0.51100000000E-03 0.  1.
         11    1    4    4    0    0 -0.26683189575E-01 -0.23507214159E-01  0.77271903779E-02  0.36394399508E-01  0.51100000000E-03 0. -1.
</event>
<event>
 8    1  0.1114447E+005  0.1043930E+01  0.7957747E-01            NaN
         13   -1    0    0    0    0  0.00000000000E+00  0.00000000000E+00  0.74505805969E-08  0.10566000000E+00  0.10566000000E+00 0.  1.
     999900   -1    0    0    0    0 -0.00000000000E+00 -0.00000000000E+00 -0.74505805969E-08  0.93827000000E+00  0.93827000000E+00 0.  1.
     999902    2    1    2    0    0  0.17770739499E-01 -0.10916267309E-02 -0.12837704655E-01  0.10219801141E+01  0.10217443692E+01 0.  0.
     999903    2    3    3    0    0 -0.63509767441E-01  0.62757415484E-01 -0.95100521718E-01  0.13212035430E+00  0.20968906269E-01 0.  0.
         14    1    1    2    0    0 -0.17770739499E-01  0.10916267309E-02  0.12837704655E-01  0.21949885924E-01  0.00000000000E+00 0.  1.
     999901    1    3    3    0    0  0.81280506941E-01 -0.63849042215E-01  0.82262817064E-01  0.88985975978E+00  0.88000000000E+00 0. -1.
        -11    1    4    4    0    0 -0.18621842244E-02  0.11138128454E-01 -0.11308202266E-01  0.15989440110E-01  0.51100000000E-03 0. -1.
         11    1    4    4    0    0 -0.61647583217E-01  0.51619287029E-01 -0.83792319453E-01  0.11613091419E+00  0.51100000000E-03 0.  1.
</event>
<event>
 8    1  0.1114447E+005  0.1043930E+01  0.7957747E-01            NaN
         13   -1    0    0    0    0  0.00000000000E+00  0.00000000000E+00  0.74505805969E-08  0.10566000000E+00  0.10566000000E+00 0.  1.
     999900   -1    0    0    0    0 -0.00000000000E+00 -0.00000000000E+00 -0.74505805969E-08  0.93827000000E+00  0.93827000000E+00 0.  1.
     999902    2    1    2    0    0  0.60048925359E-02 -0.42057978912E-02  0.22246324273E-01  0.10205067975E+01  0.10202379514E+01 0.  0.
     999903    2    3    3    0    0 -0.36631238269E-02 -0.82159967335E-01  0.10284689756E+00  0.13333895801E+00  0.20931189087E-01 0.  0.
         14    1    1    2    0    0 -0.60048925359E-02  0.42057978912E-02 -0.22246324273E-01  0.23423202470E-01  0.00000000000E+00 0. -1.
     999901    1    3    3    0    0  0.96680163628E-02  0.77954169443E-01 -0.80600573282E-01  0.88716783952E+00  0.88000000000E+00 0.  1.
        -11    1    4    4    0    0  0.16779574796E-03 -0.36186904583E-01  0.29508730175E-01  0.46696322085E-01  0.51100000000E-03 0. -1.
         11    1    4    4    0    0 -0.38309195748E-02 -0.45973062752E-01  0.73338167380E-01  0.86642635920E-01  0.51100000000E-03 0.  1.
</event>
<event>
 8    1  0.1114447E+005  0.1043930E+01  0.7957747E-01            NaN
         13   -1    0    0    0    0  0.00000000000E+00  0.00000000000E+00  0.74505805969E-08  0.10566000000E+00  0.10566000000E+00 0.  1.
     999900   -1    0    0    0    0 -0.00000000000E+00 -0.00000000000E+00 -0.74505805969E-08  0.93827000000E+00  0.93827000000E+00 0. -1.
     999902    2    1    2    0    0 -0.11407653853E-01  0.20932699323E-01  0.78837716937E-03  0.10200776625E+01  0.10197987563E+01 0.  0.
     999903    2    3    3    0    0  0.71103418599E-01 -0.85075539002E-01 -0.61188018947E-01  0.12772857307E+00  0.16645457112E-01 0.  0.
         14    1    1    2    0    0  0.11407653853E-01 -0.20932699323E-01 -0.78837716937E-03  0.23852337536E-01  0.00000000000E+00 0.  1.
     999901    1    3    3    0    0 -0.82511072452E-01  0.10600823832E+00  0.61976396117E-01  0.89234908940E+00  0.88000000000E+00 0.  1.
        -11    1    4    4    0    0  0.17553700614E-01 -0.21784748640E-01 -0.75457019277E-02  0.28981138990E-01  0.51100000000E-03 0. -1.
         11    1    4    4    0    0  0.53549717986E-01 -0.63290790361E-01 -0.53642317020E-01  0.98747434079E-01  0.51100000000E-03 0.  1.
</event>
<event>
 8    1  0.1114447E+005  0.1043930E+01  0.7957747E-01            NaN
         13   -1    0    0    0    0  0.00000000000E+00  0.00000000000E+00  0.74505805969E-08  0.10566000000E+00  0.10566000000E+00 0.  1.
     999900   -1    0    0    0    0 -0.00000000000E+00 -0.00000000000E+00 -0.74505805969E-08  0.93827000000E+00  0.93827000000E+00 0. -1.
     999902    2    1    2    0    0  0.15037047381E-01  0.16285873982E-01  0.45357974998E-02  0.10213044405E+01  0.10210537910E+01 0.  0.
     999903    2    3    3    0    0  0.10519248081E+00 -0.74399143503E-01  0.20691857076E-01  0.13191544074E+00  0.19309064773E-01 0.  0.
         14    1    1    2    0    0 -0.15037047381E-01 -0.16285873982E-01 -0.45357974998E-02  0.22625559534E-01  0.00000000000E+00 0. -1.
     999901    1    3    3    0    0 -0.90155433433E-01  0.90685017485E-01 -0.16156059576E-01  0.88938899973E+00  0.88000000000E+00 0.  1.
        -11    1    4    4    0    0  0.14892835169E-01 -0.18039748626E-01 -0.39231618270E-03  0.23401797001E-01  0.51100000000E-03 0.  1.
         11    1    4    4    0    0  0.90299645644E-01 -0.56359394877E-01  0.21084173258E-01  0.10851364374E+00  0.51100000000E-03 0. -1.
</event>
<event>
 8    1  0.1114447E+005  0.1043930E+01  0.7957747E-01            NaN
         13   -1    0    0    0    0  0.00000000000E+00  0.00000000000E+00  0.74505805969E-08  0.10566000000E+00  0.10566000000E+00 0.  1.
     999900   -1    0    0    0    0 -0.00000000000E+00 -0.00000000000E+00 -0.74505805969E-08  0.93827000000E+00  0.93827000000E+00 0.  1.
     999902    2    1    2    0    0  0.95608110574E-02  0.11585032146E-01  0.18452482607E-01  0.10201368037E+01  0.10198592952E+01 0.  0.
     999903    2    3    3    0    0 -0.34260922510E-01 -0.11511965457E+00  0.44497012253E-01  0.12960171760E+00  0.19755389832E-01 0.  0.
         14    1    1    2    0    0 -0.95608110574E-02 -0.11585032146E-01 -0.18452482607E-01  0.23793196344E-01  0.00000000000E+00 0. -1.
     999901    1    3    3    0    0  0.43821733568E-01  0.12670468671E+00 -0.26044529646E-01  0.89053508605E+00  0.88000000000E+00 0. -1.
        -11    1    4    4    0    0 -0.20369476447E-01 -0.56774253698E-01  0.32197077470E-01  0.68375027402E-01  0.51100000000E-03 0.  1.
         11    1    4    4    0    0 -0.13891446063E-01 -0.58345400869E-01  0.12299934783E-01  0.61226690201E-01  0.51100000000E-03 0. -1.
</event>
<event>
 8    1  0.1114447E+005  0.1043930E+01  0.7957747E-01            NaN
         13   -1    0    0    0    0  0.00000000000E+00  0.00000000000E+00  0.74505805969E-08  0.10566000000E+00  0.10566000000E+00 0.  1.
     999900   -1    0    0    0    0 -0.00000000000E+00 -0.00000000000E+00 -0.74505805969E-08  0.93827000000E+00  0.93827000000E+00 0.  1.
     999902    2    1    2    0    0  0.57084902890E-02  0.18057124779E-01 -0.45812165356E-02  0.10244457971E+01  0.10242604928E+01 0.  0.
     999903    2    3    3    0    0 -0.26916057923E-01  0.11753262973E+00 -0.60730285747E-01  0.13646355901E+00  0.19893267884E-01 0.  0.
         14    1    1    2    0    0 -0.57084902890E-02 -0.18057124779E-01  0.45812165356E-02  0.19484202874E-01  0.00000000000E+00 0.  1.
     999901    1    3    3    0    0  0.32624548212E-01 -0.99475504947E-01  0.56149069212E-01  0.88798223811E+00  0.88000000000E+00 0.  1.
        -11    1    4    4    0    0 -0.28712918119E-01  0.87068279189E-01 -0.45881236637E-01  0.10252153873E+00  0.51100000000E-03 0.  1.
         11    1    4    4    0    0  0.17968601958E-02  0.30464350537E-01 -0.14849049111E-01  0.33942020281E-01  0.51100000000E-03 0. -1.
</event>
<event>
 8    1  0.1114447E+005  0.1043930E+01  0.7957747E-01            NaN
         13   -1    0    0    0    0  0.00000000000E+00  0.00000000000E+00  0.74505805969E-08  0.10566000000E+00  0.10566000000E+00 0. -1.
     999900   -1    0    0    0    0 -0.00000000000E+00 -0.00000000000E+00 -0.74505805969E-08  0.93827000000E+00  0.93827000000E+00 0. -1.
     999902    2    1    2    0    0  0.15337488412E-01 -0.18048396599E-01  0.15713579150E-02  0.10201928490E+01  0.10199166617E+01 0.  0.
     999903    2    3    3    0    0 -0.97020911532E-02 -0.10211369083E+00  0.81500101025E-01  0.13222744530E+00  0.17902357294E-01 0.  0.
         14    1    1    2    0    0 -0.15337488412E-01  0.18048396599E-01 -0.15713579150E-02  0.23737150972E-01  0.00000000000E+00 0. -1.
     999901    1    3    3    0    0  0.25039579565E-01  0.84065294229E-01 -0.79928743110E-01  0.88796540373E+00  0.88000000000E+00 0. -1.
        -11    1    4    4    0    0  0.30677320946E-02 -0.55573908427E-01  0.39548007897E-01  0.68280131280E-01  0.51100000000E-03 0. -1.
         11    1    4    4    0    0 -0.12769823248E-01 -0.46539782402E-01  0.41952093129E-01  0.63947314022E-01  0.51100000000E-03 0.  1.
</event>
<event>
 8    1  0.1114447E+005  0.1043930E+01  0.7957747E-01            NaN
         13   -1    0    0    0    0  0.00000000000E+00  0.00000000000E+00  0.74505805969E-08  0.10566000000E+00  0.10566000000E+00 0.  1.
     999900   -1    0    0    0    0 -0.00000000000E+00 -0.00000000000E+00 -0.74505805969E-08  0.93827000000E+00  0.93827000000E+00 0. -1.
     999902    2    1    2    0    0  0.28430515302E-03  0.14892202017E-01  0.18203417660E-01  0.10204093086E+01  0.10201381936E+01 0.  0.
     999903    2    3    3    0    0 -0.49962283526E-01 -0.79210780235E-01  0.89645511159E-01  0.13109268124E+00  0.19452401466E-01 0.  0.
         14    1    1    2    0    0 -0.28430515302E-03 -0.14892202017E-01 -0.18203417660E-01  0.23520691419E-01  0.00000000000E+00 0. -1.
     999901    1    3    3    0    0  0.50246588679E-01  0.94102982252E-01 -0.71442093499E-01  0.88931662734E+00  0.88000000000E+00 0. -1.
        -11    1    4    4    0    0 -0.15107329288E-01 -0.39055858300E-01  0.32304447264E-01  0.52890735482E-01  0.51100000000E-03 0. -1.
         11    1    4    4    0    0 -0.34854954238E-01 -0.40154921935E-01  0.57341063895E-01  0.78201945757E-01  0.51100000000E-03 0.  1.
</event>
<event>
 8    1  0.1114447E+005  0.1043930E+01  0.7957747E-01            NaN
         13   -1    0    0    0    0  0.00000000000E+00  0.00000000000E+00  0.74505805969E-08  0.10566000000E+00  0.10566000000E+00 0. -1.
     999900   -1    0    0    0    0 -0.00000000000E+00 -0.00000000000E+00 -0.74505805969E-08  0.93827000000E+00  0.93827000000E+00 0.  1.
     999902    2    1    2    0    0 -0.33438338988E-03  0.87175201888E-02  0.19962857165E-01  0.10221441643E+01  0.10219119678E+01 0.  0.
     999903    2    3    3    0    0 -0.50310195447E-01  0.86771757702E-01 -0.82505706673E-01  0.13136369059E+00  0.19717349506E-01 0.  0.
         14    1    1    2    0    0  0.33438338988E-03 -0.87175201888E-02 -0.19962857165E-01  0.21785835689E-01  0.00000000000E+00 0.  1.
     999901    1    3    3    0    0  0.49975812057E-01 -0.78054237513E-01  0.10246856384E+00  0.89078047372E+00  0.88000000000E+00 0. -1.
        -11    1    4    4    0    0 -0.18339557695E-01  0.48242823458E-01 -0.48609893909E-01  0.70900580381E-01  0.51100000000E-03 0. -1.
         11    1    4    4    0    0 -0.31970637753E-01  0.38528934244E-01 -0.33895812765E-01  0.60463110210E-01  0.51100000000E-03 0.  1.
</event>
<event>
 8    1  0.1114447E+005  0.1043930E+01  0.7957747E-01            NaN
         13   -1    0    0    0    0  0.00000000000E+00  0.00000000000E+00  0.74505805969E-08  0.10566000000E+00  0.10566000000E+00 0. -1.
     999900   -1    0    0    0    0 -0.00000000000E+00 -0.00000000000E+00 -0.74505805969E-08  0.93827000000E+00  0.93827000000E+00 0.  1.
     999902    2    1    2    0    0  0.22942175845E-01  0.17816870861E-02 -0.74714318865E-02  0.10197361963E+01  0.10194491503E+01 0.  0.
     999903    2    3    3    0    0 -0.79256876491E-01 -0.89520631187E-01 -0.42593826483E-01  0.12843695241E+00  0.19652501372E-01 0.  0.
         14    1    1    2    0    0 -0.22942175845E-01 -0.17816870861E-02  0.74714318865E-02  0.24193803666E-01  0.00000000000E+00 0. -1.
     999901    1    3    3    0    0  0.10219905234E+00  0.91302318273E-01  0.35122394596E-01  0.89129924393E+00  0.88000000000E+00 0. -1.
        -11    1    4    4    0    0 -0.35003560544E-01 -0.43474564493E-01 -0.98967249673E-02  0.56687682037E-01  0.51100000000E-03 0.  1.
         11    1    4    4    0    0 -0.44253315947E-01 -0.46046066694E-01 -0.32697101516E-01  0.71749270371E-01  0.51100000000E-03 0. -1.
</event>
<event>
 8    1  0.1114447E+005  0.1043930E+01  0.7957747E-01            NaN
         13   -1    0    0    0    0  0.00000000000E+00  0.00000000000E+00  0.74505805969E-08  0.10566000000E+00  0.10566000000E+00 0.  1.
     999900   -1    0    0    0    0 -0.00000000000E+00 -0.00000000000E+00 -0.74505805969E-08  0.93827000000E+00  0.93827000000E+00 0. -1.
     999902    2    1    2    0    0 -0.21132692569E-03 -0.63706667669E-02  0.22806283460E-01  0.10202496998E+01  0.10199748493E+01 0.  0.
     999903    2    3    3    0    0 -0.22068795938E-01  0.11992027258E+00  0.42837129838E-01  0.13073950582E+00  0.19745763079E-01 0.  0.
         14    1    1    2    0    0  0.21132692569E-03  0.63706667669E-02 -0.22806283460E-01  0.23680300239E-01  0.00000000000E+00 0. -1.
     999901    1    3    3    0    0  0.21857469012E-01 -0.12629093935E+00 -0.20030846378E-01  0.88951019394E+00  0.88000000000E+00 0.  1.
        -11    1    4    4    0    0 -0.95292523649E-02  0.71753329195E-01  0.34813972546E-01  0.80321981466E-01  0.51100000000E-03 0.  1.
         11    1    4    4    0    0 -0.12539543573E-01  0.48166943388E-01  0.80231572923E-02  0.50417524357E-01  0.51100000000E-03 0. -1.
</event>
<event>
 8    1  0.1114447E+005  0.1043930E+01  0.7957747E-01            NaN
         13   -1    0    0    0    0  0.00000000000E+00  0.00000000000E+00  0.74505805969E-08  0.10566000000E+00  0.10566000000E+00 0.  1.
     999900   -1    0    0    0    0 -0.00000000000E+00 -0.00000000000E+00 -0.74505805969E-08  0.93827000000E+00  0.93827000000E+00 0. -1.
     999902    2    1    2    0    0  0.59619215161E-02  0.15893344753E-01  0.19252075369E-01  0.10182631864E+01  0.10179396502E+01 0.  0.
     999903    2    3    3    0    0  0.11467057698E+00 -0.48127085126E-01  0.29742362366E-01  0.12920400199E+00  0.18533981327E-01 0.  0.
         14    1    1    2    0    0 -0.59619215161E-02 -0.15893344753E-01 -0.19252075369E-01  0.25666813624E-01  0.00000000000E+00 0. -1.
     999901    1    3    3    0    0 -0.10870865547E+00  0.64020429879E-01 -0.10490286997E-01  0.88905918438E+00  0.88000000000E+00 0.  1.
        -11    1    4    4    0    0  0.48884846614E-01 -0.30434442549E-01  0.12421065388E-01  0.58911183218E-01  0.51100000000E-03 0. -1.
         11    1    4    4    0    0  0.65785730367E-01 -0.17692642577E-01  0.17321296978E-01  0.70292818775E-01  0.51100000000E-03 0.  1.
</event>
<event>
 8    1  0.1114447E+005  0.1043930E+01  0.7957747E-01            NaN
         13   -1    0    0    0    0  0.00000000000E+00  0.00000000000E+00  0.74505805969E-08  0.10566000000E+00  0.10566000000E+00 0.  1.
     999900   -1    0    0    0    0 -0.00000000000E+00 -0.00000000000E+00 -0.74505805969E-08  0.93827000000E+00  0.93827000000E+00 0. -1.
     999902    2    1    2    0    0 -0.10632939913E-01 -0.18644619363E-01 -0.61882317510E-02  0.10215922415E+01  0.10213479977E+01 0.  0.
     999903    2    3    3    0    0  0.22025229702E-01 -0.50049719822E-01 -0.11940744096E+00  0.13318274937E+00  0.22122897124E-01 0.  0.
         14    1    1    2    0    0  0.10632939913E-01  0.18644619363E-01  0.61882317510E-02  0.22337758495E-01  0.00000000000E+00 0. -1.
     999901    1    3    3    0    0 -0.32658169614E-01  0.31405100459E-01  0.11321920920E+00  0.88840949213E+00  0.88000000000E+00 0.  1.
        -11    1    4    4    0    0  0.16118543639E-01 -0.16503824277E-01 -0.32684546413E-01  0.40009053476E-01  0.51100000000E-03 0.  1.
         11    1    4    4    0    0  0.59066860622E-02 -0.33545895545E-01 -0.86722894543E-01  0.93173695897E-01  0.51100000000E-03 0. -1.
</event>
<event>
 8    1  0.1114447E+005  0.1043930E+01  0.7957747E-01            NaN
         13   -1    0    0    0    0  0.00000000000E+00  0.00000000000E+00  0.74505805969E-08  0.10566000000E+00  0.10566000000E+00 0.  1.
     999900   -1    0    0    0    0 -0.00000000000E+00 -0.00000000000E+00 -0.74505805969E-08  0.93827000000E+00  0.93827000000E+00 0.  1.
     999902    2    1    2    0    0 -0.13054061050E-01 -0.13785193698E-01 -0.13550450127E-01  0.10206050182E+01  0.10203384480E+01 0.  0.
     999903    2    3    3    0    0 -0.79701520822E-01 -0.96312630927E-01  0.42668136240E-01  0.13245345953E+00  0.97413446019E-02 0.  0.
         14    1    1    2    0    0  0.13054061050E-01  0.13785193698E-01  0.13550450127E-01  0.23324981754E-01  0.00000000000E+00 0. -1.
     999901    1    3    3    0    0  0.66647459772E-01  0.82527437229E-01 -0.56218586367E-01  0.88815155871E+00  0.88000000000E+00 0.  1.
        -11    1    4    4    0    0 -0.64020433220E-01 -0.71520708902E-01  0.34451651766E-01  0.10198531807E+00  0.51100000000E-03 0. -1.
         11    1    4    4    0    0 -0.15681087603E-01 -0.24791922025E-01  0.82164844741E-02  0.30468141463E-01  0.51100000000E-03 0.  1.
</event>
<event>
 8    1  0.1114447E+005  0.1043930E+01  0.7957747E-01            NaN
         13   -1    0    0    0    0  0.00000000000E+00  0.00000000000E+00  0.74505805969E-08  0.10566000000E+00  0.10566000000E+00 0. -1.
     999900   -1    0    0    0    0 -0.00000000000E+00 -0.00000000000E+00 -0.74505805969E-08  0.93827000000E+00  0.93827000000E+00 0.  1.
     999902    2    1    2    0    0 -0.18886133383E-01  0.12105979628E-01  0.93281894671E-02  0.10196348174E+01  0.10193453316E+01 0.  0.
     999903    2    3    3    0    0 -0.12218179573E+00 -0.43138114384E-01  0.12949882920E-01  0.13186512859E+00  0.20770761875E-01 0.  0.
         14    1    1    2    0    0  0.18886133383E-01 -0.12105979628E-01 -0.93281894671E-02  0.24295182561E-01  0.00000000000E+00 0.  1.
     999901    1    3    3    0    0  0.10329566235E+00  0.55244094012E-01 -0.36216934531E-02  0.88776968885E+00  0.88000000000E+00 0.  1.
        -11    1    4    4    0    0 -0.24318788303E-01 -0.17130225606E-01  0.61206091230E-02  0.30373855055E-01  0.51100000000E-03 0. -1.
         11    1    4    4    0    0 -0.97863007428E-01 -0.26007888777E-01  0.68292737971E-02  0.10149127353E+00  0.51100000000E-03 0.  1.
</event>
<event>
 8    1  0.1114447E+005  0.1043930E+01  0.7957747E-01            NaN
         13   -1    0    0    0    0  0.00000000000E+00  0.00000000000E+00  0.74505805969E-08  0.10566000000E+00  0.10566000000E+00 0. -1.
     999900   -1    0    0    0    0 -0.00000000000E+00 -0.00000000000E+00 -0.74505805969E-08  0.93827000000E+00  0.93827000000E+00 0.  1.
     999902    2    1    2    0    0 -0.73348882318E-02 -0.26576347329E-01 -0.79733144937E-02  0.10152302340E+01  0.10148244930E+01 0.  0.
     999903    2    3    3    0    0 -0.74258984212E-01 -0.10247617774E+00 -0.17832634924E-01  0.12937650735E+00  0.20112534509E-01 0.  0.
         14    1    1    2    0    0  0.73348882318E-02  0.26576347329E-01  0.79733144937E-02  0.28699765970E-01  0.00000000000E+00 0.  1.
     999901    1    3    3    0    0  0.66924095981E-01  0.75899830411E-01  0.98593204306E-02  0.88585372668E+00  0.88000000000E+00 0. -1.
        -11    1    4    4    0    0 -0.29903431314E-01 -0.44569725865E-01  0.22399939330E-02  0.53721079306E-01  0.51100000000E-03 0.  1.
         11    1    4    4    0    0 -0.44355552898E-01 -0.57906451876E-01 -0.20072628857E-01  0.75655428040E-01  0.51100000000E-03 0. -1.
</event>
<event>
 8    1  0.1114447E+005  0.1043930E+01  0.7957747E-01            NaN
         13   -1    0    0    0    0  0.00000000000E+00  0.00000000000E+00  0.74505805969E-08  0.10566000000E+00  0.10566000000E+00 0. -1.
     999900   -1    0    0    0    0 -0.00000000000E+00 -0.00000000000E+00 -0.74505805969E-08  0.93827000000E+00  0.93827000000E+00 0.  1.
     999902    2    1    2    0    0 -0.16117855313E-02 -0.51389813038E-02 -0.22594899185E-01  0.10207020761E+01  0.10204377451E+01 0.  0.
     999903    2    3    3    0    0 -0.39326397862E-01 -0.12073945751E+00 -0.31148285860E-01  0.13229956452E+00  0.20208337153E-01 0.  0.
         14    1    1    2    0    0  0.16117855313E-02  0.51389813038E-02  0.22594899185E-01  0.23227923941E-01  0.00000000000E+00 0. -1.
     999901    1    3    3    0    0  0.37714612331E-01  0.11560047621E+00  0.85533866747E-02  0.88840251154E+00  0.88000000000E+00 0.  1.
        -11    1    4    4    0    0 -0.27553631831E-01 -0.89277415266E-01 -0.31798561579E-01  0.98696854779E-01  0.51100000000E-03 0.  1.
         11    1    4    4    0    0 -0.11772766032E-01 -0.31462042248E-01  0.65027571924E-03  0.33602709742E-01  0.51100000000E-03 0. -1.
</event>
<event>
 8    1  0.1114447E+005  0.1043930E+01  0.7957747E-01            NaN
         13   -1    0    0    0    0  0.00000000000E+00  0.00000000000E+00  0.74505805969E-08  0.10566000000E+00  0.10566000000E+00 0. -1.
     999900   -1    0    0    0    0 -0.00000000000E+00 -0.00000000000E+00 -0.74505805969E-08  0.93827000000E+00  0.93827000000E+00 0. -1.
     999902    2    1    2    0    0 -0.99051012470E-02  0.21202076532E-01 -0.52693138994E-02  0.10199424043E+01  0.10196602882E+01 0.  0.
     999903    2    3    3    0    0 -0.13762216520E-01 -0.11075336313E+00 -0.57506810239E-01  0.12856376900E+00  0.27674960295E-01 0.  0.
         14    1    1    2    0    0  0.99051012470E-02 -0.21202076532E-01  0.52693138994E-02  0.23987595731E-01  0.00000000000E+00 0. -1.
     999901    1    3    3    0    0  0.38571152731E-02  0.13195543966E+00  0.52237496340E-01  0.89137863527E+00  0.88000000000E+00 0.  1.
        -11    1    4    4    0    0  0.40898872626E-03 -0.71387096833E-01 -0.46835077811E-01  0.85381909680E-01  0.51100000000E-03 0.  1.
         11    1    4    4    0    0 -0.14171205246E-01 -0.39366266295E-01 -0.10671732428E-01  0.43181859318E-01  0.51100000000E-03 0. -1.
</event>
<event>
 8    1  0.1114447E+005  0.1043930E+01  0.7957747E-01            NaN
         13   -1    0    0    0    0  0.00000000000E+00  0.00000000000E+00  0.74505805969E-08  0.10566000000E+00  0.10566000000E+00 0. -1.
     999900   -1    0    0    0    0 -0.00000000000E+00 -0.00000000000E+00 -0.74505805969E-08  0.93827000000E+00  0.93827000000E+00 0.  1.
     999902    2    1    2    0    0 -0.48438903574E-02  0.40124409570E-02  0.21953500599E-01  0.10210932063E+01  0.10208378015E+01 0.  0.
     999903    2    3    3    0    0  0.47364790921E-01 -0.61645898775E-01 -0.10060492766E+00  0.12864862413E+00  0.19633562214E-01 0.  0.
         14    1    1    2    0    0  0.48438903574E-02 -0.40124409570E-02 -0.21953500599E-01  0.22836793662E-01  0.00000000000E+00 0.  1.
     999901    1    3    3    0    0 -0.52208681278E-01  0.65658339732E-01  0.12255842826E+00  0.89244458221E+00  0.88000000000E+00 0. -1.
        -11    1    4    4    0    0  0.45863157441E-01 -0.56750197809E-01 -0.84010882833E-01  0.11127490156E+00  0.51100000000E-03 0.  1.
         11    1    4    4    0    0  0.15016334802E-02 -0.48957009664E-02 -0.16594044830E-01  0.17373722568E-01  0.51100000000E-03 0. -1.
</event>
<event>
 8    1  0.1114447E+005  0.1043930E+01  0.7957747E-01            NaN
         13   -1    0    0    0    0  0.00000000000E+00  0.00000000000E+00  0.74505805969E-08  0.10566000000E+00  0.10566000000E+00 0. -1.
     999900   -1    0    0    0    0 -0.00000000000E+00 -0.00000000000E+00 -0.74505805969E-08  0.93827000000E+00  0.93827000000E+00 0.  1.
     999902    2    1    2    0    0  0.94526158749E-02 -0.18767224722E-02 -0.22083373782E-01  0.10198354066E+01  0.10195507379E+01 0.  0.
     999903    2    3    3    0    0  0.73413981775E-01 -0.22757643360E-01  0.10096034129E+00  0.12873113379E+00  0.21706939912E-01 0.  0.
         14    1    1    2    0    0 -0.94526158749E-02  0.18767224722E-02  0.22083373782E-01  0.24094593412E-01  0.00000000000E+00 0. -1.
     999901    1    3    3    0    0 -0.63961365900E-01  0.20880920888E-01 -0.12304371508E+00  0.89110427280E+00  0.88000000000E+00 0.  1.
        -11    1    4    4    0    0  0.59890144311E-01 -0.20501233019E-01  0.67362024557E-01  0.92439349924E-01  0.51100000000E-03 0.  1.
         11    1    4    4    0    0  0.13523837464E-01 -0.22564103415E-02  0.33598316737E-01  0.36291783863E-01  0.51100000000E-03 0. -1.
</event>
<event>
 8    1  0.1114447E+005  0.1043930E+01  0.7957747E-01            NaN
         13   -1    0    0    0    0  0.00000000000E+00  0.00000000000E+00  0.74505805969E-08  0.10566000000E+00  0.10566000000E+00 0.  1.
     999900   -1    0    0    0    0 -0.00000000000E+00 -0.00000000000E+00 -0.74505805969E-08  0.93827000000E+00  0.93827000000E+00 0.  1.
     999902    2    1    2    0    0 -0.21994129930E-02  0.17922250549E-01 -0.14514292336E-01  0.10207630156E+01  0.10205000857E+01 0.  0.
     999903    2    3    3    0    0 -0.80398068048E-01 -0.63262330915E-01 -0.79813365371E-01  0.13117325915E+00  0.19242628849E-01 0.  0.
         14    1    1    2    0    0  0.21994129930E-02 -0.17922250549E-01  0.14514292336E-01  0.23166984359E-01  0.00000000000E+00 0. -1.
     999901    1    3    3    0    0  0.78198655055E-01  0.81184581463E-01  0.65299073034E-01  0.88958975649E+00  0.88000000000E+00 0. -1.
        -11    1    4    4    0    0 -0.75175934756E-01 -0.51633554966E-01 -0.72159062200E-01  0.11629547086E+00  0.51100000000E-03 0. -1.
         11    1    4    4    0    0 -0.52221332911E-02 -0.11628775949E-01 -0.76543031710E-02  0.14877788283E-01  0.51100000000E-03 0.  1.
</event>
<event>
 8    1  0.1114447E+005  0.1043930E+01  0.7957747E-01            NaN
         13   -1    0    0    0    0  0.00000000000E+00  0.00000000000E+00  0.74505805969E-08  0.10566000000E+00  0.10566000000E+00 0. -1.
     999900   -1    0    0    0    0 -0.00000000000E+00 -0.00000000000E+00 -0.74505805969E-08  0.93827000000E+00  0.93827000000E+00 0.  1.
     999902    2    1    2    0    0 -0.19472936560E-01  0.11562605143E-01  0.21475552478E-02  0.10211813497E+01  0.10209279347E+01 0.  0.
     999903    2    3    3    0    0  0.17303318554E-01  0.11949523232E+00 -0.50359130193E-01  0.13227252596E+00  0.19531096997E-01 0.  0.
         14    1    1    2    0    0  0.19472936560E-01 -0.11562605143E-01 -0.21475552478E-02  0.22748650279E-01  0.00000000000E+00 0. -1.
     999901    1    3    3    0    0 -0.36776255114E-01 -0.10793262717E+00  0.52506685441E-01  0.88890882376E+00  0.88000000000E+00 0. -1.
        -11    1    4    4    0    0 -0.72412719568E-03  0.59992972474E-01 -0.21612759005E-01  0.63773455130E-01  0.51100000000E-03 0. -1.
         11    1    4    4    0    0  0.18027445750E-01  0.59502259843E-01 -0.28746371188E-01  0.68499070827E-01  0.51100000000E-03 0.  1.
</event>
<event>
 8    1  0.1114447E+005  0.1043930E+01  0.7957747E-01            NaN
         13   -1    0    0    0    0  0.00000000000E+00  0.00000000000E+00  0.74505805969E-08  0.10566000000E+00  0.10566000000E+00 0. -1.
     999900   -1    0    0    0    0 -0.00000000000E+00 -0.00000000000E+00 -0.74505805969E-08  0.93827000000E+00  0.93827000000E+00 0.  1.
     999902    2    1    2    0    0 -0.27742775069E-02 -0.23267728937E-01  0.26282049403E-02  0.10203505325E+01  0.10200780450E+01 0.  0.
     999903    2    3    3    0    0 -0.36668267440E-01 -0.11745537891E+00 -0.47080284868E-01  0.13328173591E+00  0.20177711269E-01 0.  0.
         14    1    1    2    0    0  0.27742775069E-02  0.23267728937E-01 -0.26282049403E-02  0.23579467483E-01  0.00000000000E+00 0.  1.
     999901    1    3    3    0    0  0.33893989933E-01  0.94187649968E-01  0.49708489809E-01  0.88706879661E+00  0.88000000000E+00 0. -1.
        -11    1    4    4    0    0 -0.10664717471E-02 -0.29508764422E-01 -0.15006523524E-01  0.33126445765E-01  0.51100000000E-03 0.  1.
         11    1    4    4    0    0 -0.35601795693E-01 -0.87946614484E-01 -0.32073761344E-01  0.10015529014E+00  0.51100000000E-03 0. -1.
</event>
<event>
 7    1  0.1114447E+005  0.1043930E+01  0.7957747E-01            NaN
         13   -1    0    0    0    0  0.00000000000E+00  0.00000000000E+00  0.74505805969E-08  0.10566000000E+00  0.10566000000E+00 0. -1.
     999900   -1    0    0    0    0 -0.00000000000E+00 -0.00000000000E+00 -0.74505805969E-08  0.93827000000E+00  0.93827000000E+00 0.  1.
     999903    2    1    2    0    0  0.98746885815E-01  0.30072976127E-01 -0.96185062917E-03  0.10514295059E+00  0.19969565594E-01 0.  0.
         14    1    1    2    0    0 -0.51691596886E-03  0.36856702353E-01 -0.33945675373E-01  0.50109805298E-01  0.00000000000E+00 0.  1.
     999901    1    1    2    0    0 -0.98229969846E-01 -0.66929678480E-01  0.34907526003E-01  0.88867724412E+00  0.88000000000E+00 0. -1.
        -11    1    3    3    0    0  0.43396918745E-01  0.22137188287E-01  0.46636064484E-02  0.48942394792E-01  0.51100000000E-03 0.  1.
         11    1    3    3    0    0  0.55349967070E-01  0.79357878399E-02 -0.56254570775E-02  0.56200555794E-01  0.51100000000E-03 0. -1.
</event>
<event>
 8    1  0.1114447E+005  0.1043930E+01  0.7957747E-01            NaN
         13   -1    0    0    0    0  0.00000000000E+00  0.00000000000E+00  0.74505805969E-08  0.10566000000E+00  0.10566000000E+00 0. -1.
     999900   -1    0    0    0    0 -0.00000000000E+00 -0.00000000000E+00 -0.74505805969E-08  0.93827000000E+00  0.93827000000E+00 0.  1.
     999902    2    1    2    0    0  0.23120700597E-01 -0.43103427130E-02  0.42870741880E-02  0.10200234140E+01  0.10197432227E+01 0.  0.
     999903    2    3    3    0    0  0.12764711694E+00  0.26909266738E-01 -0.16262082705E-01  0.13304951155E+00  0.20489560518E-01 0.  0.
         14    1    1    2    0    0 -0.23120700597E-01  0.43103427130E-02 -0.42870741880E-02  0.23906586027E-01  0.00000000000E+00 0.  1.
     999901    1    3    3    0    0 -0.10452641634E+00 -0.31219609451E-01  0.20549156893E-01  0.88697390242E+00  0.88000000000E+00 0. -1.
        -11    1    4    4    0    0  0.11061922448E+00  0.22237939753E-01 -0.68675833742E-02  0.11304230894E+00  0.51100000000E-03 0. -1.
         11    1    4    4    0    0  0.17027892462E-01  0.46713269843E-02 -0.93944993313E-02  0.20007202608E-01  0.51100000000E-03 0.  1.
</event>
<event>
 8    1  0.1114447E+005  0.1043930E+01  0.7957747E-01            NaN
         13   -1    0    0    0    0  0.00000000000E+00  0.00000000000E+00  0.74505805969E-08  0.10566000000E+00  0.10566000000E+00 0.  1.
     999900   -1    0    0    0    0 -0.00000000000E+00 -0.00000000000E+00 -0.74505805969E-08  0.93827000000E+00  0.93827000000E+00 0.  1.
     999902    2    1    2    0    0  0.10922858346E-01 -0.20024617700E-01  0.60279036033E-02  0.10203369974E+01  0.10200641933E+01 0.  0.
     999903    2    3    3    0    0  0.10402228916E+00  0.66347921661E-01  0.37120955706E-01  0.13067723243E+00  0.21814911650E-01 0.  0.
         14    1    1    2    0    0 -0.10922858346E-01  0.20024617700E-01 -0.60279036033E-02  0.23593002571E-01  0.00000000000E+00 0. -1.
     999901    1    3    3    0    0 -0.93099430818E-01 -0.86372539361E-01 -0.31093052103E-01  0.88965976500E+00  0.88000000000E+00 0.  1.
        -11    1    4    4    0    0  0.37593417626E-01  0.25567018199E-01  0.24705346911E-01  0.51745074697E-01  0.51100000000E-03 0.  1.
         11    1    4    4    0    0  0.66428871539E-01  0.40780903462E-01  0.12415608795E-01  0.78932157730E-01  0.51100000000E-03 0. -1.
</event>
<event>
 8    1  0.1114447E+005  0.1043930E+01  0.7957747E-01            NaN
         13   -1    0    0    0    0  0.00000000000E+00  0.00000000000E+00  0.74505805969E-08  0.10566000000E+00  0.10566000000E+00 0.  1.
     999900   -1    0    0    0    0 -0.00000000000E+00 -0.00000000000E+00 -0.74505805969E-08  0.93827000000E+00  0.93827000000E+00 0. -1.
     999902    2    1    2    0    0 -0.85770523465E-02 -0.11670279309E-01 -0.26380980542E-01  0.10138348612E+01  0.10133880838E+01 0.  0.
     999903    2    3    3    0    0 -0.12792482072E-01  0.28481230183E-01  0.11577382070E+00  0.12151322574E+00  0.19673799831E-01 0.  0.
         14    1    1    2    0    0  0.85770523465E-02  0.11670279309E-01  0.26380980542E-01  0.30095138818E-01  0.00000000000E+00 0.  1.
     999901    1    3    3    0    0  0.42154297251E-02 -0.40151509491E-01 -0.14215480124E+00  0.89232163544E+00  0.88000000000E+00 0. -1.
        -11    1    4    4    0    0 -0.58914101383E-02  0.29328401946E-01  0.92582409823E-01  0.97296596054E-01  0.51100000000E-03 0.  1.
         11    1    4    4    0    0 -0.69010719333E-02 -0.84717176355E-03  0.23191410878E-01  0.24216629686E-01  0.51100000000E-03 0. -1.
</event>
<event>
 8    1  0.1114447E+005  0.1043930E+01  0.7957747E-01            NaN
         13   -1    0    0    0    0  0.00000000000E+00  0.00000000000E+00  0.74505805969E-08  0.10566000000E+00  0.10566000000E+00 0.  1.
     999900   -1    0    0    0    0 -0.00000000000E+00 -0.00000000000E+00 -0.74505805969E-08  0.93827000000E+00  0.93827000000E+00 0.  1.
     999902    2    1    2    0    0  0.12294200093E-01  0.18042493723E-02  0.19368047354E-01  0.10209186130E+01  0.10206592431E+01 0.  0.
     999903    2    3    3    0    0  0.22468092954E-01 -0.19026869463E-01  0.12900862076E+00  0.13381179932E+00  0.19888098036E-01 0.  0.
         14    1    1    2    0    0 -0.12294200093E-01 -0.18042493723E-02 -0.19368047354E-01  0.23011386964E-01  0.00000000000E+00 0. -1.
     999901    1    3    3    0    0 -0.10173892861E-01  0.20831118836E-01 -0.10964057341E+00  0.88710681372E+00  0.88000000000E+00 0.  1.
        -11    1    4    4    0    0  0.13969348871E-01 -0.12055195147E-01  0.11228713820E+00  0.11379425717E+00  0.51100000000E-03 0. -1.
         11    1    4    4    0    0  0.84987440827E-02 -0.69716743162E-02  0.16721482562E-01  0.20017542152E-01  0.51100000000E-03 0.  1.
</event>
<event>
 8    1  0.1114447E+005  0.1043930E+01  0.7957747E-01            NaN
         13   -1    0    0    0    0  0.00000000000E+00  0.00000000000E+00  0.74505805969E-08  0.10566000000E+00  0.10566000000E+00 0. -1.
     999900   -1    0    0    0    0 -0.00000000000E+00 -0.00000000000E+00 -0.74505805969E-08  0.93827000000E+00  0.93827000000E+00 0.  1.
     999902    2    1    2    0    0  0.19886171439E-01 -0.88572836701E-02  0.21181491627E-01  0.10135562140E+01  0.10131009980E+01 0.  0.
     999903    2    3    3    0    0  0.10169453344E+00  0.61419254413E-01 -0.34253987351E-01  0.12524067759E+00  0.19944641602E-01 0.  0.
         14    1    1    2    0    0 -0.19886171439E-01  0.88572836701E-02 -0.21181491627E-01  0.30373786002E-01  0.00000000000E+00 0.  1.
     999901    1    3    3    0    0 -0.81808362003E-01 -0.70276538083E-01  0.55435478978E-01  0.88831553641E+00  0.88000000000E+00 0.  1.
        -11    1    4    4    0    0  0.57252435593E-01  0.25221544755E-01 -0.11731648891E-01  0.63654225373E-01  0.51100000000E-03 0.  1.
         11    1    4    4    0    0  0.44442097849E-01  0.36197709658E-01 -0.22522338459E-01  0.61586452215E-01  0.51100000000E-03 0. -1.
</event>
<event>
 8    1  0.1114447E+005  0.1043930E+01  0.7957747E-01            NaN
         13   -1    0    0    0    0  0.00000000000E+00  0.00000000000E+00  0.74505805969E-08  0.10566000000E+00  0.10566000000E+00 0.  1.
     999900   -1    0    0    0    0 -0.00000000000E+00 -0.00000000000E+00 -0.74505805969E-08  0.93827000000E+00  0.93827000000E+00 0. -1.
     999902    2    1    2    0    0  0.47910534252E-02  0.43119786395E-02 -0.22867464207E-01  0.10201714590E+01  0.10198947678E+01 0.  0.
     999903    2    3    3    0    0  0.33527925438E-01  0.72804323515E-02 -0.12743517973E+00  0.13350972716E+00  0.20198904259E-01 0.  0.
         14    1    1    2    0    0 -0.47910534252E-02 -0.43119786395E-02  0.22867464207E-01  0.23758541032E-01  0.00000000000E+00 0.  1.
     999901    1    3    3    0    0 -0.28736872013E-01 -0.29684537120E-02  0.10456771552E+00  0.88666173181E+00  0.88000000000E+00 0. -1.
        -11    1    4    4    0    0  0.14604991638E-01  0.12813129720E-01 -0.75336529757E-01  0.77803187022E-01  0.51100000000E-03 0. -1.
         11    1    4    4    0    0  0.18922933800E-01 -0.55326973684E-02 -0.52098649973E-01  0.55706540134E-01  0.51100000000E-03 0.  1.
</event>
<event>
 8    1  0.1114447E+005  0.1043930E+01  0.7957747E-01            NaN
         13   -1    0    0    0    0  0.00000000000E+00  0.00000000000E+00  0.74505805969E-08  0.10566000000E+00  0.10566000000E+00 0.  1.
     999900   -1    0    0    0    0 -0.00000000000E+00 -0.00000000000E+00 -0.74505805969E-08  0.93827000000E+00  0.93827000000E+00 0. -1.
     999902    2    1    2    0    0 -0.13820375042E-01  0.15425007462E-01 -0.11704161722E-01  0.10201409054E+01  0.10198634937E+01 0.  0.
     999903    2    3    3    0    0 -0.32455056049E-01 -0.11567393434E+00  0.41668281319E-01  0.12863498753E+00  0.19414546053E-01 0.  0.
         14    1    1    2    0    0  0.13820375042E-01 -0.15425007462E-01  0.11704161722E-01  0.23789094626E-01  0.00000000000E+00 0.  1.
     999901    1    3    3    0    0  0.18634681006E-01  0.13109894181E+00 -0.53372443041E-01  0.89150591785E+00  0.88000000000E+00 0. -1.
        -11    1    4    4    0    0 -0.17789379934E-01 -0.49725803575E-01  0.89466101512E-02  0.53566972416E-01  0.51100000000E-03 0.  1.
         11    1    4    4    0    0 -0.14665676115E-01 -0.65948130769E-01  0.32721671168E-01  0.75068015112E-01  0.51100000000E-03 0. -1.
</event>
<event>
 8    1  0.1114447E+005  0.1043930E+01  0.7957747E-01            NaN
         13   -1    0    0    0    0  0.00000000000E+00  0.00000000000E+00  0.74505805969E-08  0.10566000000E+00  0.10566000000E+00 0. -1.
     999900   -1    0    0    0    0 -0.00000000000E+00 -0.00000000000E+00 -0.74505805969E-08  0.93827000000E+00  0.93827000000E+00 0.  1.
     999902    2    1    2    0    0 -0.22838523572E-02  0.88191981635E-02 -0.21904270062E-01  0.10202067775E+01  0.10199309181E+01 0.  0.
     999903    2    3    3    0    0  0.24355626021E-01  0.96897159887E-01 -0.85349599393E-01  0.13313705142E+00  0.21416447688E-01 0.  0.
         14    1    1    2    0    0  0.22838523572E-02 -0.88191981635E-02  0.21904270062E-01  0.23723222479E-01  0.00000000000E+00 0. -1.
     999901    1    3    3    0    0 -0.26639478379E-01 -0.88077961723E-01  0.63445329331E-01  0.88706972610E+00  0.88000000000E+00 0. -1.
        -11    1    4    4    0    0  0.77260934124E-02  0.28878150484E-01 -0.13486611709E-01  0.32799236442E-01  0.51100000000E-03 0.  1.
         11    1    4    4    0    0  0.16629532609E-01  0.68019009402E-01 -0.71862987683E-01  0.10033781498E+00  0.51100000000E-03 0. -1.
</event>
<event>
 8    1  0.1114447E+005  0.1043930E+01  0.7957747E-01            NaN
         13   -1    0    0    0    0  0.00000000000E+00  0.00000000000E+00  0.74505805969E-08  0.10566000000E+00  0.10566000000E+00 0.  1.
     999900   -1    0    0    0    0 -0.00000000000E+00 -0.00000000000E+00 -0.74505805969E-08  0.93827000000E+00  0.93827000000E+00 0. -1.
     999902    2    1    2    0    0  0.25806242859E-01  0.14046864487E-02  0.33813845123E-02  0.10178652906E+01  0.10175315134E+01 0.  0.
     999903    2    3    3    0    0  0.19584587259E-01 -0.48080785780E-01 -0.11573982116E+00  0.12843998031E+00  0.20144585352E-01 0.  0.
         14    1    1    2    0    0 -0.25806242859E-01 -0.14046864487E-02 -0.33813845123E-02  0.26064709393E-01  0.00000000000E+00 0. -1.
     999901    1    3    3    0    0  0.62216556004E-02  0.49485472229E-01  0.11912120568E+00  0.88942531030E+00  0.88000000000E+00 0.  1.
        -11    1    4    4    0    0  0.28029898867E-02 -0.16369411552E-01 -0.59098013156E-01  0.61389336752E-01  0.51100000000E-03 0.  1.
         11    1    4    4    0    0  0.16781597372E-01 -0.31711374228E-01 -0.56641808007E-01  0.67050643555E-01  0.51100000000E-03 0. -1.
</event>
<event>
 8    1  0.1114447E+005  0.1043930E+01  0.7957747E-01            NaN
         13   -1    0    0    0    0  0.00000000000E+00  0.00000000000E+00  0.74505805969E-08  0.10566000000E+00  0.10566000000E+00 0.  1.
     999900   -1    0    0    0    0 -0.00000000000E+00 -0.00000000000E+00 -0.74505805969E-08  0.93827000000E+00  0.93827000000E+00 0. -1.
     999902    2    1    2    0    0  0.69798758991E-02  0.10178498964E-01  0.21209460512E-01  0.10193910162E+01  0.10190956198E+01 0.  0.
     999903    2    3    3    0    0 -0.10429322733E+00 -0.18841313928E-01  0.73242222238E-01  0.13038524498E+00  0.20095188773E-01 0.  0.
         14    1    1    2    0    0 -0.69798758991E-02 -0.10178498964E-01 -0.21209460512E-01  0.24538983759E-01  0.00000000000E+00 0. -1.
     999901    1    3    3    0    0  0.11127310323E+00  0.29019812891E-01 -0.52032761726E-01  0.88900577126E+00  0.88000000000E+00 0.  1.
        -11    1    4    4    0    0 -0.73228131470E-01 -0.51509941156E-02  0.55830580605E-01  0.92229099696E-01  0.51100000000E-03 0.  1.
         11    1    4    4    0    0 -0.31065095864E-01 -0.13690319812E-01  0.17411641632E-01  0.38156145284E-01  0.51100000000E-03 0. -1.
</event>
<event>
 8    1  0.1114447E+005  0.1043930E+01  0.7957747E-01            NaN
         13   -1    0    0    0    0  0.00000000000E+00  0.00000000000E+00  0.74505805969E-08  0.10566000000E+00  0.10566000000E+00 0. -1.
     999900   -1    0    0    0    0 -0.00000000000E+00 -0.00000000000E+00 -0.74505805969E-08  0.93827000000E+00  0.93827000000E+00 0. -1.
     999902    2    1    2    0    0 -0.36161557207E-02  0.19283243736E-01  0.12064462078E-01  0.10208980371E+01  0.10206381978E+01 0.  0.
     999903    2    3    3    0    0  0.54928098418E-01 -0.90395475921E-01  0.73163926041E-01  0.13006135409E+00  0.19353493024E-01 0.  0.
         14    1    1    2    0    0  0.36161557207E-02 -0.19283243736E-01 -0.12064462078E-01  0.23031962930E-01  0.00000000000E+00 0.  1.
     999901    1    3    3    0    0 -0.58544254139E-01  0.10967871966E+00 -0.61099463963E-01  0.89083668298E+00  0.88000000000E+00 0. -1.
        -11    1    4    4    0    0  0.26066905678E-01 -0.60970726368E-01  0.44889872869E-01  0.80076681079E-01  0.51100000000E-03 0.  1.
         11    1    4    4    0    0  0.28861192740E-01 -0.29424749553E-01  0.28274053172E-01  0.49984673015E-01  0.51100000000E-03 0. -1.
</event>
<event>
 8    1  0.1114447E+005  0.1043930E+01  0.7957747E-01            NaN
         13   -1    0    0    0    0  0.00000000000E+00  0.00000000000E+00  0.74505805969E-08  0.10566000000E+00  0.10566000000E+00 0.  1.
     999900   -1    0    0    0    0 -0.00000000000E+00 -0.00000000000E+00 -0.74505805969E-08  0.93827000000E+00  0.93827000000E+00 0.  1.
     999902    2    1    2    0    0 -0.26853530978E-01  0.29254411176E-02 -0.54132666801E-02  0.10163805211E+01  0.10160070816E+01 0.  0.
     999903    2    3    3    0    0 -0.57389045205E-01  0.10870683676E+00 -0.33942046538E-01  0.12906095489E+00  0.19849148261E-01 0.  0.
         14    1    1    2    0    0  0.26853530978E-01 -0.29254411176E-02  0.54132666801E-02  0.27549478904E-01  0.00000000000E+00 0. -1.
     999901    1    3    3    0    0  0.30535514227E-01 -0.10578139564E+00  0.28528779858E-01  0.88731956621E+00  0.88000000000E+00 0.  1.
        -11    1    4    4    0    0 -0.49984625577E-01  0.79499808875E-01 -0.30457335677E-01  0.98724833870E-01  0.51100000000E-03 0. -1.
         11    1    4    4    0    0 -0.74044196284E-02  0.29207027882E-01 -0.34847108609E-02  0.30336121020E-01  0.51100000000E-03 0.  1.
</event>
<event>
 7    1  0.1272321E+005  0.1043930E+01  0.7957747E-01            NaN
         13   -1    0    0    0    0  0.00000000000E+00  0.00000000000E+00  0.74505805969E-08  0.10566000000E+00  0.10566000000E+00 0.  1.
     999900   -1    0    0    0    0 -0.00000000000E+00 -0.00000000000E+00 -0.74505805969E-08  0.93827000000E+00  0.93827000000E+00 0.  1.
     999903    2    1    2    0    0  0.22286088549E-01  0.76929627295E-01 -0.75694479533E-01  0.11197012465E+00  0.19819618658E-01 0.  0.
         14    1    1    2    0    0  0.89177779803E-02 -0.41439769976E-01 -0.17333280918E-01  0.45795457495E-01  0.00000000000E+00 0.  1.
     999901    1    1    2    0    0 -0.31203866529E-01 -0.35489857319E-01  0.93027760450E-01  0.88616441786E+00  0.88000000000E+00 0. -1.
        -11    1    3    3    0    0  0.16010158294E-01  0.55615669293E-01 -0.41616643369E-01  0.71285580350E-01  0.51100000000E-03 0. -1.
         11    1    3    3    0    0  0.62759302546E-02  0.21313958002E-01 -0.34077836164E-01  0.40684544300E-01  0.51100000000E-03 0.  1.
</event>
<event>
 8    1  0.1114447E+005  0.1043930E+01  0.7957747E-01            NaN
         13   -1    0    0    0    0  0.00000000000E+00  0.00000000000E+00  0.74505805969E-08  0.10566000000E+00  0.10566000000E+00 0. -1.
     999900   -1    0    0    0    0 -0.00000000000E+00 -0.00000000000E+00 -0.74505805969E-08  0.93827000000E+00  0.93827000000E+00 0. -1.
     999902    2    1    2    0    0 -0.10127957745E-01 -0.19924028519E-01 -0.10691926984E-01  0.10191538069E+01  0.10188526009E+01 0.  0.
     999903    2    3    3    0    0 -0.97874460096E-02  0.11308275262E+00  0.53229035108E-01  0.12686640414E+00  0.19448683258E-01 0.  0.
         14    1    1    2    0    0  0.10127957745E-01  0.19924028519E-01  0.10691926984E-01  0.24776193072E-01  0.00000000000E+00 0.  1.
     999901    1    3    3    0    0 -0.34051173528E-03 -0.13300678114E+00 -0.63920962091E-01  0.89228740279E+00  0.88000000000E+00 0.  1.
        -11    1    4    4    0    0 -0.65116707255E-02  0.41278996467E-01  0.99432407596E-02  0.42959126653E-01  0.51100000000E-03 0.  1.
         11    1    4    4    0    0 -0.32757752841E-02  0.71803756158E-01  0.43285794348E-01  0.83907277488E-01  0.51100000000E-03 0. -1.
</event>
<event>
 8    1  0.1114447E+005  0.1043930E+01  0.7957747E-01            NaN
         13   -1    0    0    0    0  0.00000000000E+00  0.00000000000E+00  0.74505805969E-08  0.10566000000E+00  0.10566000000E+00 0. -1.
     999900   -1    0    0    0    0 -0.00000000000E+00 -0.00000000000E+00 -0.74505805969E-08  0.93827000000E+00  0.93827000000E+00 0.  1.
     999902    2    1    2    0    0  0.18356157403E-01  0.14459699028E-01 -0.29394408422E-02  0.10203785303E+01  0.10201066971E+01 0.  0.
     999903    2    3    3    0    0  0.79082509014E-01 -0.54150820950E-01 -0.88268183687E-01  0.13151628703E+00  0.17857963525E-01 0.  0.
         14    1    1    2    0    0 -0.18356157403E-01 -0.14459699028E-01  0.29394408422E-02  0.23551469658E-01  0.00000000000E+00 0. -1.
     999901    1    3    3    0    0 -0.60726351612E-01  0.68610519977E-01  0.85328742844E-01  0.88886224331E+00  0.88000000000E+00 0. -1.
        -11    1    4    4    0    0  0.38242462248E-01 -0.22796399185E-01 -0.52413830857E-01  0.68772323799E-01  0.51100000000E-03 0.  1.
         11    1    4    4    0    0  0.40840046766E-01 -0.31354421765E-01 -0.35854352829E-01  0.62743963231E-01  0.51100000000E-03 0. -1.
</event>
<event>
 8    1  0.1114447E+005  0.1043930E+01  0.7957747E-01            NaN
         13   -1    0    0    0    0  0.00000000000E+00  0.00000000000E+00  0.74505805969E-08  0.10566000000E+00  0.10566000000E+00 0. -1.
     999900   -1    0    0    0    0 -0.00000000000E+00 -0.00000000000E+00 -0.74505805969E-08  0.93827000000E+00  0.93827000000E+00 0. -1.
     999902    2    1    2    0    0  0.19713194912E-01  0.47978368656E-02 -0.13566037093E-01  0.10195237169E+01  0.10192315452E+01 0.  0.
     999903    2    3    3    0    0  0.34091172561E-01 -0.55941044111E-01 -0.11254454009E+00  0.13177787379E+00  0.20187274562E-01 0.  0.
         14    1    1    2    0    0 -0.19713194912E-01 -0.47978368656E-02  0.13566037093E-01  0.24406283097E-01  0.00000000000E+00 0.  1.
     999901    1    3    3    0    0 -0.14377977649E-01  0.60738880976E-01  0.98978502998E-01  0.88774584311E+00  0.88000000000E+00 0.  1.
        -11    1    4    4    0    0  0.12018103933E-01 -0.37545727276E-01 -0.71899410201E-01  0.81999407114E-01  0.51100000000E-03 0.  1.
         11    1    4    4    0    0  0.22073068628E-01 -0.18395316835E-01 -0.40645129890E-01  0.49778466679E-01  0.51100000000E-03 0. -1.
</event>
<event>
 8    1  0.1114447E+005  0.1043930E+01  0.7957747E-01            NaN
         13   -1    0    0    0    0  0.00000000000E+00  0.00000000000E+00  0.74505805969E-08  0.10566000000E+00  0.10566000000E+00 0. -1.
     999900   -1    0    0    0    0 -0.00000000000E+00 -0.00000000000E+00 -0.74505805969E-08  0.93827000000E+00  0.93827000000E+00 0. -1.
     999902    2    1    2    0    0  0.93613620348E-02 -0.72504868357E-02  0.21020294762E-01  0.10198041332E+01  0.10195187161E+01 0.  0.
     999903    2    3    3    0    0  0.15373249734E-01 -0.10383551401E-01 -0.12487547329E+00  0.12776627858E+00  0.19651543550E-01 0.  0.
         14    1    1    2    0    0 -0.93613620348E-02  0.72504868357E-02 -0.21020294762E-01  0.24125866831E-01  0.00000000000E+00 0.  1.
     999901    1    3    3    0    0 -0.60118876996E-02  0.31330645648E-02  0.14589576806E+00  0.89203785459E+00  0.88000000000E+00 0.  1.
        -11    1    4    4    0    0  0.11503563214E-01 -0.15784270208E-01 -0.10503373856E+00  0.10683549274E+00  0.51100000000E-03 0. -1.
         11    1    4    4    0    0  0.38696865206E-02  0.54007188074E-02 -0.19841734739E-01  0.20930785839E-01  0.51100000000E-03 0.  1.
</event>
<event>
 8    1  0.1114447E+005  0.1043930E+01  0.7957747E-01            NaN
         13   -1    0    0    0    0  0.00000000000E+00  0.00000000000E+00  0.74505805969E-08  0.10566000000E+00  0.10566000000E+00 0.  1.
     999900   -1    0    0    0    0 -0.00000000000E+00 -0.00000000000E+00 -0.74505805969E-08  0.93827000000E+00  0.93827000000E+00 0.  1.
     999902    2    1    2    0    0  0.15483388422E-01  0.17901808367E-01 -0.28049892835E-02  0.10200956126E+01  0.10198171310E+01 0.  0.
     999903    2    3    3    0    0  0.38130281380E-01 -0.93708107635E-01  0.77668528131E-01  0.12911545446E+00  0.20081646471E-01 0.  0.
         14    1    1    2    0    0 -0.15483388422E-01 -0.17901808367E-01  0.28049892835E-02  0.23834387442E-01  0.00000000000E+00 0.  1.
     999901    1    3    3    0    0 -0.22646892957E-01  0.11160991600E+00 -0.80473517415E-01  0.89098015809E+00  0.88000000000E+00 0. -1.
        -11    1    4    4    0    0  0.13926946395E-01 -0.58918758046E-01  0.41560778851E-01  0.73436634899E-01  0.51100000000E-03 0. -1.
         11    1    4    4    0    0  0.24203334984E-01 -0.34789349589E-01  0.36107749280E-01  0.55678819566E-01  0.51100000000E-03 0.  1.
</event>
<event>
 8    1  0.1114447E+005  0.1043930E+01  0.7957747E-01            NaN
         13   -1    0    0    0    0  0.00000000000E+00  0.00000000000E+00  0.74505805969E-08  0.10566000000E+00  0.10566000000E+00 0. -1.
     999900   -1    0    0    0    0 -0.00000000000E+00 -0.00000000000E+00 -0.74505805969E-08  0.93827000000E+00  0.93827000000E+00 0. -1.
     999902    2    1    2    0    0  0.19299998901E-02  0.23216869409E-01 -0.43591689862E-02  0.10202287283E+01  0.10199533851E+01 0.  0.
     999903    2    3    3    0    0  0.42035980823E-01 -0.50341674491E-01 -0.11026189953E+00  0.12992836473E+00  0.20552021790E-01 0.  0.
         14    1    1    2    0    0 -0.19299998901E-02 -0.23216869409E-01  0.43591689862E-02  0.23701271674E-01  0.00000000000E+00 0. -1.
     999901    1    3    3    0    0 -0.40105980933E-01  0.73558543900E-01  0.10590273054E+00  0.89030036360E+00  0.88000000000E+00 0.  1.
        -11    1    4    4    0    0  0.91373274495E-02 -0.94236730565E-02 -0.40749156849E-01  0.42814148032E-01  0.51100000000E-03 0.  1.
         11    1    4    4    0    0  0.32898653374E-01 -0.40918001435E-01 -0.69512742676E-01  0.87114216696E-01  0.51100000000E-03 0. -1.
</event>
<event>
 8    1  0.1114447E+005  0.1043930E+01  0.7957747E-01            NaN
         13   -1    0    0    0    0  0.00000000000E+00  0.00000000000E+00  0.74505805969E-08  0.10566000000E+00  0.10566000000E+00 0.  1.
     999900   -1    0    0    0    0 -0.00000000000E+00 -0.00000000000E+00 -0.74505805969E-08  0.93827000000E+00  0.93827000000E+00 0.  1.
     999902    2    1    2    0    0  0.19588396607E-01  0.12586830018E-01  0.25091420163E-02  0.10205114312E+01  0.10202426926E+01 0.  0.
     999903    2    3    3    0    0 -0.43194042700E-01  0.28011394480E-01 -0.11765299248E+00  0.12999557482E+00  0.20155874809E-01 0.  0.
         14    1    1    2    0    0 -0.19588396607E-01 -0.12586830018E-01 -0.25091420163E-02  0.23418568811E-01  0.00000000000E+00 0.  1.
     999901    1    3    3    0    0  0.62782439307E-01 -0.15424564463E-01  0.12016213449E+00  0.89051585637E+00  0.88000000000E+00 0. -1.
        -11    1    4    4    0    0 -0.94440581514E-02  0.74689944784E-02 -0.51921321534E-01  0.53301602825E-01  0.51100000000E-03 0.  1.
         11    1    4    4    0    0 -0.33749984549E-01  0.20542400002E-01 -0.65731670942E-01  0.76693971997E-01  0.51100000000E-03 0. -1.
</event>
<event>
 8    1  0.1114447E+005  0.1043930E+01  0.7957747E-01            NaN
         13   -1    0    0    0    0  0.00000000000E+00  0.00000000000E+00  0.74505805969E-08  0.10566000000E+00  0.10566000000E+00 0.  1.
     999900   -1    0    0    0    0 -0.00000000000E+00 -0.00000000000E+00 -0.74505805969E-08  0.93827000000E+00  0.93827000000E+00 0. -1.
     999902    2    1    2    0    0 -0.72870949243E-02  0.18034565807E-01 -0.11658993670E-01  0.10212522697E+01  0.10210004501E+01 0.  0.
     999903    2    3    3    0    0 -0.92523813189E-01 -0.48837333477E-01  0.75119001957E-01  0.13037204795E+00  0.20205575561E-01 0.  0.
         14    1    1    2    0    0  0.72870949243E-02 -0.18034565807E-01  0.11658993670E-01  0.22677730258E-01  0.00000000000E+00 0.  1.
     999901    1    3    3    0    0  0.85236718264E-01  0.66871899283E-01 -0.86777995626E-01  0.89088022179E+00  0.88000000000E+00 0. -1.
        -11    1    4    4    0    0 -0.64633502588E-01 -0.23998899201E-01  0.44345702331E-01  0.81977065426E-01  0.51100000000E-03 0.  1.
         11    1    4    4    0    0 -0.27890310600E-01 -0.24838434275E-01  0.30773299626E-01  0.48394982524E-01  0.51100000000E-03 0. -1.
</event>
<event>
 8    1  0.1114447E+005  0.1043930E+01  0.7957747E-01            NaN
         13   -1    0    0    0    0  0.00000000000E+00  0.00000000000E+00  0.74505805969E-08  0.10566000000E+00  0.10566000000E+00 0.  1.
     999900   -1    0    0    0    0 -0.00000000000E+00 -0.00000000000E+00 -0.74505805969E-08  0.93827000000E+00  0.93827000000E+00 0. -1.
     999902    2    1    2    0    0 -0.78714300858E-02  0.21663826023E-01  0.91481301757E-02  0.10191314304E+01  0.10188296734E+01 0.  0.
     999903    2    3    3    0    0 -0.56317236476E-01 -0.10764448896E+00 -0.32704612865E-01  0.12738074292E+00  0.19932256198E-01 0.  0.
         14    1    1    2    0    0  0.78714300858E-02 -0.21663826023E-01 -0.91481301757E-02  0.24798569621E-01  0.00000000000E+00 0.  1.
     999901    1    3    3    0    0  0.48445806390E-01  0.12930831498E+00  0.41852743041E-01  0.89175068746E+00  0.88000000000E+00 0.  1.
        -11    1    4    4    0    0 -0.42691724326E-01 -0.63347660731E-01 -0.25120403248E-01  0.80416448730E-01  0.51100000000E-03 0.  1.
         11    1    4    4    0    0 -0.13625512150E-01 -0.44296828228E-01 -0.75842096165E-02  0.46964294192E-01  0.51100000000E-03 0. -1.
</event>
<event>
 8    1  0.1114447E+005  0.1043930E+01  0.7957747E-01            NaN
         13   -1    0    0    0    0  0.00000000000E+00  0.00000000000E+00  0.74505805969E-08  0.10566000000E+00  0.10566000000E+00 0.  1.
     999900   -1    0    0    0    0 -0.00000000000E+00 -0.00000000000E+00 -0.74505805969E-08  0.93827000000E+00  0.93827000000E+00 0.  1.
     999902    2    1    2    0    0 -0.48393792605E-02  0.21718324702E-01  0.84243635258E-02  0.10201376668E+01  0.10198601787E+01 0.  0.
     999903    2    3    3    0    0  0.17007022437E-03  0.67298851402E-01 -0.11056043196E+00  0.13094698950E+00  0.19858011440E-01 0.  0.
         14    1    1    2    0    0  0.48393792605E-02 -0.21718324702E-01 -0.84243635258E-02  0.23792333225E-01  0.00000000000E+00 0. -1.
     999901    1    3    3    0    0 -0.50094494848E-02 -0.45580526700E-01  0.11898479549E+00  0.88919067728E+00  0.88000000000E+00 0. -1.
        -11    1    4    4    0    0  0.99549289998E-03  0.24296854551E-01 -0.58898186333E-01  0.63722724530E-01  0.51100000000E-03 0. -1.
         11    1    4    4    0    0 -0.82542267561E-03  0.43001996850E-01 -0.51662245631E-01  0.67224264967E-01  0.51100000000E-03 0.  1.
</event>
<event>
 8    1  0.1114447E+005  0.1043930E+01  0.7957747E-01            NaN
         13   -1    0    0    0    0  0.00000000000E+00  0.00000000000E+00  0.74505805969E-08  0.10566000000E+00  0.10566000000E+00 0.  1.
     999900   -1    0    0    0    0 -0.00000000000E+00 -0.00000000000E+00 -0.74505805969E-08  0.93827000000E+00  0.93827000000E+00 0.  1.
     999902    2    1    2    0    0 -0.90085799312E-02  0.70965624805E-02 -0.19938181198E-01  0.10209289830E+01  0.10206698495E+01 0.  0.
     999903    2    3    3    0    0 -0.12279400787E+00 -0.43295019270E-01 -0.11105192981E-01  0.13212953615E+00  0.19546405043E-01 0.  0.
         14    1    1    2    0    0  0.90085799312E-02 -0.70965624805E-02  0.19938181198E-01  0.23001016954E-01  0.00000000000E+00 0.  1.
     999901    1    3    3    0    0  0.11378542794E+00  0.50391581750E-01 -0.88329882171E-02  0.88879944690E+00  0.88000000000E+00 0.  1.
        -11    1    4    4    0    0 -0.39491381919E-01 -0.23702152376E-01 -0.50816361971E-02  0.46340537551E-01  0.51100000000E-03 0.  1.
         11    1    4    4    0    0 -0.83302625950E-01 -0.19592866894E-01 -0.60235567838E-02  0.85788998599E-01  0.51100000000E-03 0. -1.
</event>
<event>
 8    1  0.1114447E+005  0.1043930E+01  0.7957747E-01            NaN
         13   -1    0    0    0    0  0.00000000000E+00  0.00000000000E+00  0.74505805969E-08  0.10566000000E+00  0.10566000000E+00 0. -1.
     999900   -1    0    0    0    0 -0.00000000000E+00 -0.00000000000E+00 -0.74505805969E-08  0.93827000000E+00  0.93827000000E+00 0.  1.
     999902    2    1    2    0    0 -0.41739145802E-02 -0.28353663408E-02 -0.24079841087E-01  0.10193271625E+01  0.10190302079E+01 0.  0.
     999903    2    3    3    0    0  0.67420972213E-01 -0.28496650144E-01 -0.10806347134E+00  0.13206306461E+00  0.20131880949E-01 0.  0.
         14    1    1    2    0    0  0.41739145802E-02  0.28353663408E-02  0.24079841087E-01  0.24602837478E-01  0.00000000000E+00 0. -1.
     999901    1    3    3    0    0 -0.71594886793E-01  0.25661283803E-01  0.83983630257E-01  0.88726409792E+00  0.88000000000E+00 0. -1.
        -11    1    4    4    0    0  0.23384311770E-01 -0.18783159519E-01 -0.52872461277E-01  0.60789731049E-01  0.51100000000E-03 0.  1.
         11    1    4    4    0    0  0.44036660443E-01 -0.97134906245E-02 -0.55191010066E-01  0.71273333556E-01  0.51100000000E-03 0. -1.
</event>
<event>
 8    1  0.1114447E+005  0.1043930E+01  0.7957747E-01            NaN
         13   -1    0    0    0    0  0.00000000000E+00  0.00000000000E+00  0.74505805969E-08  0.10566000000E+00  0.10566000000E+00 0.  1.
     999900   -1    0    0    0    0 -0.00000000000E+00 -0.00000000000E+00 -0.74505805969E-08  0.93827000000E+00  0.93827000000E+00 0. -1.
     999902    2    1    2    0    0 -0.10457751386E-01 -0.20164879090E-01 -0.57185004860E-02  0.10205059064E+01  0.10202370395E+01 0.  0.
     999903    2    3    3    0    0  0.93600036534E-01  0.34324785389E-01  0.79092031140E-01  0.12865952219E+00  0.18935826633E-01 0.  0.
         14    1    1    2    0    0  0.10457751386E-01  0.20164879090E-01  0.57185004860E-02  0.23424093591E-01  0.00000000000E+00 0. -1.
     999901    1    3    3    0    0 -0.10405778792E+00 -0.54489664479E-01 -0.84810531626E-01  0.89184638421E+00  0.88000000000E+00 0.  1.
        -11    1    4    4    0    0  0.25059096080E-01  0.86602025988E-03  0.22378187822E-01  0.33611794041E-01  0.51100000000E-03 0. -1.
         11    1    4    4    0    0  0.68540940453E-01  0.33458765129E-01  0.56713843318E-01  0.95047728154E-01  0.51100000000E-03 0.  1.
</event>
<event>
 8    1  0.1114447E+005  0.1043930E+01  0.7957747E-01            NaN
         13   -1    0    0    0    0  0.00000000000E+00  0.00000000000E+00  0.74505805969E-08  0.10566000000E+00  0.10566000000E+00 0.  1.
     999900   -1    0    0    0    0 -0.00000000000E+00 -0.00000000000E+00 -0.74505805969E-08  0.93827000000E+00  0.93827000000E+00 0. -1.
     999902    2    1    2    0    0 -0.99005248609E-02 -0.19184755302E-01  0.60258259205E-02  0.10215160355E+01  0.10212701038E+01 0.  0.
     999903    2    3    3    0    0 -0.10670869729E+00  0.29454898722E-01  0.70117527438E-01  0.13255856494E+00  0.20024194050E-01 0.  0.
         14    1    1    2    0    0  0.99005248609E-02  0.19184755302E-01 -0.60258259205E-02  0.22413964543E-01  0.00000000000E+00 0. -1.
     999901    1    3    3    0    0  0.96808172431E-01 -0.48639654024E-01 -0.64091701517E-01  0.88895747052E+00  0.88000000000E+00 0. -1.
        -11    1    4    4    0    0 -0.56686651737E-01  0.17010925288E-01  0.49054099978E-01  0.76872061960E-01  0.51100000000E-03 0. -1.
         11    1    4    4    0    0 -0.50022045554E-01  0.12443973434E-01  0.21063427460E-01  0.55686502975E-01  0.51100000000E-03 0.  1.
</event>
<event>
 8    1  0.1114447E+005  0.1043930E+01  0.7957747E-01            NaN
         13   -1    0    0    0    0  0.00000000000E+00  0.00000000000E+00  0.74505805969E-08  0.10566000000E+00  0.10566000000E+00 0. -1.
     999900   -1    0    0    0    0 -0.00000000000E+00 -0.00000000000E+00 -0.74505805969E-08  0.93827000000E+00  0.93827000000E+00 0. -1.
     999902    2    1    2    0    0 -0.14478577003E-01  0.63642444798E-02  0.15870164785E-01  0.10215247566E+01  0.10212790184E+01 0.  0.
     999903    2    3    3    0    0 -0.12265472505E+00 -0.37965950480E-01  0.31713208072E-01  0.13365187879E+00  0.19274391419E-01 0.  0.
         14    1    1    2    0    0  0.14478577003E-01 -0.63642444798E-02 -0.15870164785E-01  0.22405243362E-01  0.00000000000E+00 0.  1.
     999901    1    3    3    0    0  0.10817614805E+00  0.44330194960E-01 -0.15843043287E-01  0.88787287785E+00  0.88000000000E+00 0. -1.
        -11    1    4    4    0    0 -0.38356343125E-01 -0.91793595000E-02  0.18614406732E-01  0.43614526912E-01  0.51100000000E-03 0. -1.
         11    1    4    4    0    0 -0.84298381930E-01 -0.28786590980E-01  0.13098801340E-01  0.90037351881E-01  0.51100000000E-03 0.  1.
</event>
<event>
 8    1  0.1114447E+005  0.1043930E+01  0.7957747E-01            NaN
         13   -1    0    0    0    0  0.00000000000E+00  0.00000000000E+00  0.74505805969E-08  0.10566000000E+00  0.10566000000E+00 0.  1.
     999900   -1    0    0    0    0 -0.00000000000E+00 -0.00000000000E+00 -0.74505805969E-08  0.93827000000E+00  0.93827000000E+00 0. -1.
     999902    2    1    2    0    0  0.53044740515E-02  0.15151079250E-01  0.17228121536E-01  0.10203821589E+01  0.10201104104E+01 0.  0.
     999903    2    3    3    0    0  0.27643474285E-01 -0.11706918400E+00  0.44664041288E-01  0.12980147273E+00  0.19600771042E-01 0.  0.
         14    1    1    2    0    0 -0.53044740515E-02 -0.15151079250E-01 -0.17228121536E-01  0.23547841070E-01  0.00000000000E+00 0.  1.
     999901    1    3    3    0    0 -0.22339000233E-01  0.13222026325E+00 -0.27435919752E-01  0.89058068620E+00  0.88000000000E+00 0.  1.
        -11    1    4    4    0    0  0.15356370179E-01 -0.28753721081E-01  0.95779533251E-02  0.33979300934E-01  0.51100000000E-03 0.  1.
         11    1    4    4    0    0  0.12287104106E-01 -0.88315462917E-01  0.35086087963E-01  0.95822171793E-01  0.51100000000E-03 0. -1.
</event>
<event>
 8    1  0.1114447E+005  0.1043930E+01  0.7957747E-01            NaN
         13   -1    0    0    0    0  0.00000000000E+00  0.00000000000E+00  0.74505805969E-08  0.10566000000E+00  0.10566000000E+00 0.  1.
     999900   -1    0    0    0    0 -0.00000000000E+00 -0.00000000000E+00 -0.74505805969E-08  0.93827000000E+00  0.93827000000E+00 0.  1.
     999902    2    1    2    0    0 -0.96310087477E-02 -0.14992431257E-01  0.15270800581E-01  0.10204624336E+01  0.10201925561E+01 0.  0.
     999903    2    3    3    0    0 -0.37481050400E-01  0.72952241685E-01  0.10107470334E+00  0.13148988052E+00  0.18618118020E-01 0.  0.
         14    1    1    2    0    0  0.96310087477E-02  0.14992431257E-01 -0.15270800581E-01  0.23467566446E-01  0.00000000000E+00 0. -1.
     999901    1    3    3    0    0  0.27850041653E-01 -0.87944672942E-01 -0.85803902756E-01  0.88897255303E+00  0.88000000000E+00 0.  1.
        -11    1    4    4    0    0 -0.37967038178E-02  0.15434368356E-01  0.30598294810E-01  0.34484075349E-01  0.51100000000E-03 0.  1.
         11    1    4    4    0    0 -0.33684346582E-01  0.57517873329E-01  0.70476408527E-01  0.97005805171E-01  0.51100000000E-03 0. -1.
</event>
<event>
 8    1  0.1114447E+005  0.1043930E+01  0.7957747E-01            NaN
         13   -1    0    0    0    0  0.00000000000E+00  0.00000000000E+00  0.74505805969E-08  0.10566000000E+00  0.10566000000E+00 0. -1.
     999900   -1    0    0    0    0 -0.00000000000E+00 -0.00000000000E+00 -0.74505805969E-08  0.93827000000E+00  0.93827000000E+00 0.  1.
     999902    2    1    2    0    0  0.69726644461E-03  0.11130364888E-01 -0.20648446214E-01  0.10204623726E+01  0.10201924938E+01 0.  0.
     999903    2    3    3    0    0  0.36432822150E-02  0.11119508146E+00 -0.70714594736E-01  0.13337261070E+00  0.20250425396E-01 0.  0.
         14    1    1    2    0    0 -0.69726644461E-03 -0.11130364888E-01  0.20648446214E-01  0.23467627363E-01  0.00000000000E+00 0. -1.
     999901    1    3    3    0    0 -0.29460157704E-02 -0.10006471657E+00  0.50066148523E-01  0.88708976194E+00  0.88000000000E+00 0. -1.
        -11    1    4    4    0    0  0.53062834216E-02  0.22143444488E-01 -0.22828996281E-01  0.32247681618E-01  0.51100000000E-03 0.  1.
         11    1    4    4    0    0 -0.16630012066E-02  0.89051636973E-01 -0.47885598456E-01  0.10112492908E+00  0.51100000000E-03 0. -1.
</event>
<event>
 8    1  0.1114447E+005  0.1043930E+01  0.7957747E-01            NaN
         13   -1    0    0    0    0  0.00000000000E+00  0.00000000000E+00  0.74505805969E-08  0.10566000000E+00  0.10566000000E+00 0.  1.
     999900   -1    0    0    0    0 -0.00000000000E+00 -0.00000000000E+00 -0.74505805969E-08  0.93827000000E+00  0.93827000000E+00 0. -1.
     999902    2    1    2    0    0  0.73654801057E-02  0.24590505428E-01  0.64926063356E-02  0.10174517600E+01  0.10171071658E+01 0.  0.
     999903    2    3    3    0    0 -0.60604314708E-01  0.14244558078E-01 -0.10906953909E+00  0.12723743692E+00  0.20430628992E-01 0.  0.
         14    1    1    2    0    0 -0.73654801057E-02 -0.24590505428E-01 -0.64926063356E-02  0.26478239961E-01  0.00000000000E+00 0.  1.
     999901    1    3    3    0    0  0.67969794813E-01  0.10345947350E-01  0.11556214542E+00  0.89021432312E+00  0.88000000000E+00 0.  1.
        -11    1    4    4    0    0 -0.42060476321E-01  0.18835578245E-01 -0.71121108444E-01  0.84748662901E-01  0.51100000000E-03 0.  1.
         11    1    4    4    0    0 -0.18543838386E-01 -0.45910201670E-02 -0.37948430643E-01  0.42488774018E-01  0.51100000000E-03 0. -1.
</event>
<event>
 8    1  0.1114447E+005  0.1043930E+01  0.7957747E-01            NaN
         13   -1    0    0    0    0  0.00000000000E+00  0.00000000000E+00  0.74505805969E-08  0.10566000000E+00  0.10566000000E+00 0. -1.
     999900   -1    0    0    0    0 -0.00000000000E+00 -0.00000000000E+00 -0.74505805969E-08  0.93827000000E+00  0.93827000000E+00 0. -1.
     999902    2    1    2    0    0 -0.20779235018E-01  0.34408470741E-02  0.70659896785E-02  0.10217141443E+01  0.10214725881E+01 0.  0.
     999903    2    3    3    0    0  0.11110524005E+00 -0.16926742802E-01 -0.60734126899E-01  0.12907468216E+00  0.18459426196E-01 0.  0.
         14    1    1    2    0    0  0.20779235018E-01 -0.34408470741E-02 -0.70659896785E-02  0.22215855749E-01  0.00000000000E+00 0.  1.
     999901    1    3    3    0    0 -0.13188447507E+00  0.20367589876E-01  0.67800116577E-01  0.89263946209E+00  0.88000000000E+00 0.  1.
        -11    1    4    4    0    0  0.68099337798E-01 -0.43459607309E-02 -0.28901599838E-01  0.74107832093E-01  0.51100000000E-03 0. -1.
         11    1    4    4    0    0  0.43005902250E-01 -0.12580782071E-01 -0.31832527061E-01  0.54966850064E-01  0.51100000000E-03 0.  1.
</event>
<event>
 8    1  0.1114447E+005  0.1043930E+01  0.7957747E-01            NaN
         13   -1    0    0    0    0  0.00000000000E+00  0.00000000000E+00  0.74505805969E-08  0.10566000000E+00  0.10566000000E+00 0.  1.
     999900   -1    0    0    0    0 -0.00000000000E+00 -0.00000000000E+00 -0.74505805969E-08  0.93827000000E+00  0.93827000000E+00 0. -1.
     999902    2    1    2    0    0 -0.10441604284E-01 -0.24354716697E-01  0.17786914308E-02  0.10173717043E+01  0.10170249956E+01 0.  0.
     999903    2    3    3    0    0  0.10501789899E+00  0.25551486812E-01 -0.61903113830E-01  0.12614956684E+00  0.20002002997E-01 0.  0.
         14    1    1    2    0    0  0.10441604284E-01  0.24354716697E-01 -0.17786914308E-02  0.26558295665E-01  0.00000000000E+00 0. -1.
     999901    1    3    3    0    0 -0.11545950328E+00 -0.49906203509E-01  0.63681805261E-01  0.89122213750E+00  0.88000000000E+00 0.  1.
        -11    1    4    4    0    0  0.54080663318E-01  0.11604102157E-01 -0.42972084427E-01  0.70044517935E-01  0.51100000000E-03 0.  1.
         11    1    4    4    0    0  0.50937235675E-01  0.13947384655E-01 -0.18931029403E-01  0.56105048901E-01  0.51100000000E-03 0. -1.
</event>
<event>
 8    1  0.1114447E+005  0.1043930E+01  0.7957747E-01            NaN
         13   -1    0    0    0    0  0.00000000000E+00  0.00000000000E+00  0.74505805969E-08  0.10566000000E+00  0.10566000000E+00 0. -1.
     999900   -1    0    0    0    0 -0.00000000000E+00 -0.00000000000E+00 -0.74505805969E-08  0.93827000000E+00  0.93827000000E+00 0.  1.
     999902    2    1    2    0    0 -0.14725933488E-02 -0.22841421870E-01 -0.28395867504E-02  0.10208656913E+01  0.10206051133E+01 0.  0.
     999903    2    3    3    0    0  0.30363385505E-01 -0.14504093875E-01 -0.12571265496E+00  0.13171956634E+00  0.20348676178E-01 0.  0.
         14    1    1    2    0    0  0.14725933488E-02  0.22841421870E-01  0.28395867504E-02  0.23064308729E-01  0.00000000000E+00 0.  1.
     999901    1    3    3    0    0 -0.31835978854E-01 -0.83373279945E-02  0.12287306821E+00  0.88914612493E+00  0.88000000000E+00 0. -1.
        -11    1    4    4    0    0  0.48641688031E-02 -0.12353041745E-01 -0.34040578974E-01  0.36541482131E-01  0.51100000000E-03 0.  1.
         11    1    4    4    0    0  0.25499216702E-01 -0.21510521306E-02 -0.91672075984E-01  0.95178084210E-01  0.51100000000E-03 0. -1.
</event>
<event>
 8    1  0.1114447E+005  0.1043930E+01  0.7957747E-01            NaN
         13   -1    0    0    0    0  0.00000000000E+00  0.00000000000E+00  0.74505805969E-08  0.10566000000E+00  0.10566000000E+00 0.  1.
     999900   -1    0    0    0    0 -0.00000000000E+00 -0.00000000000E+00 -0.74505805969E-08  0.93827000000E+00  0.93827000000E+00 0.  1.
     999902    2    1    2    0    0 -0.15186759507E-01  0.17476474202E-01 -0.18335710857E-02  0.10207044365E+01  0.10204401599E+01 0.  0.
     999903    2    3    3    0    0  0.12641924644E+00  0.26312725656E-02  0.17328927101E-01  0.12905436939E+00  0.19130841013E-01 0.  0.
         14    1    1    2    0    0  0.15186759507E-01 -0.17476474202E-01  0.18335710857E-02  0.23225563454E-01  0.00000000000E+00 0. -1.
     999901    1    3    3    0    0 -0.14160600594E+00  0.14845201636E-01 -0.19162498187E-01  0.89165006716E+00  0.88000000000E+00 0. -1.
        -11    1    4    4    0    0  0.72840636279E-02 -0.43284009373E-02  0.21249034188E-02  0.87503698864E-02  0.51100000000E-03 0.  1.
         11    1    4    4    0    0  0.11913518281E+00  0.69596735029E-02  0.15204023683E-01  0.12030399950E+00  0.51100000000E-03 0. -1.
</event>
<event>
 8    1  0.1114447E+005  0.1043930E+01  0.7957747E-01            NaN
         13   -1    0    0    0    0  0.00000000000E+00  0.00000000000E+00  0.74505805969E-08  0.10566000000E+00  0.10566000000E+00 0.  1.
     999900   -1    0    0    0    0 -0.00000000000E+00 -0.00000000000E+00 -0.74505805969E-08  0.93827000000E+00  0.93827000000E+00 0. -1.
     999902    2    1    2    0    0 -0.17068321243E-02  0.15979086746E-02  0.23330655565E-01  0.10204824825E+01  0.10202130714E+01 0.  0.
     999903    2    3    3    0    0  0.63537194732E-01 -0.10645716040E+00 -0.32484756005E-01  0.12972547794E+00  0.20083280084E-01 0.  0.
         14    1    1    2    0    0  0.17068321243E-02 -0.15979086746E-02 -0.23330655565E-01  0.23447517505E-01  0.00000000000E+00 0. -1.
     999901    1    3    3    0    0 -0.65244026856E-01  0.10805506908E+00  0.55815411570E-01  0.89075700455E+00  0.88000000000E+00 0.  1.
        -11    1    4    4    0    0  0.51437980538E-01 -0.80762416122E-01 -0.16604388516E-01  0.97182305688E-01  0.51100000000E-03 0. -1.
         11    1    4    4    0    0  0.12099214193E-01 -0.25694744281E-01 -0.15880367489E-01  0.32543172253E-01  0.51100000000E-03 0.  1.
</event>
<event>
 8    1  0.1114447E+005  0.1043930E+01  0.7957747E-01            NaN
         13   -1    0    0    0    0  0.00000000000E+00  0.00000000000E+00  0.74505805969E-08  0.10566000000E+00  0.10566000000E+00 0.  1.
     999900   -1    0    0    0    0 -0.00000000000E+00 -0.00000000000E+00 -0.74505805969E-08  0.93827000000E+00  0.93827000000E+00 0. -1.
     999902    2    1    2    0    0 -0.20561893005E-01 -0.35883008380E-02  0.10933108706E-01  0.10203673131E+01  0.10200952178E+01 0.  0.
     999903    2    3    3    0    0  0.82730622021E-01  0.92521186076E-01  0.23180127944E-01  0.12904449472E+00  0.26657786705E-01 0.  0.
         14    1    1    2    0    0  0.20561893005E-01  0.35883008380E-02 -0.10933108706E-01  0.23562686876E-01  0.00000000000E+00 0. -1.
     999901    1    3    3    0    0 -0.10329251503E+00 -0.96109486914E-01 -0.12247019238E-01  0.89132281841E+00  0.88000000000E+00 0. -1.
        -11    1    4    4    0    0  0.38548971384E-01  0.34322154415E-01 -0.22736047658E-02  0.51666854733E-01  0.51100000000E-03 0.  1.
         11    1    4    4    0    0  0.44181650637E-01  0.58199031661E-01  0.25453732710E-01  0.77377639982E-01  0.51100000000E-03 0. -1.
</event>
<event>
 8    1  0.1114447E+005  0.1043930E+01  0.7957747E-01            NaN
         13   -1    0    0    0    0  0.00000000000E+00  0.00000000000E+00  0.74505805969E-08  0.10566000000E+00  0.10566000000E+00 0.  1.
     999900   -1    0    0    0    0 -0.00000000000E+00 -0.00000000000E+00 -0.74505805969E-08  0.93827000000E+00  0.93827000000E+00 0.  1.
     999902    2    1    2    0    0  0.14806273962E-01  0.50010323278E-02 -0.17698543669E-01  0.10203191016E+01  0.10200458787E+01 0.  0.
     999903    2    3    3    0    0  0.61824423801E-01 -0.36063617044E-02 -0.11347362814E+00  0.13383297065E+00  0.34637184150E-01 0.  0.
         14    1    1    2    0    0 -0.14806273962E-01 -0.50010323278E-02  0.17698543669E-01  0.23610898352E-01  0.00000000000E+00 0.  1.
     999901    1    3    3    0    0 -0.47018149839E-01  0.86073940322E-02  0.95775084474E-01  0.88648613100E+00  0.88000000000E+00 0. -1.
        -11    1    4    4    0    0  0.34698586434E-01 -0.17462127371E-01 -0.77512556802E-01  0.86702799123E-01  0.51100000000E-03 0.  1.
         11    1    4    4    0    0  0.27125837368E-01  0.13855765667E-01 -0.35961071341E-01  0.47130171526E-01  0.51100000000E-03 0. -1.
</event>
<event>
 8    1  0.1114447E+005  0.1043930E+01  0.7957747E-01            NaN
         13   -1    0    0    0    0  0.00000000000E+00  0.00000000000E+00  0.74505805969E-08  0.10566000000E+00  0.10566000000E+00 0. -1.
     999900   -1    0    0    0    0 -0.00000000000E+00 -0.00000000000E+00 -0.74505805969E-08  0.93827000000E+00  0.93827000000E+00 0. -1.
     999902    2    1    2    0    0 -0.78334629553E-02 -0.13615063267E-01 -0.15513505881E-01  0.10218528182E+01  0.10216143011E+01 0.  0.
     999903    2    3    3    0    0 -0.11658794310E+00  0.54549554870E-01  0.19918739759E-01  0.13183630371E+00  0.20387554273E-01 0.  0.
         14    1    1    2    0    0  0.78334629553E-02  0.13615063267E-01  0.15513505881E-01  0.22077181758E-01  0.00000000000E+00 0. -1.
     999901    1    3    3    0    0  0.10875448014E+00 -0.68164618137E-01 -0.35432245641E-01  0.89001651454E+00  0.88000000000E+00 0. -1.
        -11    1    4    4    0    0 -0.62820779815E-01  0.21450268514E-01  0.17488816515E-01  0.68648992855E-01  0.51100000000E-03 0. -1.
         11    1    4    4    0    0 -0.53767163282E-01  0.33099286356E-01  0.24299232447E-02  0.63187310851E-01  0.51100000000E-03 0.  1.
</event>
<event>
 8    1  0.1114447E+005  0.1043930E+01  0.7957747E-01            NaN
         13   -1    0    0    0    0  0.00000000000E+00  0.00000000000E+00  0.74505805969E-08  0.10566000000E+00  0.10566000000E+00 0. -1.
     999900   -1    0    0    0    0 -0.00000000000E+00 -0.00000000000E+00 -0.74505805969E-08  0.93827000000E+00  0.93827000000E+00 0.  1.
     999902    2    1    2    0    0  0.16204933432E-01  0.33003664955E-02 -0.17254504065E-01  0.10200299959E+01  0.10197499607E+01 0.  0.
     999903    2    3    3    0    0  0.84630495552E-01  0.94682272283E-01 -0.32768456812E-01  0.13252033791E+00  0.18995123999E-01 0.  0.
         14    1    1    2    0    0 -0.16204933432E-01 -0.33003664955E-02  0.17254504065E-01  0.23900004123E-01  0.00000000000E+00 0. -1.
     999901    1    3    3    0    0 -0.68425562120E-01 -0.91381905787E-01  0.15513952747E-01  0.88750965797E+00  0.88000000000E+00 0. -1.
        -11    1    4    4    0    0  0.47467713585E-01  0.61871373245E-01 -0.27381519248E-01  0.82651433004E-01  0.51100000000E-03 0.  1.
         11    1    4    4    0    0  0.37162781966E-01  0.32810899038E-01 -0.53869375642E-02  0.49868904906E-01  0.51100000000E-03 0. -1.
</event>
<event>
 8    1  0.1114447E+005  0.1043930E+01  0.7957747E-01            NaN
         13   -1    0    0    0    0  0.00000000000E+00  0.00000000000E+00  0.74505805969E-08  0.10566000000E+00  0.10566000000E+00 0. -1.
     999900   -1    0    0    0    0 -0.00000000000E+00 -0.00000000000E+00 -0.74505805969E-08  0.93827000000E+00  0.93827000000E+00 0.  1.
     999902    2    1    2    0    0  0.16469390700E-01 -0.14491594888E-01  0.79102949381E-02  0.10206100532E+01  0.10203435994E+01 0.  0.
     999903    2    3    3    0    0  0.42151805781E-01 -0.10331524799E+00 -0.68673117186E-01  0.13245790025E+00  0.19449501696E-01 0.  0.
         14    1    1    2    0    0 -0.16469390700E-01  0.14491594888E-01 -0.79102949381E-02  0.23319946793E-01  0.00000000000E+00 0.  1.
     999901    1    3    3    0    0 -0.25682415081E-01  0.88823653101E-01  0.76583412124E-01  0.88815215296E+00  0.88000000000E+00 0.  1.
        -11    1    4    4    0    0  0.23097392817E-01 -0.63567655547E-01 -0.52053193780E-01  0.85347129363E-01  0.51100000000E-03 0. -1.
         11    1    4    4    0    0  0.19054412965E-01 -0.39747592442E-01 -0.16619923406E-01  0.47110770885E-01  0.51100000000E-03 0.  1.
</event>
<event>
 8    1  0.1114447E+005  0.1043930E+01  0.7957747E-01            NaN
         13   -1    0    0    0    0  0.00000000000E+00  0.00000000000E+00  0.74505805969E-08  0.10566000000E+00  0.10566000000E+00 0.  1.
     999900   -1    0    0    0    0 -0.00000000000E+00 -0.00000000000E+00 -0.74505805969E-08  0.93827000000E+00  0.93827000000E+00 0. -1.
     999902    2    1    2    0    0  0.15969169902E-02  0.20723436789E-01  0.88832366967E-02  0.10213263970E+01  0.10210762392E+01 0.  0.
     999903    2    3    3    0    0  0.99256232453E-01 -0.81092922823E-01  0.90620810297E-02  0.13008908571E+00  0.20327004080E-01 0.  0.
         14    1    1    2    0    0 -0.15969169902E-02 -0.20723436789E-01 -0.88832366967E-02  0.22603603041E-01  0.00000000000E+00 0. -1.
     999901    1    3    3    0    0 -0.97659315463E-01  0.10181635961E+00 -0.17884433293E-03  0.89123731125E+00  0.88000000000E+00 0. -1.
        -11    1    4    4    0    0  0.22312299381E-01 -0.21918320740E-01 -0.60224662151E-02  0.31855654256E-01  0.51100000000E-03 0.  1.
         11    1    4    4    0    0  0.76943933072E-01 -0.59174602083E-01  0.15084547245E-01  0.98233431452E-01  0.51100000000E-03 0. -1.
</event>
<event>
 8    1  0.1114447E+005  0.1043930E+01  0.7957747E-01            NaN
         13   -1    0    0    0    0  0.00000000000E+00  0.00000000000E+00  0.74505805969E-08  0.10566000000E+00  0.10566000000E+00 0.  1.
     999900   -1    0    0    0    0 -0.00000000000E+00 -0.00000000000E+00 -0.74505805969E-08  0.93827000000E+00  0.93827000000E+00 0.  1.
     999902    2    1    2    0    0  0.22644954545E-01  0.44331296590E-02 -0.54220209772E-02  0.10202267319E+01  0.10199513418E+01 0.  0.
     999903    2    3    3    0    0 -0.74330072979E-01  0.63156796233E-01 -0.82811947997E-01  0.12958548780E+00  0.20514367080E-01 0.  0.
         14    1    1    2    0    0 -0.22644954545E-01 -0.44331296590E-02  0.54220209772E-02  0.23703268053E-01  0.00000000000E+00 0. -1.
     999901    1    3    3    0    0  0.96975027524E-01 -0.58723666574E-01  0.77389927020E-01  0.89064124415E+00  0.88000000000E+00 0. -1.
        -11    1    4    4    0    0 -0.51751449089E-01  0.47738661509E-01 -0.70358581491E-01  0.99537849062E-01  0.51100000000E-03 0. -1.
         11    1    4    4    0    0 -0.22578623890E-01  0.15418134724E-01 -0.12453366506E-01  0.30047638734E-01  0.51100000000E-03 0.  1.
</event>
<event>
 8    1  0.1114447E+005  0.1043930E+01  0.7957747E-01            NaN
         13   -1    0    0    0    0  0.00000000000E+00  0.00000000000E+00  0.74505805969E-08  0.10566000000E+00  0.10566000000E+00 0.  1.
     999900   -1    0    0    0    0 -0.00000000000E+00 -0.00000000000E+00 -0.74505805969E-08  0.93827000000E+00  0.93827000000E+00 0. -1.
     999902    2    1    2    0    0 -0.72493890010E-02  0.69071232345E-02  0.21797393939E-01  0.10199427456E+01  0.10196606376E+01 0.  0.
     999903    2    3    3    0    0 -0.91063933816E-01  0.91419062757E-01 -0.12986215007E-01  0.13124873451E+00  0.20186714794E-01 0.  0.
         14    1    1    2    0    0  0.72493890010E-02 -0.69071232345E-02 -0.21797393939E-01  0.23987254424E-01  0.00000000000E+00 0. -1.
     999901    1    3    3    0    0  0.83814544815E-01 -0.84511939522E-01  0.34783608946E-01  0.88869401106E+00  0.88000000000E+00 0.  1.
        -11    1    4    4    0    0 -0.47728665852E-01  0.58973343544E-01 -0.13750620475E-01  0.77105262319E-01  0.51100000000E-03 0. -1.
         11    1    4    4    0    0 -0.43335267964E-01  0.32445719212E-01  0.76440546787E-03  0.54143472196E-01  0.51100000000E-03 0.  1.
</event>
<event>
 8    1  0.1114447E+005  0.1043930E+01  0.7957747E-01            NaN
         13   -1    0    0    0    0  0.00000000000E+00  0.00000000000E+00  0.74505805969E-08  0.10566000000E+00  0.10566000000E+00 0. -1.
     999900   -1    0    0    0    0 -0.00000000000E+00 -0.00000000000E+00 -0.74505805969E-08  0.93827000000E+00  0.93827000000E+00 0. -1.
     999902    2    1    2    0    0  0.94648008148E-03 -0.64004355035E-02  0.22613095524E-01  0.10204095092E+01  0.10201383989E+01 0.  0.
     999903    2    3    3    0    0  0.65891073818E-01  0.47503302437E-01 -0.97398481952E-01  0.12826255271E+00  0.19147344173E-01 0.  0.
         14    1    1    2    0    0 -0.94648008148E-03  0.64004355035E-02 -0.22613095524E-01  0.23520490819E-01  0.00000000000E+00 0.  1.
     999901    1    3    3    0    0 -0.64944593737E-01 -0.53903737941E-01  0.12001157748E+00  0.89214695648E+00  0.88000000000E+00 0. -1.
        -11    1    4    4    0    0  0.40634969004E-01  0.23768957382E-01 -0.68585115925E-01  0.83188600712E-01  0.51100000000E-03 0. -1.
         11    1    4    4    0    0  0.25256104814E-01  0.23734345055E-01 -0.28813366027E-01  0.45073951994E-01  0.51100000000E-03 0.  1.
</event>
<event>
 8    1  0.1114447E+005  0.1043930E+01  0.7957747E-01            NaN
         13   -1    0    0    0    0  0.00000000000E+00  0.00000000000E+00  0.74505805969E-08  0.10566000000E+00  0.10566000000E+00 0. -1.
     999900   -1    0    0    0    0 -0.00000000000E+00 -0.00000000000E+00 -0.74505805969E-08  0.93827000000E+00  0.93827000000E+00 0.  1.
     999902    2    1    2    0    0  0.16750959030E-02  0.11760947892E-01  0.21356855656E-01  0.10194914828E+01  0.10191985294E+01 0.  0.
     999903    2    3    3    0    0  0.61274019484E-01 -0.63348005512E-01  0.95060545284E-01  0.13122034147E+00  0.20366528423E-01 0.  0.
         14    1    1    2    0    0 -0.16750959030E-02 -0.11760947892E-01 -0.21356855656E-01  0.24438517245E-01  0.00000000000E+00 0.  1.
     999901    1    3    3    0    0 -0.59598923581E-01  0.75108953403E-01 -0.73703689628E-01  0.88827114128E+00  0.88000000000E+00 0.  1.
        -11    1    4    4    0    0  0.59355452911E-01 -0.63136940651E-01  0.95717931021E-01  0.12911826557E+00  0.51100000000E-03 0.  1.
         11    1    4    4    0    0  0.19185665730E-02 -0.21106486077E-03 -0.65738573621E-03  0.21020758969E-02  0.51100000000E-03 0. -1.
</event>
<event>
 8    1  0.1114447E+005  0.1043930E+01  0.7957747E-01            NaN
         13   -1    0    0    0    0  0.00000000000E+00  0.00000000000E+00  0.74505805969E-08  0.10566000000E+00  0.10566000000E+00 0. -1.
     999900   -1    0    0    0    0 -0.00000000000E+00 -0.00000000000E+00 -0.74505805969E-08  0.93827000000E+00  0.93827000000E+00 0.  1.
     999902    2    1    2    0    0 -0.12576812427E-01  0.15564952864E-01 -0.14832573074E-01  0.10190211824E+01  0.10187167030E+01 0.  0.
     999903    2    3    3    0    0 -0.14368648621E-01 -0.10609017126E+00  0.65431569054E-01  0.12703154549E+00  0.19852980135E-01 0.  0.
         14    1    1    2    0    0  0.12576812427E-01 -0.15564952864E-01  0.14832573074E-01  0.24908817564E-01  0.00000000000E+00 0. -1.
     999901    1    3    3    0    0  0.17918361945E-02  0.12165512412E+00 -0.80264142127E-01  0.89198963694E+00  0.88000000000E+00 0.  1.
        -11    1    4    4    0    0 -0.50602205618E-02 -0.20304107381E-01  0.22217688785E-01  0.30524570834E-01  0.51100000000E-03 0. -1.
         11    1    4    4    0    0 -0.93084280597E-02 -0.85786063879E-01  0.43213880268E-01  0.96506974658E-01  0.51100000000E-03 0.  1.
</event>
<event>
 7    1  0.1114447E+005  0.1043930E+01  0.7957747E-01            NaN
         13   -1    0    0    0    0  0.00000000000E+00  0.00000000000E+00  0.74505805969E-08  0.10566000000E+00  0.10566000000E+00 0.  1.
     999900   -1    0    0    0    0 -0.00000000000E+00 -0.00000000000E+00 -0.74505805969E-08  0.93827000000E+00  0.93827000000E+00 0.  1.
     999902    2    1    2    0    0  0.13307879080E-01 -0.14886653263E-01 -0.12052661178E-01  0.10206066483E+01  0.10203401158E+01 0.  0.
         14    1    1    2    0    0 -0.13307879080E-01  0.14886653263E-01  0.12052661178E-01  0.23323351655E-01  0.00000000000E+00 0.  1.
     999901    1    3    3    0    0  0.67523270528E-01 -0.10680851649E+00  0.51354455792E-01  0.89050813101E+00  0.88000000000E+00 0.  1.
        -11    1    3    3    0    0 -0.34402220272E-01  0.69428329118E-01 -0.25089785692E-01  0.81446694905E-01  0.51100000000E-03 0.  1.
         11    1    3    3    0    0 -0.19813171176E-01  0.22493534111E-01 -0.38317331278E-01  0.48651822434E-01  0.51100000000E-03 0. -1.
</event>
<event>
 8    1  0.1114447E+005  0.1043930E+01  0.7957747E-01            NaN
         13   -1    0    0    0    0  0.00000000000E+00  0.00000000000E+00  0.74505805969E-08  0.10566000000E+00  0.10566000000E+00 0. -1.
     999900   -1    0    0    0    0 -0.00000000000E+00 -0.00000000000E+00 -0.74505805969E-08  0.93827000000E+00  0.93827000000E+00 0. -1.
     999902    2    1    2    0    0  0.42517257103E-02  0.32567890017E-02  0.23360441357E-01  0.10199634803E+01  0.10196818656E+01 0.  0.
     999903    2    3    3    0    0 -0.12289356368E-01 -0.10315970906E+00 -0.72482046904E-01  0.12823265712E+00  0.19925194460E-01 0.  0.
         14    1    1    2    0    0 -0.42517257103E-02 -0.32567890017E-02 -0.23360441357E-01  0.23966519700E-01  0.00000000000E+00 0.  1.
     999901    1    3    3    0    0  0.16541082078E-01  0.10641649806E+00  0.95842488261E-01  0.89173082318E+00  0.88000000000E+00 0.  1.
        -11    1    4    4    0    0 -0.29627065036E-03 -0.76308493268E-01 -0.54227765736E-01  0.93616161099E-01  0.51100000000E-03 0.  1.
         11    1    4    4    0    0 -0.11993085717E-01 -0.26851215795E-01 -0.18254281168E-01  0.34616496019E-01  0.51100000000E-03 0. -1.
</event>
<event>
 8    1  0.1114447E+005  0.1043930E+01  0.7957747E-01            NaN
         13   -1    0    0    0    0  0.00000000000E+00  0.00000000000E+00  0.74505805969E-08  0.10566000000E+00  0.10566000000E+00 0. -1.
     999900   -1    0    0    0    0 -0.00000000000E+00 -0.00000000000E+00 -0.74505805969E-08  0.93827000000E+00  0.93827000000E+00 0.  1.
     999902    2    1    2    0    0 -0.15153831769E-01  0.85278594227E-02 -0.16392756595E-01  0.10200326053E+01  0.10197526320E+01 0.  0.
     999903    2    3    3    0    0 -0.26301101615E-01 -0.26952379196E-01 -0.12548320610E+00  0.13251706454E+00  0.19913781443E-01 0.  0.
         14    1    1    2    0    0  0.15153831769E-01 -0.85278594227E-02  0.16392756595E-01  0.23897394678E-01  0.00000000000E+00 0. -1.
     999901    1    3    3    0    0  0.11147269846E-01  0.35480238619E-01  0.10909044950E+00  0.88751554078E+00  0.88000000000E+00 0. -1.
        -11    1    4    4    0    0 -0.25856089722E-01 -0.13950162616E-01 -0.80868471261E-01  0.86041357369E-01  0.51100000000E-03 0. -1.
         11    1    4    4    0    0 -0.44501189298E-03 -0.13002216580E-01 -0.44614734835E-01  0.46475707171E-01  0.51100000000E-03 0.  1.
</event>
<event>
 8    1  0.1114447E+005  0.1043930E+01  0.7957747E-01            NaN
         13   -1    0    0    0    0  0.00000000000E+00  0.00000000000E+00  0.74505805969E-08  0.10566000000E+00  0.10566000000E+00 0.  1.
     999900   -1    0    0    0    0 -0.00000000000E+00 -0.00000000000E+00 -0.74505805969E-08  0.93827000000E+00  0.93827000000E+00 0.  1.
     999902    2    1    2    0    0 -0.13798909798E-01  0.38834762872E-02  0.18426778541E-01  0.10205839625E+01  0.10203169052E+01 0.  0.
     999903    2    3    3    0    0 -0.11696634979E+00  0.53862486633E-01  0.26912020206E-01  0.13310809157E+00  0.20278381632E-01 0.  0.
         14    1    1    2    0    0  0.13798909798E-01 -0.38834762872E-02 -0.18426778541E-01  0.23346037503E-01  0.00000000000E+00 0.  1.
     999901    1    3    3    0    0  0.10316743999E+00 -0.49979010346E-01 -0.84852416652E-02  0.88747587093E+00  0.88000000000E+00 0.  1.
        -11    1    4    4    0    0 -0.38486050036E-01  0.26613379241E-01  0.15244792131E-01  0.49214965307E-01  0.51100000000E-03 0.  1.
         11    1    4    4    0    0 -0.78480299750E-01  0.27249107392E-01  0.11667228075E-01  0.83893126264E-01  0.51100000000E-03 0. -1.
</event>
<event>
 8    1  0.1114447E+005  0.1043930E+01  0.7957747E-01            NaN
         13   -1    0    0    0    0  0.00000000000E+00  0.00000000000E+00  0.74505805969E-08  0.10566000000E+00  0.10566000000E+00 0.  1.
     999900   -1    0    0    0    0 -0.00000000000E+00 -0.00000000000E+00 -0.74505805969E-08  0.93827000000E+00  0.93827000000E+00 0.  1.
     999902    2    1    2    0    0  0.77983316289E-02  0.97757654230E-02  0.19037577418E-01  0.10211526226E+01  0.10208985600E+01 0.  0.
     999903    2    3    3    0    0  0.14700308912E-01 -0.74173387824E-01 -0.10237129646E+00  0.12883249382E+00  0.20003464271E-01 0.  0.
         14    1    1    2    0    0 -0.77983316289E-02 -0.97757654230E-02 -0.19037577418E-01  0.22777377368E-01  0.00000000000E+00 0.  1.
     999901    1    3    3    0    0 -0.69019772826E-02  0.83949153247E-01  0.12140887388E+00  0.89232012881E+00  0.88000000000E+00 0. -1.
        -11    1    4    4    0    0  0.10163134131E-01 -0.47359677845E-01 -0.80410112702E-01  0.93873722238E-01  0.51100000000E-03 0.  1.
         11    1    4    4    0    0  0.45371747806E-02 -0.26813709979E-01 -0.21961183756E-01  0.34958771586E-01  0.51100000000E-03 0. -1.
</event>
<event>
 8    1  0.1114447E+005  0.1043930E+01  0.7957747E-01            NaN
         13   -1    0    0    0    0  0.00000000000E+00  0.00000000000E+00  0.74505805969E-08  0.10566000000E+00  0.10566000000E+00 0. -1.
     999900   -1    0    0    0    0 -0.00000000000E+00 -0.00000000000E+00 -0.74505805969E-08  0.93827000000E+00  0.93827000000E+00 0. -1.
     999902    2    1    2    0    0 -0.17469345516E-01  0.11843117523E-01 -0.10461981084E-01  0.10203738859E+01  0.10201019441E+01 0.  0.
     999903    2    3    3    0    0 -0.41100117470E-01 -0.44556190411E-01  0.11277540979E+00  0.12968496719E+00  0.20625806729E-01 0.  0.
         14    1    1    2    0    0  0.17469345516E-01 -0.11843117523E-01  0.10461981084E-01  0.23556114145E-01  0.00000000000E+00 0. -1.
     999901    1    3    3    0    0  0.23630771954E-01  0.56399307934E-01 -0.12323739087E+00  0.89068891866E+00  0.88000000000E+00 0. -1.
        -11    1    4    4    0    0 -0.90486674306E-03 -0.74872777107E-02  0.26359284258E-01  0.27421726768E-01  0.51100000000E-03 0. -1.
         11    1    4    4    0    0 -0.40195250727E-01 -0.37068912701E-01  0.86416125529E-01  0.10226324042E+00  0.51100000000E-03 0.  1.
</event>
<event>
 8    1  0.1114447E+005  0.1043930E+01  0.7957747E-01            NaN
         13   -1    0    0    0    0  0.00000000000E+00  0.00000000000E+00  0.74505805969E-08  0.10566000000E+00  0.10566000000E+00 0. -1.
     999900   -1    0    0    0    0 -0.00000000000E+00 -0.00000000000E+00 -0.74505805969E-08  0.93827000000E+00  0.93827000000E+00 0.  1.
     999902    2    1    2    0    0  0.10054438741E-01  0.76141860011E-03 -0.21570925590E-01  0.10201187353E+01  0.10198408002E+01 0.  0.
     999903    2    3    3    0    0 -0.89935566684E-01  0.77468709529E-01  0.45514141543E-01  0.12861303373E+00  0.19492774405E-01 0.  0.
         14    1    1    2    0    0 -0.10054438741E-01 -0.76141860011E-03  0.21570925590E-01  0.23811264718E-01  0.00000000000E+00 0. -1.
     999901    1    3    3    0    0  0.99990005425E-01 -0.76707290929E-01 -0.67085067133E-01  0.89150570155E+00  0.88000000000E+00 0.  1.
        -11    1    4    4    0    0 -0.56107490479E-01  0.57642802133E-01  0.24318043598E-01  0.84037916984E-01  0.51100000000E-03 0.  1.
         11    1    4    4    0    0 -0.33828076205E-01  0.19825907396E-01  0.21196097946E-01  0.44575116746E-01  0.51100000000E-03 0. -1.
</event>
<event>
 8    1  0.1114447E+005  0.1043930E+01  0.7957747E-01            NaN
         13   -1    0    0    0    0  0.00000000000E+00  0.00000000000E+00  0.74505805969E-08  0.10566000000E+00  0.10566000000E+00 0.  1.
     999900   -1    0    0    0    0 -0.00000000000E+00 -0.00000000000E+00 -0.74505805969E-08  0.93827000000E+00  0.93827000000E+00 0.  1.
     999902    2    1    2    0    0  0.17351167178E-02 -0.63250091529E-02  0.22670398309E-01  0.10203299294E+01  0.10200569600E+01 0.  0.
     999903    2    3    3    0    0  0.88970125867E-01 -0.38111964987E-01  0.88945607339E-01  0.13296711711E+00  0.20018191608E-01 0.  0.
         14    1    1    2    0    0 -0.17351167178E-02  0.63250091529E-02 -0.22670398309E-01  0.23600070557E-01  0.00000000000E+00 0. -1.
     999901    1    3    3    0    0 -0.87235009149E-01  0.31786955834E-01 -0.66275209030E-01  0.88736281233E+00  0.88000000000E+00 0.  1.
        -11    1    4    4    0    0  0.25531079591E-01 -0.19855594146E-01  0.35517297175E-01  0.48039776890E-01  0.51100000000E-03 0.  1.
         11    1    4    4    0    0  0.63439046276E-01 -0.18256370841E-01  0.53428310164E-01  0.84927340218E-01  0.51100000000E-03 0. -1.
</event>
<event>
 8    1  0.1114447E+005  0.1043930E+01  0.7957747E-01            NaN
         13   -1    0    0    0    0  0.00000000000E+00  0.00000000000E+00  0.74505805969E-08  0.10566000000E+00  0.10566000000E+00 0.  1.
     999900   -1    0    0    0    0 -0.00000000000E+00 -0.00000000000E+00 -0.74505805969E-08  0.93827000000E+00  0.93827000000E+00 0.  1.
     999902    2    1    2    0    0  0.28422917158E-01 -0.71560193763E-02 -0.22774952697E-02  0.10145317378E+01  0.10141057091E+01 0.  0.
     999903    2    3    3    0    0  0.84123751717E-01 -0.93727281538E-01 -0.15267700851E-01  0.12843585599E+00  0.20026420209E-01 0.  0.
         14    1    1    2    0    0 -0.28422917158E-01  0.71560193763E-02  0.22774952697E-02  0.29398262156E-01  0.00000000000E+00 0.  1.
     999901    1    3    3    0    0 -0.55700834559E-01  0.86571262161E-01  0.12990205582E-01  0.88609588186E+00  0.88000000000E+00 0. -1.
        -11    1    4    4    0    0  0.34449440369E-01 -0.31767490622E-01 -0.14363019360E-01  0.49015251181E-01  0.51100000000E-03 0.  1.
         11    1    4    4    0    0  0.49674311348E-01 -0.61959790916E-01 -0.90468149158E-03  0.79420604806E-01  0.51100000000E-03 0. -1.
</event>
<event>
 8    1  0.1114447E+005  0.1043930E+01  0.7957747E-01            NaN
         13   -1    0    0    0    0  0.00000000000E+00  0.00000000000E+00  0.74505805969E-08  0.10566000000E+00  0.10566000000E+00 0. -1.
     999900   -1    0    0    0    0 -0.00000000000E+00 -0.00000000000E+00 -0.74505805969E-08  0.93827000000E+00  0.93827000000E+00 0. -1.
     999902    2    1    2    0    0 -0.33301228470E-02 -0.21825398534E-01  0.65722565849E-02  0.10208945426E+01  0.10206346236E+01 0.  0.
     999903    2    3    3    0    0  0.71048677841E-01  0.80427132018E-01 -0.68249126603E-01  0.12871405340E+00  0.19822362940E-01 0.  0.
         14    1    1    2    0    0  0.33301228470E-02  0.21825398534E-01 -0.65722565849E-02  0.23035457364E-01  0.00000000000E+00 0. -1.
     999901    1    3    3    0    0 -0.74378800688E-01 -0.10225253055E+00  0.74821383188E-01  0.89218048924E+00  0.88000000000E+00 0.  1.
        -11    1    4    4    0    0  0.45167801561E-01  0.64474705727E-01 -0.49255682902E-01  0.92862809539E-01  0.51100000000E-03 0. -1.
         11    1    4    4    0    0  0.25880876280E-01  0.15952426291E-01 -0.18993443701E-01  0.35851243858E-01  0.51100000000E-03 0.  1.
</event>
<event>
 8    1  0.1114447E+005  0.1043930E+01  0.7957747E-01            NaN
         13   -1    0    0    0    0  0.00000000000E+00  0.00000000000E+00  0.74505805969E-08  0.10566000000E+00  0.10566000000E+00 0.  1.
     999900   -1    0    0    0    0 -0.00000000000E+00 -0.00000000000E+00 -0.74505805969E-08  0.93827000000E+00  0.93827000000E+00 0.  1.
     999902    2    1    2    0    0  0.14588753639E-01  0.13075731112E-01 -0.16166305728E-01  0.10185300804E+01  0.10182133218E+01 0.  0.
     999903    2    3    3    0    0 -0.11376362322E+00 -0.48035954142E-01 -0.22650574132E-01  0.12709807709E+00  0.19780238411E-01 0.  0.
         14    1    1    2    0    0 -0.14588753639E-01 -0.13075731112E-01  0.16166305728E-01  0.25399919641E-01  0.00000000000E+00 0.  1.
     999901    1    3    3    0    0  0.12835237686E+00  0.61111685255E-01  0.64842684039E-02  0.89143200327E+00  0.88000000000E+00 0.  1.
        -11    1    4    4    0    0 -0.62977872487E-01 -0.16345473931E-01 -0.88723924549E-02  0.65668618151E-01  0.51100000000E-03 0. -1.
         11    1    4    4    0    0 -0.50785750736E-01 -0.31690480212E-01 -0.13778181677E-01  0.61429458936E-01  0.51100000000E-03 0.  1.
</event>
<event>
 8    1  0.1114447E+005  0.1043930E+01  0.7957747E-01            NaN
         13   -1    0    0    0    0  0.00000000000E+00  0.00000000000E+00  0.74505805969E-08  0.10566000000E+00  0.10566000000E+00 0.  1.
     999900   -1    0    0    0    0 -0.00000000000E+00 -0.00000000000E+00 -0.74505805969E-08  0.93827000000E+00  0.93827000000E+00 0.  1.
     999902    2    1    2    0    0 -0.13785285024E-01 -0.39374529861E-02  0.18305986828E-01  0.10206781877E+01  0.10204133065E+01 0.  0.
     999903    2    3    3    0    0 -0.14542516262E-01  0.12280461138E+00 -0.34199758709E-01  0.13004864771E+00  0.21226632312E-01 0.  0.
         14    1    1    2    0    0  0.13785285024E-01  0.39374529861E-02 -0.18305986828E-01  0.23251812251E-01  0.00000000000E+00 0.  1.
     999901    1    3    3    0    0  0.75723123792E-03 -0.12674206437E+00  0.52505745537E-01  0.89062954004E+00  0.88000000000E+00 0. -1.
        -11    1    4    4    0    0 -0.69990215920E-02  0.35991872909E-01 -0.19964653691E-01  0.41752242296E-01  0.51100000000E-03 0. -1.
         11    1    4    4    0    0 -0.75434946697E-02  0.86812738472E-01 -0.14235105018E-01  0.88296405412E-01  0.51100000000E-03 0.  1.
</event>
<event>
 8    1  0.1114447E+005  0.1043930E+01  0.7957747E-01            NaN
         13   -1    0    0    0    0  0.00000000000E+00  0.00000000000E+00  0.74505805969E-08  0.10566000000E+00  0.10566000000E+00 0.  1.
     999900   -1    0    0    0    0 -0.00000000000E+00 -0.00000000000E+00 -0.74505805969E-08  0.93827000000E+00  0.93827000000E+00 0.  1.
     999902    2    1    2    0    0 -0.15399483455E-01  0.18467965836E-01  0.25086453214E-02  0.10197535000E+01  0.10194668693E+01 0.  0.
     999903    2    3    3    0    0  0.12521371499E+00  0.20808628842E-01 -0.38086383594E-02  0.12856471056E+00  0.20072509070E-01 0.  0.
         14    1    1    2    0    0  0.15399483455E-01 -0.18467965836E-01 -0.25086453214E-02  0.24176500039E-01  0.00000000000E+00 0. -1.
     999901    1    3    3    0    0 -0.14061319844E+00 -0.23406630052E-02  0.63172836808E-02  0.89118878940E+00  0.88000000000E+00 0. -1.
        -11    1    4    4    0    0  0.77564210054E-01  0.36082091070E-02 -0.57821290335E-02  0.77864754487E-01  0.51100000000E-03 0. -1.
         11    1    4    4    0    0  0.47649504933E-01  0.17200419735E-01  0.19734906741E-02  0.50699956073E-01  0.51100000000E-03 0.  1.
</event>
<event>
 8    1  0.1114447E+005  0.1043930E+01  0.7957747E-01            NaN
         13   -1    0    0    0    0  0.00000000000E+00  0.00000000000E+00  0.74505805969E-08  0.10566000000E+00  0.10566000000E+00 0.  1.
     999900   -1    0    0    0    0 -0.00000000000E+00 -0.00000000000E+00 -0.74505805969E-08  0.93827000000E+00  0.93827000000E+00 0. -1.
     999902    2    1    2    0    0  0.84461143790E-03  0.18631573927E-01  0.14368936600E-01  0.10203860994E+01  0.10201144429E+01 0.  0.
     999903    2    3    3    0    0 -0.25863667895E-01  0.66529576885E-01  0.11094030875E+00  0.13340606538E+00  0.19857297307E-01 0.  0.
         14    1    1    2    0    0 -0.84461143790E-03 -0.18631573927E-01 -0.14368936600E-01  0.23543900579E-01  0.00000000000E+00 0. -1.
     999901    1    3    3    0    0  0.26708279332E-01 -0.47898002958E-01 -0.96571372151E-01  0.88698003404E+00  0.88000000000E+00 0. -1.
        -11    1    4    4    0    0 -0.11597178163E-01  0.20247025546E-01  0.52844429924E-01  0.57768775994E-01  0.51100000000E-03 0. -1.
         11    1    4    4    0    0 -0.14266489732E-01  0.46282551338E-01  0.58095878827E-01  0.75637289384E-01  0.51100000000E-03 0.  1.
</event>
<event>
 8    1  0.1114447E+005  0.1043930E+01  0.7957747E-01            NaN
         13   -1    0    0    0    0  0.00000000000E+00  0.00000000000E+00  0.74505805969E-08  0.10566000000E+00  0.10566000000E+00 0.  1.
     999900   -1    0    0    0    0 -0.00000000000E+00 -0.00000000000E+00 -0.74505805969E-08  0.93827000000E+00  0.93827000000E+00 0. -1.
     999902    2    1    2    0    0  0.93469510427E-03 -0.29613128441E-01  0.15765301327E-01  0.10103687760E+01  0.10098112238E+01 0.  0.
     999903    2    3    3    0    0 -0.58863273578E-02  0.67527854017E-01 -0.94607961473E-01  0.11814394224E+00  0.20314152611E-01 0.  0.
         14    1    1    2    0    0 -0.93469510427E-03  0.29613128441E-01 -0.15765301327E-01  0.33561224008E-01  0.00000000000E+00 0. -1.
     999901    1    3    3    0    0  0.68210224621E-02 -0.97140982458E-01  0.11037326280E+00  0.89222483375E+00  0.88000000000E+00 0.  1.
        -11    1    4    4    0    0 -0.74986077538E-02  0.55384460295E-01 -0.62881917608E-01  0.84131232271E-01  0.51100000000E-03 0.  1.
         11    1    4    4    0    0  0.16122803960E-02  0.12143393722E-01 -0.31726043866E-01  0.34012709970E-01  0.51100000000E-03 0. -1.
</event>
<event>
 8    1  0.1114447E+005  0.1043930E+01  0.7957747E-01            NaN
         13   -1    0    0    0    0  0.00000000000E+00  0.00000000000E+00  0.74505805969E-08  0.10566000000E+00  0.10566000000E+00 0. -1.
     999900   -1    0    0    0    0 -0.00000000000E+00 -0.00000000000E+00 -0.74505805969E-08  0.93827000000E+00  0.93827000000E+00 0. -1.
     999902    2    1    2    0    0 -0.14066036518E-01  0.21163503230E-02  0.19468944849E-01  0.10198183403E+01  0.10195332633E+01 0.  0.
     999903    2    3    3    0    0  0.12111469983E+00 -0.36385840388E-01 -0.75063181744E-02  0.12825571487E+00  0.20012088603E-01 0.  0.
         14    1    1    2    0    0  0.14066036518E-01 -0.21163503230E-02 -0.19468944849E-01  0.24111659743E-01  0.00000000000E+00 0.  1.
     999901    1    3    3    0    0 -0.13518073634E+00  0.38502190711E-01  0.26975263024E-01  0.89156262538E+00  0.88000000000E+00 0.  1.
        -11    1    4    4    0    0  0.11115747175E+00 -0.27125739656E-01 -0.62626423074E-02  0.11459175837E+00  0.51100000000E-03 0. -1.
         11    1    4    4    0    0  0.99572280781E-02 -0.92601007325E-02 -0.12436758670E-02  0.13663956500E-01  0.51100000000E-03 0.  1.
</event>
<event>
 8    1  0.1114447E+005  0.1043930E+01  0.7957747E-01            NaN
         13   -1    0    0    0    0  0.00000000000E+00  0.00000000000E+00  0.74505805969E-08  0.10566000000E+00  0.10566000000E+00 0.  1.
     999900   -1    0    0    0    0 -0.00000000000E+00 -0.00000000000E+00 -0.74505805969E-08  0.93827000000E+00  0.93827000000E+00 0. -1.
     999902    2    1    2    0    0  0.12181735603E-01 -0.12918744057E-01  0.21259267193E-01  0.10162308110E+01  0.10158532454E+01 0.  0.
     999903    2    3    3    0    0  0.53205539282E-01 -0.31674220827E-01 -0.10781497494E+00  0.12567206483E+00  0.18311564166E-01 0.  0.
         14    1    1    2    0    0 -0.12181735603E-01  0.12918744057E-01 -0.21259267193E-01  0.27699189012E-01  0.00000000000E+00 0. -1.
     999901    1    3    3    0    0 -0.41023803679E-01  0.18755476770E-01  0.12907424213E+00  0.89055874616E+00  0.88000000000E+00 0.  1.
        -11    1    4    4    0    0  0.45511190523E-01 -0.27750760615E-01 -0.76901794072E-01  0.93570936888E-01  0.51100000000E-03 0. -1.
         11    1    4    4    0    0  0.76943487593E-02 -0.39234602123E-02 -0.30913180867E-01  0.32101127942E-01  0.51100000000E-03 0.  1.
</event>
<event>
 8    1  0.1114447E+005  0.1043930E+01  0.7957747E-01            NaN
         13   -1    0    0    0    0  0.00000000000E+00  0.00000000000E+00  0.74505805969E-08  0.10566000000E+00  0.10566000000E+00 0. -1.
     999900   -1    0    0    0    0 -0.00000000000E+00 -0.00000000000E+00 -0.74505805969E-08  0.93827000000E+00  0.93827000000E+00 0.  1.
     999902    2    1    2    0    0 -0.10742111924E-01 -0.16399613650E-01  0.13562037737E-01  0.10200916032E+01  0.10198130268E+01 0.  0.
     999903    2    3    3    0    0  0.11888160777E+00 -0.39428884461E-01  0.29446409319E-01  0.13015622950E+00  0.19648904792E-01 0.  0.
         14    1    1    2    0    0  0.10742111924E-01  0.16399613650E-01 -0.13562037737E-01  0.23838396843E-01  0.00000000000E+00 0.  1.
     999901    1    3    3    0    0 -0.12962371970E+00  0.23029270811E-01 -0.15884371583E-01  0.88993537366E+00  0.88000000000E+00 0.  1.
        -11    1    4    4    0    0  0.66978736820E-01 -0.23395636628E-01  0.26549310637E-01  0.75753772286E-01  0.51100000000E-03 0. -1.
         11    1    4    4    0    0  0.51902870954E-01 -0.16033247833E-01  0.28970986823E-02  0.54402457216E-01  0.51100000000E-03 0.  1.
</event>
<event>
 8    1  0.1114447E+005  0.1043930E+01  0.7957747E-01            NaN
         13   -1    0    0    0    0  0.00000000000E+00  0.00000000000E+00  0.74505805969E-08  0.10566000000E+00  0.10566000000E+00 0.  1.
     999900   -1    0    0    0    0 -0.00000000000E+00 -0.00000000000E+00 -0.74505805969E-08  0.93827000000E+00  0.93827000000E+00 0. -1.
     999902    2    1    2    0    0  0.80535728482E-02 -0.20938671714E-01  0.71827052361E-02  0.10203741247E+01  0.10201021885E+01 0.  0.
     999903    2    3    3    0    0 -0.10477842717E+00  0.47995297634E-01 -0.53141267358E-01  0.12845376160E+00  0.19857169460E-01 0.  0.
         14    1    1    2    0    0 -0.80535728482E-02  0.20938671714E-01 -0.71827052361E-02  0.23555875345E-01  0.00000000000E+00 0. -1.
     999901    1    3    3    0    0  0.11283200002E+00 -0.68933969348E-01  0.60323972594E-01  0.89192036305E+00  0.88000000000E+00 0.  1.
        -11    1    4    4    0    0 -0.58494537974E-01  0.15897640831E-01 -0.27751376196E-01  0.66668927984E-01  0.51100000000E-03 0.  1.
         11    1    4    4    0    0 -0.46283889193E-01  0.32097656803E-01 -0.25389891161E-01  0.61784833619E-01  0.51100000000E-03 0. -1.
</event>
<event>
 8    1  0.1114447E+005  0.1043930E+01  0.7957747E-01            NaN
         13   -1    0    0    0    0  0.00000000000E+00  0.00000000000E+00  0.74505805969E-08  0.10566000000E+00  0.10566000000E+00 0. -1.
     999900   -1    0    0    0    0 -0.00000000000E+00 -0.00000000000E+00 -0.74505805969E-08  0.93827000000E+00  0.93827000000E+00 0.  1.
     999902    2    1    2    0    0 -0.12460302628E-02  0.21530391618E-01 -0.10437462022E-01  0.10199706392E+01  0.10196891948E+01 0.  0.
     999903    2    3    3    0    0 -0.75104892838E-01 -0.31433301479E-01 -0.10028565784E+00  0.13073895815E+00  0.20165927667E-01 0.  0.
         14    1    1    2    0    0  0.12460302628E-02 -0.21530391618E-01  0.10437462022E-01  0.23959360762E-01  0.00000000000E+00 0.  1.
     999901    1    3    3    0    0  0.73858862575E-01  0.52963693097E-01  0.89848195818E-01  0.88923168109E+00  0.88000000000E+00 0. -1.
        -11    1    4    4    0    0 -0.20546109389E-01  0.10666829819E-03 -0.29638179303E-01  0.36067114974E-01  0.51100000000E-03 0. -1.
         11    1    4    4    0    0 -0.54558783448E-01 -0.31539969777E-01 -0.70647478537E-01  0.94671843172E-01  0.51100000000E-03 0.  1.
</event>
<event>
 8    1  0.1114447E+005  0.1043930E+01  0.7957747E-01            NaN
         13   -1    0    0    0    0  0.00000000000E+00  0.00000000000E+00  0.74505805969E-08  0.10566000000E+00  0.10566000000E+00 0. -1.
     999900   -1    0    0    0    0 -0.00000000000E+00 -0.00000000000E+00 -0.74505805969E-08  0.93827000000E+00  0.93827000000E+00 0.  1.
     999902    2    1    2    0    0 -0.22206178385E-01 -0.80892104453E-02 -0.12811365289E-02  0.10202616457E+01  0.10199870758E+01 0.  0.
     999903    2    3    3    0    0  0.42251968446E-01 -0.36563872076E-01  0.11540868094E+00  0.12976618107E+00  0.19948747673E-01 0.  0.
         14    1    1    2    0    0  0.22206178385E-01  0.80892104453E-02  0.12811365289E-02  0.23668354292E-01  0.00000000000E+00 0. -1.
     999901    1    3    3    0    0 -0.64458146831E-01  0.28474661631E-01 -0.11668981747E+00  0.89049546464E+00  0.88000000000E+00 0.  1.
        -11    1    4    4    0    0  0.17061478944E-01 -0.22043652469E-01  0.38430019802E-01  0.47477828730E-01  0.51100000000E-03 0. -1.
         11    1    4    4    0    0  0.25190489502E-01 -0.14520219607E-01  0.76978661137E-01  0.82288352336E-01  0.51100000000E-03 0.  1.
</event>
<event>
 8    1  0.1114447E+005  0.1043930E+01  0.7957747E-01            NaN
         13   -1    0    0    0    0  0.00000000000E+00  0.00000000000E+00  0.74505805969E-08  0.10566000000E+00  0.10566000000E+00 0.  1.
     999900   -1    0    0    0    0 -0.00000000000E+00 -0.00000000000E+00 -0.74505805969E-08  0.93827000000E+00  0.93827000000E+00 0.  1.
     999902    2    1    2    0    0  0.22268701530E-01  0.33717880986E-02  0.74650982707E-02  0.10202025536E+01  0.10199265947E+01 0.  0.
     999903    2    3    3    0    0 -0.10986049147E+00  0.53471066993E-01  0.34132952996E-01  0.12853039639E+00  0.20652402354E-01 0.  0.
         14    1    1    2    0    0 -0.22268701530E-01 -0.33717880986E-02 -0.74650982707E-02  0.23727446449E-01  0.00000000000E+00 0.  1.
     999901    1    3    3    0    0  0.13212919300E+00 -0.50099278894E-01 -0.26667854725E-01  0.89167215717E+00  0.88000000000E+00 0.  1.
        -11    1    4    4    0    0 -0.69988843011E-01  0.35678429721E-01  0.11654515994E-01  0.79419628289E-01  0.51100000000E-03 0.  1.
         11    1    4    4    0    0 -0.39871648460E-01  0.17792637272E-01  0.22478437001E-01  0.49110768097E-01  0.51100000000E-03 0. -1.
</event>
<event>
 8    1  0.1114447E+005  0.1043930E+01  0.7957747E-01            NaN
         13   -1    0    0    0    0  0.00000000000E+00  0.00000000000E+00  0.74505805969E-08  0.10566000000E+00  0.10566000000E+00 0. -1.
     999900   -1    0    0    0    0 -0.00000000000E+00 -0.00000000000E+00 -0.74505805969E-08  0.93827000000E+00  0.93827000000E+00 0. -1.
     999902    2    1    2    0    0  0.57350095415E-02 -0.22982007741E-01 -0.13880462373E-02  0.10202025963E+01  0.10199266384E+01 0.  0.
     999903    2    3    3    0    0 -0.68948525935E-01  0.56061111709E-01 -0.89073881235E-01  0.12918393720E+00  0.29284566524E-01 0.  0.
         14    1    1    2    0    0 -0.57350095415E-02  0.22982007741E-01  0.13880462373E-02  0.23727403705E-01  0.00000000000E+00 0.  1.
     999901    1    3    3    0    0  0.74683535477E-01 -0.79043119450E-01  0.87685834998E-01  0.89101865910E+00  0.88000000000E+00 0.  1.
        -11    1    4    4    0    0 -0.42980833443E-01  0.18687186727E-01 -0.55407508816E-01  0.72572833384E-01  0.51100000000E-03 0. -1.
         11    1    4    4    0    0 -0.25967692492E-01  0.37373924982E-01 -0.33666372419E-01  0.56611103811E-01  0.51100000000E-03 0.  1.
</event>
<event>
 8    1  0.1114447E+005  0.1043930E+01  0.7957747E-01            NaN
         13   -1    0    0    0    0  0.00000000000E+00  0.00000000000E+00  0.74505805969E-08  0.10566000000E+00  0.10566000000E+00 0.  1.
     999900   -1    0    0    0    0 -0.00000000000E+00 -0.00000000000E+00 -0.74505805969E-08  0.93827000000E+00  0.93827000000E+00 0.  1.
     999902    2    1    2    0    0  0.23321863246E-01 -0.24888810805E-02 -0.93468395332E-03  0.10204570908E+01  0.10201870890E+01 0.  0.
     999903    2    3    3    0    0 -0.76270303513E-01 -0.83419649640E-01  0.59016345941E-01  0.12913082335E+00  0.20392236444E-01 0.  0.
         14    1    1    2    0    0 -0.23321863246E-01  0.24888810805E-02  0.93468395332E-03  0.23472909244E-01  0.00000000000E+00 0. -1.
     999901    1    3    3    0    0  0.99592166759E-01  0.80930768560E-01 -0.59951029895E-01  0.89132626740E+00  0.88000000000E+00 0.  1.
        -11    1    4    4    0    0 -0.60042455346E-01 -0.60915600121E-01  0.34949836559E-01  0.92398912216E-01  0.51100000000E-03 0. -1.
         11    1    4    4    0    0 -0.16227848167E-01 -0.22504049519E-01  0.24066509382E-01  0.36731911136E-01  0.51100000000E-03 0.  1.
</event>
<event>
 8    1  0.1114447E+005  0.1043930E+01  0.7957747E-01            NaN
         13   -1    0    0    0    0  0.00000000000E+00  0.00000000000E+00  0.74505805969E-08  0.10566000000E+00  0.10566000000E+00 0.  1.
     999900   -1    0    0    0    0 -0.00000000000E+00 -0.00000000000E+00 -0.74505805969E-08  0.93827000000E+00  0.93827000000E+00 0. -1.
     999902    2    1    2    0    0  0.23775437476E-01 -0.71061966065E-02  0.12887560955E-01  0.10159682639E+01  0.10155834060E+01 0.  0.
     999903    2    3    3    0    0  0.32626662198E-01  0.12020411574E+00  0.12688119896E-01  0.12676283232E+00  0.19856957071E-01 0.  0.
         14    1    1    2    0    0 -0.23775437476E-01  0.71061966065E-02 -0.12887560955E-01  0.27961736083E-01  0.00000000000E+00 0.  1.
     999901    1    3    3    0    0 -0.88512247222E-02 -0.12731031235E+00  0.19944105921E-03  0.88920543160E+00  0.88000000000E+00 0.  1.
        -11    1    4    4    0    0  0.22047857538E-01  0.52593945767E-01 -0.68004727657E-03  0.57034680140E-01  0.51100000000E-03 0. -1.
         11    1    4    4    0    0  0.10578804660E-01  0.67610169972E-01  0.13368167173E-01  0.69728152178E-01  0.51100000000E-03 0.  1.
</event>
<event>
 8    1  0.1114447E+005  0.1043930E+01  0.7957747E-01            NaN
         13   -1    0    0    0    0  0.00000000000E+00  0.00000000000E+00  0.74505805969E-08  0.10566000000E+00  0.10566000000E+00 0. -1.
     999900   -1    0    0    0    0 -0.00000000000E+00 -0.00000000000E+00 -0.74505805969E-08  0.93827000000E+00  0.93827000000E+00 0. -1.
     999902    2    1    2    0    0 -0.25237660920E-02  0.72851103029E-02  0.22088135416E-01  0.10205349588E+01  0.10202667662E+01 0.  0.
     999903    2    3    3    0    0  0.47762803441E-01  0.76294333738E-01  0.96049227689E-01  0.13331387294E+00  0.21095587814E-01 0.  0.
         14    1    1    2    0    0  0.25237660920E-02 -0.72851103029E-02 -0.22088135416E-01  0.23395041218E-01  0.00000000000E+00 0.  1.
     999901    1    3    3    0    0 -0.50286569533E-01 -0.69009223435E-01 -0.73961092273E-01  0.88722108584E+00  0.88000000000E+00 0. -1.
        -11    1    4    4    0    0  0.62716063120E-02  0.25817182122E-01  0.34499954005E-01  0.43547306298E-01  0.51100000000E-03 0. -1.
         11    1    4    4    0    0  0.41491197129E-01  0.50477151616E-01  0.61549273684E-01  0.89766566641E-01  0.51100000000E-03 0.  1.
</event>
<event>
 8    1  0.1114447E+005  0.1043930E+01  0.7957747E-01            NaN
         13   -1    0    0    0    0  0.00000000000E+00  0.00000000000E+00  0.74505805969E-08  0.10566000000E+00  0.10566000000E+00 0.  1.
     999900   -1    0    0    0    0 -0.00000000000E+00 -0.00000000000E+00 -0.74505805969E-08  0.93827000000E+00  0.93827000000E+00 0. -1.
     999902    2    1    2    0    0 -0.21528403675E-01 -0.10260542105E-02  0.94838576702E-02  0.10203828450E+01  0.10201111125E+01 0.  0.
     999903    2    3    3    0    0 -0.66306499439E-01  0.13898359477E-01 -0.11034647633E+00  0.13100827547E+00  0.19927547288E-01 0.  0.
         14    1    1    2    0    0  0.21528403675E-01  0.10260542105E-02 -0.94838576702E-02  0.23547154994E-01  0.00000000000E+00 0. -1.
     999901    1    3    3    0    0  0.44778095764E-01 -0.14924413687E-01  0.11983033400E+00  0.88937456953E+00  0.88000000000E+00 0.  1.
        -11    1    4    4    0    0 -0.47119395998E-01  0.27134486329E-02 -0.63105018832E-01  0.78804218196E-01  0.51100000000E-03 0. -1.
         11    1    4    4    0    0 -0.19187103440E-01  0.11184910844E-01 -0.47241457494E-01  0.52204057277E-01  0.51100000000E-03 0.  1.
</event>
<event>
 8    1  0.1210809E+005  0.1043930E+01  0.7957747E-01            NaN
         13   -1    0    0    0    0  0.00000000000E+00  0.00000000000E+00  0.74505805969E-08  0.10566000000E+00  0.10566000000E+00 0.  1.
     999900   -1    0    0    0    0 -0.00000000000E+00 -0.00000000000E+00 -0.74505805969E-08  0.93827000000E+00  0.93827000000E+00 0.  1.
     999902    2    1    2    0    0 -0.23818467052E-02  0.31984780861E-02 -0.27770297215E-01  0.10158748247E+01  0.10154873542E+01 0.  0.
     999903    2    3    3    0    0 -0.31723703557E-01 -0.12048030490E+00 -0.10930950152E-01  0.12658243769E+00  0.19537927779E-01 0.  0.
         14    1    1    2    0    0  0.23818467052E-02 -0.31984780861E-02  0.27770297215E-01  0.28055175337E-01  0.00000000000E+00 0.  1.
     999901    1    3    3    0    0  0.29341856852E-01  0.12367878299E+00 -0.16839347063E-01  0.88929238698E+00  0.88000000000E+00 0.  1.
        -11    1    4    4    0    0 -0.23382101203E-01 -0.66004581599E-01  0.16767767622E-02  0.70045700439E-01  0.51100000000E-03 0. -1.
         11    1    4    4    0    0 -0.83416023540E-02 -0.54475723306E-01 -0.12607726914E-01  0.56536737247E-01  0.51100000000E-03 0.  1.
</event>
<event>
 8    1  0.1114447E+005  0.1043930E+01  0.7957747E-01            NaN
         13   -1    0    0    0    0  0.00000000000E+00  0.00000000000E+00  0.74505805969E-08  0.10566000000E+00  0.10566000000E+00 0.  1.
     999900   -1    0    0    0    0 -0.00000000000E+00 -0.00000000000E+00 -0.74505805969E-08  0.93827000000E+00  0.93827000000E+00 0.  1.
     999902    2    1    2    0    0  0.23003481577E-01  0.45340194226E-02  0.61522356058E-02  0.10196902083E+01  0.10194020568E+01 0.  0.
     999903    2    3    3    0    0  0.28872464797E-01 -0.11479051075E+00 -0.49623341929E-01  0.12986792074E+00  0.19817169071E-01 0.  0.
         14    1    1    2    0    0 -0.23003481577E-01 -0.45340194226E-02 -0.61522356058E-02  0.24239791660E-01  0.00000000000E+00 0. -1.
     999901    1    3    3    0    0 -0.58689832203E-02  0.11932453018E+00  0.55775577535E-01  0.88982228760E+00  0.88000000000E+00 0. -1.
        -11    1    4    4    0    0  0.22671741416E-01 -0.55232113714E-01 -0.19319163721E-01  0.62754166810E-01  0.51100000000E-03 0.  1.
         11    1    4    4    0    0  0.62007233810E-02 -0.59558397039E-01 -0.30304178208E-01  0.67113753927E-01  0.51100000000E-03 0. -1.
</event>
<event>
 8    1  0.1114447E+005  0.1043930E+01  0.7957747E-01            NaN
         13   -1    0    0    0    0  0.00000000000E+00  0.00000000000E+00  0.74505805969E-08  0.10566000000E+00  0.10566000000E+00 0. -1.
     999900   -1    0    0    0    0 -0.00000000000E+00 -0.00000000000E+00 -0.74505805969E-08  0.93827000000E+00  0.93827000000E+00 0.  1.
     999902    2    1    2    0    0  0.13030371334E-01  0.18356728750E-01 -0.66822685965E-02  0.10204478199E+01  0.10201776024E+01 0.  0.
     999903    2    3    3    0    0  0.80289789768E-01  0.99009169257E-01 -0.35412484215E-01  0.13373813191E+00  0.19559599964E-01 0.  0.
         14    1    1    2    0    0 -0.13030371334E-01 -0.18356728750E-01  0.66822685965E-02  0.23482180076E-01  0.00000000000E+00 0. -1.
     999901    1    3    3    0    0 -0.67259418434E-01 -0.80652440506E-01  0.28730215618E-01  0.88670968801E+00  0.88000000000E+00 0. -1.
        -11    1    4    4    0    0  0.53856581097E-01  0.51217747304E-01 -0.19143377775E-01  0.76749716612E-01  0.51100000000E-03 0. -1.
         11    1    4    4    0    0  0.26433208671E-01  0.47791421953E-01 -0.16269106439E-01  0.56988415298E-01  0.51100000000E-03 0.  1.
</event>
<event>
 8    1  0.1114447E+005  0.1043930E+01  0.7957747E-01            NaN
         13   -1    0    0    0    0  0.00000000000E+00  0.00000000000E+00  0.74505805969E-08  0.10566000000E+00  0.10566000000E+00 0.  1.
     999900   -1    0    0    0    0 -0.00000000000E+00 -0.00000000000E+00 -0.74505805969E-08  0.93827000000E+00  0.93827000000E+00 0.  1.
     999902    2    1    2    0    0 -0.83354243694E-03  0.13374950917E-01  0.40507185876E-02  0.10299302705E+01  0.10298351177E+01 0.  0.
     999903    2    3    3    0    0 -0.38792389853E-01 -0.28476341344E-01 -0.12772733824E+00  0.13832617617E+00  0.22452317352E-01 0.  0.
         14    1    1    2    0    0  0.83354243694E-03 -0.13374950917E-01 -0.40507185876E-02  0.13999729501E-01  0.00000000000E+00 0.  1.
     999901    1    3    3    0    0  0.37958847416E-01  0.41851292260E-01  0.13177805682E+00  0.89160409433E+00  0.88000000000E+00 0. -1.
        -11    1    4    4    0    0 -0.28364706430E-01 -0.29705741848E-01 -0.11298199902E+00  0.12021722378E+00  0.51100000000E-03 0. -1.
         11    1    4    4    0    0 -0.10427683423E-01  0.12294005036E-02 -0.14745339219E-01  0.18108952395E-01  0.51100000000E-03 0.  1.
</event>
<event>
 8    1  0.1114447E+005  0.1043930E+01  0.7957747E-01            NaN
         13   -1    0    0    0    0  0.00000000000E+00  0.00000000000E+00  0.74505805969E-08  0.10566000000E+00  0.10566000000E+00 0. -1.
     999900   -1    0    0    0    0 -0.00000000000E+00 -0.00000000000E+00 -0.74505805969E-08  0.93827000000E+00  0.93827000000E+00 0. -1.
     999902    2    1    2    0    0  0.23777879885E-01  0.13557571905E-02 -0.40108856326E-02  0.10197781294E+01  0.10194920894E+01 0.  0.
     999903    2    3    3    0    0 -0.37999584854E-01 -0.15289876715E-01 -0.12132256387E+00  0.12969073925E+00  0.20561482525E-01 0.  0.
         14    1    1    2    0    0 -0.23777879885E-01 -0.13557571905E-02  0.40108856326E-02  0.24151870589E-01  0.00000000000E+00 0.  1.
     999901    1    3    3    0    0  0.61777464739E-01  0.16645633905E-01  0.11731167824E+00  0.89008739016E+00  0.88000000000E+00 0.  1.
        -11    1    4    4    0    0 -0.12506340719E-01 -0.12984724315E-01 -0.70675251550E-01  0.72940139336E-01  0.51100000000E-03 0. -1.
         11    1    4    4    0    0 -0.25493244134E-01 -0.23051523996E-02 -0.50647312320E-01  0.56750599911E-01  0.51100000000E-03 0.  1.
</event>
<event>
 8    1  0.1114447E+005  0.1043930E+01  0.7957747E-01            NaN
         13   -1    0    0    0    0  0.00000000000E+00  0.00000000000E+00  0.74505805969E-08  0.10566000000E+00  0.10566000000E+00 0.  1.
     999900   -1    0    0    0    0 -0.00000000000E+00 -0.00000000000E+00 -0.74505805969E-08  0.93827000000E+00  0.93827000000E+00 0.  1.
     999902    2    1    2    0    0  0.14157762784E-01 -0.14290574129E-01  0.10876304332E-01  0.10210617523E+01  0.10208056354E+01 0.  0.
     999903    2    3    3    0    0 -0.12614819761E+00  0.52076391067E-02  0.21777126441E-01  0.12966690672E+00  0.19969381472E-01 0.  0.
         14    1    1    2    0    0 -0.14157762784E-01  0.14290574129E-01 -0.10876304332E-01  0.22868247679E-01  0.00000000000E+00 0. -1.
     999901    1    3    3    0    0  0.14030596040E+00 -0.19498213236E-01 -0.10900822108E-01  0.89139484560E+00  0.88000000000E+00 0.  1.
        -11    1    4    4    0    0 -0.55033511291E-01  0.10547867738E-01  0.15111578635E-01  0.58039347073E-01  0.51100000000E-03 0.  1.
         11    1    4    4    0    0 -0.71114686321E-01 -0.53402286308E-02  0.66655478058E-02  0.71627559647E-01  0.51100000000E-03 0. -1.
</event>
<event>
 8    1  0.1114447E+005  0.1043930E+01  0.7957747E-01            NaN
         13   -1    0    0    0    0  0.00000000000E+00  0.00000000000E+00  0.74505805969E-08  0.10566000000E+00  0.10566000000E+00 0. -1.
     999900   -1    0    0    0    0 -0.00000000000E+00 -0.00000000000E+00 -0.74505805969E-08  0.93827000000E+00  0.93827000000E+00 0. -1.
     999902    2    1    2    0    0  0.37671989304E-02 -0.53325334706E-02  0.21739398478E-01  0.10212313404E+01  0.10209790505E+01 0.  0.
     999903    2    3    3    0    0  0.72981333030E-01 -0.10578759181E+00  0.25776478350E-01  0.13280682864E+00  0.21352689423E-01 0.  0.
         14    1    1    2    0    0 -0.37671989304E-02  0.53325334706E-02 -0.21739398478E-01  0.22698659590E-01  0.00000000000E+00 0.  1.
     999901    1    3    3    0    0 -0.69214134099E-01  0.10045505834E+00 -0.40370798724E-02  0.88842451177E+00  0.88000000000E+00 0.  1.
        -11    1    4    4    0    0  0.54953364992E-01 -0.89188215249E-01  0.27266081358E-01  0.10825022114E+00  0.51100000000E-03 0.  1.
         11    1    4    4    0    0  0.18027968038E-01 -0.16599376558E-01 -0.14896030077E-02  0.24556607497E-01  0.51100000000E-03 0. -1.
</event>
<event>
 8    1  0.1114447E+005  0.1043930E+01  0.7957747E-01            NaN
         13   -1    0    0    0    0  0.00000000000E+00  0.00000000000E+00  0.74505805969E-08  0.10566000000E+00  0.10566000000E+00 0.  1.
     999900   -1    0    0    0    0 -0.00000000000E+00 -0.00000000000E+00 -0.74505805969E-08  0.93827000000E+00  0.93827000000E+00 0. -1.
     999902    2    1    2    0    0 -0.93999958575E-02 -0.19583384712E-02  0.21935412134E-01  0.10199851192E+01  0.10197040188E+01 0.  0.
     999903    2    3    3    0    0  0.38482334254E-01 -0.12255570735E+00  0.10931639454E-01  0.13040233724E+00  0.19608094363E-01 0.  0.
         14    1    1    2    0    0  0.93999958575E-02  0.19583384712E-02 -0.21935412134E-01  0.23944880814E-01  0.00000000000E+00 0. -1.
     999901    1    3    3    0    0 -0.47882330111E-01  0.12059736888E+00  0.11003772680E-01  0.88958278194E+00  0.88000000000E+00 0.  1.
        -11    1    4    4    0    0  0.28693585581E-01 -0.58958246434E-01  0.67477533496E-02  0.65918054980E-01  0.51100000000E-03 0. -1.
         11    1    4    4    0    0  0.97887486729E-02 -0.63597460912E-01  0.41838861045E-02  0.64484282263E-01  0.51100000000E-03 0.  1.
</event>
<event>
 8    1  0.1114447E+005  0.1043930E+01  0.7957747E-01            NaN
         13   -1    0    0    0    0  0.00000000000E+00  0.00000000000E+00  0.74505805969E-08  0.10566000000E+00  0.10566000000E+00 0.  1.
     999900   -1    0    0    0    0 -0.00000000000E+00 -0.00000000000E+00 -0.74505805969E-08  0.93827000000E+00  0.93827000000E+00 0.  1.
     999902    2    1    2    0    0  0.13858701818E-01 -0.12886284165E-01 -0.14320776947E-01  0.10201980682E+01  0.10199220037E+01 0.  0.
     999903    2    3    3    0    0 -0.43943061755E-01  0.46847664308E-01  0.10886987154E+00  0.12773791537E+00  0.18401895716E-01 0.  0.
         14    1    1    2    0    0 -0.13858701818E-01  0.12886284165E-01  0.14320776947E-01  0.23731931823E-01  0.00000000000E+00 0.  1.
     999901    1    3    3    0    0  0.57801763573E-01 -0.59733948473E-01 -0.12319064849E+00  0.89246015281E+00  0.88000000000E+00 0.  1.
        -11    1    4    4    0    0 -0.16369097270E-01  0.99309063499E-02  0.45660717413E-01  0.49514972302E-01  0.51100000000E-03 0. -1.
         11    1    4    4    0    0 -0.27573964485E-01  0.36916757958E-01  0.63209154129E-01  0.78222943068E-01  0.51100000000E-03 0.  1.
</event>
<event>
 8    1  0.1114447E+005  0.1043930E+01  0.7957747E-01            NaN
         13   -1    0    0    0    0  0.00000000000E+00  0.00000000000E+00  0.74505805969E-08  0.10566000000E+00  0.10566000000E+00 0. -1.
     999900   -1    0    0    0    0 -0.00000000000E+00 -0.00000000000E+00 -0.74505805969E-08  0.93827000000E+00  0.93827000000E+00 0.  1.
     999902    2    1    2    0    0 -0.34955768350E-02 -0.22680459810E-01  0.94430192180E-02  0.10191148247E+01  0.10188126584E+01 0.  0.
     999903    2    3    3    0    0  0.23895503478E-01 -0.95278756964E-01 -0.83649395871E-01  0.13080914430E+00  0.21558622140E-01 0.  0.
         14    1    1    2    0    0  0.34955768350E-02  0.22680459810E-01 -0.94430192180E-02  0.24815175328E-01  0.00000000000E+00 0.  1.
     999901    1    3    3    0    0 -0.27391080313E-01  0.72598297154E-01  0.93092415089E-01  0.88830568037E+00  0.88000000000E+00 0. -1.
        -11    1    4    4    0    0 -0.26290138890E-02 -0.28531132158E-01 -0.26304277635E-01  0.38898757810E-01  0.51100000000E-03 0.  1.
         11    1    4    4    0    0  0.26524517367E-01 -0.66747624806E-01 -0.57345118235E-01  0.91910386493E-01  0.51100000000E-03 0. -1.
</event>
<event>
 8    1  0.1114447E+005  0.1043930E+01  0.7957747E-01            NaN
         13   -1    0    0    0    0  0.00000000000E+00  0.00000000000E+00  0.74505805969E-08  0.10566000000E+00  0.10566000000E+00 0.  1.
     999900   -1    0    0    0    0 -0.00000000000E+00 -0.00000000000E+00 -0.74505805969E-08  0.93827000000E+00  0.93827000000E+00 0.  1.
     999902    2    1    2    0    0  0.15674063796E-02 -0.22873144420E-01 -0.39598151858E-02  0.10206637662E+01  0.10203985525E+01 0.  0.
     999903    2    3    3    0    0  0.84039491710E-02 -0.39999219537E-01  0.12327063279E+00  0.13132264625E+00  0.19478823976E-01 0.  0.
         14    1    1    2    0    0 -0.15674063796E-02  0.22873144420E-01  0.39598151858E-02  0.23266233788E-01  0.00000000000E+00 0.  1.
     999901    1    3    3    0    0 -0.68365427914E-02  0.17126075118E-01 -0.12723044798E+00  0.88934111996E+00  0.88000000000E+00 0.  1.
        -11    1    4    4    0    0 -0.48904675311E-02 -0.21900748632E-01  0.69973409796E-01  0.73485363595E-01  0.51100000000E-03 0. -1.
         11    1    4    4    0    0  0.13294416702E-01 -0.18098470905E-01  0.53297222996E-01  0.57837282652E-01  0.51100000000E-03 0.  1.
</event>
<event>
 8    1  0.1114447E+005  0.1043930E+01  0.7957747E-01            NaN
         13   -1    0    0    0    0  0.00000000000E+00  0.00000000000E+00  0.74505805969E-08  0.10566000000E+00  0.10566000000E+00 0. -1.
     999900   -1    0    0    0    0 -0.00000000000E+00 -0.00000000000E+00 -0.74505805969E-08  0.93827000000E+00  0.93827000000E+00 0. -1.
     999902    2    1    2    0    0  0.10993652199E-01  0.21138424749E-01  0.98194439181E-03  0.10200834572E+01  0.10198046882E+01 0.  0.
     999903    2    3    3    0    0  0.12514025286E+00  0.34972438173E-01 -0.15773476121E-01  0.13244525922E+00  0.20243266074E-01 0.  0.
         14    1    1    2    0    0 -0.10993652199E-01 -0.21138424749E-01 -0.98194439181E-03  0.23846542817E-01  0.00000000000E+00 0. -1.
     999901    1    3    3    0    0 -0.11414660067E+00 -0.13834013423E-01  0.16755420513E-01  0.88763819797E+00  0.88000000000E+00 0.  1.
        -11    1    4    4    0    0  0.99074132853E-01  0.22029561991E-01 -0.18657401086E-01  0.10319566434E+00  0.51100000000E-03 0.  1.
         11    1    4    4    0    0  0.26066120012E-01  0.12942876182E-01  0.28839249650E-02  0.29249594879E-01  0.51100000000E-03 0. -1.
</event>
<event>
 8    1  0.1114447E+005  0.1043930E+01  0.7957747E-01            NaN
         13   -1    0    0    0    0  0.00000000000E+00  0.00000000000E+00  0.74505805969E-08  0.10566000000E+00  0.10566000000E+00 0.  1.
     999900   -1    0    0    0    0 -0.00000000000E+00 -0.00000000000E+00 -0.74505805969E-08  0.93827000000E+00  0.93827000000E+00 0.  1.
     999902    2    1    2    0    0 -0.75729640016E-02 -0.54300655657E-02  0.13671993765E-01  0.10273843417E+01  0.10272511021E+01 0.  0.
     999903    2    3    3    0    0 -0.10877991996E+00 -0.77246865112E-01  0.32028532123E-01  0.13848757426E+00  0.18783828068E-01 0.  0.
         14    1    1    2    0    0  0.75729640016E-02  0.54300655657E-02 -0.13671993765E-01  0.16545658322E-01  0.00000000000E+00 0. -1.
     999901    1    3    3    0    0  0.10120695596E+00  0.71816799547E-01 -0.18356538359E-01  0.88889676742E+00  0.88000000000E+00 0.  1.
        -11    1    4    4    0    0 -0.84524784104E-01 -0.55121944060E-01  0.16825918423E-01  0.10230464553E+00  0.51100000000E-03 0.  1.
         11    1    4    4    0    0 -0.24255135857E-01 -0.22124921052E-01  0.15202613701E-01  0.36182928729E-01  0.51100000000E-03 0. -1.
</event>
<event>
 8    1  0.1114447E+005  0.1043930E+01  0.7957747E-01            NaN
         13   -1    0    0    0    0  0.00000000000E+00  0.00000000000E+00  0.74505805969E-08  0.10566000000E+00  0.10566000000E+00 0. -1.
     999900   -1    0    0    0    0 -0.00000000000E+00 -0.00000000000E+00 -0.74505805969E-08  0.93827000000E+00  0.93827000000E+00 0.  1.
     999902    2    1    2    0    0  0.22319173534E-02 -0.24345435277E-01  0.29306820102E-02  0.10193074378E+01  0.10190100010E+01 0.  0.
     999903    2    3    3    0    0 -0.70508642805E-01  0.85511119703E-01 -0.59111314160E-01  0.12733834578E+00  0.20911397425E-01 0.  0.
         14    1    1    2    0    0 -0.22319173534E-02  0.24345435277E-01 -0.29306820102E-02  0.24622562233E-01  0.00000000000E+00 0. -1.
     999901    1    3    3    0    0  0.72740560158E-01 -0.10985655498E+00  0.62041996170E-01  0.89196909198E+00  0.88000000000E+00 0.  1.
        -11    1    4    4    0    0 -0.19438633221E-01  0.16063085493E-01 -0.22057821915E-01  0.33506593466E-01  0.51100000000E-03 0. -1.
         11    1    4    4    0    0 -0.51070009584E-01  0.69448034210E-01 -0.37053492245E-01  0.93831752318E-01  0.51100000000E-03 0.  1.
</event>
<event>
 8    1  0.1114447E+005  0.1043930E+01  0.7957747E-01            NaN
         13   -1    0    0    0    0  0.00000000000E+00  0.00000000000E+00  0.74505805969E-08  0.10566000000E+00  0.10566000000E+00 0.  1.
     999900   -1    0    0    0    0 -0.00000000000E+00 -0.00000000000E+00 -0.74505805969E-08  0.93827000000E+00  0.93827000000E+00 0.  1.
     999902    2    1    2    0    0 -0.34396169435E-03  0.15069641616E-01  0.17286739407E-01  0.10209943560E+01  0.10207367100E+01 0.  0.
     999903    2    3    3    0    0 -0.98039050187E-01  0.62008804761E-03  0.86936064815E-01  0.13273530116E+00  0.21183506252E-01 0.  0.
         14    1    1    2    0    0  0.34396169435E-03 -0.15069641616E-01 -0.17286739407E-01  0.22935644037E-01  0.00000000000E+00 0. -1.
     999901    1    3    3    0    0  0.97695088492E-01  0.14449553568E-01 -0.69649325407E-01  0.88825905481E+00  0.88000000000E+00 0.  1.
        -11    1    4    4    0    0 -0.82426343665E-01 -0.71711072052E-02  0.69392257998E-01  0.10798645054E+00  0.51100000000E-03 0. -1.
         11    1    4    4    0    0 -0.15612706522E-01  0.77911952529E-02  0.17543806817E-01  0.24748850621E-01  0.51100000000E-03 0.  1.
</event>
<event>
 8    1  0.1114447E+005  0.1043930E+01  0.7957747E-01            NaN
         13   -1    0    0    0    0  0.00000000000E+00  0.00000000000E+00  0.74505805969E-08  0.10566000000E+00  0.10566000000E+00 0.  1.
     999900   -1    0    0    0    0 -0.00000000000E+00 -0.00000000000E+00 -0.74505805969E-08  0.93827000000E+00  0.93827000000E+00 0.  1.
     999902    2    1    2    0    0 -0.46216117070E-02  0.23407413855E-01  0.11437942898E-01  0.10174707321E+01  0.10171266381E+01 0.  0.
     999903    2    3    3    0    0  0.67511727124E-02  0.12100473263E+00 -0.43961806587E-01  0.13027080591E+00  0.18711461268E-01 0.  0.
         14    1    1    2    0    0  0.46216117070E-02 -0.23407413855E-01 -0.11437942898E-01  0.26459267864E-01  0.00000000000E+00 0.  1.
     999901    1    3    3    0    0 -0.11372784419E-01 -0.97597318770E-01  0.55399749485E-01  0.88719992623E+00  0.88000000000E+00 0. -1.
        -11    1    4    4    0    0  0.78692735300E-02  0.99352711841E-01 -0.28577423578E-01  0.10368132462E+00  0.51100000000E-03 0.  1.
         11    1    4    4    0    0 -0.11181008177E-02  0.21652020784E-01 -0.15384383008E-01  0.26589481285E-01  0.51100000000E-03 0. -1.
</event>
<event>
 8    1  0.1114447E+005  0.1043930E+01  0.7957747E-01            NaN
         13   -1    0    0    0    0  0.00000000000E+00  0.00000000000E+00  0.74505805969E-08  0.10566000000E+00  0.10566000000E+00 0.  1.
     999900   -1    0    0    0    0 -0.00000000000E+00 -0.00000000000E+00 -0.74505805969E-08  0.93827000000E+00  0.93827000000E+00 0. -1.
     999902    2    1    2    0    0 -0.17061211606E-01  0.85090300817E-02 -0.32621886298E-02  0.10245875490E+01  0.10244049567E+01 0.  0.
     999903    2    3    3    0    0  0.11531544326E-01  0.23732785846E-01 -0.13085587893E+00  0.13479574292E+00  0.18719231335E-01 0.  0.
         14    1    1    2    0    0  0.17061211606E-01 -0.85090300817E-02  0.32621886298E-02  0.19342450958E-01  0.00000000000E+00 0.  1.
     999901    1    3    3    0    0 -0.28592755932E-01 -0.15223755765E-01  0.12759369030E+00  0.88979180612E+00  0.88000000000E+00 0.  1.
        -11    1    4    4    0    0  0.41456473745E-02  0.69389358439E-02 -0.11670491530E-01  0.14205517110E-01  0.51100000000E-03 0.  1.
         11    1    4    4    0    0  0.73858969516E-02  0.16793850002E-01 -0.11918538740E+00  0.12059022581E+00  0.51100000000E-03 0. -1.
</event>
<event>
 8    1  0.1114447E+005  0.1043930E+01  0.7957747E-01            NaN
         13   -1    0    0    0    0  0.00000000000E+00  0.00000000000E+00  0.74505805969E-08  0.10566000000E+00  0.10566000000E+00 0.  1.
     999900   -1    0    0    0    0 -0.00000000000E+00 -0.00000000000E+00 -0.74505805969E-08  0.93827000000E+00  0.93827000000E+00 0.  1.
     999902    2    1    2    0    0  0.90084523965E-02 -0.19539975928E-01  0.28253792170E-01  0.10084160641E+01  0.10077905133E+01 0.  0.
     999903    2    3    3    0    0 -0.71347138333E-01  0.28318722260E-02 -0.90337694924E-01  0.11655202658E+00  0.18028924703E-01 0.  0.
         14    1    1    2    0    0 -0.90084523965E-02  0.19539975928E-01 -0.28253792170E-01  0.35513935938E-01  0.00000000000E+00 0. -1.
     999901    1    3    3    0    0  0.80355590729E-01 -0.22371848154E-01  0.11859148709E+00  0.89186403749E+00  0.88000000000E+00 0. -1.
        -11    1    4    4    0    0 -0.40075878290E-01  0.10438871271E-01 -0.52748885490E-01  0.67065282342E-01  0.51100000000E-03 0. -1.
         11    1    4    4    0    0 -0.31271260043E-01 -0.76069990452E-02 -0.37588809435E-01  0.49486744234E-01  0.51100000000E-03 0.  1.
</event>
<event>
 8    1  0.1114447E+005  0.1043930E+01  0.7957747E-01            NaN
         13   -1    0    0    0    0  0.00000000000E+00  0.00000000000E+00  0.74505805969E-08  0.10566000000E+00  0.10566000000E+00 0. -1.
     999900   -1    0    0    0    0 -0.00000000000E+00 -0.00000000000E+00 -0.74505805969E-08  0.93827000000E+00  0.93827000000E+00 0. -1.
     999902    2    1    2    0    0 -0.10209163738E-01 -0.21105802723E-01 -0.32699063522E-03  0.10204824232E+01  0.10202130107E+01 0.  0.
     999903    2    3    3    0    0 -0.11949228501E+00  0.34654973670E-01  0.37034038299E-01  0.13118612208E+00  0.18944794985E-01 0.  0.
         14    1    1    2    0    0  0.10209163738E-01  0.21105802723E-01  0.32699063522E-03  0.23447576755E-01  0.00000000000E+00 0. -1.
     999901    1    3    3    0    0  0.10928312127E+00 -0.55760776392E-01 -0.37361028934E-01  0.88929630116E+00  0.88000000000E+00 0. -1.
        -11    1    4    4    0    0 -0.93903197771E-01  0.19030909320E-01  0.26616858268E-01  0.99441964614E-01  0.51100000000E-03 0.  1.
         11    1    4    4    0    0 -0.25589087240E-01  0.15624064350E-01  0.10417180031E-01  0.31744157468E-01  0.51100000000E-03 0. -1.
</event>
<event>
 8    1  0.1114447E+005  0.1043930E+01  0.7957747E-01            NaN
         13   -1    0    0    0    0  0.00000000000E+00  0.00000000000E+00  0.74505805969E-08  0.10566000000E+00  0.10566000000E+00 0.  1.
     999900   -1    0    0    0    0 -0.00000000000E+00 -0.00000000000E+00 -0.74505805969E-08  0.93827000000E+00  0.93827000000E+00 0.  1.
     999902    2    1    2    0    0  0.15988135790E-01 -0.38063025609E-02  0.16430577557E-01  0.10206905442E+01  0.10204259477E+01 0.  0.
     999903    2    3    3    0    0  0.67424946279E-01  0.86489519783E-01 -0.67893082787E-01  0.13057282129E+00  0.20328073134E-01 0.  0.
         14    1    1    2    0    0 -0.15988135790E-01  0.38063025609E-02 -0.16430577557E-01  0.23239455761E-01  0.00000000000E+00 0. -1.
     999901    1    3    3    0    0 -0.51436810489E-01 -0.90295822344E-01  0.84323660344E-01  0.89011772294E+00  0.88000000000E+00 0. -1.
        -11    1    4    4    0    0  0.21526304694E-01  0.25078138789E-01 -0.31667656532E-01  0.45775500326E-01  0.51100000000E-03 0.  1.
         11    1    4    4    0    0  0.45898641585E-01  0.61411380995E-01 -0.36225426255E-01  0.84797320968E-01  0.51100000000E-03 0. -1.
</event>
<event>
 8    1  0.1114447E+005  0.1043930E+01  0.7957747E-01            NaN
         13   -1    0    0    0    0  0.00000000000E+00  0.00000000000E+00  0.74505805969E-08  0.10566000000E+00  0.10566000000E+00 0.  1.
     999900   -1    0    0    0    0 -0.00000000000E+00 -0.00000000000E+00 -0.74505805969E-08  0.93827000000E+00  0.93827000000E+00 0.  1.
     999902    2    1    2    0    0  0.11370687170E-01  0.14193051945E-01 -0.13393054469E-01  0.10213444037E+01  0.10210946488E+01 0.  0.
     999903    2    3    3    0    0 -0.48235653989E-01  0.12040662378E+00 -0.21023625043E-01  0.13292307107E+00  0.20052846344E-01 0.  0.
         14    1    1    2    0    0 -0.11370687170E-01 -0.14193051945E-01  0.13393054469E-01  0.22585596256E-01  0.00000000000E+00 0.  1.
     999901    1    3    3    0    0  0.59606341160E-01 -0.10621357183E+00  0.76305705731E-02  0.88842133268E+00  0.88000000000E+00 0.  1.
        -11    1    4    4    0    0 -0.12464683998E-01  0.56956494822E-01 -0.11961489364E-01  0.59520996282E-01  0.51100000000E-03 0.  1.
         11    1    4    4    0    0 -0.35770969991E-01  0.63450128956E-01 -0.90621356781E-02  0.73402074784E-01  0.51100000000E-03 0. -1.
</event>
<event>
 8    1  0.1114447E+005  0.1043930E+01  0.7957747E-01            NaN
         13   -1    0    0    0    0  0.00000000000E+00  0.00000000000E+00  0.74505805969E-08  0.10566000000E+00  0.10566000000E+00 0. -1.
     999900   -1    0    0    0    0 -0.00000000000E+00 -0.00000000000E+00 -0.74505805969E-08  0.93827000000E+00  0.93827000000E+00 0. -1.
     999902    2    1    2    0    0 -0.17509440310E-01 -0.52095974216E-02 -0.28911133219E-02  0.10254346238E+01  0.10252678132E+01 0.  0.
     999903    2    3    3    0    0  0.70884438379E-01 -0.97717528304E-01 -0.56090102601E-01  0.13459158063E+00  0.19886553870E-01 0.  0.
         14    1    1    2    0    0  0.17509440310E-01  0.52095974216E-02  0.28911133219E-02  0.18495376220E-01  0.00000000000E+00 0. -1.
     999901    1    3    3    0    0 -0.88393878690E-01  0.92507930883E-01  0.53198989279E-01  0.89084304315E+00  0.88000000000E+00 0. -1.
        -11    1    4    4    0    0  0.17377370682E-01 -0.40074997239E-01 -0.20968622221E-01  0.48455367653E-01  0.51100000000E-03 0. -1.
         11    1    4    4    0    0  0.53507067698E-01 -0.57642531065E-01 -0.35121480380E-01  0.86136212979E-01  0.51100000000E-03 0.  1.
</event>
<event>
 8    1  0.1114447E+005  0.1043930E+01  0.7957747E-01            NaN
         13   -1    0    0    0    0  0.00000000000E+00  0.00000000000E+00  0.74505805969E-08  0.10566000000E+00  0.10566000000E+00 0.  1.
     999900   -1    0    0    0    0 -0.00000000000E+00 -0.00000000000E+00 -0.74505805969E-08  0.93827000000E+00  0.93827000000E+00 0. -1.
     999902    2    1    2    0    0 -0.20388313113E-01 -0.12363195266E-02  0.17760304307E-01  0.10168626727E+01  0.10165023635E+01 0.  0.
     999903    2    3    3    0    0 -0.40231848006E-01 -0.10840904793E+00  0.54285964824E-01  0.12938654150E+00  0.20561806290E-01 0.  0.
         14    1    1    2    0    0  0.20388313113E-01  0.12363195266E-02 -0.17760304307E-01  0.27067327291E-01  0.00000000000E+00 0. -1.
     999901    1    3    3    0    0  0.19843534893E-01  0.10717272840E+00 -0.36525660517E-01  0.88747613121E+00  0.88000000000E+00 0. -1.
        -11    1    4    4    0    0 -0.97394458921E-02 -0.54230612173E-01  0.21988019739E-01  0.59325797391E-01  0.51100000000E-03 0. -1.
         11    1    4    4    0    0 -0.30492402114E-01 -0.54178435755E-01  0.32297945085E-01  0.70060744110E-01  0.51100000000E-03 0.  1.
</event>
<event>
 8    1  0.1114447E+005  0.1043930E+01  0.7957747E-01            NaN
         13   -1    0    0    0    0  0.00000000000E+00  0.00000000000E+00  0.74505805969E-08  0.10566000000E+00  0.10566000000E+00 0.  1.
     999900   -1    0    0    0    0 -0.00000000000E+00 -0.00000000000E+00 -0.74505805969E-08  0.93827000000E+00  0.93827000000E+00 0. -1.
     999902    2    1    2    0    0  0.69315004560E-03  0.17070369622E-01  0.18709677399E-01  0.10185936624E+01  0.10182785076E+01 0.  0.
     999903    2    3    3    0    0  0.87134723581E-01 -0.85623527246E-01 -0.28745588185E-01  0.12715090800E+00  0.20425378668E-01 0.  0.
         14    1    1    2    0    0 -0.69315004560E-03 -0.17070369622E-01 -0.18709677399E-01  0.25336337628E-01  0.00000000000E+00 0. -1.
     999901    1    3    3    0    0 -0.86441573535E-01  0.10269389687E+00  0.47455265584E-01  0.89144275437E+00  0.88000000000E+00 0.  1.
        -11    1    4    4    0    0  0.35655665335E-01 -0.44520577902E-01 -0.55540654211E-02  0.57310706599E-01  0.51100000000E-03 0. -1.
         11    1    4    4    0    0  0.51479058247E-01 -0.41102949344E-01 -0.23191522764E-01  0.69840201402E-01  0.51100000000E-03 0.  1.
</event>
<event>
 8    1  0.1114447E+005  0.1043930E+01  0.7957747E-01            NaN
         13   -1    0    0    0    0  0.00000000000E+00  0.00000000000E+00  0.74505805969E-08  0.10566000000E+00  0.10566000000E+00 0. -1.
     999900   -1    0    0    0    0 -0.00000000000E+00 -0.00000000000E+00 -0.74505805969E-08  0.93827000000E+00  0.93827000000E+00 0. -1.
     999902    2    1    2    0    0 -0.12551344413E-01  0.11302269975E-01 -0.16374173988E-01  0.10204057332E+01  0.10201345349E+01 0.  0.
     999903    2    3    3    0    0  0.11407996538E+00  0.70577570245E-02  0.52952351345E-01  0.12863240350E+00  0.26044064243E-01 0.  0.
         14    1    1    2    0    0  0.12551344413E-01 -0.11302269975E-01  0.16374173988E-01  0.23524266768E-01  0.00000000000E+00 0. -1.
     999901    1    3    3    0    0 -0.12663130979E+00  0.42445129504E-02 -0.69326525334E-01  0.89177332973E+00  0.88000000000E+00 0. -1.
        -11    1    4    4    0    0  0.59408101385E-01  0.98704917685E-02  0.15144759592E-01  0.62099710000E-01  0.51100000000E-03 0. -1.
         11    1    4    4    0    0  0.54671863991E-01 -0.28127347441E-02  0.37807591753E-01  0.66532693498E-01  0.51100000000E-03 0.  1.
</event>
<event>
 8    1  0.1114447E+005  0.1043930E+01  0.7957747E-01            NaN
         13   -1    0    0    0    0  0.00000000000E+00  0.00000000000E+00  0.74505805969E-08  0.10566000000E+00  0.10566000000E+00 0.  1.
     999900   -1    0    0    0    0 -0.00000000000E+00 -0.00000000000E+00 -0.74505805969E-08  0.93827000000E+00  0.93827000000E+00 0. -1.
     999902    2    1    2    0    0  0.12578622876E-01  0.17023428557E-01  0.11681710121E-01  0.10197539535E+01  0.10194673337E+01 0.  0.
     999903    2    3    3    0    0  0.11997410650E-01  0.70913276825E-01  0.10971317359E+00  0.13267187083E+00  0.19804397420E-01 0.  0.
         14    1    1    2    0    0 -0.12578622876E-01 -0.17023428557E-01 -0.11681710121E-01  0.24176046506E-01  0.00000000000E+00 0. -1.
     999901    1    3    3    0    0  0.58121222558E-03 -0.53889848268E-01 -0.98031463472E-01  0.88708208266E+00  0.88000000000E+00 0. -1.
        -11    1    4    4    0    0  0.14115433558E-01  0.46896365483E-01  0.60270236060E-01  0.77661296897E-01  0.51100000000E-03 0.  1.
         11    1    4    4    0    0 -0.21180229082E-02  0.24016911343E-01  0.49442937533E-01  0.55010573933E-01  0.51100000000E-03 0. -1.
</event>
<event>
 8    1  0.1114447E+005  0.1043930E+01  0.7957747E-01            NaN
         13   -1    0    0    0    0  0.00000000000E+00  0.00000000000E+00  0.74505805969E-08  0.10566000000E+00  0.10566000000E+00 0.  1.
     999900   -1    0    0    0    0 -0.00000000000E+00 -0.00000000000E+00 -0.74505805969E-08  0.93827000000E+00  0.93827000000E+00 0.  1.
     999902    2    1    2    0    0 -0.13843284071E-01  0.19289909917E-01 -0.91144277982E-03  0.10201693631E+01  0.10198926225E+01 0.  0.
     999903    2    3    3    0    0 -0.98024550043E-02  0.53157659806E-01 -0.11838035476E+00  0.13170872915E+00  0.20284378733E-01 0.  0.
         14    1    1    2    0    0  0.13843284071E-01 -0.19289909917E-01  0.91144277982E-03  0.23760636911E-01  0.00000000000E+00 0.  1.
     999901    1    3    3    0    0 -0.40408290669E-02 -0.33867749889E-01  0.11746891198E+00  0.88846063394E+00  0.88000000000E+00 0. -1.
        -11    1    4    4    0    0  0.31842873637E-02  0.31725883970E-01 -0.76808704015E-01  0.83165554968E-01  0.51100000000E-03 0. -1.
         11    1    4    4    0    0 -0.12986742368E-01  0.21431775836E-01 -0.41571650744E-01  0.48543174179E-01  0.51100000000E-03 0.  1.
</event>
<event>
 8    1  0.1114447E+005  0.1043930E+01  0.7957747E-01            NaN
         13   -1    0    0    0    0  0.00000000000E+00  0.00000000000E+00  0.74505805969E-08  0.10566000000E+00  0.10566000000E+00 0. -1.
     999900   -1    0    0    0    0 -0.00000000000E+00 -0.00000000000E+00 -0.74505805969E-08  0.93827000000E+00  0.93827000000E+00 0. -1.
     999902    2    1    2    0    0 -0.26926873145E-02 -0.21331925688E-01 -0.10768772664E-01  0.10198827947E+01  0.10195992580E+01 0.  0.
     999903    2    3    3    0    0 -0.61481619799E-01 -0.11462468845E+00 -0.19649268448E-01  0.13295633699E+00  0.19299870972E-01 0.  0.
         14    1    1    2    0    0  0.26926873145E-02  0.21331925688E-01  0.10768772664E-01  0.24047205310E-01  0.00000000000E+00 0. -1.
     999901    1    3    3    0    0  0.58788932485E-01  0.93292762760E-01  0.88804957842E-02  0.88692645770E+00  0.88000000000E+00 0. -1.
        -11    1    4    4    0    0 -0.58259566016E-01 -0.95369860635E-01 -0.14033063926E-01  0.11263558654E+00  0.51100000000E-03 0. -1.
         11    1    4    4    0    0 -0.32220537827E-02 -0.19254827814E-01 -0.56162045227E-02  0.20320750452E-01  0.51100000000E-03 0.  1.
</event>
<event>
 8    1  0.1114447E+005  0.1043930E+01  0.7957747E-01            NaN
         13   -1    0    0    0    0  0.00000000000E+00  0.00000000000E+00  0.74505805969E-08  0.10566000000E+00  0.10566000000E+00 0. -1.
     999900   -1    0    0    0    0 -0.00000000000E+00 -0.00000000000E+00 -0.74505805969E-08  0.93827000000E+00  0.93827000000E+00 0.  1.
     999902    2    1    2    0    0  0.34191491560E-03  0.16480025056E-01 -0.17804831970E-01  0.10196664435E+01  0.10193777199E+01 0.  0.
     999903    2    3    3    0    0 -0.14090417397E-01 -0.86781020558E-01  0.89260583220E-01  0.12706679144E+00  0.21190384119E-01 0.  0.
         14    1    1    2    0    0 -0.34191491560E-03 -0.16480025056E-01  0.17804831970E-01  0.24263556481E-01  0.00000000000E+00 0. -1.
     999901    1    3    3    0    0  0.14432332312E-01  0.10326104561E+00 -0.10706541519E+00  0.89259965208E+00  0.88000000000E+00 0.  1.
        -11    1    4    4    0    0 -0.13162496750E-02 -0.20605563979E-01  0.34570064738E-01  0.40269992266E-01  0.51100000000E-03 0.  1.
         11    1    4    4    0    0 -0.12774167722E-01 -0.66175456579E-01  0.54690518482E-01  0.86796799177E-01  0.51100000000E-03 0. -1.
</event>
<event>
 8    1  0.1114447E+005  0.1043930E+01  0.7957747E-01            NaN
         13   -1    0    0    0    0  0.00000000000E+00  0.00000000000E+00  0.74505805969E-08  0.10566000000E+00  0.10566000000E+00 0.  1.
     999900   -1    0    0    0    0 -0.00000000000E+00 -0.00000000000E+00 -0.74505805969E-08  0.93827000000E+00  0.93827000000E+00 0. -1.
     999902    2    1    2    0    0  0.17313457340E-01 -0.13706291142E-01 -0.10094105443E-01  0.10196501897E+01  0.10193610745E+01 0.  0.
     999903    2    3    3    0    0 -0.64374215172E-01  0.75533973674E-01 -0.79229734294E-01  0.12868642174E+00  0.20818827658E-01 0.  0.
         14    1    1    2    0    0 -0.17313457340E-01  0.13706291142E-01  0.10094105443E-01  0.24279810268E-01  0.00000000000E+00 0. -1.
     999901    1    3    3    0    0  0.81687672512E-01 -0.89240264815E-01  0.69135628852E-01  0.89096376800E+00  0.88000000000E+00 0.  1.
        -11    1    4    4    0    0 -0.42094197691E-01  0.35144371888E-01 -0.48936548216E-01  0.73498947115E-01  0.51100000000E-03 0. -1.
         11    1    4    4    0    0 -0.22280017480E-01  0.40389601786E-01 -0.30293186079E-01  0.55187474622E-01  0.51100000000E-03 0.  1.
</event>
<event>
 8    1  0.1114447E+005  0.1043930E+01  0.7957747E-01            NaN
         13   -1    0    0    0    0  0.00000000000E+00  0.00000000000E+00  0.74505805969E-08  0.10566000000E+00  0.10566000000E+00 0.  1.
     999900   -1    0    0    0    0 -0.00000000000E+00 -0.00000000000E+00 -0.74505805969E-08  0.93827000000E+00  0.93827000000E+00 0. -1.
     999902    2    1    2    0    0  0.18921386546E-01 -0.13067978187E-01  0.10724038452E-02  0.10209095532E+01  0.10206499766E+01 0.  0.
     999903    2    3    3    0    0 -0.97160844923E-01  0.44794352817E-01 -0.69014545106E-01  0.12864540268E+00  0.18435519105E-01 0.  0.
         14    1    1    2    0    0 -0.18921386546E-01  0.13067978187E-01 -0.10724038452E-02  0.23020446840E-01  0.00000000000E+00 0.  1.
     999901    1    3    3    0    0  0.11608223147E+00 -0.57862331005E-01  0.70086948951E-01  0.89226415048E+00  0.88000000000E+00 0. -1.
        -11    1    4    4    0    0 -0.70030738368E-01  0.26732292744E-01 -0.55900757457E-01  0.93509762041E-01  0.51100000000E-03 0. -1.
         11    1    4    4    0    0 -0.27130106556E-01  0.18062060073E-01 -0.13113787649E-01  0.35135640642E-01  0.51100000000E-03 0.  1.
</event>
<event>
 8    1  0.1114447E+005  0.1043930E+01  0.7957747E-01            NaN
         13   -1    0    0    0    0  0.00000000000E+00  0.00000000000E+00  0.74505805969E-08  0.10566000000E+00  0.10566000000E+00 0. -1.
     999900   -1    0    0    0    0 -0.00000000000E+00 -0.00000000000E+00 -0.74505805969E-08  0.93827000000E+00  0.93827000000E+00 0.  1.
     999902    2    1    2    0    0 -0.31163605327E-03 -0.19964396978E-01  0.12869447726E-01  0.10201750648E+01  0.10198984586E+01 0.  0.
     999903    2    3    3    0    0 -0.12866734120E+00 -0.29899565301E-02 -0.92356716862E-02  0.13042681105E+00  0.19016594767E-01 0.  0.
         14    1    1    2    0    0  0.31163605327E-03  0.19964396978E-01 -0.12869447726E-01  0.23754935245E-01  0.00000000000E+00 0.  1.
     999901    1    3    3    0    0  0.12835570515E+00 -0.16974440447E-01  0.22105119412E-01  0.88974825371E+00  0.88000000000E+00 0.  1.
        -11    1    4    4    0    0 -0.50643431151E-01 -0.39105497139E-02  0.52334667885E-02  0.51065642202E-01  0.51100000000E-03 0. -1.
         11    1    4    4    0    0 -0.78023910050E-01  0.92059318379E-03 -0.14469138475E-01  0.79361168845E-01  0.51100000000E-03 0.  1.
</event>
<event>
 8    1  0.1114447E+005  0.1043930E+01  0.7957747E-01            NaN
         13   -1    0    0    0    0  0.00000000000E+00  0.00000000000E+00  0.74505805969E-08  0.10566000000E+00  0.10566000000E+00 0. -1.
     999900   -1    0    0    0    0 -0.00000000000E+00 -0.00000000000E+00 -0.74505805969E-08  0.93827000000E+00  0.93827000000E+00 0. -1.
     999902    2    1    2    0    0 -0.12590131603E-02 -0.12963320719E-01 -0.19850720875E-01  0.10201879715E+01  0.10199116693E+01 0.  0.
     999903    2    3    3    0    0 -0.62477068122E-01 -0.73794512882E-01 -0.89739337592E-01  0.13320854505E+00  0.18502799529E-01 0.  0.
         14    1    1    2    0    0  0.12590131603E-02  0.12963320719E-01  0.19850720875E-01  0.23742028503E-01  0.00000000000E+00 0. -1.
     999901    1    3    3    0    0  0.61218054961E-01  0.60831192163E-01  0.69888616717E-01  0.88697942645E+00  0.88000000000E+00 0.  1.
        -11    1    4    4    0    0 -0.50713729379E-01 -0.54122181216E-01 -0.77281363953E-01  0.10711565330E+00  0.51100000000E-03 0.  1.
         11    1    4    4    0    0 -0.11763338742E-01 -0.19672331665E-01 -0.12457973639E-01  0.26092891747E-01  0.51100000000E-03 0. -1.
</event>
<event>
 8    1  0.1114447E+005  0.1043930E+01  0.7957747E-01            NaN
         13   -1    0    0    0    0  0.00000000000E+00  0.00000000000E+00  0.74505805969E-08  0.10566000000E+00  0.10566000000E+00 0.  1.
     999900   -1    0    0    0    0 -0.00000000000E+00 -0.00000000000E+00 -0.74505805969E-08  0.93827000000E+00  0.93827000000E+00 0.  1.
     999902    2    1    2    0    0  0.66905451416E-02  0.98825006997E-02  0.20340578874E-01  0.10203468203E+01  0.10200742460E+01 0.  0.
     999903    2    3    3    0    0 -0.21317074304E-02  0.12942850654E+00  0.16185585709E-01  0.13221037607E+00  0.21478544524E-01 0.  0.
         14    1    1    2    0    0 -0.66905451416E-02 -0.98825006997E-02 -0.20340578874E-01  0.23583179669E-01  0.00000000000E+00 0. -1.
     999901    1    3    3    0    0  0.88222525719E-02 -0.11954600584E+00  0.41549931648E-02  0.88813644426E+00  0.88000000000E+00 0.  1.
        -11    1    4    4    0    0  0.10014085556E-02  0.10500475986E+00  0.49172700098E-02  0.10512584400E+00  0.51100000000E-03 0.  1.
         11    1    4    4    0    0 -0.31331159859E-02  0.24423746682E-01  0.11268315699E-01  0.27084532071E-01  0.51100000000E-03 0. -1.
</event>
<event>
 8    1  0.1114447E+005  0.1043930E+01  0.7957747E-01            NaN
         13   -1    0    0    0    0  0.00000000000E+00  0.00000000000E+00  0.74505805969E-08  0.10566000000E+00  0.10566000000E+00 0.  1.
     999900   -1    0    0    0    0 -0.00000000000E+00 -0.00000000000E+00 -0.74505805969E-08  0.93827000000E+00  0.93827000000E+00 0. -1.
     999902    2    1    2    0    0  0.49153073338E-02  0.13912665234E-01  0.18888832499E-01  0.10199610515E+01  0.10196793790E+01 0.  0.
     999903    2    3    3    0    0  0.62112730396E-01  0.66553830340E-01 -0.90603752851E-01  0.12977496772E+00  0.18576829819E-01 0.  0.
         14    1    1    2    0    0 -0.49153073338E-02 -0.13912665234E-01 -0.18888832499E-01  0.23968948522E-01  0.00000000000E+00 0. -1.
     999901    1    3    3    0    0 -0.57197423062E-01 -0.52641165106E-01  0.10949258535E+00  0.89018608376E+00  0.88000000000E+00 0.  1.
        -11    1    4    4    0    0  0.16643866462E-01  0.95318133246E-02 -0.26214291862E-01  0.32485750336E-01  0.51100000000E-03 0. -1.
         11    1    4    4    0    0  0.45468863933E-01  0.57022017015E-01 -0.64389460989E-01  0.97289217385E-01  0.51100000000E-03 0.  1.
</event>
<event>
 8    1  0.1114447E+005  0.1043930E+01  0.7957747E-01            NaN
         13   -1    0    0    0    0  0.00000000000E+00  0.00000000000E+00  0.74505805969E-08  0.10566000000E+00  0.10566000000E+00 0.  1.
     999900   -1    0    0    0    0 -0.00000000000E+00 -0.00000000000E+00 -0.74505805969E-08  0.93827000000E+00  0.93827000000E+00 0. -1.
     999902    2    1    2    0    0 -0.23373424004E-01  0.97324620037E-03  0.42954063039E-02  0.10201452428E+01  0.10198679335E+01 0.  0.
     999903    2    3    3    0    0 -0.11506928074E-01  0.69952846254E-01 -0.10750218334E+00  0.13031509051E+00  0.19987328456E-01 0.  0.
         14    1    1    2    0    0  0.23373424004E-01 -0.97324620037E-03 -0.42954063039E-02  0.23784757160E-01  0.00000000000E+00 0. -1.
     999901    1    3    3    0    0 -0.11866495930E-01 -0.68979600054E-01  0.11179758964E+00  0.88983015233E+00  0.88000000000E+00 0.  1.
        -11    1    4    4    0    0  0.45059674575E-02  0.69379644627E-02 -0.16585079276E-01  0.18540902600E-01  0.51100000000E-03 0.  1.
         11    1    4    4    0    0 -0.16012895531E-01  0.63014881792E-01 -0.90917104062E-01  0.11177418791E+00  0.51100000000E-03 0. -1.
</event>
<event>
 8    1  0.1114447E+005  0.1043930E+01  0.7957747E-01            NaN
         13   -1    0    0    0    0  0.00000000000E+00  0.00000000000E+00  0.74505805969E-08  0.10566000000E+00  0.10566000000E+00 0.  1.
     999900   -1    0    0    0    0 -0.00000000000E+00 -0.00000000000E+00 -0.74505805969E-08  0.93827000000E+00  0.93827000000E+00 0. -1.
     999902    2    1    2    0    0  0.17736764880E-01 -0.54219567531E-03  0.12804548789E-01  0.10220475122E+01  0.10218132284E+01 0.  0.
     999903    2    3    3    0    0  0.10666473252E+00  0.28142134662E-01  0.75754311124E-01  0.13486452832E+00  0.16744564381E-01 0.  0.
         14    1    1    2    0    0 -0.17736764880E-01  0.54219567531E-03 -0.12804548789E-01  0.21882487845E-01  0.00000000000E+00 0. -1.
     999901    1    3    3    0    0 -0.88927967644E-01 -0.28684330337E-01 -0.62949762335E-01  0.88718298384E+00  0.88000000000E+00 0.  1.
        -11    1    4    4    0    0  0.66555487977E-01  0.11882239323E-01  0.38799272961E-01  0.77951685642E-01  0.51100000000E-03 0. -1.
         11    1    4    4    0    0  0.40109244547E-01  0.16259895339E-01  0.36955038164E-01  0.56912842674E-01  0.51100000000E-03 0.  1.
</event>
<event>
 8    1  0.1114447E+005  0.1043930E+01  0.7957747E-01            NaN
         13   -1    0    0    0    0  0.00000000000E+00  0.00000000000E+00  0.74505805969E-08  0.10566000000E+00  0.10566000000E+00 0.  1.
     999900   -1    0    0    0    0 -0.00000000000E+00 -0.00000000000E+00 -0.74505805969E-08  0.93827000000E+00  0.93827000000E+00 0. -1.
     999902    2    1    2    0    0  0.36686761749E-02  0.15712267840E-01  0.57991386692E-02  0.10267846054E+01  0.10266414473E+01 0.  0.
     999903    2    3    3    0    0  0.99518471338E-01 -0.93807538059E-02 -0.90110361609E-01  0.13604588100E+00  0.19916821716E-01 0.  0.
         14    1    1    2    0    0 -0.36686761749E-02 -0.15712267840E-01 -0.57991386692E-02  0.17145394567E-01  0.00000000000E+00 0. -1.
     999901    1    3    3    0    0 -0.95849795163E-01  0.25093021646E-01  0.95909500278E-01  0.89073872444E+00  0.88000000000E+00 0.  1.
        -11    1    4    4    0    0  0.75150054572E-01 -0.13136065509E-01 -0.75740468043E-01  0.10750333269E+00  0.51100000000E-03 0.  1.
         11    1    4    4    0    0  0.24368416766E-01  0.37553117030E-02 -0.14369893566E-01  0.28542548306E-01  0.51100000000E-03 0. -1.
</event>
<event>
 8    1  0.1114447E+005  0.1043930E+01  0.7957747E-01            NaN
         13   -1    0    0    0    0  0.00000000000E+00  0.00000000000E+00  0.74505805969E-08  0.10566000000E+00  0.10566000000E+00 0.  1.
     999900   -1    0    0    0    0 -0.00000000000E+00 -0.00000000000E+00 -0.74505805969E-08  0.93827000000E+00  0.93827000000E+00 0. -1.
     999902    2    1    2    0    0  0.10999420648E-01 -0.89221649228E-02  0.20019213141E-01  0.10194073334E+01  0.10191123345E+01 0.  0.
     999903    2    3    3    0    0  0.42463382332E-01 -0.56992820964E-01  0.11037670587E+00  0.13291692436E+00  0.20798343716E-01 0.  0.
         14    1    1    2    0    0 -0.10999420648E-01  0.89221649228E-02 -0.20019213141E-01  0.24522666581E-01  0.00000000000E+00 0. -1.
     999901    1    3    3    0    0 -0.31463961685E-01  0.48070656041E-01 -0.90357492734E-01  0.88649040906E+00  0.88000000000E+00 0.  1.
        -11    1    4    4    0    0  0.23052380214E-01 -0.18478058757E-01  0.57770005160E-01  0.64888253992E-01  0.51100000000E-03 0.  1.
         11    1    4    4    0    0  0.19411002118E-01 -0.38514762207E-01  0.52606700715E-01  0.68028670369E-01  0.51100000000E-03 0. -1.
</event>
<event>
 8    1  0.1114447E+005  0.1043930E+01  0.7957747E-01            NaN
         13   -1    0    0    0    0  0.00000000000E+00  0.00000000000E+00  0.74505805969E-08  0.10566000000E+00  0.10566000000E+00 0.  1.
     999900   -1    0    0    0    0 -0.00000000000E+00 -0.00000000000E+00 -0.74505805969E-08  0.93827000000E+00  0.93827000000E+00 0.  1.
     999902    2    1    2    0    0  0.73463228498E-02  0.19698600151E-01  0.10244666867E-01  0.10205428987E+01  0.10202748902E+01 0.  0.
     999903    2    3    3    0    0 -0.10982438675E+00  0.63118781311E-01  0.30759719936E-01  0.13147869703E+00  0.17178792783E-01 0.  0.
         14    1    1    2    0    0 -0.73463228498E-02 -0.19698600151E-01 -0.10244666867E-01  0.23387101285E-01  0.00000000000E+00 0. -1.
     999901    1    3    3    0    0  0.11717070960E+00 -0.43420181160E-01 -0.20515053069E-01  0.88906420169E+00  0.88000000000E+00 0. -1.
        -11    1    4    4    0    0 -0.59772108236E-01  0.38473452596E-01  0.25152650210E-01  0.75404432305E-01  0.51100000000E-03 0.  1.
         11    1    4    4    0    0 -0.50052278517E-01  0.24645328715E-01  0.56070697263E-02  0.56074264722E-01  0.51100000000E-03 0. -1.
</event>
<event>
 8    1  0.1304484E+005  0.1043930E+01  0.7957747E-01            NaN
         13   -1    0    0    0    0  0.00000000000E+00  0.00000000000E+00  0.74505805969E-08  0.10566000000E+00  0.10566000000E+00 0. -1.
     999900   -1    0    0    0    0 -0.00000000000E+00 -0.00000000000E+00 -0.74505805969E-08  0.93827000000E+00  0.93827000000E+00 0. -1.
     999902    2    1    2    0    0 -0.15935612757E-01  0.11817351985E-01  0.12151330362E-01  0.10206652543E+01  0.10204000750E+01 0.  0.
     999903    2    3    3    0    0  0.85273017089E-01 -0.15148447980E-01 -0.92497713816E-01  0.12829662894E+00  0.20080712537E-01 0.  0.
         14    1    1    2    0    0  0.15935612757E-01 -0.11817351985E-01 -0.12151330362E-01  0.23264745677E-01  0.00000000000E+00 0. -1.
     999901    1    3    3    0    0 -0.10120862985E+00  0.26965799966E-01  0.10464904418E+00  0.89236862538E+00  0.88000000000E+00 0. -1.
        -11    1    4    4    0    0  0.39320627089E-01 -0.11156488469E-01 -0.30402319017E-01  0.50942527148E-01  0.51100000000E-03 0. -1.
         11    1    4    4    0    0  0.45952390000E-01 -0.39919595111E-02 -0.62095394800E-01  0.77354101790E-01  0.51100000000E-03 0.  1.
</event>
<event>
 8    1  0.1114447E+005  0.1043930E+01  0.7957747E-01            NaN
         13   -1    0    0    0    0  0.00000000000E+00  0.00000000000E+00  0.74505805969E-08  0.10566000000E+00  0.10566000000E+00 0. -1.
     999900   -1    0    0    0    0 -0.00000000000E+00 -0.00000000000E+00 -0.74505805969E-08  0.93827000000E+00  0.93827000000E+00 0. -1.
     999902    2    1    2    0    0  0.15532123374E-01  0.15305617493E-01 -0.96799465965E-02  0.10200718746E+01  0.10197928315E+01 0.  0.
     999903    2    3    3    0    0  0.11451967141E+00  0.22987934012E-01 -0.60435793964E-01  0.13303539916E+00  0.20068183483E-01 0.  0.
         14    1    1    2    0    0 -0.15532123374E-01 -0.15305617493E-01  0.96799465965E-02  0.23858125439E-01  0.00000000000E+00 0. -1.
     999901    1    3    3    0    0 -0.98987548031E-01 -0.76823165192E-02  0.50755847367E-01  0.88703647540E+00  0.88000000000E+00 0.  1.
        -11    1    4    4    0    0  0.75892161544E-01  0.19978049030E-01 -0.49453023307E-01  0.92761011541E-01  0.51100000000E-03 0. -1.
         11    1    4    4    0    0  0.38627509861E-01  0.30098849815E-02 -0.10982770657E-01  0.40274387617E-01  0.51100000000E-03 0.  1.
</event>
<event>
 8    1  0.1114447E+005  0.1043930E+01  0.7957747E-01            NaN
         13   -1    0    0    0    0  0.00000000000E+00  0.00000000000E+00  0.74505805969E-08  0.10566000000E+00  0.10566000000E+00 0. -1.
     999900   -1    0    0    0    0 -0.00000000000E+00 -0.00000000000E+00 -0.74505805969E-08  0.93827000000E+00  0.93827000000E+00 0. -1.
     999902    2    1    2    0    0 -0.10787108907E-01 -0.15857074334E-01  0.12928684174E-01  0.10208008107E+01  0.10205387477E+01 0.  0.
     999903    2    3    3    0    0  0.11859304892E+00 -0.32015774443E-01 -0.37012179815E-01  0.12979328054E+00  0.19674174801E-01 0.  0.
         14    1    1    2    0    0  0.10787108907E-01  0.15857074334E-01 -0.12928684174E-01  0.23129189339E-01  0.00000000000E+00 0.  1.
     999901    1    3    3    0    0 -0.12938015783E+00  0.16158700109E-01  0.49940863989E-01  0.89100753012E+00  0.88000000000E+00 0.  1.
        -11    1    4    4    0    0  0.77151635410E-01 -0.12168727912E-01 -0.27944583625E-01  0.82955492045E-01  0.51100000000E-03 0.  1.
         11    1    4    4    0    0  0.41441413511E-01 -0.19847046532E-01 -0.90675961904E-02  0.46837788499E-01  0.51100000000E-03 0. -1.
</event>
<event>
 8    1  0.1114447E+005  0.1043930E+01  0.7957747E-01            NaN
         13   -1    0    0    0    0  0.00000000000E+00  0.00000000000E+00  0.74505805969E-08  0.10566000000E+00  0.10566000000E+00 0.  1.
     999900   -1    0    0    0    0 -0.00000000000E+00 -0.00000000000E+00 -0.74505805969E-08  0.93827000000E+00  0.93827000000E+00 0. -1.
     999902    2    1    2    0    0  0.11967586148E-01  0.62381984769E-02 -0.21242812067E-01  0.10187626540E+01  0.10184517416E+01 0.  0.
     999903    2    3    3    0    0  0.49281738313E-01 -0.56474483257E-01 -0.10626953674E+00  0.13165794189E+00  0.20555832103E-01 0.  0.
         14    1    1    2    0    0 -0.11967586148E-01 -0.62381984769E-02  0.21242812067E-01  0.25167345966E-01  0.00000000000E+00 0.  1.
     999901    1    3    3    0    0 -0.37314152166E-01  0.62712681734E-01  0.85026724672E-01  0.88710471215E+00  0.88000000000E+00 0. -1.
        -11    1    4    4    0    0  0.31380991875E-01 -0.20678077745E-01 -0.54976736317E-01  0.66596187634E-01  0.51100000000E-03 0.  1.
         11    1    4    4    0    0  0.17900746438E-01 -0.35796405512E-01 -0.51292800422E-01  0.65061754255E-01  0.51100000000E-03 0. -1.
</event>
<event>
 8    1  0.1114447E+005  0.1043930E+01  0.7957747E-01            NaN
         13   -1    0    0    0    0  0.00000000000E+00  0.00000000000E+00  0.74505805969E-08  0.10566000000E+00  0.10566000000E+00 0. -1.
     999900   -1    0    0    0    0 -0.00000000000E+00 -0.00000000000E+00 -0.74505805969E-08  0.93827000000E+00  0.93827000000E+00 0. -1.
     999902    2    1    2    0    0 -0.18094739190E-01  0.12885900296E-01  0.98717568307E-02  0.10196212033E+01  0.10193313890E+01 0.  0.
     999903    2    3    3    0    0  0.90938588293E-01  0.88503628073E-01 -0.15156945284E-01  0.12932195971E+00  0.19791848062E-01 0.  0.
         14    1    1    2    0    0  0.18094739190E-01 -0.12885900296E-01 -0.98717568307E-02  0.24308796674E-01  0.00000000000E+00 0. -1.
     999901    1    3    3    0    0 -0.10903332748E+00 -0.75617727777E-01  0.25028702115E-01  0.89029924362E+00  0.88000000000E+00 0. -1.
        -11    1    4    4    0    0  0.70365819388E-01  0.57797323798E-01 -0.15413893263E-01  0.92356528750E-01  0.51100000000E-03 0. -1.
         11    1    4    4    0    0  0.20572768906E-01  0.30706304275E-01  0.25694797878E-03  0.36965430959E-01  0.51100000000E-03 0.  1.
</event>
<event>
 8    1  0.1114447E+005  0.1043930E+01  0.7957747E-01            NaN
         13   -1    0    0    0    0  0.00000000000E+00  0.00000000000E+00  0.74505805969E-08  0.10566000000E+00  0.10566000000E+00 0. -1.
     999900   -1    0    0    0    0 -0.00000000000E+00 -0.00000000000E+00 -0.74505805969E-08  0.93827000000E+00  0.93827000000E+00 0. -1.
     999902    2    1    2    0    0  0.13656154736E-01  0.18268088717E-01  0.63547746874E-02  0.10202530748E+01  0.10199783036E+01 0.  0.
     999903    2    3    3    0    0 -0.69028766089E-01  0.27381832632E-01 -0.10416482419E+00  0.12944757512E+00  0.19789613419E-01 0.  0.
         14    1    1    2    0    0 -0.13656154736E-01 -0.18268088717E-01 -0.63547746874E-02  0.23676925241E-01  0.00000000000E+00 0. -1.
     999901    1    3    3    0    0  0.82684920825E-01 -0.91137439148E-02  0.11051959887E+00  0.89080549964E+00  0.88000000000E+00 0.  1.
        -11    1    4    4    0    0 -0.57000570170E-02 -0.31530366430E-02 -0.94868567579E-02  0.11519282192E-01  0.51100000000E-03 0. -1.
         11    1    4    4    0    0 -0.63328709072E-01  0.30534869275E-01 -0.94677967430E-01  0.11792829292E+00  0.51100000000E-03 0.  1.
</event>
<event>
 8    1  0.1114447E+005  0.1043930E+01  0.7957747E-01            NaN
         13   -1    0    0    0    0  0.00000000000E+00  0.00000000000E+00  0.74505805969E-08  0.10566000000E+00  0.10566000000E+00 0.  1.
     999900   -1    0    0    0    0 -0.00000000000E+00 -0.00000000000E+00 -0.74505805969E-08  0.93827000000E+00  0.93827000000E+00 0. -1.
     999902    2    1    2    0    0 -0.37364791395E-02 -0.21484391526E-01  0.80250250926E-02  0.10206933612E+01  0.10204288296E+01 0.  0.
     999903    2    3    3    0    0 -0.10034369861E+00  0.16179774780E-01 -0.79172471918E-01  0.13032548903E+00  0.19642042139E-01 0.  0.
         14    1    1    2    0    0  0.37364791395E-02  0.21484391526E-01 -0.80250250926E-02  0.23236638814E-01  0.00000000000E+00 0. -1.
     999901    1    3    3    0    0  0.96607219471E-01 -0.37664166307E-01  0.87197497011E-01  0.89036787215E+00  0.88000000000E+00 0.  1.
        -11    1    4    4    0    0 -0.60008048857E-01  0.19227272253E-01 -0.50210673798E-01  0.80573114686E-01  0.51100000000E-03 0. -1.
         11    1    4    4    0    0 -0.40335649753E-01 -0.30474974726E-02 -0.28961798120E-01  0.49752374347E-01  0.51100000000E-03 0.  1.
</event>
<event>
 8    1  0.1114447E+005  0.1043930E+01  0.7957747E-01            NaN
         13   -1    0    0    0    0  0.00000000000E+00  0.00000000000E+00  0.74505805969E-08  0.10566000000E+00  0.10566000000E+00 0. -1.
     999900   -1    0    0    0    0 -0.00000000000E+00 -0.00000000000E+00 -0.74505805969E-08  0.93827000000E+00  0.93827000000E+00 0.  1.
     999902    2    1    2    0    0  0.79011174077E-02 -0.12539589498E-01  0.16181282999E-01  0.10219868261E+01  0.10217512270E+01 0.  0.
     999903    2    3    3    0    0 -0.16749045519E-01 -0.11969495043E+00 -0.51802751109E-01  0.13254220680E+00  0.16628285449E-01 0.  0.
         14    1    1    2    0    0 -0.79011174077E-02  0.12539589498E-01 -0.16181282999E-01  0.21943173895E-01  0.00000000000E+00 0.  1.
     999901    1    3    3    0    0  0.24650162927E-01  0.10715536094E+00  0.67984034108E-01  0.88944461930E+00  0.88000000000E+00 0. -1.
        -11    1    4    4    0    0 -0.10198418706E-01 -0.24714509114E-01 -0.12962048060E-01  0.29716838926E-01  0.51100000000E-03 0.  1.
         11    1    4    4    0    0 -0.65506268129E-02 -0.94980441320E-01 -0.38840703050E-01  0.10282536788E+00  0.51100000000E-03 0. -1.
</event>
<event>
 8    1  0.1114447E+005  0.1043930E+01  0.7957747E-01            NaN
         13   -1    0    0    0    0  0.00000000000E+00  0.00000000000E+00  0.74505805969E-08  0.10566000000E+00  0.10566000000E+00 0.  1.
     999900   -1    0    0    0    0 -0.00000000000E+00 -0.00000000000E+00 -0.74505805969E-08  0.93827000000E+00  0.93827000000E+00 0.  1.
     999902    2    1    2    0    0 -0.21675578538E-01  0.92513865094E-02  0.87881488453E-03  0.10203462943E+01  0.10200737077E+01 0.  0.
     999903    2    3    3    0    0 -0.11964103815E-01  0.78512075438E-01  0.10319886834E+00  0.13166145193E+00  0.19427962573E-01 0.  0.
         14    1    1    2    0    0  0.21675578538E-01 -0.92513865094E-02 -0.87881488453E-03  0.23583705665E-01  0.00000000000E+00 0.  1.
     999901    1    3    3    0    0 -0.97114747228E-02 -0.69260688929E-01 -0.10232005345E+00  0.88868484240E+00  0.88000000000E+00 0.  1.
        -11    1    4    4    0    0 -0.16334204411E-01  0.44233826285E-01  0.57396226184E-01  0.74283413510E-01  0.51100000000E-03 0.  1.
         11    1    4    4    0    0  0.43701005958E-02  0.34278249154E-01  0.45802642153E-01  0.57378038425E-01  0.51100000000E-03 0. -1.
</event>
<event>
 8    1  0.1114447E+005  0.1043930E+01  0.7957747E-01            NaN
         13   -1    0    0    0    0  0.00000000000E+00  0.00000000000E+00  0.74505805969E-08  0.10566000000E+00  0.10566000000E+00 0.  1.
     999900   -1    0    0    0    0 -0.00000000000E+00 -0.00000000000E+00 -0.74505805969E-08  0.93827000000E+00  0.93827000000E+00 0.  1.
     999902    2    1    2    0    0 -0.15724925240E-01 -0.56125235620E-02 -0.16722121390E-01  0.10202994469E+01  0.10200257636E+01 0.  0.
     999903    2    3    3    0    0 -0.79623973682E-01 -0.99808754701E-01  0.26889659161E-01  0.13189750763E+00  0.19290776271E-01 0.  0.
         14    1    1    2    0    0  0.15724925240E-01  0.56125235620E-02  0.16722121390E-01  0.23630553069E-01  0.00000000000E+00 0.  1.
     999901    1    3    3    0    0  0.63899048442E-01  0.94196231139E-01 -0.43611780551E-01  0.88840193930E+00  0.88000000000E+00 0.  1.
        -11    1    4    4    0    0 -0.32817350273E-01 -0.56224275821E-01  0.11462265308E-01  0.66104404676E-01  0.51100000000E-03 0.  1.
         11    1    4    4    0    0 -0.46806623408E-01 -0.43584478880E-01  0.15427393853E-01  0.65793102954E-01  0.51100000000E-03 0. -1.
</event>
<event>
 8    1  0.1114447E+005  0.1043930E+01  0.7957747E-01            NaN
         13   -1    0    0    0    0  0.00000000000E+00  0.00000000000E+00  0.74505805969E-08  0.10566000000E+00  0.10566000000E+00 0.  1.
     999900   -1    0    0    0    0 -0.00000000000E+00 -0.00000000000E+00 -0.74505805969E-08  0.93827000000E+00  0.93827000000E+00 0.  1.
     999902    2    1    2    0    0  0.83394568722E-02 -0.57146999256E-02  0.14863530739E-01  0.10259542140E+01  0.10257967247E+01 0.  0.
     999903    2    3    3    0    0 -0.63430083941E-01  0.93108847683E-01 -0.68904747586E-01  0.13357868487E+00  0.20069074341E-01 0.  0.
         14    1    1    2    0    0 -0.83394568722E-02  0.57146999256E-02 -0.14863530739E-01  0.17975785997E-01  0.00000000000E+00 0. -1.
     999901    1    3    3    0    0  0.71769540813E-01 -0.98823547609E-01  0.83768278325E-01  0.89237552914E+00  0.88000000000E+00 0. -1.
        -11    1    4    4    0    0 -0.89068307263E-02  0.22464153269E-01 -0.22373489004E-01  0.32936362078E-01  0.51100000000E-03 0. -1.
         11    1    4    4    0    0 -0.54523253215E-01  0.70644694414E-01 -0.46531258581E-01  0.10064232279E+00  0.51100000000E-03 0.  1.
</event>
<event>
 8    1  0.1114447E+005  0.1043930E+01  0.7957747E-01            NaN
         13   -1    0    0    0    0  0.00000000000E+00  0.00000000000E+00  0.74505805969E-08  0.10566000000E+00  0.10566000000E+00 0. -1.
     999900   -1    0    0    0    0 -0.00000000000E+00 -0.00000000000E+00 -0.74505805969E-08  0.93827000000E+00  0.93827000000E+00 0. -1.
     999902    2    1    2    0    0  0.15211292658E-01 -0.81920014559E-04 -0.17560637420E-01  0.10206971327E+01  0.10204326879E+01 0.  0.
     999903    2    3    3    0    0 -0.87374202595E-01  0.66783133905E-01 -0.68468802688E-01  0.13076097740E+00  0.17782519916E-01 0.  0.
         14    1    1    2    0    0 -0.15211292658E-01  0.81920014559E-04  0.17560637420E-01  0.23232867275E-01  0.00000000000E+00 0. -1.
     999901    1    3    3    0    0  0.10258549525E+00 -0.66865053920E-01  0.50908165268E-01  0.88993615533E+00  0.88000000000E+00 0.  1.
        -11    1    4    4    0    0 -0.39128592555E-01  0.27919150498E-01 -0.40190578813E-01  0.62658355119E-01  0.51100000000E-03 0. -1.
         11    1    4    4    0    0 -0.48245610040E-01  0.38863983408E-01 -0.28278223874E-01  0.68102622276E-01  0.51100000000E-03 0.  1.
</event>
<event>
 8    1  0.1114447E+005  0.1043930E+01  0.7957747E-01            NaN
         13   -1    0    0    0    0  0.00000000000E+00  0.00000000000E+00  0.74505805969E-08  0.10566000000E+00  0.10566000000E+00 0.  1.
     999900   -1    0    0    0    0 -0.00000000000E+00 -0.00000000000E+00 -0.74505805969E-08  0.93827000000E+00  0.93827000000E+00 0. -1.
     999902    2    1    2    0    0 -0.13954170497E-01  0.16461261483E-01 -0.94620258735E-02  0.10203668521E+01  0.10200947461E+01 0.  0.
     999903    2    3    3    0    0  0.12301810029E+00  0.94149598856E-02 -0.33651955546E-01  0.12941443700E+00  0.19838042297E-01 0.  0.
         14    1    1    2    0    0  0.13954170497E-01 -0.16461261483E-01  0.94620258735E-02  0.23563147869E-01  0.00000000000E+00 0. -1.
     999901    1    3    3    0    0 -0.13697227079E+00  0.70463015974E-02  0.24189929673E-01  0.89095241513E+00  0.88000000000E+00 0.  1.
        -11    1    4    4    0    0  0.89741792315E-01 -0.14959143710E-02 -0.21031786191E-01  0.92186898196E-01  0.51100000000E-03 0. -1.
         11    1    4    4    0    0  0.33276307979E-01  0.10910874257E-01 -0.12620169356E-01  0.37227538803E-01  0.51100000000E-03 0.  1.
</event>
<event>
 8    1  0.1114447E+005  0.1043930E+01  0.7957747E-01            NaN
         13   -1    0    0    0    0  0.00000000000E+00  0.00000000000E+00  0.74505805969E-08  0.10566000000E+00  0.10566000000E+00 0. -1.
     999900   -1    0    0    0    0 -0.00000000000E+00 -0.00000000000E+00 -0.74505805969E-08  0.93827000000E+00  0.93827000000E+00 0.  1.
     999902    2    1    2    0    0  0.76291639376E-02  0.14153607808E-01 -0.15917191080E-01  0.10213051082E+01  0.10210544737E+01 0.  0.
     999903    2    3    3    0    0 -0.59762972178E-01 -0.11281223665E+00 -0.98874502210E-02  0.12962221422E+00  0.20148031291E-01 0.  0.
         14    1    1    2    0    0 -0.76291639376E-02 -0.14153607808E-01  0.15917191080E-01  0.22624891784E-01  0.00000000000E+00 0. -1.
     999901    1    3    3    0    0  0.67392136116E-01  0.12696584446E+00 -0.60297408591E-02  0.89168289400E+00  0.88000000000E+00 0. -1.
        -11    1    4    4    0    0 -0.26349791750E-01 -0.69256237498E-01 -0.17327656815E-02  0.74121532334E-01  0.51100000000E-03 0. -1.
         11    1    4    4    0    0 -0.33413180429E-01 -0.43555999155E-01 -0.81546845395E-02  0.55500681885E-01  0.51100000000E-03 0.  1.
</event>
<event>
 8    1  0.1114447E+005  0.1043930E+01  0.7957747E-01            NaN
         13   -1    0    0    0    0  0.00000000000E+00  0.00000000000E+00  0.74505805969E-08  0.10566000000E+00  0.10566000000E+00 0. -1.
     999900   -1    0    0    0    0 -0.00000000000E+00 -0.00000000000E+00 -0.74505805969E-08  0.93827000000E+00  0.93827000000E+00 0.  1.
     999902    2    1    2    0    0 -0.20038369178E-01  0.10205208859E-01 -0.73899607161E-02  0.10202594688E+01  0.10199848478E+01 0.  0.
     999903    2    3    3    0    0  0.86886873262E-02 -0.54172745729E-01  0.11499560025E+00  0.12899744766E+00  0.20153752976E-01 0.  0.
         14    1    1    2    0    0  0.20038369178E-01 -0.10205208859E-01  0.73899607161E-02  0.23670531184E-01  0.00000000000E+00 0.  1.
     999901    1    3    3    0    0 -0.28727056504E-01  0.64377954588E-01 -0.12238556097E+00  0.89126202115E+00  0.88000000000E+00 0.  1.
        -11    1    4    4    0    0  0.12932126612E-01 -0.49897106970E-01  0.94702209149E-01  0.10782268185E+00  0.51100000000E-03 0. -1.
         11    1    4    4    0    0 -0.42434392855E-02 -0.42756387586E-02  0.20293391104E-01  0.21174765814E-01  0.51100000000E-03 0.  1.
</event>
<event>
 8    1  0.1114447E+005  0.1043930E+01  0.7957747E-01            NaN
         13   -1    0    0    0    0  0.00000000000E+00  0.00000000000E+00  0.74505805969E-08  0.10566000000E+00  0.10566000000E+00 0.  1.
     999900   -1    0    0    0    0 -0.00000000000E+00 -0.00000000000E+00 -0.74505805969E-08  0.93827000000E+00  0.93827000000E+00 0.  1.
     999902    2    1    2    0    0 -0.13878591848E-01 -0.61037554137E-02  0.16878948152E-01  0.10212414559E+01  0.10209893933E+01 0.  0.
     999903    2    3    3    0    0 -0.32420842029E-01  0.55646973815E-01  0.11443763078E+00  0.13350576093E+00  0.24085683901E-01 0.  0.
         14    1    1    2    0    0  0.13878591848E-01  0.61037554137E-02 -0.16878948152E-01  0.22688544082E-01  0.00000000000E+00 0. -1.
     999901    1    3    3    0    0  0.18542250180E-01 -0.61750729229E-01 -0.97558682632E-01  0.88773569499E+00  0.88000000000E+00 0.  1.
        -11    1    4    4    0    0 -0.30687136100E-01  0.29585526348E-01  0.70119570078E-01  0.82061068237E-01  0.51100000000E-03 0.  1.
         11    1    4    4    0    0 -0.17337059285E-02  0.26061447468E-01  0.44318060706E-01  0.51444692691E-01  0.51100000000E-03 0. -1.
</event>
<event>
 8    1  0.1114447E+005  0.1043930E+01  0.7957747E-01            NaN
         13   -1    0    0    0    0  0.00000000000E+00  0.00000000000E+00  0.74505805969E-08  0.10566000000E+00  0.10566000000E+00 0. -1.
     999900   -1    0    0    0    0 -0.00000000000E+00 -0.00000000000E+00 -0.74505805969E-08  0.93827000000E+00  0.93827000000E+00 0. -1.
     999902    2    1    2    0    0  0.33510132447E-02  0.12596885508E-01 -0.12109907352E-01  0.10261378481E+01  0.10259835879E+01 0.  0.
     999903    2    3    3    0    0  0.11838900803E+00  0.65419676493E-01  0.31704940378E-02  0.13694862290E+00  0.21193913890E-01 0.  0.
         14    1    1    2    0    0 -0.33510132447E-02 -0.12596885508E-01  0.12109907352E-01  0.17792151931E-01  0.00000000000E+00 0. -1.
     999901    1    3    3    0    0 -0.11503799479E+00 -0.52822790985E-01 -0.15280401390E-01  0.88918922517E+00  0.88000000000E+00 0.  1.
        -11    1    4    4    0    0  0.10629104007E+00  0.50451792716E-01  0.25176775610E-02  0.11768503902E+00  0.51100000000E-03 0.  1.
         11    1    4    4    0    0  0.12097967965E-01  0.14967883777E-01  0.65281647677E-03  0.19263583882E-01  0.51100000000E-03 0. -1.
</event>
<event>
 8    1  0.1114447E+005  0.1043930E+01  0.7957747E-01            NaN
         13   -1    0    0    0    0  0.00000000000E+00  0.00000000000E+00  0.74505805969E-08  0.10566000000E+00  0.10566000000E+00 0. -1.
     999900   -1    0    0    0    0 -0.00000000000E+00 -0.00000000000E+00 -0.74505805969E-08  0.93827000000E+00  0.93827000000E+00 0.  1.
     999902    2    1    2    0    0 -0.20218901989E-01 -0.11877639050E-01  0.41425418491E-02  0.10201173361E+01  0.10198393680E+01 0.  0.
     999903    2    3    3    0    0 -0.88847517900E-01 -0.84953561973E-01 -0.46802043081E-01  0.13296158422E+00  0.19425820782E-01 0.  0.
         14    1    1    2    0    0  0.20218901989E-01  0.11877639050E-01 -0.41425418491E-02  0.23812663858E-01  0.00000000000E+00 0. -1.
     999901    1    3    3    0    0  0.68628615910E-01  0.73075922923E-01  0.50944584930E-01  0.88715575192E+00  0.88000000000E+00 0. -1.
        -11    1    4    4    0    0 -0.80326867108E-03 -0.20384147021E-02 -0.41470213435E-02  0.47179743619E-02  0.51100000000E-03 0.  1.
         11    1    4    4    0    0 -0.88044249229E-01 -0.82915147271E-01 -0.42655021738E-01  0.12824360986E+00  0.51100000000E-03 0. -1.
</event>
<event>
 8    1  0.1114447E+005  0.1043930E+01  0.7957747E-01            NaN
         13   -1    0    0    0    0  0.00000000000E+00  0.00000000000E+00  0.74505805969E-08  0.10566000000E+00  0.10566000000E+00 0.  1.
     999900   -1    0    0    0    0 -0.00000000000E+00 -0.00000000000E+00 -0.74505805969E-08  0.93827000000E+00  0.93827000000E+00 0.  1.
     999902    2    1    2    0    0  0.21683443148E-01 -0.62993780544E-02  0.40764300501E-02  0.10209850408E+01  0.10207271831E+01 0.  0.
     999903    2    3    3    0    0 -0.99276630248E-01  0.57910979284E-01  0.54970553649E-01  0.12893990676E+00  0.19854645622E-01 0.  0.
         14    1    1    2    0    0 -0.21683443148E-01  0.62993780544E-02 -0.40764300501E-02  0.22944959198E-01  0.00000000000E+00 0.  1.
     999901    1    3    3    0    0  0.12096007340E+00 -0.64210357338E-01 -0.50894123599E-01  0.89204513404E+00  0.88000000000E+00 0.  1.
        -11    1    4    4    0    0 -0.29282473610E-01  0.27990285236E-01  0.18879359448E-01  0.44694637962E-01  0.51100000000E-03 0. -1.
         11    1    4    4    0    0 -0.69994156638E-01  0.29920694047E-01  0.36091194201E-01  0.84245268802E-01  0.51100000000E-03 0.  1.
</event>
<event>
 8    1  0.1114447E+005  0.1043930E+01  0.7957747E-01            NaN
         13   -1    0    0    0    0  0.00000000000E+00  0.00000000000E+00  0.74505805969E-08  0.10566000000E+00  0.10566000000E+00 0.  1.
     999900   -1    0    0    0    0 -0.00000000000E+00 -0.00000000000E+00 -0.74505805969E-08  0.93827000000E+00  0.93827000000E+00 0. -1.
     999902    2    1    2    0    0 -0.23019112090E-01 -0.30207672920E-01  0.37712038382E-02  0.10057645051E+01  0.10050401159E+01 0.  0.
     999903    2    3    3    0    0  0.60135125821E-01  0.91054071045E-01  0.22809472767E-01  0.11336241324E+00  0.20583670109E-01 0.  0.
         14    1    1    2    0    0  0.23019112090E-01  0.30207672920E-01 -0.37712038382E-02  0.38165494927E-01  0.00000000000E+00 0.  1.
     999901    1    3    3    0    0 -0.83154237911E-01 -0.12126174397E+00 -0.19038268928E-01  0.89240209184E+00  0.88000000000E+00 0.  1.
        -11    1    4    4    0    0  0.60054983442E-01  0.80387784463E-01  0.21253955918E-01  0.10257089592E+00  0.51100000000E-03 0. -1.
         11    1    4    4    0    0  0.80142379396E-04  0.10666286582E-01  0.15555168482E-02  0.10791517313E-01  0.51100000000E-03 0.  1.
</event>
<event>
 8    1  0.1114447E+005  0.1043930E+01  0.7957747E-01            NaN
         13   -1    0    0    0    0  0.00000000000E+00  0.00000000000E+00  0.74505805969E-08  0.10566000000E+00  0.10566000000E+00 0. -1.
     999900   -1    0    0    0    0 -0.00000000000E+00 -0.00000000000E+00 -0.74505805969E-08  0.93827000000E+00  0.93827000000E+00 0. -1.
     999902    2    1    2    0    0  0.12560377480E-01 -0.25040757345E-02  0.20773828668E-01  0.10195253809E+01  0.10192332495E+01 0.  0.
     999903    2    3    3    0    0 -0.97478627858E-01 -0.20548168389E-01 -0.76422649829E-01  0.12717941241E+00  0.20245281469E-01 0.  0.
         14    1    1    2    0    0 -0.12560377480E-01  0.25040757345E-02 -0.20773828668E-01  0.24404619137E-01  0.00000000000E+00 0.  1.
     999901    1    3    3    0    0  0.11003900534E+00  0.18044092654E-01  0.97196478496E-01  0.89234596845E+00  0.88000000000E+00 0. -1.
        -11    1    4    4    0    0 -0.43708028055E-01  0.51229233705E-03 -0.36824373771E-01  0.57157237377E-01  0.51100000000E-03 0. -1.
         11    1    4    4    0    0 -0.53770599803E-01 -0.21060460726E-01 -0.39598276058E-01  0.70022175037E-01  0.51100000000E-03 0.  1.
</event>
<event>
 8    1  0.1114447E+005  0.1043930E+01  0.7957747E-01            NaN
         13   -1    0    0    0    0  0.00000000000E+00  0.00000000000E+00  0.74505805969E-08  0.10566000000E+00  0.10566000000E+00 0. -1.
     999900   -1    0    0    0    0 -0.00000000000E+00 -0.00000000000E+00 -0.74505805969E-08  0.93827000000E+00  0.93827000000E+00 0. -1.
     999902    2    1    2    0    0 -0.16182483027E-01  0.56206896925E-02  0.14385302359E-01  0.10215603368E+01  0.10213153870E+01 0.  0.
     999903    2    3    3    0    0 -0.44762919191E-01  0.21985482698E-01  0.12301901476E+00  0.13426899157E+00  0.20184244355E-01 0.  0.
         14    1    1    2    0    0  0.16182483027E-01 -0.56206896925E-02 -0.14385302359E-01  0.22369663240E-01  0.00000000000E+00 0.  1.
     999901    1    3    3    0    0  0.28580436164E-01 -0.16364793006E-01 -0.10863371240E+00  0.88729134519E+00  0.88000000000E+00 0. -1.
        -11    1    4    4    0    0 -0.16175766895E-01 -0.20457054302E-02  0.33092422069E-01  0.36894577715E-01  0.51100000000E-03 0. -1.
         11    1    4    4    0    0 -0.28587152295E-01  0.24031188128E-01  0.89926592691E-01  0.97374413853E-01  0.51100000000E-03 0.  1.
</event>
<event>
 8    1  0.1114447E+005  0.1043930E+01  0.7957747E-01            NaN
         13   -1    0    0    0    0  0.00000000000E+00  0.00000000000E+00  0.74505805969E-08  0.10566000000E+00  0.10566000000E+00 0. -1.
     999900   -1    0    0    0    0 -0.00000000000E+00 -0.00000000000E+00 -0.74505805969E-08  0.93827000000E+00  0.93827000000E+00 0.  1.
     999902    2    1    2    0    0  0.14577694129E-01 -0.18191569809E-01  0.26657156905E-02  0.10204662318E+01  0.10201964428E+01 0.  0.
     999903    2    3    3    0    0  0.63069761027E-01  0.57725852058E-02 -0.11315193694E+00  0.13123089178E+00  0.20175941781E-01 0.  0.
         14    1    1    2    0    0 -0.14577694129E-01  0.18191569809E-01 -0.26657156905E-02  0.23463768205E-01  0.00000000000E+00 0.  1.
     999901    1    3    3    0    0 -0.48492066898E-01 -0.23964155015E-01  0.11581765263E+00  0.88923534002E+00  0.88000000000E+00 0. -1.
        -11    1    4    4    0    0  0.34311524758E-01 -0.17110554563E-02 -0.42983007087E-01  0.55027342851E-01  0.51100000000E-03 0.  1.
         11    1    4    4    0    0  0.28758236269E-01  0.74836406621E-02 -0.70168929854E-01  0.76203548925E-01  0.51100000000E-03 0. -1.
</event>
<event>
 8    1  0.1114447E+005  0.1043930E+01  0.7957747E-01            NaN
         13   -1    0    0    0    0  0.00000000000E+00  0.00000000000E+00  0.74505805969E-08  0.10566000000E+00  0.10566000000E+00 0. -1.
     999900   -1    0    0    0    0 -0.00000000000E+00 -0.00000000000E+00 -0.74505805969E-08  0.93827000000E+00  0.93827000000E+00 0. -1.
     999902    2    1    2    0    0  0.24065129693E-01  0.24708394196E-01  0.16300310457E-02  0.10094004154E+01  0.10088096483E+01 0.  0.
     999903    2    3    3    0    0  0.10915493382E+00 -0.36600189123E-01  0.38748375503E-01  0.12239602497E+00  0.14999230099E-01 0.  0.
         14    1    1    2    0    0 -0.24065129693E-01 -0.24708394196E-01 -0.16300310457E-02  0.34529584592E-01  0.00000000000E+00 0.  1.
     999901    1    3    3    0    0 -0.85089804129E-01  0.61308583319E-01 -0.37118344457E-01  0.88700439043E+00  0.88000000000E+00 0.  1.
        -11    1    4    4    0    0  0.93318345998E-01 -0.36171775066E-01  0.35656350971E-01  0.10624663523E+00  0.51100000000E-03 0. -1.
         11    1    4    4    0    0  0.15836587823E-01 -0.42841405721E-03  0.30920245324E-02  0.16149389747E-01  0.51100000000E-03 0.  1.
</event>
<event>
 8    1  0.1114447E+005  0.1043930E+01  0.7957747E-01            NaN
         13   -1    0    0    0    0  0.00000000000E+00  0.00000000000E+00  0.74505805969E-08  0.10566000000E+00  0.10566000000E+00 0.  1.
     999900   -1    0    0    0    0 -0.00000000000E+00 -0.00000000000E+00 -0.74505805969E-08  0.93827000000E+00  0.93827000000E+00 0. -1.
     999902    2    1    2    0    0  0.12938647332E-01  0.15501432881E-01  0.79616787914E-02  0.10222253612E+01  0.10219949108E+01 0.  0.
     999903    2    3    3    0    0 -0.11214445563E+00 -0.41715571213E-01 -0.46341033859E-01  0.12988666272E+00  0.20161496042E-01 0.  0.
         14    1    1    2    0    0 -0.12938647332E-01 -0.15501432881E-01 -0.79616787914E-02  0.21704638797E-01  0.00000000000E+00 0. -1.
     999901    1    3    3    0    0  0.12508310297E+00  0.57217004094E-01  0.54302712651E-01  0.89233869848E+00  0.88000000000E+00 0.  1.
        -11    1    4    4    0    0 -0.10434063632E+00 -0.34775193036E-01 -0.46547136110E-01  0.11942855370E+00  0.51100000000E-03 0. -1.
         11    1    4    4    0    0 -0.78038193178E-02 -0.69403781771E-02  0.20610225087E-03  0.10458109022E-01  0.51100000000E-03 0.  1.
</event>
<event>
 8    1  0.1114447E+005  0.1043930E+01  0.7957747E-01            NaN
         13   -1    0    0    0    0  0.00000000000E+00  0.00000000000E+00  0.74505805969E-08  0.10566000000E+00  0.10566000000E+00 0. -1.
     999900   -1    0    0    0    0 -0.00000000000E+00 -0.00000000000E+00 -0.74505805969E-08  0.93827000000E+00  0.93827000000E+00 0. -1.
     999902    2    1    2    0    0 -0.45128225576E-02  0.16174280580E-02  0.23192606478E-01  0.10202471236E+01  0.10199722126E+01 0.  0.
     999903    2    3    3    0    0 -0.45734169207E-02 -0.12846485075E+00  0.12133701214E-01  0.13061590653E+00  0.19726994574E-01 0.  0.
         14    1    1    2    0    0  0.45128225576E-02 -0.16174280580E-02 -0.23192606478E-01  0.23682876435E-01  0.00000000000E+00 0.  1.
     999901    1    3    3    0    0  0.60594363060E-04  0.13008227880E+00  0.11058905264E-01  0.88963121703E+00  0.88000000000E+00 0.  1.
        -11    1    4    4    0    0 -0.12181371707E-01 -0.71530696647E-01  0.85027266309E-02  0.73058769909E-01  0.51100000000E-03 0.  1.
         11    1    4    4    0    0  0.76079547860E-02 -0.56934154099E-01  0.36309745832E-02  0.57557136625E-01  0.51100000000E-03 0. -1.
</event>
<event>
 8    1  0.1114447E+005  0.1043930E+01  0.7957747E-01            NaN
         13   -1    0    0    0    0  0.00000000000E+00  0.00000000000E+00  0.74505805969E-08  0.10566000000E+00  0.10566000000E+00 0.  1.
     999900   -1    0    0    0    0 -0.00000000000E+00 -0.00000000000E+00 -0.74505805969E-08  0.93827000000E+00  0.93827000000E+00 0.  1.
     999902    2    1    2    0    0  0.14924319106E-02  0.53947071871E-02  0.22782420630E-01  0.10204700574E+01  0.10202003573E+01 0.  0.
     999903    2    3    3    0    0  0.78556848705E-01  0.97379727693E-01 -0.31996854250E-01  0.13063808599E+00  0.19710935646E-01 0.  0.
         14    1    1    2    0    0 -0.14924319106E-02 -0.53947071871E-02 -0.22782420630E-01  0.23459942634E-01  0.00000000000E+00 0. -1.
     999901    1    3    3    0    0 -0.77064416794E-01 -0.91985020506E-01  0.54779274880E-01  0.88983197138E+00  0.88000000000E+00 0.  1.
        -11    1    4    4    0    0  0.26711104475E-01  0.22135657948E-01 -0.14485971569E-01  0.37597539126E-01  0.51100000000E-03 0.  1.
         11    1    4    4    0    0  0.51845744230E-01  0.75244069746E-01 -0.17510882681E-01  0.93040546859E-01  0.51100000000E-03 0. -1.
</event>
<event>
 8    1  0.1114447E+005  0.1043930E+01  0.7957747E-01            NaN
         13   -1    0    0    0    0  0.00000000000E+00  0.00000000000E+00  0.74505805969E-08  0.10566000000E+00  0.10566000000E+00 0.  1.
     999900   -1    0    0    0    0 -0.00000000000E+00 -0.00000000000E+00 -0.74505805969E-08  0.93827000000E+00  0.93827000000E+00 0.  1.
     999902    2    1    2    0    0  0.21198577382E-03  0.22450111326E-01 -0.44606936401E-02  0.10210400410E+01  0.10207834320E+01 0.  0.
     999903    2    3    3    0    0 -0.11166661213E+00 -0.60695413528E-02  0.65111036732E-01  0.13077580103E+00  0.18883628684E-01 0.  0.
         14    1    1    2    0    0 -0.21198577382E-03 -0.22450111326E-01  0.44606936401E-02  0.22889959028E-01  0.00000000000E+00 0.  1.
     999901    1    3    3    0    0  0.11187859791E+00  0.28519652679E-01 -0.69571730372E-01  0.89026423995E+00  0.88000000000E+00 0.  1.
        -11    1    4    4    0    0 -0.50793275616E-01 -0.11321967859E-01  0.25461708324E-01  0.57937065129E-01  0.51100000000E-03 0. -1.
         11    1    4    4    0    0 -0.60873336518E-01  0.52524265059E-02  0.39649328408E-01  0.72838735898E-01  0.51100000000E-03 0.  1.
</event>
<event>
 8    1  0.1114447E+005  0.1043930E+01  0.7957747E-01            NaN
         13   -1    0    0    0    0  0.00000000000E+00  0.00000000000E+00  0.74505805969E-08  0.10566000000E+00  0.10566000000E+00 0.  1.
     999900   -1    0    0    0    0 -0.00000000000E+00 -0.00000000000E+00 -0.74505805969E-08  0.93827000000E+00  0.93827000000E+00 0.  1.
     999902    2    1    2    0    0  0.61433504611E-03 -0.15719025873E-01  0.17808268406E-01  0.10201686952E+01  0.10198919389E+01 0.  0.
     999903    2    3    3    0    0 -0.45273990450E-02  0.47473378625E-01  0.12128390763E+00  0.13184053212E+00  0.19947948270E-01 0.  0.
         14    1    1    2    0    0 -0.61433504611E-03  0.15719025873E-01 -0.17808268406E-01  0.23761304795E-01  0.00000000000E+00 0. -1.
     999901    1    3    3    0    0  0.51417340911E-02 -0.63192404498E-01 -0.10347563922E+00  0.88832816308E+00  0.88000000000E+00 0.  1.
        -11    1    4    4    0    0 -0.11101122566E-01  0.24801431423E-01  0.76998224116E-01  0.81653741867E-01  0.51100000000E-03 0.  1.
         11    1    4    4    0    0  0.65737235210E-02  0.22671947202E-01  0.44285683513E-01  0.50186790254E-01  0.51100000000E-03 0. -1.
</event>
<event>
 8    1  0.1114447E+005  0.1043930E+01  0.7957747E-01            NaN
         13   -1    0    0    0    0  0.00000000000E+00  0.00000000000E+00  0.74505805969E-08  0.10566000000E+00  0.10566000000E+00 0. -1.
     999900   -1    0    0    0    0 -0.00000000000E+00 -0.00000000000E+00 -0.74505805969E-08  0.93827000000E+00  0.93827000000E+00 0.  1.
     999902    2    1    2    0    0 -0.16331091566E-01 -0.20040914443E-02  0.13479980425E-02  0.10274212740E+01  0.10272886334E+01 0.  0.
     999903    2    3    3    0    0 -0.10315330455E+00  0.29041467555E-01  0.85647026348E-01  0.13859719157E+00  0.19742272176E-01 0.  0.
         14    1    1    2    0    0  0.16331091566E-01  0.20040914443E-02 -0.13479980425E-02  0.16508725965E-01  0.00000000000E+00 0.  1.
     999901    1    3    3    0    0  0.86822212985E-01 -0.31045559000E-01 -0.84299028306E-01  0.88882408247E+00  0.88000000000E+00 0.  1.
        -11    1    4    4    0    0 -0.88571972214E-01  0.20797026658E-01  0.64075397759E-01  0.11128085324E+00  0.51100000000E-03 0.  1.
         11    1    4    4    0    0 -0.14581332336E-01  0.82444408973E-02  0.21571628590E-01  0.27316338324E-01  0.51100000000E-03 0. -1.
</event>
<event>
 8    1  0.1114447E+005  0.1043930E+01  0.7957747E-01            NaN
         13   -1    0    0    0    0  0.00000000000E+00  0.00000000000E+00  0.74505805969E-08  0.10566000000E+00  0.10566000000E+00 0. -1.
     999900   -1    0    0    0    0 -0.00000000000E+00 -0.00000000000E+00 -0.74505805969E-08  0.93827000000E+00  0.93827000000E+00 0.  1.
     999902    2    1    2    0    0  0.19533457192E-02 -0.18460402277E-01 -0.13518439472E-01  0.10209658928E+01  0.10207075997E+01 0.  0.
     999903    2    3    3    0    0  0.64168968181E-01  0.10614170452E+00  0.29282178061E-01  0.12898586977E+00  0.19904540505E-01 0.  0.
         14    1    1    2    0    0 -0.19533457192E-02  0.18460402277E-01  0.13518439472E-01  0.22964107156E-01  0.00000000000E+00 0. -1.
     999901    1    3    3    0    0 -0.62215622462E-01 -0.12460210680E+00 -0.42800617533E-01  0.89198002307E+00  0.88000000000E+00 0.  1.
        -11    1    4    4    0    0  0.23838534373E-01  0.45627256953E-01  0.21697063029E-01  0.55867217249E-01  0.51100000000E-03 0. -1.
         11    1    4    4    0    0  0.40330433808E-01  0.60514447569E-01  0.75851150312E-02  0.73118652523E-01  0.51100000000E-03 0.  1.
</event>
<event>
 8    1  0.1114447E+005  0.1043930E+01  0.7957747E-01            NaN
         13   -1    0    0    0    0  0.00000000000E+00  0.00000000000E+00  0.74505805969E-08  0.10566000000E+00  0.10566000000E+00 0.  1.
     999900   -1    0    0    0    0 -0.00000000000E+00 -0.00000000000E+00 -0.74505805969E-08  0.93827000000E+00  0.93827000000E+00 0. -1.
     999902    2    1    2    0    0  0.12473125309E-01 -0.19211440474E-01  0.16701724215E-02  0.10209637688E+01  0.10207054273E+01 0.  0.
     999903    2    3    3    0    0 -0.10084073480E+00  0.26889437990E-01  0.74178108836E-01  0.12954763548E+00  0.19705389041E-01 0.  0.
         14    1    1    2    0    0 -0.12473125309E-01  0.19211440474E-01 -0.16701724215E-02  0.22966231209E-01  0.00000000000E+00 0.  1.
     999901    1    3    3    0    0  0.11331386011E+00 -0.46100878463E-01 -0.72507936415E-01  0.89141613331E+00  0.88000000000E+00 0. -1.
        -11    1    4    4    0    0 -0.10680513389E-01 -0.30866924524E-02  0.92005554123E-02  0.14439957668E-01  0.51100000000E-03 0. -1.
         11    1    4    4    0    0 -0.90160221409E-01  0.29976130442E-01  0.64977553424E-01  0.11510767781E+00  0.51100000000E-03 0.  1.
</event>
<event>
 8    1  0.1114447E+005  0.1043930E+01  0.7957747E-01            NaN
         13   -1    0    0    0    0  0.00000000000E+00  0.00000000000E+00  0.74505805969E-08  0.10566000000E+00  0.10566000000E+00 0. -1.
     999900   -1    0    0    0    0 -0.00000000000E+00 -0.00000000000E+00 -0.74505805969E-08  0.93827000000E+00  0.93827000000E+00 0. -1.
     999902    2    1    2    0    0  0.17052354548E-01  0.12366567560E-01  0.11657869951E-01  0.10198546865E+01  0.10195704786E+01 0.  0.
     999903    2    3    3    0    0 -0.37018168004E-01 -0.18172951069E-01 -0.11947359538E+00  0.12797367155E+00  0.20067877396E-01 0.  0.
         14    1    1    2    0    0 -0.17052354548E-01 -0.12366567560E-01 -0.11657869951E-01  0.24075313511E-01  0.00000000000E+00 0. -1.
     999901    1    3    3    0    0  0.54070522552E-01  0.30539518629E-01  0.13113146534E+00  0.89188101494E+00  0.88000000000E+00 0.  1.
        -11    1    4    4    0    0 -0.23370103979E-01 -0.20893846292E-01 -0.91557991001E-01  0.96777277344E-01  0.51100000000E-03 0. -1.
         11    1    4    4    0    0 -0.13648064024E-01  0.27208952235E-02 -0.27915604382E-01  0.31196394206E-01  0.51100000000E-03 0.  1.
</event>
<event>
 8    1  0.1114447E+005  0.1043930E+01  0.7957747E-01            NaN
         13   -1    0    0    0    0  0.00000000000E+00  0.00000000000E+00  0.74505805969E-08  0.10566000000E+00  0.10566000000E+00 0. -1.
     999900   -1    0    0    0    0 -0.00000000000E+00 -0.00000000000E+00 -0.74505805969E-08  0.93827000000E+00  0.93827000000E+00 0.  1.
     999902    2    1    2    0    0  0.65520976013E-02  0.20071214237E-01  0.10369448522E-01  0.10204074770E+01  0.10201363194E+01 0.  0.
     999903    2    3    3    0    0  0.25860970416E-01 -0.88036918670E-01 -0.87068385130E-01  0.12824474950E+00  0.21131096673E-01 0.  0.
         14    1    1    2    0    0 -0.65520976013E-02 -0.20071214237E-01 -0.10369448522E-01  0.23522522963E-01  0.00000000000E+00 0.  1.
     999901    1    3    3    0    0 -0.19308872815E-01  0.10810813291E+00  0.97437833652E-01  0.89216272753E+00  0.88000000000E+00 0. -1.
        -11    1    4    4    0    0  0.11181105059E-01 -0.41896180175E-01 -0.26977895220E-01  0.51072252497E-01  0.51100000000E-03 0.  1.
         11    1    4    4    0    0  0.14679865357E-01 -0.46140738495E-01 -0.60090489910E-01  0.77172497008E-01  0.51100000000E-03 0. -1.
</event>
<event>
 8    1  0.1114447E+005  0.1043930E+01  0.7957747E-01            NaN
         13   -1    0    0    0    0  0.00000000000E+00  0.00000000000E+00  0.74505805969E-08  0.10566000000E+00  0.10566000000E+00 0.  1.
     999900   -1    0    0    0    0 -0.00000000000E+00 -0.00000000000E+00 -0.74505805969E-08  0.93827000000E+00  0.93827000000E+00 0. -1.
     999902    2    1    2    0    0  0.70506495975E-02  0.77598359875E-02 -0.20940281817E-01  0.10205115859E+01  0.10202428510E+01 0.  0.
     999903    2    3    3    0    0 -0.12713369245E+00 -0.16101106584E-01 -0.45678525440E-02  0.12986977316E+00  0.20568697451E-01 0.  0.
         14    1    1    2    0    0 -0.70506495975E-02 -0.77598359875E-02  0.20940281817E-01  0.23418414055E-01  0.00000000000E+00 0.  1.
     999901    1    3    3    0    0  0.13418434205E+00  0.23860942571E-01 -0.16372429273E-01  0.89064181278E+00  0.88000000000E+00 0. -1.
        -11    1    4    4    0    0 -0.80373811239E-01 -0.18133021583E-01  0.30256507347E-02  0.82451025999E-01  0.51100000000E-03 0. -1.
         11    1    4    4    0    0 -0.46759881214E-01  0.20319149992E-02 -0.75935032786E-02  0.47418747166E-01  0.51100000000E-03 0.  1.
</event>
<event>
 8    1  0.1114447E+005  0.1043930E+01  0.7957747E-01            NaN
         13   -1    0    0    0    0  0.00000000000E+00  0.00000000000E+00  0.74505805969E-08  0.10566000000E+00  0.10566000000E+00 0.  1.
     999900   -1    0    0    0    0 -0.00000000000E+00 -0.00000000000E+00 -0.74505805969E-08  0.93827000000E+00  0.93827000000E+00 0. -1.
     999902    2    1    2    0    0 -0.20413871580E-01 -0.73416603219E-02  0.10289041673E-01  0.10199197833E+01  0.10196371285E+01 0.  0.
     999903    2    3    3    0    0 -0.17421210716E-01 -0.28481601015E-01  0.12620163381E+00  0.13206192182E+00  0.19969943372E-01 0.  0.
         14    1    1    2    0    0  0.20413871580E-01  0.73416603219E-02 -0.10289041673E-01  0.24010216736E-01  0.00000000000E+00 0. -1.
     999901    1    3    3    0    0 -0.29926608637E-02  0.21139940693E-01 -0.11591259214E+00  0.88785786144E+00  0.88000000000E+00 0. -1.
        -11    1    4    4    0    0 -0.40295053821E-02  0.13529077469E-02  0.33242049208E-01  0.33516596330E-01  0.51100000000E-03 0.  1.
         11    1    4    4    0    0 -0.13391705334E-01 -0.29834508762E-01  0.92959584605E-01  0.98545325489E-01  0.51100000000E-03 0. -1.
</event>
<event>
 8    1  0.1114447E+005  0.1043930E+01  0.7957747E-01            NaN
         13   -1    0    0    0    0  0.00000000000E+00  0.00000000000E+00  0.74505805969E-08  0.10566000000E+00  0.10566000000E+00 0.  1.
     999900   -1    0    0    0    0 -0.00000000000E+00 -0.00000000000E+00 -0.74505805969E-08  0.93827000000E+00  0.93827000000E+00 0. -1.
     999902    2    1    2    0    0 -0.20867916782E-01 -0.10957902571E-01 -0.49631070274E-02  0.10198431154E+01  0.10195586310E+01 0.  0.
     999903    2    3    3    0    0 -0.98311262830E-01  0.63319612071E-01  0.56442985975E-01  0.13120070738E+00  0.18797267870E-01 0.  0.
         14    1    1    2    0    0  0.20867916782E-01  0.10957902571E-01  0.49631070274E-02  0.24086884625E-01  0.00000000000E+00 0.  1.
     999901    1    3    3    0    0  0.77443346048E-01 -0.74277514642E-01 -0.61406093003E-01  0.88864240799E+00  0.88000000000E+00 0. -1.
        -11    1    4    4    0    0 -0.61895178547E-01  0.42261133784E-01  0.45694812657E-01  0.87779801668E-01  0.51100000000E-03 0. -1.
         11    1    4    4    0    0 -0.36416084282E-01  0.21058478286E-01  0.10748173318E-01  0.43420905712E-01  0.51100000000E-03 0.  1.
</event>
<event>
 8    1  0.1114447E+005  0.1043930E+01  0.7957747E-01            NaN
         13   -1    0    0    0    0  0.00000000000E+00  0.00000000000E+00  0.74505805969E-08  0.10566000000E+00  0.10566000000E+00 0.  1.
     999900   -1    0    0    0    0 -0.00000000000E+00 -0.00000000000E+00 -0.74505805969E-08  0.93827000000E+00  0.93827000000E+00 0.  1.
     999902    2    1    2    0    0  0.17393737760E-01  0.60116287828E-02  0.87430282437E-02  0.10235554488E+01  0.10233526442E+01 0.  0.
     999903    2    3    3    0    0 -0.44736492334E-01  0.31573200238E-02 -0.12243952151E+00  0.13166017808E+00  0.18211085835E-01 0.  0.
         14    1    1    2    0    0 -0.17393737760E-01 -0.60116287828E-02 -0.87430282437E-02  0.20374551204E-01  0.00000000000E+00 0. -1.
     999901    1    3    3    0    0  0.62130230094E-01  0.28543087590E-02  0.13118254976E+00  0.89189527072E+00  0.88000000000E+00 0. -1.
        -11    1    4    4    0    0 -0.32622728547E-01 -0.23691627253E-02 -0.65910690663E-01  0.73582169135E-01  0.51100000000E-03 0.  1.
         11    1    4    4    0    0 -0.12113763787E-01  0.55264827491E-02 -0.56528830848E-01  0.58078008943E-01  0.51100000000E-03 0. -1.
</event>
<event>
 8    1  0.1114447E+005  0.1043930E+01  0.7957747E-01            NaN
         13   -1    0    0    0    0  0.00000000000E+00  0.00000000000E+00  0.74505805969E-08  0.10566000000E+00  0.10566000000E+00 0.  1.
     999900   -1    0    0    0    0 -0.00000000000E+00 -0.00000000000E+00 -0.74505805969E-08  0.93827000000E+00  0.93827000000E+00 0. -1.
     999902    2    1    2    0    0  0.63823467043E-02 -0.21873597723E-01 -0.65161919974E-02  0.10202308569E+01  0.10199555637E+01 0.  0.
     999903    2    3    3    0    0 -0.22242099970E-01 -0.12975396795E+00 -0.63750374502E-02  0.13318094106E+00  0.19123774400E-01 0.  0.
         14    1    1    2    0    0 -0.63823467043E-02  0.21873597723E-01  0.65161919974E-02  0.23699143127E-01  0.00000000000E+00 0.  1.
     999901    1    3    3    0    0  0.28624446674E-01  0.10788037023E+00 -0.14115454724E-03  0.88704991582E+00  0.88000000000E+00 0. -1.
        -11    1    4    4    0    0 -0.23644211386E-01 -0.97436346312E-01 -0.31330627140E-03  0.10026589448E+00  0.51100000000E-03 0.  1.
         11    1    4    4    0    0  0.14021114168E-02 -0.32317621640E-01 -0.60617311788E-02  0.32915046571E-01  0.51100000000E-03 0. -1.
</event>
<event>
 8    1  0.1114447E+005  0.1043930E+01  0.7957747E-01            NaN
         13   -1    0    0    0    0  0.00000000000E+00  0.00000000000E+00  0.74505805969E-08  0.10566000000E+00  0.10566000000E+00 0.  1.
     999900   -1    0    0    0    0 -0.00000000000E+00 -0.00000000000E+00 -0.74505805969E-08  0.93827000000E+00  0.93827000000E+00 0. -1.
     999902    2    1    2    0    0  0.53648769572E-02  0.18081218381E-01 -0.14043119499E-01  0.10204157157E+01  0.10201447501E+01 0.  0.
     999903    2    3    3    0    0 -0.10237941744E+00 -0.18584070041E-01 -0.76858770558E-01  0.13086583939E+00  0.19791021487E-01 0.  0.
         14    1    1    2    0    0 -0.53648769572E-02 -0.18081218381E-01  0.14043119499E-01  0.23514284343E-01  0.00000000000E+00 0.  1.
     999901    1    3    3    0    0  0.10774429440E+00  0.36665288422E-01  0.62815651059E-01  0.88954987627E+00  0.88000000000E+00 0.  1.
        -11    1    4    4    0    0 -0.26647970815E-01 -0.66403911573E-02 -0.31459734457E-01  0.41763442823E-01  0.51100000000E-03 0. -1.
         11    1    4    4    0    0 -0.75731446629E-01 -0.11943678884E-01 -0.45399036101E-01  0.89102396566E-01  0.51100000000E-03 0.  1.
</event>
<event>
 8    1  0.1114447E+005  0.1043930E+01  0.7957747E-01            NaN
         13   -1    0    0    0    0  0.00000000000E+00  0.00000000000E+00  0.74505805969E-08  0.10566000000E+00  0.10566000000E+00 0. -1.
     999900   -1    0    0    0    0 -0.00000000000E+00 -0.00000000000E+00 -0.74505805969E-08  0.93827000000E+00  0.93827000000E+00 0.  1.
     999902    2    1    2    0    0  0.52280472798E-02 -0.20882403844E-01 -0.97931003595E-02  0.10202802202E+01  0.10200060861E+01 0.  0.
     999903    2    3    3    0    0  0.20375735473E-01 -0.10124536084E+00  0.79651417391E-01  0.13197397851E+00  0.20173968959E-01 0.  0.
         14    1    1    2    0    0 -0.52280472798E-02  0.20882403844E-01  0.97931003595E-02  0.23649779773E-01  0.00000000000E+00 0. -1.
     999901    1    3    3    0    0 -0.15147688193E-01  0.80362956998E-01 -0.89444517751E-01  0.88830624172E+00  0.88000000000E+00 0.  1.
        -11    1    4    4    0    0  0.16490427806E-01 -0.67240517547E-01  0.41510827924E-01  0.80725654938E-01  0.51100000000E-03 0.  1.
         11    1    4    4    0    0  0.38853076672E-02 -0.34004843295E-01  0.38140589467E-01  0.51248323573E-01  0.51100000000E-03 0. -1.
</event>
<event>
 8    1  0.1114447E+005  0.1043930E+01  0.7957747E-01            NaN
         13   -1    0    0    0    0  0.00000000000E+00  0.00000000000E+00  0.74505805969E-08  0.10566000000E+00  0.10566000000E+00 0. -1.
     999900   -1    0    0    0    0 -0.00000000000E+00 -0.00000000000E+00 -0.74505805969E-08  0.93827000000E+00  0.93827000000E+00 0. -1.
     999902    2    1    2    0    0  0.19194582463E-02 -0.15718544994E-01  0.11123863070E-01  0.10245780671E+01  0.10243952940E+01 0.  0.
     999903    2    3    3    0    0  0.13081880348E+00 -0.26878700408E-01 -0.30456613318E-02  0.13500493033E+00  0.19520022581E-01 0.  0.
         14    1    1    2    0    0 -0.19194582463E-02  0.15718544994E-01 -0.11123863070E-01  0.19351932883E-01  0.00000000000E+00 0.  1.
     999901    1    3    3    0    0 -0.12889934523E+00  0.11160155414E-01  0.14169524402E-01  0.88957313679E+00  0.88000000000E+00 0. -1.
        -11    1    4    4    0    0  0.71003198639E-01 -0.47287324956E-02 -0.41172513811E-03  0.71163514294E-01  0.51100000000E-03 0.  1.
         11    1    4    4    0    0  0.59815604839E-01 -0.22149967912E-01 -0.26339361936E-02  0.63841416037E-01  0.51100000000E-03 0. -1.
</event>
<event>
 8    1  0.1114447E+005  0.1043930E+01  0.7957747E-01            NaN
         13   -1    0    0    0    0  0.00000000000E+00  0.00000000000E+00  0.74505805969E-08  0.10566000000E+00  0.10566000000E+00 0. -1.
     999900   -1    0    0    0    0 -0.00000000000E+00 -0.00000000000E+00 -0.74505805969E-08  0.93827000000E+00  0.93827000000E+00 0.  1.
     999902    2    1    2    0    0  0.53755913913E-02  0.15283590182E-02 -0.23550941106E-01  0.10197250482E+01  0.10194377344E+01 0.  0.
     999903    2    3    3    0    0  0.26931692441E-01  0.78344677881E-01  0.95896835896E-01  0.12807871487E+00  0.18567430009E-01 0.  0.
         14    1    1    2    0    0 -0.53755913913E-02 -0.15283590182E-02  0.23550941106E-01  0.24204951788E-01  0.00000000000E+00 0. -1.
     999901    1    3    3    0    0 -0.21556101050E-01 -0.76816318863E-01 -0.11944777700E+00  0.89164633334E+00  0.88000000000E+00 0.  1.
        -11    1    4    4    0    0  0.11582270401E-01  0.12062469377E-01  0.16184559502E-01  0.23277741351E-01  0.51100000000E-03 0.  1.
         11    1    4    4    0    0  0.15349422040E-01  0.66282208504E-01  0.79712276394E-01  0.10480097352E+00  0.51100000000E-03 0. -1.
</event>
<event>
 8    1  0.1114447E+005  0.1043930E+01  0.7957747E-01            NaN
         13   -1    0    0    0    0  0.00000000000E+00  0.00000000000E+00  0.74505805969E-08  0.10566000000E+00  0.10566000000E+00 0. -1.
     999900   -1    0    0    0    0 -0.00000000000E+00 -0.00000000000E+00 -0.74505805969E-08  0.93827000000E+00  0.93827000000E+00 0. -1.
     999902    2    1    2    0    0  0.21114736697E-01  0.60295232709E-02  0.14006686843E-01  0.10178843759E+01  0.10175510937E+01 0.  0.
     999903    2    3    3    0    0  0.11405959586E+00  0.54592077170E-01  0.30016983572E-01  0.13151346143E+00  0.20121752794E-01 0.  0.
         14    1    1    2    0    0 -0.21114736697E-01 -0.60295232709E-02 -0.14006686843E-01  0.26045624066E-01  0.00000000000E+00 0. -1.
     999901    1    3    3    0    0 -0.92944859164E-01 -0.48562553899E-01 -0.16010296729E-01  0.88637091451E+00  0.88000000000E+00 0. -1.
        -11    1    4    4    0    0  0.85387103299E-01  0.49364932503E-01  0.26663130511E-01  0.10217160868E+00  0.51100000000E-03 0.  1.
         11    1    4    4    0    0  0.28672492562E-01  0.52271446667E-02  0.33538530609E-02  0.29341852744E-01  0.51100000000E-03 0. -1.
</event>
<event>
 7    1  0.1114447E+005  0.1043930E+01  0.7957747E-01            NaN
         13   -1    0    0    0    0  0.00000000000E+00  0.00000000000E+00  0.74505805969E-08  0.10566000000E+00  0.10566000000E+00 0. -1.
     999900   -1    0    0    0    0 -0.00000000000E+00 -0.00000000000E+00 -0.74505805969E-08  0.93827000000E+00  0.93827000000E+00 0. -1.
     999903    2    1    2    0    0  0.28137369468E-01 -0.49020927193E-01  0.50948026685E-01  0.78737017888E-01  0.20225076003E-01 0.  0.
         14    1    1    2    0    0  0.27587171776E-02 -0.85197178556E-02  0.73497284219E-01  0.74040846162E-01  0.00000000000E+00 0. -1.
     999901    1    1    2    0    0 -0.30896086645E-01  0.57540645049E-01 -0.12444531090E+00  0.89115213595E+00  0.88000000000E+00 0. -1.
        -11    1    3    3    0    0  0.21737100532E-01 -0.31126548390E-01  0.21351319758E-01  0.43560343554E-01  0.51100000000E-03 0.  1.
         11    1    3    3    0    0  0.64002689357E-02 -0.17894378804E-01  0.29596706927E-01  0.35176674333E-01  0.51100000000E-03 0. -1.
</event>
<event>
 8    1  0.1114447E+005  0.1043930E+01  0.7957747E-01            NaN
         13   -1    0    0    0    0  0.00000000000E+00  0.00000000000E+00  0.74505805969E-08  0.10566000000E+00  0.10566000000E+00 0. -1.
     999900   -1    0    0    0    0 -0.00000000000E+00 -0.00000000000E+00 -0.74505805969E-08  0.93827000000E+00  0.93827000000E+00 0.  1.
     999902    2    1    2    0    0 -0.11556604581E-01  0.10385011121E-01 -0.19564159305E-01  0.10189468078E+01  0.10186404847E+01 0.  0.
     999903    2    3    3    0    0  0.20792151190E-01 -0.14927838713E-01 -0.12733712313E+00  0.13142092413E+00  0.20039023270E-01 0.  0.
         14    1    1    2    0    0  0.11556604581E-01 -0.10385011121E-01  0.19564159305E-01  0.24983192244E-01  0.00000000000E+00 0. -1.
     999901    1    3    3    0    0 -0.32348755771E-01  0.25312849834E-01  0.10777296382E+00  0.88752588362E+00  0.88000000000E+00 0. -1.
        -11    1    4    4    0    0  0.17155444007E-01 -0.19436065641E-01 -0.91021007766E-01  0.94642246816E-01  0.51100000000E-03 0. -1.
         11    1    4    4    0    0  0.36367071836E-02  0.45082269278E-02 -0.36316115363E-01  0.36778677318E-01  0.51100000000E-03 0.  1.
</event>
<event>
 8    1  0.1114447E+005  0.1043930E+01  0.7957747E-01            NaN
         13   -1    0    0    0    0  0.00000000000E+00  0.00000000000E+00  0.74505805969E-08  0.10566000000E+00  0.10566000000E+00 0. -1.
     999900   -1    0    0    0    0 -0.00000000000E+00 -0.00000000000E+00 -0.74505805969E-08  0.93827000000E+00  0.93827000000E+00 0.  1.
     999902    2    1    2    0    0 -0.19183726179E-01  0.83450899408E-02  0.38678476316E-02  0.10226552233E+01  0.10224339048E+01 0.  0.
     999903    2    3    3    0    0  0.48365048724E-01  0.10407665855E+00  0.64316963774E-01  0.13283419311E+00  0.18360888772E-01 0.  0.
         14    1    1    2    0    0  0.19183726179E-01 -0.83450899408E-02 -0.38678476316E-02  0.21274776651E-01  0.00000000000E+00 0.  1.
     999901    1    3    3    0    0 -0.67548774903E-01 -0.95731568609E-01 -0.60449116142E-01  0.88982103024E+00  0.88000000000E+00 0. -1.
        -11    1    4    4    0    0  0.39499750063E-01  0.65435857364E-01  0.39214083348E-01  0.85907433542E-01  0.51100000000E-03 0. -1.
         11    1    4    4    0    0  0.88652986611E-02  0.38640801186E-01  0.25102880425E-01  0.46926759565E-01  0.51100000000E-03 0.  1.
</event>
<event>
 8    1  0.1114447E+005  0.1043930E+01  0.7957747E-01            NaN
         13   -1    0    0    0    0  0.00000000000E+00  0.00000000000E+00  0.74505805969E-08  0.10566000000E+00  0.10566000000E+00 0.  1.
     999900   -1    0    0    0    0 -0.00000000000E+00 -0.00000000000E+00 -0.74505805969E-08  0.93827000000E+00  0.93827000000E+00 0.  1.
     999902    2    1    2    0    0  0.20060029986E-01  0.11215121285E-01 -0.32068637060E-02  0.10207250927E+01  0.10204612913E+01 0.  0.
     999903    2    3    3    0    0  0.17408488806E-02 -0.12718981386E+00  0.14671873287E-01  0.12953983265E+00  0.19622055798E-01 0.  0.
         14    1    1    2    0    0 -0.20060029986E-01 -0.11215121285E-01  0.32068637060E-02  0.23204907310E-01  0.00000000000E+00 0.  1.
     999901    1    3    3    0    0  0.18319181105E-01  0.13840493514E+00 -0.17878736993E-01  0.89118526004E+00  0.88000000000E+00 0.  1.
        -11    1    4    4    0    0  0.95725699846E-02 -0.97583541970E-01  0.10110048463E-01  0.98573099578E-01  0.51100000000E-03 0.  1.
         11    1    4    4    0    0 -0.78317211041E-02 -0.29606271890E-01  0.45618248237E-02  0.30966733076E-01  0.51100000000E-03 0. -1.
</event>
<event>
 8    1  0.1114447E+005  0.1043930E+01  0.7957747E-01            NaN
         13   -1    0    0    0    0  0.00000000000E+00  0.00000000000E+00  0.74505805969E-08  0.10566000000E+00  0.10566000000E+00 0.  1.
     999900   -1    0    0    0    0 -0.00000000000E+00 -0.00000000000E+00 -0.74505805969E-08  0.93827000000E+00  0.93827000000E+00 0. -1.
     999902    2    1    2    0    0 -0.12499297623E-01  0.18042541050E-01  0.89261284375E-02  0.10202352432E+01  0.10199600532E+01 0.  0.
     999903    2    3    3    0    0  0.37421185533E-01 -0.11844115795E+00  0.24917721783E-01  0.12817269735E+00  0.19460073577E-01 0.  0.
         14    1    1    2    0    0  0.12499297623E-01 -0.18042541050E-01 -0.89261284375E-02  0.23694756751E-01  0.00000000000E+00 0.  1.
     999901    1    3    3    0    0 -0.49920483156E-01  0.13648369900E+00 -0.15991593346E-01  0.89206254590E+00  0.88000000000E+00 0.  1.
        -11    1    4    4    0    0  0.12383634525E-01 -0.51757505290E-01  0.19703821307E-01  0.56751171380E-01  0.51100000000E-03 0.  1.
         11    1    4    4    0    0  0.25037551009E-01 -0.66683652664E-01  0.52139004761E-02  0.71421525973E-01  0.51100000000E-03 0. -1.
</event>
<event>
 8    1  0.1114447E+005  0.1043930E+01  0.7957747E-01            NaN
         13   -1    0    0    0    0  0.00000000000E+00  0.00000000000E+00  0.74505805969E-08  0.10566000000E+00  0.10566000000E+00 0. -1.
     999900   -1    0    0    0    0 -0.00000000000E+00 -0.00000000000E+00 -0.74505805969E-08  0.93827000000E+00  0.93827000000E+00 0.  1.
     999902    2    1    2    0    0  0.19053433043E-01 -0.72174065410E-02  0.11872044040E-01  0.10203488699E+01  0.10200763435E+01 0.  0.
     999903    2    3    3    0    0 -0.10708012862E+00 -0.11667112262E-01  0.69033409085E-01  0.12950831349E+00  0.20112589073E-01 0.  0.
         14    1    1    2    0    0 -0.19053433043E-01  0.72174065410E-02 -0.11872044040E-01  0.23581130117E-01  0.00000000000E+00 0. -1.
     999901    1    3    3    0    0  0.12613356166E+00  0.44497057208E-02 -0.57161365045E-01  0.89084055639E+00  0.88000000000E+00 0.  1.
        -11    1    4    4    0    0 -0.89620252935E-01 -0.37994401304E-02  0.62247852640E-01  0.10918462236E+00  0.51100000000E-03 0. -1.
         11    1    4    4    0    0 -0.17459875687E-01 -0.78676721314E-02  0.67855564448E-02  0.20323691127E-01  0.51100000000E-03 0.  1.
</event>
<event>
 8    1  0.1114447E+005  0.1043930E+01  0.7957747E-01            NaN
         13   -1    0    0    0    0  0.00000000000E+00  0.00000000000E+00  0.74505805969E-08  0.10566000000E+00  0.10566000000E+00 0. -1.
     999900   -1    0    0    0    0 -0.00000000000E+00 -0.00000000000E+00 -0.74505805969E-08  0.93827000000E+00  0.93827000000E+00 0. -1.
     999902    2    1    2    0    0  0.43451353537E-02  0.80520109820E-02 -0.22006326177E-01  0.10200973863E+01  0.10198189467E+01 0.  0.
     999903    2    3    3    0    0  0.10820513015E+00  0.12375224265E-02  0.67624734194E-01  0.12944197443E+00  0.21731047302E-01 0.  0.
         14    1    1    2    0    0 -0.43451353537E-02 -0.80520109820E-02  0.22006326177E-01  0.23832613661E-01  0.00000000000E+00 0. -1.
     999901    1    3    3    0    0 -0.10385999480E+00  0.68144885555E-02 -0.89631060371E-01  0.89065541191E+00  0.88000000000E+00 0.  1.
        -11    1    4    4    0    0  0.87799907109E-01 -0.52247246397E-02  0.47058220265E-01  0.99753990654E-01  0.51100000000E-03 0. -1.
         11    1    4    4    0    0  0.20405223046E-01  0.64622470662E-02  0.20566513929E-01  0.29687983779E-01  0.51100000000E-03 0.  1.
</event>
<event>
 8    1  0.1114447E+005  0.1043930E+01  0.7957747E-01            NaN
         13   -1    0    0    0    0  0.00000000000E+00  0.00000000000E+00  0.74505805969E-08  0.10566000000E+00  0.10566000000E+00 0.  1.
     999900   -1    0    0    0    0 -0.00000000000E+00 -0.00000000000E+00 -0.74505805969E-08  0.93827000000E+00  0.93827000000E+00 0. -1.
     999902    2    1    2    0    0 -0.21439527837E-01  0.49020916299E-02 -0.56886564508E-02  0.10212133834E+01  0.10209606897E+01 0.  0.
     999903    2    3    3    0    0  0.23944320475E-03 -0.28531622260E-01  0.12606179721E+00  0.13051367362E+00  0.18114399915E-01 0.  0.
         14    1    1    2    0    0  0.21439527837E-01 -0.49020916299E-02  0.56886564508E-02  0.22716616571E-01  0.00000000000E+00 0.  1.
     999901    1    3    3    0    0 -0.21678971042E-01  0.33433713889E-01 -0.13175045366E+00  0.89069970981E+00  0.88000000000E+00 0. -1.
        -11    1    4    4    0    0  0.66130852947E-02 -0.13631434131E-01  0.85458407113E-01  0.86792565124E-01  0.51100000000E-03 0. -1.
         11    1    4    4    0    0 -0.63736420900E-02 -0.14900188128E-01  0.40603390099E-01  0.43721108498E-01  0.51100000000E-03 0.  1.
</event>
<event>
 8    1  0.1114447E+005  0.1043930E+01  0.7957747E-01            NaN
         13   -1    0    0    0    0  0.00000000000E+00  0.00000000000E+00  0.74505805969E-08  0.10566000000E+00  0.10566000000E+00 0.  1.
     999900   -1    0    0    0    0 -0.00000000000E+00 -0.00000000000E+00 -0.74505805969E-08  0.93827000000E+00  0.93827000000E+00 0.  1.
     999902    2    1    2    0    0 -0.16619824139E-01 -0.19480058660E-02  0.17530833095E-01  0.10196948315E+01  0.10194067913E+01 0.  0.
     999903    2    3    3    0    0 -0.33316701658E-01 -0.12073360040E+00  0.34393520983E-01  0.13139693476E+00  0.19890583249E-01 0.  0.
         14    1    1    2    0    0  0.16619824139E-01  0.19480058660E-02 -0.17530833095E-01  0.24235168460E-01  0.00000000000E+00 0. -1.
     999901    1    3    3    0    0  0.16696877519E-01  0.11878559454E+00 -0.16862687887E-01  0.88829789678E+00  0.88000000000E+00 0.  1.
        -11    1    4    4    0    0 -0.12165195229E-01 -0.73743754360E-01  0.14375472326E-01  0.76112079249E-01  0.51100000000E-03 0. -1.
         11    1    4    4    0    0 -0.21151506428E-01 -0.46989846044E-01  0.20018048656E-01  0.55284855507E-01  0.51100000000E-03 0.  1.
</event>
<event>
 8    1  0.1114447E+005  0.1043930E+01  0.7957747E-01            NaN
         13   -1    0    0    0    0  0.00000000000E+00  0.00000000000E+00  0.74505805969E-08  0.10566000000E+00  0.10566000000E+00 0. -1.
     999900   -1    0    0    0    0 -0.00000000000E+00 -0.00000000000E+00 -0.74505805969E-08  0.93827000000E+00  0.93827000000E+00 0. -1.
     999902    2    1    2    0    0 -0.22821058285E-01  0.53227479267E-02  0.89906471390E-02  0.10188309147E+01  0.10185217075E+01 0.  0.
     999903    2    3    3    0    0 -0.73905819617E-01  0.18686784754E-01 -0.10354446034E+00  0.13009450792E+00  0.19795444589E-01 0.  0.
         14    1    1    2    0    0  0.22821058285E-01 -0.53227479267E-02 -0.89906471390E-02  0.25099085297E-01  0.00000000000E+00 0.  1.
     999901    1    3    3    0    0  0.51084761332E-01 -0.13364036827E-01  0.11253510748E+00  0.88873640678E+00  0.88000000000E+00 0.  1.
        -11    1    4    4    0    0 -0.54009069439E-01  0.22468254023E-01 -0.76485476874E-01  0.96291699092E-01  0.51100000000E-03 0.  1.
         11    1    4    4    0    0 -0.19896750179E-01 -0.37814692697E-02 -0.27058983469E-01  0.33802808831E-01  0.51100000000E-03 0. -1.
</event>
<event>
 8    1  0.1114447E+005  0.1043930E+01  0.7957747E-01            NaN
         13   -1    0    0    0    0  0.00000000000E+00  0.00000000000E+00  0.74505805969E-08  0.10566000000E+00  0.10566000000E+00 0. -1.
     999900   -1    0    0    0    0 -0.00000000000E+00 -0.00000000000E+00 -0.74505805969E-08  0.93827000000E+00  0.93827000000E+00 0.  1.
     999902    2    1    2    0    0  0.36139104979E-02  0.18098435320E-01  0.15930077672E-01  0.10195500680E+01  0.10192585345E+01 0.  0.
     999903    2    3    3    0    0 -0.52806410487E-01  0.45972545891E-01 -0.10619375465E+00  0.12889050953E+00  0.20824455700E-01 0.  0.
         14    1    1    2    0    0 -0.36139104979E-02 -0.18098435320E-01 -0.15930077672E-01  0.24379932009E-01  0.00000000000E+00 0.  1.
     999901    1    3    3    0    0  0.56420320985E-01 -0.27874110571E-01  0.12212383232E+00  0.89065955846E+00  0.88000000000E+00 0. -1.
        -11    1    4    4    0    0 -0.42868576350E-01  0.24847363831E-01 -0.68351295210E-01  0.84423142595E-01  0.51100000000E-03 0.  1.
         11    1    4    4    0    0 -0.99378341362E-02  0.21125182061E-01 -0.37842459441E-01  0.44467366933E-01  0.51100000000E-03 0. -1.
</event>
<event>
 8    1  0.1114447E+005  0.1043930E+01  0.7957747E-01            NaN
         13   -1    0    0    0    0  0.00000000000E+00  0.00000000000E+00  0.74505805969E-08  0.10566000000E+00  0.10566000000E+00 0. -1.
     999900   -1    0    0    0    0 -0.00000000000E+00 -0.00000000000E+00 -0.74505805969E-08  0.93827000000E+00  0.93827000000E+00 0.  1.
     999902    2    1    2    0    0 -0.10974596393E-01 -0.55825418619E-02 -0.20794422432E-01  0.10197636071E+01  0.10194772189E+01 0.  0.
     999903    2    3    3    0    0 -0.12273538337E-01 -0.68411589914E-01  0.10610693052E+00  0.12844260441E+00  0.20199914494E-01 0.  0.
         14    1    1    2    0    0  0.10974596393E-01  0.55825418619E-02  0.20794422432E-01  0.24166392861E-01  0.00000000000E+00 0. -1.
     999901    1    3    3    0    0  0.12989419443E-02  0.62829048052E-01 -0.12690135295E+00  0.89132100273E+00  0.88000000000E+00 0.  1.
        -11    1    4    4    0    0  0.41256279589E-02 -0.28333637956E-01  0.49261469228E-01  0.56980429249E-01  0.51100000000E-03 0.  1.
         11    1    4    4    0    0 -0.16399166296E-01 -0.40077951958E-01  0.56845461289E-01  0.71462175159E-01  0.51100000000E-03 0. -1.
</event>
<event>
 8    1  0.1114447E+005  0.1043930E+01  0.7957747E-01            NaN
         13   -1    0    0    0    0  0.00000000000E+00  0.00000000000E+00  0.74505805969E-08  0.10566000000E+00  0.10566000000E+00 0. -1.
     999900   -1    0    0    0    0 -0.00000000000E+00 -0.00000000000E+00 -0.74505805969E-08  0.93827000000E+00  0.93827000000E+00 0. -1.
     999902    2    1    2    0    0 -0.25798950921E-02 -0.22741771236E-01 -0.69304077479E-02  0.10200161009E+01  0.10197357361E+01 0.  0.
     999903    2    3    3    0    0  0.78115910586E-01  0.81143581001E-01  0.57003505431E-01  0.12794462132E+00  0.20833873111E-01 0.  0.
         14    1    1    2    0    0  0.25798950921E-02  0.22741771236E-01  0.69304077479E-02  0.23913899079E-01  0.00000000000E+00 0.  1.
     999901    1    3    3    0    0 -0.80695805678E-01 -0.10388535224E+00 -0.63933913179E-01  0.89207147960E+00  0.88000000000E+00 0. -1.
        -11    1    4    4    0    0  0.10712840573E-01  0.16978233084E-01  0.18249437854E-01  0.27135372759E-01  0.51100000000E-03 0. -1.
         11    1    4    4    0    0  0.67403070014E-01  0.64165347916E-01  0.38754067577E-01  0.10080924856E+00  0.51100000000E-03 0.  1.
</event>
<event>
 8    1  0.1114447E+005  0.1043930E+01  0.7957747E-01            NaN
         13   -1    0    0    0    0  0.00000000000E+00  0.00000000000E+00  0.74505805969E-08  0.10566000000E+00  0.10566000000E+00 0. -1.
     999900   -1    0    0    0    0 -0.00000000000E+00 -0.00000000000E+00 -0.74505805969E-08  0.93827000000E+00  0.93827000000E+00 0. -1.
     999902    2    1    2    0    0  0.50819506246E-02  0.19020135085E-01 -0.12822362011E-01  0.10204352191E+01  0.10201647081E+01 0.  0.
     999903    2    3    3    0    0  0.90635878173E-01  0.73181230522E-01 -0.61590537661E-01  0.13328741085E+00  0.20044566541E-01 0.  0.
         14    1    1    2    0    0 -0.50819506246E-02 -0.19020135085E-01  0.12822362011E-01  0.23494780875E-01  0.00000000000E+00 0. -1.
     999901    1    3    3    0    0 -0.85553927548E-01 -0.54161095437E-01  0.48768175650E-01  0.88714780828E+00  0.88000000000E+00 0.  1.
        -11    1    4    4    0    0  0.56657703230E-01  0.33723433910E-01 -0.38184713601E-01  0.76195136352E-01  0.51100000000E-03 0. -1.
         11    1    4    4    0    0  0.33978174943E-01  0.39457796613E-01 -0.23405824060E-01  0.57092274494E-01  0.51100000000E-03 0.  1.
</event>
<event>
 8    1  0.1114447E+005  0.1043930E+01  0.7957747E-01            NaN
         13   -1    0    0    0    0  0.00000000000E+00  0.00000000000E+00  0.74505805969E-08  0.10566000000E+00  0.10566000000E+00 0. -1.
     999900   -1    0    0    0    0 -0.00000000000E+00 -0.00000000000E+00 -0.74505805969E-08  0.93827000000E+00  0.93827000000E+00 0. -1.
     999902    2    1    2    0    0  0.63153051885E-02  0.21372924905E-01 -0.82782111668E-02  0.10201557749E+01  0.10198787140E+01 0.  0.
     999903    2    3    3    0    0  0.94242941338E-01  0.90921884137E-01  0.91483456494E-02  0.13287227353E+00  0.20562777992E-01 0.  0.
         14    1    1    2    0    0 -0.63153051885E-02 -0.21372924905E-01  0.82782111668E-02  0.23774225092E-01  0.00000000000E+00 0. -1.
     999901    1    3    3    0    0 -0.87927636150E-01 -0.69548959232E-01 -0.17426556816E-01  0.88728350137E+00  0.88000000000E+00 0. -1.
        -11    1    4    4    0    0  0.55046920076E-01  0.57153865989E-01 -0.41170533567E-02  0.79460298619E-01  0.51100000000E-03 0. -1.
         11    1    4    4    0    0  0.39196021263E-01  0.33768018148E-01  0.13265399006E-01  0.53411974914E-01  0.51100000000E-03 0.  1.
</event>
<event>
 8    1  0.1114447E+005  0.1043930E+01  0.7957747E-01            NaN
         13   -1    0    0    0    0  0.00000000000E+00  0.00000000000E+00  0.74505805969E-08  0.10566000000E+00  0.10566000000E+00 0.  1.
     999900   -1    0    0    0    0 -0.00000000000E+00 -0.00000000000E+00 -0.74505805969E-08  0.93827000000E+00  0.93827000000E+00 0.  1.
     999902    2    1    2    0    0  0.88789289250E-02 -0.21354771941E-01  0.45664944100E-02  0.10203564017E+01  0.10200840515E+01 0.  0.
     999903    2    3    3    0    0  0.11500663408E+00  0.58239091209E-01  0.23575643016E-02  0.13041081227E+00  0.19573048294E-01 0.  0.
         14    1    1    2    0    0 -0.88789289250E-02  0.21354771941E-01 -0.45664944100E-02  0.23573598255E-01  0.00000000000E+00 0.  1.
     999901    1    3    3    0    0 -0.10612770516E+00 -0.79593863150E-01  0.22089301084E-02  0.88994558947E+00  0.88000000000E+00 0.  1.
        -11    1    4    4    0    0  0.17213935396E-01  0.74310979652E-02 -0.64994201487E-02  0.19850550925E-01  0.51100000000E-03 0. -1.
         11    1    4    4    0    0  0.97792698688E-01  0.50807993244E-01  0.88569844503E-02  0.11056026134E+00  0.51100000000E-03 0.  1.
</event>
<event>
 8    1  0.1114447E+005  0.1043930E+01  0.7957747E-01            NaN
         13   -1    0    0    0    0  0.00000000000E+00  0.00000000000E+00  0.74505805969E-08  0.10566000000E+00  0.10566000000E+00 0. -1.
     999900   -1    0    0    0    0 -0.00000000000E+00 -0.00000000000E+00 -0.74505805969E-08  0.93827000000E+00  0.93827000000E+00 0.  1.
     999902    2    1    2    0    0  0.27265703383E-02 -0.21284586427E-01 -0.11531937837E-02  0.10224405221E+01  0.10222146661E+01 0.  0.
     999903    2    3    3    0    0  0.39185273085E-01  0.39384506773E-01 -0.11790661394E+00  0.13191183810E+00  0.20301192579E-01 0.  0.
         14    1    1    2    0    0 -0.27265703383E-02  0.21284586427E-01  0.11531937837E-02  0.21489477915E-01  0.00000000000E+00 0.  1.
     999901    1    3    3    0    0 -0.36458702747E-01 -0.60669093200E-01  0.11675342016E+00  0.89052868398E+00  0.88000000000E+00 0. -1.
        -11    1    4    4    0    0  0.30214898017E-01  0.39041560738E-01 -0.10650432995E+00  0.11739087250E+00  0.51100000000E-03 0.  1.
         11    1    4    4    0    0  0.89703750676E-02  0.34294603532E-03 -0.11402283987E-01  0.14520965600E-01  0.51100000000E-03 0. -1.
</event>
<event>
 8    1  0.1114447E+005  0.1043930E+01  0.7957747E-01            NaN
         13   -1    0    0    0    0  0.00000000000E+00  0.00000000000E+00  0.74505805969E-08  0.10566000000E+00  0.10566000000E+00 0.  1.
     999900   -1    0    0    0    0 -0.00000000000E+00 -0.00000000000E+00 -0.74505805969E-08  0.93827000000E+00  0.93827000000E+00 0.  1.
     999902    2    1    2    0    0  0.13995215587E-01 -0.17539768547E-01  0.49245392794E-02  0.10209569587E+01  0.10206984623E+01 0.  0.
     999903    2    3    3    0    0  0.22700728606E-01  0.28757978762E-01 -0.12304983667E+00  0.13045333249E+00  0.23118504114E-01 0.  0.
         14    1    1    2    0    0 -0.13995215587E-01  0.17539768547E-01 -0.49245392794E-02  0.22973041312E-01  0.00000000000E+00 0.  1.
     999901    1    3    3    0    0 -0.87055130193E-02 -0.46297747309E-01  0.12797437595E+00  0.89050362619E+00  0.88000000000E+00 0. -1.
        -11    1    4    4    0    0  0.22822164037E-01  0.18227883061E-01 -0.10924246535E+00  0.11308087482E+00  0.51100000000E-03 0.  1.
         11    1    4    4    0    0 -0.12143543074E-03  0.10530095701E-01 -0.13807371321E-01  0.17372457679E-01  0.51100000000E-03 0. -1.
</event>
<event>
 7    1  0.1114447E+005  0.1043930E+01  0.7957747E-01            NaN
         13   -1    0    0    0    0  0.00000000000E+00  0.00000000000E+00  0.74505805969E-08  0.10566000000E+00  0.10566000000E+00 0. -1.
     999900   -1    0    0    0    0 -0.00000000000E+00 -0.00000000000E+00 -0.74505805969E-08  0.93827000000E+00  0.93827000000E+00 0.  1.
     999903    2    1    2    0    0  0.10232609992E+00  0.14446546970E-02 -0.38667734383E-01  0.11114209706E+00  0.19612605784E-01 0.  0.
         14    1    1    2    0    0  0.35002103049E-01  0.18189723491E-01 -0.96558783329E-02  0.40610949816E-01  0.00000000000E+00 0. -1.
     999901    1    1    2    0    0 -0.13732820297E+00 -0.19634378187E-01  0.48323612716E-01  0.89217695312E+00  0.88000000000E+00 0.  1.
        -11    1    3    3    0    0  0.54391102866E-01  0.10533302895E-01 -0.20138175921E-01  0.58950401112E-01  0.51100000000E-03 0.  1.
         11    1    3    3    0    0  0.47934997051E-01 -0.90886481979E-02 -0.18529558463E-01  0.52191695951E-01  0.51100000000E-03 0. -1.
</event>
<event>
 8    1  0.1114447E+005  0.1043930E+01  0.7957747E-01            NaN
         13   -1    0    0    0    0  0.00000000000E+00  0.00000000000E+00  0.74505805969E-08  0.10566000000E+00  0.10566000000E+00 0.  1.
     999900   -1    0    0    0    0 -0.00000000000E+00 -0.00000000000E+00 -0.74505805969E-08  0.93827000000E+00  0.93827000000E+00 0. -1.
     999902    2    1    2    0    0  0.13009577962E-01 -0.71450328180E-02 -0.18605351494E-01  0.10201295858E+01  0.10198519069E+01 0.  0.
     999903    2    3    3    0    0  0.70951296840E-01  0.92148373238E-01 -0.58417537035E-01  0.13175948645E+00  0.20555885341E-01 0.  0.
         14    1    1    2    0    0 -0.13009577962E-01  0.71450328180E-02  0.18605351494E-01  0.23800414218E-01  0.00000000000E+00 0. -1.
     999901    1    3    3    0    0 -0.57941718878E-01 -0.99293406056E-01  0.39812185541E-01  0.88837009933E+00  0.88000000000E+00 0.  1.
        -11    1    4    4    0    0  0.48513647835E-01  0.75993814986E-01 -0.48533192072E-01  0.10239319214E+00  0.51100000000E-03 0.  1.
         11    1    4    4    0    0  0.22437649005E-01  0.16154558251E-01 -0.98843449638E-02  0.29366294311E-01  0.51100000000E-03 0. -1.
</event>
<event>
 8    1  0.1114447E+005  0.1043930E+01  0.7957747E-01            NaN
         13   -1    0    0    0    0  0.00000000000E+00  0.00000000000E+00  0.74505805969E-08  0.10566000000E+00  0.10566000000E+00 0.  1.
     999900   -1    0    0    0    0 -0.00000000000E+00 -0.00000000000E+00 -0.74505805969E-08  0.93827000000E+00  0.93827000000E+00 0. -1.
     999902    2    1    2    0    0  0.11250955913E-01  0.20033538950E-01  0.51390156863E-02  0.10203856552E+01  0.10201139883E+01 0.  0.
     999903    2    3    3    0    0 -0.55586229212E-01 -0.90474098285E-01  0.70682768035E-01  0.12854759212E+00  0.15907180939E-01 0.  0.
         14    1    1    2    0    0 -0.11250955913E-01 -0.20033538950E-01 -0.51390156863E-02  0.23544344842E-01  0.00000000000E+00 0.  1.
     999901    1    3    3    0    0  0.66837185126E-01  0.11050763723E+00 -0.65543752349E-01  0.89183806303E+00  0.88000000000E+00 0. -1.
        -11    1    4    4    0    0 -0.50502203585E-01 -0.71436771671E-01  0.60439358253E-01  0.10633372965E+00  0.51100000000E-03 0.  1.
         11    1    4    4    0    0 -0.50840256272E-02 -0.19037326614E-01  0.10243409782E-01  0.22213862478E-01  0.51100000000E-03 0. -1.
</event>
<event>
 8    1  0.1114447E+005  0.1043930E+01  0.7957747E-01            NaN
         13   -1    0    0    0    0  0.00000000000E+00  0.00000000000E+00  0.74505805969E-08  0.10566000000E+00  0.10566000000E+00 0.  1.
     999900   -1    0    0    0    0 -0.00000000000E+00 -0.00000000000E+00 -0.74505805969E-08  0.93827000000E+00  0.93827000000E+00 0.  1.
     999902    2    1    2    0    0  0.84347708949E-02 -0.21316787090E-01  0.31562650450E-02  0.10207888509E+01  0.10205265138E+01 0.  0.
     999903    2    3    3    0    0 -0.80838621557E-01 -0.63481411857E-02  0.98851764745E-01  0.13098469964E+00  0.28462932306E-01 0.  0.
         14    1    1    2    0    0 -0.84347708949E-02  0.21316787090E-01 -0.31562650450E-02  0.23141149084E-01  0.00000000000E+00 0. -1.
     999901    1    3    3    0    0  0.89273392452E-01 -0.14968645905E-01 -0.95695499700E-01  0.88980415127E+00  0.88000000000E+00 0.  1.
        -11    1    4    4    0    0 -0.34162116149E-01  0.83810828330E-02  0.54875200186E-01  0.65183137741E-01  0.51100000000E-03 0.  1.
         11    1    4    4    0    0 -0.46676505409E-01 -0.14729224019E-01  0.43976564559E-01  0.65801561902E-01  0.51100000000E-03 0. -1.
</event>
<event>
 8    1  0.1114447E+005  0.1043930E+01  0.7957747E-01            NaN
         13   -1    0    0    0    0  0.00000000000E+00  0.00000000000E+00  0.74505805969E-08  0.10566000000E+00  0.10566000000E+00 0. -1.
     999900   -1    0    0    0    0 -0.00000000000E+00 -0.00000000000E+00 -0.74505805969E-08  0.93827000000E+00  0.93827000000E+00 0.  1.
     999902    2    1    2    0    0 -0.22712089699E-01  0.11912671344E-01  0.22636159419E-02  0.10181836466E+01  0.10178580763E+01 0.  0.
     999903    2    3    3    0    0 -0.38417970724E-01  0.72677319802E-01  0.99506307361E-01  0.13060539187E+00  0.19958203670E-01 0.  0.
         14    1    1    2    0    0  0.22712089699E-01 -0.11912671344E-01 -0.22636159419E-02  0.25746353415E-01  0.00000000000E+00 0.  1.
     999901    1    3    3    0    0  0.15705881025E-01 -0.60764648458E-01 -0.97242691419E-01  0.88757825471E+00  0.88000000000E+00 0.  1.
        -11    1    4    4    0    0 -0.26880091606E-01  0.36940742847E-01  0.42893495652E-01  0.62667941542E-01  0.51100000000E-03 0.  1.
         11    1    4    4    0    0 -0.11537879118E-01  0.35736576955E-01  0.56612811709E-01  0.67937450332E-01  0.51100000000E-03 0. -1.
</event>
<event>
 8    1  0.1114447E+005  0.1043930E+01  0.7957747E-01            NaN
         13   -1    0    0    0    0  0.00000000000E+00  0.00000000000E+00  0.74505805969E-08  0.10566000000E+00  0.10566000000E+00 0.  1.
     999900   -1    0    0    0    0 -0.00000000000E+00 -0.00000000000E+00 -0.74505805969E-08  0.93827000000E+00  0.93827000000E+00 0.  1.
     999902    2    1    2    0    0 -0.26370725135E-01 -0.21967603369E-02  0.59427687024E-02  0.10168088385E+01  0.10164470752E+01 0.  0.
     999903    2    3    3    0    0 -0.30885532562E-01  0.10607196996E-01 -0.12163932006E+00  0.12750488925E+00  0.19873194241E-01 0.  0.
         14    1    1    2    0    0  0.26370725135E-01  0.21967603369E-02 -0.59427687024E-02  0.27121161479E-01  0.00000000000E+00 0. -1.
     999901    1    3    3    0    0  0.45148074271E-02 -0.12803957333E-01  0.12758208876E+00  0.88930394927E+00  0.88000000000E+00 0. -1.
        -11    1    4    4    0    0 -0.16152597092E-01 -0.45732167054E-02 -0.61468097132E-01  0.63721337006E-01  0.51100000000E-03 0. -1.
         11    1    4    4    0    0 -0.14732935470E-01  0.15180413702E-01 -0.60171222927E-01  0.63783552247E-01  0.51100000000E-03 0.  1.
</event>
<event>
 8    1  0.1114447E+005  0.1043930E+01  0.7957747E-01            NaN
         13   -1    0    0    0    0  0.00000000000E+00  0.00000000000E+00  0.74505805969E-08  0.10566000000E+00  0.10566000000E+00 0.  1.
     999900   -1    0    0    0    0 -0.00000000000E+00 -0.00000000000E+00 -0.74505805969E-08  0.93827000000E+00  0.93827000000E+00 0.  1.
     999902    2    1    2    0    0  0.21654749284E-01  0.11586356345E-01  0.16282044433E-02  0.10193165307E+01  0.10190193163E+01 0.  0.
     999903    2    3    3    0    0  0.11839785621E+00  0.55136967147E-01 -0.12818482083E-01  0.13282649063E+00  0.20504283214E-01 0.  0.
         14    1    1    2    0    0 -0.21654749284E-01 -0.11586356345E-01 -0.16282044433E-02  0.24613469272E-01  0.00000000000E+00 0. -1.
     999901    1    3    3    0    0 -0.96743106923E-01 -0.43550610801E-01  0.14446686526E-01  0.88649004010E+00  0.88000000000E+00 0.  1.
        -11    1    4    4    0    0  0.95832864532E-01  0.44271069842E-01 -0.21188692560E-02  0.10558700809E+00  0.51100000000E-03 0.  1.
         11    1    4    4    0    0  0.22564991675E-01  0.10865897305E-01 -0.10699612827E-01  0.27239482542E-01  0.51100000000E-03 0. -1.
</event>
<event>
 8    1  0.1114447E+005  0.1043930E+01  0.7957747E-01            NaN
         13   -1    0    0    0    0  0.00000000000E+00  0.00000000000E+00  0.74505805969E-08  0.10566000000E+00  0.10566000000E+00 0. -1.
     999900   -1    0    0    0    0 -0.00000000000E+00 -0.00000000000E+00 -0.74505805969E-08  0.93827000000E+00  0.93827000000E+00 0. -1.
     999902    2    1    2    0    0 -0.13654498626E-01  0.10818187392E-01 -0.16589523693E-01  0.10198740068E+01  0.10195902603E+01 0.  0.
     999903    2    3    3    0    0  0.49240267582E-01 -0.11215098802E+00  0.30836399164E-01  0.12783903673E+00  0.19735443563E-01 0.  0.
         14    1    1    2    0    0  0.13654498626E-01 -0.10818187392E-01  0.16589523693E-01  0.24055993173E-01  0.00000000000E+00 0. -1.
     999901    1    3    3    0    0 -0.62894766208E-01  0.12296917541E+00 -0.47425922857E-01  0.89203497010E+00  0.88000000000E+00 0. -1.
        -11    1    4    4    0    0  0.37277770212E-01 -0.65935560775E-01  0.12881526267E-01  0.76833099421E-01  0.51100000000E-03 0.  1.
         11    1    4    4    0    0  0.11962497371E-01 -0.46215427248E-01  0.17954872897E-01  0.51005937309E-01  0.51100000000E-03 0. -1.
</event>
<event>
 8    1  0.1114447E+005  0.1043930E+01  0.7957747E-01            NaN
         13   -1    0    0    0    0  0.00000000000E+00  0.00000000000E+00  0.74505805969E-08  0.10566000000E+00  0.10566000000E+00 0. -1.
     999900   -1    0    0    0    0 -0.00000000000E+00 -0.00000000000E+00 -0.74505805969E-08  0.93827000000E+00  0.93827000000E+00 0. -1.
     999902    2    1    2    0    0  0.13150559120E-02  0.78859685818E-02 -0.22393502352E-01  0.10201521359E+01  0.10198749892E+01 0.  0.
     999903    2    3    3    0    0 -0.47599019222E-01  0.89801047729E-01 -0.83156547447E-01  0.13291213762E+00  0.20511707370E-01 0.  0.
         14    1    1    2    0    0 -0.13150559120E-02 -0.78859685818E-02  0.22393502352E-01  0.23777864078E-01  0.00000000000E+00 0. -1.
     999901    1    3    3    0    0  0.48914075135E-01 -0.81915079147E-01  0.60763045095E-01  0.88723999830E+00  0.88000000000E+00 0.  1.
        -11    1    4    4    0    0 -0.23383878820E-01  0.25119700189E-01 -0.32403559182E-01  0.47202297560E-01  0.51100000000E-03 0.  1.
         11    1    4    4    0    0 -0.24215140403E-01  0.64681347540E-01 -0.50752988265E-01  0.85709840060E-01  0.51100000000E-03 0. -1.
</event>
<event>
 8    1  0.1114447E+005  0.1043930E+01  0.7957747E-01            NaN
         13   -1    0    0    0    0  0.00000000000E+00  0.00000000000E+00  0.74505805969E-08  0.10566000000E+00  0.10566000000E+00 0. -1.
     999900   -1    0    0    0    0 -0.00000000000E+00 -0.00000000000E+00 -0.74505805969E-08  0.93827000000E+00  0.93827000000E+00 0. -1.
     999902    2    1    2    0    0  0.75180271701E-02 -0.66068715783E-02  0.20895115806E-01  0.10207615441E+01  0.10204985804E+01 0.  0.
     999903    2    3    3    0    0  0.92031178458E-01 -0.77153650248E-01 -0.49905775272E-01  0.13108065361E+00  0.16405114729E-01 0.  0.
         14    1    1    2    0    0 -0.75180271701E-02  0.66068715783E-02 -0.20895115806E-01  0.23168455907E-01  0.00000000000E+00 0.  1.
     999901    1    3    3    0    0 -0.84513151287E-01  0.70546778670E-01  0.70800891078E-01  0.88968089049E+00  0.88000000000E+00 0.  1.
        -11    1    4    4    0    0  0.48599667603E-01 -0.51270688696E-01 -0.29337900110E-01  0.76495651604E-01  0.51100000000E-03 0.  1.
         11    1    4    4    0    0  0.43431510855E-01 -0.25882961552E-01 -0.20567875162E-01  0.54585002002E-01  0.51100000000E-03 0. -1.
</event>
<event>
 8    1  0.1114447E+005  0.1043930E+01  0.7957747E-01            NaN
         13   -1    0    0    0    0  0.00000000000E+00  0.00000000000E+00  0.74505805969E-08  0.10566000000E+00  0.10566000000E+00 0. -1.
     999900   -1    0    0    0    0 -0.00000000000E+00 -0.00000000000E+00 -0.74505805969E-08  0.93827000000E+00  0.93827000000E+00 0. -1.
     999902    2    1    2    0    0  0.14456571498E-01  0.16040396895E-02 -0.18493637965E-01  0.10204017181E+01  0.10201304261E+01 0.  0.
     999903    2    3    3    0    0 -0.12726848142E+00 -0.67897706070E-02 -0.18414523777E-02  0.12886723087E+00  0.18973795023E-01 0.  0.
         14    1    1    2    0    0 -0.14456571498E-01 -0.16040396895E-02  0.18493637965E-01  0.23528281875E-01  0.00000000000E+00 0. -1.
     999901    1    3    3    0    0  0.14172505292E+00  0.83938102965E-02 -0.16652185587E-01  0.89153448725E+00  0.88000000000E+00 0. -1.
        -11    1    4    4    0    0 -0.47456896582E-01 -0.30781294464E-02 -0.98457973279E-02  0.48567816093E-01  0.51100000000E-03 0. -1.
         11    1    4    4    0    0 -0.79811584840E-01 -0.37116411606E-02  0.80043449502E-02  0.80299414779E-01  0.51100000000E-03 0.  1.
</event>
<event>
 8    1  0.1114447E+005  0.1043930E+01  0.7957747E-01            NaN
         13   -1    0    0    0    0  0.00000000000E+00  0.00000000000E+00  0.74505805969E-08  0.10566000000E+00  0.10566000000E+00 0. -1.
     999900   -1    0    0    0    0 -0.00000000000E+00 -0.00000000000E+00 -0.74505805969E-08  0.93827000000E+00  0.93827000000E+00 0. -1.
     999902    2    1    2    0    0 -0.57466642494E-02  0.40404818676E-02  0.22345259128E-01  0.10205065022E+01  0.10202376492E+01 0.  0.
     999903    2    3    3    0    0  0.24730116466E-01 -0.10744684797E+00 -0.63675684344E-01  0.12879025720E+00  0.19389011717E-01 0.  0.
         14    1    1    2    0    0  0.57466642494E-02 -0.40404818676E-02 -0.22345259128E-01  0.23423497800E-01  0.00000000000E+00 0.  1.
     999901    1    3    3    0    0 -0.30476780715E-01  0.11148732983E+00  0.86020943472E-01  0.89171624500E+00  0.88000000000E+00 0.  1.
        -11    1    4    4    0    0  0.92771448061E-02 -0.43577511737E-01 -0.36814486098E-01  0.57798204580E-01  0.51100000000E-03 0. -1.
         11    1    4    4    0    0  0.15452971659E-01 -0.63869336228E-01 -0.26861198246E-01  0.70992052623E-01  0.51100000000E-03 0.  1.
</event>
<event>
 8    1  0.1114447E+005  0.1043930E+01  0.7957747E-01            NaN
         13   -1    0    0    0    0  0.00000000000E+00  0.00000000000E+00  0.74505805969E-08  0.10566000000E+00  0.10566000000E+00 0. -1.
     999900   -1    0    0    0    0 -0.00000000000E+00 -0.00000000000E+00 -0.74505805969E-08  0.93827000000E+00  0.93827000000E+00 0. -1.
     999902    2    1    2    0    0 -0.21542029076E-01  0.51712187453E-03  0.97776051742E-02  0.10202672023E+01  0.10199927628E+01 0.  0.
     999903    2    3    3    0    0  0.87106438851E-01  0.18196951492E-01  0.91836655898E-01  0.12962094606E+00  0.21188618603E-01 0.  0.
         14    1    1    2    0    0  0.21542029076E-01 -0.51712187453E-03 -0.97776051742E-02  0.23662797693E-01  0.00000000000E+00 0.  1.
     999901    1    3    3    0    0 -0.10864846793E+00 -0.17679829618E-01 -0.82059050724E-01  0.89064625625E+00  0.88000000000E+00 0. -1.
        -11    1    4    4    0    0  0.10835941616E-01 -0.25789209743E-02  0.50874755189E-02  0.12256100206E-01  0.51100000000E-03 0.  1.
         11    1    4    4    0    0  0.76270497236E-01  0.20775872466E-01  0.86749180379E-01  0.11736484586E+00  0.51100000000E-03 0. -1.
</event>
<event>
 8    1  0.1114447E+005  0.1043930E+01  0.7957747E-01            NaN
         13   -1    0    0    0    0  0.00000000000E+00  0.00000000000E+00  0.74505805969E-08  0.10566000000E+00  0.10566000000E+00 0.  1.
     999900   -1    0    0    0    0 -0.00000000000E+00 -0.00000000000E+00 -0.74505805969E-08  0.93827000000E+00  0.93827000000E+00 0.  1.
     999902    2    1    2    0    0 -0.96688962401E-02  0.20951217503E-01 -0.19459180771E-02  0.10207734099E+01  0.10205107185E+01 0.  0.
     999903    2    3    3    0    0 -0.70688534602E-01  0.44890305028E-01  0.10070836082E+00  0.13238476904E+00  0.19275495455E-01 0.  0.
         14    1    1    2    0    0  0.96688962401E-02 -0.20951217503E-01  0.19459180771E-02  0.23156590132E-01  0.00000000000E+00 0. -1.
     999901    1    3    3    0    0  0.61019638362E-01 -0.23939087525E-01 -0.10265427890E+00  0.88838864083E+00  0.88000000000E+00 0.  1.
        -11    1    4    4    0    0 -0.48629889156E-02  0.92616420497E-02  0.18080019272E-01  0.20894374663E-01  0.51100000000E-03 0. -1.
         11    1    4    4    0    0 -0.65825545686E-01  0.35628662978E-01  0.82628341548E-01  0.11149039438E+00  0.51100000000E-03 0.  1.
</event>
<event>
 8    1  0.1114447E+005  0.1043930E+01  0.7957747E-01            NaN
         13   -1    0    0    0    0  0.00000000000E+00  0.00000000000E+00  0.74505805969E-08  0.10566000000E+00  0.10566000000E+00 0.  1.
     999900   -1    0    0    0    0 -0.00000000000E+00 -0.00000000000E+00 -0.74505805969E-08  0.93827000000E+00  0.93827000000E+00 0. -1.
     999902    2    1    2    0    0 -0.18252027409E-01 -0.62607925615E-03 -0.30775684059E-01  0.10081435332E+01  0.10075081698E+01 0.  0.
     999903    2    3    3    0    0  0.10824786276E-01 -0.65632173819E-01 -0.10076621561E+00  0.12249691744E+00  0.20661711816E-01 0.  0.
         14    1    1    2    0    0  0.18252027409E-01  0.62607925615E-03  0.30775684059E-01  0.35786466843E-01  0.00000000000E+00 0.  1.
     999901    1    3    3    0    0 -0.29076813685E-01  0.65006094563E-01  0.69990531554E-01  0.88564661572E+00  0.88000000000E+00 0. -1.
        -11    1    4    4    0    0  0.32816850969E-02 -0.59827280796E-01 -0.83500842655E-01  0.10277511776E+00  0.51100000000E-03 0. -1.
         11    1    4    4    0    0  0.75431011793E-02 -0.58048930225E-02 -0.17265372959E-01  0.19721799685E-01  0.51100000000E-03 0.  1.
</event>
<event>
 8    1  0.1114447E+005  0.1043930E+01  0.7957747E-01            NaN
         13   -1    0    0    0    0  0.00000000000E+00  0.00000000000E+00  0.74505805969E-08  0.10566000000E+00  0.10566000000E+00 0.  1.
     999900   -1    0    0    0    0 -0.00000000000E+00 -0.00000000000E+00 -0.74505805969E-08  0.93827000000E+00  0.93827000000E+00 0. -1.
     999902    2    1    2    0    0  0.10370496703E-01 -0.20438128836E-01 -0.51305418283E-02  0.10204441155E+01  0.10201738117E+01 0.  0.
     999903    2    3    3    0    0  0.82724771154E-01 -0.76241711289E-01  0.67108326260E-01  0.13276870470E+00  0.21629035836E-01 0.  0.
         14    1    1    2    0    0 -0.10370496703E-01  0.20438128836E-01  0.51305418283E-02  0.23485884519E-01  0.00000000000E+00 0.  1.
     999901    1    3    3    0    0 -0.72354274451E-01  0.55803582453E-01 -0.72238868088E-01  0.88767541078E+00  0.88000000000E+00 0.  1.
        -11    1    4    4    0    0  0.60110918482E-01 -0.54058846317E-01  0.36451842324E-01  0.88683027213E-01  0.51100000000E-03 0.  1.
         11    1    4    4    0    0  0.22613852671E-01 -0.22182864972E-01  0.30656483936E-01  0.44085677485E-01  0.51100000000E-03 0. -1.
</event>
<event>
 8    1  0.1114447E+005  0.1043930E+01  0.7957747E-01            NaN
         13   -1    0    0    0    0  0.00000000000E+00  0.00000000000E+00  0.74505805969E-08  0.10566000000E+00  0.10566000000E+00 0. -1.
     999900   -1    0    0    0    0 -0.00000000000E+00 -0.00000000000E+00 -0.74505805969E-08  0.93827000000E+00  0.93827000000E+00 0.  1.
     999902    2    1    2    0    0  0.62145551677E-02 -0.21688509520E-01  0.74591572413E-02  0.10201676102E+01  0.10198908284E+01 0.  0.
     999903    2    3    3    0    0  0.65649263342E-02 -0.84293987859E-01 -0.98610003162E-01  0.13158996282E+00  0.21057325191E-01 0.  0.
         14    1    1    2    0    0 -0.62145551677E-02  0.21688509520E-01 -0.74591572413E-02  0.23762389776E-01  0.00000000000E+00 0.  1.
     999901    1    3    3    0    0 -0.35037116645E-03  0.62605478339E-01  0.10606916040E+00  0.88857764740E+00  0.88000000000E+00 0. -1.
        -11    1    4    4    0    0  0.35324197198E-02 -0.15280947210E-01 -0.31926882994E-01  0.35574883211E-01  0.51100000000E-03 0. -1.
         11    1    4    4    0    0  0.30325066144E-02 -0.69013040648E-01 -0.66683120168E-01  0.96015079609E-01  0.51100000000E-03 0.  1.
</event>
<event>
 8    1  0.1114447E+005  0.1043930E+01  0.7957747E-01            NaN
         13   -1    0    0    0    0  0.00000000000E+00  0.00000000000E+00  0.74505805969E-08  0.10566000000E+00  0.10566000000E+00 0. -1.
     999900   -1    0    0    0    0 -0.00000000000E+00 -0.00000000000E+00 -0.74505805969E-08  0.93827000000E+00  0.93827000000E+00 0.  1.
     999902    2    1    2    0    0 -0.17967848733E-01 -0.56374970070E-02  0.13430290222E-01  0.10207999837E+01  0.10205379018E+01 0.  0.
     999903    2    3    3    0    0  0.11052249148E+00  0.57888245988E-01  0.26522787487E-01  0.12910681836E+00  0.19971032627E-01 0.  0.
         14    1    1    2    0    0  0.17967848733E-01  0.56374970070E-02 -0.13430290222E-01  0.23130016344E-01  0.00000000000E+00 0.  1.
     999901    1    3    3    0    0 -0.12849034021E+00 -0.63525742995E-01 -0.13092497265E-01  0.89169316530E+00  0.88000000000E+00 0. -1.
        -11    1    4    4    0    0  0.28172726724E-01  0.24966704079E-01  0.89023270182E-02  0.38685286492E-01  0.51100000000E-03 0. -1.
         11    1    4    4    0    0  0.82349764757E-01  0.32921541908E-01  0.17620460469E-01  0.90421531868E-01  0.51100000000E-03 0.  1.
</event>
<event>
 8    1  0.1114447E+005  0.1043930E+01  0.7957747E-01            NaN
         13   -1    0    0    0    0  0.00000000000E+00  0.00000000000E+00  0.74505805969E-08  0.10566000000E+00  0.10566000000E+00 0. -1.
     999900   -1    0    0    0    0 -0.00000000000E+00 -0.00000000000E+00 -0.74505805969E-08  0.93827000000E+00  0.93827000000E+00 0. -1.
     999902    2    1    2    0    0  0.22796116019E-01 -0.21611614723E-02  0.66719553105E-02  0.10200794547E+01  0.10198005910E+01 0.  0.
     999903    2    3    3    0    0 -0.81850380528E-01  0.63512520828E-01 -0.67549534168E-01  0.12835486082E+00  0.34332282712E-01 0.  0.
         14    1    1    2    0    0 -0.22796116019E-01  0.21611614723E-02 -0.66719553105E-02  0.23850545321E-01  0.00000000000E+00 0.  1.
     999901    1    3    3    0    0  0.10464649655E+00 -0.65673682300E-01  0.74221489478E-01  0.89172459386E+00  0.88000000000E+00 0. -1.
        -11    1    4    4    0    0 -0.18043268982E-02  0.15163979918E-01 -0.60760521725E-02  0.16443278673E-01  0.51100000000E-03 0.  1.
         11    1    4    4    0    0 -0.80046053630E-01  0.48348540910E-01 -0.61473481995E-01  0.11191158215E+00  0.51100000000E-03 0. -1.
</event>
<event>
 8    1  0.1114447E+005  0.1043930E+01  0.7957747E-01            NaN
         13   -1    0    0    0    0  0.00000000000E+00  0.00000000000E+00  0.74505805969E-08  0.10566000000E+00  0.10566000000E+00 0.  1.
     999900   -1    0    0    0    0 -0.00000000000E+00 -0.00000000000E+00 -0.74505805969E-08  0.93827000000E+00  0.93827000000E+00 0. -1.
     999902    2    1    2    0    0  0.16639273572E-01  0.48268632177E-02  0.14790207444E-01  0.10211503101E+01  0.10208961953E+01 0.  0.
     999903    2    3    3    0    0  0.48725699071E-01 -0.10022987427E-02 -0.11927950645E+00  0.13039882628E+00  0.20026354687E-01 0.  0.
         14    1    1    2    0    0 -0.16639273572E-01 -0.48268632177E-02 -0.14790207444E-01  0.22779689852E-01  0.00000000000E+00 0. -1.
     999901    1    3    3    0    0 -0.32086425500E-01  0.58291619604E-02  0.13406971390E+00  0.89075148387E+00  0.88000000000E+00 0.  1.
        -11    1    4    4    0    0  0.25418418997E-01 -0.10152829277E-01 -0.55680817299E-01  0.62046680030E-01  0.51100000000E-03 0. -1.
         11    1    4    4    0    0  0.23307280074E-01  0.91505305341E-02 -0.63598689156E-01  0.68352146249E-01  0.51100000000E-03 0.  1.
</event>
<event>
 8    1  0.1114447E+005  0.1043930E+01  0.7957747E-01            NaN
         13   -1    0    0    0    0  0.00000000000E+00  0.00000000000E+00  0.74505805969E-08  0.10566000000E+00  0.10566000000E+00 0.  1.
     999900   -1    0    0    0    0 -0.00000000000E+00 -0.00000000000E+00 -0.74505805969E-08  0.93827000000E+00  0.93827000000E+00 0. -1.
     999902    2    1    2    0    0  0.22289508015E-01  0.61727221294E-02 -0.10859085991E-02  0.10207760832E+01  0.10205134532E+01 0.  0.
     999903    2    3    3    0    0  0.96840341506E-01  0.89871387377E-01 -0.25706266112E-02  0.13366532476E+00  0.20121950954E-01 0.  0.
         14    1    1    2    0    0 -0.22289508015E-01 -0.61727221294E-02  0.10859085991E-02  0.23153916807E-01  0.00000000000E+00 0. -1.
     999901    1    3    3    0    0 -0.74550833491E-01 -0.83698665247E-01  0.14847180122E-02  0.88711075843E+00  0.88000000000E+00 0.  1.
        -11    1    4    4    0    0  0.44316322790E-01  0.51065127973E-01 -0.82274125806E-02  0.68114133623E-01  0.51100000000E-03 0.  1.
         11    1    4    4    0    0  0.52524018716E-01  0.38806259404E-01  0.56567859694E-02  0.65551191137E-01  0.51100000000E-03 0. -1.
</event>
<event>
 8    1  0.1114447E+005  0.1043930E+01  0.7957747E-01            NaN
         13   -1    0    0    0    0  0.00000000000E+00  0.00000000000E+00  0.74505805969E-08  0.10566000000E+00  0.10566000000E+00 0. -1.
     999900   -1    0    0    0    0 -0.00000000000E+00 -0.00000000000E+00 -0.74505805969E-08  0.93827000000E+00  0.93827000000E+00 0. -1.
     999902    2    1    2    0    0  0.16096379413E-01  0.12802663415E-01 -0.10870077613E-01  0.10206671496E+01  0.10204020140E+01 0.  0.
     999903    2    3    3    0    0  0.52166037602E-01 -0.79561733190E-01 -0.88734449190E-01  0.13168173783E+00  0.20369406913E-01 0.  0.
         14    1    1    2    0    0 -0.16096379413E-01 -0.12802663415E-01  0.10870077613E-01  0.23262850385E-01  0.00000000000E+00 0. -1.
     999901    1    3    3    0    0 -0.36069658189E-01  0.92364396606E-01  0.77864371577E-01  0.88898541178E+00  0.88000000000E+00 0.  1.
        -11    1    4    4    0    0  0.27149954731E-01 -0.27137203616E-01 -0.43787568093E-01  0.58233668118E-01  0.51100000000E-03 0.  1.
         11    1    4    4    0    0  0.25016082871E-01 -0.52424529575E-01 -0.44946881097E-01  0.73448069714E-01  0.51100000000E-03 0. -1.
</event>
<event>
 8    1  0.1114447E+005  0.1043930E+01  0.7957747E-01            NaN
         13   -1    0    0    0    0  0.00000000000E+00  0.00000000000E+00  0.74505805969E-08  0.10566000000E+00  0.10566000000E+00 0. -1.
     999900   -1    0    0    0    0 -0.00000000000E+00 -0.00000000000E+00 -0.74505805969E-08  0.93827000000E+00  0.93827000000E+00 0.  1.
     999902    2    1    2    0    0 -0.17161076446E-01 -0.11261163566E-01  0.93831080890E-02  0.10213610154E+01  0.10211116318E+01 0.  0.
     999903    2    3    3    0    0  0.40015976590E-01  0.11041945027E+00 -0.50951879773E-01  0.12910785739E+00  0.16703634513E-01 0.  0.
         14    1    1    2    0    0  0.17161076446E-01  0.11261163566E-01 -0.93831080890E-02  0.22568984626E-01  0.00000000000E+00 0.  1.
     999901    1    3    3    0    0 -0.57177053036E-01 -0.12168061384E+00  0.60334987862E-01  0.89225315799E+00  0.88000000000E+00 0.  1.
        -11    1    4    4    0    0  0.24428069392E-01  0.67871032511E-01 -0.22343049657E-01  0.75516095088E-01  0.51100000000E-03 0.  1.
         11    1    4    4    0    0  0.15587907198E-01  0.42548417761E-01 -0.28608830116E-01  0.53591762299E-01  0.51100000000E-03 0. -1.
</event>
<event>
 8    1  0.1114447E+005  0.1043930E+01  0.7957747E-01            NaN
         13   -1    0    0    0    0  0.00000000000E+00  0.00000000000E+00  0.74505805969E-08  0.10566000000E+00  0.10566000000E+00 0. -1.
     999900   -1    0    0    0    0 -0.00000000000E+00 -0.00000000000E+00 -0.74505805969E-08  0.93827000000E+00  0.93827000000E+00 0.  1.
     999902    2    1    2    0    0  0.43023244491E-02  0.13652999208E-01 -0.15755140976E-01  0.10226429417E+01  0.10224213649E+01 0.  0.
     999903    2    3    3    0    0  0.38559798759E-01  0.11178263396E-01  0.12074718108E+00  0.13145688775E+00  0.33003332316E-01 0.  0.
         14    1    1    2    0    0 -0.43023244491E-02 -0.13652999208E-01  0.15755140976E-01  0.21287058280E-01  0.00000000000E+00 0. -1.
     999901    1    3    3    0    0 -0.34257474310E-01  0.24747358125E-02 -0.13650232206E+00  0.89118605397E+00  0.88000000000E+00 0.  1.
        -11    1    4    4    0    0  0.23470071286E-01 -0.10357990897E-01  0.58292148499E-01  0.63689621755E-01  0.51100000000E-03 0. -1.
         11    1    4    4    0    0  0.15089727473E-01  0.21536254292E-01  0.62455032585E-01  0.67767265995E-01  0.51100000000E-03 0.  1.
</event>
<event>
 8    1  0.1114447E+005  0.1043930E+01  0.7957747E-01            NaN
         13   -1    0    0    0    0  0.00000000000E+00  0.00000000000E+00  0.74505805969E-08  0.10566000000E+00  0.10566000000E+00 0. -1.
     999900   -1    0    0    0    0 -0.00000000000E+00 -0.00000000000E+00 -0.74505805969E-08  0.93827000000E+00  0.93827000000E+00 0. -1.
     999902    2    1    2    0    0  0.18127232351E-01 -0.10750369575E-01 -0.10607493596E-01  0.10203358075E+01  0.10200629756E+01 0.  0.
     999903    2    3    3    0    0  0.11017589799E+00 -0.43737180807E-01  0.55945830748E-01  0.13242228045E+00  0.18816346578E-01 0.  0.
         14    1    1    2    0    0 -0.18127232351E-01  0.10750369575E-01  0.10607493596E-01  0.23594192486E-01  0.00000000000E+00 0. -1.
     999901    1    3    3    0    0 -0.92048665640E-01  0.32986811232E-01 -0.66553324344E-01  0.88791352706E+00  0.88000000000E+00 0. -1.
        -11    1    4    4    0    0  0.68656674000E-01 -0.33887945328E-01  0.28576570916E-01  0.81725230190E-01  0.51100000000E-03 0. -1.
         11    1    4    4    0    0  0.41519223991E-01 -0.98492354782E-02  0.27369259832E-01  0.50697050260E-01  0.51100000000E-03 0.  1.
</event>
<event>
 8    1  0.1114447E+005  0.1043930E+01  0.7957747E-01            NaN
         13   -1    0    0    0    0  0.00000000000E+00  0.00000000000E+00  0.74505805969E-08  0.10566000000E+00  0.10566000000E+00 0.  1.
     999900   -1    0    0    0    0 -0.00000000000E+00 -0.00000000000E+00 -0.74505805969E-08  0.93827000000E+00  0.93827000000E+00 0. -1.
     999902    2    1    2    0    0 -0.21524441964E-01 -0.26324943232E-02 -0.98069564525E-02  0.10201306718E+01  0.10198530186E+01 0.  0.
     999903    2    3    3    0    0  0.10920918211E+00 -0.64381801686E-01  0.82267184409E-03  0.12826899731E+00  0.19508896320E-01 0.  0.
         14    1    1    2    0    0  0.21524441964E-01  0.26324943232E-02  0.98069564525E-02  0.23799328207E-01  0.00000000000E+00 0. -1.
     999901    1    3    3    0    0 -0.13073362407E+00  0.61749307363E-01 -0.10629628297E-01  0.89186167449E+00  0.88000000000E+00 0. -1.
        -11    1    4    4    0    0  0.35628914729E-01 -0.31802506053E-01  0.17300431111E-02  0.47791977634E-01  0.51100000000E-03 0.  1.
         11    1    4    4    0    0  0.73580267379E-01 -0.32579295634E-01 -0.90737126700E-03  0.80477019671E-01  0.51100000000E-03 0. -1.
</event>
<event>
 8    1  0.1114447E+005  0.1043930E+01  0.7957747E-01            NaN
         13   -1    0    0    0    0  0.00000000000E+00  0.00000000000E+00  0.74505805969E-08  0.10566000000E+00  0.10566000000E+00 0. -1.
     999900   -1    0    0    0    0 -0.00000000000E+00 -0.00000000000E+00 -0.74505805969E-08  0.93827000000E+00  0.93827000000E+00 0. -1.
     999902    2    1    2    0    0  0.21400891991E-01 -0.10244759461E-01 -0.37297127590E-02  0.10199120061E+01  0.10196291660E+01 0.  0.
     999903    2    3    3    0    0  0.43735608764E-01 -0.12119500364E+00  0.22378454583E-01  0.13228008200E+00  0.19904584458E-01 0.  0.
         14    1    1    2    0    0 -0.21400891991E-01  0.10244759461E-01  0.37297127590E-02  0.24017993915E-01  0.00000000000E+00 0. -1.
     999901    1    3    3    0    0 -0.22334716774E-01  0.11095024418E+00 -0.26108167342E-01  0.88763192409E+00  0.88000000000E+00 0. -1.
        -11    1    4    4    0    0  0.17687844469E-01 -0.64723846704E-01  0.20108682423E-01  0.70047529606E-01  0.51100000000E-03 0.  1.
         11    1    4    4    0    0  0.26047764295E-01 -0.56471156937E-01  0.22697721594E-02  0.62232552392E-01  0.51100000000E-03 0. -1.
</event>
<event>
 8    1  0.1114447E+005  0.1043930E+01  0.7957747E-01            NaN
         13   -1    0    0    0    0  0.00000000000E+00  0.00000000000E+00  0.74505805969E-08  0.10566000000E+00  0.10566000000E+00 0. -1.
     999900   -1    0    0    0    0 -0.00000000000E+00 -0.00000000000E+00 -0.74505805969E-08  0.93827000000E+00  0.93827000000E+00 0. -1.
     999902    2    1    2    0    0 -0.20000017450E-01 -0.67268558892E-02 -0.10742605509E-01  0.10202518484E+01  0.10199770485E+01 0.  0.
     999903    2    3    3    0    0  0.35540787511E-01  0.13818995714E-01  0.12106539365E+00  0.12846697434E+00  0.19819730995E-01 0.  0.
         14    1    1    2    0    0  0.20000017450E-01  0.67268558892E-02  0.10742605509E-01  0.23678151560E-01  0.00000000000E+00 0. -1.
     999901    1    3    3    0    0 -0.55540804961E-01 -0.20545851603E-01 -0.13180799916E+00  0.89178487410E+00  0.88000000000E+00 0. -1.
        -11    1    4    4    0    0  0.33857543237E-01  0.13480163076E-01  0.86621917636E-01  0.93976942739E-01  0.51100000000E-03 0. -1.
         11    1    4    4    0    0  0.16832442737E-02  0.33883263800E-03  0.34443476014E-01  0.34490031600E-01  0.51100000000E-03 0.  1.
</event>
<event>
 8    1  0.1114447E+005  0.1043930E+01  0.7957747E-01            NaN
         13   -1    0    0    0    0  0.00000000000E+00  0.00000000000E+00  0.74505805969E-08  0.10566000000E+00  0.10566000000E+00 0. -1.
     999900   -1    0    0    0    0 -0.00000000000E+00 -0.00000000000E+00 -0.74505805969E-08  0.93827000000E+00  0.93827000000E+00 0. -1.
     999902    2    1    2    0    0 -0.26822448049E-02 -0.29540685075E-02  0.23357896234E-01  0.10202337498E+01  0.10199585246E+01 0.  0.
     999903    2    3    3    0    0 -0.68365289855E-01  0.10038557488E+00  0.46166922407E-01  0.13146291544E+00  0.20000922755E-01 0.  0.
         14    1    1    2    0    0  0.26822448049E-02  0.29540685075E-02 -0.23357896234E-01  0.23696250218E-01  0.00000000000E+00 0.  1.
     999901    1    3    3    0    0  0.65683045050E-01 -0.10333964338E+00 -0.22809026173E-01  0.88877083434E+00  0.88000000000E+00 0.  1.
        -11    1    4    4    0    0 -0.91063244874E-02  0.22428543180E-01  0.15906203155E-01  0.28969520442E-01  0.51100000000E-03 0.  1.
         11    1    4    4    0    0 -0.59258965368E-01  0.77957031697E-01  0.30260719252E-01  0.10249339500E+00  0.51100000000E-03 0. -1.
</event>
<event>
 8    1  0.1114447E+005  0.1043930E+01  0.7957747E-01            NaN
         13   -1    0    0    0    0  0.00000000000E+00  0.00000000000E+00  0.74505805969E-08  0.10566000000E+00  0.10566000000E+00 0.  1.
     999900   -1    0    0    0    0 -0.00000000000E+00 -0.00000000000E+00 -0.74505805969E-08  0.93827000000E+00  0.93827000000E+00 0.  1.
     999902    2    1    2    0    0  0.14039966814E-01 -0.18273769272E-01  0.67111763773E-02  0.10199281001E+01  0.10196456434E+01 0.  0.
     999903    2    3    3    0    0 -0.72202028562E-01 -0.51106433606E-01  0.94050487311E-01  0.13080278785E+00  0.20949335570E-01 0.  0.
         14    1    1    2    0    0 -0.14039966814E-01  0.18273769272E-01 -0.67111763773E-02  0.24001899923E-01  0.00000000000E+00 0. -1.
     999901    1    3    3    0    0  0.86241995376E-01  0.32832664334E-01 -0.87339310933E-01  0.88912531223E+00  0.88000000000E+00 0.  1.
        -11    1    4    4    0    0 -0.59985762971E-01 -0.36773166784E-01  0.62794214384E-01  0.94307645690E-01  0.51100000000E-03 0. -1.
         11    1    4    4    0    0 -0.12216265591E-01 -0.14333266821E-01  0.31256272927E-01  0.36495142157E-01  0.51100000000E-03 0.  1.
</event>
<event>
 8    1  0.1114447E+005  0.1043930E+01  0.7957747E-01            NaN
         13   -1    0    0    0    0  0.00000000000E+00  0.00000000000E+00  0.74505805969E-08  0.10566000000E+00  0.10566000000E+00 0.  1.
     999900   -1    0    0    0    0 -0.00000000000E+00 -0.00000000000E+00 -0.74505805969E-08  0.93827000000E+00  0.93827000000E+00 0. -1.
     999902    2    1    2    0    0  0.47704140177E-02  0.21505119241E-01  0.51480317926E-02  0.10213085669E+01  0.10210580099E+01 0.  0.
     999903    2    3    3    0    0  0.45669032846E-01 -0.11841333954E+00 -0.14804267279E-01  0.12909336509E+00  0.18399756452E-01 0.  0.
         14    1    1    2    0    0 -0.47704140177E-02 -0.21505119241E-01 -0.51480317926E-02  0.22621433085E-01  0.00000000000E+00 0. -1.
     999901    1    3    3    0    0 -0.40898618828E-01  0.13991845878E+00  0.19952299072E-01  0.89221520183E+00  0.88000000000E+00 0.  1.
        -11    1    4    4    0    0  0.26313982008E-01 -0.46839662457E-01 -0.14032693113E-02  0.53745789732E-01  0.51100000000E-03 0.  1.
         11    1    4    4    0    0  0.19355050838E-01 -0.71573677086E-01 -0.13400997968E-01  0.75347575357E-01  0.51100000000E-03 0. -1.
</event>
<event>
 8    1  0.1114447E+005  0.1043930E+01  0.7957747E-01            NaN
         13   -1    0    0    0    0  0.00000000000E+00  0.00000000000E+00  0.74505805969E-08  0.10566000000E+00  0.10566000000E+00 0. -1.
     999900   -1    0    0    0    0 -0.00000000000E+00 -0.00000000000E+00 -0.74505805969E-08  0.93827000000E+00  0.93827000000E+00 0.  1.
     999902    2    1    2    0    0  0.18881521257E-01  0.13683827489E-01 -0.41040553704E-02  0.10202529594E+01  0.10199781855E+01 0.  0.
     999903    2    3    3    0    0  0.66588683914E-01 -0.32312015231E-01 -0.10670169132E+00  0.13181733102E+00  0.22637108329E-01 0.  0.
         14    1    1    2    0    0 -0.18881521257E-01 -0.13683827489E-01  0.41040553704E-02  0.23677040571E-01  0.00000000000E+00 0.  1.
     999901    1    3    3    0    0 -0.47707162657E-01  0.45995842719E-01  0.10259763595E+00  0.88843562840E+00  0.88000000000E+00 0. -1.
        -11    1    4    4    0    0  0.36705135316E-01 -0.23980437318E-01 -0.78362707638E-01  0.89795898580E-01  0.51100000000E-03 0.  1.
         11    1    4    4    0    0  0.29883548598E-01 -0.83315779128E-02 -0.28338983685E-01  0.42021432444E-01  0.51100000000E-03 0. -1.
</event>
<event>
 8    1  0.1114447E+005  0.1043930E+01  0.7957747E-01            NaN
         13   -1    0    0    0    0  0.00000000000E+00  0.00000000000E+00  0.74505805969E-08  0.10566000000E+00  0.10566000000E+00 0.  1.
     999900   -1    0    0    0    0 -0.00000000000E+00 -0.00000000000E+00 -0.74505805969E-08  0.93827000000E+00  0.93827000000E+00 0. -1.
     999902    2    1    2    0    0 -0.19501906996E-01  0.10948066686E-01  0.82751328754E-02  0.10200833574E+01  0.10198045860E+01 0.  0.
     999903    2    3    3    0    0 -0.15848697164E-01 -0.81020035688E-01  0.99230950225E-01  0.13062035167E+00  0.19986680652E-01 0.  0.
         14    1    1    2    0    0  0.19501906996E-01 -0.10948066686E-01 -0.82751328754E-02  0.23846642630E-01  0.00000000000E+00 0.  1.
     999901    1    3    3    0    0 -0.36532098320E-02  0.91968102374E-01 -0.90955817350E-01  0.88946300570E+00  0.88000000000E+00 0. -1.
        -11    1    4    4    0    0 -0.12679498966E-01 -0.67334633110E-01  0.92284195913E-01  0.11494066489E+00  0.51100000000E-03 0.  1.
         11    1    4    4    0    0 -0.31691981980E-02 -0.13685402579E-01  0.69467543119E-02  0.15679686777E-01  0.51100000000E-03 0. -1.
</event>
<event>
 8    1  0.1114447E+005  0.1043930E+01  0.7957747E-01            NaN
         13   -1    0    0    0    0  0.00000000000E+00  0.00000000000E+00  0.74505805969E-08  0.10566000000E+00  0.10566000000E+00 0.  1.
     999900   -1    0    0    0    0 -0.00000000000E+00 -0.00000000000E+00 -0.74505805969E-08  0.93827000000E+00  0.93827000000E+00 0. -1.
     999902    2    1    2    0    0 -0.80810131426E-02 -0.14302460058E-01  0.17110047816E-01  0.10202104538E+01  0.10199346808E+01 0.  0.
     999903    2    3    3    0    0 -0.11644742120E+00 -0.53074589139E-01  0.28167393504E-01  0.13264703559E+00  0.20613589640E-01 0.  0.
         14    1    1    2    0    0  0.80810131426E-02  0.14302460058E-01 -0.17110047816E-01  0.23719546230E-01  0.00000000000E+00 0. -1.
     999901    1    3    3    0    0  0.10836640806E+00  0.38772129081E-01 -0.11057345688E-01  0.88756341818E+00  0.88000000000E+00 0.  1.
        -11    1    4    4    0    0 -0.74509862168E-01 -0.23598621502E-01  0.13398763164E-01  0.79299448122E-01  0.51100000000E-03 0.  1.
         11    1    4    4    0    0 -0.41937559036E-01 -0.29475967637E-01  0.14768630340E-01  0.53347587472E-01  0.51100000000E-03 0. -1.
</event>
<event>
 8    1  0.1114447E+005  0.1043930E+01  0.7957747E-01            NaN
         13   -1    0    0    0    0  0.00000000000E+00  0.00000000000E+00  0.74505805969E-08  0.10566000000E+00  0.10566000000E+00 0.  1.
     999900   -1    0    0    0    0 -0.00000000000E+00 -0.00000000000E+00 -0.74505805969E-08  0.93827000000E+00  0.93827000000E+00 0.  1.
     999902    2    1    2    0    0 -0.17503810990E-01  0.12296418193E-01 -0.19688657240E-02  0.10224483396E+01  0.10222226497E+01 0.  0.
     999903    2    3    3    0    0 -0.53357265901E-01  0.10234203023E+00  0.66034462909E-01  0.13451921230E+00  0.20346479036E-01 0.  0.
         14    1    1    2    0    0  0.17503810990E-01 -0.12296418193E-01  0.19688657240E-02  0.21481660360E-01  0.00000000000E+00 0.  1.
     999901    1    3    3    0    0  0.35853454911E-01 -0.90045612039E-01 -0.68003328633E-01  0.88792912734E+00  0.88000000000E+00 0.  1.
        -11    1    4    4    0    0 -0.47102642506E-01  0.74777898420E-01  0.44292548776E-01  0.98855874996E-01  0.51100000000E-03 0.  1.
         11    1    4    4    0    0 -0.62546233957E-02  0.27564131812E-01  0.21741914133E-01  0.35663337302E-01  0.51100000000E-03 0. -1.
</event>
<event>
 8    1  0.1114447E+005  0.1043930E+01  0.7957747E-01            NaN
         13   -1    0    0    0    0  0.00000000000E+00  0.00000000000E+00  0.74505805969E-08  0.10566000000E+00  0.10566000000E+00 0.  1.
     999900   -1    0    0    0    0 -0.00000000000E+00 -0.00000000000E+00 -0.74505805969E-08  0.93827000000E+00  0.93827000000E+00 0.  1.
     999902    2    1    2    0    0  0.10201422594E-01  0.19193088250E-01 -0.53212210492E-02  0.10215523537E+01  0.10213072272E+01 0.  0.
     999903    2    3    3    0    0 -0.43071351926E-01  0.24146427228E-01  0.11954495894E+00  0.13112881013E+00  0.21577217960E-01 0.  0.
         14    1    1    2    0    0 -0.10201422594E-01 -0.19193088250E-01  0.53212210492E-02  0.22377646279E-01  0.00000000000E+00 0.  1.
     999901    1    3    3    0    0  0.53272774519E-01 -0.49533389778E-02 -0.12486617999E+00  0.89042354359E+00  0.88000000000E+00 0.  1.
        -11    1    4    4    0    0 -0.19781175305E-01  0.23253202693E-01  0.65251575675E-01  0.72041901564E-01  0.51100000000E-03 0.  1.
         11    1    4    4    0    0 -0.23290176620E-01  0.89322453473E-03  0.54293383263E-01  0.59086908569E-01  0.51100000000E-03 0. -1.
</event>
<event>
 8    1  0.1114447E+005  0.1043930E+01  0.7957747E-01            NaN
         13   -1    0    0    0    0  0.00000000000E+00  0.00000000000E+00  0.74505805969E-08  0.10566000000E+00  0.10566000000E+00 0.  1.
     999900   -1    0    0    0    0 -0.00000000000E+00 -0.00000000000E+00 -0.74505805969E-08  0.93827000000E+00  0.93827000000E+00 0.  1.
     999902    2    1    2    0    0 -0.24489191347E-01 -0.17472687267E-01 -0.20634701519E-02  0.10137758427E+01  0.10133272848E+01 0.  0.
     999903    2    3    3    0    0  0.30174512547E-01 -0.70744175046E-01  0.96002297011E-01  0.12504479980E+00  0.22461554160E-01 0.  0.
         14    1    1    2    0    0  0.24489191347E-01  0.17472687267E-01  0.20634701519E-02  0.30154157295E-01  0.00000000000E+00 0.  1.
     999901    1    3    3    0    0 -0.54663703893E-01  0.53271487779E-01 -0.98065767163E-01  0.88873104290E+00  0.88000000000E+00 0.  1.
        -11    1    4    4    0    0  0.14133381155E-01 -0.56538574582E-01  0.75570744179E-01  0.95433544288E-01  0.51100000000E-03 0.  1.
         11    1    4    4    0    0  0.16041131391E-01 -0.14205600464E-01  0.20431552832E-01  0.29611255512E-01  0.51100000000E-03 0. -1.
</event>
<event>
 8    1  0.1114447E+005  0.1043930E+01  0.7957747E-01            NaN
         13   -1    0    0    0    0  0.00000000000E+00  0.00000000000E+00  0.74505805969E-08  0.10566000000E+00  0.10566000000E+00 0. -1.
     999900   -1    0    0    0    0 -0.00000000000E+00 -0.00000000000E+00 -0.74505805969E-08  0.93827000000E+00  0.93827000000E+00 0.  1.
     999902    2    1    2    0    0  0.19932242783E-01  0.24607200745E-02  0.12413591235E-01  0.10203196910E+01  0.10200464818E+01 0.  0.
     999903    2    3    3    0    0 -0.37999811018E-01 -0.13283955032E-01 -0.12015717813E+00  0.12836732309E+00  0.20493244796E-01 0.  0.
         14    1    1    2    0    0 -0.19932242783E-01 -0.24607200745E-02 -0.12413591235E-01  0.23610309041E-01  0.00000000000E+00 0. -1.
     999901    1    3    3    0    0  0.57932053800E-01  0.15744675107E-01  0.13257076937E+00  0.89195236787E+00  0.88000000000E+00 0. -1.
        -11    1    4    4    0    0 -0.17037532566E-01 -0.57904446517E-02 -0.83970076220E-01  0.85878062313E-01  0.51100000000E-03 0.  1.
         11    1    4    4    0    0 -0.20962278452E-01 -0.74935103805E-02 -0.36187101913E-01  0.42489260780E-01  0.51100000000E-03 0. -1.
</event>
<event>
 8    1  0.1114447E+005  0.1043930E+01  0.7957747E-01            NaN
         13   -1    0    0    0    0  0.00000000000E+00  0.00000000000E+00  0.74505805969E-08  0.10566000000E+00  0.10566000000E+00 0. -1.
     999900   -1    0    0    0    0 -0.00000000000E+00 -0.00000000000E+00 -0.74505805969E-08  0.93827000000E+00  0.93827000000E+00 0.  1.
     999902    2    1    2    0    0  0.21060536297E-01  0.14511064354E-01  0.25481491024E-02  0.10182276608E+01  0.10179032169E+01 0.  0.
     999903    2    3    3    0    0 -0.91418007555E-01  0.63247643088E-01 -0.56019489370E-01  0.12780256836E+00  0.28944720198E-01 0.  0.
         14    1    1    2    0    0 -0.21060536297E-01 -0.14511064354E-01 -0.25481491024E-02  0.25702339225E-01  0.00000000000E+00 0.  1.
     999901    1    3    3    0    0  0.11247854385E+00 -0.48736578734E-01  0.58567638473E-01  0.89042509242E+00  0.88000000000E+00 0. -1.
        -11    1    4    4    0    0 -0.40347639070E-01  0.45138697383E-01 -0.26436800680E-01  0.66065115841E-01  0.51100000000E-03 0. -1.
         11    1    4    4    0    0 -0.51070368485E-01  0.18108945705E-01 -0.29582688690E-01  0.61737452514E-01  0.51100000000E-03 0.  1.
</event>
<event>
 8    1  0.1114447E+005  0.1043930E+01  0.7957747E-01            NaN
         13   -1    0    0    0    0  0.00000000000E+00  0.00000000000E+00  0.74505805969E-08  0.10566000000E+00  0.10566000000E+00 0.  1.
     999900   -1    0    0    0    0 -0.00000000000E+00 -0.00000000000E+00 -0.74505805969E-08  0.93827000000E+00  0.93827000000E+00 0.  1.
     999902    2    1    2    0    0  0.55202037657E-02 -0.22770567139E-01  0.34762001111E-02  0.10202433931E+01  0.10199683946E+01 0.  0.
     999903    2    3    3    0    0 -0.52070349771E-01  0.18730239008E-01  0.11611161904E+00  0.13022894024E+00  0.20384445579E-01 0.  0.
         14    1    1    2    0    0 -0.55202037657E-02  0.22770567139E-01 -0.34762001111E-02  0.23686606863E-01  0.00000000000E+00 0.  1.
     999901    1    3    3    0    0  0.57590553537E-01 -0.41500806147E-01 -0.11263541893E+00  0.89001445290E+00  0.88000000000E+00 0.  1.
        -11    1    4    4    0    0 -0.40398006533E-01  0.97539113960E-02  0.65999050922E-01  0.77995343213E-01  0.51100000000E-03 0. -1.
         11    1    4    4    0    0 -0.11672343239E-01  0.89763276121E-02  0.50112568118E-01  0.52233597027E-01  0.51100000000E-03 0.  1.
</event>
<event>
 8    1  0.1114447E+005  0.1043930E+01  0.7957747E-01            NaN
         13   -1    0    0    0    0  0.00000000000E+00  0.00000000000E+00  0.74505805969E-08  0.10566000000E+00  0.10566000000E+00 0. -1.
     999900   -1    0    0    0    0 -0.00000000000E+00 -0.00000000000E+00 -0.74505805969E-08  0.93827000000E+00  0.93827000000E+00 0.  1.
     999902    2    1    2    0    0  0.22188969294E-01 -0.53663055256E-02 -0.45287543647E-02  0.10206564698E+01  0.10203910878E+01 0.  0.
     999903    2    3    3    0    0 -0.26737747690E-01 -0.37921254533E-01  0.11978666327E+00  0.12997809269E+00  0.19812399753E-01 0.  0.
         14    1    1    2    0    0 -0.22188969294E-01  0.53663055256E-02  0.45287543647E-02  0.23273530231E-01  0.00000000000E+00 0. -1.
     999901    1    3    3    0    0  0.48926716983E-01  0.32554949008E-01 -0.12431541764E+00  0.89067837708E+00  0.88000000000E+00 0.  1.
        -11    1    4    4    0    0 -0.19849083765E-01 -0.25888298289E-01  0.10381768097E+00  0.10882353659E+00  0.51100000000E-03 0.  1.
         11    1    4    4    0    0 -0.68886639243E-02 -0.12032956244E-01  0.15968982306E-01  0.21154556094E-01  0.51100000000E-03 0. -1.
</event>
<event>
 8    1  0.1114447E+005  0.1043930E+01  0.7957747E-01            NaN
         13   -1    0    0    0    0  0.00000000000E+00  0.00000000000E+00  0.74505805969E-08  0.10566000000E+00  0.10566000000E+00 0.  1.
     999900   -1    0    0    0    0 -0.00000000000E+00 -0.00000000000E+00 -0.74505805969E-08  0.93827000000E+00  0.93827000000E+00 0. -1.
     999902    2    1    2    0    0  0.11796800825E-01  0.17230773954E-01  0.81574485883E-02  0.10215110783E+01  0.10212650367E+01 0.  0.
     999903    2    3    3    0    0  0.63919400901E-01 -0.20058545363E-01 -0.11112002580E+00  0.13115475941E+00  0.19127878257E-01 0.  0.
         14    1    1    2    0    0 -0.11796800825E-01 -0.17230773954E-01 -0.81574485883E-02  0.22418921656E-01  0.00000000000E+00 0. -1.
     999901    1    3    3    0    0 -0.52122600076E-01  0.37289319317E-01  0.11927747439E+00  0.89035631894E+00  0.88000000000E+00 0.  1.
        -11    1    4    4    0    0  0.52970262382E-01 -0.11806266540E-01 -0.98751149589E-01  0.11268224036E+00  0.51100000000E-03 0. -1.
         11    1    4    4    0    0  0.10949138519E-01 -0.82522788237E-02 -0.12368876215E-01  0.18472519047E-01  0.51100000000E-03 0.  1.
</event>
<event>
 8    1  0.1114447E+005  0.1043930E+01  0.7957747E-01            NaN
         13   -1    0    0    0    0  0.00000000000E+00  0.00000000000E+00  0.74505805969E-08  0.10566000000E+00  0.10566000000E+00 0.  1.
     999900   -1    0    0    0    0 -0.00000000000E+00 -0.00000000000E+00 -0.74505805969E-08  0.93827000000E+00  0.93827000000E+00 0.  1.
     999902    2    1    2    0    0 -0.20174478857E-01 -0.63640585074E-02  0.92551555885E-02  0.10208395530E+01  0.10205783773E+01 0.  0.
     999903    2    3    3    0    0  0.90762972621E-01  0.24621065170E-01  0.87456874822E-01  0.12989471468E+00  0.19488917348E-01 0.  0.
         14    1    1    2    0    0  0.20174478857E-01  0.63640585074E-02 -0.92551555885E-02  0.23090447003E-01  0.00000000000E+00 0. -1.
     999901    1    3    3    0    0 -0.11093745148E+00 -0.30985123677E-01 -0.78201719234E-01  0.89094483832E+00  0.88000000000E+00 0.  1.
        -11    1    4    4    0    0  0.57547031086E-01  0.66331152007E-02  0.47583628257E-01  0.74967471633E-01  0.51100000000E-03 0.  1.
         11    1    4    4    0    0  0.33215941535E-01  0.17987949969E-01  0.39873246566E-01  0.54927243048E-01  0.51100000000E-03 0. -1.
</event>
<event>
 8    1  0.1114447E+005  0.1043930E+01  0.7957747E-01            NaN
         13   -1    0    0    0    0  0.00000000000E+00  0.00000000000E+00  0.74505805969E-08  0.10566000000E+00  0.10566000000E+00 0.  1.
     999900   -1    0    0    0    0 -0.00000000000E+00 -0.00000000000E+00 -0.74505805969E-08  0.93827000000E+00  0.93827000000E+00 0. -1.
     999902    2    1    2    0    0  0.19132683709E-01  0.10274146248E-01  0.27728172940E-01  0.10087097041E+01  0.10080946374E+01 0.  0.
     999903    2    3    3    0    0  0.40642598809E-01 -0.57041333043E-01  0.99216766876E-01  0.12298702221E+00  0.19398615634E-01 0.  0.
         14    1    1    2    0    0 -0.19132683709E-01 -0.10274146248E-01 -0.27728172940E-01  0.35220295877E-01  0.00000000000E+00 0. -1.
     999901    1    3    3    0    0 -0.21509915099E-01  0.67315479291E-01 -0.71488593936E-01  0.88572268192E+00  0.88000000000E+00 0. -1.
        -11    1    4    4    0    0  0.34261022067E-02 -0.37069204841E-02  0.19271413521E-01  0.19928069047E-01  0.51100000000E-03 0. -1.
         11    1    4    4    0    0  0.37216496602E-01 -0.53334412559E-01  0.79945353354E-01  0.10305895316E+00  0.51100000000E-03 0.  1.
</event>
<event>
 8    1  0.1114447E+005  0.1043930E+01  0.7957747E-01            NaN
         13   -1    0    0    0    0  0.00000000000E+00  0.00000000000E+00  0.74505805969E-08  0.10566000000E+00  0.10566000000E+00 0.  1.
     999900   -1    0    0    0    0 -0.00000000000E+00 -0.00000000000E+00 -0.74505805969E-08  0.93827000000E+00  0.93827000000E+00 0. -1.
     999902    2    1    2    0    0 -0.15623433630E-01  0.69059905480E-02 -0.17620035594E-01  0.10193892168E+01  0.10190937765E+01 0.  0.
     999903    2    3    3    0    0 -0.24159427320E-01  0.11849853185E+00 -0.48127431888E-01  0.13177642981E+00  0.20571771313E-01 0.  0.
         14    1    1    2    0    0  0.15623433630E-01 -0.69059905480E-02  0.17620035594E-01  0.24540783161E-01  0.00000000000E+00 0.  1.
     999901    1    3    3    0    0  0.85359936897E-02 -0.11159254130E+00  0.30507396294E-01  0.88761278703E+00  0.88000000000E+00 0.  1.
        -11    1    4    4    0    0 -0.82335340711E-02  0.31074959878E-01 -0.35151524479E-02  0.32342876069E-01  0.51100000000E-03 0.  1.
         11    1    4    4    0    0 -0.15925893249E-01  0.87423571973E-01 -0.44612279440E-01  0.99433553744E-01  0.51100000000E-03 0. -1.
</event>
<event>
 8    1  0.1114447E+005  0.1043930E+01  0.7957747E-01            NaN
         13   -1    0    0    0    0  0.00000000000E+00  0.00000000000E+00  0.74505805969E-08  0.10566000000E+00  0.10566000000E+00 0. -1.
     999900   -1    0    0    0    0 -0.00000000000E+00 -0.00000000000E+00 -0.74505805969E-08  0.93827000000E+00  0.93827000000E+00 0. -1.
     999902    2    1    2    0    0  0.10883410182E-01  0.25927246181E-02 -0.20860004138E-01  0.10202591189E+01  0.10199844897E+01 0.  0.
     999903    2    3    3    0    0 -0.12576538578E-01  0.11677369008E+00 -0.56462486150E-01  0.13185875941E+00  0.20111093305E-01 0.  0.
         14    1    1    2    0    0 -0.10883410182E-01 -0.25927246181E-02  0.20860004138E-01  0.23670881073E-01  0.00000000000E+00 0. -1.
     999901    1    3    3    0    0  0.23459948760E-01 -0.11418096546E+00  0.35602482012E-01  0.88840035952E+00  0.88000000000E+00 0. -1.
        -11    1    4    4    0    0 -0.57055700673E-02  0.57938523403E-01 -0.16896959524E-01  0.60623381513E-01  0.51100000000E-03 0. -1.
         11    1    4    4    0    0 -0.68709685103E-02  0.58835166672E-01 -0.39565526626E-01  0.71235377895E-01  0.51100000000E-03 0.  1.
</event>
<event>
 8    1  0.1114447E+005  0.1043930E+01  0.7957747E-01            NaN
         13   -1    0    0    0    0  0.00000000000E+00  0.00000000000E+00  0.74505805969E-08  0.10566000000E+00  0.10566000000E+00 0.  1.
     999900   -1    0    0    0    0 -0.00000000000E+00 -0.00000000000E+00 -0.74505805969E-08  0.93827000000E+00  0.93827000000E+00 0. -1.
     999902    2    1    2    0    0 -0.43122383027E-02 -0.10232236714E-01 -0.21274529445E-01  0.10199320903E+01  0.10196497286E+01 0.  0.
     999903    2    3    3    0    0 -0.21592749832E-01 -0.12832585147E+00 -0.71555117427E-02  0.13176315108E+00  0.19405041424E-01 0.  0.
         14    1    1    2    0    0  0.43122383027E-02  0.10232236714E-01  0.21274529445E-01  0.23997909710E-01  0.00000000000E+00 0.  1.
     999901    1    3    3    0    0  0.17280511530E-01  0.11809361475E+00 -0.14119017702E-01  0.88816893921E+00  0.88000000000E+00 0.  1.
        -11    1    4    4    0    0 -0.27207347668E-03 -0.50717476966E-01 -0.75315859432E-02  0.51276918800E-01  0.51100000000E-03 0. -1.
         11    1    4    4    0    0 -0.21320676356E-01 -0.77608374502E-01  0.37607420049E-03  0.80486232276E-01  0.51100000000E-03 0.  1.
</event>
<event>
 8    1  0.1114447E+005  0.1043930E+01  0.7957747E-01            NaN
         13   -1    0    0    0    0  0.00000000000E+00  0.00000000000E+00  0.74505805969E-08  0.10566000000E+00  0.10566000000E+00 0. -1.
     999900   -1    0    0    0    0 -0.00000000000E+00 -0.00000000000E+00 -0.74505805969E-08  0.93827000000E+00  0.93827000000E+00 0. -1.
     999902    2    1    2    0    0  0.84735079913E-02 -0.62148614768E-02  0.21968839287E-01  0.10195772847E+01  0.10192864096E+01 0.  0.
     999903    2    3    3    0    0  0.69689569837E-01  0.86200847055E-01 -0.62049576342E-01  0.12865239252E+00  0.20348611756E-01 0.  0.
         14    1    1    2    0    0 -0.84735079913E-02  0.62148614768E-02 -0.21968839287E-01  0.24352715259E-01  0.00000000000E+00 0.  1.
     999901    1    3    3    0    0 -0.61216061845E-01 -0.92415708532E-01  0.84018415629E-01  0.89092489222E+00  0.88000000000E+00 0.  1.
        -11    1    4    4    0    0  0.44381319455E-01  0.56512845750E-01 -0.50953660210E-01  0.88090520836E-01  0.51100000000E-03 0. -1.
         11    1    4    4    0    0  0.25308250382E-01  0.29688001305E-01 -0.11095916132E-01  0.40561871686E-01  0.51100000000E-03 0.  1.
</event>
<event>
 8    1  0.1114447E+005  0.1043930E+01  0.7957747E-01            NaN
         13   -1    0    0    0    0  0.00000000000E+00  0.00000000000E+00  0.74505805969E-08  0.10566000000E+00  0.10566000000E+00 0. -1.
     999900   -1    0    0    0    0 -0.00000000000E+00 -0.00000000000E+00 -0.74505805969E-08  0.93827000000E+00  0.93827000000E+00 0.  1.
     999902    2    1    2    0    0  0.29333108489E-02  0.21783562086E-02  0.23394702020E-01  0.10202517055E+01  0.10199769022E+01 0.  0.
     999903    2    3    3    0    0  0.55432828609E-01  0.17348929401E-01  0.11852877818E+00  0.13343896421E+00  0.19572993459E-01 0.  0.
         14    1    1    2    0    0 -0.29333108489E-02 -0.21783562086E-02 -0.23394702020E-01  0.23678294511E-01  0.00000000000E+00 0.  1.
     999901    1    3    3    0    0 -0.52499517760E-01 -0.15170573193E-01 -0.95134076158E-01  0.88681274128E+00  0.88000000000E+00 0.  1.
        -11    1    4    4    0    0  0.27608361451E-01 -0.10046609910E-02  0.46938683506E-01  0.54467716089E-01  0.51100000000E-03 0.  1.
         11    1    4    4    0    0  0.27824467158E-01  0.18353590392E-01  0.71590094673E-01  0.78971248117E-01  0.51100000000E-03 0. -1.
</event>
<event>
 8    1  0.1114447E+005  0.1043930E+01  0.7957747E-01            NaN
         13   -1    0    0    0    0  0.00000000000E+00  0.00000000000E+00  0.74505805969E-08  0.10566000000E+00  0.10566000000E+00 0.  1.
     999900   -1    0    0    0    0 -0.00000000000E+00 -0.00000000000E+00 -0.74505805969E-08  0.93827000000E+00  0.93827000000E+00 0.  1.
     999902    2    1    2    0    0  0.13209094914E-01  0.12960597660E-02 -0.19868818699E-01  0.10200358602E+01  0.10197559641E+01 0.  0.
     999903    2    3    3    0    0 -0.26271887434E-01  0.39477154038E-01 -0.12202966294E+00  0.13242480687E+00  0.19910627284E-01 0.  0.
         14    1    1    2    0    0 -0.13209094914E-01 -0.12960597660E-02  0.19868818699E-01  0.23894139781E-01  0.00000000000E+00 0.  1.
     999901    1    3    3    0    0  0.39480982348E-01 -0.38181094272E-01  0.10216084424E+00  0.88761105335E+00  0.88000000000E+00 0. -1.
        -11    1    4    4    0    0 -0.18940029081E-01  0.13491579905E-01 -0.42690981302E-01  0.48616133489E-01  0.51100000000E-03 0. -1.
         11    1    4    4    0    0 -0.73318583528E-02  0.25985574133E-01 -0.79338681634E-01  0.83808673384E-01  0.51100000000E-03 0.  1.
</event>
<event>
 8    1  0.1114447E+005  0.1043930E+01  0.7957747E-01            NaN
         13   -1    0    0    0    0  0.00000000000E+00  0.00000000000E+00  0.74505805969E-08  0.10566000000E+00  0.10566000000E+00 0. -1.
     999900   -1    0    0    0    0 -0.00000000000E+00 -0.00000000000E+00 -0.74505805969E-08  0.93827000000E+00  0.93827000000E+00 0.  1.
     999902    2    1    2    0    0 -0.54119293688E-02  0.11309993147E-01  0.20366662919E-01  0.10200133555E+01  0.10197329256E+01 0.  0.
     999903    2    3    3    0    0 -0.79443586745E-01  0.10249860587E+00  0.15781330256E-01  0.13219745419E+00  0.20245217445E-01 0.  0.
         14    1    1    2    0    0  0.54119293688E-02 -0.11309993147E-01 -0.20366662919E-01  0.23916644475E-01  0.00000000000E+00 0.  1.
     999901    1    3    3    0    0  0.74031657377E-01 -0.91188612725E-01  0.45853326629E-02  0.88781590133E+00  0.88000000000E+00 0. -1.
        -11    1    4    4    0    0 -0.30177485276E-01  0.50155363108E-01  0.14487108407E-01  0.60302392134E-01  0.51100000000E-03 0.  1.
         11    1    4    4    0    0 -0.49266101470E-01  0.52343242764E-01  0.12942218489E-02  0.71895062058E-01  0.51100000000E-03 0. -1.
</event>
<event>
 8    1  0.1114447E+005  0.1043930E+01  0.7957747E-01            NaN
         13   -1    0    0    0    0  0.00000000000E+00  0.00000000000E+00  0.74505805969E-08  0.10566000000E+00  0.10566000000E+00 0. -1.
     999900   -1    0    0    0    0 -0.00000000000E+00 -0.00000000000E+00 -0.74505805969E-08  0.93827000000E+00  0.93827000000E+00 0. -1.
     999902    2    1    2    0    0 -0.17036211683E-01 -0.10128549311E-01 -0.11182154329E-01  0.10211734494E+01  0.10209198564E+01 0.  0.
     999903    2    3    3    0    0  0.10347827515E+00  0.18483949950E-01  0.71401939190E-01  0.12866992047E+00  0.20206476208E-01 0.  0.
         14    1    1    2    0    0  0.17036211683E-01  0.10128549311E-01  0.11182154329E-01  0.22756550598E-01  0.00000000000E+00 0.  1.
     999901    1    3    3    0    0 -0.12051448683E+00 -0.28612499260E-01 -0.82584093519E-01  0.89250352893E+00  0.88000000000E+00 0.  1.
        -11    1    4    4    0    0  0.30470292112E-01  0.11144941975E-01  0.13275637288E-01  0.35059265529E-01  0.51100000000E-03 0.  1.
         11    1    4    4    0    0  0.73007983037E-01  0.73390079742E-02  0.58126301902E-01  0.93610654943E-01  0.51100000000E-03 0. -1.
</event>
<event>
 8    1  0.1114447E+005  0.1043930E+01  0.7957747E-01            NaN
         13   -1    0    0    0    0  0.00000000000E+00  0.00000000000E+00  0.74505805969E-08  0.10566000000E+00  0.10566000000E+00 0. -1.
     999900   -1    0    0    0    0 -0.00000000000E+00 -0.00000000000E+00 -0.74505805969E-08  0.93827000000E+00  0.93827000000E+00 0. -1.
     999902    2    1    2    0    0 -0.16190960236E-01  0.28177634486E-02  0.18331631257E-01  0.10193101769E+01  0.10190128071E+01 0.  0.
     999903    2    3    3    0    0 -0.65353933238E-01  0.48463464803E-01 -0.98147368305E-01  0.12910352377E+00  0.20370810831E-01 0.  0.
         14    1    1    2    0    0  0.16190960236E-01 -0.28177634486E-02 -0.18331631257E-01  0.24619823085E-01  0.00000000000E+00 0.  1.
     999901    1    3    3    0    0  0.49162973001E-01 -0.45645701354E-01  0.11647899956E+00  0.89020665315E+00  0.88000000000E+00 0.  1.
        -11    1    4    4    0    0 -0.21957822450E-01  0.21061809117E-01 -0.23197281752E-01  0.38263831117E-01  0.51100000000E-03 0.  1.
         11    1    4    4    0    0 -0.43396110787E-01  0.27401655686E-01 -0.74950086553E-01  0.90839692652E-01  0.51100000000E-03 0. -1.
</event>
<event>
 8    1  0.1114447E+005  0.1043930E+01  0.7957747E-01            NaN
         13   -1    0    0    0    0  0.00000000000E+00  0.00000000000E+00  0.74505805969E-08  0.10566000000E+00  0.10566000000E+00 0. -1.
     999900   -1    0    0    0    0 -0.00000000000E+00 -0.00000000000E+00 -0.74505805969E-08  0.93827000000E+00  0.93827000000E+00 0. -1.
     999902    2    1    2    0    0  0.16646958137E-01 -0.80243790061E-02  0.11762389223E-01  0.10220241635E+01  0.10217893741E+01 0.  0.
     999903    2    3    3    0    0  0.44307193977E-01 -0.75299741989E-01  0.10043220476E+00  0.13458210942E+00  0.19812567773E-01 0.  0.
         14    1    1    2    0    0 -0.16646958137E-01  0.80243790061E-02 -0.11762389223E-01  0.21905836526E-01  0.00000000000E+00 0. -1.
     999901    1    3    3    0    0 -0.27660235840E-01  0.67275362983E-01 -0.88669815538E-01  0.88744205405E+00  0.88000000000E+00 0. -1.
        -11    1    4    4    0    0  0.25239878004E-01 -0.36190965950E-01  0.36596115155E-01  0.57326906627E-01  0.51100000000E-03 0.  1.
         11    1    4    4    0    0  0.19067315972E-01 -0.39108776039E-01  0.63836089607E-01  0.77255202796E-01  0.51100000000E-03 0. -1.
</event>
<event>
 8    1  0.1114447E+005  0.1043930E+01  0.7957747E-01            NaN
         13   -1    0    0    0    0  0.00000000000E+00  0.00000000000E+00  0.74505805969E-08  0.10566000000E+00  0.10566000000E+00 0. -1.
     999900   -1    0    0    0    0 -0.00000000000E+00 -0.00000000000E+00 -0.74505805969E-08  0.93827000000E+00  0.93827000000E+00 0. -1.
     999902    2    1    2    0    0  0.15305989056E-01  0.21597500275E-01 -0.11369729830E-01  0.10151203475E+01  0.10147114486E+01 0.  0.
     999903    2    3    3    0    0  0.32435901661E-01 -0.11655611340E+00  0.16811292337E-01  0.12373152951E+00  0.19734653710E-01 0.  0.
         14    1    1    2    0    0 -0.15305989056E-01 -0.21597500275E-01  0.11369729830E-01  0.28809652471E-01  0.00000000000E+00 0. -1.
     999901    1    3    3    0    0 -0.17129912606E-01  0.13815361368E+00 -0.28181022167E-01  0.89138881802E+00  0.88000000000E+00 0.  1.
        -11    1    4    4    0    0  0.21279069499E-01 -0.42691352352E-01  0.97933529773E-02  0.48698267402E-01  0.51100000000E-03 0. -1.
         11    1    4    4    0    0  0.11156832162E-01 -0.73864761049E-01  0.70179393597E-02  0.75033262108E-01  0.51100000000E-03 0.  1.
</event>
<event>
 8    1  0.1114447E+005  0.1043930E+01  0.7957747E-01            NaN
         13   -1    0    0    0    0  0.00000000000E+00  0.00000000000E+00  0.74505805969E-08  0.10566000000E+00  0.10566000000E+00 0. -1.
     999900   -1    0    0    0    0 -0.00000000000E+00 -0.00000000000E+00 -0.74505805969E-08  0.93827000000E+00  0.93827000000E+00 0.  1.
     999902    2    1    2    0    0 -0.13069646725E-01  0.23851108468E-02 -0.18836117751E-01  0.10208799729E+01  0.10206197212E+01 0.  0.
     999903    2    3    3    0    0  0.26134800930E-01  0.73175470408E-01 -0.10593291078E+00  0.13288553871E+00  0.19977675613E-01 0.  0.
         14    1    1    2    0    0  0.13069646725E-01 -0.23851108468E-02  0.18836117751E-01  0.23050027141E-01  0.00000000000E+00 0. -1.
     999901    1    3    3    0    0 -0.39204447655E-01 -0.70790359561E-01  0.87096793030E-01  0.88799443415E+00  0.88000000000E+00 0. -1.
        -11    1    4    4    0    0  0.29009547238E-02  0.32501444832E-01 -0.52593028683E-01  0.61895454126E-01  0.51100000000E-03 0. -1.
         11    1    4    4    0    0  0.23233846206E-01  0.40674025576E-01 -0.53339882098E-01  0.70990084584E-01  0.51100000000E-03 0.  1.
</event>
<event>
 8    1  0.1114447E+005  0.1043930E+01  0.7957747E-01            NaN
         13   -1    0    0    0    0  0.00000000000E+00  0.00000000000E+00  0.74505805969E-08  0.10566000000E+00  0.10566000000E+00 0.  1.
     999900   -1    0    0    0    0 -0.00000000000E+00 -0.00000000000E+00 -0.74505805969E-08  0.93827000000E+00  0.93827000000E+00 0. -1.
     999902    2    1    2    0    0  0.44750309322E-02  0.22515311851E-01 -0.12260426450E-02  0.10209415605E+01  0.10206827135E+01 0.  0.
     999903    2    3    3    0    0 -0.40071990991E-01  0.11871373195E+00 -0.41853338979E-01  0.13364840129E+00  0.20284934534E-01 0.  0.
         14    1    1    2    0    0 -0.44750309322E-02 -0.22515311851E-01  0.12260426450E-02  0.22988439489E-01  0.00000000000E+00 0.  1.
     999901    1    3    3    0    0  0.44547021924E-01 -0.96198420096E-01  0.40627296334E-01  0.88729315922E+00  0.88000000000E+00 0.  1.
        -11    1    4    4    0    0 -0.20698162846E-01  0.76448493164E-01 -0.35221330639E-01  0.86680962761E-01  0.51100000000E-03 0.  1.
         11    1    4    4    0    0 -0.19373828145E-01  0.42265238783E-01 -0.66320083405E-02  0.46967438529E-01  0.51100000000E-03 0. -1.
</event>
<event>
 8    1  0.1114447E+005  0.1043930E+01  0.7957747E-01            NaN
         13   -1    0    0    0    0  0.00000000000E+00  0.00000000000E+00  0.74505805969E-08  0.10566000000E+00  0.10566000000E+00 0. -1.
     999900   -1    0    0    0    0 -0.00000000000E+00 -0.00000000000E+00 -0.74505805969E-08  0.93827000000E+00  0.93827000000E+00 0.  1.
     999902    2    1    2    0    0 -0.17817526803E-01  0.11284687951E-01  0.11167117425E-01  0.10200655294E+01  0.10197863361E+01 0.  0.
     999903    2    3    3    0    0 -0.18674092790E-01  0.12633599154E+00  0.29339489748E-01  0.13239004184E+00  0.18889494964E-01 0.  0.
         14    1    1    2    0    0  0.17817526803E-01 -0.11284687951E-01 -0.11167117425E-01  0.23864470560E-01  0.00000000000E+00 0.  1.
     999901    1    3    3    0    0  0.85656598626E-03 -0.11505130359E+00 -0.18172372322E-01  0.88767548760E+00  0.88000000000E+00 0.  1.
        -11    1    4    4    0    0 -0.12952487403E-01  0.56970161579E-01  0.21877492214E-01  0.62387915711E-01  0.51100000000E-03 0. -1.
         11    1    4    4    0    0 -0.57216053861E-02  0.69365829964E-01  0.74619975340E-02  0.70002126132E-01  0.51100000000E-03 0.  1.
</event>
<event>
 8    1  0.1114447E+005  0.1043930E+01  0.7957747E-01            NaN
         13   -1    0    0    0    0  0.00000000000E+00  0.00000000000E+00  0.74505805969E-08  0.10566000000E+00  0.10566000000E+00 0.  1.
     999900   -1    0    0    0    0 -0.00000000000E+00 -0.00000000000E+00 -0.74505805969E-08  0.93827000000E+00  0.93827000000E+00 0. -1.
     999902    2    1    2    0    0 -0.18844162015E-01 -0.13822841224E-01 -0.45995402944E-02  0.10201113277E+01  0.10198332176E+01 0.  0.
     999903    2    3    3    0    0 -0.15164836776E-01 -0.11003163005E+00 -0.69336044348E-01  0.13249627402E+00  0.20269279653E-01 0.  0.
         14    1    1    2    0    0  0.18844162015E-01  0.13822841224E-01  0.45995402944E-02  0.23818672349E-01  0.00000000000E+00 0. -1.
     999901    1    3    3    0    0 -0.36793252385E-02  0.96208788822E-01  0.64736504053E-01  0.88761505363E+00  0.88000000000E+00 0. -1.
        -11    1    4    4    0    0 -0.10037294221E-01 -0.89833686743E-01 -0.46773237249E-01  0.10177836407E+00  0.51100000000E-03 0.  1.
         11    1    4    4    0    0 -0.51275425550E-02 -0.20197943303E-01 -0.22562807099E-01  0.30717909947E-01  0.51100000000E-03 0. -1.
</event>
<event>
 8    1  0.1114447E+005  0.1043930E+01  0.7957747E-01            NaN
         13   -1    0    0    0    0  0.00000000000E+00  0.00000000000E+00  0.74505805969E-08  0.10566000000E+00  0.10566000000E+00 0.  1.
     999900   -1    0    0    0    0 -0.00000000000E+00 -0.00000000000E+00 -0.74505805969E-08  0.93827000000E+00  0.93827000000E+00 0.  1.
     999902    2    1    2    0    0  0.93857890719E-03  0.71794801704E-02 -0.15091859694E-01  0.10271911203E+01  0.10270547247E+01 0.  0.
     999903    2    3    3    0    0  0.56985207139E-01  0.94226141347E-01 -0.81957835264E-01  0.13860268659E+00  0.19176507091E-01 0.  0.
         14    1    1    2    0    0 -0.93857890719E-03 -0.71794801704E-02  0.15091859694E-01  0.16738879739E-01  0.00000000000E+00 0.  1.
     999901    1    3    3    0    0 -0.56046628232E-01 -0.87046661176E-01  0.66865975570E-01  0.88858843367E+00  0.88000000000E+00 0. -1.
        -11    1    4    4    0    0  0.13752699288E-01  0.14590989780E-01 -0.78352621269E-02  0.21533373495E-01  0.51100000000E-03 0.  1.
         11    1    4    4    0    0  0.43232507851E-01  0.79635151566E-01 -0.74122573137E-01  0.11706931310E+00  0.51100000000E-03 0. -1.
</event>
<event>
 8    1  0.1148866E+005  0.1043930E+01  0.7957747E-01            NaN
         13   -1    0    0    0    0  0.00000000000E+00  0.00000000000E+00  0.74505805969E-08  0.10566000000E+00  0.10566000000E+00 0. -1.
     999900   -1    0    0    0    0 -0.00000000000E+00 -0.00000000000E+00 -0.74505805969E-08  0.93827000000E+00  0.93827000000E+00 0. -1.
     999902    2    1    2    0    0  0.44523754735E-02  0.14399199082E-01 -0.18345695198E-01  0.10201871039E+01  0.10199107813E+01 0.  0.
     999903    2    3    3    0    0  0.85558714492E-02 -0.94398295431E-01  0.83122238550E-01  0.12769089941E+00  0.20283444858E-01 0.  0.
         14    1    1    2    0    0 -0.44523754735E-02 -0.14399199082E-01  0.18345695198E-01  0.23742896072E-01  0.00000000000E+00 0. -1.
     999901    1    3    3    0    0 -0.41034959757E-02  0.10879749451E+00 -0.10146793375E+00  0.89249620451E+00  0.88000000000E+00 0. -1.
        -11    1    4    4    0    0  0.13525283489E-01 -0.42762303665E-01  0.34457770916E-01  0.56561002517E-01  0.51100000000E-03 0.  1.
         11    1    4    4    0    0 -0.49694120394E-02 -0.51635991766E-01  0.48664467634E-01  0.71129896898E-01  0.51100000000E-03 0. -1.
</event>
<event>
 8    1  0.1114447E+005  0.1043930E+01  0.7957747E-01            NaN
         13   -1    0    0    0    0  0.00000000000E+00  0.00000000000E+00  0.74505805969E-08  0.10566000000E+00  0.10566000000E+00 0. -1.
     999900   -1    0    0    0    0 -0.00000000000E+00 -0.00000000000E+00 -0.74505805969E-08  0.93827000000E+00  0.93827000000E+00 0.  1.
     999902    2    1    2    0    0  0.11072712685E-01 -0.21945178305E-01  0.40500578967E-02  0.10190181798E+01  0.10187136261E+01 0.  0.
     999903    2    3    3    0    0 -0.31716164607E-01 -0.12343467400E+00 -0.26054542216E-01  0.13164154459E+00  0.20214431683E-01 0.  0.
         14    1    1    2    0    0 -0.11072712685E-01  0.21945178305E-01 -0.40500578967E-02  0.24911820206E-01  0.00000000000E+00 0.  1.
     999901    1    3    3    0    0  0.42788877292E-01  0.10148949570E+00  0.30104600113E-01  0.88737663520E+00  0.88000000000E+00 0. -1.
        -11    1    4    4    0    0 -0.77481165049E-02 -0.12534681120E-01 -0.79279179269E-02  0.16741103423E-01  0.51100000000E-03 0.  1.
         11    1    4    4    0    0 -0.23968048102E-01 -0.11089999288E+00 -0.18126624289E-01  0.11490044117E+00  0.51100000000E-03 0. -1.
</event>
<event>
 8    1  0.1227994E+005  0.1043930E+01  0.7957747E-01            NaN
         13   -1    0    0    0    0  0.00000000000E+00  0.00000000000E+00  0.74505805969E-08  0.10566000000E+00  0.10566000000E+00 0.  1.
     999900   -1    0    0    0    0 -0.00000000000E+00 -0.00000000000E+00 -0.74505805969E-08  0.93827000000E+00  0.93827000000E+00 0. -1.
     999902    2    1    2    0    0 -0.15315290456E-01  0.18379181484E-01 -0.17597122205E-02  0.10199414815E+01  0.10196593434E+01 0.  0.
     999903    2    3    3    0    0  0.29408070875E-01  0.12593165476E+00  0.17587271608E-01  0.13205521661E+00  0.20140799572E-01 0.  0.
         14    1    1    2    0    0  0.15315290456E-01 -0.18379181484E-01  0.17597122205E-02  0.23988518522E-01  0.00000000000E+00 0. -1.
     999901    1    3    3    0    0 -0.44723361330E-01 -0.10755247328E+00 -0.19346983829E-01  0.88788626487E+00  0.88000000000E+00 0. -1.
        -11    1    4    4    0    0  0.27030125661E-01  0.77725820604E-01  0.15518477791E-01  0.83743746965E-01  0.51100000000E-03 0. -1.
         11    1    4    4    0    0  0.23779452136E-02  0.48205834159E-01  0.20687938175E-02  0.48311469645E-01  0.51100000000E-03 0.  1.
</event>
<event>
 8    1  0.1114447E+005  0.1043930E+01  0.7957747E-01            NaN
         13   -1    0    0    0    0  0.00000000000E+00  0.00000000000E+00  0.74505805969E-08  0.10566000000E+00  0.10566000000E+00 0. -1.
     999900   -1    0    0    0    0 -0.00000000000E+00 -0.00000000000E+00 -0.74505805969E-08  0.93827000000E+00  0.93827000000E+00 0. -1.
     999902    2    1    2    0    0  0.18497651578E-01 -0.12836790093E-01  0.70832362890E-02  0.10203266416E+01  0.10200535951E+01 0.  0.
     999903    2    3    3    0    0  0.69142586629E-01 -0.72521927209E-02  0.11130414606E+00  0.13271293322E+00  0.19769120585E-01 0.  0.
         14    1    1    2    0    0 -0.18497651578E-01  0.12836790093E-01 -0.70832362890E-02  0.23603358450E-01  0.00000000000E+00 0.  1.
     999901    1    3    3    0    0 -0.50644935051E-01 -0.55845973716E-02 -0.10422090978E+00  0.88761370833E+00  0.88000000000E+00 0. -1.
        -11    1    4    4    0    0  0.18769710997E-01 -0.78704066824E-02  0.20638626413E-01  0.28990677355E-01  0.51100000000E-03 0.  1.
         11    1    4    4    0    0  0.50372875632E-01  0.61821396147E-03  0.90665519652E-01  0.10372225587E+00  0.51100000000E-03 0. -1.
</event>
<event>
 8    1  0.1114447E+005  0.1043930E+01  0.7957747E-01            NaN
         13   -1    0    0    0    0  0.00000000000E+00  0.00000000000E+00  0.74505805969E-08  0.10566000000E+00  0.10566000000E+00 0.  1.
     999900   -1    0    0    0    0 -0.00000000000E+00 -0.00000000000E+00 -0.74505805969E-08  0.93827000000E+00  0.93827000000E+00 0.  1.
     999902    2    1    2    0    0  0.85251938851E-02 -0.21974773444E-01 -0.41446336282E-02  0.10199978545E+01  0.10197170567E+01 0.  0.
     999903    2    3    3    0    0 -0.11689830651E+00  0.39846227402E-01  0.28296178081E-01  0.12836715920E+00  0.20603833733E-01 0.  0.
         14    1    1    2    0    0 -0.85251938851E-02  0.21974773444E-01  0.41446336282E-02  0.23932145466E-01  0.00000000000E+00 0. -1.
     999901    1    3    3    0    0  0.12542350039E+00 -0.61821000846E-01 -0.32440811709E-01  0.89163069533E+00  0.88000000000E+00 0.  1.
        -11    1    4    4    0    0 -0.35723900574E-01  0.22432408883E-01  0.97343761970E-02  0.43294679135E-01  0.51100000000E-03 0. -1.
         11    1    4    4    0    0 -0.81174405935E-01  0.17413818520E-01  0.18561801884E-01  0.85072480065E-01  0.51100000000E-03 0.  1.
</event>
<event>
 8    1  0.1114447E+005  0.1043930E+01  0.7957747E-01            NaN
         13   -1    0    0    0    0  0.00000000000E+00  0.00000000000E+00  0.74505805969E-08  0.10566000000E+00  0.10566000000E+00 0.  1.
     999900   -1    0    0    0    0 -0.00000000000E+00 -0.00000000000E+00 -0.74505805969E-08  0.93827000000E+00  0.93827000000E+00 0. -1.
     999902    2    1    2    0    0 -0.10534831031E-01 -0.22383290823E-01 -0.12360225188E-01  0.10162755331E+01  0.10158992025E+01 0.  0.
     999903    2    3    3    0    0  0.15026032344E-01 -0.76778326847E-01 -0.10156018348E+00  0.12972671310E+00  0.19845808191E-01 0.  0.
         14    1    1    2    0    0  0.10534831031E-01  0.22383290823E-01  0.12360225188E-01  0.27654466902E-01  0.00000000000E+00 0.  1.
     999901    1    3    3    0    0 -0.25560863375E-01  0.54395036024E-01  0.89199958288E-01  0.88654882000E+00  0.88000000000E+00 0.  1.
        -11    1    4    4    0    0  0.13702093125E-01 -0.56321409563E-01 -0.87136374603E-01  0.10465590013E+00  0.51100000000E-03 0. -1.
         11    1    4    4    0    0  0.13239392187E-02 -0.20456917284E-01 -0.14423808873E-01  0.25070812975E-01  0.51100000000E-03 0.  1.
</event>
<event>
 8    1  0.1114447E+005  0.1043930E+01  0.7957747E-01            NaN
         13   -1    0    0    0    0  0.00000000000E+00  0.00000000000E+00  0.74505805969E-08  0.10566000000E+00  0.10566000000E+00 0. -1.
     999900   -1    0    0    0    0 -0.00000000000E+00 -0.00000000000E+00 -0.74505805969E-08  0.93827000000E+00  0.93827000000E+00 0. -1.
     999902    2    1    2    0    0  0.45365735270E-02  0.20884726104E-01 -0.63470336260E-02  0.10216356707E+01  0.10213923862E+01 0.  0.
     999903    2    3    3    0    0 -0.62422481046E-01 -0.10103099594E+00 -0.48307713201E-01  0.12972331125E+00  0.19765476146E-01 0.  0.
         14    1    1    2    0    0 -0.45365735270E-02 -0.20884726104E-01  0.63470336260E-02  0.22294329317E-01  0.00000000000E+00 0.  1.
     999901    1    3    3    0    0  0.66959054573E-01  0.12191572205E+00  0.41960679575E-01  0.89191235943E+00  0.88000000000E+00 0.  1.
        -11    1    4    4    0    0 -0.37551440117E-01 -0.42202502982E-01 -0.21264658576E-01  0.60362312233E-01  0.51100000000E-03 0. -1.
         11    1    4    4    0    0 -0.24871040930E-01 -0.58828492960E-01 -0.27043054625E-01  0.69360999022E-01  0.51100000000E-03 0.  1.
</event>
<event>
 8    1  0.1114447E+005  0.1043930E+01  0.7957747E-01            NaN
         13   -1    0    0    0    0  0.00000000000E+00  0.00000000000E+00  0.74505805969E-08  0.10566000000E+00  0.10566000000E+00 0.  1.
     999900   -1    0    0    0    0 -0.00000000000E+00 -0.00000000000E+00 -0.74505805969E-08  0.93827000000E+00  0.93827000000E+00 0.  1.
     999902    2    1    2    0    0  0.22555957627E-02  0.10613179816E-01  0.20674018316E-01  0.10205817167E+01  0.10203146075E+01 0.  0.
     999903    2    3    3    0    0  0.84954696288E-02 -0.75842038303E-01  0.10612862877E+00  0.13220345765E+00  0.19755520583E-01 0.  0.
         14    1    1    2    0    0 -0.22555957627E-02 -0.10613179816E-01 -0.20674018316E-01  0.23348283264E-01  0.00000000000E+00 0. -1.
     999901    1    3    3    0    0 -0.62398738661E-02  0.86455218118E-01 -0.85454610449E-01  0.88837825908E+00  0.88000000000E+00 0.  1.
        -11    1    4    4    0    0  0.14117074389E-01 -0.38701751524E-01  0.58205689264E-01  0.71311154416E-01  0.51100000000E-03 0.  1.
         11    1    4    4    0    0 -0.56216047603E-02 -0.37140286778E-01  0.47922939501E-01  0.60892303237E-01  0.51100000000E-03 0. -1.
</event>
<event>
 8    1  0.1114447E+005  0.1043930E+01  0.7957747E-01            NaN
         13   -1    0    0    0    0  0.00000000000E+00  0.00000000000E+00  0.74505805969E-08  0.10566000000E+00  0.10566000000E+00 0. -1.
     999900   -1    0    0    0    0 -0.00000000000E+00 -0.00000000000E+00 -0.74505805969E-08  0.93827000000E+00  0.93827000000E+00 0. -1.
     999902    2    1    2    0    0  0.19145983177E-01 -0.10430457039E-01 -0.10391864336E-01  0.10197772786E+01  0.10194912182E+01 0.  0.
     999903    2    3    3    0    0  0.12733130983E+00  0.29409237403E-01  0.55551625767E-02  0.13211429425E+00  0.18578514630E-01 0.  0.
         14    1    1    2    0    0 -0.19145983177E-01  0.10430457039E-01  0.10391864336E-01  0.24152721383E-01  0.00000000000E+00 0.  1.
     999901    1    3    3    0    0 -0.10818532665E+00 -0.39839694442E-01 -0.15947026913E-01  0.88766298437E+00  0.88000000000E+00 0. -1.
        -11    1    4    4    0    0  0.50687143158E-01  0.18137013472E-01  0.89208980256E-02  0.54570883095E-01  0.51100000000E-03 0. -1.
         11    1    4    4    0    0  0.76644166669E-01  0.11272223931E-01 -0.33657354489E-02  0.77543411150E-01  0.51100000000E-03 0.  1.
</event>
<event>
 8    1  0.1114447E+005  0.1043930E+01  0.7957747E-01            NaN
         13   -1    0    0    0    0  0.00000000000E+00  0.00000000000E+00  0.74505805969E-08  0.10566000000E+00  0.10566000000E+00 0. -1.
     999900   -1    0    0    0    0 -0.00000000000E+00 -0.00000000000E+00 -0.74505805969E-08  0.93827000000E+00  0.93827000000E+00 0. -1.
     999902    2    1    2    0    0 -0.17658702932E-01 -0.64101975791E-02 -0.13042068022E-01  0.10210604578E+01  0.10208043116E+01 0.  0.
     999903    2    3    3    0    0 -0.86578725014E-02 -0.36550384381E-01  0.12288334115E+00  0.13006934523E+00  0.20170019397E-01 0.  0.
         14    1    1    2    0    0  0.17658702932E-01  0.64101975791E-02  0.13042068022E-01  0.22869542202E-01  0.00000000000E+00 0. -1.
     999901    1    3    3    0    0 -0.90008304307E-02  0.30140186802E-01 -0.13592540917E+00  0.89099111256E+00  0.88000000000E+00 0. -1.
        -11    1    4    4    0    0 -0.77277061687E-02 -0.27114405358E-01  0.57964018168E-01  0.64459265771E-01  0.51100000000E-03 0. -1.
         11    1    4    4    0    0 -0.93016633265E-03 -0.94359790223E-02  0.64919322983E-01  0.65610079462E-01  0.51100000000E-03 0.  1.
</event>
<event>
 8    1  0.1114447E+005  0.1043930E+01  0.7957747E-01            NaN
         13   -1    0    0    0    0  0.00000000000E+00  0.00000000000E+00  0.74505805969E-08  0.10566000000E+00  0.10566000000E+00 0.  1.
     999900   -1    0    0    0    0 -0.00000000000E+00 -0.00000000000E+00 -0.74505805969E-08  0.93827000000E+00  0.93827000000E+00 0.  1.
     999902    2    1    2    0    0 -0.20488779780E-01 -0.12206489048E-01 -0.15862265643E-02  0.10200280213E+01  0.10197479393E+01 0.  0.
     999903    2    3    3    0    0 -0.55414651738E-01 -0.10052591906E+00 -0.63730234856E-01  0.13273888238E+00  0.19540318109E-01 0.  0.
         14    1    1    2    0    0  0.20488779780E-01  0.12206489048E-01  0.15862265643E-02  0.23901978715E-01  0.00000000000E+00 0.  1.
     999901    1    3    3    0    0  0.34925871957E-01  0.88319430009E-01  0.62144008292E-01  0.88728913890E+00  0.88000000000E+00 0. -1.
        -11    1    4    4    0    0 -0.51956186409E-01 -0.93765796908E-01 -0.53005322973E-01  0.11958802348E+00  0.51100000000E-03 0.  1.
         11    1    4    4    0    0 -0.34584653288E-02 -0.67601221481E-02 -0.10724911883E-01  0.13150858899E-01  0.51100000000E-03 0. -1.
</event>
<event>
 8    1  0.1114447E+005  0.1043930E+01  0.7957747E-01            NaN
         13   -1    0    0    0    0  0.00000000000E+00  0.00000000000E+00  0.74505805969E-08  0.10566000000E+00  0.10566000000E+00 0. -1.
     999900   -1    0    0    0    0 -0.00000000000E+00 -0.00000000000E+00 -0.74505805969E-08  0.93827000000E+00  0.93827000000E+00 0.  1.
     999902    2    1    2    0    0  0.17023037081E-01 -0.64065783741E-02 -0.15803067848E-01  0.10198350837E+01  0.10195504073E+01 0.  0.
     999903    2    3    3    0    0 -0.43307049477E-01  0.11608937964E+00  0.27070072110E-01  0.12827292367E+00  0.19207018085E-01 0.  0.
         14    1    1    2    0    0 -0.17023037081E-01  0.64065783741E-02  0.15803067848E-01  0.24094916296E-01  0.00000000000E+00 0. -1.
     999901    1    3    3    0    0  0.60330086558E-01 -0.12249595801E+00 -0.42873139958E-01  0.89156216003E+00  0.88000000000E+00 0.  1.
        -11    1    4    4    0    0 -0.99605355854E-03  0.29828497250E-02  0.43497588715E-02  0.53917565240E-02  0.51100000000E-03 0. -1.
         11    1    4    4    0    0 -0.42310995919E-01  0.11310652991E+00  0.22720313239E-01  0.12288116715E+00  0.51100000000E-03 0.  1.
</event>
<event>
 8    1  0.1114447E+005  0.1043930E+01  0.7957747E-01            NaN
         13   -1    0    0    0    0  0.00000000000E+00  0.00000000000E+00  0.74505805969E-08  0.10566000000E+00  0.10566000000E+00 0.  1.
     999900   -1    0    0    0    0 -0.00000000000E+00 -0.00000000000E+00 -0.74505805969E-08  0.93827000000E+00  0.93827000000E+00 0.  1.
     999902    2    1    2    0    0 -0.12432254368E-02  0.22957548408E-01  0.55774193076E-02  0.10202719729E+01  0.10199976453E+01 0.  0.
     999903    2    3    3    0    0 -0.87511973130E-01 -0.91035723084E-01 -0.14245604727E-01  0.12851543943E+00  0.19168531472E-01 0.  0.
         14    1    1    2    0    0  0.12432254368E-02 -0.22957548408E-01 -0.55774193076E-02  0.23658027063E-01  0.00000000000E+00 0. -1.
     999901    1    3    3    0    0  0.86268747693E-01  0.11399327149E+00  0.19823024034E-01  0.89175653351E+00  0.88000000000E+00 0.  1.
        -11    1    4    4    0    0 -0.17382237999E-01 -0.14310059821E-01  0.42947983402E-02  0.22926544086E-01  0.51100000000E-03 0.  1.
         11    1    4    4    0    0 -0.70129735131E-01 -0.76725663263E-01 -0.18540403067E-01  0.10558889534E+00  0.51100000000E-03 0. -1.
</event>
<event>
 8    1  0.1114447E+005  0.1043930E+01  0.7957747E-01            NaN
         13   -1    0    0    0    0  0.00000000000E+00  0.00000000000E+00  0.74505805969E-08  0.10566000000E+00  0.10566000000E+00 0. -1.
     999900   -1    0    0    0    0 -0.00000000000E+00 -0.00000000000E+00 -0.74505805969E-08  0.93827000000E+00  0.93827000000E+00 0. -1.
     999902    2    1    2    0    0  0.15894822010E-01 -0.80114897333E-02  0.15748742367E-01  0.10201633801E+01  0.10198864985E+01 0.  0.
     999903    2    3    3    0    0 -0.65835805487E-02  0.55651232275E-01 -0.11356348119E+00  0.12815448335E+00  0.19659708916E-01 0.  0.
         14    1    1    2    0    0 -0.15894822010E-01  0.80114897333E-02 -0.15748742367E-01  0.23766619882E-01  0.00000000000E+00 0.  1.
     999901    1    3    3    0    0  0.22478402559E-01 -0.63662722008E-01  0.12931222356E+00  0.89200889677E+00  0.88000000000E+00 0.  1.
        -11    1    4    4    0    0 -0.13539521541E-01  0.40195486502E-01 -0.79884717413E-01  0.90447913054E-01  0.51100000000E-03 0.  1.
         11    1    4    4    0    0  0.69559409924E-02  0.15455745773E-01 -0.33678763781E-01  0.37706570294E-01  0.51100000000E-03 0. -1.
</event>
<event>
 8    1  0.1114447E+005  0.1043930E+01  0.7957747E-01            NaN
         13   -1    0    0    0    0  0.00000000000E+00  0.00000000000E+00  0.74505805969E-08  0.10566000000E+00  0.10566000000E+00 0. -1.
     999900   -1    0    0    0    0 -0.00000000000E+00 -0.00000000000E+00 -0.74505805969E-08  0.93827000000E+00  0.93827000000E+00 0. -1.
     999902    2    1    2    0    0 -0.13543730973E-01 -0.23320133538E-01 -0.84361708607E-03  0.10169490258E+01  0.10165910427E+01 0.  0.
     999903    2    3    3    0    0  0.11379349303E+00  0.28226789658E-01  0.40073455842E-01  0.12535154897E+00  0.19011003511E-01 0.  0.
         14    1    1    2    0    0  0.13543730973E-01  0.23320133538E-01  0.84361708607E-03  0.26980974161E-01  0.00000000000E+00 0. -1.
     999901    1    3    3    0    0 -0.12733722400E+00 -0.51546923196E-01 -0.40917072928E-01  0.89159747687E+00  0.88000000000E+00 0. -1.
        -11    1    4    4    0    0  0.37349072962E-01  0.10729805467E-01  0.41234020499E-02  0.39081268429E-01  0.51100000000E-03 0.  1.
         11    1    4    4    0    0  0.76444420069E-01  0.17496984191E-01  0.35950053792E-01  0.86270280538E-01  0.51100000000E-03 0. -1.
</event>
<event>
 8    1  0.1114447E+005  0.1043930E+01  0.7957747E-01            NaN
         13   -1    0    0    0    0  0.00000000000E+00  0.00000000000E+00  0.74505805969E-08  0.10566000000E+00  0.10566000000E+00 0. -1.
     999900   -1    0    0    0    0 -0.00000000000E+00 -0.00000000000E+00 -0.74505805969E-08  0.93827000000E+00  0.93827000000E+00 0.  1.
     999902    2    1    2    0    0  0.45749826733E-02 -0.22926014558E-01  0.42712150661E-02  0.10201649860E+01  0.10198881423E+01 0.  0.
     999903    2    3    3    0    0 -0.10743311435E+00 -0.40106909380E-01 -0.60181518988E-01  0.13056105627E+00  0.16551010490E-01 0.  0.
         14    1    1    2    0    0 -0.45749826733E-02  0.22926014558E-01 -0.42712150661E-02  0.23765013951E-01  0.00000000000E+00 0. -1.
     999901    1    3    3    0    0  0.11200809702E+00  0.17180894822E-01  0.64452734054E-01  0.88960392978E+00  0.88000000000E+00 0. -1.
        -11    1    4    4    0    0 -0.99690408524E-01 -0.33797860440E-01 -0.58473651844E-01  0.12041553888E+00  0.51100000000E-03 0. -1.
         11    1    4    4    0    0 -0.77427058265E-02 -0.63090489405E-02 -0.17078671440E-02  0.10145517396E-01  0.51100000000E-03 0.  1.
</event>
<event>
 8    1  0.1114447E+005  0.1043930E+01  0.7957747E-01            NaN
         13   -1    0    0    0    0  0.00000000000E+00  0.00000000000E+00  0.74505805969E-08  0.10566000000E+00  0.10566000000E+00 0.  1.
     999900   -1    0    0    0    0 -0.00000000000E+00 -0.00000000000E+00 -0.74505805969E-08  0.93827000000E+00  0.93827000000E+00 0. -1.
     999902    2    1    2    0    0 -0.21072570945E-01  0.16353298515E-01 -0.31844042325E-02  0.10170669390E+01  0.10167121197E+01 0.  0.
     999903    2    3    3    0    0 -0.10022192030E+00  0.70287988040E-01 -0.43119864343E-01  0.13096964677E+00  0.17575298066E-01 0.  0.
         14    1    1    2    0    0  0.21072570945E-01 -0.16353298515E-01  0.31844042325E-02  0.26863061048E-01  0.00000000000E+00 0. -1.
     999901    1    3    3    0    0  0.79149349358E-01 -0.53934689525E-01  0.39935460111E-01  0.88609729218E+00  0.88000000000E+00 0. -1.
        -11    1    4    4    0    0 -0.55412551830E-01  0.28597204754E-01 -0.24424174887E-01  0.66971280859E-01  0.51100000000E-03 0.  1.
         11    1    4    4    0    0 -0.44809368473E-01  0.41690783286E-01 -0.18695689456E-01  0.63998365911E-01  0.51100000000E-03 0. -1.
</event>
<event>
 8    1  0.1114447E+005  0.1043930E+01  0.7957747E-01            NaN
         13   -1    0    0    0    0  0.00000000000E+00  0.00000000000E+00  0.74505805969E-08  0.10566000000E+00  0.10566000000E+00 0.  1.
     999900   -1    0    0    0    0 -0.00000000000E+00 -0.00000000000E+00 -0.74505805969E-08  0.93827000000E+00  0.93827000000E+00 0.  1.
     999902    2    1    2    0    0 -0.24925441387E-01  0.15908294601E-01  0.59437142503E-02  0.10137691113E+01  0.10133203501E+01 0.  0.
     999903    2    3    3    0    0 -0.49188125948E-01  0.11092971209E+00  0.38244065988E-01  0.12773239632E+00  0.11317408171E-01 0.  0.
         14    1    1    2    0    0  0.24925441387E-01 -0.15908294601E-01 -0.59437142503E-02  0.30160888656E-01  0.00000000000E+00 0. -1.
     999901    1    3    3    0    0  0.24262684561E-01 -0.95021417491E-01 -0.32300351737E-01  0.88603671502E+00  0.88000000000E+00 0. -1.
        -11    1    4    4    0    0 -0.30994053962E-01  0.80691452336E-01  0.24376456668E-01  0.89812107323E-01  0.51100000000E-03 0.  1.
         11    1    4    4    0    0 -0.18194071986E-01  0.30238259756E-01  0.13867609320E-01  0.37920288999E-01  0.51100000000E-03 0. -1.
</event>
<event>
 8    1  0.1114447E+005  0.1043930E+01  0.7957747E-01            NaN
         13   -1    0    0    0    0  0.00000000000E+00  0.00000000000E+00  0.74505805969E-08  0.10566000000E+00  0.10566000000E+00 0.  1.
     999900   -1    0    0    0    0 -0.00000000000E+00 -0.00000000000E+00 -0.74505805969E-08  0.93827000000E+00  0.93827000000E+00 0.  1.
     999902    2    1    2    0    0 -0.24955588426E-02  0.49296711422E-02  0.22922773589E-01  0.10203507078E+01  0.10200782244E+01 0.  0.
     999903    2    3    3    0    0  0.70603472297E-01  0.48986183026E-01 -0.93484720322E-01  0.12859112740E+00  0.20292577110E-01 0.  0.
         14    1    1    2    0    0  0.24955588426E-02 -0.49296711422E-02 -0.22922773589E-01  0.23579292197E-01  0.00000000000E+00 0. -1.
     999901    1    3    3    0    0 -0.73099031139E-01 -0.44056511884E-01  0.11640749391E+00  0.89175958040E+00  0.88000000000E+00 0.  1.
        -11    1    4    4    0    0  0.32208247353E-01  0.17704948394E-01 -0.26632781059E-01  0.45391657198E-01  0.51100000000E-03 0.  1.
         11    1    4    4    0    0  0.38395224943E-01  0.31281234632E-01 -0.66851939263E-01  0.83199470207E-01  0.51100000000E-03 0. -1.
</event>
<event>
 8    1  0.1114447E+005  0.1043930E+01  0.7957747E-01            NaN
         13   -1    0    0    0    0  0.00000000000E+00  0.00000000000E+00  0.74505805969E-08  0.10566000000E+00  0.10566000000E+00 0. -1.
     999900   -1    0    0    0    0 -0.00000000000E+00 -0.00000000000E+00 -0.74505805969E-08  0.93827000000E+00  0.93827000000E+00 0. -1.
     999902    2    1    2    0    0  0.20328526960E-01  0.19903697007E-02 -0.10621242026E-01  0.10209078072E+01  0.10206481908E+01 0.  0.
     999903    2    3    3    0    0 -0.81461997113E-01  0.59697391392E-01  0.76988855344E-01  0.12885010708E+00  0.21799787521E-01 0.  0.
         14    1    1    2    0    0 -0.20328526960E-01 -0.19903697007E-02  0.10621242026E-01  0.23022192817E-01  0.00000000000E+00 0.  1.
     999901    1    3    3    0    0  0.10179052407E+00 -0.57707021691E-01 -0.87610097369E-01  0.89205770010E+00  0.88000000000E+00 0. -1.
        -11    1    4    4    0    0 -0.38880448805E-01  0.40776663864E-01  0.36637296105E-01  0.67208468231E-01  0.51100000000E-03 0. -1.
         11    1    4    4    0    0 -0.42581548308E-01  0.18920727528E-01  0.40351559239E-01  0.61641638853E-01  0.51100000000E-03 0.  1.
</event>
<event>
 8    1  0.1114447E+005  0.1043930E+01  0.7957747E-01            NaN
         13   -1    0    0    0    0  0.00000000000E+00  0.00000000000E+00  0.74505805969E-08  0.10566000000E+00  0.10566000000E+00 0. -1.
     999900   -1    0    0    0    0 -0.00000000000E+00 -0.00000000000E+00 -0.74505805969E-08  0.93827000000E+00  0.93827000000E+00 0.  1.
     999902    2    1    2    0    0 -0.14527784551E-01 -0.18626379746E-01 -0.69956866545E-02  0.10192938847E+01  0.10189961164E+01 0.  0.
     999903    2    3    3    0    0 -0.67536512910E-01  0.39043653864E-01  0.10114394067E+00  0.12922088932E+00  0.19553874813E-01 0.  0.
         14    1    1    2    0    0  0.14527784551E-01  0.18626379746E-01  0.69956866545E-02  0.24636115322E-01  0.00000000000E+00 0.  1.
     999901    1    3    3    0    0  0.53008728359E-01 -0.57670033611E-01 -0.10813962733E+00  0.89007299535E+00  0.88000000000E+00 0.  1.
        -11    1    4    4    0    0 -0.59844091516E-02  0.78699749936E-03  0.17646585831E-01  0.18657321095E-01  0.51100000000E-03 0.  1.
         11    1    4    4    0    0 -0.61552103758E-01  0.38256656365E-01  0.83497354841E-01  0.11056356823E+00  0.51100000000E-03 0. -1.
</event>
<event>
 8    1  0.1114447E+005  0.1043930E+01  0.7957747E-01            NaN
         13   -1    0    0    0    0  0.00000000000E+00  0.00000000000E+00  0.74505805969E-08  0.10566000000E+00  0.10566000000E+00 0. -1.
     999900   -1    0    0    0    0 -0.00000000000E+00 -0.00000000000E+00 -0.74505805969E-08  0.93827000000E+00  0.93827000000E+00 0.  1.
     999902    2    1    2    0    0  0.82967136984E-02 -0.11294110054E-01 -0.14145834719E-01  0.10240177671E+01  0.10238241501E+01 0.  0.
     999903    2    3    3    0    0  0.31628275661E-01  0.12626104025E+00  0.14974688226E-01  0.13255055735E+00  0.20080111065E-01 0.  0.
         14    1    1    2    0    0 -0.82967136984E-02  0.11294110054E-01  0.14145834719E-01  0.19912232924E-01  0.00000000000E+00 0. -1.
     999901    1    3    3    0    0 -0.23331561962E-01 -0.13755515030E+00 -0.29120522945E-01  0.89146720973E+00  0.88000000000E+00 0.  1.
        -11    1    4    4    0    0  0.24640078644E-01  0.58122141209E-01  0.49881788491E-02  0.63328191380E-01  0.51100000000E-03 0. -1.
         11    1    4    4    0    0  0.69881970170E-02  0.68138899041E-01  0.99865093770E-02  0.69222365971E-01  0.51100000000E-03 0.  1.
</event>
<event>
 8    1  0.1114447E+005  0.1043930E+01  0.7957747E-01            NaN
         13   -1    0    0    0    0  0.00000000000E+00  0.00000000000E+00  0.74505805969E-08  0.10566000000E+00  0.10566000000E+00 0. -1.
     999900   -1    0    0    0    0 -0.00000000000E+00 -0.00000000000E+00 -0.74505805969E-08  0.93827000000E+00  0.93827000000E+00 0.  1.
     999902    2    1    2    0    0 -0.56155383938E-02  0.18190964016E-01 -0.14052881507E-01  0.10202671827E+01  0.10199927427E+01 0.  0.
     999903    2    3    3    0    0 -0.45102762414E-01 -0.89796489181E-01  0.77010882541E-01  0.12812754116E+00  0.19705890670E-01 0.  0.
         14    1    1    2    0    0  0.56155383938E-02 -0.18190964016E-01  0.14052881507E-01  0.23662817287E-01  0.00000000000E+00 0. -1.
     999901    1    3    3    0    0  0.39487224020E-01  0.10798745320E+00 -0.91063764048E-01  0.89213964155E+00  0.88000000000E+00 0. -1.
        -11    1    4    4    0    0 -0.13663621588E-01 -0.42065905228E-01  0.42606665468E-01  0.61415177284E-01  0.51100000000E-03 0. -1.
         11    1    4    4    0    0 -0.31439140826E-01 -0.47730583953E-01  0.34404217074E-01  0.66712363875E-01  0.51100000000E-03 0.  1.
</event>
<event>
 8    1  0.1114447E+005  0.1043930E+01  0.7957747E-01            NaN
         13   -1    0    0    0    0  0.00000000000E+00  0.00000000000E+00  0.74505805969E-08  0.10566000000E+00  0.10566000000E+00 0. -1.
     999900   -1    0    0    0    0 -0.00000000000E+00 -0.00000000000E+00 -0.74505805969E-08  0.93827000000E+00  0.93827000000E+00 0. -1.
     999902    2    1    2    0    0 -0.20051229790E-01 -0.13664237559E-01  0.25089525303E-02  0.10195361883E+01  0.10192443187E+01 0.  0.
     999903    2    3    3    0    0  0.92606351188E-01 -0.79394266691E-01 -0.36127191562E-01  0.12908410153E+00  0.21866536868E-01 0.  0.
         14    1    1    2    0    0  0.20051229790E-01  0.13664237559E-01 -0.25089525303E-02  0.24393811653E-01  0.00000000000E+00 0. -1.
     999901    1    3    3    0    0 -0.11265758098E+00  0.65730029132E-01  0.38636144092E-01  0.89045208681E+00  0.88000000000E+00 0. -1.
        -11    1    4    4    0    0  0.75009631101E-01 -0.61785512564E-01 -0.37455871213E-01  0.10414940101E+00  0.51100000000E-03 0.  1.
         11    1    4    4    0    0  0.17596720088E-01 -0.17608754127E-01  0.13286796505E-02  0.24934700527E-01  0.51100000000E-03 0. -1.
</event>
<event>
 8    1  0.1114447E+005  0.1043930E+01  0.7957747E-01            NaN
         13   -1    0    0    0    0  0.00000000000E+00  0.00000000000E+00  0.74505805969E-08  0.10566000000E+00  0.10566000000E+00 0. -1.
     999900   -1    0    0    0    0 -0.00000000000E+00 -0.00000000000E+00 -0.74505805969E-08  0.93827000000E+00  0.93827000000E+00 0. -1.
     999902    2    1    2    0    0 -0.15304432776E-01  0.14390231290E-01 -0.45394138689E-02  0.10224378922E+01  0.10222119803E+01 0.  0.
     999903    2    3    3    0    0 -0.94766502502E-01  0.59872126261E-01 -0.71207453267E-01  0.13517950212E+00  0.25251433503E-01 0.  0.
         14    1    1    2    0    0  0.15304432776E-01 -0.14390231290E-01  0.45394138689E-02  0.21492107794E-01  0.00000000000E+00 0. -1.
     999901    1    3    3    0    0  0.79462069727E-01 -0.45481894971E-01  0.66668039398E-01  0.88725839008E+00  0.88000000000E+00 0.  1.
        -11    1    4    4    0    0 -0.26834209740E-01  0.31168173041E-01 -0.26809680194E-01  0.49097351214E-01  0.51100000000E-03 0.  1.
         11    1    4    4    0    0 -0.67932292762E-01  0.28703953220E-01 -0.44397773073E-01  0.86082150909E-01  0.51100000000E-03 0. -1.
</event>
<event>
 7    1  0.1114447E+005  0.1043930E+01  0.7957747E-01            NaN
         13   -1    0    0    0    0  0.00000000000E+00  0.00000000000E+00  0.74505805969E-08  0.10566000000E+00  0.10566000000E+00 0.  1.
     999900   -1    0    0    0    0 -0.00000000000E+00 -0.00000000000E+00 -0.74505805969E-08  0.93827000000E+00  0.93827000000E+00 0.  1.
     999902    2    1    2    0    0 -0.19374037723E-01  0.11321324998E-01 -0.77939237698E-02  0.10201756112E+01  0.10198990179E+01 0.  0.
         14    1    1    2    0    0  0.19374037723E-01 -0.11321324998E-01  0.77939237698E-02  0.23754388755E-01  0.00000000000E+00 0.  1.
     999901    1    3    3    0    0 -0.66410752704E-01  0.58696912099E-01 -0.10466178854E+00  0.89062326802E+00  0.88000000000E+00 0.  1.
        -11    1    3    3    0    0  0.39734755031E-01 -0.59226233994E-01  0.73996082795E-01  0.10277294849E+00  0.51100000000E-03 0.  1.
         11    1    3    3    0    0  0.73019599500E-02  0.11850646893E-01  0.22871781971E-01  0.26779394736E-01  0.51100000000E-03 0. -1.
</event>
<event>
 8    1  0.1114447E+005  0.1043930E+01  0.7957747E-01            NaN
         13   -1    0    0    0    0  0.00000000000E+00  0.00000000000E+00  0.74505805969E-08  0.10566000000E+00  0.10566000000E+00 0. -1.
     999900   -1    0    0    0    0 -0.00000000000E+00 -0.00000000000E+00 -0.74505805969E-08  0.93827000000E+00  0.93827000000E+00 0. -1.
     999902    2    1    2    0    0  0.12419319932E-02  0.12902729483E-01  0.18294325381E-01  0.10215089125E+01  0.10212628228E+01 0.  0.
     999903    2    3    3    0    0 -0.23410424823E-01  0.46517601288E-01 -0.11770380675E+00  0.13008690793E+00  0.18880738074E-01 0.  0.
         14    1    1    2    0    0 -0.12419319932E-02 -0.12902729483E-01 -0.18294325381E-01  0.22421087492E-01  0.00000000000E+00 0.  1.
     999901    1    3    3    0    0  0.24652356816E-01 -0.33614871805E-01  0.13599813213E+00  0.89142200458E+00  0.88000000000E+00 0.  1.
        -11    1    4    4    0    0 -0.17558036008E-01  0.32448618652E-01 -0.10070875670E+00  0.10725536014E+00  0.51100000000E-03 0. -1.
         11    1    4    4    0    0 -0.58523888154E-02  0.14068982636E-01 -0.16995050050E-01  0.22831547790E-01  0.51100000000E-03 0.  1.
</event>
<event>
 8    1  0.1114447E+005  0.1043930E+01  0.7957747E-01            NaN
         13   -1    0    0    0    0  0.00000000000E+00  0.00000000000E+00  0.74505805969E-08  0.10566000000E+00  0.10566000000E+00 0.  1.
     999900   -1    0    0    0    0 -0.00000000000E+00 -0.00000000000E+00 -0.74505805969E-08  0.93827000000E+00  0.93827000000E+00 0.  1.
     999902    2    1    2    0    0  0.19684906817E-01  0.90324405845E-02  0.12192242473E-01  0.10190757988E+01  0.10187726697E+01 0.  0.
     999903    2    3    3    0    0  0.70297080569E-01  0.70340980312E-01 -0.81870894899E-01  0.13049929510E+00  0.20921031074E-01 0.  0.
         14    1    1    2    0    0 -0.19684906817E-01 -0.90324405845E-02 -0.12192242473E-01  0.24854201170E-01  0.00000000000E+00 0.  1.
     999901    1    3    3    0    0 -0.50612173752E-01 -0.61308539728E-01  0.94063137372E-01  0.88857650373E+00  0.88000000000E+00 0. -1.
        -11    1    4    4    0    0  0.14138753920E-01  0.12400550442E-01 -0.27042130921E-01  0.32942616463E-01  0.51100000000E-03 0.  1.
         11    1    4    4    0    0  0.56158326649E-01  0.57940429870E-01 -0.54828763977E-01  0.97556678633E-01  0.51100000000E-03 0. -1.
</event>
<event>
 8    1  0.1114447E+005  0.1043930E+01  0.7957747E-01            NaN
         13   -1    0    0    0    0  0.00000000000E+00  0.00000000000E+00  0.74505805969E-08  0.10566000000E+00  0.10566000000E+00 0. -1.
     999900   -1    0    0    0    0 -0.00000000000E+00 -0.00000000000E+00 -0.74505805969E-08  0.93827000000E+00  0.93827000000E+00 0.  1.
     999902    2    1    2    0    0  0.15713533898E-01  0.11034185066E-01  0.14044481196E-01  0.10201410143E+01  0.10198636052E+01 0.  0.
     999903    2    3    3    0    0 -0.12126650021E+00  0.34481887905E-01  0.15910464386E-01  0.12923315915E+00  0.23526620645E-01 0.  0.
         14    1    1    2    0    0 -0.15713533898E-01 -0.11034185066E-01 -0.14044481196E-01  0.23788985680E-01  0.00000000000E+00 0. -1.
     999901    1    3    3    0    0  0.13698003411E+00 -0.23447702839E-01 -0.18659831902E-02  0.89090785517E+00  0.88000000000E+00 0.  1.
        -11    1    4    4    0    0 -0.93040500648E-01  0.28550890814E-01  0.21931847515E-01  0.99764498613E-01  0.51100000000E-03 0.  1.
         11    1    4    4    0    0 -0.28225999566E-01  0.59309970915E-02 -0.60213831287E-02  0.29468660536E-01  0.51100000000E-03 0. -1.
</event>
<event>
 8    1  0.1114447E+005  0.1043930E+01  0.7957747E-01            NaN
         13   -1    0    0    0    0  0.00000000000E+00  0.00000000000E+00  0.74505805969E-08  0.10566000000E+00  0.10566000000E+00 0.  1.
     999900   -1    0    0    0    0 -0.00000000000E+00 -0.00000000000E+00 -0.74505805969E-08  0.93827000000E+00  0.93827000000E+00 0. -1.
     999902    2    1    2    0    0 -0.50434523195E-02 -0.16758317621E-01  0.12185310485E-01  0.10226049112E+01  0.10223825336E+01 0.  0.
     999903    2    3    3    0    0 -0.89784846760E-02  0.11888518883E-01 -0.12834545731E+00  0.13098558524E+00  0.21510859130E-01 0.  0.
         14    1    1    2    0    0  0.50434523195E-02  0.16758317621E-01 -0.12185310485E-01  0.21325088802E-01  0.00000000000E+00 0. -1.
     999901    1    3    3    0    0  0.39350323565E-02 -0.28646836504E-01  0.14053076780E+00  0.89161932596E+00  0.88000000000E+00 0.  1.
        -11    1    4    4    0    0 -0.15215298639E-01  0.57718420981E-02 -0.63574464504E-01  0.65626161946E-01  0.51100000000E-03 0. -1.
         11    1    4    4    0    0  0.62368139628E-02  0.61166767846E-02 -0.64770992807E-01  0.65359423295E-01  0.51100000000E-03 0.  1.
</event>
<event>
 7    1  0.1114447E+005  0.1043930E+01  0.7957747E-01            NaN
         13   -1    0    0    0    0  0.00000000000E+00  0.00000000000E+00  0.74505805969E-08  0.10566000000E+00  0.10566000000E+00 0.  1.
     999900   -1    0    0    0    0 -0.00000000000E+00 -0.00000000000E+00 -0.74505805969E-08  0.93827000000E+00  0.93827000000E+00 0.  1.
     999903    2    1    2    0    0 -0.25301718960E-01  0.37922396233E-01 -0.47292828617E-01  0.69074018193E-01  0.21361723532E-01 0.  0.
         14    1    1    2    0    0  0.13540422642E-01  0.83320268239E-01 -0.77065731787E-02  0.84764387657E-01  0.00000000000E+00 0.  1.
     999901    1    1    2    0    0  0.11761296318E-01 -0.12124266447E+00  0.54999401796E-01  0.89009159415E+00  0.88000000000E+00 0.  1.
        -11    1    3    3    0    0 -0.12747615369E-01  0.13966970321E-01 -0.34059446980E-01  0.38960043726E-01  0.51100000000E-03 0.  1.
         11    1    3    3    0    0 -0.12554103591E-01  0.23955425912E-01 -0.13233381637E-01  0.30113974467E-01  0.51100000000E-03 0. -1.
</event>
<event>
 8    1  0.1114447E+005  0.1043930E+01  0.7957747E-01            NaN
         13   -1    0    0    0    0  0.00000000000E+00  0.00000000000E+00  0.74505805969E-08  0.10566000000E+00  0.10566000000E+00 0. -1.
     999900   -1    0    0    0    0 -0.00000000000E+00 -0.00000000000E+00 -0.74505805969E-08  0.93827000000E+00  0.93827000000E+00 0. -1.
     999902    2    1    2    0    0  0.12583911043E-01  0.18153697000E-01  0.87885503542E-02  0.10201571131E+01  0.10198800838E+01 0.  0.
     999903    2    3    3    0    0  0.38258112300E-03  0.11179623612E+00 -0.66552768331E-01  0.13190370793E+00  0.21697290487E-01 0.  0.
         14    1    1    2    0    0 -0.12583911043E-01 -0.18153697000E-01 -0.87885503542E-02  0.23772886851E-01  0.00000000000E+00 0.  1.
     999901    1    3    3    0    0  0.12201329920E-01 -0.93642539117E-01  0.75341318686E-01  0.88825340522E+00  0.88000000000E+00 0.  1.
        -11    1    4    4    0    0  0.55006434369E-02  0.27645070358E-01 -0.81614461536E-02  0.29349230273E-01  0.51100000000E-03 0.  1.
         11    1    4    4    0    0 -0.51180623139E-02  0.84151165759E-01 -0.58391322178E-01  0.10255447766E+00  0.51100000000E-03 0. -1.
</event>
<event>
 8    1  0.1114447E+005  0.1043930E+01  0.7957747E-01            NaN
         13   -1    0    0    0    0  0.00000000000E+00  0.00000000000E+00  0.74505805969E-08  0.10566000000E+00  0.10566000000E+00 0. -1.
     999900   -1    0    0    0    0 -0.00000000000E+00 -0.00000000000E+00 -0.74505805969E-08  0.93827000000E+00  0.93827000000E+00 0.  1.
     999902    2    1    2    0    0 -0.31573686490E-02 -0.22972055138E-02 -0.27249781314E-01  0.10164018923E+01  0.10160290400E+01 0.  0.
     999903    2    3    3    0    0 -0.84798422452E-01 -0.39225529353E-01  0.80352973237E-01  0.12533101101E+00  0.22843979692E-01 0.  0.
         14    1    1    2    0    0  0.31573686490E-02  0.22972055138E-02  0.27249781314E-01  0.27528107665E-01  0.00000000000E+00 0. -1.
     999901    1    3    3    0    0  0.81641053803E-01  0.36928323839E-01 -0.10760275455E+00  0.89107088133E+00  0.88000000000E+00 0.  1.
        -11    1    4    4    0    0 -0.54341913679E-01 -0.13209687977E-01  0.42825007401E-01  0.70439916373E-01  0.51100000000E-03 0. -1.
         11    1    4    4    0    0 -0.30456508773E-01 -0.26015841375E-01  0.37527965836E-01  0.54891094632E-01  0.51100000000E-03 0.  1.
</event>
<event>
 8    1  0.1114447E+005  0.1043930E+01  0.7957747E-01            NaN
         13   -1    0    0    0    0  0.00000000000E+00  0.00000000000E+00  0.74505805969E-08  0.10566000000E+00  0.10566000000E+00 0.  1.
     999900   -1    0    0    0    0 -0.00000000000E+00 -0.00000000000E+00 -0.74505805969E-08  0.93827000000E+00  0.93827000000E+00 0.  1.
     999902    2    1    2    0    0 -0.77699139081E-02  0.12762522098E-01 -0.18892005958E-01  0.10198434597E+01  0.10195589836E+01 0.  0.
     999903    2    3    3    0    0  0.11813531369E-01  0.92790831491E-01 -0.92328970196E-01  0.13294942473E+00  0.20030298678E-01 0.  0.
         14    1    1    2    0    0  0.77699139081E-02 -0.12762522098E-01  0.18892005958E-01  0.24086540257E-01  0.00000000000E+00 0.  1.
     999901    1    3    3    0    0 -0.19583445277E-01 -0.80028309394E-01  0.73436964237E-01  0.88689403502E+00  0.88000000000E+00 0. -1.
        -11    1    4    4    0    0  0.42992279145E-02  0.91345108635E-02 -0.18675507499E-01  0.21235779965E-01  0.51100000000E-03 0. -1.
         11    1    4    4    0    0  0.75143034541E-02  0.83656320628E-01 -0.73653462696E-01  0.11171364476E+00  0.51100000000E-03 0.  1.
</event>
<event>
 8    1  0.1114447E+005  0.1043930E+01  0.7957747E-01            NaN
         13   -1    0    0    0    0  0.00000000000E+00  0.00000000000E+00  0.74505805969E-08  0.10566000000E+00  0.10566000000E+00 0.  1.
     999900   -1    0    0    0    0 -0.00000000000E+00 -0.00000000000E+00 -0.74505805969E-08  0.93827000000E+00  0.93827000000E+00 0.  1.
     999902    2    1    2    0    0  0.92082536453E-02 -0.31309022946E-02  0.22722517109E-01  0.10192134616E+01  0.10189137221E+01 0.  0.
     999903    2    3    3    0    0 -0.55828038323E-01 -0.61045230180E-01  0.10028505182E+00  0.13151996982E+00  0.19927891291E-01 0.  0.
         14    1    1    2    0    0 -0.92082536453E-02  0.31309022946E-02 -0.22722517109E-01  0.24716538353E-01  0.00000000000E+00 0. -1.
     999901    1    3    3    0    0  0.65036291969E-01  0.57914327886E-01 -0.77562534711E-01  0.88769349183E+00  0.88000000000E+00 0.  1.
        -11    1    4    4    0    0 -0.16173116787E-01 -0.24765077381E-01  0.23444389700E-01  0.37746248737E-01  0.51100000000E-03 0. -1.
         11    1    4    4    0    0 -0.39654921536E-01 -0.36280152800E-01  0.76840662120E-01  0.93773721080E-01  0.51100000000E-03 0.  1.
</event>
<event>
 8    1  0.1114447E+005  0.1043930E+01  0.7957747E-01            NaN
         13   -1    0    0    0    0  0.00000000000E+00  0.00000000000E+00  0.74505805969E-08  0.10566000000E+00  0.10566000000E+00 0.  1.
     999900   -1    0    0    0    0 -0.00000000000E+00 -0.00000000000E+00 -0.74505805969E-08  0.93827000000E+00  0.93827000000E+00 0. -1.
     999902    2    1    2    0    0 -0.88053391951E-02 -0.59341602325E-02 -0.21794427131E-01  0.10196865409E+01  0.10193983011E+01 0.  0.
     999903    2    3    3    0    0 -0.57344959172E-01  0.30784745556E-01 -0.11398503351E+00  0.13277984869E+00  0.20043838251E-01 0.  0.
         14    1    1    2    0    0  0.88053391951E-02  0.59341602325E-02  0.21794427131E-01  0.24243459117E-01  0.00000000000E+00 0.  1.
     999901    1    3    3    0    0  0.48539619977E-01 -0.36718905789E-01  0.92190606383E-01  0.88690669219E+00  0.88000000000E+00 0.  1.
        -11    1    4    4    0    0 -0.23361667518E-01  0.18110569965E-01 -0.34667633608E-01  0.45561674625E-01  0.51100000000E-03 0.  1.
         11    1    4    4    0    0 -0.33983291655E-01  0.12674175592E-01 -0.79317399905E-01  0.87218174066E-01  0.51100000000E-03 0. -1.
</event>
<event>
 8    1  0.1114447E+005  0.1043930E+01  0.7957747E-01            NaN
         13   -1    0    0    0    0  0.00000000000E+00  0.00000000000E+00  0.74505805969E-08  0.10566000000E+00  0.10566000000E+00 0.  1.
     999900   -1    0    0    0    0 -0.00000000000E+00 -0.00000000000E+00 -0.74505805969E-08  0.93827000000E+00  0.93827000000E+00 0.  1.
     999902    2    1    2    0    0  0.14170304656E-01 -0.10339718662E-01  0.13964734590E-01  0.10215085565E+01  0.10212624589E+01 0.  0.
     999903    2    3    3    0    0 -0.55147513704E-01 -0.67642092193E-01  0.98271450633E-01  0.13291633039E+00  0.19818475473E-01 0.  0.
         14    1    1    2    0    0 -0.14170304656E-01  0.10339718662E-01 -0.13964734590E-01  0.22421443491E-01  0.00000000000E+00 0. -1.
     999901    1    3    3    0    0  0.69317818360E-01  0.57302373530E-01 -0.84306716042E-01  0.88859222612E+00  0.88000000000E+00 0.  1.
        -11    1    4    4    0    0 -0.37264527788E-01 -0.30811069537E-01  0.57556398670E-01  0.75172915243E-01  0.51100000000E-03 0.  1.
         11    1    4    4    0    0 -0.17882985916E-01 -0.36831022656E-01  0.40715051963E-01  0.57743415144E-01  0.51100000000E-03 0. -1.
</event>
<event>
 8    1  0.1114447E+005  0.1043930E+01  0.7957747E-01            NaN
         13   -1    0    0    0    0  0.00000000000E+00  0.00000000000E+00  0.74505805969E-08  0.10566000000E+00  0.10566000000E+00 0.  1.
     999900   -1    0    0    0    0 -0.00000000000E+00 -0.00000000000E+00 -0.74505805969E-08  0.93827000000E+00  0.93827000000E+00 0. -1.
     999902    2    1    2    0    0  0.21270608674E-01  0.65116540311E-02  0.86035003825E-02  0.10200792002E+01  0.10198003305E+01 0.  0.
     999903    2    3    3    0    0 -0.58828525909E-02 -0.99928528152E-01 -0.78203701375E-01  0.12901112587E+00  0.22532931364E-01 0.  0.
         14    1    1    2    0    0 -0.21270608674E-01 -0.65116540311E-02 -0.86035003825E-02  0.23850799786E-01  0.00000000000E+00 0.  1.
     999901    1    3    3    0    0  0.27153461265E-01  0.10644018218E+00  0.86807201757E-01  0.89106807435E+00  0.88000000000E+00 0.  1.
        -11    1    4    4    0    0 -0.12622562224E-01 -0.83016582625E-01 -0.59575829770E-01  0.10295932537E+00  0.51100000000E-03 0.  1.
         11    1    4    4    0    0  0.67397096326E-02 -0.16911945528E-01 -0.18627871605E-01  0.26051800494E-01  0.51100000000E-03 0. -1.
</event>
<event>
 8    1  0.1114447E+005  0.1043930E+01  0.7957747E-01            NaN
         13   -1    0    0    0    0  0.00000000000E+00  0.00000000000E+00  0.74505805969E-08  0.10566000000E+00  0.10566000000E+00 0.  1.
     999900   -1    0    0    0    0 -0.00000000000E+00 -0.00000000000E+00 -0.74505805969E-08  0.93827000000E+00  0.93827000000E+00 0. -1.
     999902    2    1    2    0    0 -0.74717024357E-02  0.19030331720E-01  0.12620724576E-01  0.10199037112E+01  0.10196206734E+01 0.  0.
     999903    2    3    3    0    0  0.83880378792E-01  0.35676202716E-01 -0.89415096865E-01  0.12915481474E+00  0.19421566261E-01 0.  0.
         14    1    1    2    0    0  0.74717024357E-02 -0.19030331720E-01 -0.12620724576E-01  0.24026288758E-01  0.00000000000E+00 0.  1.
     999901    1    3    3    0    0 -0.91352081228E-01 -0.16645870996E-01  0.10203582144E+00  0.89074889650E+00  0.88000000000E+00 0.  1.
        -11    1    4    4    0    0  0.20328129202E-01  0.60886509116E-03 -0.23767641591E-01  0.31285227526E-01  0.51100000000E-03 0. -1.
         11    1    4    4    0    0  0.63552249590E-01  0.35067337625E-01 -0.65647455274E-01  0.97869587212E-01  0.51100000000E-03 0.  1.
</event>
<event>
 8    1  0.1114447E+005  0.1043930E+01  0.7957747E-01            NaN
         13   -1    0    0    0    0  0.00000000000E+00  0.00000000000E+00  0.74505805969E-08  0.10566000000E+00  0.10566000000E+00 0.  1.
     999900   -1    0    0    0    0 -0.00000000000E+00 -0.00000000000E+00 -0.74505805969E-08  0.93827000000E+00  0.93827000000E+00 0.  1.
     999902    2    1    2    0    0  0.38830482765E-02  0.19140922275E-01  0.15832632415E-01  0.10187878995E+01  0.10184776183E+01 0.  0.
     999903    2    3    3    0    0  0.44095635558E-01  0.11336231081E+00  0.48007206949E-01  0.13226101016E+00  0.19820300299E-01 0.  0.
         14    1    1    2    0    0 -0.38830482765E-02 -0.19140922275E-01 -0.15832632415E-01  0.25142100522E-01  0.00000000000E+00 0. -1.
     999901    1    3    3    0    0 -0.40212587281E-01 -0.94221388530E-01 -0.32174574534E-01  0.88652688932E+00  0.88000000000E+00 0.  1.
        -11    1    4    4    0    0  0.15925307702E-01  0.19496140303E-01  0.11468027370E-01  0.27667520396E-01  0.51100000000E-03 0.  1.
         11    1    4    4    0    0  0.28170327855E-01  0.93866170503E-01  0.36539179579E-01  0.10459348977E+00  0.51100000000E-03 0. -1.
</event>
<event>
 8    1  0.1114447E+005  0.1043930E+01  0.7957747E-01            NaN
         13   -1    0    0    0    0  0.00000000000E+00  0.00000000000E+00  0.74505805969E-08  0.10566000000E+00  0.10566000000E+00 0. -1.
     999900   -1    0    0    0    0 -0.00000000000E+00 -0.00000000000E+00 -0.74505805969E-08  0.93827000000E+00  0.93827000000E+00 0. -1.
     999902    2    1    2    0    0 -0.86313427533E-03  0.20784072739E-02 -0.23601508081E-01  0.10202214370E+01  0.10199459223E+01 0.  0.
     999903    2    3    3    0    0  0.46121460397E-01  0.32361844406E-03 -0.12386097584E+00  0.13328142079E+00  0.17178531728E-01 0.  0.
         14    1    1    2    0    0  0.86313427533E-03 -0.20784072739E-02  0.23601508081E-01  0.23708563037E-01  0.00000000000E+00 0. -1.
     999901    1    3    3    0    0 -0.46984594672E-01  0.17547888299E-02  0.10025946776E+00  0.88694001618E+00  0.88000000000E+00 0.  1.
        -11    1    4    4    0    0  0.30915755120E-01  0.76508039677E-02 -0.89410747150E-01  0.94915022746E-01  0.51100000000E-03 0. -1.
         11    1    4    4    0    0  0.15205705277E-01 -0.73271855236E-02 -0.34450228692E-01  0.38366398040E-01  0.51100000000E-03 0.  1.
</event>
<event>
 8    1  0.1114447E+005  0.1043930E+01  0.7957747E-01            NaN
         13   -1    0    0    0    0  0.00000000000E+00  0.00000000000E+00  0.74505805969E-08  0.10566000000E+00  0.10566000000E+00 0.  1.
     999900   -1    0    0    0    0 -0.00000000000E+00 -0.00000000000E+00 -0.74505805969E-08  0.93827000000E+00  0.93827000000E+00 0.  1.
     999902    2    1    2    0    0 -0.44198535947E-04  0.23929846071E-01  0.23976941597E-02  0.10198802926E+01  0.10195966962E+01 0.  0.
     999903    2    3    3    0    0  0.13326462118E-01 -0.94839887906E-01  0.82810655093E-01  0.12816774448E+00  0.19929054093E-01 0.  0.
         14    1    1    2    0    0  0.44198535947E-04 -0.23929846071E-01 -0.23976941597E-02  0.24049707353E-01  0.00000000000E+00 0.  1.
     999901    1    3    3    0    0 -0.13370660654E-01  0.11876973398E+00 -0.80412960933E-01  0.89171254817E+00  0.88000000000E+00 0.  1.
        -11    1    4    4    0    0 -0.48766439303E-02 -0.19727377299E-01  0.20734820425E-01  0.29036958694E-01  0.51100000000E-03 0. -1.
         11    1    4    4    0    0  0.18203106048E-01 -0.75112510607E-01  0.62075834668E-01  0.99130785785E-01  0.51100000000E-03 0.  1.
</event>
<event>
 8    1  0.1114447E+005  0.1043930E+01  0.7957747E-01            NaN
         13   -1    0    0    0    0  0.00000000000E+00  0.00000000000E+00  0.74505805969E-08  0.10566000000E+00  0.10566000000E+00 0.  1.
     999900   -1    0    0    0    0 -0.00000000000E+00 -0.00000000000E+00 -0.74505805969E-08  0.93827000000E+00  0.93827000000E+00 0. -1.
     999902    2    1    2    0    0  0.69179449742E-02  0.53851700359E-02  0.19624212817E-01  0.10224365650E+01  0.10222106249E+01 0.  0.
     999903    2    3    3    0    0  0.75170225656E-01 -0.81194097272E-01  0.72544406549E-01  0.13398009998E+00  0.21093411588E-01 0.  0.
         14    1    1    2    0    0 -0.69179449742E-02 -0.53851700359E-02 -0.19624212817E-01  0.21493434990E-01  0.00000000000E+00 0. -1.
     999901    1    3    3    0    0 -0.68252280682E-01  0.86579267308E-01 -0.52920193732E-01  0.88845646503E+00  0.88000000000E+00 0. -1.
        -11    1    4    4    0    0  0.25839744574E-01 -0.21759812820E-01  0.12052577216E-01  0.35870706602E-01  0.51100000000E-03 0.  1.
         11    1    4    4    0    0  0.49330481082E-01 -0.59434284453E-01  0.60491829333E-01  0.98109393379E-01  0.51100000000E-03 0. -1.
</event>
<event>
 7    1  0.1114447E+005  0.1043930E+01  0.7957747E-01            NaN
         13   -1    0    0    0    0  0.00000000000E+00  0.00000000000E+00  0.74505805969E-08  0.10566000000E+00  0.10566000000E+00 0.  1.
     999900   -1    0    0    0    0 -0.00000000000E+00 -0.00000000000E+00 -0.74505805969E-08  0.93827000000E+00  0.93827000000E+00 0.  1.
     999903    2    1    2    0    0  0.40492447334E-01  0.82733057994E-01  0.44820322250E-01  0.10499167441E+00  0.23021581906E-01 0.  0.
         14    1    1    2    0    0  0.18187594419E-01 -0.42397053627E-01 -0.31681449241E-01  0.55964390222E-01  0.00000000000E+00 0. -1.
     999901    1    1    2    0    0 -0.58680041752E-01 -0.40336004367E-01 -0.13138873009E-01  0.88297393536E+00  0.88000000000E+00 0. -1.
        -11    1    3    3    0    0  0.18029681383E-01  0.37476298182E-01  0.77076321216E-02  0.42299066775E-01  0.51100000000E-03 0. -1.
         11    1    3    3    0    0  0.22462765951E-01  0.45256759812E-01  0.37112690129E-01  0.62692607638E-01  0.51100000000E-03 0.  1.
</event>
<event>
 8    1  0.1114447E+005  0.1043930E+01  0.7957747E-01            NaN
         13   -1    0    0    0    0  0.00000000000E+00  0.00000000000E+00  0.74505805969E-08  0.10566000000E+00  0.10566000000E+00 0.  1.
     999900   -1    0    0    0    0 -0.00000000000E+00 -0.00000000000E+00 -0.74505805969E-08  0.93827000000E+00  0.93827000000E+00 0. -1.
     999902    2    1    2    0    0  0.95760523837E-02 -0.95277423389E-02  0.19438246693E-01  0.10202588343E+01  0.10199841983E+01 0.  0.
     999903    2    3    3    0    0  0.26407361395E-01 -0.78125711429E-01 -0.97357423686E-01  0.12973640166E+00  0.23496605023E-01 0.  0.
         14    1    1    2    0    0 -0.95760523837E-02  0.95277423389E-02 -0.19438246693E-01  0.23671165747E-01  0.00000000000E+00 0. -1.
     999901    1    3    3    0    0 -0.16831309011E-01  0.68597969090E-01  0.11679567038E+00  0.89052243259E+00  0.88000000000E+00 0.  1.
        -11    1    4    4    0    0  0.14981190134E-01 -0.16003037029E-01 -0.18424277377E-01  0.28639978524E-01  0.51100000000E-03 0.  1.
         11    1    4    4    0    0  0.11426171261E-01 -0.62122674400E-01 -0.78933146310E-01  0.10109642314E+00  0.51100000000E-03 0. -1.
</event>
<event>
 8    1  0.1114447E+005  0.1043930E+01  0.7957747E-01            NaN
         13   -1    0    0    0    0  0.00000000000E+00  0.00000000000E+00  0.74505805969E-08  0.10566000000E+00  0.10566000000E+00 0.  1.
     999900   -1    0    0    0    0 -0.00000000000E+00 -0.00000000000E+00 -0.74505805969E-08  0.93827000000E+00  0.93827000000E+00 0. -1.
     999902    2    1    2    0    0 -0.15773627711E-01 -0.42212968743E-02  0.17092749743E-01  0.10202912866E+01  0.10200174120E+01 0.  0.
     999903    2    3    3    0    0  0.93335356792E-01 -0.39171555353E-01  0.80014197778E-01  0.13063663465E+00  0.20439150949E-01 0.  0.
         14    1    1    2    0    0  0.15773627711E-01  0.42212968743E-02 -0.17092749743E-01  0.23638713422E-01  0.00000000000E+00 0. -1.
     999901    1    3    3    0    0 -0.10910898450E+00  0.34950258479E-01 -0.62921448035E-01  0.88965465192E+00  0.88000000000E+00 0. -1.
        -11    1    4    4    0    0  0.51186591784E-01 -0.13595212627E-01  0.50459123841E-01  0.73152452349E-01  0.51100000000E-03 0. -1.
         11    1    4    4    0    0  0.42148765007E-01 -0.25576342726E-01  0.29555073937E-01  0.57484182305E-01  0.51100000000E-03 0.  1.
</event>
<event>
 8    1  0.1114447E+005  0.1043930E+01  0.7957747E-01            NaN
         13   -1    0    0    0    0  0.00000000000E+00  0.00000000000E+00  0.74505805969E-08  0.10566000000E+00  0.10566000000E+00 0.  1.
     999900   -1    0    0    0    0 -0.00000000000E+00 -0.00000000000E+00 -0.74505805969E-08  0.93827000000E+00  0.93827000000E+00 0.  1.
     999902    2    1    2    0    0 -0.12715397208E-01  0.19404760503E-01  0.31450837772E-02  0.10205180883E+01  0.10202495043E+01 0.  0.
     999903    2    3    3    0    0 -0.70412254582E-01  0.68875328394E-01  0.87312527070E-01  0.13324111750E+00  0.20688681775E-01 0.  0.
         14    1    1    2    0    0  0.12715397208E-01 -0.19404760503E-01 -0.31450837772E-02  0.23411911676E-01  0.00000000000E+00 0. -1.
     999901    1    3    3    0    0  0.57696857373E-01 -0.49470567891E-01 -0.84167443293E-01  0.88727697082E+00  0.88000000000E+00 0.  1.
        -11    1    4    4    0    0 -0.42364238899E-02  0.13817418012E-01  0.10545951385E-01  0.17898227273E-01  0.51100000000E-03 0.  1.
         11    1    4    4    0    0 -0.66175830692E-01  0.55057910382E-01  0.76766575686E-01  0.11534289023E+00  0.51100000000E-03 0. -1.
</event>
<event>
 8    1  0.1114447E+005  0.1043930E+01  0.7957747E-01            NaN
         13   -1    0    0    0    0  0.00000000000E+00  0.00000000000E+00  0.74505805969E-08  0.10566000000E+00  0.10566000000E+00 0.  1.
     999900   -1    0    0    0    0 -0.00000000000E+00 -0.00000000000E+00 -0.74505805969E-08  0.93827000000E+00  0.93827000000E+00 0. -1.
     999902    2    1    2    0    0  0.17235498504E-01  0.83952899693E-02 -0.13966045704E-01  0.10202109415E+01  0.10199351800E+01 0.  0.
     999903    2    3    3    0    0 -0.10303370015E+00 -0.71282695964E-01  0.14286009168E-01  0.12801620931E+00  0.22065667382E-01 0.  0.
         14    1    1    2    0    0 -0.17235498504E-01 -0.83952899693E-02  0.13966045704E-01  0.23719058475E-01  0.00000000000E+00 0.  1.
     999901    1    3    3    0    0  0.12026919866E+00  0.79677985933E-01 -0.28252054872E-01  0.89219473222E+00  0.88000000000E+00 0. -1.
        -11    1    4    4    0    0 -0.75176746799E-01 -0.59630100816E-01  0.37443770159E-02  0.96029025106E-01  0.51100000000E-03 0. -1.
         11    1    4    4    0    0 -0.27856953354E-01 -0.11652595148E-01  0.10541632152E-01  0.31987184204E-01  0.51100000000E-03 0.  1.
</event>
<event>
 8    1  0.1114447E+005  0.1043930E+01  0.7957747E-01            NaN
         13   -1    0    0    0    0  0.00000000000E+00  0.00000000000E+00  0.74505805969E-08  0.10566000000E+00  0.10566000000E+00 0.  1.
     999900   -1    0    0    0    0 -0.00000000000E+00 -0.00000000000E+00 -0.74505805969E-08  0.93827000000E+00  0.93827000000E+00 0.  1.
     999902    2    1    2    0    0  0.30520351606E-02  0.16998736461E-01 -0.12931348281E-01  0.10223547427E+01  0.10221270607E+01 0.  0.
     999903    2    3    3    0    0  0.32231270907E-01 -0.12185714545E+00 -0.28578197994E-01  0.13085196218E+00  0.20432911786E-01 0.  0.
         14    1    1    2    0    0 -0.30520351606E-02 -0.16998736461E-01  0.12931348281E-01  0.21575257316E-01  0.00000000000E+00 0. -1.
     999901    1    3    3    0    0 -0.29179235747E-01  0.13885588191E+00  0.15646849713E-01  0.89150278050E+00  0.88000000000E+00 0.  1.
        -11    1    4    4    0    0  0.19162282542E-02 -0.44931383783E-01 -0.86538915354E-02  0.45800132522E-01  0.51100000000E-03 0.  1.
         11    1    4    4    0    0  0.30315042653E-01 -0.76925761668E-01 -0.19924306459E-01  0.85051829658E-01  0.51100000000E-03 0. -1.
</event>
<event>
 8    1  0.1114447E+005  0.1043930E+01  0.7957747E-01            NaN
         13   -1    0    0    0    0  0.00000000000E+00  0.00000000000E+00  0.74505805969E-08  0.10566000000E+00  0.10566000000E+00 0. -1.
     999900   -1    0    0    0    0 -0.00000000000E+00 -0.00000000000E+00 -0.74505805969E-08  0.93827000000E+00  0.93827000000E+00 0.  1.
     999902    2    1    2    0    0  0.36248304828E-02  0.33544698107E-02 -0.23358635298E-01  0.10200549564E+01  0.10197755127E+01 0.  0.
     999903    2    3    3    0    0  0.10986602276E+00 -0.67627875445E-01 -0.72769342439E-02  0.13068197200E+00  0.19512855782E-01 0.  0.
         14    1    1    2    0    0 -0.36248304828E-02 -0.33544698107E-02  0.23358635298E-01  0.23875043596E-01  0.00000000000E+00 0. -1.
     999901    1    3    3    0    0 -0.10624119227E+00  0.70982345256E-01 -0.16081701054E-01  0.88937298440E+00  0.88000000000E+00 0.  1.
        -11    1    4    4    0    0  0.29308036006E-01 -0.11151525474E-01  0.41543402847E-02  0.31636010480E-01  0.51100000000E-03 0.  1.
         11    1    4    4    0    0  0.80557986752E-01 -0.56476349971E-01 -0.11431274529E-01  0.99045961523E-01  0.51100000000E-03 0. -1.
</event>
<event>
 8    1  0.1114447E+005  0.1043930E+01  0.7957747E-01            NaN
         13   -1    0    0    0    0  0.00000000000E+00  0.00000000000E+00  0.74505805969E-08  0.10566000000E+00  0.10566000000E+00 0. -1.
     999900   -1    0    0    0    0 -0.00000000000E+00 -0.00000000000E+00 -0.74505805969E-08  0.93827000000E+00  0.93827000000E+00 0.  1.
     999902    2    1    2    0    0 -0.13365742737E-01 -0.38100081771E-02  0.18752946884E-01  0.10205883579E+01  0.10203214023E+01 0.  0.
     999903    2    3    3    0    0 -0.14512541239E-01 -0.11275279022E+00  0.65340886361E-01  0.13264676011E+00  0.20048091668E-01 0.  0.
         14    1    1    2    0    0  0.13365742737E-01  0.38100081771E-02 -0.18752946884E-01  0.23341642146E-01  0.00000000000E+00 0. -1.
     999901    1    3    3    0    0  0.11467985026E-02  0.10894278205E+00 -0.46587939476E-01  0.88794159775E+00  0.88000000000E+00 0.  1.
        -11    1    4    4    0    0 -0.17875787107E-01 -0.87530767318E-01  0.56494395356E-01  0.10570268123E+00  0.51100000000E-03 0.  1.
         11    1    4    4    0    0  0.33632458678E-02 -0.25222022907E-01  0.88464910047E-02  0.26944078874E-01  0.51100000000E-03 0. -1.
</event>
<event>
 8    1  0.1114447E+005  0.1043930E+01  0.7957747E-01            NaN
         13   -1    0    0    0    0  0.00000000000E+00  0.00000000000E+00  0.74505805969E-08  0.10566000000E+00  0.10566000000E+00 0. -1.
     999900   -1    0    0    0    0 -0.00000000000E+00 -0.00000000000E+00 -0.74505805969E-08  0.93827000000E+00  0.93827000000E+00 0.  1.
     999902    2    1    2    0    0 -0.87740655834E-02  0.11696380975E-01  0.28693723372E-01  0.10117256631E+01  0.10112129835E+01 0.  0.
     999903    2    3    3    0    0  0.28683247333E-01  0.18845010274E-01 -0.11288397806E+00  0.11959428334E+00  0.19548325133E-01 0.  0.
         14    1    1    2    0    0  0.87740655834E-02 -0.11696380975E-01 -0.28693723372E-01  0.32204336908E-01  0.00000000000E+00 0.  1.
     999901    1    3    3    0    0 -0.37457312916E-01 -0.71486292987E-02  0.14157770143E+00  0.89213137975E+00  0.88000000000E+00 0. -1.
        -11    1    4    4    0    0  0.29938348854E-02  0.11574492551E-01 -0.47118239527E-01  0.48614005619E-01  0.51100000000E-03 0.  1.
         11    1    4    4    0    0  0.25689412447E-01  0.72705177227E-02 -0.65765738533E-01  0.70980277723E-01  0.51100000000E-03 0. -1.
</event>
<event>
 8    1  0.1114447E+005  0.1043930E+01  0.7957747E-01            NaN
         13   -1    0    0    0    0  0.00000000000E+00  0.00000000000E+00  0.74505805969E-08  0.10566000000E+00  0.10566000000E+00 0. -1.
     999900   -1    0    0    0    0 -0.00000000000E+00 -0.00000000000E+00 -0.74505805969E-08  0.93827000000E+00  0.93827000000E+00 0. -1.
     999902    2    1    2    0    0  0.19898267401E-01 -0.72694003336E-02  0.95062822045E-02  0.10207102966E+01  0.10204461548E+01 0.  0.
     999903    2    3    3    0    0 -0.99100286388E-02 -0.10129067582E-01  0.12945710232E+00  0.13206812365E+00  0.21955438212E-01 0.  0.
         14    1    1    2    0    0 -0.19898267401E-01  0.72694003336E-02 -0.95062822045E-02  0.23219703446E-01  0.00000000000E+00 0.  1.
     999901    1    3    3    0    0  0.29808296040E-01  0.28596672488E-02 -0.11995082011E+00  0.88864217290E+00  0.88000000000E+00 0. -1.
        -11    1    4    4    0    0  0.51236416945E-02  0.24763909611E-02  0.44969647297E-01  0.45331164946E-01  0.51100000000E-03 0.  1.
         11    1    4    4    0    0 -0.15033670333E-01 -0.12605458544E-01  0.84487455022E-01  0.86736958708E-01  0.51100000000E-03 0. -1.
</event>
<event>
 8    1  0.1133290E+005  0.1043930E+01  0.7957747E-01            NaN
         13   -1    0    0    0    0  0.00000000000E+00  0.00000000000E+00  0.74505805969E-08  0.10566000000E+00  0.10566000000E+00 0. -1.
     999900   -1    0    0    0    0 -0.00000000000E+00 -0.00000000000E+00 -0.74505805969E-08  0.93827000000E+00  0.93827000000E+00 0. -1.
     999902    2    1    2    0    0  0.18790131301E-02 -0.20462724147E-01 -0.12286158251E-01  0.10199883323E+01  0.10197073082E+01 0.  0.
     999903    2    3    3    0    0  0.59808441868E-01 -0.84658213585E-01 -0.81205034427E-01  0.13306855512E+00  0.19207287665E-01 0.  0.
         14    1    1    2    0    0 -0.18790131301E-02  0.20462724147E-01  0.12286158251E-01  0.23941667745E-01  0.00000000000E+00 0. -1.
     999901    1    3    3    0    0 -0.57929428738E-01  0.64195489439E-01  0.68918876176E-01  0.88691977713E+00  0.88000000000E+00 0.  1.
        -11    1    4    4    0    0  0.29017449150E-01 -0.26493325588E-01 -0.35338135168E-01  0.52848401811E-01  0.51100000000E-03 0. -1.
         11    1    4    4    0    0  0.30790992719E-01 -0.58164887997E-01 -0.45866899259E-01  0.80220153309E-01  0.51100000000E-03 0.  1.
</event>
<event>
 8    1  0.1114447E+005  0.1043930E+01  0.7957747E-01            NaN
         13   -1    0    0    0    0  0.00000000000E+00  0.00000000000E+00  0.74505805969E-08  0.10566000000E+00  0.10566000000E+00 0.  1.
     999900   -1    0    0    0    0 -0.00000000000E+00 -0.00000000000E+00 -0.74505805969E-08  0.93827000000E+00  0.93827000000E+00 0. -1.
     999902    2    1    2    0    0  0.14753058733E-01  0.65004897161E-02 -0.16474963276E-01  0.10208793270E+01  0.10206190606E+01 0.  0.
     999903    2    3    3    0    0 -0.92502458000E-01 -0.87568168221E-01  0.35337728408E-02  0.12916580366E+00  0.21128853802E-01 0.  0.
         14    1    1    2    0    0 -0.14753058733E-01 -0.65004897161E-02  0.16474963276E-01  0.23050672950E-01  0.00000000000E+00 0.  1.
     999901    1    3    3    0    0  0.10725551673E+00  0.94068657937E-01 -0.20008736117E-01  0.89171352339E+00  0.88000000000E+00 0. -1.
        -11    1    4    4    0    0 -0.87906812151E-01 -0.76356395923E-01  0.66977619656E-02  0.11663201943E+00  0.51100000000E-03 0. -1.
         11    1    4    4    0    0 -0.45956458487E-02 -0.11211772298E-01 -0.31639891249E-02  0.12533784226E-01  0.51100000000E-03 0.  1.
</event>
<event>
 8    1  0.1114447E+005  0.1043930E+01  0.7957747E-01            NaN
         13   -1    0    0    0    0  0.00000000000E+00  0.00000000000E+00  0.74505805969E-08  0.10566000000E+00  0.10566000000E+00 0. -1.
     999900   -1    0    0    0    0 -0.00000000000E+00 -0.00000000000E+00 -0.74505805969E-08  0.93827000000E+00  0.93827000000E+00 0.  1.
     999902    2    1    2    0    0  0.12796016262E-01  0.10757874690E-02  0.20512890750E-01  0.10197292968E+01  0.10194420850E+01 0.  0.
     999903    2    3    3    0    0 -0.10575448553E+00  0.12029558648E-01 -0.67157144769E-01  0.12739514314E+00  0.19766610983E-01 0.  0.
         14    1    1    2    0    0 -0.12796016262E-01 -0.10757874690E-02 -0.20512890750E-01  0.24200703249E-01  0.00000000000E+00 0.  1.
     999901    1    3    3    0    0  0.11855050179E+00 -0.10953771179E-01  0.87670035518E-01  0.89233415361E+00  0.88000000000E+00 0. -1.
        -11    1    4    4    0    0 -0.44944562551E-01  0.66412189137E-02 -0.17461152417E-01  0.48675172894E-01  0.51100000000E-03 0.  1.
         11    1    4    4    0    0 -0.60809922981E-01  0.53883397342E-02 -0.49695992352E-01  0.78719970242E-01  0.51100000000E-03 0. -1.
</event>
<event>
 8    1  0.1114447E+005  0.1043930E+01  0.7957747E-01            NaN
         13   -1    0    0    0    0  0.00000000000E+00  0.00000000000E+00  0.74505805969E-08  0.10566000000E+00  0.10566000000E+00 0.  1.
     999900   -1    0    0    0    0 -0.00000000000E+00 -0.00000000000E+00 -0.74505805969E-08  0.93827000000E+00  0.93827000000E+00 0.  1.
     999902    2    1    2    0    0 -0.16498304500E-01  0.17281164152E-01  0.29310624743E-02  0.10198587762E+01  0.10195746661E+01 0.  0.
     999903    2    3    3    0    0 -0.83689660731E-01  0.98834777056E-01  0.24354457455E-01  0.13327847420E+00  0.19943410370E-01 0.  0.
         14    1    1    2    0    0  0.16498304500E-01 -0.17281164152E-01 -0.29310624743E-02  0.24071223754E-01  0.00000000000E+00 0. -1.
     999901    1    3    3    0    0  0.67191356231E-01 -0.81553612905E-01 -0.21423394980E-01  0.88658030205E+00  0.88000000000E+00 0.  1.
        -11    1    4    4    0    0 -0.61119678178E-01  0.82013399590E-01  0.13797591981E-01  0.10321069440E+00  0.51100000000E-03 0.  1.
         11    1    4    4    0    0 -0.22569982553E-01  0.16821377466E-01  0.10556865474E-01  0.30067779797E-01  0.51100000000E-03 0. -1.
</event>
<event>
 8    1  0.1114447E+005  0.1043930E+01  0.7957747E-01            NaN
         13   -1    0    0    0    0  0.00000000000E+00  0.00000000000E+00  0.74505805969E-08  0.10566000000E+00  0.10566000000E+00 0. -1.
     999900   -1    0    0    0    0 -0.00000000000E+00 -0.00000000000E+00 -0.74505805969E-08  0.93827000000E+00  0.93827000000E+00 0.  1.
     999902    2    1    2    0    0 -0.21468079829E-01 -0.28156800939E-02 -0.82232894183E-02  0.10207690632E+01  0.10205062721E+01 0.  0.
     999903    2    3    3    0    0 -0.27317553803E-01 -0.73871319692E-01 -0.10476647123E+00  0.13262284423E+00  0.20238199013E-01 0.  0.
         14    1    1    2    0    0  0.21468079829E-01  0.28156800939E-02  0.82232894183E-02  0.23160936829E-01  0.00000000000E+00 0. -1.
     999901    1    3    3    0    0  0.58494739742E-02  0.71055639598E-01  0.96543181810E-01  0.88814621894E+00  0.88000000000E+00 0. -1.
        -11    1    4    4    0    0 -0.25198064317E-01 -0.56640847361E-01 -0.68353370293E-01  0.92279859051E-01  0.51100000000E-03 0. -1.
         11    1    4    4    0    0 -0.21194894859E-02 -0.17230472331E-01 -0.36413100936E-01  0.40342985179E-01  0.51100000000E-03 0.  1.
</event>
<event>
 8    1  0.1114447E+005  0.1043930E+01  0.7957747E-01            NaN
         13   -1    0    0    0    0  0.00000000000E+00  0.00000000000E+00  0.74505805969E-08  0.10566000000E+00  0.10566000000E+00 0. -1.
     999900   -1    0    0    0    0 -0.00000000000E+00 -0.00000000000E+00 -0.74505805969E-08  0.93827000000E+00  0.93827000000E+00 0. -1.
     999902    2    1    2    0    0  0.34938391182E-02  0.21865791843E-01  0.10969606510E-01  0.10192186255E+01  0.10189190127E+01 0.  0.
     999903    2    3    3    0    0  0.67315674371E-02  0.21167083443E-01  0.12759322479E+00  0.13151820335E+00  0.22883342770E-01 0.  0.
         14    1    1    2    0    0 -0.34938391182E-02 -0.21865791843E-01 -0.10969606510E-01  0.24711374540E-01  0.00000000000E+00 0.  1.
     999901    1    3    3    0    0 -0.32377283189E-02  0.69870839943E-03 -0.11662361828E+00  0.88770042211E+00  0.88000000000E+00 0. -1.
        -11    1    4    4    0    0 -0.56241242319E-03  0.23403130942E-01  0.10747025080E+00  0.10999153955E+00  0.51100000000E-03 0. -1.
         11    1    4    4    0    0  0.72939798603E-02 -0.22360474988E-02  0.20122973999E-01  0.21526663796E-01  0.51100000000E-03 0.  1.
</event>
<event>
 8    1  0.1114447E+005  0.1043930E+01  0.7957747E-01            NaN
         13   -1    0    0    0    0  0.00000000000E+00  0.00000000000E+00  0.74505805969E-08  0.10566000000E+00  0.10566000000E+00 0. -1.
     999900   -1    0    0    0    0 -0.00000000000E+00 -0.00000000000E+00 -0.74505805969E-08  0.93827000000E+00  0.93827000000E+00 0. -1.
     999902    2    1    2    0    0  0.72114177893E-02 -0.11037582719E-01  0.19912623370E-01  0.10200480958E+01  0.10197684896E+01 0.  0.
     999903    2    3    3    0    0 -0.52280712625E-02 -0.90580338112E-01  0.95226999185E-01  0.13316927317E+00  0.20826511019E-01 0.  0.
         14    1    1    2    0    0 -0.72114177893E-02  0.11037582719E-01 -0.19912623370E-01  0.23881904202E-01  0.00000000000E+00 0.  1.
     999901    1    3    3    0    0  0.12439489052E-01  0.79542755393E-01 -0.75314375815E-01  0.88687882263E+00  0.88000000000E+00 0. -1.
        -11    1    4    4    0    0  0.26149187875E-02 -0.26489123152E-01  0.40809676395E-01  0.48725786337E-01  0.51100000000E-03 0. -1.
         11    1    4    4    0    0 -0.78429900500E-02 -0.64091214960E-01  0.54417322789E-01  0.84443486833E-01  0.51100000000E-03 0.  1.
</event>
<event>
 8    1  0.1114447E+005  0.1043930E+01  0.7957747E-01            NaN
         13   -1    0    0    0    0  0.00000000000E+00  0.00000000000E+00  0.74505805969E-08  0.10566000000E+00  0.10566000000E+00 0.  1.
     999900   -1    0    0    0    0 -0.00000000000E+00 -0.00000000000E+00 -0.74505805969E-08  0.93827000000E+00  0.93827000000E+00 0. -1.
     999902    2    1    2    0    0 -0.92730823537E-02 -0.43812988711E-02 -0.20443771030E-01  0.10210578858E+01  0.10208016813E+01 0.  0.
     999903    2    3    3    0    0 -0.57160068128E-01  0.17958408001E-01  0.11118422073E+00  0.12970040745E+00  0.29504015770E-01 0.  0.
         14    1    1    2    0    0  0.92730823537E-02  0.43812988711E-02  0.20443771030E-01  0.22872114245E-01  0.00000000000E+00 0.  1.
     999901    1    3    3    0    0  0.47886985774E-01 -0.22339706872E-01 -0.13162799176E+00  0.89135747830E+00  0.88000000000E+00 0. -1.
        -11    1    4    4    0    0 -0.25740937071E-01  0.98590965627E-02  0.80306373536E-01  0.84906845294E-01  0.51100000000E-03 0.  1.
         11    1    4    4    0    0 -0.31419131058E-01  0.80993114385E-02  0.30877847199E-01  0.44793562158E-01  0.51100000000E-03 0. -1.
</event>
<event>
 8    1  0.1114447E+005  0.1043930E+01  0.7957747E-01            NaN
         13   -1    0    0    0    0  0.00000000000E+00  0.00000000000E+00  0.74505805969E-08  0.10566000000E+00  0.10566000000E+00 0. -1.
     999900   -1    0    0    0    0 -0.00000000000E+00 -0.00000000000E+00 -0.74505805969E-08  0.93827000000E+00  0.93827000000E+00 0. -1.
     999902    2    1    2    0    0  0.18288574632E-01  0.59949726694E-02 -0.50598467934E-02  0.10240299068E+01  0.10238365281E+01 0.  0.
     999903    2    3    3    0    0  0.63051240690E-01  0.26475183585E-01  0.11403323558E+00  0.13464455862E+00  0.21193962615E-01 0.  0.
         14    1    1    2    0    0 -0.18288574632E-01 -0.59949726694E-02  0.50598467934E-02  0.19900093189E-01  0.00000000000E+00 0. -1.
     999901    1    3    3    0    0 -0.44762666058E-01 -0.20480210915E-01 -0.11909308237E+00  0.88938534819E+00  0.88000000000E+00 0. -1.
        -11    1    4    4    0    0  0.29724575070E-01  0.20144546812E-02  0.55340857287E-01  0.62852843985E-01  0.51100000000E-03 0. -1.
         11    1    4    4    0    0  0.33326665620E-01  0.24460728903E-01  0.58692378289E-01  0.71791714634E-01  0.51100000000E-03 0.  1.
</event>
<event>
 8    1  0.1114447E+005  0.1043930E+01  0.7957747E-01            NaN
         13   -1    0    0    0    0  0.00000000000E+00  0.00000000000E+00  0.74505805969E-08  0.10566000000E+00  0.10566000000E+00 0.  1.
     999900   -1    0    0    0    0 -0.00000000000E+00 -0.00000000000E+00 -0.74505805969E-08  0.93827000000E+00  0.93827000000E+00 0. -1.
     999902    2    1    2    0    0 -0.13160467664E-01  0.14496629295E-01 -0.13947159742E-01  0.10198910018E+01  0.10196076609E+01 0.  0.
     999903    2    3    3    0    0  0.90244006056E-02 -0.61888882209E-01  0.10948791701E+00  0.12772334214E+00  0.20346365985E-01 0.  0.
         14    1    1    2    0    0  0.13160467664E-01 -0.14496629295E-01  0.13947159742E-01  0.24038998209E-01  0.00000000000E+00 0.  1.
     999901    1    3    3    0    0 -0.22184868269E-01  0.76385511504E-01 -0.12343507676E+00  0.89216765965E+00  0.88000000000E+00 0. -1.
        -11    1    4    4    0    0  0.11195212873E-01 -0.27355416646E-01  0.64617303915E-01  0.71058487863E-01  0.51100000000E-03 0.  1.
         11    1    4    4    0    0 -0.21708122677E-02 -0.34533465563E-01  0.44870613099E-01  0.56664854280E-01  0.51100000000E-03 0. -1.
</event>
<event>
 8    1  0.1114447E+005  0.1043930E+01  0.7957747E-01            NaN
         13   -1    0    0    0    0  0.00000000000E+00  0.00000000000E+00  0.74505805969E-08  0.10566000000E+00  0.10566000000E+00 0. -1.
     999900   -1    0    0    0    0 -0.00000000000E+00 -0.00000000000E+00 -0.74505805969E-08  0.93827000000E+00  0.93827000000E+00 0.  1.
     999902    2    1    2    0    0  0.19362001858E-01  0.53272502047E-02 -0.30840467997E-01  0.10071278102E+01  0.10064551778E+01 0.  0.
     999903    2    3    3    0    0 -0.31597821182E-01  0.11117491186E+00  0.14861156329E-01  0.11814565651E+00  0.19474569400E-01 0.  0.
         14    1    1    2    0    0 -0.19362001858E-01 -0.53272502047E-02  0.30840467997E-01  0.36802189839E-01  0.00000000000E+00 0. -1.
     999901    1    3    3    0    0  0.50959823040E-01 -0.10584766166E+00 -0.45701624327E-01  0.88898215365E+00  0.88000000000E+00 0. -1.
        -11    1    4    4    0    0 -0.19065094345E-01  0.93378232602E-01  0.99335819411E-02  0.95822279860E-01  0.51100000000E-03 0.  1.
         11    1    4    4    0    0 -0.12532726838E-01  0.17796679262E-01  0.49275743883E-02  0.22323376650E-01  0.51100000000E-03 0. -1.
</event>
<event>
 8    1  0.1114447E+005  0.1043930E+01  0.7957747E-01            NaN
         13   -1    0    0    0    0  0.00000000000E+00  0.00000000000E+00  0.74505805969E-08  0.10566000000E+00  0.10566000000E+00 0. -1.
     999900   -1    0    0    0    0 -0.00000000000E+00 -0.00000000000E+00 -0.74505805969E-08  0.93827000000E+00  0.93827000000E+00 0. -1.
     999902    2    1    2    0    0 -0.21029387915E-01 -0.40923327847E-02 -0.76007738925E-02  0.10211977738E+01  0.10209447287E+01 0.  0.
     999903    2    3    3    0    0  0.33674099110E-01 -0.10420838459E+00 -0.70226213446E-01  0.13162616849E+00  0.20009867734E-01 0.  0.
         14    1    1    2    0    0  0.21029387915E-01  0.40923327847E-02  0.76007738925E-02  0.22732226188E-01  0.00000000000E+00 0.  1.
     999901    1    3    3    0    0 -0.54703487024E-01  0.10011605180E+00  0.62625439553E-01  0.88957160532E+00  0.88000000000E+00 0.  1.
        -11    1    4    4    0    0  0.18419539909E-01 -0.31364984440E-01 -0.29166427669E-01  0.46625994073E-01  0.51100000000E-03 0. -1.
         11    1    4    4    0    0  0.15254559200E-01 -0.72843400147E-01 -0.41059785777E-01  0.85000174414E-01  0.51100000000E-03 0.  1.
</event>
<event>
 8    1  0.1114447E+005  0.1043930E+01  0.7957747E-01            NaN
         13   -1    0    0    0    0  0.00000000000E+00  0.00000000000E+00  0.74505805969E-08  0.10566000000E+00  0.10566000000E+00 0.  1.
     999900   -1    0    0    0    0 -0.00000000000E+00 -0.00000000000E+00 -0.74505805969E-08  0.93827000000E+00  0.93827000000E+00 0.  1.
     999902    2    1    2    0    0 -0.65809320120E-02  0.12317986998E-01  0.17808149827E-01  0.10212987899E+01  0.10210480139E+01 0.  0.
     999903    2    3    3    0    0  0.81506474973E-01  0.23868547873E-01  0.10039434930E+00  0.13297830322E+00  0.19778541838E-01 0.  0.
         14    1    1    2    0    0  0.65809320120E-02 -0.12317986998E-01 -0.17808149827E-01  0.22631210089E-01  0.00000000000E+00 0. -1.
     999901    1    3    3    0    0 -0.88087406985E-01 -0.11550560875E-01 -0.82586199470E-01  0.88832048669E+00  0.88000000000E+00 0.  1.
        -11    1    4    4    0    0  0.58518142464E-01  0.87760405565E-02  0.61546335234E-01  0.85379180056E-01  0.51100000000E-03 0.  1.
         11    1    4    4    0    0  0.22988332509E-01  0.15092507316E-01  0.38848014063E-01  0.47599123167E-01  0.51100000000E-03 0. -1.
</event>
<event>
 8    1  0.1114447E+005  0.1043930E+01  0.7957747E-01            NaN
         13   -1    0    0    0    0  0.00000000000E+00  0.00000000000E+00  0.74505805969E-08  0.10566000000E+00  0.10566000000E+00 0. -1.
     999900   -1    0    0    0    0 -0.00000000000E+00 -0.00000000000E+00 -0.74505805969E-08  0.93827000000E+00  0.93827000000E+00 0. -1.
     999902    2    1    2    0    0 -0.73873642608E-02  0.16734679987E-01 -0.14182681096E-01  0.10207832700E+01  0.10205208049E+01 0.  0.
     999903    2    3    3    0    0  0.33983475310E-01  0.99764597127E-01 -0.79381380046E-01  0.13350857534E+00  0.20378536662E-01 0.  0.
         14    1    1    2    0    0  0.73873642608E-02 -0.16734679987E-01  0.14182681096E-01  0.23146729965E-01  0.00000000000E+00 0. -1.
     999901    1    3    3    0    0 -0.41370839571E-01 -0.83029917140E-01  0.65198698950E-01  0.88727469470E+00  0.88000000000E+00 0.  1.
        -11    1    4    4    0    0  0.11119746603E-01  0.63525698700E-01 -0.47904587135E-01  0.80338494817E-01  0.51100000000E-03 0.  1.
         11    1    4    4    0    0  0.22863728707E-01  0.36238898427E-01 -0.31476792910E-01  0.53170080520E-01  0.51100000000E-03 0. -1.
</event>
<event>
 8    1  0.1114447E+005  0.1043930E+01  0.7957747E-01            NaN
         13   -1    0    0    0    0  0.00000000000E+00  0.00000000000E+00  0.74505805969E-08  0.10566000000E+00  0.10566000000E+00 0.  1.
     999900   -1    0    0    0    0 -0.00000000000E+00 -0.00000000000E+00 -0.74505805969E-08  0.93827000000E+00  0.93827000000E+00 0. -1.
     999902    2    1    2    0    0 -0.47826957663E-02 -0.18628360374E-01  0.22462464857E-02  0.10245667458E+01  0.10243837567E+01 0.  0.
     999903    2    3    3    0    0  0.38006817358E-01  0.94174701235E-01 -0.82363425132E-01  0.13231438821E+00  0.20247740824E-01 0.  0.
         14    1    1    2    0    0  0.47826957663E-02  0.18628360374E-01 -0.22462464857E-02  0.19363254176E-01  0.00000000000E+00 0. -1.
     999901    1    3    3    0    0 -0.42789513125E-01 -0.11280306161E+00  0.84609671618E-01  0.89225235762E+00  0.88000000000E+00 0. -1.
        -11    1    4    4    0    0  0.21334413018E-01  0.75754387465E-01 -0.62428472601E-01  0.10045625770E+00  0.51100000000E-03 0. -1.
         11    1    4    4    0    0  0.16672404340E-01  0.18420313771E-01 -0.19934952532E-01  0.31858130506E-01  0.51100000000E-03 0.  1.
</event>
<event>
 8    1  0.1114447E+005  0.1043930E+01  0.7957747E-01            NaN
         13   -1    0    0    0    0  0.00000000000E+00  0.00000000000E+00  0.74505805969E-08  0.10566000000E+00  0.10566000000E+00 0. -1.
     999900   -1    0    0    0    0 -0.00000000000E+00 -0.00000000000E+00 -0.74505805969E-08  0.93827000000E+00  0.93827000000E+00 0.  1.
     999902    2    1    2    0    0  0.11444739255E-01 -0.11500453742E-01  0.20347435600E-01  0.10179057684E+01  0.10175730405E+01 0.  0.
     999903    2    3    3    0    0 -0.21164706224E-01  0.12176313436E+00 -0.18573974545E-01  0.12642529416E+00  0.19082892761E-01 0.  0.
         14    1    1    2    0    0 -0.11444739255E-01  0.11500453742E-01 -0.20347435600E-01  0.26024231561E-01  0.00000000000E+00 0.  1.
     999901    1    3    3    0    0  0.32609445479E-01 -0.13326358810E+00  0.38921410144E-01  0.89148047428E+00  0.88000000000E+00 0. -1.
        -11    1    4    4    0    0 -0.16092874557E-01  0.11559211277E+00 -0.15030862307E-01  0.11767202339E+00  0.51100000000E-03 0.  1.
         11    1    4    4    0    0 -0.50718316669E-02  0.61710215822E-02 -0.35431122378E-02  0.87532707690E-02  0.51100000000E-03 0. -1.
</event>
<event>
 8    1  0.1114447E+005  0.1043930E+01  0.7957747E-01            NaN
         13   -1    0    0    0    0  0.00000000000E+00  0.00000000000E+00  0.74505805969E-08  0.10566000000E+00  0.10566000000E+00 0.  1.
     999900   -1    0    0    0    0 -0.00000000000E+00 -0.00000000000E+00 -0.74505805969E-08  0.93827000000E+00  0.93827000000E+00 0.  1.
     999902    2    1    2    0    0 -0.24316570024E-01  0.15430799485E-02  0.52755093704E-02  0.10189999444E+01  0.10186949391E+01 0.  0.
     999903    2    3    3    0    0 -0.47197820406E-02 -0.12082378088E+00  0.41979504038E-01  0.12955918417E+00  0.20065918188E-01 0.  0.
         14    1    1    2    0    0  0.24316570024E-01 -0.15430799485E-02 -0.52755093704E-02  0.24930055608E-01  0.00000000000E+00 0.  1.
     999901    1    3    3    0    0 -0.19596787984E-01  0.12236686083E+00 -0.36703994668E-01  0.88944076023E+00  0.88000000000E+00 0. -1.
        -11    1    4    4    0    0 -0.79197060042E-02 -0.73400549522E-01  0.34307386306E-01  0.81410197699E-01  0.51100000000E-03 0.  1.
         11    1    4    4    0    0  0.31999239636E-02 -0.47423231362E-01  0.76721177316E-02  0.48148986466E-01  0.51100000000E-03 0. -1.
</event>
<event>
 7    1  0.1114447E+005  0.1043930E+01  0.7957747E-01            NaN
         13   -1    0    0    0    0  0.00000000000E+00  0.00000000000E+00  0.74505805969E-08  0.10566000000E+00  0.10566000000E+00 0. -1.
     999900   -1    0    0    0    0 -0.00000000000E+00 -0.00000000000E+00 -0.74505805969E-08  0.93827000000E+00  0.93827000000E+00 0. -1.
     999903    2    1    2    0    0 -0.34180977901E-01  0.20873656746E-01  0.59790294258E-01  0.74596954654E-01  0.19641220940E-01 0.  0.
         14    1    1    2    0    0  0.89327611117E-02 -0.73828677259E-01  0.35203721460E-01  0.82278610899E-01  0.00000000000E+00 0. -1.
     999901    1    1    2    0    0  0.25248216790E-01  0.52955020513E-01 -0.94994015718E-01  0.88705443445E+00  0.88000000000E+00 0.  1.
        -11    1    3    3    0    0 -0.16935398619E-01  0.20788697522E-01  0.41856578439E-01  0.49711285949E-01  0.51100000000E-03 0.  1.
         11    1    3    3    0    0 -0.17245579283E-01  0.84959223887E-04  0.17933715818E-01  0.24885668705E-01  0.51100000000E-03 0. -1.
</event>
<event>
 8    1  0.1114447E+005  0.1043930E+01  0.7957747E-01            NaN
         13   -1    0    0    0    0  0.00000000000E+00  0.00000000000E+00  0.74505805969E-08  0.10566000000E+00  0.10566000000E+00 0.  1.
     999900   -1    0    0    0    0 -0.00000000000E+00 -0.00000000000E+00 -0.74505805969E-08  0.93827000000E+00  0.93827000000E+00 0.  1.
     999902    2    1    2    0    0 -0.40905053301E-02  0.12277081699E-01  0.20564444135E-01  0.10196327711E+01  0.10193432359E+01 0.  0.
     999903    2    3    3    0    0 -0.29842128399E-01  0.77182740990E-01  0.10233016674E+00  0.13308806040E+00  0.19830296561E-01 0.  0.
         14    1    1    2    0    0  0.40905053301E-02 -0.12277081699E-01 -0.20564444135E-01  0.24297228885E-01  0.00000000000E+00 0. -1.
     999901    1    3    3    0    0  0.25751623068E-01 -0.64905659292E-01 -0.81765722609E-01  0.88654471071E+00  0.88000000000E+00 0.  1.
        -11    1    4    4    0    0 -0.16797542748E-01  0.20631661429E-01  0.38687812107E-01  0.46955626099E-01  0.51100000000E-03 0. -1.
         11    1    4    4    0    0 -0.13044585651E-01  0.56551079561E-01  0.63642354637E-01  0.86132434304E-01  0.51100000000E-03 0.  1.
</event>
<event>
 8    1  0.1114447E+005  0.1043930E+01  0.7957747E-01            NaN
         13   -1    0    0    0    0  0.00000000000E+00  0.00000000000E+00  0.74505805969E-08  0.10566000000E+00  0.10566000000E+00 0.  1.
     999900   -1    0    0    0    0 -0.00000000000E+00 -0.00000000000E+00 -0.74505805969E-08  0.93827000000E+00  0.93827000000E+00 0. -1.
     999902    2    1    2    0    0  0.23146380705E-01  0.40491798859E-02 -0.42834392091E-02  0.10200448865E+01  0.10197652042E+01 0.  0.
     999903    2    3    3    0    0  0.66801586302E-01 -0.11006524430E+00 -0.17544881702E-01  0.13150465403E+00  0.20219822534E-01 0.  0.
         14    1    1    2    0    0 -0.23146380705E-01 -0.40491798859E-02  0.42834392091E-02  0.23885113543E-01  0.00000000000E+00 0. -1.
     999901    1    3    3    0    0 -0.43655205596E-01  0.11411442418E+00  0.13261442493E-01  0.88854023243E+00  0.88000000000E+00 0.  1.
        -11    1    4    4    0    0  0.16833852480E-01 -0.35363800308E-01  0.30937670615E-02  0.39291340995E-01  0.51100000000E-03 0.  1.
         11    1    4    4    0    0  0.49967733822E-01 -0.74701443989E-01 -0.20638648763E-01  0.92213313036E-01  0.51100000000E-03 0. -1.
</event>
<event>
 8    1  0.1114447E+005  0.1043930E+01  0.7957747E-01            NaN
         13   -1    0    0    0    0  0.00000000000E+00  0.00000000000E+00  0.74505805969E-08  0.10566000000E+00  0.10566000000E+00 0. -1.
     999900   -1    0    0    0    0 -0.00000000000E+00 -0.00000000000E+00 -0.74505805969E-08  0.93827000000E+00  0.93827000000E+00 0. -1.
     999902    2    1    2    0    0  0.80032562610E-02 -0.20282286423E-01 -0.10625295737E-01  0.10196746879E+01  0.10193861629E+01 0.  0.
     999903    2    3    3    0    0 -0.99286888253E-01 -0.16266876331E-01 -0.79988914829E-01  0.13043984254E+00  0.22222254208E-01 0.  0.
         14    1    1    2    0    0 -0.80032562610E-02  0.20282286423E-01  0.10625295737E-01  0.24255312054E-01  0.00000000000E+00 0. -1.
     999901    1    3    3    0    0  0.10729014451E+00 -0.40154100928E-02  0.69363619092E-01  0.88923484540E+00  0.88000000000E+00 0. -1.
        -11    1    4    4    0    0 -0.81963405207E-01 -0.81349304552E-02 -0.55348348796E-01  0.99236473749E-01  0.51100000000E-03 0.  1.
         11    1    4    4    0    0 -0.17323483046E-01 -0.81319458754E-02 -0.24640566033E-01  0.31203368792E-01  0.51100000000E-03 0. -1.
</event>
<event>
 8    1  0.1114447E+005  0.1043930E+01  0.7957747E-01            NaN
         13   -1    0    0    0    0  0.00000000000E+00  0.00000000000E+00  0.74505805969E-08  0.10566000000E+00  0.10566000000E+00 0. -1.
     999900   -1    0    0    0    0 -0.00000000000E+00 -0.00000000000E+00 -0.74505805969E-08  0.93827000000E+00  0.93827000000E+00 0. -1.
     999902    2    1    2    0    0  0.96789817599E-02  0.46175601860E-02  0.10621913311E-01  0.10288359749E+01  0.10287252470E+01 0.  0.
     999903    2    3    3    0    0 -0.11457053626E+00 -0.24880029112E-01  0.69271294343E-01  0.13768626788E+00  0.20336482417E-01 0.  0.
         14    1    1    2    0    0 -0.96789817599E-02 -0.46175601860E-02 -0.10621913311E-01  0.15094025055E-01  0.00000000000E+00 0.  1.
     999901    1    3    3    0    0  0.12424951802E+00  0.29497589298E-01 -0.58649381032E-01  0.89114970706E+00  0.88000000000E+00 0. -1.
        -11    1    4    4    0    0 -0.98201245853E-01 -0.28051768059E-01  0.62100681888E-01  0.11952883414E+00  0.51100000000E-03 0. -1.
         11    1    4    4    0    0 -0.16369290403E-01  0.31717389477E-02  0.71706124550E-02  0.18157433746E-01  0.51100000000E-03 0.  1.
</event>
<event>
 8    1  0.1114447E+005  0.1043930E+01  0.7957747E-01            NaN
         13   -1    0    0    0    0  0.00000000000E+00  0.00000000000E+00  0.74505805969E-08  0.10566000000E+00  0.10566000000E+00 0.  1.
     999900   -1    0    0    0    0 -0.00000000000E+00 -0.00000000000E+00 -0.74505805969E-08  0.93827000000E+00  0.93827000000E+00 0. -1.
     999902    2    1    2    0    0  0.80868120255E-02  0.14102526299E-01 -0.17400734367E-01  0.10201169084E+01  0.10198389301E+01 0.  0.
     999903    2    3    3    0    0  0.69509001214E-02 -0.71948430966E-01 -0.10779197029E+00  0.13131061165E+00  0.19961867212E-01 0.  0.
         14    1    1    2    0    0 -0.80868120255E-02 -0.14102526299E-01  0.17400734367E-01  0.23813091636E-01  0.00000000000E+00 0.  1.
     999901    1    3    3    0    0  0.11359119041E-02  0.86050957264E-01  0.90391235924E-01  0.88880629671E+00  0.88000000000E+00 0.  1.
        -11    1    4    4    0    0  0.30773720274E-02 -0.69803395010E-01 -0.96252718919E-01  0.11894045230E+00  0.51100000000E-03 0. -1.
         11    1    4    4    0    0  0.38735280940E-02 -0.21450359557E-02 -0.11539251371E-01  0.12370159351E-01  0.51100000000E-03 0.  1.
</event>
<event>
 8    1  0.1114447E+005  0.1043930E+01  0.7957747E-01            NaN
         13   -1    0    0    0    0  0.00000000000E+00  0.00000000000E+00  0.74505805969E-08  0.10566000000E+00  0.10566000000E+00 0.  1.
     999900   -1    0    0    0    0 -0.00000000000E+00 -0.00000000000E+00 -0.74505805969E-08  0.93827000000E+00  0.93827000000E+00 0. -1.
     999902    2    1    2    0    0  0.18261807956E-01  0.25294225705E-02  0.16258688300E-01  0.10193487764E+01  0.10190523497E+01 0.  0.
     999903    2    3    3    0    0  0.14990125266E-01 -0.18950744949E-01  0.12824262063E+00  0.13198610950E+00  0.19756739748E-01 0.  0.
         14    1    1    2    0    0 -0.18261807956E-01 -0.25294225705E-02 -0.16258688300E-01  0.24581223599E-01  0.00000000000E+00 0. -1.
     999901    1    3    3    0    0  0.32716826895E-02  0.21480167519E-01 -0.11198393233E+00  0.88736266690E+00  0.88000000000E+00 0. -1.
        -11    1    4    4    0    0  0.21376281088E-02 -0.26087898180E-03  0.60589964789E-01  0.60630375769E-01  0.51100000000E-03 0. -1.
         11    1    4    4    0    0  0.12852497158E-01 -0.18689865967E-01  0.67652655844E-01  0.71355733734E-01  0.51100000000E-03 0.  1.
</event>
<event>
 8    1  0.1114447E+005  0.1043930E+01  0.7957747E-01            NaN
         13   -1    0    0    0    0  0.00000000000E+00  0.00000000000E+00  0.74505805969E-08  0.10566000000E+00  0.10566000000E+00 0. -1.
     999900   -1    0    0    0    0 -0.00000000000E+00 -0.00000000000E+00 -0.74505805969E-08  0.93827000000E+00  0.93827000000E+00 0. -1.
     999902    2    1    2    0    0  0.17627665408E-01  0.16634784145E-01  0.95164822512E-02  0.10178912968E+01  0.10175581939E+01 0.  0.
     999903    2    3    3    0    0  0.85849607275E-01  0.93911299623E-01 -0.25181670404E-01  0.13119526374E+00  0.19712773467E-01 0.  0.
         14    1    1    2    0    0 -0.17627665408E-01 -0.16634784145E-01 -0.95164822512E-02  0.26038703227E-01  0.00000000000E+00 0. -1.
     999901    1    3    3    0    0 -0.68221941867E-01 -0.77276515477E-01  0.34698152656E-01  0.88669603303E+00  0.88000000000E+00 0.  1.
        -11    1    4    4    0    0  0.53789467527E-01  0.69165586745E-01 -0.23218076814E-01  0.90645051815E-01  0.51100000000E-03 0. -1.
         11    1    4    4    0    0  0.32060139748E-01  0.24745712878E-01 -0.19635935906E-02  0.40550211927E-01  0.51100000000E-03 0.  1.
</event>
<event>
 8    1  0.1114447E+005  0.1043930E+01  0.7957747E-01            NaN
         13   -1    0    0    0    0  0.00000000000E+00  0.00000000000E+00  0.74505805969E-08  0.10566000000E+00  0.10566000000E+00 0. -1.
     999900   -1    0    0    0    0 -0.00000000000E+00 -0.00000000000E+00 -0.74505805969E-08  0.93827000000E+00  0.93827000000E+00 0. -1.
     999902    2    1    2    0    0  0.30418995679E-02  0.19189014357E-01 -0.14419397396E-01  0.10197351566E+01  0.10194480856E+01 0.  0.
     999903    2    3    3    0    0 -0.41814046396E-01 -0.11858001742E-02 -0.12263779987E+00  0.13173830325E+00  0.23772462819E-01 0.  0.
         14    1    1    2    0    0 -0.30418995679E-02 -0.19189014357E-01  0.14419397396E-01  0.24194843381E-01  0.00000000000E+00 0. -1.
     999901    1    3    3    0    0  0.44855945964E-01  0.20374814531E-01  0.10821840247E+00  0.88799685337E+00  0.88000000000E+00 0.  1.
        -11    1    4    4    0    0  0.37991330299E-03 -0.55762276607E-02 -0.12085267806E-01  0.13324919061E-01  0.51100000000E-03 0. -1.
         11    1    4    4    0    0 -0.42193959699E-01  0.43904274865E-02 -0.11055253207E+00  0.11841338419E+00  0.51100000000E-03 0.  1.
</event>
<event>
 8    1  0.1114447E+005  0.1043930E+01  0.7957747E-01            NaN
         13   -1    0    0    0    0  0.00000000000E+00  0.00000000000E+00  0.74505805969E-08  0.10566000000E+00  0.10566000000E+00 0.  1.
     999900   -1    0    0    0    0 -0.00000000000E+00 -0.00000000000E+00 -0.74505805969E-08  0.93827000000E+00  0.93827000000E+00 0. -1.
     999902    2    1    2    0    0  0.18248045499E-02 -0.98340056885E-02  0.22591589200E-01  0.10192233717E+01  0.10189238754E+01 0.  0.
     999903    2    3    3    0    0  0.68834016909E-01 -0.59586573277E-01 -0.88174937832E-01  0.12836155523E+00  0.20327016543E-01 0.  0.
         14    1    1    2    0    0 -0.18248045499E-02  0.98340056885E-02 -0.22591589200E-01  0.24706628303E-01  0.00000000000E+00 0. -1.
     999901    1    3    3    0    0 -0.67009212359E-01  0.49752567589E-01  0.11076652703E+00  0.89086181646E+00  0.88000000000E+00 0.  1.
        -11    1    4    4    0    0  0.56598871944E-01 -0.57817532531E-01 -0.76429495317E-01  0.11130151953E+00  0.51100000000E-03 0. -1.
         11    1    4    4    0    0  0.12235144965E-01 -0.17690407459E-02 -0.11745442514E-01  0.17060035707E-01  0.51100000000E-03 0.  1.
</event>
<event>
 8    1  0.1114447E+005  0.1043930E+01  0.7957747E-01            NaN
         13   -1    0    0    0    0  0.00000000000E+00  0.00000000000E+00  0.74505805969E-08  0.10566000000E+00  0.10566000000E+00 0. -1.
     999900   -1    0    0    0    0 -0.00000000000E+00 -0.00000000000E+00 -0.74505805969E-08  0.93827000000E+00  0.93827000000E+00 0. -1.
     999902    2    1    2    0    0  0.19225902814E-01 -0.16440092982E-01  0.20002775669E-02  0.10185545570E+01  0.10182384163E+01 0.  0.
     999903    2    3    3    0    0 -0.10035261477E+00  0.61850467478E-01 -0.39632031503E-01  0.12605151339E+00  0.20546495791E-01 0.  0.
         14    1    1    2    0    0 -0.19225902814E-01  0.16440092982E-01 -0.20002775669E-02  0.25375442984E-01  0.00000000000E+00 0.  1.
     999901    1    3    3    0    0  0.11957851758E+00 -0.78290560460E-01  0.41632309070E-01  0.89250304363E+00  0.88000000000E+00 0. -1.
        -11    1    4    4    0    0 -0.23689513417E-01  0.22563404771E-01 -0.17515552973E-01  0.37112747106E-01  0.51100000000E-03 0. -1.
         11    1    4    4    0    0 -0.76663101349E-01  0.39287062707E-01 -0.22116478530E-01  0.88938766284E-01  0.51100000000E-03 0.  1.
</event>
<event>
 8    1  0.1114447E+005  0.1043930E+01  0.7957747E-01            NaN
         13   -1    0    0    0    0  0.00000000000E+00  0.00000000000E+00  0.74505805969E-08  0.10566000000E+00  0.10566000000E+00 0. -1.
     999900   -1    0    0    0    0 -0.00000000000E+00 -0.00000000000E+00 -0.74505805969E-08  0.93827000000E+00  0.93827000000E+00 0.  1.
     999902    2    1    2    0    0 -0.10963261419E-01  0.24786076928E-01  0.46108343504E-02  0.10164381375E+01  0.10160662798E+01 0.  0.
     999903    2    3    3    0    0 -0.44290674312E-01 -0.10501878878E+00 -0.46655154627E-01  0.12481701772E+00  0.20297158222E-01 0.  0.
         14    1    1    2    0    0  0.10963261419E-01 -0.24786076928E-01 -0.46108343504E-02  0.27491862502E-01  0.00000000000E+00 0. -1.
     999901    1    3    3    0    0  0.33327412894E-01  0.12980486570E+00  0.51265988978E-01  0.89162111978E+00  0.88000000000E+00 0.  1.
        -11    1    4    4    0    0 -0.10344663156E-01 -0.44351000560E-01 -0.25249620695E-01  0.52075212652E-01  0.51100000000E-03 0. -1.
         11    1    4    4    0    0 -0.33946011157E-01 -0.60667788216E-01 -0.21405533932E-01  0.72741805067E-01  0.51100000000E-03 0.  1.
</event>
<event>
 8    1  0.1114447E+005  0.1043930E+01  0.7957747E-01            NaN
         13   -1    0    0    0    0  0.00000000000E+00  0.00000000000E+00  0.74505805969E-08  0.10566000000E+00  0.10566000000E+00 0. -1.
     999900   -1    0    0    0    0 -0.00000000000E+00 -0.00000000000E+00 -0.74505805969E-08  0.93827000000E+00  0.93827000000E+00 0.  1.
     999902    2    1    2    0    0 -0.20110824213E-01  0.11004091854E-01  0.74056159070E-02  0.10198389553E+01  0.10195543714E+01 0.  0.
     999903    2    3    3    0    0 -0.56132088516E-01 -0.14504466040E-01 -0.11249721145E+00  0.13061181557E+00  0.32289826378E-01 0.  0.
         14    1    1    2    0    0  0.20110824213E-01 -0.11004091854E-01 -0.74056159070E-02  0.24091044706E-01  0.00000000000E+00 0.  1.
     999901    1    3    3    0    0  0.36021264303E-01  0.25508557894E-01  0.11990282736E+00  0.88922713972E+00  0.88000000000E+00 0. -1.
        -11    1    4    4    0    0 -0.51070304332E-01 -0.97797778290E-02 -0.68144920651E-01  0.85719375700E-01  0.51100000000E-03 0. -1.
         11    1    4    4    0    0 -0.50617841842E-02 -0.47246882110E-02 -0.44352290797E-01  0.44892439873E-01  0.51100000000E-03 0.  1.
</event>
<event>
 8    1  0.1114447E+005  0.1043930E+01  0.7957747E-01            NaN
         13   -1    0    0    0    0  0.00000000000E+00  0.00000000000E+00  0.74505805969E-08  0.10566000000E+00  0.10566000000E+00 0.  1.
     999900   -1    0    0    0    0 -0.00000000000E+00 -0.00000000000E+00 -0.74505805969E-08  0.93827000000E+00  0.93827000000E+00 0.  1.
     999902    2    1    2    0    0  0.21315724428E-01  0.60400938531E-02 -0.74423131801E-02  0.10205584175E+01  0.10202907687E+01 0.  0.
     999903    2    3    3    0    0  0.18667953310E-01  0.29270611555E-01  0.12419564052E+00  0.13045998561E+00  0.19748152840E-01 0.  0.
         14    1    1    2    0    0 -0.21315724428E-01 -0.60400938531E-02  0.74423131801E-02  0.23371582469E-01  0.00000000000E+00 0.  1.
     999901    1    3    3    0    0  0.26477711183E-02 -0.23230517702E-01 -0.13163795370E+00  0.89009843192E+00  0.88000000000E+00 0.  1.
        -11    1    4    4    0    0  0.20213540606E-01  0.23050475431E-01  0.77854688771E-01  0.83675117724E-01  0.51100000000E-03 0. -1.
         11    1    4    4    0    0 -0.15455872963E-02  0.62201361237E-02  0.46340951750E-01  0.46784867891E-01  0.51100000000E-03 0.  1.
</event>
<event>
 8    1  0.1114447E+005  0.1043930E+01  0.7957747E-01            NaN
         13   -1    0    0    0    0  0.00000000000E+00  0.00000000000E+00  0.74505805969E-08  0.10566000000E+00  0.10566000000E+00 0. -1.
     999900   -1    0    0    0    0 -0.00000000000E+00 -0.00000000000E+00 -0.74505805969E-08  0.93827000000E+00  0.93827000000E+00 0.  1.
     999902    2    1    2    0    0 -0.22494196352E-01 -0.14061191907E-02  0.64007173605E-02  0.10205006333E+01  0.10202316440E+01 0.  0.
     999903    2    3    3    0    0  0.11054461995E+00 -0.51837359712E-01  0.30133219380E-01  0.12875747056E+00  0.27626987781E-01 0.  0.
         14    1    1    2    0    0  0.22494196352E-01  0.14061191907E-02 -0.64007173605E-02  0.23429366689E-01  0.00000000000E+00 0.  1.
     999901    1    3    3    0    0 -0.13303881630E+00  0.50431240521E-01 -0.23732502020E-01  0.89174316275E+00  0.88000000000E+00 0. -1.
        -11    1    4    4    0    0  0.42294914223E-01 -0.17977638944E-01 -0.21519319613E-02  0.46010294536E-01  0.51100000000E-03 0.  1.
         11    1    4    4    0    0  0.68249705723E-01 -0.33859720768E-01  0.32285151342E-01  0.82747176024E-01  0.51100000000E-03 0. -1.
</event>
<event>
 8    1  0.1114447E+005  0.1043930E+01  0.7957747E-01            NaN
         13   -1    0    0    0    0  0.00000000000E+00  0.00000000000E+00  0.74505805969E-08  0.10566000000E+00  0.10566000000E+00 0.  1.
     999900   -1    0    0    0    0 -0.00000000000E+00 -0.00000000000E+00 -0.74505805969E-08  0.93827000000E+00  0.93827000000E+00 0.  1.
     999902    2    1    2    0    0  0.11393997913E-01 -0.18786349388E-01 -0.96050172906E-02  0.10199507075E+01  0.10196687890E+01 0.  0.
     999903    2    3    3    0    0 -0.12454725462E+00 -0.20362499140E-01  0.18533640204E-01  0.12906671256E+00  0.19699504273E-01 0.  0.
         14    1    1    2    0    0 -0.11393997913E-01  0.18786349388E-01  0.96050172906E-02  0.23979292503E-01  0.00000000000E+00 0.  1.
     999901    1    3    3    0    0  0.13594125253E+00  0.15761497520E-02 -0.28138657495E-01  0.89088399494E+00  0.88000000000E+00 0.  1.
        -11    1    4    4    0    0 -0.58910381632E-01 -0.57298640209E-02 -0.43669574729E-03  0.59192197373E-01  0.51100000000E-03 0.  1.
         11    1    4    4    0    0 -0.65636872984E-01 -0.14632635120E-01  0.18970335951E-01  0.69874515188E-01  0.51100000000E-03 0. -1.
</event>
<event>
 8    1  0.1114447E+005  0.1043930E+01  0.7957747E-01            NaN
         13   -1    0    0    0    0  0.00000000000E+00  0.00000000000E+00  0.74505805969E-08  0.10566000000E+00  0.10566000000E+00 0.  1.
     999900   -1    0    0    0    0 -0.00000000000E+00 -0.00000000000E+00 -0.74505805969E-08  0.93827000000E+00  0.93827000000E+00 0. -1.
     999902    2    1    2    0    0  0.16340059861E-02  0.22703029214E-01 -0.47976215914E-02  0.10206681281E+01  0.10204030150E+01 0.  0.
     999903    2    3    3    0    0  0.94576596213E-01 -0.22667317539E-01  0.83135574427E-01  0.13025864904E+00  0.24438741368E-01 0.  0.
         14    1    1    2    0    0 -0.16340059861E-02 -0.22703029214E-01  0.47976215914E-02  0.23261871894E-01  0.00000000000E+00 0. -1.
     999901    1    3    3    0    0 -0.92942590227E-01  0.45370346753E-01 -0.87933196018E-01  0.89040947906E+00  0.88000000000E+00 0.  1.
        -11    1    4    4    0    0  0.39858353435E-01 -0.16055582426E-01  0.23216826592E-01  0.48844162636E-01  0.51100000000E-03 0.  1.
         11    1    4    4    0    0  0.54718242778E-01 -0.66117351132E-02  0.59918747835E-01  0.81414486408E-01  0.51100000000E-03 0. -1.
</event>
<event>
 8    1  0.1114447E+005  0.1043930E+01  0.7957747E-01            NaN
         13   -1    0    0    0    0  0.00000000000E+00  0.00000000000E+00  0.74505805969E-08  0.10566000000E+00  0.10566000000E+00 0. -1.
     999900   -1    0    0    0    0 -0.00000000000E+00 -0.00000000000E+00 -0.74505805969E-08  0.93827000000E+00  0.93827000000E+00 0. -1.
     999902    2    1    2    0    0  0.18429625010E-01 -0.12792441197E-01 -0.12123268656E-01  0.10184295829E+01  0.10181102809E+01 0.  0.
     999903    2    3    3    0    0  0.12815358261E-01  0.54405280096E-01  0.11229871789E+00  0.12712274208E+00  0.20616052093E-01 0.  0.
         14    1    1    2    0    0 -0.18429625010E-01  0.12792441197E-01  0.12123268656E-01  0.25500417108E-01  0.00000000000E+00 0. -1.
     999901    1    3    3    0    0  0.56142667486E-02 -0.67197721293E-01 -0.12442198655E+00  0.89130684081E+00  0.88000000000E+00 0. -1.
        -11    1    4    4    0    0 -0.51731509799E-03  0.25975066768E-01  0.34244839424E-01  0.42987694247E-01  0.51100000000E-03 0. -1.
         11    1    4    4    0    0  0.13332673359E-01  0.28430213327E-01  0.78053878471E-01  0.84135047835E-01  0.51100000000E-03 0.  1.
</event>
<event>
 8    1  0.1114447E+005  0.1043930E+01  0.7957747E-01            NaN
         13   -1    0    0    0    0  0.00000000000E+00  0.00000000000E+00  0.74505805969E-08  0.10566000000E+00  0.10566000000E+00 0. -1.
     999900   -1    0    0    0    0 -0.00000000000E+00 -0.00000000000E+00 -0.74505805969E-08  0.93827000000E+00  0.93827000000E+00 0. -1.
     999902    2    1    2    0    0  0.17730929382E-01  0.12459025100E-01 -0.10366249100E-01  0.10199076711E+01  0.10196247277E+01 0.  0.
     999903    2    3    3    0    0  0.12859040622E+00  0.97435255285E-02  0.22163834817E-01  0.13235181155E+00  0.19883097978E-01 0.  0.
         14    1    1    2    0    0 -0.17730929382E-01 -0.12459025100E-01  0.10366249100E-01  0.24022328854E-01  0.00000000000E+00 0.  1.
     999901    1    3    3    0    0 -0.11085947684E+00  0.27154995714E-02 -0.32530083917E-01  0.88755585960E+00  0.88000000000E+00 0.  1.
        -11    1    4    4    0    0  0.85498548738E-01  0.15368096010E-01  0.11751287552E-01  0.87661474385E-01  0.51100000000E-03 0.  1.
         11    1    4    4    0    0  0.43091857483E-01 -0.56245704811E-02  0.10412547265E-01  0.44690337165E-01  0.51100000000E-03 0. -1.
</event>
<event>
 8    1  0.1114447E+005  0.1043930E+01  0.7957747E-01            NaN
         13   -1    0    0    0    0  0.00000000000E+00  0.00000000000E+00  0.74505805969E-08  0.10566000000E+00  0.10566000000E+00 0. -1.
     999900   -1    0    0    0    0 -0.00000000000E+00 -0.00000000000E+00 -0.74505805969E-08  0.93827000000E+00  0.93827000000E+00 0.  1.
     999902    2    1    2    0    0 -0.21867986568E-01 -0.20421720771E-01  0.54402447298E-03  0.10140042339E+01  0.10135625461E+01 0.  0.
     999903    2    3    3    0    0  0.10195871476E+00  0.26339232606E-01  0.58694644153E-01  0.12220765769E+00  0.20007889841E-01 0.  0.
         14    1    1    2    0    0  0.21867986568E-01  0.20421720771E-01 -0.54402447298E-03  0.29925766130E-01  0.00000000000E+00 0. -1.
     999901    1    3    3    0    0 -0.12382670133E+00 -0.46760953377E-01 -0.58150619680E-01  0.89179657618E+00  0.88000000000E+00 0. -1.
        -11    1    4    4    0    0  0.23168808672E-01  0.15619823856E-02  0.21400110212E-01  0.31582579413E-01  0.51100000000E-03 0. -1.
         11    1    4    4    0    0  0.78789906086E-01  0.24777250220E-01  0.37294533941E-01  0.90625078275E-01  0.51100000000E-03 0.  1.
</event>
<event>
 7    1  0.1114447E+005  0.1043930E+01  0.7957747E-01            NaN
         13   -1    0    0    0    0  0.00000000000E+00  0.00000000000E+00  0.74505805969E-08  0.10566000000E+00  0.10566000000E+00 0.  1.
     999900   -1    0    0    0    0 -0.00000000000E+00 -0.00000000000E+00 -0.74505805969E-08  0.93827000000E+00  0.93827000000E+00 0. -1.
     999903    2    1    2    0    0 -0.55070155384E-01  0.56635170749E-01 -0.12641702115E-01  0.82273560860E-01  0.19205770083E-01 0.  0.
         14    1    1    2    0    0 -0.24768658153E-01 -0.65990420818E-01  0.32843037581E-01  0.77761733417E-01  0.00000000000E+00 0.  1.
     999901    1    1    2    0    0  0.79838813536E-01  0.93552500690E-02 -0.20201335466E-01  0.88389470572E+00  0.88000000000E+00 0. -1.
        -11    1    3    3    0    0 -0.22493588927E-01  0.15163115824E-01  0.29141985612E-02  0.27288006497E-01  0.51100000000E-03 0.  1.
         11    1    3    3    0    0 -0.32576566456E-01  0.41472054925E-01 -0.15555900676E-01  0.54985554363E-01  0.51100000000E-03 0. -1.
</event>
<event>
 8    1  0.1114447E+005  0.1043930E+01  0.7957747E-01            NaN
         13   -1    0    0    0    0  0.00000000000E+00  0.00000000000E+00  0.74505805969E-08  0.10566000000E+00  0.10566000000E+00 0. -1.
     999900   -1    0    0    0    0 -0.00000000000E+00 -0.00000000000E+00 -0.74505805969E-08  0.93827000000E+00  0.93827000000E+00 0.  1.
     999902    2    1    2    0    0 -0.10189925676E-01 -0.16401152978E-01 -0.14820614435E-01  0.10195890260E+01  0.10192984346E+01 0.  0.
     999903    2    3    3    0    0 -0.55430879447E-01  0.11321445150E+00 -0.38329897757E-02  0.12887713276E+00  0.26542967272E-01 0.  0.
         14    1    1    2    0    0  0.10189925676E-01  0.16401152978E-01  0.14820614435E-01  0.24340974026E-01  0.00000000000E+00 0. -1.
     999901    1    3    3    0    0  0.45240953772E-01 -0.12961560448E+00 -0.10987624660E-01  0.89071189322E+00  0.88000000000E+00 0. -1.
        -11    1    4    4    0    0 -0.43911435950E-01  0.60754146163E-01  0.77121935753E-03  0.74967568878E-01  0.51100000000E-03 0. -1.
         11    1    4    4    0    0 -0.11519443497E-01  0.52460305340E-01 -0.46042091332E-02  0.53909563879E-01  0.51100000000E-03 0.  1.
</event>
<event>
 8    1  0.1114447E+005  0.1043930E+01  0.7957747E-01            NaN
         13   -1    0    0    0    0  0.00000000000E+00  0.00000000000E+00  0.74505805969E-08  0.10566000000E+00  0.10566000000E+00 0.  1.
     999900   -1    0    0    0    0 -0.00000000000E+00 -0.00000000000E+00 -0.74505805969E-08  0.93827000000E+00  0.93827000000E+00 0. -1.
     999902    2    1    2    0    0 -0.27042512580E-02  0.16925974703E-01  0.15628326269E-01  0.10207341776E+01  0.10204705852E+01 0.  0.
     999903    2    3    3    0    0 -0.11935587993E-01  0.84407537819E-02  0.13082686579E+00  0.13313746735E+00  0.19905070082E-01 0.  0.
         14    1    1    2    0    0  0.27042512580E-02 -0.16925974703E-01 -0.15628326269E-01  0.23195822393E-01  0.00000000000E+00 0. -1.
     999901    1    3    3    0    0  0.92313367354E-02  0.84852209210E-02 -0.11519853952E+00  0.88759671026E+00  0.88000000000E+00 0. -1.
        -11    1    4    4    0    0 -0.85998966507E-02 -0.51611354471E-04  0.18152810184E-01  0.20093444819E-01  0.51100000000E-03 0. -1.
         11    1    4    4    0    0 -0.33356913427E-02  0.84923651364E-02  0.11267405561E+00  0.11304402253E+00  0.51100000000E-03 0.  1.
</event>
<event>
 8    1  0.1114447E+005  0.1043930E+01  0.7957747E-01            NaN
         13   -1    0    0    0    0  0.00000000000E+00  0.00000000000E+00  0.74505805969E-08  0.10566000000E+00  0.10566000000E+00 0. -1.
     999900   -1    0    0    0    0 -0.00000000000E+00 -0.00000000000E+00 -0.74505805969E-08  0.93827000000E+00  0.93827000000E+00 0. -1.
     999902    2    1    2    0    0 -0.17158052563E-01  0.16291467793E-01  0.40836175654E-02  0.10199198642E+01  0.10196372113E+01 0.  0.
     999903    2    3    3    0    0  0.49941580684E-01 -0.51550621898E-01  0.10520838274E+00  0.12900397136E+00  0.20532723354E-01 0.  0.
         14    1    1    2    0    0  0.17158052563E-01 -0.16291467793E-01 -0.40836175654E-02  0.24010135839E-01  0.00000000000E+00 0. -1.
     999901    1    3    3    0    0 -0.67099633247E-01  0.67842089691E-01 -0.10112476517E+00  0.89091589280E+00  0.88000000000E+00 0.  1.
        -11    1    4    4    0    0  0.39863154648E-01 -0.36442118966E-01  0.91466277712E-01  0.10622353888E+00  0.51100000000E-03 0.  1.
         11    1    4    4    0    0  0.10078426037E-01 -0.15108502932E-01  0.13742105027E-01  0.22780432476E-01  0.51100000000E-03 0. -1.
</event>
<event>
 8    1  0.1114447E+005  0.1043930E+01  0.7957747E-01            NaN
         13   -1    0    0    0    0  0.00000000000E+00  0.00000000000E+00  0.74505805969E-08  0.10566000000E+00  0.10566000000E+00 0. -1.
     999900   -1    0    0    0    0 -0.00000000000E+00 -0.00000000000E+00 -0.74505805969E-08  0.93827000000E+00  0.93827000000E+00 0.  1.
     999902    2    1    2    0    0 -0.25806469656E-02  0.20486248041E-01  0.13223313924E-01  0.10194105765E+01  0.10191156565E+01 0.  0.
     999903    2    3    3    0    0  0.60807988860E-01 -0.32439572267E-01  0.10893379587E+00  0.13037752989E+00  0.19539474429E-01 0.  0.
         14    1    1    2    0    0  0.25806469656E-02 -0.20486248041E-01 -0.13223313924E-01  0.24519423499E-01  0.00000000000E+00 0.  1.
     999901    1    3    3    0    0 -0.63388635826E-01  0.52925820308E-01 -0.95710481943E-01  0.88903304661E+00  0.88000000000E+00 0.  1.
        -11    1    4    4    0    0  0.39382945213E-01 -0.11896123426E-01  0.53457712623E-01  0.67457559147E-01  0.51100000000E-03 0. -1.
         11    1    4    4    0    0  0.21425043647E-01 -0.20543448841E-01  0.55476083245E-01  0.62919970747E-01  0.51100000000E-03 0.  1.
</event>
<event>
 8    1  0.1114447E+005  0.1043930E+01  0.7957747E-01            NaN
         13   -1    0    0    0    0  0.00000000000E+00  0.00000000000E+00  0.74505805969E-08  0.10566000000E+00  0.10566000000E+00 0. -1.
     999900   -1    0    0    0    0 -0.00000000000E+00 -0.00000000000E+00 -0.74505805969E-08  0.93827000000E+00  0.93827000000E+00 0.  1.
     999902    2    1    2    0    0 -0.20160883445E-02 -0.25432565276E-01 -0.23867929724E-03  0.10184165338E+01  0.10180969008E+01 0.  0.
     999903    2    3    3    0    0  0.52650683795E-01  0.96925121453E-02 -0.11521296299E+00  0.12856187549E+00  0.19699992204E-01 0.  0.
         14    1    1    2    0    0  0.20160883445E-02  0.25432565276E-01  0.23867929724E-03  0.25513466180E-01  0.00000000000E+00 0. -1.
     999901    1    3    3    0    0 -0.54666772139E-01 -0.35125077421E-01  0.11497428369E+00  0.88985465833E+00  0.88000000000E+00 0. -1.
        -11    1    4    4    0    0  0.34443403594E-01  0.89019971731E-03 -0.53675237948E-01  0.63784267625E-01  0.51100000000E-03 0. -1.
         11    1    4    4    0    0  0.18207280201E-01  0.88023124280E-02 -0.61537725042E-01  0.64777607865E-01  0.51100000000E-03 0.  1.
</event>
<event>
 8    1  0.1114447E+005  0.1043930E+01  0.7957747E-01            NaN
         13   -1    0    0    0    0  0.00000000000E+00  0.00000000000E+00  0.74505805969E-08  0.10566000000E+00  0.10566000000E+00 0.  1.
     999900   -1    0    0    0    0 -0.00000000000E+00 -0.00000000000E+00 -0.74505805969E-08  0.93827000000E+00  0.93827000000E+00 0.  1.
     999902    2    1    2    0    0 -0.99156365613E-03 -0.20280062759E-01 -0.12474539554E-01  0.10200998032E+01  0.10198214207E+01 0.  0.
     999903    2    3    3    0    0 -0.12044434392E-01  0.68216564908E-01  0.10551662573E+00  0.12775696874E+00  0.19736175647E-01 0.  0.
         14    1    1    2    0    0  0.99156365613E-03  0.20280062759E-01  0.12474539554E-01  0.23830196833E-01  0.00000000000E+00 0. -1.
     999901    1    3    3    0    0  0.11052870736E-01 -0.88496627667E-01 -0.11799116529E+00  0.89234283442E+00  0.88000000000E+00 0.  1.
        -11    1    4    4    0    0 -0.14139215746E-01  0.37420822472E-01  0.70624775047E-01  0.81168684527E-01  0.51100000000E-03 0.  1.
         11    1    4    4    0    0  0.20947813537E-02  0.30795742436E-01  0.34891850685E-01  0.46588284217E-01  0.51100000000E-03 0. -1.
</event>
<event>
 8    1  0.1114447E+005  0.1043930E+01  0.7957747E-01            NaN
         13   -1    0    0    0    0  0.00000000000E+00  0.00000000000E+00  0.74505805969E-08  0.10566000000E+00  0.10566000000E+00 0.  1.
     999900   -1    0    0    0    0 -0.00000000000E+00 -0.00000000000E+00 -0.74505805969E-08  0.93827000000E+00  0.93827000000E+00 0. -1.
     999902    2    1    2    0    0  0.13429322145E-02  0.14006065421E-01 -0.19339008387E-01  0.10200140936E+01  0.10197336812E+01 0.  0.
     999903    2    3    3    0    0 -0.18753136574E-01 -0.13051071583E-02  0.12488058425E+00  0.12791680353E+00  0.20351040907E-01 0.  0.
         14    1    1    2    0    0 -0.13429322145E-02 -0.14006065421E-01  0.19339008387E-01  0.23915906441E-01  0.00000000000E+00 0. -1.
     999901    1    3    3    0    0  0.20096068788E-01  0.15311172579E-01 -0.14421959263E+00  0.89209729003E+00  0.88000000000E+00 0. -1.
        -11    1    4    4    0    0 -0.18483564885E-01 -0.63058648202E-02  0.11660600032E+00  0.11823124178E+00  0.51100000000E-03 0. -1.
         11    1    4    4    0    0 -0.26957168856E-03  0.50007576619E-02  0.82745839312E-02  0.96855617454E-02  0.51100000000E-03 0.  1.
</event>
<event>
 8    1  0.1114447E+005  0.1043930E+01  0.7957747E-01            NaN
         13   -1    0    0    0    0  0.00000000000E+00  0.00000000000E+00  0.74505805969E-08  0.10566000000E+00  0.10566000000E+00 0.  1.
     999900   -1    0    0    0    0 -0.00000000000E+00 -0.00000000000E+00 -0.74505805969E-08  0.93827000000E+00  0.93827000000E+00 0. -1.
     999902    2    1    2    0    0  0.17574865416E-01 -0.10124039771E-01 -0.86767409580E-02  0.10218696757E+01  0.10216315266E+01 0.  0.
     999903    2    3    3    0    0 -0.43393081276E-01 -0.26131411030E-01  0.11858121065E+00  0.13048428612E+00  0.19970860323E-01 0.  0.
         14    1    1    2    0    0 -0.17574865416E-01  0.10124039771E-01  0.86767409580E-02  0.22060324326E-01  0.00000000000E+00 0. -1.
     999901    1    3    3    0    0  0.60967946692E-01  0.16007371259E-01 -0.12725795160E+00  0.89138538955E+00  0.88000000000E+00 0. -1.
        -11    1    4    4    0    0 -0.42570911632E-01 -0.24443023057E-01  0.96043358187E-01  0.10786255915E+00  0.51100000000E-03 0. -1.
         11    1    4    4    0    0 -0.82216964340E-03 -0.16883879725E-02  0.22537852458E-01  0.22621726974E-01  0.51100000000E-03 0.  1.
</event>
<event>
 8    1  0.1114447E+005  0.1043930E+01  0.7957747E-01            NaN
         13   -1    0    0    0    0  0.00000000000E+00  0.00000000000E+00  0.74505805969E-08  0.10566000000E+00  0.10566000000E+00 0.  1.
     999900   -1    0    0    0    0 -0.00000000000E+00 -0.00000000000E+00 -0.74505805969E-08  0.93827000000E+00  0.93827000000E+00 0.  1.
     999902    2    1    2    0    0  0.22126607607E-01  0.84019312789E-02  0.55843638809E-02  0.10196120163E+01  0.10193219802E+01 0.  0.
     999903    2    3    3    0    0  0.22081591869E-01  0.36842426610E-02 -0.12681438962E+00  0.12969534120E+00  0.15421471137E-01 0.  0.
         14    1    1    2    0    0 -0.22126607607E-01 -0.84019312789E-02 -0.55843638809E-02  0.24317983743E-01  0.00000000000E+00 0.  1.
     999901    1    3    3    0    0  0.45015738063E-04  0.47176886179E-02  0.13239875350E+00  0.88991667505E+00  0.88000000000E+00 0. -1.
        -11    1    4    4    0    0  0.46650759829E-03 -0.35625426821E-03 -0.44085695610E-01  0.44092564281E-01  0.51100000000E-03 0.  1.
         11    1    4    4    0    0  0.21615084270E-01  0.40404969292E-02 -0.82728694007E-01  0.85602776921E-01  0.51100000000E-03 0. -1.
</event>
<event>
 8    1  0.1114447E+005  0.1043930E+01  0.7957747E-01            NaN
         13   -1    0    0    0    0  0.00000000000E+00  0.00000000000E+00  0.74505805969E-08  0.10566000000E+00  0.10566000000E+00 0. -1.
     999900   -1    0    0    0    0 -0.00000000000E+00 -0.00000000000E+00 -0.74505805969E-08  0.93827000000E+00  0.93827000000E+00 0.  1.
     999902    2    1    2    0    0  0.93946759419E-02 -0.17893988668E-01  0.11371701591E-01  0.10207401237E+01  0.10204766679E+01 0.  0.
     999903    2    3    3    0    0 -0.10930528949E+00 -0.68686704779E-01  0.13025250426E-01  0.13131766162E+00  0.20227737908E-01 0.  0.
         14    1    1    2    0    0 -0.93946759419E-02  0.17893988668E-01 -0.11371701591E-01  0.23189876317E-01  0.00000000000E+00 0. -1.
     999901    1    3    3    0    0  0.11869996543E+00  0.50792716111E-01 -0.16535488352E-02  0.88942246207E+00  0.88000000000E+00 0. -1.
        -11    1    4    4    0    0 -0.12897719070E-01 -0.13093268649E-01 -0.37688430737E-02  0.18768328115E-01  0.51100000000E-03 0.  1.
         11    1    4    4    0    0 -0.96407570417E-01 -0.55593436130E-01  0.16794093500E-01  0.11254933350E+00  0.51100000000E-03 0. -1.
</event>
<event>
 8    1  0.1114447E+005  0.1043930E+01  0.7957747E-01            NaN
         13   -1    0    0    0    0  0.00000000000E+00  0.00000000000E+00  0.74505805969E-08  0.10566000000E+00  0.10566000000E+00 0. -1.
     999900   -1    0    0    0    0 -0.00000000000E+00 -0.00000000000E+00 -0.74505805969E-08  0.93827000000E+00  0.93827000000E+00 0.  1.
     999902    2    1    2    0    0  0.55567473664E-02  0.20931874954E-01 -0.10393730045E-01  0.10199081255E+01  0.10196251929E+01 0.  0.
     999903    2    3    3    0    0 -0.12028963598E+00  0.46416650281E-01 -0.67239833416E-02  0.13058239607E+00  0.19556284556E-01 0.  0.
         14    1    1    2    0    0 -0.55567473664E-02 -0.20931874954E-01  0.10393730045E-01  0.24021874503E-01  0.00000000000E+00 0. -1.
     999901    1    3    3    0    0  0.12584638334E+00 -0.25484775328E-01 -0.36697467034E-02  0.88932572942E+00  0.88000000000E+00 0. -1.
        -11    1    4    4    0    0 -0.39796575426E-01  0.64429194701E-02 -0.55724897265E-02  0.40701257839E-01  0.51100000000E-03 0.  1.
         11    1    4    4    0    0 -0.80493060551E-01  0.39973730811E-01 -0.11514936151E-02  0.89881138234E-01  0.51100000000E-03 0. -1.
</event>
<event>
 8    1  0.1114447E+005  0.1043930E+01  0.7957747E-01            NaN
         13   -1    0    0    0    0  0.00000000000E+00  0.00000000000E+00  0.74505805969E-08  0.10566000000E+00  0.10566000000E+00 0.  1.
     999900   -1    0    0    0    0 -0.00000000000E+00 -0.00000000000E+00 -0.74505805969E-08  0.93827000000E+00  0.93827000000E+00 0.  1.
     999902    2    1    2    0    0 -0.12234817367E-01  0.16485387080E-01  0.15422659343E-01  0.10182528280E+01  0.10179290272E+01 0.  0.
     999903    2    3    3    0    0 -0.14335938320E-01 -0.11916997367E+00 -0.34444834500E-01  0.12646049868E+00  0.19970211551E-01 0.  0.
         14    1    1    2    0    0  0.12234817367E-01 -0.16485387080E-01 -0.15422659343E-01  0.25677172048E-01  0.00000000000E+00 0.  1.
     999901    1    3    3    0    0  0.21011209523E-02  0.13565536075E+00  0.49867493843E-01  0.89179232927E+00  0.88000000000E+00 0. -1.
        -11    1    4    4    0    0 -0.19263805729E-01 -0.89077943055E-01 -0.27267280597E-01  0.95130120689E-01  0.51100000000E-03 0. -1.
         11    1    4    4    0    0  0.49278674093E-02 -0.30092030618E-01 -0.71775539031E-02  0.31330377989E-01  0.51100000000E-03 0.  1.
</event>
<event>
 8    1  0.1114447E+005  0.1043930E+01  0.7957747E-01            NaN
         13   -1    0    0    0    0  0.00000000000E+00  0.00000000000E+00  0.74505805969E-08  0.10566000000E+00  0.10566000000E+00 0. -1.
     999900   -1    0    0    0    0 -0.00000000000E+00 -0.00000000000E+00 -0.74505805969E-08  0.93827000000E+00  0.93827000000E+00 0.  1.
     999902    2    1    2    0    0 -0.15531829251E-02 -0.22361717050E-01 -0.72852684215E-02  0.10203602333E+01  0.10200879726E+01 0.  0.
     999903    2    3    3    0    0  0.26163496228E-01 -0.39287863468E-01  0.12019142627E+00  0.13058216185E+00  0.19433406641E-01 0.  0.
         14    1    1    2    0    0  0.15531829251E-02  0.22361717050E-01  0.72852684215E-02  0.23569766707E-01  0.00000000000E+00 0.  1.
     999901    1    3    3    0    0 -0.27716679153E-01  0.16926146418E-01 -0.12747669469E+00  0.88977807145E+00  0.88000000000E+00 0.  1.
        -11    1    4    4    0    0  0.21432505605E-01 -0.38853906135E-01  0.93872110703E-01  0.10383261822E+00  0.51100000000E-03 0. -1.
         11    1    4    4    0    0  0.47309906229E-02 -0.43395733300E-03  0.26319315565E-01  0.26749543623E-01  0.51100000000E-03 0.  1.
</event>
<event>
 8    1  0.1114447E+005  0.1043930E+01  0.7957747E-01            NaN
         13   -1    0    0    0    0  0.00000000000E+00  0.00000000000E+00  0.74505805969E-08  0.10566000000E+00  0.10566000000E+00 0.  1.
     999900   -1    0    0    0    0 -0.00000000000E+00 -0.00000000000E+00 -0.74505805969E-08  0.93827000000E+00  0.93827000000E+00 0. -1.
     999902    2    1    2    0    0  0.72675118257E-02 -0.20818579617E-01 -0.13788068756E-02  0.10218363110E+01  0.10215974331E+01 0.  0.
     999903    2    3    3    0    0  0.11762213464E+00 -0.46795345477E-01 -0.37570958453E-01  0.13382572154E+00  0.21748009377E-01 0.  0.
         14    1    1    2    0    0 -0.72675118257E-02  0.20818579617E-01  0.13788068756E-02  0.22093689004E-01  0.00000000000E+00 0. -1.
     999901    1    3    3    0    0 -0.11035462282E+00  0.25976765860E-01  0.36192151578E-01  0.88801058945E+00  0.88000000000E+00 0.  1.
        -11    1    4    4    0    0  0.84354151435E-01 -0.24862326426E-01 -0.32015862325E-01  0.93589714719E-01  0.51100000000E-03 0. -1.
         11    1    4    4    0    0  0.33267983206E-01 -0.21933019051E-01 -0.55550961282E-02  0.40236006826E-01  0.51100000000E-03 0.  1.
</event>
<event>
 8    1  0.1114447E+005  0.1043930E+01  0.7957747E-01            NaN
         13   -1    0    0    0    0  0.00000000000E+00  0.00000000000E+00  0.74505805969E-08  0.10566000000E+00  0.10566000000E+00 0.  1.
     999900   -1    0    0    0    0 -0.00000000000E+00 -0.00000000000E+00 -0.74505805969E-08  0.93827000000E+00  0.93827000000E+00 0.  1.
     999902    2    1    2    0    0  0.10098112427E-01  0.75322223454E-02 -0.19093392457E-01  0.10210550381E+01  0.10207987690E+01 0.  0.
     999903    2    3    3    0    0  0.10905736417E+00 -0.32889177961E-01  0.60574890037E-01  0.13101354558E+00  0.22804059205E-01 0.  0.
         14    1    1    2    0    0 -0.10098112427E-01 -0.75322223454E-02  0.19093392457E-01  0.22874961936E-01  0.00000000000E+00 0.  1.
     999901    1    3    3    0    0 -0.98959251740E-01  0.40421400306E-01 -0.79668282494E-01  0.89004149248E+00  0.88000000000E+00 0.  1.
        -11    1    4    4    0    0  0.57005050558E-01 -0.28719479951E-01  0.30418937652E-01  0.70710375523E-01  0.51100000000E-03 0.  1.
         11    1    4    4    0    0  0.52052313609E-01 -0.41696980104E-02  0.30155952385E-01  0.60303170056E-01  0.51100000000E-03 0. -1.
</event>
<event>
 8    1  0.1114447E+005  0.1043930E+01  0.7957747E-01            NaN
         13   -1    0    0    0    0  0.00000000000E+00  0.00000000000E+00  0.74505805969E-08  0.10566000000E+00  0.10566000000E+00 0.  1.
     999900   -1    0    0    0    0 -0.00000000000E+00 -0.00000000000E+00 -0.74505805969E-08  0.93827000000E+00  0.93827000000E+00 0.  1.
     999902    2    1    2    0    0 -0.76283569094E-02  0.19793671294E-01 -0.12140383213E-01  0.10194888430E+01  0.10191958255E+01 0.  0.
     999903    2    3    3    0    0 -0.12824225978E+00  0.14239600063E-01 -0.13137328811E-01  0.13124363180E+00  0.20086265822E-01 0.  0.
         14    1    1    2    0    0  0.76283569094E-02 -0.19793671294E-01  0.12140383213E-01  0.24441157030E-01  0.00000000000E+00 0. -1.
     999901    1    3    3    0    0  0.12061390287E+00  0.55540712313E-02  0.99694559792E-03  0.88824521117E+00  0.88000000000E+00 0. -1.
        -11    1    4    4    0    0 -0.53510267255E-01 -0.33872061253E-02 -0.20124108351E-02  0.53657551057E-01  0.51100000000E-03 0. -1.
         11    1    4    4    0    0 -0.74731992526E-01  0.17626806188E-01 -0.11124917976E-01  0.77586080738E-01  0.51100000000E-03 0.  1.
</event>
<event>
 8    1  0.1114447E+005  0.1043930E+01  0.7957747E-01            NaN
         13   -1    0    0    0    0  0.00000000000E+00  0.00000000000E+00  0.74505805969E-08  0.10566000000E+00  0.10566000000E+00 0. -1.
     999900   -1    0    0    0    0 -0.00000000000E+00 -0.00000000000E+00 -0.74505805969E-08  0.93827000000E+00  0.93827000000E+00 0. -1.
     999902    2    1    2    0    0  0.19463626711E-01 -0.31910005312E-02 -0.14432503661E-01  0.10194900243E+01  0.10191970356E+01 0.  0.
     999903    2    3    3    0    0 -0.80102226859E-03 -0.11330639557E+00 -0.62732120813E-01  0.13108194847E+00  0.20203398704E-01 0.  0.
         14    1    1    2    0    0 -0.19463626711E-01  0.31910005312E-02  0.14432503661E-01  0.24439975676E-01  0.00000000000E+00 0. -1.
     999901    1    3    3    0    0  0.20264648979E-01  0.11011539504E+00  0.48299617152E-01  0.88840807585E+00  0.88000000000E+00 0.  1.
        -11    1    4    4    0    0  0.95129394494E-02 -0.48614197091E-01 -0.28854628449E-01  0.57329633522E-01  0.51100000000E-03 0. -1.
         11    1    4    4    0    0 -0.10313961718E-01 -0.64692198480E-01 -0.33877492364E-01  0.73752314949E-01  0.51100000000E-03 0.  1.
</event>
<event>
 8    1  0.1114447E+005  0.1043930E+01  0.7957747E-01            NaN
         13   -1    0    0    0    0  0.00000000000E+00  0.00000000000E+00  0.74505805969E-08  0.10566000000E+00  0.10566000000E+00 0. -1.
     999900   -1    0    0    0    0 -0.00000000000E+00 -0.00000000000E+00 -0.74505805969E-08  0.93827000000E+00  0.93827000000E+00 0. -1.
     999902    2    1    2    0    0  0.16668021719E-01  0.78949167679E-02  0.16480813564E-01  0.10191960178E+01  0.10188958499E+01 0.  0.
     999903    2    3    3    0    0 -0.81741724399E-01 -0.14593119397E-02 -0.94380602670E-01  0.12674868977E+00  0.21764491724E-01 0.  0.
         14    1    1    2    0    0 -0.16668021719E-01 -0.78949167679E-02 -0.16480813564E-01  0.24733982181E-01  0.00000000000E+00 0.  1.
     999901    1    3    3    0    0  0.98409746118E-01  0.93542287076E-02  0.11086141623E+00  0.89244732805E+00  0.88000000000E+00 0.  1.
        -11    1    4    4    0    0 -0.28172289066E-01 -0.42688929435E-02 -0.19090521248E-01  0.34301755650E-01  0.51100000000E-03 0.  1.
         11    1    4    4    0    0 -0.53569435333E-01  0.28095810039E-02 -0.75290081422E-01  0.92446934124E-01  0.51100000000E-03 0. -1.
</event>
<event>
 8    1  0.1114447E+005  0.1043930E+01  0.7957747E-01            NaN
         13   -1    0    0    0    0  0.00000000000E+00  0.00000000000E+00  0.74505805969E-08  0.10566000000E+00  0.10566000000E+00 0. -1.
     999900   -1    0    0    0    0 -0.00000000000E+00 -0.00000000000E+00 -0.74505805969E-08  0.93827000000E+00  0.93827000000E+00 0.  1.
     999902    2    1    2    0    0  0.16250666656E-01 -0.14299918975E-01  0.96203192454E-02  0.10202419779E+01  0.10199669461E+01 0.  0.
     999903    2    3    3    0    0 -0.43238206492E-02  0.12274250813E+00  0.35720776528E-01  0.12901519966E+00  0.16867991542E-01 0.  0.
         14    1    1    2    0    0 -0.16250666656E-01  0.14299918975E-01 -0.96203192454E-02  0.23688022118E-01  0.00000000000E+00 0.  1.
     999901    1    3    3    0    0  0.20574487306E-01 -0.13704242711E+00 -0.26100457283E-01  0.89122677823E+00  0.88000000000E+00 0. -1.
        -11    1    4    4    0    0  0.57073687004E-02  0.61367876265E-01  0.20906341722E-01  0.65083996036E-01  0.51100000000E-03 0. -1.
         11    1    4    4    0    0 -0.10031189350E-01  0.61374631869E-01  0.14814434806E-01  0.63931203621E-01  0.51100000000E-03 0.  1.
</event>
<event>
 8    1  0.1243074E+005  0.1043930E+01  0.7957747E-01            NaN
         13   -1    0    0    0    0  0.00000000000E+00  0.00000000000E+00  0.74505805969E-08  0.10566000000E+00  0.10566000000E+00 0.  1.
     999900   -1    0    0    0    0 -0.00000000000E+00 -0.00000000000E+00 -0.74505805969E-08  0.93827000000E+00  0.93827000000E+00 0. -1.
     999902    2    1    2    0    0  0.19127714631E-01 -0.89640588481E-02 -0.11318593629E-01  0.10199647255E+01  0.10196831405E+01 0.  0.
     999903    2    3    3    0    0  0.47989068794E-01  0.73222932294E-01  0.92919993042E-01  0.12954158892E+00  0.21962459253E-01 0.  0.
         14    1    1    2    0    0 -0.19127714631E-01  0.89640588481E-02  0.11318593629E-01  0.23965274457E-01  0.00000000000E+00 0.  1.
     999901    1    3    3    0    0 -0.28861354162E-01 -0.82186991142E-01 -0.10423858667E+00  0.89042313662E+00  0.88000000000E+00 0. -1.
        -11    1    4    4    0    0  0.23561030772E-01  0.54820154792E-01  0.61188763714E-01  0.85467522886E-01  0.51100000000E-03 0.  1.
         11    1    4    4    0    0  0.24428038022E-01  0.18402777502E-01  0.31731229328E-01  0.44074066037E-01  0.51100000000E-03 0. -1.
</event>
<event>
 8    1  0.1114447E+005  0.1043930E+01  0.7957747E-01            NaN
         13   -1    0    0    0    0  0.00000000000E+00  0.00000000000E+00  0.74505805969E-08  0.10566000000E+00  0.10566000000E+00 0. -1.
     999900   -1    0    0    0    0 -0.00000000000E+00 -0.00000000000E+00 -0.74505805969E-08  0.93827000000E+00  0.93827000000E+00 0. -1.
     999902    2    1    2    0    0  0.65305952709E-02 -0.12738321915E-01  0.15210754798E-01  0.10230426694E+01  0.10228294202E+01 0.  0.
     999903    2    3    3    0    0 -0.94542140548E-01  0.54696258433E-01  0.72894299056E-01  0.13282330772E+00  0.19963847662E-01 0.  0.
         14    1    1    2    0    0 -0.65305952709E-02  0.12738321915E-01 -0.15210754798E-01  0.20887330642E-01  0.00000000000E+00 0.  1.
     999901    1    3    3    0    0  0.10107273582E+00 -0.67434580349E-01 -0.57683544257E-01  0.89021936164E+00  0.88000000000E+00 0. -1.
        -11    1    4    4    0    0 -0.63960763561E-01  0.46899217854E-01  0.48929407215E-01  0.93192617315E-01  0.51100000000E-03 0. -1.
         11    1    4    4    0    0 -0.30581376987E-01  0.77970405793E-02  0.23964891841E-01  0.39630690407E-01  0.51100000000E-03 0.  1.
</event>
<event>
 8    1  0.1114447E+005  0.1043930E+01  0.7957747E-01            NaN
         13   -1    0    0    0    0  0.00000000000E+00  0.00000000000E+00  0.74505805969E-08  0.10566000000E+00  0.10566000000E+00 0. -1.
     999900   -1    0    0    0    0 -0.00000000000E+00 -0.00000000000E+00 -0.74505805969E-08  0.93827000000E+00  0.93827000000E+00 0.  1.
     999902    2    1    2    0    0 -0.18327442134E-01  0.58391653779E-02 -0.14878730245E-01  0.10196119491E+01  0.10193219114E+01 0.  0.
     999903    2    3    3    0    0 -0.16319438803E-01 -0.11639594008E-01  0.12509365708E+00  0.12837583651E+00  0.20739530542E-01 0.  0.
         14    1    1    2    0    0  0.18327442134E-01 -0.58391653779E-02  0.14878730245E-01  0.24318050933E-01  0.00000000000E+00 0.  1.
     999901    1    3    3    0    0 -0.20080033307E-02  0.17478759386E-01 -0.13997238733E+00  0.89123611255E+00  0.88000000000E+00 0.  1.
        -11    1    4    4    0    0 -0.19146729734E-01 -0.33592556198E-02  0.97621261306E-01  0.99539206536E-01  0.51100000000E-03 0.  1.
         11    1    4    4    0    0  0.28272909308E-02 -0.82803383886E-02  0.27472395774E-01  0.28836629977E-01  0.51100000000E-03 0. -1.
</event>
<event>
 8    1  0.1114447E+005  0.1043930E+01  0.7957747E-01            NaN
         13   -1    0    0    0    0  0.00000000000E+00  0.00000000000E+00  0.74505805969E-08  0.10566000000E+00  0.10566000000E+00 0.  1.
     999900   -1    0    0    0    0 -0.00000000000E+00 -0.00000000000E+00 -0.74505805969E-08  0.93827000000E+00  0.93827000000E+00 0. -1.
     999902    2    1    2    0    0 -0.20046815983E-01 -0.10621509175E-01 -0.68806556196E-02  0.10202227288E+01  0.10199472445E+01 0.  0.
     999903    2    3    3    0    0 -0.13123715162E+00  0.42190641335E-02  0.54519316508E-02  0.13301608650E+00  0.20556391700E-01 0.  0.
         14    1    1    2    0    0  0.20046815983E-01  0.10621509175E-01  0.68806556196E-02  0.23707271246E-01  0.00000000000E+00 0.  1.
     999901    1    3    3    0    0  0.11119033564E+00 -0.14840573309E-01 -0.12332587270E-01  0.88720664226E+00  0.88000000000E+00 0. -1.
        -11    1    4    4    0    0 -0.34226801442E-01 -0.76995882140E-02 -0.55894860093E-03  0.35090328299E-01  0.51100000000E-03 0.  1.
         11    1    4    4    0    0 -0.97010350182E-01  0.11918652348E-01  0.60108802517E-02  0.97925758197E-01  0.51100000000E-03 0. -1.
</event>
<event>
 8    1  0.1114447E+005  0.1043930E+01  0.7957747E-01            NaN
         13   -1    0    0    0    0  0.00000000000E+00  0.00000000000E+00  0.74505805969E-08  0.10566000000E+00  0.10566000000E+00 0.  1.
     999900   -1    0    0    0    0 -0.00000000000E+00 -0.00000000000E+00 -0.74505805969E-08  0.93827000000E+00  0.93827000000E+00 0. -1.
     999902    2    1    2    0    0  0.81200756474E-02 -0.11396722080E-01 -0.18632741564E-01  0.10206276404E+01  0.10203615930E+01 0.  0.
     999903    2    3    3    0    0 -0.70611583828E-01  0.10407998604E+00 -0.24635681545E-01  0.12957793386E+00  0.19101959929E-01 0.  0.
         14    1    1    2    0    0 -0.81200756474E-02  0.11396722080E-01  0.18632741564E-01  0.23302359556E-01  0.00000000000E+00 0. -1.
     999901    1    3    3    0    0  0.78731659476E-01 -0.11547670812E+00  0.60029399802E-02  0.89104970659E+00  0.88000000000E+00 0.  1.
        -11    1    4    4    0    0 -0.27828601635E-01  0.34228618876E-01 -0.27162591747E-03  0.44117619164E-01  0.51100000000E-03 0. -1.
         11    1    4    4    0    0 -0.42782982193E-01  0.69851367161E-01 -0.24364055627E-01  0.85460314692E-01  0.51100000000E-03 0.  1.
</event>
<event>
 8    1  0.1114447E+005  0.1043930E+01  0.7957747E-01            NaN
         13   -1    0    0    0    0  0.00000000000E+00  0.00000000000E+00  0.74505805969E-08  0.10566000000E+00  0.10566000000E+00 0.  1.
     999900   -1    0    0    0    0 -0.00000000000E+00 -0.00000000000E+00 -0.74505805969E-08  0.93827000000E+00  0.93827000000E+00 0.  1.
     999902    2    1    2    0    0 -0.13276468824E-01  0.15703785537E-01  0.11683188984E-01  0.10202789871E+01  0.10200048241E+01 0.  0.
     999903    2    3    3    0    0 -0.54456837008E-01  0.11378980810E+00 -0.35136890008E-01  0.13263671102E+00  0.21076729988E-01 0.  0.
         14    1    1    2    0    0  0.13276468824E-01 -0.15703785537E-01 -0.11683188984E-01  0.23651012864E-01  0.00000000000E+00 0. -1.
     999901    1    3    3    0    0  0.41180368184E-01 -0.98086022564E-01  0.46820078992E-01  0.88764227611E+00  0.88000000000E+00 0. -1.
        -11    1    4    4    0    0 -0.44386586476E-01  0.95226199197E-01 -0.20792846440E-01  0.10710182845E+00  0.51100000000E-03 0.  1.
         11    1    4    4    0    0 -0.10070250532E-01  0.18563608904E-01 -0.14344043568E-01  0.25534882577E-01  0.51100000000E-03 0. -1.
</event>
<event>
 8    1  0.1114447E+005  0.1043930E+01  0.7957747E-01            NaN
         13   -1    0    0    0    0  0.00000000000E+00  0.00000000000E+00  0.74505805969E-08  0.10566000000E+00  0.10566000000E+00 0. -1.
     999900   -1    0    0    0    0 -0.00000000000E+00 -0.00000000000E+00 -0.74505805969E-08  0.93827000000E+00  0.93827000000E+00 0.  1.
     999902    2    1    2    0    0 -0.16012249394E-01  0.62874757499E-02 -0.13557419939E-01  0.10220273034E+01  0.10217925821E+01 0.  0.
     999903    2    3    3    0    0  0.65609797083E-01  0.11259371458E-01  0.10945878602E+00  0.12971577422E+00  0.20335617153E-01 0.  0.
         14    1    1    2    0    0  0.16012249394E-01 -0.62874757499E-02  0.13557419939E-01  0.21902696577E-01  0.00000000000E+00 0. -1.
     999901    1    3    3    0    0 -0.81622046476E-01 -0.49718957079E-02 -0.12301620596E+00  0.89231152920E+00  0.88000000000E+00 0.  1.
        -11    1    4    4    0    0  0.33644808397E-01  0.44910991016E-02  0.74458901968E-01  0.81832342668E-01  0.51100000000E-03 0.  1.
         11    1    4    4    0    0  0.31964988686E-01  0.67682723563E-02  0.34999884056E-01  0.47883431553E-01  0.51100000000E-03 0. -1.
</event>
<event>
 8    1  0.1114447E+005  0.1043930E+01  0.7957747E-01            NaN
         13   -1    0    0    0    0  0.00000000000E+00  0.00000000000E+00  0.74505805969E-08  0.10566000000E+00  0.10566000000E+00 0.  1.
     999900   -1    0    0    0    0 -0.00000000000E+00 -0.00000000000E+00 -0.74505805969E-08  0.93827000000E+00  0.93827000000E+00 0.  1.
     999902    2    1    2    0    0  0.23692025237E-01 -0.47889585314E-02 -0.55798934593E-03  0.10197523753E+01  0.10194657176E+01 0.  0.
     999903    2    3    3    0    0 -0.11260043994E+00  0.14528674062E-01 -0.54296689342E-01  0.12743143816E+00  0.20017480215E-01 0.  0.
         14    1    1    2    0    0 -0.23692025237E-01  0.47889585314E-02  0.55798934593E-03  0.24177624692E-01  0.00000000000E+00 0.  1.
     999901    1    3    3    0    0  0.13629246518E+00 -0.19317632593E-01  0.53738699996E-01  0.89232093715E+00  0.88000000000E+00 0.  1.
        -11    1    4    4    0    0 -0.83680863527E-01  0.18914404699E-02 -0.38449448035E-01  0.92112353367E-01  0.51100000000E-03 0. -1.
         11    1    4    4    0    0 -0.28919576412E-01  0.12637233592E-01 -0.15847241307E-01  0.35319084795E-01  0.51100000000E-03 0.  1.
</event>
<event>
 8    1  0.1114447E+005  0.1043930E+01  0.7957747E-01            NaN
         13   -1    0    0    0    0  0.00000000000E+00  0.00000000000E+00  0.74505805969E-08  0.10566000000E+00  0.10566000000E+00 0.  1.
     999900   -1    0    0    0    0 -0.00000000000E+00 -0.00000000000E+00 -0.74505805969E-08  0.93827000000E+00  0.93827000000E+00 0. -1.
     999902    2    1    2    0    0  0.17442090313E-01  0.58537164293E-02  0.15155055318E-01  0.10200937207E+01  0.10198151944E+01 0.  0.
     999903    2    3    3    0    0 -0.26609995528E-01  0.10012571509E+00  0.78607004266E-01  0.13169406634E+00  0.20760908105E-01 0.  0.
         14    1    1    2    0    0 -0.17442090313E-01 -0.58537164293E-02 -0.15155055318E-01  0.23836279328E-01  0.00000000000E+00 0. -1.
     999901    1    3    3    0    0  0.44052085842E-01 -0.94271998656E-01 -0.63451948948E-01  0.88839965434E+00  0.88000000000E+00 0.  1.
        -11    1    4    4    0    0 -0.17204067019E-01  0.29116742104E-01  0.29110614846E-01  0.44625705714E-01  0.51100000000E-03 0. -1.
         11    1    4    4    0    0 -0.94059285093E-02  0.71008972981E-01  0.49496389419E-01  0.87068360623E-01  0.51100000000E-03 0.  1.
</event>
<event>
 8    1  0.1114447E+005  0.1043930E+01  0.7957747E-01            NaN
         13   -1    0    0    0    0  0.00000000000E+00  0.00000000000E+00  0.74505805969E-08  0.10566000000E+00  0.10566000000E+00 0.  1.
     999900   -1    0    0    0    0 -0.00000000000E+00 -0.00000000000E+00 -0.74505805969E-08  0.93827000000E+00  0.93827000000E+00 0. -1.
     999902    2    1    2    0    0 -0.77128509186E-02 -0.13228681659E-01  0.17873442696E-01  0.10203939417E+01  0.10201224682E+01 0.  0.
     999903    2    3    3    0    0  0.79514075070E-01  0.90407115983E-01  0.43941040096E-01  0.12964794263E+00  0.19540708025E-01 0.  0.
         14    1    1    2    0    0  0.77128509186E-02  0.13228681659E-01 -0.17873442696E-01  0.23536058326E-01  0.00000000000E+00 0. -1.
     999901    1    3    3    0    0 -0.87226925988E-01 -0.10363579764E+00 -0.26067597400E-01  0.89074599904E+00  0.88000000000E+00 0.  1.
        -11    1    4    4    0    0  0.30997504605E-01  0.48911523945E-01  0.24807902821E-01  0.62999012926E-01  0.51100000000E-03 0. -1.
         11    1    4    4    0    0  0.48516570465E-01  0.41495592039E-01  0.19133137275E-01  0.66648929709E-01  0.51100000000E-03 0.  1.
</event>
<event>
 8    1  0.1114447E+005  0.1043930E+01  0.7957747E-01            NaN
         13   -1    0    0    0    0  0.00000000000E+00  0.00000000000E+00  0.74505805969E-08  0.10566000000E+00  0.10566000000E+00 0. -1.
     999900   -1    0    0    0    0 -0.00000000000E+00 -0.00000000000E+00 -0.74505805969E-08  0.93827000000E+00  0.93827000000E+00 0.  1.
     999902    2    1    2    0    0  0.14113639657E-01 -0.19190645222E-01  0.53196388323E-03  0.10201023129E+01  0.10198239897E+01 0.  0.
     999903    2    3    3    0    0  0.69107684411E-01 -0.11025721769E+00 -0.21539498524E-01  0.13342051254E+00  0.20113604204E-01 0.  0.
         14    1    1    2    0    0 -0.14113639657E-01  0.19190645222E-01 -0.53196388323E-03  0.23827687131E-01  0.00000000000E+00 0. -1.
     999901    1    3    3    0    0 -0.54994044754E-01  0.91066572463E-01  0.22071462407E-01  0.88668180033E+00  0.88000000000E+00 0.  1.
        -11    1    4    4    0    0  0.31794114149E-01 -0.61284750056E-01 -0.29528120548E-02  0.69106197291E-01  0.51100000000E-03 0.  1.
         11    1    4    4    0    0  0.37313570262E-01 -0.48972467629E-01 -0.18586686469E-01  0.64314315251E-01  0.51100000000E-03 0. -1.
</event>
<event>
 8    1  0.1114447E+005  0.1043930E+01  0.7957747E-01            NaN
         13   -1    0    0    0    0  0.00000000000E+00  0.00000000000E+00  0.74505805969E-08  0.10566000000E+00  0.10566000000E+00 0.  1.
     999900   -1    0    0    0    0 -0.00000000000E+00 -0.00000000000E+00 -0.74505805969E-08  0.93827000000E+00  0.93827000000E+00 0.  1.
     999902    2    1    2    0    0 -0.19282152747E-01  0.49761824395E-02 -0.14414165571E-01  0.10193468355E+01  0.10190503614E+01 0.  0.
     999903    2    3    3    0    0  0.10454988457E+00  0.18644307168E-01 -0.69779624909E-01  0.12884892695E+00  0.21320444880E-01 0.  0.
         14    1    1    2    0    0  0.19282152747E-01 -0.49761824395E-02  0.14414165571E-01  0.24583164470E-01  0.00000000000E+00 0.  1.
     999901    1    3    3    0    0 -0.12383203732E+00 -0.13668124728E-01  0.55365459338E-01  0.89049790858E+00  0.88000000000E+00 0. -1.
        -11    1    4    4    0    0  0.58270756216E-01  0.42146692293E-02 -0.48383023635E-01  0.75857910358E-01  0.51100000000E-03 0.  1.
         11    1    4    4    0    0  0.46279128355E-01  0.14429637939E-01 -0.21396601274E-01  0.52991016591E-01  0.51100000000E-03 0. -1.
</event>
<event>
 8    1  0.1114447E+005  0.1043930E+01  0.7957747E-01            NaN
         13   -1    0    0    0    0  0.00000000000E+00  0.00000000000E+00  0.74505805969E-08  0.10566000000E+00  0.10566000000E+00 0.  1.
     999900   -1    0    0    0    0 -0.00000000000E+00 -0.00000000000E+00 -0.74505805969E-08  0.93827000000E+00  0.93827000000E+00 0. -1.
     999902    2    1    2    0    0  0.32589946079E-02  0.20264127465E-01  0.10438945686E-01  0.10209033308E+01  0.10206436123E+01 0.  0.
     999903    2    3    3    0    0  0.92174594624E-01 -0.87068302409E-01 -0.17587269280E-01  0.12949337844E+00  0.19549369313E-01 0.  0.
         14    1    1    2    0    0 -0.32589946079E-02 -0.20264127465E-01 -0.10438945686E-01  0.23026669208E-01  0.00000000000E+00 0. -1.
     999901    1    3    3    0    0 -0.88915600016E-01  0.10733242987E+00  0.28026214965E-01  0.89140995235E+00  0.88000000000E+00 0.  1.
        -11    1    4    4    0    0  0.52621016021E-01 -0.41356704567E-01 -0.15344316682E-02  0.66947471508E-01  0.51100000000E-03 0.  1.
         11    1    4    4    0    0  0.39553578602E-01 -0.45711597842E-01 -0.16052837611E-01  0.62545906931E-01  0.51100000000E-03 0. -1.
</event>
<event>
 8    1  0.1114447E+005  0.1043930E+01  0.7957747E-01            NaN
         13   -1    0    0    0    0  0.00000000000E+00  0.00000000000E+00  0.74505805969E-08  0.10566000000E+00  0.10566000000E+00 0. -1.
     999900   -1    0    0    0    0 -0.00000000000E+00 -0.00000000000E+00 -0.74505805969E-08  0.93827000000E+00  0.93827000000E+00 0. -1.
     999902    2    1    2    0    0  0.70396969750E-03 -0.20893299104E-01 -0.10851211543E-01  0.10203763525E+01  0.10201044683E+01 0.  0.
     999903    2    3    3    0    0 -0.12823229293E+00  0.14911282438E-02  0.12591422718E-01  0.13039029666E+00  0.19933417283E-01 0.  0.
         14    1    1    2    0    0 -0.70396969750E-03  0.20893299104E-01  0.10851211543E-01  0.23553647546E-01  0.00000000000E+00 0. -1.
     999901    1    3    3    0    0  0.12893626262E+00 -0.22384427348E-01 -0.23442634261E-01  0.88998605579E+00  0.88000000000E+00 0. -1.
        -11    1    4    4    0    0 -0.27808252073E-01 -0.46296928507E-02  0.94235872658E-02  0.29728741265E-01  0.51100000000E-03 0. -1.
         11    1    4    4    0    0 -0.10042404085E+00  0.61208210945E-02  0.31678354525E-02  0.10066155539E+00  0.51100000000E-03 0.  1.
</event>
<event>
 8    1  0.1114447E+005  0.1043930E+01  0.7957747E-01            NaN
         13   -1    0    0    0    0  0.00000000000E+00  0.00000000000E+00  0.74505805969E-08  0.10566000000E+00  0.10566000000E+00 0. -1.
     999900   -1    0    0    0    0 -0.00000000000E+00 -0.00000000000E+00 -0.74505805969E-08  0.93827000000E+00  0.93827000000E+00 0.  1.
     999902    2    1    2    0    0  0.21398286209E-01 -0.11014824362E-01  0.98848860136E-02  0.10179122372E+01  0.10175796768E+01 0.  0.
     999903    2    3    3    0    0  0.42922257635E-01 -0.12139665973E+00  0.10720853011E-01  0.13075490633E+00  0.20060898386E-01 0.  0.
         14    1    1    2    0    0 -0.21398286209E-01  0.11014824362E-01 -0.98848860136E-02  0.26017762777E-01  0.00000000000E+00 0.  1.
     999901    1    3    3    0    0 -0.21523971426E-01  0.11038183537E+00 -0.83596699726E-03  0.88715733090E+00  0.88000000000E+00 0. -1.
        -11    1    4    4    0    0  0.38768569521E-01 -0.10437167908E+00  0.24435315173E-02  0.11136732619E+00  0.51100000000E-03 0. -1.
         11    1    4    4    0    0  0.41536881137E-02 -0.17024980656E-01  0.82773214935E-02  0.19387580132E-01  0.51100000000E-03 0.  1.
</event>
<event>
 8    1  0.1114447E+005  0.1043930E+01  0.7957747E-01            NaN
         13   -1    0    0    0    0  0.00000000000E+00  0.00000000000E+00  0.74505805969E-08  0.10566000000E+00  0.10566000000E+00 0. -1.
     999900   -1    0    0    0    0 -0.00000000000E+00 -0.00000000000E+00 -0.74505805969E-08  0.93827000000E+00  0.93827000000E+00 0. -1.
     999902    2    1    2    0    0 -0.10732770911E-01 -0.20680859097E-01 -0.74815509633E-02  0.10194583039E+01  0.10191645449E+01 0.  0.
     999903    2    3    3    0    0  0.38830623996E-01  0.92973878315E-02 -0.12212324468E+00  0.13013387305E+00  0.20651373868E-01 0.  0.
         14    1    1    2    0    0  0.10732770911E-01  0.20680859097E-01  0.74815509633E-02  0.24471696084E-01  0.00000000000E+00 0. -1.
     999901    1    3    3    0    0 -0.49563394907E-01 -0.29978246929E-01  0.11464169372E+00  0.88932443087E+00  0.88000000000E+00 0.  1.
        -11    1    4    4    0    0  0.31950085843E-01  0.44934507882E-02 -0.66914759817E-01  0.74288931126E-01  0.51100000000E-03 0.  1.
         11    1    4    4    0    0  0.68805381530E-02  0.48039370433E-02 -0.55208484861E-01  0.55844941920E-01  0.51100000000E-03 0. -1.
</event>
<event>
 8    1  0.1114447E+005  0.1043930E+01  0.7957747E-01            NaN
         13   -1    0    0    0    0  0.00000000000E+00  0.00000000000E+00  0.74505805969E-08  0.10566000000E+00  0.10566000000E+00 0. -1.
     999900   -1    0    0    0    0 -0.00000000000E+00 -0.00000000000E+00 -0.74505805969E-08  0.93827000000E+00  0.93827000000E+00 0.  1.
     999902    2    1    2    0    0 -0.20729631565E-01  0.10319917265E-01 -0.33544686629E-02  0.10205319065E+01  0.10202636431E+01 0.  0.
     999903    2    3    3    0    0  0.24734767770E-01 -0.11377505084E+00  0.51747601984E-01  0.12895868414E+00  0.19898667658E-01 0.  0.
         14    1    1    2    0    0  0.20729631565E-01 -0.10319917265E-01  0.33544686629E-02  0.23398093452E-01  0.00000000000E+00 0. -1.
     999901    1    3    3    0    0 -0.45464399335E-01  0.12409496811E+00 -0.55102070647E-01  0.89157322240E+00  0.88000000000E+00 0.  1.
        -11    1    4    4    0    0  0.38655573751E-02 -0.64182913275E-01  0.29119105659E-01  0.70587338282E-01  0.51100000000E-03 0. -1.
         11    1    4    4    0    0  0.20869210395E-01 -0.49592137566E-01  0.22628496326E-01  0.58371345863E-01  0.51100000000E-03 0.  1.
</event>
<event>
 8    1  0.1114447E+005  0.1043930E+01  0.7957747E-01            NaN
         13   -1    0    0    0    0  0.00000000000E+00  0.00000000000E+00  0.74505805969E-08  0.10566000000E+00  0.10566000000E+00 0. -1.
     999900   -1    0    0    0    0 -0.00000000000E+00 -0.00000000000E+00 -0.74505805969E-08  0.93827000000E+00  0.93827000000E+00 0.  1.
     999902    2    1    2    0    0 -0.94201138263E-02 -0.16256720744E-01 -0.13692083550E-01  0.10206815019E+01  0.10204166970E+01 0.  0.
     999903    2    3    3    0    0 -0.57730339269E-01 -0.11639664285E+00  0.19625052889E-01  0.13306000963E+00  0.20948816768E-01 0.  0.
         14    1    1    2    0    0  0.94201138263E-02  0.16256720744E-01  0.13692083550E-01  0.23248498141E-01  0.00000000000E+00 0. -1.
     999901    1    3    3    0    0  0.48310225443E-01  0.10013992210E+00 -0.33317136439E-01  0.88762149223E+00  0.88000000000E+00 0. -1.
        -11    1    4    4    0    0 -0.71407556105E-02 -0.75752071653E-02  0.66269306061E-02  0.12351173408E-01  0.51100000000E-03 0.  1.
         11    1    4    4    0    0 -0.50589583658E-01 -0.10882143568E+00  0.12998122283E-01  0.12070883623E+00  0.51100000000E-03 0. -1.
</event>
<event>
 8    1  0.1114447E+005  0.1043930E+01  0.7957747E-01            NaN
         13   -1    0    0    0    0  0.00000000000E+00  0.00000000000E+00  0.74505805969E-08  0.10566000000E+00  0.10566000000E+00 0. -1.
     999900   -1    0    0    0    0 -0.00000000000E+00 -0.00000000000E+00 -0.74505805969E-08  0.93827000000E+00  0.93827000000E+00 0.  1.
     999902    2    1    2    0    0 -0.20935388067E-02 -0.11856453023E-01  0.20514026168E-01  0.10201437928E+01  0.10198664493E+01 0.  0.
     999903    2    3    3    0    0  0.10939086174E+00  0.55976133371E-01 -0.33284244152E-01  0.12889507038E+00  0.20159616038E-01 0.  0.
         14    1    1    2    0    0  0.20935388067E-02  0.11856453023E-01 -0.20514026168E-01  0.23786207193E-01  0.00000000000E+00 0.  1.
     999901    1    3    3    0    0 -0.11148440055E+00 -0.67832586394E-01  0.53798270319E-01  0.89124872243E+00  0.88000000000E+00 0. -1.
        -11    1    4    4    0    0  0.89443234927E-01  0.52254270737E-01 -0.32550166188E-01  0.10858349563E+00  0.51100000000E-03 0.  1.
         11    1    4    4    0    0  0.19947626816E-01  0.37218626338E-02 -0.73407796387E-03  0.20311574743E-01  0.51100000000E-03 0. -1.
</event>
<event>
 8    1  0.1114447E+005  0.1043930E+01  0.7957747E-01            NaN
         13   -1    0    0    0    0  0.00000000000E+00  0.00000000000E+00  0.74505805969E-08  0.10566000000E+00  0.10566000000E+00 0.  1.
     999900   -1    0    0    0    0 -0.00000000000E+00 -0.00000000000E+00 -0.74505805969E-08  0.93827000000E+00  0.93827000000E+00 0.  1.
     999902    2    1    2    0    0  0.77960668381E-02  0.28233880205E-01  0.13447427185E-01  0.10117001389E+01  0.10111866332E+01 0.  0.
     999903    2    3    3    0    0 -0.56962262837E-01 -0.95222785683E-01  0.42204262970E-01  0.12026189357E+00  0.19226152255E-01 0.  0.
         14    1    1    2    0    0 -0.77960668381E-02 -0.28233880205E-01 -0.13447427185E-01  0.32229861114E-01  0.00000000000E+00 0. -1.
     999901    1    3    3    0    0  0.64758329675E-01  0.12345666589E+00 -0.28756835784E-01  0.89143824532E+00  0.88000000000E+00 0.  1.
        -11    1    4    4    0    0 -0.32593060145E-01 -0.35994716913E-01  0.17669777125E-01  0.51676003714E-01  0.51100000000E-03 0. -1.
         11    1    4    4    0    0 -0.24369202692E-01 -0.59228068770E-01  0.24534485844E-01  0.68585889852E-01  0.51100000000E-03 0.  1.
</event>
<event>
 8    1  0.1114447E+005  0.1043930E+01  0.7957747E-01            NaN
         13   -1    0    0    0    0  0.00000000000E+00  0.00000000000E+00  0.74505805969E-08  0.10566000000E+00  0.10566000000E+00 0. -1.
     999900   -1    0    0    0    0 -0.00000000000E+00 -0.00000000000E+00 -0.74505805969E-08  0.93827000000E+00  0.93827000000E+00 0. -1.
     999902    2    1    2    0    0 -0.17050411281E-01  0.33788595095E-02  0.17572728399E-01  0.10192129209E+01  0.10189131681E+01 0.  0.
     999903    2    3    3    0    0 -0.30164687309E-02  0.12443009403E+00  0.34398513263E-01  0.13065596719E+00  0.19894136443E-01 0.  0.
         14    1    1    2    0    0  0.17050411281E-01 -0.33788595095E-02 -0.17572728399E-01  0.24717079112E-01  0.00000000000E+00 0.  1.
     999901    1    3    3    0    0 -0.14033942550E-01 -0.12105123452E+00 -0.16825784864E-01  0.88855695369E+00  0.88000000000E+00 0. -1.
        -11    1    4    4    0    0 -0.34110860957E-02  0.34257547683E-01  0.84572038198E-03  0.34441130143E-01  0.51100000000E-03 0. -1.
         11    1    4    4    0    0  0.39461736474E-03  0.90172546347E-01  0.33552792881E-01  0.96214837050E-01  0.51100000000E-03 0.  1.
</event>
<event>
 8    1  0.1114447E+005  0.1043930E+01  0.7957747E-01            NaN
         13   -1    0    0    0    0  0.00000000000E+00  0.00000000000E+00  0.74505805969E-08  0.10566000000E+00  0.10566000000E+00 0.  1.
     999900   -1    0    0    0    0 -0.00000000000E+00 -0.00000000000E+00 -0.74505805969E-08  0.93827000000E+00  0.93827000000E+00 0. -1.
     999902    2    1    2    0    0 -0.22990416560E-01  0.72638657195E-02  0.15139375397E-02  0.10197718750E+01  0.10194856850E+01 0.  0.
     999903    2    3    3    0    0  0.28576485737E-01  0.11061758600E+00 -0.59974367156E-01  0.13009668225E+00  0.16593858679E-01 0.  0.
         14    1    1    2    0    0  0.22990416560E-01 -0.72638657195E-02 -0.15139375397E-02  0.24158125045E-01  0.00000000000E+00 0. -1.
     999901    1    3    3    0    0 -0.51566902297E-01 -0.10335372028E+00  0.61488304695E-01  0.88967519271E+00  0.88000000000E+00 0. -1.
        -11    1    4    4    0    0  0.95716284797E-02  0.25910427824E-01 -0.73873464671E-02  0.28597208791E-01  0.51100000000E-03 0.  1.
         11    1    4    4    0    0  0.19004857257E-01  0.84707158176E-01 -0.52587020689E-01  0.10149947345E+00  0.51100000000E-03 0. -1.
</event>
<event>
 8    1  0.1114447E+005  0.1043930E+01  0.7957747E-01            NaN
         13   -1    0    0    0    0  0.00000000000E+00  0.00000000000E+00  0.74505805969E-08  0.10566000000E+00  0.10566000000E+00 0. -1.
     999900   -1    0    0    0    0 -0.00000000000E+00 -0.00000000000E+00 -0.74505805969E-08  0.93827000000E+00  0.93827000000E+00 0. -1.
     999902    2    1    2    0    0  0.11174735353E-01 -0.17452122477E-01 -0.10559153394E-01  0.10206717324E+01  0.10204067025E+01 0.  0.
     999903    2    3    3    0    0  0.32593503710E-01  0.12027760320E+00 -0.26159855919E-01  0.12956476755E+00  0.23951046162E-01 0.  0.
         14    1    1    2    0    0 -0.11174735353E-01  0.17452122477E-01  0.10559153394E-01  0.23258267553E-01  0.00000000000E+00 0. -1.
     999901    1    3    3    0    0 -0.21418768357E-01 -0.13772972568E+00  0.15600702526E-01  0.89110696490E+00  0.88000000000E+00 0. -1.
        -11    1    4    4    0    0  0.10007478730E-01  0.24472486761E-01  0.37011641637E-02  0.26702284096E-01  0.51100000000E-03 0. -1.
         11    1    4    4    0    0  0.22586024980E-01  0.95805116440E-01 -0.29861020083E-01  0.10286248345E+00  0.51100000000E-03 0.  1.
</event>
<event>
 8    1  0.1114447E+005  0.1043930E+01  0.7957747E-01            NaN
         13   -1    0    0    0    0  0.00000000000E+00  0.00000000000E+00  0.74505805969E-08  0.10566000000E+00  0.10566000000E+00 0.  1.
     999900   -1    0    0    0    0 -0.00000000000E+00 -0.00000000000E+00 -0.74505805969E-08  0.93827000000E+00  0.93827000000E+00 0.  1.
     999902    2    1    2    0    0 -0.19338183259E-01 -0.13385815003E-01  0.37778869990E-03  0.10204079231E+01  0.10201367759E+01 0.  0.
     999903    2    3    3    0    0 -0.56067232903E-01  0.11516873396E+00  0.71692555732E-02  0.13028353905E+00  0.22694281986E-01 0.  0.
         14    1    1    2    0    0  0.19338183259E-01  0.13385815003E-01 -0.37778869990E-03  0.23522076850E-01  0.00000000000E+00 0.  1.
     999901    1    3    3    0    0  0.36729049644E-01 -0.12855454896E+00 -0.67914668733E-02  0.89012438410E+00  0.88000000000E+00 0.  1.
        -11    1    4    4    0    0 -0.33822818717E-01  0.91523257018E-01  0.39179830305E-02  0.97652963873E-01  0.51100000000E-03 0.  1.
         11    1    4    4    0    0 -0.22244414186E-01  0.23645476941E-01  0.32512725427E-02  0.32630575177E-01  0.51100000000E-03 0. -1.
</event>
<event>
 8    1  0.1114447E+005  0.1043930E+01  0.7957747E-01            NaN
         13   -1    0    0    0    0  0.00000000000E+00  0.00000000000E+00  0.74505805969E-08  0.10566000000E+00  0.10566000000E+00 0.  1.
     999900   -1    0    0    0    0 -0.00000000000E+00 -0.00000000000E+00 -0.74505805969E-08  0.93827000000E+00  0.93827000000E+00 0. -1.
     999902    2    1    2    0    0 -0.26645975487E-01 -0.97748053250E-02  0.21203519135E-01  0.10085019877E+01  0.10078795142E+01 0.  0.
     999903    2    3    3    0    0  0.20547795436E-01  0.24697318056E-01  0.11556833531E+00  0.12152944147E+00  0.19524231164E-01 0.  0.
         14    1    1    2    0    0  0.26645975487E-01  0.97748053250E-02 -0.21203519135E-01  0.35428012257E-01  0.00000000000E+00 0. -1.
     999901    1    3    3    0    0 -0.47193770922E-01 -0.34472123381E-01 -0.94364816173E-01  0.88697254627E+00  0.88000000000E+00 0. -1.
        -11    1    4    4    0    0 -0.21847244355E-02  0.10373692284E-01  0.28723043632E-01  0.30621248651E-01  0.51100000000E-03 0. -1.
         11    1    4    4    0    0  0.22732519871E-01  0.14323625773E-01  0.86845291676E-01  0.90908192822E-01  0.51100000000E-03 0.  1.
</event>
<event>
 8    1  0.1114447E+005  0.1043930E+01  0.7957747E-01            NaN
         13   -1    0    0    0    0  0.00000000000E+00  0.00000000000E+00  0.74505805969E-08  0.10566000000E+00  0.10566000000E+00 0. -1.
     999900   -1    0    0    0    0 -0.00000000000E+00 -0.00000000000E+00 -0.74505805969E-08  0.93827000000E+00  0.93827000000E+00 0.  1.
     999902    2    1    2    0    0 -0.11489117359E-01 -0.16554396312E-01 -0.22854094995E-02  0.10236501836E+01  0.10234492794E+01 0.  0.
     999903    2    3    3    0    0 -0.45384359450E-01 -0.12656861031E+00 -0.75559185311E-02  0.13613692009E+00  0.19920238679E-01 0.  0.
         14    1    1    2    0    0  0.11489117359E-01  0.16554396312E-01  0.22854094995E-02  0.20279816359E-01  0.00000000000E+00 0.  1.
     999901    1    3    3    0    0  0.33895242091E-01  0.11001421399E+00  0.52705090316E-02  0.88751326355E+00  0.88000000000E+00 0.  1.
        -11    1    4    4    0    0 -0.31624232968E-01 -0.10932058890E+00 -0.49262092803E-02  0.11391054353E+00  0.51100000000E-03 0.  1.
         11    1    4    4    0    0 -0.13760126482E-01 -0.17248021404E-01 -0.26297092508E-02  0.22226376558E-01  0.51100000000E-03 0. -1.
</event>
<event>
 8    1  0.1114447E+005  0.1043930E+01  0.7957747E-01            NaN
         13   -1    0    0    0    0  0.00000000000E+00  0.00000000000E+00  0.74505805969E-08  0.10566000000E+00  0.10566000000E+00 0.  1.
     999900   -1    0    0    0    0 -0.00000000000E+00 -0.00000000000E+00 -0.74505805969E-08  0.93827000000E+00  0.93827000000E+00 0. -1.
     999902    2    1    2    0    0 -0.14552215646E-01 -0.77804330869E-02  0.16206802658E-01  0.10208007421E+01  0.10205386776E+01 0.  0.
     999903    2    3    3    0    0  0.32900244434E-01  0.63138314291E-01 -0.10488392998E+00  0.12841956219E+00  0.20544399990E-01 0.  0.
         14    1    1    2    0    0  0.14552215646E-01  0.77804330869E-02 -0.16206802658E-01  0.23129257914E-01  0.00000000000E+00 0. -1.
     999901    1    3    3    0    0 -0.47452460080E-01 -0.70918747378E-01  0.12109073264E+00  0.89238117989E+00  0.88000000000E+00 0.  1.
        -11    1    4    4    0    0  0.10386650593E-01  0.20625809900E-01 -0.52158109800E-01  0.57044159065E-01  0.51100000000E-03 0. -1.
         11    1    4    4    0    0  0.22513593841E-01  0.42512504391E-01 -0.52725820178E-01  0.71375403128E-01  0.51100000000E-03 0.  1.
</event>
<event>
 8    1  0.1114447E+005  0.1043930E+01  0.7957747E-01            NaN
         13   -1    0    0    0    0  0.00000000000E+00  0.00000000000E+00  0.74505805969E-08  0.10566000000E+00  0.10566000000E+00 0. -1.
     999900   -1    0    0    0    0 -0.00000000000E+00 -0.00000000000E+00 -0.74505805969E-08  0.93827000000E+00  0.93827000000E+00 0.  1.
     999902    2    1    2    0    0  0.37901241487E-02 -0.13500793327E-02  0.22002309646E-01  0.10215628503E+01  0.10213179563E+01 0.  0.
     999903    2    3    3    0    0 -0.12674812144E+00  0.22951111525E-01  0.18529909849E-01  0.13159496382E+00  0.19545770213E-01 0.  0.
         14    1    1    2    0    0 -0.37901241487E-02  0.13500793327E-02 -0.22002309646E-01  0.22367149685E-01  0.00000000000E+00 0.  1.
     999901    1    3    3    0    0  0.13053824559E+00 -0.24301190858E-01  0.34723997968E-02  0.88996788650E+00  0.88000000000E+00 0. -1.
        -11    1    4    4    0    0 -0.70838623693E-01  0.99789164621E-02  0.19641685858E-01  0.74187238288E-01  0.51100000000E-03 0. -1.
         11    1    4    4    0    0 -0.55909497750E-01  0.12972195063E-01 -0.11117760089E-02  0.57407725528E-01  0.51100000000E-03 0.  1.
</event>
<event>
 8    1  0.1114447E+005  0.1043930E+01  0.7957747E-01            NaN
         13   -1    0    0    0    0  0.00000000000E+00  0.00000000000E+00  0.74505805969E-08  0.10566000000E+00  0.10566000000E+00 0.  1.
     999900   -1    0    0    0    0 -0.00000000000E+00 -0.00000000000E+00 -0.74505805969E-08  0.93827000000E+00  0.93827000000E+00 0.  1.
     999902    2    1    2    0    0  0.47101923503E-02 -0.59013799580E-02 -0.22991921990E-01  0.10197299861E+01  0.10194427909E+01 0.  0.
     999903    2    3    3    0    0  0.13808187400E-01 -0.81648934225E-01 -0.10209746020E+00  0.13289395181E+00  0.19485803768E-01 0.  0.
         14    1    1    2    0    0 -0.47101923503E-02  0.59013799580E-02  0.22991921990E-01  0.24200013929E-01  0.00000000000E+00 0.  1.
     999901    1    3    3    0    0 -0.90979950494E-02  0.75747554267E-01  0.79105538210E-01  0.88683603426E+00  0.88000000000E+00 0. -1.
        -11    1    4    4    0    0  0.12208825114E-01 -0.31517364049E-01 -0.51847002307E-01  0.61893234012E-01  0.51100000000E-03 0. -1.
         11    1    4    4    0    0  0.15993622855E-02 -0.50131570177E-01 -0.50250457893E-01  0.71000717796E-01  0.51100000000E-03 0.  1.
</event>
<event>
 8    1  0.1114447E+005  0.1043930E+01  0.7957747E-01            NaN
         13   -1    0    0    0    0  0.00000000000E+00  0.00000000000E+00  0.74505805969E-08  0.10566000000E+00  0.10566000000E+00 0.  1.
     999900   -1    0    0    0    0 -0.00000000000E+00 -0.00000000000E+00 -0.74505805969E-08  0.93827000000E+00  0.93827000000E+00 0. -1.
     999902    2    1    2    0    0 -0.14008294467E-01  0.42619730372E-02 -0.30340424055E-02  0.10289766679E+01  0.10288680095E+01 0.  0.
     999903    2    3    3    0    0  0.69187519198E-01 -0.11091036289E+00  0.32358231723E-01  0.13687867806E+00  0.24509099092E-01 0.  0.
         14    1    1    2    0    0  0.14008294467E-01 -0.42619730372E-02  0.30340424055E-02  0.14953332116E-01  0.00000000000E+00 0. -1.
     999901    1    3    3    0    0 -0.83195813665E-01  0.11517233593E+00 -0.35392274129E-01  0.89209798982E+00  0.88000000000E+00 0. -1.
        -11    1    4    4    0    0  0.43885954111E-01 -0.81619578632E-01  0.12934389100E-01  0.93569718000E-01  0.51100000000E-03 0. -1.
         11    1    4    4    0    0  0.25301565087E-01 -0.29290784261E-01  0.19423842624E-01  0.43308960063E-01  0.51100000000E-03 0.  1.
</event>
<event>
 7    1  0.1114447E+005  0.1043930E+01  0.7957747E-01            NaN
         13   -1    0    0    0    0  0.00000000000E+00  0.00000000000E+00  0.74505805969E-08  0.10566000000E+00  0.10566000000E+00 0.  1.
     999900   -1    0    0    0    0 -0.00000000000E+00 -0.00000000000E+00 -0.74505805969E-08  0.93827000000E+00  0.93827000000E+00 0.  1.
     999903    2    1    2    0    0 -0.86028397565E-01  0.65044410333E-01 -0.14170049972E-01  0.11069299431E+00  0.20505808182E-01 0.  0.
         14    1    1    2    0    0 -0.32067428706E-02  0.31329672205E-01 -0.28489276616E-01  0.42467286732E-01  0.00000000000E+00 0.  1.
     999901    1    1    2    0    0  0.89235140435E-01 -0.96374082538E-01  0.42659326588E-01  0.89076971896E+00  0.88000000000E+00 0. -1.
        -11    1    3    3    0    0 -0.56872666295E-01  0.31400740598E-01 -0.44322528813E-02  0.65118451059E-01  0.51100000000E-03 0.  1.
         11    1    3    3    0    0 -0.29155731269E-01  0.33643669735E-01 -0.97377970908E-02  0.45574543248E-01  0.51100000000E-03 0. -1.
</event>
<event>
 8    1  0.1124205E+005  0.1043930E+01  0.7957747E-01            NaN
         13   -1    0    0    0    0  0.00000000000E+00  0.00000000000E+00  0.74505805969E-08  0.10566000000E+00  0.10566000000E+00 0.  1.
     999900   -1    0    0    0    0 -0.00000000000E+00 -0.00000000000E+00 -0.74505805969E-08  0.93827000000E+00  0.93827000000E+00 0. -1.
     999902    2    1    2    0    0 -0.42650242813E-02 -0.13761104555E-01 -0.20027516864E-01  0.10192589671E+01  0.10189603438E+01 0.  0.
     999903    2    3    3    0    0  0.43207747365E-02  0.92407636332E-01  0.84261814918E-01  0.12672225517E+00  0.20015897570E-01 0.  0.
         14    1    1    2    0    0  0.42650242813E-02  0.13761104555E-01  0.20027516864E-01  0.24671032861E-01  0.00000000000E+00 0.  1.
     999901    1    3    3    0    0 -0.85857990178E-02 -0.10616874089E+00 -0.10428933178E+00  0.89253671197E+00  0.88000000000E+00 0. -1.
        -11    1    4    4    0    0 -0.57141720681E-02  0.66525623740E-01  0.62290217779E-01  0.91316169042E-01  0.51100000000E-03 0.  1.
         11    1    4    4    0    0  0.10034946805E-01  0.25882012591E-01  0.21971597139E-01  0.35406086129E-01  0.51100000000E-03 0. -1.
</event>
<event>
 8    1  0.1114447E+005  0.1043930E+01  0.7957747E-01            NaN
         13   -1    0    0    0    0  0.00000000000E+00  0.00000000000E+00  0.74505805969E-08  0.10566000000E+00  0.10566000000E+00 0.  1.
     999900   -1    0    0    0    0 -0.00000000000E+00 -0.00000000000E+00 -0.74505805969E-08  0.93827000000E+00  0.93827000000E+00 0.  1.
     999902    2    1    2    0    0 -0.12835631712E-02  0.21217060445E-01  0.10535316190E-01  0.10202065079E+01  0.10199306421E+01 0.  0.
     999903    2    3    3    0    0 -0.28688120777E-01  0.12852519088E+00 -0.23377048658E-02  0.13317113136E+00  0.19681270278E-01 0.  0.
         14    1    1    2    0    0  0.12835631712E-02 -0.21217060445E-01 -0.10535316190E-01  0.23723492061E-01  0.00000000000E+00 0. -1.
     999901    1    3    3    0    0  0.27404557606E-01 -0.10730813043E+00  0.12873021056E-01  0.88703537658E+00  0.88000000000E+00 0. -1.
        -11    1    4    4    0    0 -0.82438613436E-03  0.46517976831E-01 -0.62203910923E-04  0.46528128817E-01  0.51100000000E-03 0.  1.
         11    1    4    4    0    0 -0.27863734643E-01  0.82007214046E-01 -0.22755009549E-02  0.86643002541E-01  0.51100000000E-03 0. -1.
</event>
<event>
 8    1  0.1114447E+005  0.1043930E+01  0.7957747E-01            NaN
         13   -1    0    0    0    0  0.00000000000E+00  0.00000000000E+00  0.74505805969E-08  0.10566000000E+00  0.10566000000E+00 0.  1.
     999900   -1    0    0    0    0 -0.00000000000E+00 -0.00000000000E+00 -0.74505805969E-08  0.93827000000E+00  0.93827000000E+00 0. -1.
     999902    2    1    2    0    0 -0.15243812885E-01 -0.13050410101E-01 -0.11310963896E-01  0.10208947023E+01  0.10206347869E+01 0.  0.
     999903    2    3    3    0    0 -0.22171037632E-01 -0.11825855379E+00 -0.48139569349E-01  0.13383603113E+00  0.33436875422E-01 0.  0.
         14    1    1    2    0    0  0.15243812885E-01  0.13050410101E-01  0.11310963896E-01  0.23035297683E-01  0.00000000000E+00 0. -1.
     999901    1    3    3    0    0  0.69272247464E-02  0.10520814369E+00  0.36828605453E-01  0.88705867118E+00  0.88000000000E+00 0.  1.
        -11    1    4    4    0    0 -0.57827603326E-02 -0.97184864348E-01 -0.43910532346E-01  0.10680231340E+00  0.51100000000E-03 0.  1.
         11    1    4    4    0    0 -0.16388277299E-01 -0.21073689443E-01 -0.42290370027E-02  0.27033717735E-01  0.51100000000E-03 0. -1.
</event>
<event>
 8    1  0.1114447E+005  0.1043930E+01  0.7957747E-01            NaN
         13   -1    0    0    0    0  0.00000000000E+00  0.00000000000E+00  0.74505805969E-08  0.10566000000E+00  0.10566000000E+00 0. -1.
     999900   -1    0    0    0    0 -0.00000000000E+00 -0.00000000000E+00 -0.74505805969E-08  0.93827000000E+00  0.93827000000E+00 0.  1.
     999902    2    1    2    0    0  0.17889902785E-01 -0.18101307015E-01  0.23853299807E-02  0.10183683933E+01  0.10180475376E+01 0.  0.
     999903    2    3    3    0    0  0.93496858958E-01  0.16478485435E-01 -0.86555205675E-01  0.12998638497E+00  0.19785184620E-01 0.  0.
         14    1    1    2    0    0 -0.17889902785E-01  0.18101307015E-01 -0.23853299807E-02  0.25561606687E-01  0.00000000000E+00 0.  1.
     999901    1    3    3    0    0 -0.75606956172E-01 -0.34579792450E-01  0.88940535656E-01  0.88838200834E+00  0.88000000000E+00 0. -1.
        -11    1    4    4    0    0  0.16300080948E-01  0.97623833358E-02 -0.12152040278E-01  0.22559476306E-01  0.51100000000E-03 0. -1.
         11    1    4    4    0    0  0.77196778010E-01  0.67161020991E-02 -0.74403165397E-01  0.10742690866E+00  0.51100000000E-03 0.  1.
</event>
<event>
 8    1  0.1114447E+005  0.1043930E+01  0.7957747E-01            NaN
         13   -1    0    0    0    0  0.00000000000E+00  0.00000000000E+00  0.74505805969E-08  0.10566000000E+00  0.10566000000E+00 0. -1.
     999900   -1    0    0    0    0 -0.00000000000E+00 -0.00000000000E+00 -0.74505805969E-08  0.93827000000E+00  0.93827000000E+00 0. -1.
     999902    2    1    2    0    0  0.55369687570E-02 -0.16844117034E-01  0.15422630690E-01  0.10204302162E+01  0.10201595886E+01 0.  0.
     999903    2    3    3    0    0  0.99677121410E-01  0.41444918832E-02  0.83878322560E-01  0.13251745483E+00  0.23929009431E-01 0.  0.
         14    1    1    2    0    0 -0.55369687570E-02  0.16844117034E-01 -0.15422630690E-01  0.23499783810E-01  0.00000000000E+00 0.  1.
     999901    1    3    3    0    0 -0.94140152653E-01 -0.20988608918E-01 -0.68455691870E-01  0.88791276137E+00  0.88000000000E+00 0. -1.
        -11    1    4    4    0    0  0.10805388752E-01  0.82812602677E-02  0.11194417911E-01  0.17632691544E-01  0.51100000000E-03 0. -1.
         11    1    4    4    0    0  0.88871732657E-01 -0.41367683845E-02  0.72683904649E-01  0.11488476328E+00  0.51100000000E-03 0.  1.
</event>
<event>
 8    1  0.1114447E+005  0.1043930E+01  0.7957747E-01            NaN
         13   -1    0    0    0    0  0.00000000000E+00  0.00000000000E+00  0.74505805969E-08  0.10566000000E+00  0.10566000000E+00 0. -1.
     999900   -1    0    0    0    0 -0.00000000000E+00 -0.00000000000E+00 -0.74505805969E-08  0.93827000000E+00  0.93827000000E+00 0.  1.
     999902    2    1    2    0    0  0.20207265872E-01  0.10478488329E-01 -0.89480349330E-02  0.10194718799E+01  0.10191784506E+01 0.  0.
     999903    2    3    3    0    0  0.50822938628E-01  0.10109633232E+00  0.63613006112E-01  0.13131985585E+00  0.19870845378E-01 0.  0.
         14    1    1    2    0    0 -0.20207265872E-01 -0.10478488329E-01  0.89480349330E-02  0.24458120141E-01  0.00000000000E+00 0. -1.
     999901    1    3    3    0    0 -0.30615672756E-01 -0.90617843987E-01 -0.72561041045E-01  0.88815202401E+00  0.88000000000E+00 0.  1.
        -11    1    4    4    0    0  0.16712196144E-01  0.54665765700E-01  0.34451385086E-01  0.66744306835E-01  0.51100000000E-03 0.  1.
         11    1    4    4    0    0  0.34110742484E-01  0.46430566617E-01  0.29161621027E-01  0.64575549019E-01  0.51100000000E-03 0. -1.
</event>
<event>
 8    1  0.1114447E+005  0.1043930E+01  0.7957747E-01            NaN
         13   -1    0    0    0    0  0.00000000000E+00  0.00000000000E+00  0.74505805969E-08  0.10566000000E+00  0.10566000000E+00 0.  1.
     999900   -1    0    0    0    0 -0.00000000000E+00 -0.00000000000E+00 -0.74505805969E-08  0.93827000000E+00  0.93827000000E+00 0. -1.
     999902    2    1    2    0    0  0.22567891986E-01 -0.17141918445E-01  0.13592040650E-02  0.10155574331E+01  0.10151610204E+01 0.  0.
     999903    2    3    3    0    0 -0.67084698638E-01  0.58132445256E-01  0.83995812634E-01  0.12396749041E+00  0.20806348925E-01 0.  0.
         14    1    1    2    0    0 -0.22567891986E-01  0.17141918445E-01 -0.13592040650E-02  0.28372566897E-01  0.00000000000E+00 0.  1.
     999901    1    3    3    0    0  0.89652590624E-01 -0.75274363701E-01 -0.82636608569E-01  0.89158994269E+00  0.88000000000E+00 0. -1.
        -11    1    4    4    0    0 -0.48961641481E-01  0.50167601878E-01  0.73440598118E-01  0.10152740117E+00  0.51100000000E-03 0. -1.
         11    1    4    4    0    0 -0.18123057157E-01  0.79648433785E-02  0.10555214516E-01  0.22440089244E-01  0.51100000000E-03 0.  1.
</event>
<event>
 8    1  0.1114447E+005  0.1043930E+01  0.7957747E-01            NaN
         13   -1    0    0    0    0  0.00000000000E+00  0.00000000000E+00  0.74505805969E-08  0.10566000000E+00  0.10566000000E+00 0. -1.
     999900   -1    0    0    0    0 -0.00000000000E+00 -0.00000000000E+00 -0.74505805969E-08  0.93827000000E+00  0.93827000000E+00 0. -1.
     999902    2    1    2    0    0 -0.17566550126E-01 -0.14847269307E-01 -0.50180598938E-02  0.10203884195E+01  0.10201168171E+01 0.  0.
     999903    2    3    3    0    0  0.44517334013E-02 -0.90446406335E-01 -0.94214511514E-01  0.13238163947E+00  0.21169646655E-01 0.  0.
         14    1    1    2    0    0  0.17566550126E-01  0.14847269307E-01  0.50180598938E-02  0.23541580540E-01  0.00000000000E+00 0.  1.
     999901    1    3    3    0    0 -0.22018283528E-01  0.75599137029E-01  0.89196451620E-01  0.88800677999E+00  0.88000000000E+00 0.  1.
        -11    1    4    4    0    0  0.60679913078E-02 -0.16015495761E-01 -0.27567631828E-01  0.32458466824E-01  0.51100000000E-03 0. -1.
         11    1    4    4    0    0 -0.16162579065E-02 -0.74430910574E-01 -0.66646879686E-01  0.99923172645E-01  0.51100000000E-03 0.  1.
</event>
<event>
 8    1  0.1114447E+005  0.1043930E+01  0.7957747E-01            NaN
         13   -1    0    0    0    0  0.00000000000E+00  0.00000000000E+00  0.74505805969E-08  0.10566000000E+00  0.10566000000E+00 0.  1.
     999900   -1    0    0    0    0 -0.00000000000E+00 -0.00000000000E+00 -0.74505805969E-08  0.93827000000E+00  0.93827000000E+00 0. -1.
     999902    2    1    2    0    0 -0.12867886008E-01  0.34278789584E-03  0.19606262173E-01  0.10204756718E+01  0.10202061023E+01 0.  0.
     999903    2    3    3    0    0  0.61164930775E-01  0.41738234875E-01 -0.10347875228E+00  0.12787029330E+00  0.12638462181E-01 0.  0.
         14    1    1    2    0    0  0.12867886008E-01 -0.34278789584E-03 -0.19606262173E-01  0.23454328177E-01  0.00000000000E+00 0. -1.
     999901    1    3    3    0    0 -0.74032816783E-01 -0.41395446979E-01  0.12308501446E+00  0.89260537853E+00  0.88000000000E+00 0.  1.
        -11    1    4    4    0    0  0.29141096700E-01  0.15435082942E-01 -0.54583895798E-01  0.63773882615E-01  0.51100000000E-03 0.  1.
         11    1    4    4    0    0  0.32023834075E-01  0.26303151932E-01 -0.48894856485E-01  0.64096410681E-01  0.51100000000E-03 0. -1.
</event>
<event>
 8    1  0.1114447E+005  0.1043930E+01  0.7957747E-01            NaN
         13   -1    0    0    0    0  0.00000000000E+00  0.00000000000E+00  0.74505805969E-08  0.10566000000E+00  0.10566000000E+00 0. -1.
     999900   -1    0    0    0    0 -0.00000000000E+00 -0.00000000000E+00 -0.74505805969E-08  0.93827000000E+00  0.93827000000E+00 0. -1.
     999902    2    1    2    0    0 -0.17145281175E-01  0.13474454050E-01 -0.39581024649E-02  0.10217672350E+01  0.10215268446E+01 0.  0.
     999903    2    3    3    0    0 -0.19250544250E-01  0.34194265128E-01 -0.12543893125E+00  0.13317771530E+00  0.21483648618E-01 0.  0.
         14    1    1    2    0    0  0.17145281175E-01 -0.13474454050E-01  0.39581024649E-02  0.22162765027E-01  0.00000000000E+00 0. -1.
     999901    1    3    3    0    0  0.21052630749E-02 -0.20719811078E-01  0.12148082879E+00  0.88858951967E+00  0.88000000000E+00 0.  1.
        -11    1    4    4    0    0 -0.16382642425E-02  0.20542284360E-01 -0.41612696458E-01  0.46438636759E-01  0.51100000000E-03 0. -1.
         11    1    4    4    0    0 -0.17612280007E-01  0.13651980768E-01 -0.83826234795E-01  0.86739078545E-01  0.51100000000E-03 0.  1.
</event>
<event>
 8    1  0.1114447E+005  0.1043930E+01  0.7957747E-01            NaN
         13   -1    0    0    0    0  0.00000000000E+00  0.00000000000E+00  0.74505805969E-08  0.10566000000E+00  0.10566000000E+00 0.  1.
     999900   -1    0    0    0    0 -0.00000000000E+00 -0.00000000000E+00 -0.74505805969E-08  0.93827000000E+00  0.93827000000E+00 0. -1.
     999902    2    1    2    0    0  0.49299494866E-02  0.21702483923E-01  0.54037903659E-02  0.10210279660E+01  0.10207710832E+01 0.  0.
     999903    2    3    3    0    0 -0.41630306941E-01 -0.11378120260E+00  0.39651199955E-01  0.12878552595E+00  0.18282492020E-01 0.  0.
         14    1    1    2    0    0 -0.49299494866E-02 -0.21702483923E-01 -0.54037903659E-02  0.22902033986E-01  0.00000000000E+00 0. -1.
     999901    1    3    3    0    0  0.46560256428E-01  0.13548368652E+00 -0.34247409589E-01  0.89224244007E+00  0.88000000000E+00 0. -1.
        -11    1    4    4    0    0 -0.25373180335E-01 -0.86825132481E-01  0.34846952814E-01  0.96937986115E-01  0.51100000000E-03 0.  1.
         11    1    4    4    0    0 -0.16257126606E-01 -0.26956070119E-01  0.48042471412E-02  0.31847539832E-01  0.51100000000E-03 0. -1.
</event>
<event>
 8    1  0.1114447E+005  0.1043930E+01  0.7957747E-01            NaN
         13   -1    0    0    0    0  0.00000000000E+00  0.00000000000E+00  0.74505805969E-08  0.10566000000E+00  0.10566000000E+00 0.  1.
     999900   -1    0    0    0    0 -0.00000000000E+00 -0.00000000000E+00 -0.74505805969E-08  0.93827000000E+00  0.93827000000E+00 0. -1.
     999902    2    1    2    0    0 -0.20402174029E-01 -0.11417955509E-01  0.42214888268E-02  0.10201720670E+01  0.10198953902E+01 0.  0.
     999903    2    3    3    0    0 -0.76825255113E-01  0.86347897924E-01  0.59011032574E-01  0.13127183621E+00  0.19796810774E-01 0.  0.
         14    1    1    2    0    0  0.20402174029E-01  0.11417955509E-01 -0.42214888268E-02  0.23757933013E-01  0.00000000000E+00 0. -1.
     999901    1    3    3    0    0  0.56423081084E-01 -0.97765853433E-01 -0.54789543747E-01  0.88890023078E+00  0.88000000000E+00 0. -1.
        -11    1    4    4    0    0 -0.74238992080E-01  0.85259423188E-01  0.60315065916E-01  0.12813573071E+00  0.51100000000E-03 0. -1.
         11    1    4    4    0    0 -0.25862630328E-02  0.10884747363E-02 -0.13040333426E-02  0.31361054965E-02  0.51100000000E-03 0.  1.
</event>
<event>
 8    1  0.1114447E+005  0.1043930E+01  0.7957747E-01            NaN
         13   -1    0    0    0    0  0.00000000000E+00  0.00000000000E+00  0.74505805969E-08  0.10566000000E+00  0.10566000000E+00 0.  1.
     999900   -1    0    0    0    0 -0.00000000000E+00 -0.00000000000E+00 -0.74505805969E-08  0.93827000000E+00  0.93827000000E+00 0. -1.
     999902    2    1    2    0    0 -0.21127326011E-01  0.70740470215E-02  0.70575728053E-02  0.10205587489E+01  0.10202911077E+01 0.  0.
     999903    2    3    3    0    0 -0.59197657148E-01  0.11455390156E+00  0.25963255720E-01  0.13300103576E+00  0.19703448723E-01 0.  0.
         14    1    1    2    0    0  0.21127326011E-01 -0.70740470215E-02 -0.70575728053E-02  0.23371251134E-01  0.00000000000E+00 0. -1.
     999901    1    3    3    0    0  0.38070331136E-01 -0.10747985454E+00 -0.18905682915E-01  0.88755771310E+00  0.88000000000E+00 0.  1.
        -11    1    4    4    0    0 -0.43858753907E-01  0.97266017052E-01  0.16261505299E-01  0.10793037591E+00  0.51100000000E-03 0.  1.
         11    1    4    4    0    0 -0.15338903240E-01  0.17287884509E-01  0.97017504215E-02  0.25070659856E-01  0.51100000000E-03 0. -1.
</event>
<event>
 8    1  0.1114447E+005  0.1043930E+01  0.7957747E-01            NaN
         13   -1    0    0    0    0  0.00000000000E+00  0.00000000000E+00  0.74505805969E-08  0.10566000000E+00  0.10566000000E+00 0.  1.
     999900   -1    0    0    0    0 -0.00000000000E+00 -0.00000000000E+00 -0.74505805969E-08  0.93827000000E+00  0.93827000000E+00 0. -1.
     999902    2    1    2    0    0  0.13636067616E-01 -0.30970861257E-02 -0.17836187235E-01  0.10212658464E+01  0.10210143315E+01 0.  0.
     999903    2    3    3    0    0  0.37344722389E-01 -0.11619337039E+00 -0.49355961093E-01  0.13315190893E+00  0.19947238985E-01 0.  0.
         14    1    1    2    0    0 -0.13636067616E-01  0.30970861257E-02  0.17836187235E-01  0.22664153582E-01  0.00000000000E+00 0.  1.
     999901    1    3    3    0    0 -0.23708654773E-01  0.11309628426E+00  0.31519773857E-01  0.88811393749E+00  0.88000000000E+00 0.  1.
        -11    1    4    4    0    0  0.32135642098E-01 -0.79219740906E-01 -0.27115032731E-01  0.89688087076E-01  0.51100000000E-03 0. -1.
         11    1    4    4    0    0  0.52090802912E-02 -0.36973629479E-01 -0.22240928362E-01  0.43463821849E-01  0.51100000000E-03 0.  1.
</event>
<event>
 8    1  0.1114447E+005  0.1043930E+01  0.7957747E-01            NaN
         13   -1    0    0    0    0  0.00000000000E+00  0.00000000000E+00  0.74505805969E-08  0.10566000000E+00  0.10566000000E+00 0.  1.
     999900   -1    0    0    0    0 -0.00000000000E+00 -0.00000000000E+00 -0.74505805969E-08  0.93827000000E+00  0.93827000000E+00 0. -1.
     999902    2    1    2    0    0  0.14530694226E-02  0.17989261646E-01  0.90979834581E-02  0.10237186604E+01  0.10235191241E+01 0.  0.
     999903    2    3    3    0    0 -0.44107037996E-01 -0.11412481436E+00  0.44792353359E-01  0.13197657857E+00  0.21013289095E-01 0.  0.
         14    1    1    2    0    0 -0.14530694226E-02 -0.17989261646E-01 -0.90979834581E-02  0.20211339597E-01  0.00000000000E+00 0. -1.
     999901    1    3    3    0    0  0.45560107419E-01  0.13211407601E+00 -0.35694369901E-01  0.89174208183E+00  0.88000000000E+00 0. -1.
        -11    1    4    4    0    0 -0.25723424050E-01 -0.71116811025E-01  0.38236762658E-01  0.84744359663E-01  0.51100000000E-03 0.  1.
         11    1    4    4    0    0 -0.18383613946E-01 -0.43008003334E-01  0.65555907017E-02  0.47232218908E-01  0.51100000000E-03 0. -1.
</event>
<event>
 8    1  0.1114447E+005  0.1043930E+01  0.7957747E-01            NaN
         13   -1    0    0    0    0  0.00000000000E+00  0.00000000000E+00  0.74505805969E-08  0.10566000000E+00  0.10566000000E+00 0. -1.
     999900   -1    0    0    0    0 -0.00000000000E+00 -0.00000000000E+00 -0.74505805969E-08  0.93827000000E+00  0.93827000000E+00 0.  1.
     999902    2    1    2    0    0 -0.15322507178E-01 -0.11187948170E-01  0.14243578755E-01  0.10202059838E+01  0.10199301056E+01 0.  0.
     999903    2    3    3    0    0 -0.10987917380E+00  0.45173339534E-01 -0.52015986732E-01  0.13087596180E+00  0.17572451750E-01 0.  0.
         14    1    1    2    0    0  0.15322507178E-01  0.11187948170E-01 -0.14243578755E-01  0.23724016233E-01  0.00000000000E+00 0.  1.
     999901    1    3    3    0    0  0.94556666627E-01 -0.56361287704E-01  0.66259565486E-01  0.88933002197E+00  0.88000000000E+00 0.  1.
        -11    1    4    4    0    0 -0.67407205845E-01  0.24846525106E-01 -0.40211913373E-01  0.82330676590E-01  0.51100000000E-03 0.  1.
         11    1    4    4    0    0 -0.42471967960E-01  0.20326814428E-01 -0.11804073359E-01  0.48545285209E-01  0.51100000000E-03 0. -1.
</event>
<event>
 8    1  0.1238532E+005  0.1043930E+01  0.7957747E-01            NaN
         13   -1    0    0    0    0  0.00000000000E+00  0.00000000000E+00  0.74505805969E-08  0.10566000000E+00  0.10566000000E+00 0. -1.
     999900   -1    0    0    0    0 -0.00000000000E+00 -0.00000000000E+00 -0.74505805969E-08  0.93827000000E+00  0.93827000000E+00 0. -1.
     999902    2    1    2    0    0 -0.20624297308E-01  0.11643786671E-01 -0.21027232910E-02  0.10201526820E+01  0.10198755481E+01 0.  0.
     999903    2    3    3    0    0  0.81024416610E-01  0.96555206135E-01 -0.26054766008E-01  0.12991894269E+00  0.17669661002E-01 0.  0.
         14    1    1    2    0    0  0.20624297308E-01 -0.11643786671E-01  0.21027232910E-02  0.23777318030E-01  0.00000000000E+00 0.  1.
     999901    1    3    3    0    0 -0.10164871392E+00 -0.84911419464E-01  0.23952042717E-01  0.89023373928E+00  0.88000000000E+00 0.  1.
        -11    1    4    4    0    0  0.44908919893E-01  0.41387593431E-01 -0.83360727929E-02  0.61640045479E-01  0.51100000000E-03 0.  1.
         11    1    4    4    0    0  0.36115496717E-01  0.55167612703E-01 -0.17718693215E-01  0.68278897214E-01  0.51100000000E-03 0. -1.
</event>
<event>
 7    1  0.1114447E+005  0.1043930E+01  0.7957747E-01            NaN
         13   -1    0    0    0    0  0.00000000000E+00  0.00000000000E+00  0.74505805969E-08  0.10566000000E+00  0.10566000000E+00 0. -1.
     999900   -1    0    0    0    0 -0.00000000000E+00 -0.00000000000E+00 -0.74505805969E-08  0.93827000000E+00  0.93827000000E+00 0. -1.
     999903    2    1    2    0    0 -0.62559157168E-01 -0.34389622644E-01  0.16598271544E-01  0.75991210007E-01  0.20071549239E-01 0.  0.
         14    1    1    2    0    0 -0.38896356732E-01 -0.28364357686E-01  0.59615183447E-01  0.76625279454E-01  0.00000000000E+00 0.  1.
     999901    1    1    2    0    0  0.10145551390E+00  0.62753980330E-01 -0.76213454991E-01  0.89131351054E+00  0.88000000000E+00 0. -1.
        -11    1    3    3    0    0 -0.40698741287E-01 -0.32707294726E-01  0.12263974657E-01  0.53636003449E-01  0.51100000000E-03 0.  1.
         11    1    3    3    0    0 -0.21860415882E-01 -0.16823279183E-02  0.43342968866E-02  0.22355206558E-01  0.51100000000E-03 0. -1.
</event>
<event>
 8    1  0.1114447E+005  0.1043930E+01  0.7957747E-01            NaN
         13   -1    0    0    0    0  0.00000000000E+00  0.00000000000E+00  0.74505805969E-08  0.10566000000E+00  0.10566000000E+00 0.  1.
     999900   -1    0    0    0    0 -0.00000000000E+00 -0.00000000000E+00 -0.74505805969E-08  0.93827000000E+00  0.93827000000E+00 0. -1.
     999902    2    1    2    0    0  0.17811758611E-01  0.13595862674E-01  0.57791833759E-02  0.10207890150E+01  0.10205266816E+01 0.  0.
     999903    2    3    3    0    0 -0.10341511268E+00 -0.68579174437E-01 -0.25681115928E-01  0.12813093853E+00  0.18979699535E-01 0.  0.
         14    1    1    2    0    0 -0.17811758611E-01 -0.13595862674E-01 -0.57791833759E-02  0.23140985008E-01  0.00000000000E+00 0. -1.
     999901    1    3    3    0    0  0.12122687129E+00  0.82175037110E-01  0.31460299304E-01  0.89265807647E+00  0.88000000000E+00 0.  1.
        -11    1    4    4    0    0 -0.13081323408E-01 -0.12118489504E-01 -0.10011169209E-01  0.20456378954E-01  0.51100000000E-03 0.  1.
         11    1    4    4    0    0 -0.90333789275E-01 -0.56460684932E-01 -0.15669946719E-01  0.10767455957E+00  0.51100000000E-03 0. -1.
</event>
<event>
 8    1  0.1114447E+005  0.1043930E+01  0.7957747E-01            NaN
         13   -1    0    0    0    0  0.00000000000E+00  0.00000000000E+00  0.74505805969E-08  0.10566000000E+00  0.10566000000E+00 0.  1.
     999900   -1    0    0    0    0 -0.00000000000E+00 -0.00000000000E+00 -0.74505805969E-08  0.93827000000E+00  0.93827000000E+00 0.  1.
     999902    2    1    2    0    0 -0.18908497240E-01  0.12396837451E-01 -0.64299010268E-02  0.10204234802E+01  0.10201526956E+01 0.  0.
     999903    2    3    3    0    0  0.11452046490E-02  0.11905720430E+00  0.52054326895E-01  0.13182965299E+00  0.22214298734E-01 0.  0.
         14    1    1    2    0    0  0.18908497240E-01 -0.12396837451E-01  0.64299010268E-02  0.23506519816E-01  0.00000000000E+00 0. -1.
     999901    1    3    3    0    0 -0.20053701889E-01 -0.10666036685E+00 -0.58484227921E-01  0.88859382720E+00  0.88000000000E+00 0.  1.
        -11    1    4    4    0    0  0.82799045832E-02  0.18936298794E-01  0.10566459548E-01  0.23217480920E-01  0.51100000000E-03 0.  1.
         11    1    4    4    0    0 -0.71346999342E-02  0.10012090551E+00  0.41487867346E-01  0.10861217207E+00  0.51100000000E-03 0. -1.
</event>
<event>
 8    1  0.1114447E+005  0.1043930E+01  0.7957747E-01            NaN
         13   -1    0    0    0    0  0.00000000000E+00  0.00000000000E+00  0.74505805969E-08  0.10566000000E+00  0.10566000000E+00 0.  1.
     999900   -1    0    0    0    0 -0.00000000000E+00 -0.00000000000E+00 -0.74505805969E-08  0.93827000000E+00  0.93827000000E+00 0. -1.
     999902    2    1    2    0    0 -0.18161039088E-01  0.17175832531E-01  0.26301610118E-02  0.10187953564E+01  0.10184852615E+01 0.  0.
     999903    2    3    3    0    0  0.64141319053E-01 -0.26463010267E-02 -0.10873505802E+00  0.12774608323E+00  0.19355547530E-01 0.  0.
         14    1    1    2    0    0  0.18161039088E-01 -0.17175832531E-01 -0.26301610118E-02  0.25134643639E-01  0.00000000000E+00 0. -1.
     999901    1    3    3    0    0 -0.82302358141E-01  0.19822133558E-01  0.11136521903E+00  0.89104927313E+00  0.88000000000E+00 0.  1.
        -11    1    4    4    0    0  0.30174893368E-01  0.60931822080E-02 -0.62886335848E-01  0.70018593363E-01  0.51100000000E-03 0.  1.
         11    1    4    4    0    0  0.33966425685E-01 -0.87394832347E-02 -0.45848722169E-01  0.57727489869E-01  0.51100000000E-03 0. -1.
</event>
<event>
 8    1  0.1114447E+005  0.1043930E+01  0.7957747E-01            NaN
         13   -1    0    0    0    0  0.00000000000E+00  0.00000000000E+00  0.74505805969E-08  0.10566000000E+00  0.10566000000E+00 0. -1.
     999900   -1    0    0    0    0 -0.00000000000E+00 -0.00000000000E+00 -0.74505805969E-08  0.93827000000E+00  0.93827000000E+00 0.  1.
     999902    2    1    2    0    0  0.10386188890E-01  0.14607109951E-01 -0.63889537617E-02  0.10249021438E+01  0.10247254974E+01 0.  0.
     999903    2    3    3    0    0 -0.11413458053E+00  0.66784080275E-01  0.13742619881E-01  0.13437806300E+00  0.19539405434E-01 0.  0.
         14    1    1    2    0    0 -0.10386188890E-01 -0.14607109951E-01  0.63889537617E-02  0.19027856184E-01  0.00000000000E+00 0. -1.
     999901    1    3    3    0    0  0.12452076942E+00 -0.52176970325E-01 -0.20131573643E-01  0.89052408081E+00  0.88000000000E+00 0. -1.
        -11    1    4    4    0    0 -0.37379446154E-01  0.20987762539E-01  0.13667004419E-01  0.44997303274E-01  0.51100000000E-03 0.  1.
         11    1    4    4    0    0 -0.76755134376E-01  0.45796317737E-01  0.75615462457E-04  0.89380759730E-01  0.51100000000E-03 0. -1.
</event>
<event>
 8    1  0.1114447E+005  0.1043930E+01  0.7957747E-01            NaN
         13   -1    0    0    0    0  0.00000000000E+00  0.00000000000E+00  0.74505805969E-08  0.10566000000E+00  0.10566000000E+00 0. -1.
     999900   -1    0    0    0    0 -0.00000000000E+00 -0.00000000000E+00 -0.74505805969E-08  0.93827000000E+00  0.93827000000E+00 0. -1.
     999902    2    1    2    0    0  0.22826326242E-01  0.83927193399E-02  0.63087620319E-03  0.10196014794E+01  0.10193111890E+01 0.  0.
     999903    2    3    3    0    0  0.10523156151E+00  0.77627467270E-01  0.12730860430E-01  0.13296148331E+00  0.20419990831E-01 0.  0.
         14    1    1    2    0    0 -0.22826326242E-01 -0.83927193399E-02 -0.63087620319E-03  0.24328520555E-01  0.00000000000E+00 0. -1.
     999901    1    3    3    0    0 -0.82405235266E-01 -0.69234747930E-01 -0.12099984226E-01  0.88663999613E+00  0.88000000000E+00 0. -1.
        -11    1    4    4    0    0  0.24117773296E-01  0.21420599341E-01  0.11556918076E-01  0.34268535733E-01  0.51100000000E-03 0.  1.
         11    1    4    4    0    0  0.81113788213E-01  0.56206867929E-01  0.11739423541E-02  0.98692947581E-01  0.51100000000E-03 0. -1.
</event>
<event>
 8    1  0.1114447E+005  0.1043930E+01  0.7957747E-01            NaN
         13   -1    0    0    0    0  0.00000000000E+00  0.00000000000E+00  0.74505805969E-08  0.10566000000E+00  0.10566000000E+00 0.  1.
     999900   -1    0    0    0    0 -0.00000000000E+00 -0.00000000000E+00 -0.74505805969E-08  0.93827000000E+00  0.93827000000E+00 0. -1.
     999902    2    1    2    0    0 -0.31177126558E-02  0.24214284115E-01 -0.16999787915E-01  0.10141803029E+01  0.10137438741E+01 0.  0.
     999903    2    3    3    0    0  0.33084750959E-01  0.16181269632E-01  0.11674073294E+00  0.12330338964E+00  0.14795030822E-01 0.  0.
         14    1    1    2    0    0  0.31177126558E-02 -0.24214284115E-01  0.16999787915E-01  0.29749697084E-01  0.00000000000E+00 0.  1.
     999901    1    3    3    0    0 -0.36202463615E-01  0.80330144831E-02 -0.13374052085E+00  0.89087691328E+00  0.88000000000E+00 0. -1.
        -11    1    4    4    0    0  0.12480445409E-01  0.66906237597E-02  0.69061122468E-01  0.70499827811E-01  0.51100000000E-03 0. -1.
         11    1    4    4    0    0  0.20604305550E-01  0.94906458723E-02  0.47679610469E-01  0.52803561828E-01  0.51100000000E-03 0.  1.
</event>
<event>
 8    1  0.1114447E+005  0.1043930E+01  0.7957747E-01            NaN
         13   -1    0    0    0    0  0.00000000000E+00  0.00000000000E+00  0.74505805969E-08  0.10566000000E+00  0.10566000000E+00 0.  1.
     999900   -1    0    0    0    0 -0.00000000000E+00 -0.00000000000E+00 -0.74505805969E-08  0.93827000000E+00  0.93827000000E+00 0.  1.
     999902    2    1    2    0    0 -0.68575329745E-02  0.65218362857E-03  0.24462089154E-01  0.10185165211E+01  0.10181994200E+01 0.  0.
     999903    2    3    3    0    0 -0.86254179672E-01  0.24841623760E-01 -0.88408462302E-01  0.12743363055E+00  0.19141165221E-01 0.  0.
         14    1    1    2    0    0  0.68575329745E-02 -0.65218362857E-03 -0.24462089154E-01  0.25413478860E-01  0.00000000000E+00 0. -1.
     999901    1    3    3    0    0  0.79396646698E-01 -0.24189440131E-01  0.11287055146E+00  0.89108289059E+00  0.88000000000E+00 0.  1.
        -11    1    4    4    0    0 -0.16758722594E-01 -0.10889154669E-02 -0.10261603754E-01  0.19687614190E-01  0.51100000000E-03 0. -1.
         11    1    4    4    0    0 -0.69495457078E-01  0.25930539226E-01 -0.78146858548E-01  0.10774601636E+00  0.51100000000E-03 0.  1.
</event>
<event>
 8    1  0.1114447E+005  0.1043930E+01  0.7957747E-01            NaN
         13   -1    0    0    0    0  0.00000000000E+00  0.00000000000E+00  0.74505805969E-08  0.10566000000E+00  0.10566000000E+00 0. -1.
     999900   -1    0    0    0    0 -0.00000000000E+00 -0.00000000000E+00 -0.74505805969E-08  0.93827000000E+00  0.93827000000E+00 0.  1.
     999902    2    1    2    0    0  0.14458073010E-01 -0.10087572688E-01  0.17023893421E-01  0.10194226961E+01  0.10191280711E+01 0.  0.
     999903    2    3    3    0    0  0.31929790949E-01  0.10043041136E+00  0.74355898379E-01  0.13048712783E+00  0.19806863174E-01 0.  0.
         14    1    1    2    0    0 -0.14458073010E-01  0.10087572688E-01 -0.17023893421E-01  0.24507303914E-01  0.00000000000E+00 0.  1.
     999901    1    3    3    0    0 -0.17471717939E-01 -0.11051798405E+00 -0.57332004957E-01  0.88893556826E+00  0.88000000000E+00 0. -1.
        -11    1    4    4    0    0  0.16775786837E-01  0.42812555078E-01  0.43897291095E-01  0.63573384233E-01  0.51100000000E-03 0.  1.
         11    1    4    4    0    0  0.15154004112E-01  0.57617856281E-01  0.30458607284E-01  0.66913743593E-01  0.51100000000E-03 0. -1.
</event>
<event>
 8    1  0.1114447E+005  0.1043930E+01  0.7957747E-01            NaN
         13   -1    0    0    0    0  0.00000000000E+00  0.00000000000E+00  0.74505805969E-08  0.10566000000E+00  0.10566000000E+00 0.  1.
     999900   -1    0    0    0    0 -0.00000000000E+00 -0.00000000000E+00 -0.74505805969E-08  0.93827000000E+00  0.93827000000E+00 0. -1.
     999902    2    1    2    0    0  0.74806821071E-02  0.55999772437E-02  0.20452476253E-01  0.10214439124E+01  0.10211963778E+01 0.  0.
     999903    2    3    3    0    0  0.48287027089E-01  0.81646295702E-01 -0.87506255940E-01  0.13065589712E+00  0.20392744700E-01 0.  0.
         14    1    1    2    0    0 -0.74806821071E-02 -0.55999772437E-02 -0.20452476253E-01  0.22486087583E-01  0.00000000000E+00 0. -1.
     999901    1    3    3    0    0 -0.40806344982E-01 -0.76046318458E-01  0.10795873219E+00  0.89078801530E+00  0.88000000000E+00 0.  1.
        -11    1    4    4    0    0  0.42437794689E-01  0.53593028589E-01 -0.61567379506E-01  0.91999904737E-01  0.51100000000E-03 0. -1.
         11    1    4    4    0    0  0.58492323999E-02  0.28053267113E-01 -0.25938876434E-01  0.38655992382E-01  0.51100000000E-03 0.  1.
</event>
<event>
 8    1  0.1114447E+005  0.1043930E+01  0.7957747E-01            NaN
         13   -1    0    0    0    0  0.00000000000E+00  0.00000000000E+00  0.74505805969E-08  0.10566000000E+00  0.10566000000E+00 0.  1.
     999900   -1    0    0    0    0 -0.00000000000E+00 -0.00000000000E+00 -0.74505805969E-08  0.93827000000E+00  0.93827000000E+00 0. -1.
     999902    2    1    2    0    0  0.17118074326E-01 -0.10931258401E-01  0.15059652328E-01  0.10186453405E+01  0.10183314861E+01 0.  0.
     999903    2    3    3    0    0  0.82611791129E-01  0.92856404319E-01 -0.28063409627E-01  0.12908314235E+00  0.20685328653E-01 0.  0.
         14    1    1    2    0    0 -0.17118074326E-01  0.10931258401E-01 -0.15059652328E-01  0.25284659521E-01  0.00000000000E+00 0. -1.
     999901    1    3    3    0    0 -0.65493716803E-01 -0.10378766272E+00  0.43123061955E-01  0.88956219813E+00  0.88000000000E+00 0. -1.
        -11    1    4    4    0    0  0.55501320751E-01  0.54332789674E-01 -0.87256372367E-02  0.78159110186E-01  0.51100000000E-03 0.  1.
         11    1    4    4    0    0  0.27110470378E-01  0.38523614645E-01 -0.19337772390E-01  0.50924032160E-01  0.51100000000E-03 0. -1.
</event>
<event>
 8    1  0.1333118E+005  0.1043930E+01  0.7957747E-01            NaN
         13   -1    0    0    0    0  0.00000000000E+00  0.00000000000E+00  0.74505805969E-08  0.10566000000E+00  0.10566000000E+00 0.  1.
     999900   -1    0    0    0    0 -0.00000000000E+00 -0.00000000000E+00 -0.74505805969E-08  0.93827000000E+00  0.93827000000E+00 0. -1.
     999902    2    1    2    0    0 -0.80954503931E-02 -0.13172817891E-01  0.27094964547E-01  0.10127339017E+01  0.10122533077E+01 0.  0.
     999903    2    3    3    0    0 -0.98176724646E-01 -0.36105879213E-01  0.71153310065E-01  0.12674197218E+00  0.76439652109E-02 0.  0.
         14    1    1    2    0    0  0.80954503931E-02  0.13172817891E-01 -0.27094964547E-01  0.31196098347E-01  0.00000000000E+00 0. -1.
     999901    1    3    3    0    0  0.90081274253E-01  0.22933061321E-01 -0.44058345517E-01  0.88599192947E+00  0.88000000000E+00 0. -1.
        -11    1    4    4    0    0 -0.43517229730E-01 -0.19940555067E-01  0.31555163902E-01  0.57335543161E-01  0.51100000000E-03 0. -1.
         11    1    4    4    0    0 -0.54659494917E-01 -0.16165324146E-01  0.39598146163E-01  0.69406429024E-01  0.51100000000E-03 0.  1.
</event>
<event>
 8    1  0.1114447E+005  0.1043930E+01  0.7957747E-01            NaN
         13   -1    0    0    0    0  0.00000000000E+00  0.00000000000E+00  0.74505805969E-08  0.10566000000E+00  0.10566000000E+00 0. -1.
     999900   -1    0    0    0    0 -0.00000000000E+00 -0.00000000000E+00 -0.74505805969E-08  0.93827000000E+00  0.93827000000E+00 0. -1.
     999902    2    1    2    0    0 -0.19067829942E-02 -0.19010155953E-01  0.13345203413E-01  0.10206251442E+01  0.10203590391E+01 0.  0.
     999903    2    3    3    0    0  0.15777282582E-01  0.40538053955E-01 -0.11914136175E+00  0.12854252164E+00  0.20886821820E-01 0.  0.
         14    1    1    2    0    0  0.19067829942E-02  0.19010155953E-01 -0.13345203413E-01  0.23304855822E-01  0.00000000000E+00 0.  1.
     999901    1    3    3    0    0 -0.17684065576E-01 -0.59548209908E-01  0.13248656517E+00  0.89208262253E+00  0.88000000000E+00 0.  1.
        -11    1    4    4    0    0  0.16766230651E-01  0.22507030437E-01 -0.89807494588E-01  0.94092083166E-01  0.51100000000E-03 0. -1.
         11    1    4    4    0    0 -0.98894806913E-03  0.18031023517E-01 -0.29333867166E-01  0.34450438477E-01  0.51100000000E-03 0.  1.
</event>
<event>
 8    1  0.1114447E+005  0.1043930E+01  0.7957747E-01            NaN
         13   -1    0    0    0    0  0.00000000000E+00  0.00000000000E+00  0.74505805969E-08  0.10566000000E+00  0.10566000000E+00 0. -1.
     999900   -1    0    0    0    0 -0.00000000000E+00 -0.00000000000E+00 -0.74505805969E-08  0.93827000000E+00  0.93827000000E+00 0.  1.
     999902    2    1    2    0    0  0.21029832061E-01  0.94995432965E-02 -0.57581238487E-02  0.10201465783E+01  0.10198693004E+01 0.  0.
     999903    2    3    3    0    0  0.63544992172E-01  0.99114203419E-01  0.57271592789E-01  0.13233405789E+00  0.19252952697E-01 0.  0.
         14    1    1    2    0    0 -0.21029832061E-01 -0.94995432965E-02  0.57581238487E-02  0.23783421739E-01  0.00000000000E+00 0.  1.
     999901    1    3    3    0    0 -0.42515160111E-01 -0.89614660123E-01 -0.63029716637E-01  0.88781252037E+00  0.88000000000E+00 0.  1.
        -11    1    4    4    0    0  0.39973155219E-01  0.54851875072E-01  0.23303398176E-01  0.71762739807E-01  0.51100000000E-03 0. -1.
         11    1    4    4    0    0  0.23571836953E-01  0.44262328348E-01  0.33968194613E-01  0.60571318084E-01  0.51100000000E-03 0.  1.
</event>
<event>
 8    1  0.1114447E+005  0.1043930E+01  0.7957747E-01            NaN
         13   -1    0    0    0    0  0.00000000000E+00  0.00000000000E+00  0.74505805969E-08  0.10566000000E+00  0.10566000000E+00 0.  1.
     999900   -1    0    0    0    0 -0.00000000000E+00 -0.00000000000E+00 -0.74505805969E-08  0.93827000000E+00  0.93827000000E+00 0.  1.
     999902    2    1    2    0    0  0.16940209567E-01 -0.13138812595E-01 -0.79876813888E-02  0.10210520160E+01  0.10207956785E+01 0.  0.
     999903    2    3    3    0    0 -0.12641841009E+00 -0.12320215158E-01 -0.14682912862E-01  0.12942586676E+00  0.20051557214E-01 0.  0.
         14    1    1    2    0    0 -0.16940209567E-01  0.13138812595E-01  0.79876813888E-02  0.22877983970E-01  0.00000000000E+00 0.  1.
     999901    1    3    3    0    0  0.14335861965E+00 -0.81859743648E-03  0.66952314729E-02  0.89162614927E+00  0.88000000000E+00 0. -1.
        -11    1    4    4    0    0 -0.10382574509E+00 -0.38300794221E-02 -0.71769383290E-02  0.10414520832E+00  0.51100000000E-03 0.  1.
         11    1    4    4    0    0 -0.22592665003E-01 -0.84901357361E-02 -0.75059745327E-02  0.25280658445E-01  0.51100000000E-03 0. -1.
</event>
<event>
 8    1  0.1114447E+005  0.1043930E+01  0.7957747E-01            NaN
         13   -1    0    0    0    0  0.00000000000E+00  0.00000000000E+00  0.74505805969E-08  0.10566000000E+00  0.10566000000E+00 0. -1.
     999900   -1    0    0    0    0 -0.00000000000E+00 -0.00000000000E+00 -0.74505805969E-08  0.93827000000E+00  0.93827000000E+00 0.  1.
     999902    2    1    2    0    0  0.20273960396E-01 -0.77485292378E-02  0.94309641304E-02  0.10202653373E+01  0.10199908540E+01 0.  0.
     999903    2    3    3    0    0 -0.76969667671E-01  0.10036896338E+00  0.70995364922E-02  0.12832859575E+00  0.20483322899E-01 0.  0.
         14    1    1    2    0    0 -0.20273960396E-01  0.77485292378E-02 -0.94309641304E-02  0.23664662683E-01  0.00000000000E+00 0.  1.
     999901    1    3    3    0    0  0.97243628067E-01 -0.10811749261E+00  0.23314276382E-02  0.89193674157E+00  0.88000000000E+00 0. -1.
        -11    1    4    4    0    0 -0.69369806549E-01  0.80109471759E-01  0.15433330977E-02  0.10598273692E+00  0.51100000000E-03 0.  1.
         11    1    4    4    0    0 -0.75998611225E-02  0.20259491619E-01  0.55562033945E-02  0.22345858831E-01  0.51100000000E-03 0. -1.
</event>
<event>
 8    1  0.1114447E+005  0.1043930E+01  0.7957747E-01            NaN
         13   -1    0    0    0    0  0.00000000000E+00  0.00000000000E+00  0.74505805969E-08  0.10566000000E+00  0.10566000000E+00 0.  1.
     999900   -1    0    0    0    0 -0.00000000000E+00 -0.00000000000E+00 -0.74505805969E-08  0.93827000000E+00  0.93827000000E+00 0.  1.
     999902    2    1    2    0    0  0.13153133045E-01 -0.18818795951E-01  0.38067308821E-02  0.10206567710E+01  0.10203913959E+01 0.  0.
     999903    2    3    3    0    0 -0.94673164116E-01  0.63514076796E-01  0.55436041225E-01  0.12876507463E+00  0.22588577265E-01 0.  0.
         14    1    1    2    0    0 -0.13153133045E-01  0.18818795951E-01 -0.38067308821E-02  0.23273229040E-01  0.00000000000E+00 0.  1.
     999901    1    3    3    0    0  0.10782629716E+00 -0.82332872747E-01 -0.51629310343E-01  0.89189169633E+00  0.88000000000E+00 0.  1.
        -11    1    4    4    0    0 -0.21152000852E-01  0.10171389244E-01  0.24457313677E-02  0.23603114670E-01  0.51100000000E-03 0.  1.
         11    1    4    4    0    0 -0.73521163265E-01  0.53342687552E-01  0.52990309857E-01  0.10516195996E+00  0.51100000000E-03 0. -1.
</event>
<event>
 8    1  0.1114447E+005  0.1043930E+01  0.7957747E-01            NaN
         13   -1    0    0    0    0  0.00000000000E+00  0.00000000000E+00  0.74505805969E-08  0.10566000000E+00  0.10566000000E+00 0. -1.
     999900   -1    0    0    0    0 -0.00000000000E+00 -0.00000000000E+00 -0.74505805969E-08  0.93827000000E+00  0.93827000000E+00 0. -1.
     999902    2    1    2    0    0 -0.37208321760E-02 -0.37922849091E-02  0.22617688392E-01  0.10206967083E+01  0.10204322537E+01 0.  0.
     999903    2    3    3    0    0  0.94153478998E-01 -0.32670622938E-01  0.85262577209E-01  0.13258763765E+00  0.19430063714E-01 0.  0.
         14    1    1    2    0    0  0.37208321760E-02  0.37922849091E-02 -0.22617688392E-01  0.23233291741E-01  0.00000000000E+00 0.  1.
     999901    1    3    3    0    0 -0.97874311174E-01  0.28878338029E-01 -0.62644888816E-01  0.88810907060E+00  0.88000000000E+00 0. -1.
        -11    1    4    4    0    0  0.36691124566E-01 -0.19318855396E-01  0.25886051929E-01  0.48885637984E-01  0.51100000000E-03 0. -1.
         11    1    4    4    0    0  0.57462354433E-01 -0.13351767542E-01  0.59376525280E-01  0.83701999670E-01  0.51100000000E-03 0.  1.
</event>
<event>
 8    1  0.1114447E+005  0.1043930E+01  0.7957747E-01            NaN
         13   -1    0    0    0    0  0.00000000000E+00  0.00000000000E+00  0.74505805969E-08  0.10566000000E+00  0.10566000000E+00 0. -1.
     999900   -1    0    0    0    0 -0.00000000000E+00 -0.00000000000E+00 -0.74505805969E-08  0.93827000000E+00  0.93827000000E+00 0. -1.
     999902    2    1    2    0    0 -0.99028769661E-02  0.20563989534E-01  0.36439287408E-02  0.10208167386E+01  0.10205550406E+01 0.  0.
     999903    2    3    3    0    0 -0.52447655159E-01  0.10405047822E+00  0.62627930250E-01  0.13387865482E+00  0.20590726582E-01 0.  0.
         14    1    1    2    0    0  0.99028769661E-02 -0.20563989534E-01 -0.36439287408E-02  0.23113261441E-01  0.00000000000E+00 0. -1.
     999901    1    3    3    0    0  0.42544778193E-01 -0.83486488683E-01 -0.58984001510E-01  0.88693808373E+00  0.88000000000E+00 0.  1.
        -11    1    4    4    0    0 -0.32645576444E-01  0.55487206540E-01  0.23865799101E-01  0.68661497498E-01  0.51100000000E-03 0. -1.
         11    1    4    4    0    0 -0.19802078715E-01  0.48563271678E-01  0.38762131150E-01  0.65217157327E-01  0.51100000000E-03 0.  1.
</event>
<event>
 8    1  0.1114447E+005  0.1043930E+01  0.7957747E-01            NaN
         13   -1    0    0    0    0  0.00000000000E+00  0.00000000000E+00  0.74505805969E-08  0.10566000000E+00  0.10566000000E+00 0. -1.
     999900   -1    0    0    0    0 -0.00000000000E+00 -0.00000000000E+00 -0.74505805969E-08  0.93827000000E+00  0.93827000000E+00 0.  1.
     999902    2    1    2    0    0  0.48754102310E-02  0.21396637093E-01  0.85292157584E-02  0.10203857178E+01  0.10201140524E+01 0.  0.
     999903    2    3    3    0    0 -0.59695380365E-01 -0.91038263668E-01  0.66347803215E-01  0.12900814180E+00  0.19737420554E-01 0.  0.
         14    1    1    2    0    0 -0.48754102310E-02 -0.21396637093E-01 -0.85292157584E-02  0.23544282220E-01  0.00000000000E+00 0. -1.
     999901    1    3    3    0    0  0.64570790596E-01  0.11243490076E+00 -0.57818587457E-01  0.89137757598E+00  0.88000000000E+00 0. -1.
        -11    1    4    4    0    0 -0.43141525868E-01 -0.76522998218E-01  0.46670342591E-01  0.99475336185E-01  0.51100000000E-03 0. -1.
         11    1    4    4    0    0 -0.16553854497E-01 -0.14515265450E-01  0.19677460624E-01  0.29532805613E-01  0.51100000000E-03 0.  1.
</event>
<event>
 8    1  0.1114447E+005  0.1043930E+01  0.7957747E-01            NaN
         13   -1    0    0    0    0  0.00000000000E+00  0.00000000000E+00  0.74505805969E-08  0.10566000000E+00  0.10566000000E+00 0.  1.
     999900   -1    0    0    0    0 -0.00000000000E+00 -0.00000000000E+00 -0.74505805969E-08  0.93827000000E+00  0.93827000000E+00 0. -1.
     999902    2    1    2    0    0  0.20135024328E-01  0.12194718330E-01 -0.49642090343E-02  0.10198722833E+01  0.10195884957E+01 0.  0.
     999903    2    3    3    0    0  0.79347238608E-01 -0.25926230504E-01 -0.10011633564E+00  0.13194592363E+00  0.20452197891E-01 0.  0.
         14    1    1    2    0    0 -0.20135024328E-01 -0.12194718330E-01  0.49642090343E-02  0.24057716666E-01  0.00000000000E+00 0.  1.
     999901    1    3    3    0    0 -0.59212214279E-01  0.38120948834E-01  0.95152126602E-01  0.88792635970E+00  0.88000000000E+00 0.  1.
        -11    1    4    4    0    0  0.48622882094E-01 -0.88961249204E-02 -0.46644608397E-01  0.67965478849E-01  0.51100000000E-03 0. -1.
         11    1    4    4    0    0  0.30724356513E-01 -0.17030105583E-01 -0.53471727240E-01  0.63980444781E-01  0.51100000000E-03 0.  1.
</event>
<event>
 8    1  0.1114447E+005  0.1043930E+01  0.7957747E-01            NaN
         13   -1    0    0    0    0  0.00000000000E+00  0.00000000000E+00  0.74505805969E-08  0.10566000000E+00  0.10566000000E+00 0.  1.
     999900   -1    0    0    0    0 -0.00000000000E+00 -0.00000000000E+00 -0.74505805969E-08  0.93827000000E+00  0.93827000000E+00 0. -1.
     999902    2    1    2    0    0 -0.21947667377E-01  0.10920300285E-01 -0.10957757370E-02  0.10193911780E+01  0.10190957855E+01 0.  0.
     999903    2    3    3    0    0 -0.11981024872E+00  0.53487864110E-01 -0.25980211132E-02  0.13294245467E+00  0.21248511329E-01 0.  0.
         14    1    1    2    0    0  0.21947667377E-01 -0.10920300285E-01  0.10957757370E-02  0.24538822019E-01  0.00000000000E+00 0. -1.
     999901    1    3    3    0    0  0.97862581347E-01 -0.42567563825E-01  0.15022453762E-02  0.88644872331E+00  0.88000000000E+00 0.  1.
        -11    1    4    4    0    0 -0.39174198763E-01  0.24411740962E-01 -0.88258405310E-02  0.46996888489E-01  0.51100000000E-03 0.  1.
         11    1    4    4    0    0 -0.80636049961E-01  0.29076123148E-01  0.62278194178E-02  0.85945566182E-01  0.51100000000E-03 0. -1.
</event>
<event>
 8    1  0.1114447E+005  0.1043930E+01  0.7957747E-01            NaN
         13   -1    0    0    0    0  0.00000000000E+00  0.00000000000E+00  0.74505805969E-08  0.10566000000E+00  0.10566000000E+00 0. -1.
     999900   -1    0    0    0    0 -0.00000000000E+00 -0.00000000000E+00 -0.74505805969E-08  0.93827000000E+00  0.93827000000E+00 0. -1.
     999902    2    1    2    0    0  0.18662491117E-01  0.12297629401E-01  0.67544527615E-02  0.10205817047E+01  0.10203145951E+01 0.  0.
     999903    2    3    3    0    0  0.10281520430E+00  0.74547857388E-01 -0.35351175421E-01  0.13337842809E+00  0.20291628805E-01 0.  0.
         14    1    1    2    0    0 -0.18662491117E-01 -0.12297629401E-01 -0.67544527615E-02  0.23348295348E-01  0.00000000000E+00 0.  1.
     999901    1    3    3    0    0 -0.84152713182E-01 -0.62250227987E-01  0.42105628183E-01  0.88720327656E+00  0.88000000000E+00 0.  1.
        -11    1    4    4    0    0  0.75803416557E-01  0.57198170271E-01 -0.17242535206E-01  0.96516085630E-01  0.51100000000E-03 0.  1.
         11    1    4    4    0    0  0.27011787742E-01  0.17349687116E-01 -0.18108640215E-01  0.36862342458E-01  0.51100000000E-03 0. -1.
</event>
<event>
 8    1  0.1114447E+005  0.1043930E+01  0.7957747E-01            NaN
         13   -1    0    0    0    0  0.00000000000E+00  0.00000000000E+00  0.74505805969E-08  0.10566000000E+00  0.10566000000E+00 0. -1.
     999900   -1    0    0    0    0 -0.00000000000E+00 -0.00000000000E+00 -0.74505805969E-08  0.93827000000E+00  0.93827000000E+00 0.  1.
     999902    2    1    2    0    0  0.14722028592E-01 -0.96092064537E-02 -0.14466543964E-01  0.10211625700E+01  0.10209087317E+01 0.  0.
     999903    2    3    3    0    0 -0.23600051254E-01  0.74424227619E-01 -0.10402129828E+00  0.13180872936E+00  0.21381827848E-01 0.  0.
         14    1    1    2    0    0 -0.14722028592E-01  0.96092064537E-02  0.14466543964E-01  0.22767430000E-01  0.00000000000E+00 0. -1.
     999901    1    3    3    0    0  0.38322079846E-01 -0.84033434073E-01  0.89554754320E-01  0.88935384064E+00  0.88000000000E+00 0. -1.
        -11    1    4    4    0    0 -0.19487107891E-01  0.35695043303E-01 -0.64991915717E-01  0.76668727131E-01  0.51100000000E-03 0.  1.
         11    1    4    4    0    0 -0.41129433623E-02  0.38729184316E-01 -0.39029382567E-01  0.55140002226E-01  0.51100000000E-03 0. -1.
</event>
<event>
 8    1  0.1114447E+005  0.1043930E+01  0.7957747E-01            NaN
         13   -1    0    0    0    0  0.00000000000E+00  0.00000000000E+00  0.74505805969E-08  0.10566000000E+00  0.10566000000E+00 0.  1.
     999900   -1    0    0    0    0 -0.00000000000E+00 -0.00000000000E+00 -0.74505805969E-08  0.93827000000E+00  0.93827000000E+00 0.  1.
     999902    2    1    2    0    0  0.57498243874E-02  0.17839144630E-01 -0.11496757781E-01  0.10219420260E+01  0.10217054534E+01 0.  0.
     999903    2    3    3    0    0 -0.10892388208E+00  0.59439618429E-01 -0.42709485584E-01  0.13297920745E+00  0.21491605974E-01 0.  0.
         14    1    1    2    0    0 -0.57498243874E-02 -0.17839144630E-01  0.11496757781E-01  0.21987974010E-01  0.00000000000E+00 0.  1.
     999901    1    3    3    0    0  0.11467370647E+00 -0.41600473800E-01  0.31212727803E-01  0.88896281854E+00  0.88000000000E+00 0. -1.
        -11    1    4    4    0    0 -0.73278291015E-01  0.28178155331E-01 -0.27369077767E-01  0.83144716674E-01  0.51100000000E-03 0. -1.
         11    1    4    4    0    0 -0.35645591067E-01  0.31261463099E-01 -0.15340407817E-01  0.49834490773E-01  0.51100000000E-03 0.  1.
</event>
<event>
 8    1  0.1114447E+005  0.1043930E+01  0.7957747E-01            NaN
         13   -1    0    0    0    0  0.00000000000E+00  0.00000000000E+00  0.74505805969E-08  0.10566000000E+00  0.10566000000E+00 0. -1.
     999900   -1    0    0    0    0 -0.00000000000E+00 -0.00000000000E+00 -0.74505805969E-08  0.93827000000E+00  0.93827000000E+00 0.  1.
     999902    2    1    2    0    0  0.16872583735E-01 -0.12751378147E-01  0.15721795466E-01  0.10175774559E+01  0.10172361684E+01 0.  0.
     999903    2    3    3    0    0 -0.11251047326E+00  0.40948478713E-01  0.35082097753E-01  0.12628711526E+00  0.19552426840E-01 0.  0.
         14    1    1    2    0    0 -0.16872583735E-01  0.12751378147E-01 -0.15721795466E-01  0.26352544074E-01  0.00000000000E+00 0.  1.
     999901    1    3    3    0    0  0.12938305699E+00 -0.53699856860E-01 -0.19360302288E-01  0.89129034067E+00  0.88000000000E+00 0.  1.
        -11    1    4    4    0    0 -0.41059383249E-01  0.25088084369E-01  0.13395016588E-01  0.49949699904E-01  0.51100000000E-03 0. -1.
         11    1    4    4    0    0 -0.71451090010E-01  0.15860394344E-01  0.21687081165E-01  0.76337415353E-01  0.51100000000E-03 0.  1.
</event>
<event>
 8    1  0.1114447E+005  0.1043930E+01  0.7957747E-01            NaN
         13   -1    0    0    0    0  0.00000000000E+00  0.00000000000E+00  0.74505805969E-08  0.10566000000E+00  0.10566000000E+00 0. -1.
     999900   -1    0    0    0    0 -0.00000000000E+00 -0.00000000000E+00 -0.74505805969E-08  0.93827000000E+00  0.93827000000E+00 0.  1.
     999902    2    1    2    0    0  0.89413790577E-02 -0.20819282599E-01 -0.86706009476E-02  0.10196695361E+01  0.10193808870E+01 0.  0.
     999903    2    3    3    0    0  0.87282579231E-01  0.92154187363E-01  0.64777621619E-02  0.12886662779E+00  0.21307357187E-01 0.  0.
         14    1    1    2    0    0 -0.89413790577E-02  0.20819282599E-01  0.86706009476E-02  0.24260463891E-01  0.00000000000E+00 0.  1.
     999901    1    3    3    0    0 -0.78341200173E-01 -0.11297346996E+00 -0.15148363110E-01  0.89080290832E+00  0.88000000000E+00 0.  1.
        -11    1    4    4    0    0  0.44165699444E-01  0.50957142462E-01  0.13642177270E-01  0.68801231798E-01  0.51100000000E-03 0.  1.
         11    1    4    4    0    0  0.43116879787E-01  0.41197044901E-01 -0.71644151083E-02  0.60065395995E-01  0.51100000000E-03 0. -1.
</event>
<event>
 8    1  0.1114447E+005  0.1043930E+01  0.7957747E-01            NaN
         13   -1    0    0    0    0  0.00000000000E+00  0.00000000000E+00  0.74505805969E-08  0.10566000000E+00  0.10566000000E+00 0. -1.
     999900   -1    0    0    0    0 -0.00000000000E+00 -0.00000000000E+00 -0.74505805969E-08  0.93827000000E+00  0.93827000000E+00 0. -1.
     999902    2    1    2    0    0  0.21658763991E-01  0.39042795766E-02 -0.61396156557E-02  0.10210817979E+01  0.10208261349E+01 0.  0.
     999903    2    3    3    0    0  0.54998368548E-01 -0.19880181390E-01 -0.11780373032E+00  0.13308061308E+00  0.20314737149E-01 0.  0.
         14    1    1    2    0    0 -0.21658763991E-01 -0.39042795766E-02  0.61396156557E-02  0.22848202052E-01  0.00000000000E+00 0.  1.
     999901    1    3    3    0    0 -0.33339604557E-01  0.23784460967E-01  0.11166411467E+00  0.88800118486E+00  0.88000000000E+00 0.  1.
        -11    1    4    4    0    0  0.19650314511E-01 -0.73700874661E-02 -0.65071461460E-01  0.68374039425E-01  0.51100000000E-03 0. -1.
         11    1    4    4    0    0  0.35348054037E-01 -0.12510093924E-01 -0.52732268863E-01  0.64706573659E-01  0.51100000000E-03 0.  1.
</event>
<event>
 8    1  0.1114447E+005  0.1043930E+01  0.7957747E-01            NaN
         13   -1    0    0    0    0  0.00000000000E+00  0.00000000000E+00  0.74505805969E-08  0.10566000000E+00  0.10566000000E+00 0.  1.
     999900   -1    0    0    0    0 -0.00000000000E+00 -0.00000000000E+00 -0.74505805969E-08  0.93827000000E+00  0.93827000000E+00 0. -1.
     999902    2    1    2    0    0 -0.89489476874E-02 -0.17670125282E-01  0.12028498746E-01  0.10207567013E+01  0.10204936263E+01 0.  0.
     999903    2    3    3    0    0  0.64107326328E-01  0.80017492805E-01  0.77200725047E-01  0.12995509093E+00  0.20391794088E-01 0.  0.
         14    1    1    2    0    0  0.89489476874E-02  0.17670125282E-01 -0.12028498746E-01  0.23173298735E-01  0.00000000000E+00 0.  1.
     999901    1    3    3    0    0 -0.73056274016E-01 -0.97687618087E-01 -0.65172226301E-01  0.89080161034E+00  0.88000000000E+00 0. -1.
        -11    1    4    4    0    0  0.12835794271E-01  0.29818836257E-01  0.28805211881E-01  0.43404169878E-01  0.51100000000E-03 0.  1.
         11    1    4    4    0    0  0.51271532057E-01  0.50198656548E-01  0.48395513166E-01  0.86550921049E-01  0.51100000000E-03 0. -1.
</event>
<event>
 8    1  0.1114447E+005  0.1043930E+01  0.7957747E-01            NaN
         13   -1    0    0    0    0  0.00000000000E+00  0.00000000000E+00  0.74505805969E-08  0.10566000000E+00  0.10566000000E+00 0.  1.
     999900   -1    0    0    0    0 -0.00000000000E+00 -0.00000000000E+00 -0.74505805969E-08  0.93827000000E+00  0.93827000000E+00 0.  1.
     999902    2    1    2    0    0  0.26401902071E-01 -0.16171268936E-01 -0.16743420129E-02  0.10129239717E+01  0.10124493067E+01 0.  0.
     999903    2    3    3    0    0 -0.10413301554E+00 -0.59575339431E-01 -0.12404725124E-01  0.12217236815E+00  0.19475737191E-01 0.  0.
         14    1    1    2    0    0 -0.26401902071E-01  0.16171268936E-01  0.16743420129E-02  0.31006028335E-01  0.00000000000E+00 0.  1.
     999901    1    3    3    0    0  0.13053491761E+00  0.43404070495E-01  0.10730383111E-01  0.89075160352E+00  0.88000000000E+00 0.  1.
        -11    1    4    4    0    0 -0.54066966775E-01 -0.29424682411E-01  0.33237028266E-02  0.61647035230E-01  0.51100000000E-03 0. -1.
         11    1    4    4    0    0 -0.50066048765E-01 -0.30150657021E-01 -0.15728427951E-01  0.60525332915E-01  0.51100000000E-03 0.  1.
</event>
<event>
 8    1  0.1114447E+005  0.1043930E+01  0.7957747E-01            NaN
         13   -1    0    0    0    0  0.00000000000E+00  0.00000000000E+00  0.74505805969E-08  0.10566000000E+00  0.10566000000E+00 0.  1.
     999900   -1    0    0    0    0 -0.00000000000E+00 -0.00000000000E+00 -0.74505805969E-08  0.93827000000E+00  0.93827000000E+00 0. -1.
     999902    2    1    2    0    0 -0.38454831611E-02 -0.17341577442E-01 -0.15491876898E-01  0.10203606067E+01  0.10200883547E+01 0.  0.
     999903    2    3    3    0    0 -0.10989145752E+00  0.64868040120E-01  0.10671132214E-01  0.12980534571E+00  0.21249932883E-01 0.  0.
         14    1    1    2    0    0  0.38454831611E-02  0.17341577442E-01  0.15491876898E-01  0.23569393262E-01  0.00000000000E+00 0.  1.
     999901    1    3    3    0    0  0.10604597436E+00 -0.82209617562E-01 -0.26163009113E-01  0.89055526103E+00  0.88000000000E+00 0.  1.
        -11    1    4    4    0    0 -0.28588874790E-01  0.22562803239E-01 -0.51887872302E-02  0.36791146838E-01  0.51100000000E-03 0.  1.
         11    1    4    4    0    0 -0.81302582730E-01  0.42305236881E-01  0.15859919444E-01  0.93014198872E-01  0.51100000000E-03 0. -1.
</event>
<event>
 8    1  0.1114447E+005  0.1043930E+01  0.7957747E-01            NaN
         13   -1    0    0    0    0  0.00000000000E+00  0.00000000000E+00  0.74505805969E-08  0.10566000000E+00  0.10566000000E+00 0. -1.
     999900   -1    0    0    0    0 -0.00000000000E+00 -0.00000000000E+00 -0.74505805969E-08  0.93827000000E+00  0.93827000000E+00 0.  1.
     999902    2    1    2    0    0 -0.19279768627E-01 -0.61873367968E-02  0.11360104973E-01  0.10207126660E+01  0.10204485787E+01 0.  0.
     999903    2    3    3    0    0 -0.32133559047E-01 -0.38871901845E-01 -0.11864353913E+00  0.13046862739E+00  0.20054500428E-01 0.  0.
         14    1    1    2    0    0  0.19279768627E-01  0.61873367968E-02 -0.11360104973E-01  0.23217334040E-01  0.00000000000E+00 0.  1.
     999901    1    3    3    0    0  0.12853790420E-01  0.32684565048E-01  0.13000364410E+00  0.89024403856E+00  0.88000000000E+00 0. -1.
        -11    1    4    4    0    0 -0.20348329557E-01 -0.13409831306E-01 -0.38634079091E-01  0.45680753930E-01  0.51100000000E-03 0.  1.
         11    1    4    4    0    0 -0.11785229490E-01 -0.25462070539E-01 -0.80009460037E-01  0.84787873464E-01  0.51100000000E-03 0. -1.
</event>
<event>
 7    1  0.1114447E+005  0.1043930E+01  0.7957747E-01            NaN
         13   -1    0    0    0    0  0.00000000000E+00  0.00000000000E+00  0.74505805969E-08  0.10566000000E+00  0.10566000000E+00 0. -1.
     999900   -1    0    0    0    0 -0.00000000000E+00 -0.00000000000E+00 -0.74505805969E-08  0.93827000000E+00  0.93827000000E+00 0.  1.
     999902    2    1    2    0    0 -0.64625237458E-02 -0.14512429272E-01  0.15400803074E-01  0.10218040073E+01  0.10215644228E+01 0.  0.
         14    1    1    2    0    0  0.64625237458E-02  0.14512429272E-01 -0.15400803074E-01  0.22125992675E-01  0.00000000000E+00 0. -1.
     999901    1    3    3    0    0 -0.12293373861E+00 -0.10947903922E-01  0.62840837553E-01  0.89083193227E+00  0.88000000000E+00 0.  1.
        -11    1    3    3    0    0  0.80619947641E-01  0.14514820631E-01 -0.32415963901E-01  0.88098307659E-01  0.51100000000E-03 0. -1.
         11    1    3    3    0    0  0.35851267228E-01 -0.18079345980E-01 -0.15024070578E-01  0.42873767395E-01  0.51100000000E-03 0.  1.
</event>
<event>
 8    1  0.1114447E+005  0.1043930E+01  0.7957747E-01            NaN
         13   -1    0    0    0    0  0.00000000000E+00  0.00000000000E+00  0.74505805969E-08  0.10566000000E+00  0.10566000000E+00 0.  1.
     999900   -1    0    0    0    0 -0.00000000000E+00 -0.00000000000E+00 -0.74505805969E-08  0.93827000000E+00  0.93827000000E+00 0.  1.
     999902    2    1    2    0    0 -0.13131752980E-01  0.33673331784E-02 -0.18673234646E-01  0.10208546547E+01  0.10205938244E+01 0.  0.
     999903    2    3    3    0    0 -0.75770816154E-01 -0.60330894832E-01  0.84506750565E-01  0.13033389365E+00  0.21552250280E-01 0.  0.
         14    1    1    2    0    0  0.13131752980E-01 -0.33673331784E-02  0.18673234646E-01  0.23075345310E-01  0.00000000000E+00 0.  1.
     999901    1    3    3    0    0  0.62639063174E-01  0.63698228010E-01 -0.10317998521E+00  0.89052076104E+00  0.88000000000E+00 0.  1.
        -11    1    4    4    0    0 -0.37272296946E-01 -0.31250649566E-01  0.56462501212E-01  0.74525850428E-01  0.51100000000E-03 0.  1.
         11    1    4    4    0    0 -0.38498519208E-01 -0.29080245266E-01  0.28044249353E-01  0.55808043226E-01  0.51100000000E-03 0. -1.
</event>
<event>
 8    1  0.1114447E+005  0.1043930E+01  0.7957747E-01            NaN
         13   -1    0    0    0    0  0.00000000000E+00  0.00000000000E+00  0.74505805969E-08  0.10566000000E+00  0.10566000000E+00 0.  1.
     999900   -1    0    0    0    0 -0.00000000000E+00 -0.00000000000E+00 -0.74505805969E-08  0.93827000000E+00  0.93827000000E+00 0.  1.
     999902    2    1    2    0    0 -0.19346578643E-01 -0.18478220335E-01  0.10285207926E-01  0.10152678257E+01  0.10148631621E+01 0.  0.
     999903    2    3    3    0    0  0.94267752206E-01 -0.55792601562E-01 -0.56244665927E-01  0.12469115675E+00  0.19626477784E-01 0.  0.
         14    1    1    2    0    0  0.19346578643E-01  0.18478220335E-01 -0.10285207926E-01  0.28662174273E-01  0.00000000000E+00 0.  1.
     999901    1    3    3    0    0 -0.11361433085E+00  0.37314381227E-01  0.66529873853E-01  0.89057666898E+00  0.88000000000E+00 0. -1.
        -11    1    4    4    0    0  0.32144936238E-01 -0.29867285809E-01 -0.24602347445E-01  0.50307934843E-01  0.51100000000E-03 0.  1.
         11    1    4    4    0    0  0.62122815968E-01 -0.25925315753E-01 -0.31642318482E-01  0.74383221903E-01  0.51100000000E-03 0. -1.
</event>
<event>
 8    1  0.1114447E+005  0.1043930E+01  0.7957747E-01            NaN
         13   -1    0    0    0    0  0.00000000000E+00  0.00000000000E+00  0.74505805969E-08  0.10566000000E+00  0.10566000000E+00 0.  1.
     999900   -1    0    0    0    0 -0.00000000000E+00 -0.00000000000E+00 -0.74505805969E-08  0.93827000000E+00  0.93827000000E+00 0.  1.
     999902    2    1    2    0    0 -0.10878180829E-01  0.72844863647E-02  0.19277464528E-01  0.10206272277E+01  0.10203611707E+01 0.  0.
     999903    2    3    3    0    0  0.28364947010E-01 -0.52401989199E-01 -0.11158474639E+00  0.12808735926E+00  0.20116592289E-01 0.  0.
         14    1    1    2    0    0  0.10878180829E-01 -0.72844863647E-02 -0.19277464528E-01  0.23302772332E-01  0.00000000000E+00 0. -1.
     999901    1    3    3    0    0 -0.39243127839E-01  0.59686475563E-01  0.13086221092E+00  0.89253986841E+00  0.88000000000E+00 0.  1.
        -11    1    4    4    0    0  0.12204722910E-01 -0.30289096053E-01 -0.79207162210E-01  0.85676252645E-01  0.51100000000E-03 0. -1.
         11    1    4    4    0    0  0.16160224100E-01 -0.22112893145E-01 -0.32377584179E-01  0.42411106617E-01  0.51100000000E-03 0.  1.
</event>
<event>
 8    1  0.1114447E+005  0.1043930E+01  0.7957747E-01            NaN
         13   -1    0    0    0    0  0.00000000000E+00  0.00000000000E+00  0.74505805969E-08  0.10566000000E+00  0.10566000000E+00 0.  1.
     999900   -1    0    0    0    0 -0.00000000000E+00 -0.00000000000E+00 -0.74505805969E-08  0.93827000000E+00  0.93827000000E+00 0. -1.
     999902    2    1    2    0    0  0.18172150191E-01  0.12861724543E-01  0.71234207334E-02  0.10205549252E+01  0.10202871954E+01 0.  0.
     999903    2    3    3    0    0  0.90958500481E-01  0.95221345587E-01  0.11764654362E-01  0.13370516279E+00  0.19952694039E-01 0.  0.
         14    1    1    2    0    0 -0.18172150191E-01 -0.12861724543E-01 -0.71234207334E-02  0.23375074839E-01  0.00000000000E+00 0. -1.
     999901    1    3    3    0    0 -0.72786350290E-01 -0.82359621045E-01 -0.46412336282E-02  0.88684976237E+00  0.88000000000E+00 0.  1.
        -11    1    4    4    0    0  0.84582991937E-01  0.92336068243E-01  0.73966833696E-02  0.12544004173E+00  0.51100000000E-03 0.  1.
         11    1    4    4    0    0  0.63755085439E-02  0.28852773449E-02  0.43679709920E-02  0.82651210601E-02  0.51100000000E-03 0. -1.
</event>
<event>
 8    1  0.1114447E+005  0.1043930E+01  0.7957747E-01            NaN
         13   -1    0    0    0    0  0.00000000000E+00  0.00000000000E+00  0.74505805969E-08  0.10566000000E+00  0.10566000000E+00 0.  1.
     999900   -1    0    0    0    0 -0.00000000000E+00 -0.00000000000E+00 -0.74505805969E-08  0.93827000000E+00  0.93827000000E+00 0. -1.
     999902    2    1    2    0    0  0.21380481973E-01 -0.53582330666E-02 -0.98967978644E-02  0.10197684132E+01  0.10194821402E+01 0.  0.
     999903    2    3    3    0    0 -0.12483659208E+00 -0.15904188128E-01 -0.83802323964E-02  0.12764008725E+00  0.19612385273E-01 0.  0.
         14    1    1    2    0    0 -0.21380481973E-01  0.53582330666E-02  0.98967978644E-02  0.24161586847E-01  0.00000000000E+00 0. -1.
     999901    1    3    3    0    0  0.14621707405E+00  0.10545955061E-01 -0.15165654679E-02  0.89212832591E+00  0.88000000000E+00 0.  1.
        -11    1    4    4    0    0 -0.14930999365E-01 -0.29653276511E-02  0.53110480761E-02  0.16130600199E-01  0.51100000000E-03 0.  1.
         11    1    4    4    0    0 -0.10990559271E+00 -0.12938860477E-01 -0.13691280472E-01  0.11150948705E+00  0.51100000000E-03 0. -1.
</event>
<event>
 8    1  0.1114447E+005  0.1043930E+01  0.7957747E-01            NaN
         13   -1    0    0    0    0  0.00000000000E+00  0.00000000000E+00  0.74505805969E-08  0.10566000000E+00  0.10566000000E+00 0.  1.
     999900   -1    0    0    0    0 -0.00000000000E+00 -0.00000000000E+00 -0.74505805969E-08  0.93827000000E+00  0.93827000000E+00 0.  1.
     999902    2    1    2    0    0  0.18350001442E-01 -0.14972770616E-01 -0.12521774832E-02  0.10202134581E+01  0.10199377558E+01 0.  0.
     999903    2    3    3    0    0  0.79832128899E-01 -0.63114125840E-01  0.82846211922E-01  0.13276194887E+00  0.20141463501E-01 0.  0.
         14    1    1    2    0    0 -0.18350001442E-01  0.14972770616E-01  0.12521774832E-02  0.23716541934E-01  0.00000000000E+00 0.  1.
     999901    1    3    3    0    0 -0.61482127457E-01  0.48141355224E-01 -0.84098389406E-01  0.88745150920E+00  0.88000000000E+00 0.  1.
        -11    1    4    4    0    0  0.38787615756E-01 -0.42934951332E-01  0.49661753920E-01  0.76252476060E-01  0.51100000000E-03 0. -1.
         11    1    4    4    0    0  0.41044513143E-01 -0.20179174508E-01  0.33184458002E-01  0.56509472807E-01  0.51100000000E-03 0.  1.
</event>
<event>
 8    1  0.1114447E+005  0.1043930E+01  0.7957747E-01            NaN
         13   -1    0    0    0    0  0.00000000000E+00  0.00000000000E+00  0.74505805969E-08  0.10566000000E+00  0.10566000000E+00 0. -1.
     999900   -1    0    0    0    0 -0.00000000000E+00 -0.00000000000E+00 -0.74505805969E-08  0.93827000000E+00  0.93827000000E+00 0.  1.
     999902    2    1    2    0    0  0.20872355382E-01  0.72199346070E-02  0.93355689529E-02  0.10199521869E+01  0.10196703036E+01 0.  0.
     999903    2    3    3    0    0  0.26681647046E-01  0.77954571939E-01 -0.99082109465E-01  0.13046270982E+00  0.20357521011E-01 0.  0.
         14    1    1    2    0    0 -0.20872355382E-01 -0.72199346070E-02 -0.93355689529E-02  0.23977813132E-01  0.00000000000E+00 0.  1.
     999901    1    3    3    0    0 -0.58092916632E-02 -0.70734637332E-01  0.10841767842E+00  0.88948947705E+00  0.88000000000E+00 0. -1.
        -11    1    4    4    0    0  0.76016179229E-02  0.44216047671E-02 -0.85113807125E-02  0.12249077777E-01  0.51100000000E-03 0. -1.
         11    1    4    4    0    0  0.19080029123E-01  0.73532967172E-01 -0.90570728753E-01  0.11821363204E+00  0.51100000000E-03 0.  1.
</event>
<event>
 8    1  0.1114447E+005  0.1043930E+01  0.7957747E-01            NaN
         13   -1    0    0    0    0  0.00000000000E+00  0.00000000000E+00  0.74505805969E-08  0.10566000000E+00  0.10566000000E+00 0.  1.
     999900   -1    0    0    0    0 -0.00000000000E+00 -0.00000000000E+00 -0.74505805969E-08  0.93827000000E+00  0.93827000000E+00 0. -1.
     999902    2    1    2    0    0 -0.21816506176E-01 -0.11270275895E-01 -0.38896159937E-02  0.10190682186E+01  0.10187649022E+01 0.  0.
     999903    2    3    3    0    0 -0.67469387421E-01  0.65726265750E-01  0.87103047923E-01  0.12985940295E+00  0.20111273664E-01 0.  0.
         14    1    1    2    0    0  0.21816506176E-01  0.11270275895E-01  0.38896159937E-02  0.24861781374E-01  0.00000000000E+00 0.  1.
     999901    1    3    3    0    0  0.45652881245E-01 -0.76996541645E-01 -0.90992663917E-01  0.88920881568E+00  0.88000000000E+00 0. -1.
        -11    1    4    4    0    0 -0.45172063484E-01  0.41821536843E-01  0.43583884330E-01  0.75427928234E-01  0.51100000000E-03 0. -1.
         11    1    4    4    0    0 -0.22297323937E-01  0.23904728907E-01  0.43519163593E-01  0.54431474715E-01  0.51100000000E-03 0.  1.
</event>
<event>
 8    1  0.1114447E+005  0.1043930E+01  0.7957747E-01            NaN
         13   -1    0    0    0    0  0.00000000000E+00  0.00000000000E+00  0.74505805969E-08  0.10566000000E+00  0.10566000000E+00 0.  1.
     999900   -1    0    0    0    0 -0.00000000000E+00 -0.00000000000E+00 -0.74505805969E-08  0.93827000000E+00  0.93827000000E+00 0. -1.
     999902    2    1    2    0    0  0.19206801409E-01 -0.13270039006E-01 -0.10988250974E-01  0.10181281238E+01  0.10178011297E+01 0.  0.
     999903    2    3    3    0    0  0.44031115684E-01 -0.11284029370E+00  0.44057577259E-01  0.13045671760E+00  0.20154751859E-01 0.  0.
         14    1    1    2    0    0 -0.19206801409E-01  0.13270039006E-01  0.10988250974E-01  0.25801876193E-01  0.00000000000E+00 0.  1.
     999901    1    3    3    0    0 -0.24824314275E-01  0.99570254690E-01 -0.55045828234E-01  0.88767140621E+00  0.88000000000E+00 0. -1.
        -11    1    4    4    0    0  0.37426701405E-01 -0.76406519956E-01  0.36904476227E-01  0.92741122251E-01  0.51100000000E-03 0. -1.
         11    1    4    4    0    0  0.66044142789E-02 -0.36433773740E-01  0.71531010322E-02  0.37715595345E-01  0.51100000000E-03 0.  1.
</event>
<event>
 8    1  0.1114447E+005  0.1043930E+01  0.7957747E-01            NaN
         13   -1    0    0    0    0  0.00000000000E+00  0.00000000000E+00  0.74505805969E-08  0.10566000000E+00  0.10566000000E+00 0. -1.
     999900   -1    0    0    0    0 -0.00000000000E+00 -0.00000000000E+00 -0.74505805969E-08  0.93827000000E+00  0.93827000000E+00 0.  1.
     999902    2    1    2    0    0 -0.15358706986E-01 -0.14142845629E-01 -0.11723496148E-01  0.10199852652E+01  0.10197041683E+01 0.  0.
     999903    2    3    3    0    0  0.47219740748E-01 -0.10102511527E+00 -0.68225562975E-01  0.13169641890E+00  0.15919845390E-01 0.  0.
         14    1    1    2    0    0  0.15358706986E-01  0.14142845629E-01  0.11723496148E-01  0.23944734801E-01  0.00000000000E+00 0.  1.
     999901    1    3    3    0    0 -0.62578447734E-01  0.86882269639E-01  0.56502066827E-01  0.88828884630E+00  0.88000000000E+00 0.  1.
        -11    1    4    4    0    0  0.26546393997E-01 -0.62698328175E-01 -0.32899064987E-01  0.75620109681E-01  0.51100000000E-03 0. -1.
         11    1    4    4    0    0  0.20673346751E-01 -0.38326787093E-01 -0.35326497988E-01  0.56076309221E-01  0.51100000000E-03 0.  1.
</event>
<event>
 8    1  0.1114447E+005  0.1043930E+01  0.7957747E-01            NaN
         13   -1    0    0    0    0  0.00000000000E+00  0.00000000000E+00  0.74505805969E-08  0.10566000000E+00  0.10566000000E+00 0. -1.
     999900   -1    0    0    0    0 -0.00000000000E+00 -0.00000000000E+00 -0.74505805969E-08  0.93827000000E+00  0.93827000000E+00 0.  1.
     999902    2    1    2    0    0  0.28057826225E-01 -0.15658262039E-02  0.69952214377E-02  0.10149709505E+01  0.10145577381E+01 0.  0.
     999903    2    3    3    0    0  0.94215942014E-01  0.77801158004E-01 -0.32270588440E-01  0.12805617541E+00  0.20671943954E-01 0.  0.
         14    1    1    2    0    0 -0.28057826225E-01  0.15658262039E-02 -0.69952214377E-02  0.28959049486E-01  0.00000000000E+00 0.  1.
     999901    1    3    3    0    0 -0.66158115789E-01 -0.79366984207E-01  0.39265809877E-01  0.88691477510E+00  0.88000000000E+00 0.  1.
        -11    1    4    4    0    0  0.55099072880E-01  0.41648662516E-01 -0.28292072572E-01  0.74640615036E-01  0.51100000000E-03 0. -1.
         11    1    4    4    0    0  0.39116869134E-01  0.36152495488E-01 -0.39785158682E-02  0.53415560377E-01  0.51100000000E-03 0.  1.
</event>
<event>
 8    1  0.1114447E+005  0.1043930E+01  0.7957747E-01            NaN
         13   -1    0    0    0    0  0.00000000000E+00  0.00000000000E+00  0.74505805969E-08  0.10566000000E+00  0.10566000000E+00 0. -1.
     999900   -1    0    0    0    0 -0.00000000000E+00 -0.00000000000E+00 -0.74505805969E-08  0.93827000000E+00  0.93827000000E+00 0. -1.
     999902    2    1    2    0    0 -0.15816622411E-01  0.10508454830E-01  0.12845272700E-01  0.10210041587E+01  0.10207467355E+01 0.  0.
     999903    2    3    3    0    0 -0.11259440202E+00  0.66242799520E-01 -0.11594193196E-01  0.13360935183E+00  0.25523043053E-01 0.  0.
         14    1    1    2    0    0  0.15816622411E-01 -0.10508454830E-01 -0.12845272700E-01  0.22925841275E-01  0.00000000000E+00 0.  1.
     999901    1    3    3    0    0  0.96777779611E-01 -0.55734344690E-01  0.24439465895E-01  0.88739480689E+00  0.88000000000E+00 0.  1.
        -11    1    4    4    0    0 -0.21915356832E-01  0.13973188987E-01 -0.12710388776E-01  0.28936965621E-01  0.51100000000E-03 0. -1.
         11    1    4    4    0    0 -0.90679045190E-01  0.52269610534E-01  0.11161955805E-02  0.10467238621E+00  0.51100000000E-03 0.  1.
</event>
<event>
 8    1  0.1114447E+005  0.1043930E+01  0.7957747E-01            NaN
         13   -1    0    0    0    0  0.00000000000E+00  0.00000000000E+00  0.74505805969E-08  0.10566000000E+00  0.10566000000E+00 0. -1.
     999900   -1    0    0    0    0 -0.00000000000E+00 -0.00000000000E+00 -0.74505805969E-08  0.93827000000E+00  0.93827000000E+00 0.  1.
     999902    2    1    2    0    0  0.24850067141E-01 -0.17702449943E-02  0.10544657040E-01  0.10168772849E+01  0.10165173698E+01 0.  0.
     999903    2    3    3    0    0 -0.61170862757E-01  0.79368790885E-01 -0.73140264981E-01  0.12503295444E+00  0.15571188740E-01 0.  0.
         14    1    1    2    0    0 -0.24850067141E-01  0.17702449943E-02 -0.10544657040E-01  0.27052715138E-01  0.00000000000E+00 0.  1.
     999901    1    3    3    0    0  0.86020929898E-01 -0.81139035879E-01  0.83684922021E-01  0.89184433042E+00  0.88000000000E+00 0.  1.
        -11    1    4    4    0    0 -0.35670378389E-01  0.50110968208E-01 -0.53546001939E-01  0.81553175743E-01  0.51100000000E-03 0. -1.
         11    1    4    4    0    0 -0.25500484368E-01  0.29257822677E-01 -0.19594263042E-01  0.43479778701E-01  0.51100000000E-03 0.  1.
</event>
<event>
 8    1  0.1114447E+005  0.1043930E+01  0.7957747E-01            NaN
         13   -1    0    0    0    0  0.00000000000E+00  0.00000000000E+00  0.74505805969E-08  0.10566000000E+00  0.10566000000E+00 0.  1.
     999900   -1    0    0    0    0 -0.00000000000E+00 -0.00000000000E+00 -0.74505805969E-08  0.93827000000E+00  0.93827000000E+00 0.  1.
     999902    2    1    2    0    0 -0.22942959615E-01  0.60077593081E-03  0.75929033864E-02  0.10197557883E+01  0.10194692126E+01 0.  0.
     999903    2    3    3    0    0  0.10405881918E+00  0.16208648533E-01 -0.68475196848E-01  0.12725401614E+00  0.20341433158E-01 0.  0.
         14    1    1    2    0    0  0.22942959615E-01 -0.60077593081E-03 -0.75929033864E-02  0.24174211661E-01  0.00000000000E+00 0.  1.
     999901    1    3    3    0    0 -0.12700177880E+00 -0.15607872602E-01  0.76068100235E-01  0.89250177220E+00  0.88000000000E+00 0. -1.
        -11    1    4    4    0    0  0.84054929606E-01  0.50749410201E-02 -0.51008222187E-01  0.98453471595E-01  0.51100000000E-03 0. -1.
         11    1    4    4    0    0  0.20003889579E-01  0.11133707513E-01 -0.17466974661E-01  0.28800544545E-01  0.51100000000E-03 0.  1.
</event>
<event>
 8    1  0.1114447E+005  0.1043930E+01  0.7957747E-01            NaN
         13   -1    0    0    0    0  0.00000000000E+00  0.00000000000E+00  0.74505805969E-08  0.10566000000E+00  0.10566000000E+00 0.  1.
     999900   -1    0    0    0    0 -0.00000000000E+00 -0.00000000000E+00 -0.74505805969E-08  0.93827000000E+00  0.93827000000E+00 0. -1.
     999902    2    1    2    0    0  0.14158206844E-01  0.59606042602E-02  0.19499326360E-01  0.10191064758E+01  0.10188041037E+01 0.  0.
     999903    2    3    3    0    0 -0.62174744341E-01  0.89279616738E-01  0.68584538258E-01  0.13052438321E+00  0.22276151511E-01 0.  0.
         14    1    1    2    0    0 -0.14158206844E-01 -0.59606042602E-02 -0.19499326360E-01  0.24823524179E-01  0.00000000000E+00 0. -1.
     999901    1    3    3    0    0  0.76332951186E-01 -0.83319012478E-01 -0.49085211898E-01  0.88858209261E+00  0.88000000000E+00 0. -1.
        -11    1    4    4    0    0 -0.31519966950E-01  0.27468211810E-01  0.21729097610E-01  0.47121394085E-01  0.51100000000E-03 0.  1.
         11    1    4    4    0    0 -0.30654777391E-01  0.61811404928E-01  0.46855440648E-01  0.83402989128E-01  0.51100000000E-03 0. -1.
</event>
<event>
 8    1  0.1114447E+005  0.1043930E+01  0.7957747E-01            NaN
         13   -1    0    0    0    0  0.00000000000E+00  0.00000000000E+00  0.74505805969E-08  0.10566000000E+00  0.10566000000E+00 0.  1.
     999900   -1    0    0    0    0 -0.00000000000E+00 -0.00000000000E+00 -0.74505805969E-08  0.93827000000E+00  0.93827000000E+00 0.  1.
     999902    2    1    2    0    0 -0.73815272815E-02  0.26723383725E-02 -0.22672418422E-01  0.10199369407E+01  0.10196546945E+01 0.  0.
     999903    2    3    3    0    0  0.10607053265E-01 -0.61752635888E-02  0.12508532216E+00  0.12739326166E+00  0.20786097256E-01 0.  0.
         14    1    1    2    0    0  0.73815272815E-02 -0.26723383725E-02  0.22672418422E-01  0.23993059298E-01  0.00000000000E+00 0.  1.
     999901    1    3    3    0    0 -0.17988580547E-01  0.88476019613E-02 -0.14775774058E+00  0.89254367904E+00  0.88000000000E+00 0.  1.
        -11    1    4    4    0    0  0.11565431623E-01  0.48714562721E-02  0.78858264690E-01  0.79852221796E-01  0.51100000000E-03 0.  1.
         11    1    4    4    0    0 -0.95837835778E-03 -0.11046719861E-01  0.46227057466E-01  0.47541039868E-01  0.51100000000E-03 0. -1.
</event>
<event>
 8    1  0.1114447E+005  0.1043930E+01  0.7957747E-01            NaN
         13   -1    0    0    0    0  0.00000000000E+00  0.00000000000E+00  0.74505805969E-08  0.10566000000E+00  0.10566000000E+00 0. -1.
     999900   -1    0    0    0    0 -0.00000000000E+00 -0.00000000000E+00 -0.74505805969E-08  0.93827000000E+00  0.93827000000E+00 0. -1.
     999902    2    1    2    0    0 -0.10068310036E-01 -0.11091042244E-01  0.17842784535E-01  0.10206330679E+01  0.10203671458E+01 0.  0.
     999903    2    3    3    0    0 -0.94435193889E-01 -0.64040841875E-01  0.66510135139E-01  0.13367762179E+00  0.20660910421E-01 0.  0.
         14    1    1    2    0    0  0.10068310036E-01  0.11091042244E-01 -0.17842784535E-01  0.23296932094E-01  0.00000000000E+00 0.  1.
     999901    1    3    3    0    0  0.84366883854E-01  0.52949799631E-01 -0.48667350604E-01  0.88695544611E+00  0.88000000000E+00 0.  1.
        -11    1    4    4    0    0 -0.46924074167E-01 -0.28193226700E-01  0.43274681156E-01  0.69783134913E-01  0.51100000000E-03 0.  1.
         11    1    4    4    0    0 -0.47511119722E-01 -0.35847615175E-01  0.23235453983E-01  0.63894486881E-01  0.51100000000E-03 0. -1.
</event>
<event>
 8    1  0.1114447E+005  0.1043930E+01  0.7957747E-01            NaN
         13   -1    0    0    0    0  0.00000000000E+00  0.00000000000E+00  0.74505805969E-08  0.10566000000E+00  0.10566000000E+00 0. -1.
     999900   -1    0    0    0    0 -0.00000000000E+00 -0.00000000000E+00 -0.74505805969E-08  0.93827000000E+00  0.93827000000E+00 0.  1.
     999902    2    1    2    0    0 -0.40338808366E-02 -0.13449448373E-01 -0.20177279117E-01  0.10193478429E+01  0.10190513934E+01 0.  0.
     999903    2    3    3    0    0 -0.62716283530E-01  0.70495103746E-01 -0.87211751979E-01  0.13087503363E+00  0.24889613766E-01 0.  0.
         14    1    1    2    0    0  0.40338808366E-02  0.13449448373E-01  0.20177279117E-01  0.24582157121E-01  0.00000000000E+00 0. -1.
     999901    1    3    3    0    0  0.58682402694E-01 -0.83944552118E-01  0.67034472862E-01  0.88847280925E+00  0.88000000000E+00 0. -1.
        -11    1    4    4    0    0 -0.20421418037E-01  0.37097157245E-01 -0.49246382916E-01  0.64951526091E-01  0.51100000000E-03 0.  1.
         11    1    4    4    0    0 -0.42294865494E-01  0.33397946500E-01 -0.37965369064E-01  0.65923507543E-01  0.51100000000E-03 0. -1.
</event>
<event>
 8    1  0.1114447E+005  0.1043930E+01  0.7957747E-01            NaN
         13   -1    0    0    0    0  0.00000000000E+00  0.00000000000E+00  0.74505805969E-08  0.10566000000E+00  0.10566000000E+00 0. -1.
     999900   -1    0    0    0    0 -0.00000000000E+00 -0.00000000000E+00 -0.74505805969E-08  0.93827000000E+00  0.93827000000E+00 0.  1.
     999902    2    1    2    0    0  0.15281462556E-01 -0.16538816916E-01 -0.74982417473E-02  0.10201964964E+01  0.10199203950E+01 0.  0.
     999903    2    3    3    0    0 -0.10086306280E+00 -0.33291045770E-01  0.70360843747E-01  0.12899942218E+00  0.20212655063E-01 0.  0.
         14    1    1    2    0    0 -0.15281462556E-01  0.16538816916E-01  0.74982417473E-02  0.23733503579E-01  0.00000000000E+00 0. -1.
     999901    1    3    3    0    0  0.11614452535E+00  0.16752228855E-01 -0.77859085495E-01  0.89119707424E+00  0.88000000000E+00 0.  1.
        -11    1    4    4    0    0 -0.42081960858E-01 -0.14022514328E-01  0.41468292471E-01  0.60723988169E-01  0.51100000000E-03 0. -1.
         11    1    4    4    0    0 -0.58781101939E-01 -0.19268531442E-01  0.28892551277E-01  0.68275434011E-01  0.51100000000E-03 0.  1.
</event>
<event>
 8    1  0.1114447E+005  0.1043930E+01  0.7957747E-01            NaN
         13   -1    0    0    0    0  0.00000000000E+00  0.00000000000E+00  0.74505805969E-08  0.10566000000E+00  0.10566000000E+00 0. -1.
     999900   -1    0    0    0    0 -0.00000000000E+00 -0.00000000000E+00 -0.74505805969E-08  0.93827000000E+00  0.93827000000E+00 0. -1.
     999902    2    1    2    0    0  0.27736663405E-02 -0.56568053884E-04 -0.23970345462E-01  0.10197996480E+01  0.10195141236E+01 0.  0.
     999903    2    3    3    0    0  0.12886878762E+00 -0.18220810548E-02 -0.12509015106E-01  0.13073583775E+00  0.18024966325E-01 0.  0.
         14    1    1    2    0    0 -0.27736663405E-02  0.56568053884E-04  0.23970345462E-01  0.24130351976E-01  0.00000000000E+00 0. -1.
     999901    1    3    3    0    0 -0.12609512128E+00  0.17655130009E-02 -0.11461330356E-01  0.88906381027E+00  0.88000000000E+00 0.  1.
        -11    1    4    4    0    0  0.10162209545E+00 -0.32427212558E-02 -0.26138998727E-02  0.10170869736E+00  0.51100000000E-03 0. -1.
         11    1    4    4    0    0  0.27246692171E-01  0.14206402011E-02 -0.98951152335E-02  0.29027140392E-01  0.51100000000E-03 0.  1.
</event>
<event>
 8    1  0.1114447E+005  0.1043930E+01  0.7957747E-01            NaN
         13   -1    0    0    0    0  0.00000000000E+00  0.00000000000E+00  0.74505805969E-08  0.10566000000E+00  0.10566000000E+00 0. -1.
     999900   -1    0    0    0    0 -0.00000000000E+00 -0.00000000000E+00 -0.74505805969E-08  0.93827000000E+00  0.93827000000E+00 0.  1.
     999902    2    1    2    0    0  0.53752119914E-02 -0.44720158155E-02  0.22156431727E-01  0.10206964188E+01  0.10204319576E+01 0.  0.
     999903    2    3    3    0    0 -0.47366754899E-01  0.11110201493E+00 -0.42280357005E-01  0.12924189308E+00  0.18126531540E-01 0.  0.
         14    1    1    2    0    0 -0.53752119914E-02  0.44720158155E-02 -0.22156431727E-01  0.23233581219E-01  0.00000000000E+00 0.  1.
     999901    1    3    3    0    0  0.52741966891E-01 -0.11557403075E+00  0.64436788732E-01  0.89145452570E+00  0.88000000000E+00 0.  1.
        -11    1    4    4    0    0 -0.78641208047E-03  0.17954331057E-01 -0.58042946334E-02  0.18892522459E-01  0.51100000000E-03 0.  1.
         11    1    4    4    0    0 -0.46580342819E-01  0.93147683877E-01 -0.36476062372E-01  0.11034937062E+00  0.51100000000E-03 0. -1.
</event>
<event>
 8    1  0.1114447E+005  0.1043930E+01  0.7957747E-01            NaN
         13   -1    0    0    0    0  0.00000000000E+00  0.00000000000E+00  0.74505805969E-08  0.10566000000E+00  0.10566000000E+00 0.  1.
     999900   -1    0    0    0    0 -0.00000000000E+00 -0.00000000000E+00 -0.74505805969E-08  0.93827000000E+00  0.93827000000E+00 0.  1.
     999902    2    1    2    0    0  0.19366762605E-01  0.19884072753E-02 -0.53808509549E-02  0.10237315146E+01  0.10235322345E+01 0.  0.
     999903    2    3    3    0    0  0.11887702266E-01  0.59358683414E-01 -0.11847153025E+00  0.13461015801E+00  0.20484638041E-01 0.  0.
         14    1    1    2    0    0 -0.19366762605E-01 -0.19884072753E-02  0.53808509549E-02  0.20198485445E-01  0.00000000000E+00 0.  1.
     999901    1    3    3    0    0  0.74790603389E-02 -0.57370276139E-01  0.11309067930E+00  0.88912135655E+00  0.88000000000E+00 0. -1.
        -11    1    4    4    0    0  0.14606514416E-01  0.41349924192E-01 -0.96973832383E-01  0.10643003233E+00  0.51100000000E-03 0. -1.
         11    1    4    4    0    0 -0.27188121501E-02  0.18008759222E-01 -0.21497697871E-01  0.28180125674E-01  0.51100000000E-03 0.  1.
</event>
<event>
 8    1  0.1114447E+005  0.1043930E+01  0.7957747E-01            NaN
         13   -1    0    0    0    0  0.00000000000E+00  0.00000000000E+00  0.74505805969E-08  0.10566000000E+00  0.10566000000E+00 0. -1.
     999900   -1    0    0    0    0 -0.00000000000E+00 -0.00000000000E+00 -0.74505805969E-08  0.93827000000E+00  0.93827000000E+00 0. -1.
     999902    2    1    2    0    0 -0.30992958570E-02  0.16260628117E-01 -0.17718737578E-01  0.10196819625E+01  0.10193936126E+01 0.  0.
     999903    2    3    3    0    0 -0.71273094664E-01  0.93390776857E-01 -0.57579074096E-01  0.13278536586E+00  0.22691681042E-01 0.  0.
         14    1    1    2    0    0  0.30992958570E-02 -0.16260628117E-01  0.17718737578E-01  0.24248037507E-01  0.00000000000E+00 0.  1.
     999901    1    3    3    0    0  0.68173798807E-01 -0.77130148740E-01  0.39860336517E-01  0.88689659663E+00  0.88000000000E+00 0.  1.
        -11    1    4    4    0    0 -0.62667057699E-01  0.90885172485E-01 -0.50740241144E-01  0.12149941519E+00  0.51100000000E-03 0.  1.
         11    1    4    4    0    0 -0.86060369656E-02  0.25056043717E-02 -0.68388329518E-02  0.11285950676E-01  0.51100000000E-03 0. -1.
</event>
<event>
 8    1  0.1114447E+005  0.1043930E+01  0.7957747E-01            NaN
         13   -1    0    0    0    0  0.00000000000E+00  0.00000000000E+00  0.74505805969E-08  0.10566000000E+00  0.10566000000E+00 0. -1.
     999900   -1    0    0    0    0 -0.00000000000E+00 -0.00000000000E+00 -0.74505805969E-08  0.93827000000E+00  0.93827000000E+00 0.  1.
     999902    2    1    2    0    0 -0.14821710889E-01 -0.54751019387E-02 -0.18474589625E-01  0.10196201189E+01  0.10193302785E+01 0.  0.
     999903    2    3    3    0    0 -0.85654513115E-02 -0.12892729591E+00 -0.83973228831E-02  0.13092380621E+00  0.19362680964E-01 0.  0.
         14    1    1    2    0    0  0.14821710889E-01  0.54751019387E-02  0.18474589625E-01  0.24309881051E-01  0.00000000000E+00 0. -1.
     999901    1    3    3    0    0 -0.62562595774E-02  0.12345219397E+00 -0.10077266742E-01  0.88869631274E+00  0.88000000000E+00 0. -1.
        -11    1    4    4    0    0 -0.22810521918E-02 -0.43673144451E-01 -0.12028955857E-01  0.45359713903E-01  0.51100000000E-03 0.  1.
         11    1    4    4    0    0 -0.62843991197E-02 -0.85254151455E-01  0.36316329742E-02  0.85564092303E-01  0.51100000000E-03 0. -1.
</event>
<event>
 8    1  0.1114447E+005  0.1043930E+01  0.7957747E-01            NaN
         13   -1    0    0    0    0  0.00000000000E+00  0.00000000000E+00  0.74505805969E-08  0.10566000000E+00  0.10566000000E+00 0.  1.
     999900   -1    0    0    0    0 -0.00000000000E+00 -0.00000000000E+00 -0.74505805969E-08  0.93827000000E+00  0.93827000000E+00 0.  1.
     999902    2    1    2    0    0  0.20470180965E-01 -0.11222252556E-01 -0.55161752242E-03  0.10205789499E+01  0.10203117765E+01 0.  0.
     999903    2    3    3    0    0 -0.81499792361E-02  0.12329785578E+00 -0.28709614030E-01  0.12945177269E+00  0.25782476850E-01 0.  0.
         14    1    1    2    0    0 -0.20470180965E-01  0.11222252556E-01  0.55161752242E-03  0.23351050149E-01  0.00000000000E+00 0.  1.
     999901    1    3    3    0    0  0.28620160201E-01 -0.13452010833E+00  0.28157996507E-01  0.89112717717E+00  0.88000000000E+00 0.  1.
        -11    1    4    4    0    0 -0.53650040368E-03  0.49573718699E-01  0.10298571655E-02  0.49589950042E-01  0.51100000000E-03 0.  1.
         11    1    4    4    0    0 -0.76134788325E-02  0.73724137079E-01 -0.29739471195E-01  0.79861822644E-01  0.51100000000E-03 0. -1.
</event>
<event>
 8    1  0.1114447E+005  0.1043930E+01  0.7957747E-01            NaN
         13   -1    0    0    0    0  0.00000000000E+00  0.00000000000E+00  0.74505805969E-08  0.10566000000E+00  0.10566000000E+00 0. -1.
     999900   -1    0    0    0    0 -0.00000000000E+00 -0.00000000000E+00 -0.74505805969E-08  0.93827000000E+00  0.93827000000E+00 0.  1.
     999902    2    1    2    0    0  0.17627391932E-02  0.22409937314E-01  0.87220094887E-02  0.10198180530E+01  0.10195329691E+01 0.  0.
     999903    2    3    3    0    0 -0.10508113846E+00 -0.71075707699E-01  0.15066454246E-02  0.12841060321E+00  0.19829552497E-01 0.  0.
         14    1    1    2    0    0 -0.17627391932E-02 -0.22409937314E-01 -0.87220094887E-02  0.24111947026E-01  0.00000000000E+00 0. -1.
     999901    1    3    3    0    0  0.10684387765E+00  0.93485645013E-01  0.72153640641E-02  0.89140744976E+00  0.88000000000E+00 0. -1.
        -11    1    4    4    0    0 -0.30759931196E-01 -0.13337558375E-01 -0.57339340016E-02  0.34017685852E-01  0.51100000000E-03 0. -1.
         11    1    4    4    0    0 -0.74321207260E-01 -0.57738149325E-01  0.72405794262E-02  0.94392917359E-01  0.51100000000E-03 0.  1.
</event>
<event>
 8    1  0.1114447E+005  0.1043930E+01  0.7957747E-01            NaN
         13   -1    0    0    0    0  0.00000000000E+00  0.00000000000E+00  0.74505805969E-08  0.10566000000E+00  0.10566000000E+00 0.  1.
     999900   -1    0    0    0    0 -0.00000000000E+00 -0.00000000000E+00 -0.74505805969E-08  0.93827000000E+00  0.93827000000E+00 0.  1.
     999902    2    1    2    0    0  0.13111173822E-01 -0.16810352922E-03  0.19904336125E-01  0.10200948635E+01  0.10198163642E+01 0.  0.
     999903    2    3    3    0    0  0.11506760880E+00 -0.39615485409E-02  0.63857725295E-01  0.13311041867E+00  0.19604234681E-01 0.  0.
         14    1    1    2    0    0 -0.13111173822E-01  0.16810352922E-03 -0.19904336125E-01  0.23835136550E-01  0.00000000000E+00 0. -1.
     999901    1    3    3    0    0 -0.10195643498E+00  0.37934450117E-02 -0.43953389171E-01  0.88698444478E+00  0.88000000000E+00 0.  1.
        -11    1    4    4    0    0  0.23788500584E-01 -0.87547947063E-02  0.12570507492E-01  0.28298727356E-01  0.51100000000E-03 0. -1.
         11    1    4    4    0    0  0.91279108216E-01  0.47932461654E-02  0.51287217803E-01  0.10481169132E+00  0.51100000000E-03 0.  1.
</event>
<event>
 8    1  0.1114447E+005  0.1043930E+01  0.7957747E-01            NaN
         13   -1    0    0    0    0  0.00000000000E+00  0.00000000000E+00  0.74505805969E-08  0.10566000000E+00  0.10566000000E+00 0.  1.
     999900   -1    0    0    0    0 -0.00000000000E+00 -0.00000000000E+00 -0.74505805969E-08  0.93827000000E+00  0.93827000000E+00 0.  1.
     999902    2    1    2    0    0  0.22448501613E-01 -0.89485257035E-02 -0.10049070449E-02  0.10197427890E+01  0.10194559012E+01 0.  0.
     999903    2    3    3    0    0 -0.56675118154E-01 -0.41156682817E-01  0.10656839682E+00  0.12908576845E+00  0.20009269259E-01 0.  0.
         14    1    1    2    0    0 -0.22448501613E-01  0.89485257035E-02  0.10049070449E-02  0.24187210983E-01  0.00000000000E+00 0. -1.
     999901    1    3    3    0    0  0.79123619767E-01  0.32208157113E-01 -0.10757330386E+00  0.89065702057E+00  0.88000000000E+00 0.  1.
        -11    1    4    4    0    0 -0.29983074882E-01 -0.22367159986E-01  0.38988476156E-01  0.54033665609E-01  0.51100000000E-03 0. -1.
         11    1    4    4    0    0 -0.26692043272E-01 -0.18789522830E-01  0.67579920664E-01  0.75052102836E-01  0.51100000000E-03 0.  1.
</event>
<event>
 8    1  0.1126481E+005  0.1043930E+01  0.7957747E-01            NaN
         13   -1    0    0    0    0  0.00000000000E+00  0.00000000000E+00  0.74505805969E-08  0.10566000000E+00  0.10566000000E+00 0. -1.
     999900   -1    0    0    0    0 -0.00000000000E+00 -0.00000000000E+00 -0.74505805969E-08  0.93827000000E+00  0.93827000000E+00 0. -1.
     999902    2    1    2    0    0 -0.10224848034E-01 -0.19394317151E-01 -0.99042666243E-02  0.10198721208E+01  0.10195883293E+01 0.  0.
     999903    2    3    3    0    0  0.18363485354E-01 -0.30910035645E-03  0.12591365523E+00  0.12878960709E+00  0.19879667609E-01 0.  0.
         14    1    1    2    0    0  0.10224848034E-01  0.19394317151E-01  0.99042666243E-02  0.24057879217E-01  0.00000000000E+00 0. -1.
     999901    1    3    3    0    0 -0.28588333388E-01 -0.19085216794E-01 -0.13581792186E+00  0.89108251369E+00  0.88000000000E+00 0. -1.
        -11    1    4    4    0    0  0.15769729355E-01 -0.71898561734E-02  0.59700677034E-01  0.62167598916E-01  0.51100000000E-03 0.  1.
         11    1    4    4    0    0  0.25937559989E-02  0.68807558169E-02  0.66212978197E-01  0.66622008177E-01  0.51100000000E-03 0. -1.
</event>
<event>
 8    1  0.1114447E+005  0.1043930E+01  0.7957747E-01            NaN
         13   -1    0    0    0    0  0.00000000000E+00  0.00000000000E+00  0.74505805969E-08  0.10566000000E+00  0.10566000000E+00 0. -1.
     999900   -1    0    0    0    0 -0.00000000000E+00 -0.00000000000E+00 -0.74505805969E-08  0.93827000000E+00  0.93827000000E+00 0.  1.
     999902    2    1    2    0    0 -0.80250679442E-02  0.17181650139E-01  0.13946386985E-01  0.10203904051E+01  0.10201188491E+01 0.  0.
     999903    2    3    3    0    0  0.80017015962E-01 -0.56822065781E-01  0.83201238028E-01  0.13020829291E+00  0.20007087008E-01 0.  0.
         14    1    1    2    0    0  0.80250679442E-02 -0.17181650139E-01 -0.13946386985E-01  0.23539594876E-01  0.00000000000E+00 0.  1.
     999901    1    3    3    0    0 -0.88042083906E-01  0.74003715920E-01 -0.69254851044E-01  0.89018211221E+00  0.88000000000E+00 0.  1.
        -11    1    4    4    0    0  0.18968478386E-01 -0.48447518283E-02  0.11934485250E-01  0.22933989006E-01  0.51100000000E-03 0. -1.
         11    1    4    4    0    0  0.61048537577E-01 -0.51977313953E-01  0.71266752779E-01  0.10727430391E+00  0.51100000000E-03 0.  1.
</event>
<event>
 8    1  0.1114447E+005  0.1043930E+01  0.7957747E-01            NaN
         13   -1    0    0    0    0  0.00000000000E+00  0.00000000000E+00  0.74505805969E-08  0.10566000000E+00  0.10566000000E+00 0.  1.
     999900   -1    0    0    0    0 -0.00000000000E+00 -0.00000000000E+00 -0.74505805969E-08  0.93827000000E+00  0.93827000000E+00 0.  1.
     999902    2    1    2    0    0 -0.58216786491E-02 -0.57863342065E-02  0.21296011434E-01  0.10211069040E+01  0.10208518089E+01 0.  0.
     999903    2    3    3    0    0  0.46524121183E-01 -0.48846138488E-01 -0.10830906927E+00  0.12903532259E+00  0.19204710136E-01 0.  0.
         14    1    1    2    0    0  0.58216786491E-02  0.57863342065E-02 -0.21296011434E-01  0.22823095952E-01  0.00000000000E+00 0. -1.
     999901    1    3    3    0    0 -0.52345799832E-01  0.43059804282E-01  0.12960508071E+00  0.89207158146E+00  0.88000000000E+00 0. -1.
        -11    1    4    4    0    0  0.24758433694E-01 -0.25929553077E-01 -0.74915755372E-01  0.83053917943E-01  0.51100000000E-03 0.  1.
         11    1    4    4    0    0  0.21765687489E-01 -0.22916585411E-01 -0.33393313901E-01  0.45981404644E-01  0.51100000000E-03 0. -1.
</event>
<event>
 8    1  0.1114447E+005  0.1043930E+01  0.7957747E-01            NaN
         13   -1    0    0    0    0  0.00000000000E+00  0.00000000000E+00  0.74505805969E-08  0.10566000000E+00  0.10566000000E+00 0. -1.
     999900   -1    0    0    0    0 -0.00000000000E+00 -0.00000000000E+00 -0.74505805969E-08  0.93827000000E+00  0.93827000000E+00 0.  1.
     999902    2    1    2    0    0 -0.23147177347E-01 -0.11622226201E-02  0.58033431570E-02  0.10200381317E+01  0.10197582893E+01 0.  0.
     999903    2    3    3    0    0  0.86040617321E-01  0.91831778085E-01 -0.14092997311E-01  0.12820534295E+00  0.20048293995E-01 0.  0.
         14    1    1    2    0    0  0.23147177347E-01  0.11622226201E-02 -0.58033431570E-02  0.23891868331E-01  0.00000000000E+00 0.  1.
     999901    1    3    3    0    0 -0.10918779467E+00 -0.92994000705E-01  0.19896340468E-01  0.89183278872E+00  0.88000000000E+00 0. -1.
        -11    1    4    4    0    0  0.35940551247E-01  0.47872652511E-01 -0.14311401471E-01  0.61551534631E-01  0.51100000000E-03 0. -1.
         11    1    4    4    0    0  0.50100066074E-01  0.43959125574E-01  0.21840415942E-03  0.66653808318E-01  0.51100000000E-03 0.  1.
</event>
<event>
 8    1  0.1114447E+005  0.1043930E+01  0.7957747E-01            NaN
         13   -1    0    0    0    0  0.00000000000E+00  0.00000000000E+00  0.74505805969E-08  0.10566000000E+00  0.10566000000E+00 0. -1.
     999900   -1    0    0    0    0 -0.00000000000E+00 -0.00000000000E+00 -0.74505805969E-08  0.93827000000E+00  0.93827000000E+00 0.  1.
     999902    2    1    2    0    0  0.74981729773E-02 -0.18907252018E-01 -0.12333453640E-01  0.10201430108E+01  0.10198656488E+01 0.  0.
     999903    2    3    3    0    0  0.45144804417E-01  0.11869202121E+00 -0.12165825579E-02  0.12858571388E+00  0.20173162263E-01 0.  0.
         14    1    1    2    0    0 -0.74981729773E-02  0.18907252018E-01  0.12333453640E-01  0.23786989208E-01  0.00000000000E+00 0. -1.
     999901    1    3    3    0    0 -0.37646631440E-01 -0.13759927323E+00 -0.11116871082E-01  0.89155729691E+00  0.88000000000E+00 0. -1.
        -11    1    4    4    0    0  0.94494193299E-02  0.19246705913E-01  0.71205143138E-02  0.22598452586E-01  0.51100000000E-03 0. -1.
         11    1    4    4    0    0  0.35695385087E-01  0.99445315300E-01 -0.83370968717E-02  0.10598726130E+00  0.51100000000E-03 0.  1.
</event>
<event>
 8    1  0.1114447E+005  0.1043930E+01  0.7957747E-01            NaN
         13   -1    0    0    0    0  0.00000000000E+00  0.00000000000E+00  0.74505805969E-08  0.10566000000E+00  0.10566000000E+00 0.  1.
     999900   -1    0    0    0    0 -0.00000000000E+00 -0.00000000000E+00 -0.74505805969E-08  0.93827000000E+00  0.93827000000E+00 0.  1.
     999902    2    1    2    0    0 -0.12066916077E-01  0.10128171414E-01  0.11224534151E-01  0.10245862546E+01  0.10244036375E+01 0.  0.
     999903    2    3    3    0    0  0.36938537786E-01 -0.81379863041E-02  0.12831960482E+00  0.13529077917E+00  0.20174031616E-01 0.  0.
         14    1    1    2    0    0  0.12066916077E-01 -0.10128171414E-01 -0.11224534151E-01  0.19343745415E-01  0.00000000000E+00 0.  1.
     999901    1    3    3    0    0 -0.49005453862E-01  0.18266157718E-01 -0.11709507067E+00  0.88929547542E+00  0.88000000000E+00 0.  1.
        -11    1    4    4    0    0  0.19538531099E-01  0.58533175771E-02  0.55982269799E-01  0.59584319892E-01  0.51100000000E-03 0.  1.
         11    1    4    4    0    0  0.17400006687E-01 -0.13991303881E-01  0.72337335020E-01  0.75706459274E-01  0.51100000000E-03 0. -1.
</event>
<event>
 8    1  0.1114447E+005  0.1043930E+01  0.7957747E-01            NaN
         13   -1    0    0    0    0  0.00000000000E+00  0.00000000000E+00  0.74505805969E-08  0.10566000000E+00  0.10566000000E+00 0. -1.
     999900   -1    0    0    0    0 -0.00000000000E+00 -0.00000000000E+00 -0.74505805969E-08  0.93827000000E+00  0.93827000000E+00 0. -1.
     999902    2    1    2    0    0 -0.13812371975E-01  0.18947667906E-01  0.54560852311E-02  0.10198558519E+01  0.10195716719E+01 0.  0.
     999903    2    3    3    0    0  0.21653178338E-01  0.12860585033E+00  0.85357058590E-02  0.13233559511E+00  0.20773218012E-01 0.  0.
         14    1    1    2    0    0  0.13812371975E-01 -0.18947667906E-01 -0.54560852311E-02  0.24074148058E-01  0.00000000000E+00 0. -1.
     999901    1    3    3    0    0 -0.35465550314E-01 -0.10965818242E+00 -0.30796206279E-02  0.88752025684E+00  0.88000000000E+00 0.  1.
        -11    1    4    4    0    0  0.45844934437E-02  0.29922008447E-01  0.10843052200E-01  0.32158623597E-01  0.51100000000E-03 0.  1.
         11    1    4    4    0    0  0.17068684895E-01  0.98683841881E-01 -0.23073463410E-02  0.10017697151E+00  0.51100000000E-03 0. -1.
</event>
<event>
 8    1  0.1114447E+005  0.1043930E+01  0.7957747E-01            NaN
         13   -1    0    0    0    0  0.00000000000E+00  0.00000000000E+00  0.74505805969E-08  0.10566000000E+00  0.10566000000E+00 0. -1.
     999900   -1    0    0    0    0 -0.00000000000E+00 -0.00000000000E+00 -0.74505805969E-08  0.93827000000E+00  0.93827000000E+00 0. -1.
     999902    2    1    2    0    0  0.35797828685E-02 -0.16822307164E-01  0.16358316922E-01  0.10201939642E+01  0.10199178031E+01 0.  0.
     999903    2    3    3    0    0 -0.12483568301E-02  0.12685579310E+00 -0.73632249203E-03  0.12836498163E+00  0.19572319705E-01 0.  0.
         14    1    1    2    0    0 -0.35797828685E-02  0.16822307164E-01 -0.16358316922E-01  0.23736035816E-01  0.00000000000E+00 0.  1.
     999901    1    3    3    0    0  0.48281396987E-02 -0.14367810027E+00  0.17094639414E-01  0.89182898256E+00  0.88000000000E+00 0. -1.
        -11    1    4    4    0    0  0.79224366534E-02  0.63176307767E-01  0.43782837009E-02  0.63823517255E-01  0.51100000000E-03 0.  1.
         11    1    4    4    0    0 -0.91707934835E-02  0.63679485337E-01 -0.51146061929E-02  0.64541464373E-01  0.51100000000E-03 0. -1.
</event>
<event>
 8    1  0.1114447E+005  0.1043930E+01  0.7957747E-01            NaN
         13   -1    0    0    0    0  0.00000000000E+00  0.00000000000E+00  0.74505805969E-08  0.10566000000E+00  0.10566000000E+00 0.  1.
     999900   -1    0    0    0    0 -0.00000000000E+00 -0.00000000000E+00 -0.74505805969E-08  0.93827000000E+00  0.93827000000E+00 0.  1.
     999902    2    1    2    0    0 -0.14829631374E-01  0.69294313254E-02  0.16663644438E-01  0.10205716604E+01  0.10203043183E+01 0.  0.
     999903    2    3    3    0    0 -0.15355626703E-01 -0.26557245789E-02  0.13073114555E+00  0.13315769455E+00  0.19937177762E-01 0.  0.
         14    1    1    2    0    0  0.14829631374E-01 -0.69294313254E-02 -0.16663644438E-01  0.23358339649E-01  0.00000000000E+00 0. -1.
     999901    1    3    3    0    0  0.52599532861E-03  0.95851559043E-02 -0.11406750111E+00  0.88741396580E+00  0.88000000000E+00 0.  1.
        -11    1    4    4    0    0  0.37231084099E-02 -0.11492992421E-02  0.51364422142E-01  0.51514535890E-01  0.51100000000E-03 0. -1.
         11    1    4    4    0    0 -0.19078735113E-01 -0.15064253368E-02  0.79366723409E-01  0.81643158663E-01  0.51100000000E-03 0.  1.
</event>
<event>
 8    1  0.1114447E+005  0.1043930E+01  0.7957747E-01            NaN
         13   -1    0    0    0    0  0.00000000000E+00  0.00000000000E+00  0.74505805969E-08  0.10566000000E+00  0.10566000000E+00 0. -1.
     999900   -1    0    0    0    0 -0.00000000000E+00 -0.00000000000E+00 -0.74505805969E-08  0.93827000000E+00  0.93827000000E+00 0.  1.
     999902    2    1    2    0    0 -0.12248910321E-03  0.20699653678E-01 -0.11719844639E-01  0.10201424944E+01  0.10198651202E+01 0.  0.
     999903    2    3    3    0    0 -0.91473439207E-01 -0.12653963120E-02  0.89181721903E-01  0.12940763727E+00  0.20590428730E-01 0.  0.
         14    1    1    2    0    0  0.12248910321E-03 -0.20699653678E-01  0.11719844639E-01  0.23787505635E-01  0.00000000000E+00 0. -1.
     999901    1    3    3    0    0  0.91350950104E-01  0.21965049990E-01 -0.10090156654E+00  0.89073485709E+00  0.88000000000E+00 0.  1.
        -11    1    4    4    0    0 -0.64528134013E-01 -0.64330457144E-02  0.51600779478E-01  0.82874397253E-01  0.51100000000E-03 0. -1.
         11    1    4    4    0    0 -0.26945305194E-01  0.51676494025E-02  0.37580942425E-01  0.46533240022E-01  0.51100000000E-03 0.  1.
</event>
<event>
 8    1  0.1114447E+005  0.1043930E+01  0.7957747E-01            NaN
         13   -1    0    0    0    0  0.00000000000E+00  0.00000000000E+00  0.74505805969E-08  0.10566000000E+00  0.10566000000E+00 0. -1.
     999900   -1    0    0    0    0 -0.00000000000E+00 -0.00000000000E+00 -0.74505805969E-08  0.93827000000E+00  0.93827000000E+00 0. -1.
     999902    2    1    2    0    0 -0.19259479056E-01  0.42421932107E-02  0.11415563701E-01  0.10211431873E+01  0.10208889118E+01 0.  0.
     999903    2    3    3    0    0  0.40505427260E-01  0.11696811859E+00 -0.36521673065E-01  0.13065065118E+00  0.20335428382E-01 0.  0.
         14    1    1    2    0    0  0.19259479056E-01 -0.42421932107E-02 -0.11415563701E-01  0.22786812663E-01  0.00000000000E+00 0.  1.
     999901    1    3    3    0    0 -0.59764906315E-01 -0.11272592538E+00  0.47937236765E-01  0.89049253615E+00  0.88000000000E+00 0.  1.
        -11    1    4    4    0    0  0.47014959215E-03  0.26252785215E-01 -0.66542569255E-02  0.27091881227E-01  0.51100000000E-03 0. -1.
         11    1    4    4    0    0  0.40035277667E-01  0.90715333373E-01 -0.29867416139E-01  0.10355876996E+00  0.51100000000E-03 0.  1.
</event>
<event>
 8    1  0.1114447E+005  0.1043930E+01  0.7957747E-01            NaN
         13   -1    0    0    0    0  0.00000000000E+00  0.00000000000E+00  0.74505805969E-08  0.10566000000E+00  0.10566000000E+00 0. -1.
     999900   -1    0    0    0    0 -0.00000000000E+00 -0.00000000000E+00 -0.74505805969E-08  0.93827000000E+00  0.93827000000E+00 0. -1.
     999902    2    1    2    0    0  0.35763948896E-02 -0.22851819652E-01 -0.95526011974E-02  0.10189050434E+01  0.10185976826E+01 0.  0.
     999903    2    3    3    0    0 -0.87229074393E-01  0.85856185427E-01  0.26591571551E-01  0.12684592832E+00  0.20064442646E-01 0.  0.
         14    1    1    2    0    0 -0.35763948896E-02  0.22851819652E-01  0.95526011974E-02  0.25024956572E-01  0.00000000000E+00 0. -1.
     999901    1    3    3    0    0  0.90805469283E-01 -0.10870800508E+00 -0.36144172748E-01  0.89205911511E+00  0.88000000000E+00 0.  1.
        -11    1    4    4    0    0 -0.29474266798E-01  0.34289486346E-01  0.18995415754E-01  0.49046796203E-01  0.51100000000E-03 0. -1.
         11    1    4    4    0    0 -0.57754807596E-01  0.51566699081E-01  0.75961557972E-02  0.77799132118E-01  0.51100000000E-03 0.  1.
</event>
<event>
 8    1  0.1114447E+005  0.1043930E+01  0.7957747E-01            NaN
         13   -1    0    0    0    0  0.00000000000E+00  0.00000000000E+00  0.74505805969E-08  0.10566000000E+00  0.10566000000E+00 0.  1.
     999900   -1    0    0    0    0 -0.00000000000E+00 -0.00000000000E+00 -0.74505805969E-08  0.93827000000E+00  0.93827000000E+00 0.  1.
     999902    2    1    2    0    0 -0.11909024876E-01  0.45328153142E-02  0.20152173423E-01  0.10200871524E+01  0.10198084708E+01 0.  0.
     999903    2    3    3    0    0  0.56418437828E-01 -0.45248361666E-01 -0.10300269525E+00  0.12749882096E+00  0.20394601176E-01 0.  0.
         14    1    1    2    0    0  0.11909024876E-01 -0.45328153142E-02 -0.20152173423E-01  0.23842847603E-01  0.00000000000E+00 0. -1.
     999901    1    3    3    0    0 -0.68327462703E-01  0.49781176980E-01  0.12315486867E+00  0.89258833144E+00  0.88000000000E+00 0.  1.
        -11    1    4    4    0    0  0.38965536626E-01 -0.25731292651E-01 -0.80055873577E-01  0.92680183865E-01  0.51100000000E-03 0. -1.
         11    1    4    4    0    0  0.17452901202E-01 -0.19517069015E-01 -0.22946821672E-01  0.34818637095E-01  0.51100000000E-03 0.  1.
</event>
<event>
 8    1  0.1114447E+005  0.1043930E+01  0.7957747E-01            NaN
         13   -1    0    0    0    0  0.00000000000E+00  0.00000000000E+00  0.74505805969E-08  0.10566000000E+00  0.10566000000E+00 0.  1.
     999900   -1    0    0    0    0 -0.00000000000E+00 -0.00000000000E+00 -0.74505805969E-08  0.93827000000E+00  0.93827000000E+00 0. -1.
     999902    2    1    2    0    0 -0.13886159168E-01  0.92112202166E-02  0.16991151234E-01  0.10201314451E+01  0.10198538102E+01 0.  0.
     999903    2    3    3    0    0 -0.32696897384E-01 -0.12328487381E+00  0.15656878843E-01  0.13001300407E+00  0.19748320559E-01 0.  0.
         14    1    1    2    0    0  0.13886159168E-01 -0.92112202166E-02 -0.16991151234E-01  0.23798554884E-01  0.00000000000E+00 0. -1.
     999901    1    3    3    0    0  0.18810738216E-01  0.13249609402E+00  0.13342723906E-02  0.89011844104E+00  0.88000000000E+00 0.  1.
        -11    1    4    4    0    0 -0.76992313647E-02 -0.56046642791E-01 -0.58294878068E-04  0.56575337834E-01  0.51100000000E-03 0. -1.
         11    1    4    4    0    0 -0.24997666020E-01 -0.67238231015E-01  0.15715173721E-01  0.73437666238E-01  0.51100000000E-03 0.  1.
</event>
<event>
 7    1  0.1114447E+005  0.1043930E+01  0.7957747E-01            NaN
         13   -1    0    0    0    0  0.00000000000E+00  0.00000000000E+00  0.74505805969E-08  0.10566000000E+00  0.10566000000E+00 0.  1.
     999900   -1    0    0    0    0 -0.00000000000E+00 -0.00000000000E+00 -0.74505805969E-08  0.93827000000E+00  0.93827000000E+00 0. -1.
     999903    2    1    2    0    0  0.91365062382E-01 -0.39981583641E-01 -0.60609417385E-01  0.11841818789E+00  0.20081436528E-01 0.  0.
         14    1    1    2    0    0 -0.76887167198E-02  0.37986890924E-01 -0.51491283970E-02  0.39097746356E-01  0.00000000000E+00 0.  1.
     999901    1    1    2    0    0 -0.83676345662E-01  0.19946927166E-02  0.65758545782E-01  0.88641406575E+00  0.88000000000E+00 0.  1.
        -11    1    3    3    0    0  0.28762705289E-01 -0.55986919518E-02 -0.10343067076E-01  0.31078589489E-01  0.51100000000E-03 0. -1.
         11    1    3    3    0    0  0.62602357093E-01 -0.34382891689E-01 -0.50266350308E-01  0.87339598401E-01  0.51100000000E-03 0.  1.
</event>
<event>
 8    1  0.1114447E+005  0.1043930E+01  0.7957747E-01            NaN
         13   -1    0    0    0    0  0.00000000000E+00  0.00000000000E+00  0.74505805969E-08  0.10566000000E+00  0.10566000000E+00 0.  1.
     999900   -1    0    0    0    0 -0.00000000000E+00 -0.00000000000E+00 -0.74505805969E-08  0.93827000000E+00  0.93827000000E+00 0.  1.
     999902    2    1    2    0    0 -0.10881609124E-01  0.18845012197E-01 -0.11011318269E-01  0.10195416210E+01  0.10192498829E+01 0.  0.
     999903    2    3    3    0    0 -0.93088892754E-01 -0.56541894218E-01  0.65717940007E-01  0.12918854369E+00  0.22545607688E-01 0.  0.
         14    1    1    2    0    0  0.10881609124E-01 -0.18845012197E-01  0.11011318269E-01  0.24388379033E-01  0.00000000000E+00 0.  1.
     999901    1    3    3    0    0  0.82207283630E-01  0.75386906415E-01 -0.76729258276E-01  0.89035307728E+00  0.88000000000E+00 0.  1.
        -11    1    4    4    0    0 -0.43117879232E-01 -0.28873898526E-01  0.44136508434E-01  0.68125957045E-01  0.51100000000E-03 0.  1.
         11    1    4    4    0    0 -0.49971013523E-01 -0.27667995692E-01  0.21581431574E-01  0.61062586646E-01  0.51100000000E-03 0. -1.
</event>
<event>
 8    1  0.1114447E+005  0.1043930E+01  0.7957747E-01            NaN
         13   -1    0    0    0    0  0.00000000000E+00  0.00000000000E+00  0.74505805969E-08  0.10566000000E+00  0.10566000000E+00 0.  1.
     999900   -1    0    0    0    0 -0.00000000000E+00 -0.00000000000E+00 -0.74505805969E-08  0.93827000000E+00  0.93827000000E+00 0.  1.
     999902    2    1    2    0    0 -0.22165080753E-01  0.57317414126E-02  0.35702200273E-03  0.10210330323E+01  0.10207762644E+01 0.  0.
     999903    2    3    3    0    0  0.60832773379E-01 -0.32992492898E-01  0.10864044213E+00  0.12967815956E+00  0.14984942325E-01 0.  0.
         14    1    1    2    0    0  0.22165080753E-01 -0.57317414126E-02 -0.35702200273E-03  0.22896967684E-01  0.00000000000E+00 0.  1.
     999901    1    3    3    0    0 -0.82997854132E-01  0.38724234311E-01 -0.10828342012E+00  0.89135487276E+00  0.88000000000E+00 0.  1.
        -11    1    4    4    0    0  0.25095160252E-01 -0.11249538156E-01  0.56409109145E-01  0.62758010583E-01  0.51100000000E-03 0. -1.
         11    1    4    4    0    0  0.35737613127E-01 -0.21742954742E-01  0.52231332982E-01  0.66920148977E-01  0.51100000000E-03 0.  1.
</event>
<event>
 8    1  0.1114447E+005  0.1043930E+01  0.7957747E-01            NaN
         13   -1    0    0    0    0  0.00000000000E+00  0.00000000000E+00  0.74505805969E-08  0.10566000000E+00  0.10566000000E+00 0.  1.
     999900   -1    0    0    0    0 -0.00000000000E+00 -0.00000000000E+00 -0.74505805969E-08  0.93827000000E+00  0.93827000000E+00 0.  1.
     999902    2    1    2    0    0  0.15772937257E-01  0.54319952569E-02  0.17106928807E-01  0.10200356673E+01  0.10197557666E+01 0.  0.
     999903    2    3    3    0    0 -0.12300075370E+00 -0.54739420647E-02  0.32397204047E-01  0.12896279189E+00  0.20559022571E-01 0.  0.
         14    1    1    2    0    0 -0.15772937257E-01 -0.54319952569E-02 -0.17106928807E-01  0.23894332705E-01  0.00000000000E+00 0. -1.
     999901    1    3    3    0    0  0.13877369096E+00  0.10905937322E-01 -0.15290275240E-01  0.89107287541E+00  0.88000000000E+00 0.  1.
        -11    1    4    4    0    0 -0.37165602739E-01  0.71844552865E-02  0.13261417085E-01  0.40112650483E-01  0.51100000000E-03 0.  1.
         11    1    4    4    0    0 -0.85835150960E-01 -0.12658397351E-01  0.19135786962E-01  0.88850141404E-01  0.51100000000E-03 0. -1.
</event>
<event>
 8    1  0.1114447E+005  0.1043930E+01  0.7957747E-01            NaN
         13   -1    0    0    0    0  0.00000000000E+00  0.00000000000E+00  0.74505805969E-08  0.10566000000E+00  0.10566000000E+00 0.  1.
     999900   -1    0    0    0    0 -0.00000000000E+00 -0.00000000000E+00 -0.74505805969E-08  0.93827000000E+00  0.93827000000E+00 0. -1.
     999902    2    1    2    0    0  0.10062397338E-01 -0.21455830235E-02  0.11062175759E-01  0.10288228130E+01  0.10287118904E+01 0.  0.
     999903    2    3    3    0    0 -0.65972700883E-01  0.71910205448E-01  0.95958695119E-01  0.13838864082E+00  0.20490725484E-01 0.  0.
         14    1    1    2    0    0 -0.10062397338E-01  0.21455830235E-02 -0.11062175759E-01  0.15107187006E-01  0.00000000000E+00 0. -1.
     999901    1    3    3    0    0  0.76035098222E-01 -0.74055788472E-01 -0.84896519361E-01  0.89043417217E+00  0.88000000000E+00 0. -1.
        -11    1    4    4    0    0 -0.18455484196E-01  0.25208861585E-01  0.43649460860E-01  0.53680798743E-01  0.51100000000E-03 0. -1.
         11    1    4    4    0    0 -0.47517216688E-01  0.46701343863E-01  0.52309234260E-01  0.84707842082E-01  0.51100000000E-03 0.  1.
</event>
<event>
 8    1  0.1114447E+005  0.1043930E+01  0.7957747E-01            NaN
         13   -1    0    0    0    0  0.00000000000E+00  0.00000000000E+00  0.74505805969E-08  0.10566000000E+00  0.10566000000E+00 0. -1.
     999900   -1    0    0    0    0 -0.00000000000E+00 -0.00000000000E+00 -0.74505805969E-08  0.93827000000E+00  0.93827000000E+00 0. -1.
     999902    2    1    2    0    0  0.15265756573E-01 -0.14507620337E-01 -0.10487069093E-01  0.10204035683E+01  0.10201323194E+01 0.  0.
     999903    2    3    3    0    0 -0.92259969540E-01  0.34476142144E-01  0.79023842268E-01  0.12800601448E+00  0.20982510336E-01 0.  0.
         14    1    1    2    0    0 -0.15265756573E-01  0.14507620337E-01  0.10487069093E-01  0.23526431726E-01  0.00000000000E+00 0.  1.
     999901    1    3    3    0    0  0.10752572611E+00 -0.48983762481E-01 -0.89510911361E-01  0.89239755379E+00  0.88000000000E+00 0. -1.
        -11    1    4    4    0    0 -0.41115474480E-01  0.10370111583E-01  0.22291924032E-01  0.47908375614E-01  0.51100000000E-03 0.  1.
         11    1    4    4    0    0 -0.51144495060E-01  0.24106030561E-01  0.56731918236E-01  0.80097638867E-01  0.51100000000E-03 0. -1.
</event>
<event>
 8    1  0.1114447E+005  0.1043930E+01  0.7957747E-01            NaN
         13   -1    0    0    0    0  0.00000000000E+00  0.00000000000E+00  0.74505805969E-08  0.10566000000E+00  0.10566000000E+00 0. -1.
     999900   -1    0    0    0    0 -0.00000000000E+00 -0.00000000000E+00 -0.74505805969E-08  0.93827000000E+00  0.93827000000E+00 0.  1.
     999902    2    1    2    0    0  0.24777605202E-03 -0.20402510737E-01 -0.13052848422E-01  0.10197080948E+01  0.10194203735E+01 0.  0.
     999903    2    3    3    0    0  0.10743389597E+00  0.22920870358E-01  0.64264577673E-01  0.12878511050E+00  0.19704325474E-01 0.  0.
         14    1    1    2    0    0 -0.24777605202E-03  0.20402510737E-01  0.13052848422E-01  0.24221905154E-01  0.00000000000E+00 0. -1.
     999901    1    3    3    0    0 -0.10718611992E+00 -0.43323381095E-01 -0.77317426095E-01  0.89092298434E+00  0.88000000000E+00 0.  1.
        -11    1    4    4    0    0  0.84630912437E-01  0.15759697064E-01  0.58829623408E-01  0.10426861993E+00  0.51100000000E-03 0.  1.
         11    1    4    4    0    0  0.22802983534E-01  0.71611732939E-02  0.54349542643E-02  0.24516490569E-01  0.51100000000E-03 0. -1.
</event>
<event>
 8    1  0.1114447E+005  0.1043930E+01  0.7957747E-01            NaN
         13   -1    0    0    0    0  0.00000000000E+00  0.00000000000E+00  0.74505805969E-08  0.10566000000E+00  0.10566000000E+00 0. -1.
     999900   -1    0    0    0    0 -0.00000000000E+00 -0.00000000000E+00 -0.74505805969E-08  0.93827000000E+00  0.93827000000E+00 0.  1.
     999902    2    1    2    0    0 -0.76417820603E-02 -0.16390238082E-01 -0.15320005519E-01  0.10202289598E+01  0.10199536220E+01 0.  0.
     999903    2    3    3    0    0 -0.11488058235E+00  0.55638162719E-01 -0.20249020607E-01  0.13078388224E+00  0.20031167394E-01 0.  0.
         14    1    1    2    0    0  0.76417820603E-02  0.16390238082E-01  0.15320005519E-01  0.23701040199E-01  0.00000000000E+00 0. -1.
     999901    1    3    3    0    0  0.10723880029E+00 -0.72028400801E-01  0.49290150883E-02  0.88944507756E+00  0.88000000000E+00 0.  1.
        -11    1    4    4    0    0 -0.25853893752E-01  0.21878263785E-01 -0.78038288834E-02  0.34759791637E-01  0.51100000000E-03 0.  1.
         11    1    4    4    0    0 -0.89026688594E-01  0.33759898934E-01 -0.12445191724E-01  0.96024090603E-01  0.51100000000E-03 0. -1.
</event>
<event>
 8    1  0.1114447E+005  0.1043930E+01  0.7957747E-01            NaN
         13   -1    0    0    0    0  0.00000000000E+00  0.00000000000E+00  0.74505805969E-08  0.10566000000E+00  0.10566000000E+00 0. -1.
     999900   -1    0    0    0    0 -0.00000000000E+00 -0.00000000000E+00 -0.74505805969E-08  0.93827000000E+00  0.93827000000E+00 0.  1.
     999902    2    1    2    0    0 -0.14223263049E-01  0.55958250283E-02  0.17110855933E-01  0.10209866816E+01  0.10207288612E+01 0.  0.
     999903    2    3    3    0    0  0.74642478937E-01  0.64822244078E-01 -0.80538602673E-01  0.12916814310E+00  0.20603875386E-01 0.  0.
         14    1    1    2    0    0  0.14223263049E-01 -0.55958250283E-02 -0.17110855933E-01  0.22943318423E-01  0.00000000000E+00 0. -1.
     999901    1    3    3    0    0 -0.88865741986E-01 -0.59226419050E-01  0.97649458607E-01  0.89181853848E+00  0.88000000000E+00 0. -1.
        -11    1    4    4    0    0  0.48339225247E-01  0.43432541961E-01 -0.64847615130E-01  0.91807084191E-01  0.51100000000E-03 0.  1.
         11    1    4    4    0    0  0.26303253690E-01  0.21389702118E-01 -0.15690987544E-01  0.37361058905E-01  0.51100000000E-03 0. -1.
</event>
<event>
 8    1  0.1114447E+005  0.1043930E+01  0.7957747E-01            NaN
         13   -1    0    0    0    0  0.00000000000E+00  0.00000000000E+00  0.74505805969E-08  0.10566000000E+00  0.10566000000E+00 0. -1.
     999900   -1    0    0    0    0 -0.00000000000E+00 -0.00000000000E+00 -0.74505805969E-08  0.93827000000E+00  0.93827000000E+00 0. -1.
     999902    2    1    2    0    0 -0.51355750852E-02 -0.21633283074E-01 -0.92617520324E-02  0.10198436321E+01  0.10195591600E+01 0.  0.
     999903    2    3    3    0    0  0.99237096898E-03 -0.12871625378E+00 -0.27640668714E-01  0.13314069485E+00  0.19838832408E-01 0.  0.
         14    1    1    2    0    0  0.51355750852E-02  0.21633283074E-01  0.92617520324E-02  0.24086367902E-01  0.00000000000E+00 0. -1.
     999901    1    3    3    0    0 -0.61279460542E-02  0.10708297071E+00  0.18378916682E-01  0.88670293724E+00  0.88000000000E+00 0.  1.
        -11    1    4    4    0    0  0.86981496181E-02 -0.10195885953E+00 -0.20064457330E-01  0.10427900274E+00  0.51100000000E-03 0. -1.
         11    1    4    4    0    0 -0.77057786491E-02 -0.26757394255E-01 -0.75762113842E-02  0.28861692117E-01  0.51100000000E-03 0.  1.
</event>
<event>
 8    1  0.1114447E+005  0.1043930E+01  0.7957747E-01            NaN
         13   -1    0    0    0    0  0.00000000000E+00  0.00000000000E+00  0.74505805969E-08  0.10566000000E+00  0.10566000000E+00 0. -1.
     999900   -1    0    0    0    0 -0.00000000000E+00 -0.00000000000E+00 -0.74505805969E-08  0.93827000000E+00  0.93827000000E+00 0.  1.
     999902    2    1    2    0    0 -0.14869787761E-02 -0.18952258004E-01  0.76098897646E-02  0.10234529491E+01  0.10232480782E+01 0.  0.
     999903    2    3    3    0    0 -0.89131894889E-01 -0.89045420779E-01 -0.43855226846E-01  0.13483416642E+00  0.19580343834E-01 0.  0.
         14    1    1    2    0    0  0.14869787761E-02  0.18952258004E-01 -0.76098897646E-02  0.20477050851E-01  0.00000000000E+00 0.  1.
     999901    1    3    3    0    0  0.87644916112E-01  0.70093162775E-01  0.51465116611E-01  0.88861878273E+00  0.88000000000E+00 0. -1.
        -11    1    4    4    0    0 -0.30801714033E-01 -0.29884680689E-01 -0.24890479264E-01  0.49614884926E-01  0.51100000000E-03 0.  1.
         11    1    4    4    0    0 -0.58330180856E-01 -0.59160740090E-01 -0.18964747582E-01  0.85219281495E-01  0.51100000000E-03 0. -1.
</event>
<event>
 8    1  0.1114447E+005  0.1043930E+01  0.7957747E-01            NaN
         13   -1    0    0    0    0  0.00000000000E+00  0.00000000000E+00  0.74505805969E-08  0.10566000000E+00  0.10566000000E+00 0.  1.
     999900   -1    0    0    0    0 -0.00000000000E+00 -0.00000000000E+00 -0.74505805969E-08  0.93827000000E+00  0.93827000000E+00 0. -1.
     999902    2    1    2    0    0  0.72905904896E-03 -0.17364189421E-01  0.14597851670E-01  0.10212332188E+01  0.10209809711E+01 0.  0.
     999903    2    3    3    0    0  0.87368005708E-01 -0.61571855406E-01 -0.74033474926E-01  0.13144889843E+00  0.19328623555E-01 0.  0.
         14    1    1    2    0    0 -0.72905904896E-03  0.17364189421E-01 -0.14597851670E-01  0.22696781154E-01  0.00000000000E+00 0. -1.
     999901    1    3    3    0    0 -0.86638946659E-01  0.44207665984E-01  0.88631326596E-01  0.88978432042E+00  0.88000000000E+00 0.  1.
        -11    1    4    4    0    0  0.60553140638E-01 -0.37266792721E-01 -0.58441545229E-01  0.92038970065E-01  0.51100000000E-03 0. -1.
         11    1    4    4    0    0  0.26814865070E-01 -0.24305062685E-01 -0.15591929697E-01  0.39409928362E-01  0.51100000000E-03 0.  1.
</event>
<event>
 8    1  0.1114447E+005  0.1043930E+01  0.7957747E-01            NaN
         13   -1    0    0    0    0  0.00000000000E+00  0.00000000000E+00  0.74505805969E-08  0.10566000000E+00  0.10566000000E+00 0. -1.
     999900   -1    0    0    0    0 -0.00000000000E+00 -0.00000000000E+00 -0.74505805969E-08  0.93827000000E+00  0.93827000000E+00 0.  1.
     999902    2    1    2    0    0  0.13136984923E-01 -0.16069503361E-01 -0.10120492475E-01  0.10208381469E+01  0.10205769390E+01 0.  0.
     999903    2    3    3    0    0  0.95133471029E-01 -0.13929293402E-01  0.87478947831E-01  0.13165107155E+00  0.20857511911E-01 0.  0.
         14    1    1    2    0    0 -0.13136984923E-01  0.16069503361E-01  0.10120492475E-01  0.23091853089E-01  0.00000000000E+00 0. -1.
     999901    1    3    3    0    0 -0.81996486106E-01 -0.21402099591E-02 -0.97599440306E-01  0.88918707536E+00  0.88000000000E+00 0.  1.
        -11    1    4    4    0    0  0.73597892886E-01 -0.63500497174E-02  0.55703177457E-01  0.92520689948E-01  0.51100000000E-03 0.  1.
         11    1    4    4    0    0  0.21535578142E-01 -0.75792436849E-02  0.31775770374E-01  0.39130381606E-01  0.51100000000E-03 0. -1.
</event>
<event>
 8    1  0.1114447E+005  0.1043930E+01  0.7957747E-01            NaN
         13   -1    0    0    0    0  0.00000000000E+00  0.00000000000E+00  0.74505805969E-08  0.10566000000E+00  0.10566000000E+00 0. -1.
     999900   -1    0    0    0    0 -0.00000000000E+00 -0.00000000000E+00 -0.74505805969E-08  0.93827000000E+00  0.93827000000E+00 0. -1.
     999902    2    1    2    0    0  0.39174134502E-02  0.22893226315E-01  0.30469297483E-02  0.10205050193E+01  0.10202361318E+01 0.  0.
     999903    2    3    3    0    0 -0.65791029880E-01  0.11059310713E+00 -0.27340151544E-01  0.13288240194E+00  0.18733763672E-01 0.  0.
         14    1    1    2    0    0 -0.39174134502E-02 -0.22893226315E-01 -0.30469297483E-02  0.23424980686E-01  0.00000000000E+00 0. -1.
     999901    1    3    3    0    0  0.69708443330E-01 -0.87699880815E-01  0.30387081292E-01  0.88762261738E+00  0.88000000000E+00 0.  1.
        -11    1    4    4    0    0 -0.41164446530E-01  0.84338004978E-01 -0.16532127944E-01  0.95294192462E-01  0.51100000000E-03 0. -1.
         11    1    4    4    0    0 -0.24626583350E-01  0.26255102153E-01 -0.10808023600E-01  0.37588209477E-01  0.51100000000E-03 0.  1.
</event>
<event>
 8    1  0.1114447E+005  0.1043930E+01  0.7957747E-01            NaN
         13   -1    0    0    0    0  0.00000000000E+00  0.00000000000E+00  0.74505805969E-08  0.10566000000E+00  0.10566000000E+00 0.  1.
     999900   -1    0    0    0    0 -0.00000000000E+00 -0.00000000000E+00 -0.74505805969E-08  0.93827000000E+00  0.93827000000E+00 0.  1.
     999902    2    1    2    0    0  0.76070292901E-02 -0.15829666633E-01  0.15137665631E-01  0.10207439231E+01  0.10204805547E+01 0.  0.
     999903    2    3    3    0    0 -0.68366203777E-01  0.72490288684E-01 -0.77916670456E-01  0.12820179184E+00  0.20878508638E-01 0.  0.
         14    1    1    2    0    0 -0.76070292901E-02  0.15829666633E-01 -0.15137665631E-01  0.23186076880E-01  0.00000000000E+00 0. -1.
     999901    1    3    3    0    0  0.75973233067E-01 -0.88319955317E-01  0.93054336087E-01  0.89254213128E+00  0.88000000000E+00 0. -1.
        -11    1    4    4    0    0 -0.55252163369E-02  0.10218895727E-01 -0.17718482353E-01  0.21193385368E-01  0.51100000000E-03 0. -1.
         11    1    4    4    0    0 -0.62840987440E-01  0.62271392957E-01 -0.60198188103E-01  0.10700840647E+00  0.51100000000E-03 0.  1.
</event>
<event>
 7    1  0.1762113E+005  0.1043930E+01  0.7957747E-01            NaN
         13   -1    0    0    0    0  0.00000000000E+00  0.00000000000E+00  0.74505805969E-08  0.10566000000E+00  0.10566000000E+00 0.  1.
     999900   -1    0    0    0    0 -0.00000000000E+00 -0.00000000000E+00 -0.74505805969E-08  0.93827000000E+00  0.93827000000E+00 0. -1.
     999903    2    1    2    0    0  0.35528946167E-01  0.69855180081E-01  0.70755348284E-01  0.10716910450E+00  0.18353349778E-01 0.  0.
         14    1    1    2    0    0 -0.69630956009E-02  0.44570615720E-02  0.44877626371E-01  0.45632789165E-01  0.00000000000E+00 0.  1.
     999901    1    1    2    0    0 -0.28565850566E-01 -0.74312241653E-01 -0.11563297466E+00  0.89112810634E+00  0.88000000000E+00 0. -1.
        -11    1    3    3    0    0  0.92228813615E-02  0.35267418331E-01  0.38701639772E-01  0.53168885435E-01  0.51100000000E-03 0.  1.
         11    1    3    3    0    0  0.26306064805E-01  0.34587761750E-01  0.32053708512E-01  0.54000219062E-01  0.51100000000E-03 0. -1.
</event>
<event>
 8    1  0.1114447E+005  0.1043930E+01  0.7957747E-01            NaN
         13   -1    0    0    0    0  0.00000000000E+00  0.00000000000E+00  0.74505805969E-08  0.10566000000E+00  0.10566000000E+00 0. -1.
     999900   -1    0    0    0    0 -0.00000000000E+00 -0.00000000000E+00 -0.74505805969E-08  0.93827000000E+00  0.93827000000E+00 0. -1.
     999902    2    1    2    0    0 -0.22967056162E-01  0.24705900045E-02 -0.10763393989E-01  0.10184458847E+01  0.10181269959E+01 0.  0.
     999903    2    3    3    0    0  0.63705861742E-01  0.31524021908E-01 -0.10547585452E+00  0.12865560220E+00  0.19362523451E-01 0.  0.
         14    1    1    2    0    0  0.22967056162E-01 -0.24705900045E-02  0.10763393989E-01  0.25484115324E-01  0.00000000000E+00 0. -1.
     999901    1    3    3    0    0 -0.86672917903E-01 -0.29053431903E-01  0.94712460529E-01  0.88979028247E+00  0.88000000000E+00 0.  1.
        -11    1    4    4    0    0  0.33839236092E-01  0.23570549670E-01 -0.47131119271E-01  0.62628014784E-01  0.51100000000E-03 0.  1.
         11    1    4    4    0    0  0.29866625650E-01  0.79534722376E-02 -0.58344735247E-01  0.66027587419E-01  0.51100000000E-03 0. -1.
</event>
<event>
 8    1  0.1114447E+005  0.1043930E+01  0.7957747E-01            NaN
         13   -1    0    0    0    0  0.00000000000E+00  0.00000000000E+00  0.74505805969E-08  0.10566000000E+00  0.10566000000E+00 0. -1.
     999900   -1    0    0    0    0 -0.00000000000E+00 -0.00000000000E+00 -0.74505805969E-08  0.93827000000E+00  0.93827000000E+00 0.  1.
     999902    2    1    2    0    0 -0.84062170798E-02  0.19578079683E-01  0.10661664006E-01  0.10201048711E+01  0.10198266084E+01 0.  0.
     999903    2    3    3    0    0 -0.39030282391E-01  0.11512664512E+00  0.52071960300E-01  0.13343572511E+00  0.17779098016E-01 0.  0.
         14    1    1    2    0    0  0.84062170798E-02 -0.19578079683E-01 -0.10661664006E-01  0.23825128941E-01  0.00000000000E+00 0.  1.
     999901    1    3    3    0    0  0.30624065311E-01 -0.95548565440E-01 -0.41410296294E-01  0.88666914595E+00  0.88000000000E+00 0.  1.
        -11    1    4    4    0    0 -0.30047183236E-01  0.75613313931E-01  0.26752246229E-01  0.85651329607E-01  0.51100000000E-03 0. -1.
         11    1    4    4    0    0 -0.89830991547E-02  0.39513331191E-01  0.25319714071E-01  0.47784395506E-01  0.51100000000E-03 0.  1.
</event>
<event>
 8    1  0.1114447E+005  0.1043930E+01  0.7957747E-01            NaN
         13   -1    0    0    0    0  0.00000000000E+00  0.00000000000E+00  0.74505805969E-08  0.10566000000E+00  0.10566000000E+00 0.  1.
     999900   -1    0    0    0    0 -0.00000000000E+00 -0.00000000000E+00 -0.74505805969E-08  0.93827000000E+00  0.93827000000E+00 0.  1.
     999902    2    1    2    0    0 -0.23135758416E-01 -0.46776297139E-02 -0.37520827648E-02  0.10200297560E+01  0.10197497151E+01 0.  0.
     999903    2    3    3    0    0 -0.62728903412E-01 -0.76107344169E-01  0.85201072856E-01  0.13178289555E+00  0.19500399589E-01 0.  0.
         14    1    1    2    0    0  0.23135758416E-01  0.46776297139E-02  0.37520827648E-02  0.23900243980E-01  0.00000000000E+00 0.  1.
     999901    1    3    3    0    0  0.39593144996E-01  0.71429714455E-01 -0.88953155621E-01  0.88824686047E+00  0.88000000000E+00 0. -1.
        -11    1    4    4    0    0 -0.65866698165E-02 -0.16611783645E-01  0.22359568634E-01  0.28627731409E-01  0.51100000000E-03 0. -1.
         11    1    4    4    0    0 -0.56142233596E-01 -0.59495560524E-01  0.62841504223E-01  0.10315516414E+00  0.51100000000E-03 0.  1.
</event>
<event>
 8    1  0.1114447E+005  0.1043930E+01  0.7957747E-01            NaN
         13   -1    0    0    0    0  0.00000000000E+00  0.00000000000E+00  0.74505805969E-08  0.10566000000E+00  0.10566000000E+00 0.  1.
     999900   -1    0    0    0    0 -0.00000000000E+00 -0.00000000000E+00 -0.74505805969E-08  0.93827000000E+00  0.93827000000E+00 0.  1.
     999902    2    1    2    0    0  0.10838845508E-02  0.24426152963E-01  0.78114670669E-03  0.10194673357E+01  0.10191737961E+01 0.  0.
     999903    2    3    3    0    0 -0.78660161583E-01  0.17691613247E-01  0.99990594705E-01  0.13028401293E+00  0.21803458378E-01 0.  0.
         14    1    1    2    0    0 -0.10838845508E-02 -0.24426152963E-01 -0.78114670669E-03  0.24462664296E-01  0.00000000000E+00 0. -1.
     999901    1    3    3    0    0  0.79744046134E-01  0.67345397160E-02 -0.99209447998E-01  0.88918332277E+00  0.88000000000E+00 0.  1.
        -11    1    4    4    0    0 -0.69137288281E-01  0.15969766838E-01  0.73902048139E-01  0.10245375505E+00  0.51100000000E-03 0. -1.
         11    1    4    4    0    0 -0.95228733025E-02  0.17218464089E-02  0.26088546566E-01  0.27830257884E-01  0.51100000000E-03 0.  1.
</event>
<event>
 8    1  0.1114447E+005  0.1043930E+01  0.7957747E-01            NaN
         13   -1    0    0    0    0  0.00000000000E+00  0.00000000000E+00  0.74505805969E-08  0.10566000000E+00  0.10566000000E+00 0.  1.
     999900   -1    0    0    0    0 -0.00000000000E+00 -0.00000000000E+00 -0.74505805969E-08  0.93827000000E+00  0.93827000000E+00 0. -1.
     999902    2    1    2    0    0  0.21374982590E-01 -0.29315361572E-02  0.93571590330E-02  0.10204131930E+01  0.10201421687E+01 0.  0.
     999903    2    3    3    0    0  0.65028489721E-01 -0.82126813895E-01 -0.77010879415E-01  0.13157296061E+00  0.20180445473E-01 0.  0.
         14    1    1    2    0    0 -0.21374982590E-01  0.29315361572E-02 -0.93571590330E-02  0.23516806972E-01  0.00000000000E+00 0.  1.
     999901    1    3    3    0    0 -0.43653507131E-01  0.79195277737E-01  0.86368038448E-01  0.88884023242E+00  0.88000000000E+00 0.  1.
        -11    1    4    4    0    0  0.57469552931E-01 -0.76667407279E-01 -0.75763780824E-01  0.12215175995E+00  0.51100000000E-03 0. -1.
         11    1    4    4    0    0  0.75589367900E-02 -0.54594066157E-02 -0.12470985910E-02  0.94212006606E-02  0.51100000000E-03 0.  1.
</event>
<event>
 8    1  0.1114447E+005  0.1043930E+01  0.7957747E-01            NaN
         13   -1    0    0    0    0  0.00000000000E+00  0.00000000000E+00  0.74505805969E-08  0.10566000000E+00  0.10566000000E+00 0. -1.
     999900   -1    0    0    0    0 -0.00000000000E+00 -0.00000000000E+00 -0.74505805969E-08  0.93827000000E+00  0.93827000000E+00 0.  1.
     999902    2    1    2    0    0 -0.55212852764E-02 -0.92137695897E-02  0.19753402419E-01  0.10214450039E+01  0.10211974936E+01 0.  0.
     999903    2    3    3    0    0 -0.37624696356E-01  0.55253046193E-01 -0.10923040057E+00  0.12913148236E+00  0.16587418051E-01 0.  0.
         14    1    1    2    0    0  0.55212852764E-02  0.92137695897E-02 -0.19753402419E-01  0.22484996071E-01  0.00000000000E+00 0.  1.
     999901    1    3    3    0    0  0.32103411079E-01 -0.64466815782E-01  0.12898380299E+00  0.89231352157E+00  0.88000000000E+00 0. -1.
        -11    1    4    4    0    0 -0.34429936652E-01  0.42698180527E-01 -0.96263972409E-01  0.11079516534E+00  0.51100000000E-03 0. -1.
         11    1    4    4    0    0 -0.31947597041E-02  0.12554865666E-01 -0.12966428165E-01  0.18336317019E-01  0.51100000000E-03 0.  1.
</event>
<event>
 8    1  0.1114447E+005  0.1043930E+01  0.7957747E-01            NaN
         13   -1    0    0    0    0  0.00000000000E+00  0.00000000000E+00  0.74505805969E-08  0.10566000000E+00  0.10566000000E+00 0. -1.
     999900   -1    0    0    0    0 -0.00000000000E+00 -0.00000000000E+00 -0.74505805969E-08  0.93827000000E+00  0.93827000000E+00 0. -1.
     999902    2    1    2    0    0 -0.18702638115E-01  0.15047641949E-01 -0.44725722177E-02  0.10195122994E+01  0.10192198509E+01 0.  0.
     999903    2    3    3    0    0  0.51626068165E-02  0.15983090685E-01 -0.12794618283E+00  0.13057126789E+00  0.19912774776E-01 0.  0.
         14    1    1    2    0    0  0.18702638115E-01 -0.15047641949E-01  0.44725722177E-02  0.24417700607E-01  0.00000000000E+00 0. -1.
     999901    1    3    3    0    0 -0.23865244932E-01 -0.93544873614E-03  0.12347361061E+00  0.88894103151E+00  0.88000000000E+00 0.  1.
        -11    1    4    4    0    0 -0.66910228363E-02  0.69896342572E-02 -0.30721542032E-01  0.32213336361E-01  0.51100000000E-03 0.  1.
         11    1    4    4    0    0  0.11853629653E-01  0.89934564279E-02 -0.97224640798E-01  0.98357931525E-01  0.51100000000E-03 0. -1.
</event>
<event>
 8    1  0.1652719E+005  0.1043930E+01  0.7957747E-01            NaN
         13   -1    0    0    0    0  0.00000000000E+00  0.00000000000E+00  0.74505805969E-08  0.10566000000E+00  0.10566000000E+00 0.  1.
     999900   -1    0    0    0    0 -0.00000000000E+00 -0.00000000000E+00 -0.74505805969E-08  0.93827000000E+00  0.93827000000E+00 0. -1.
     999902    2    1    2    0    0 -0.21150429106E-01 -0.48404046178E-02  0.12803955277E-01  0.10187365199E+01  0.10184249533E+01 0.  0.
     999903    2    3    3    0    0 -0.96922294323E-02  0.81761360652E-01  0.98967489873E-01  0.13022354264E+00  0.19614984036E-01 0.  0.
         14    1    1    2    0    0  0.21150429106E-01  0.48404046178E-02 -0.12803955277E-01  0.25193480088E-01  0.00000000000E+00 0. -1.
     999901    1    3    3    0    0 -0.11458199673E-01 -0.86601765270E-01 -0.86163534595E-01  0.88851297727E+00  0.88000000000E+00 0.  1.
        -11    1    4    4    0    0  0.57494803903E-02  0.32509357617E-01  0.38194504229E-01  0.50487583937E-01  0.51100000000E-03 0. -1.
         11    1    4    4    0    0 -0.15441709823E-01  0.49252003035E-01  0.60772985643E-01  0.79735958703E-01  0.51100000000E-03 0.  1.
</event>
<event>
 8    1  0.1114447E+005  0.1043930E+01  0.7957747E-01            NaN
         13   -1    0    0    0    0  0.00000000000E+00  0.00000000000E+00  0.74505805969E-08  0.10566000000E+00  0.10566000000E+00 0.  1.
     999900   -1    0    0    0    0 -0.00000000000E+00 -0.00000000000E+00 -0.74505805969E-08  0.93827000000E+00  0.93827000000E+00 0. -1.
     999902    2    1    2    0    0 -0.18845472436E-02 -0.23138862832E-01  0.27396259328E-02  0.10205534296E+01  0.10202856652E+01 0.  0.
     999903    2    3    3    0    0  0.11981090443E+00 -0.45016592798E-01 -0.22464179682E-01  0.13155193929E+00  0.20496997681E-01 0.  0.
         14    1    1    2    0    0  0.18845472436E-02  0.23138862832E-01 -0.27396259328E-02  0.23376570358E-01  0.00000000000E+00 0. -1.
     999901    1    3    3    0    0 -0.12169545168E+00  0.21877729967E-01  0.25203805614E-01  0.88900149035E+00  0.88000000000E+00 0.  1.
        -11    1    4    4    0    0  0.97888274485E-01 -0.44854694023E-01 -0.19376869505E-01  0.10940649912E+00  0.51100000000E-03 0.  1.
         11    1    4    4    0    0  0.21922629950E-01 -0.16189877538E-03 -0.30873101769E-02  0.22145440168E-01  0.51100000000E-03 0. -1.
</event>
<event>
 8    1  0.1114447E+005  0.1043930E+01  0.7957747E-01            NaN
         13   -1    0    0    0    0  0.00000000000E+00  0.00000000000E+00  0.74505805969E-08  0.10566000000E+00  0.10566000000E+00 0.  1.
     999900   -1    0    0    0    0 -0.00000000000E+00 -0.00000000000E+00 -0.74505805969E-08  0.93827000000E+00  0.93827000000E+00 0.  1.
     999902    2    1    2    0    0 -0.10936933460E-01  0.11741814336E-01  0.18363884833E-01  0.10195431391E+01  0.10192514378E+01 0.  0.
     999903    2    3    3    0    0  0.90163537150E-01  0.79853768493E-01 -0.41831036802E-01  0.12910281431E+00  0.20288253969E-01 0.  0.
         14    1    1    2    0    0  0.10936933460E-01 -0.11741814336E-01 -0.18363884833E-01  0.24386860879E-01  0.00000000000E+00 0. -1.
     999901    1    3    3    0    0 -0.10110047061E+00 -0.68111954157E-01  0.60194921634E-01  0.89044032481E+00  0.88000000000E+00 0. -1.
        -11    1    4    4    0    0  0.36847618060E-01  0.21427367313E-01 -0.19747908646E-01  0.46979996207E-01  0.51100000000E-03 0. -1.
         11    1    4    4    0    0  0.53315919090E-01  0.58426401180E-01 -0.22083128156E-01  0.82122818104E-01  0.51100000000E-03 0.  1.
</event>
<event>
 8    1  0.1114447E+005  0.1043930E+01  0.7957747E-01            NaN
         13   -1    0    0    0    0  0.00000000000E+00  0.00000000000E+00  0.74505805969E-08  0.10566000000E+00  0.10566000000E+00 0. -1.
     999900   -1    0    0    0    0 -0.00000000000E+00 -0.00000000000E+00 -0.74505805969E-08  0.93827000000E+00  0.93827000000E+00 0.  1.
     999902    2    1    2    0    0 -0.14254056779E-01  0.10810710106E-01  0.16354094570E-01  0.10196914770E+01  0.10194033560E+01 0.  0.
     999903    2    3    3    0    0 -0.61141435447E-01  0.11293993964E+00  0.25128704565E-01  0.13250164412E+00  0.20773271407E-01 0.  0.
         14    1    1    2    0    0  0.14254056779E-01 -0.10810710106E-01 -0.16354094570E-01  0.24238522992E-01  0.00000000000E+00 0.  1.
     999901    1    3    3    0    0  0.46887378669E-01 -0.10212922954E+00 -0.87746099952E-02  0.88718983289E+00  0.88000000000E+00 0. -1.
        -11    1    4    4    0    0 -0.67438422697E-02  0.12791256287E-01  0.98699237557E-02  0.17514912558E-01  0.51100000000E-03 0. -1.
         11    1    4    4    0    0 -0.54397593178E-01  0.10014868336E+00  0.15258780809E-01  0.11498673156E+00  0.51100000000E-03 0.  1.
</event>
<event>
 8    1  0.1114447E+005  0.1043930E+01  0.7957747E-01            NaN
         13   -1    0    0    0    0  0.00000000000E+00  0.00000000000E+00  0.74505805969E-08  0.10566000000E+00  0.10566000000E+00 0. -1.
     999900   -1    0    0    0    0 -0.00000000000E+00 -0.00000000000E+00 -0.74505805969E-08  0.93827000000E+00  0.93827000000E+00 0. -1.
     999902    2    1    2    0    0 -0.24513011679E-01  0.21809379107E-02  0.11089673527E-01  0.10169369437E+01  0.10165786356E+01 0.  0.
     999903    2    3    3    0    0 -0.75618872704E-01 -0.10140746220E+00 -0.16691141398E-01  0.12895375725E+00  0.18675920559E-01 0.  0.
         14    1    1    2    0    0  0.24513011679E-01 -0.21809379107E-02 -0.11089673527E-01  0.26993056342E-01  0.00000000000E+00 0.  1.
     999901    1    3    3    0    0  0.51105861025E-01  0.10358840011E+00  0.27780814925E-01  0.88798318641E+00  0.88000000000E+00 0.  1.
        -11    1    4    4    0    0 -0.19190462634E-01 -0.16008509179E-01 -0.79134037381E-02  0.26218873010E-01  0.51100000000E-03 0.  1.
         11    1    4    4    0    0 -0.56428410071E-01 -0.85398953020E-01 -0.87777376603E-02  0.10273488424E+00  0.51100000000E-03 0. -1.
</event>
<event>
 8    1  0.1114447E+005  0.1043930E+01  0.7957747E-01            NaN
         13   -1    0    0    0    0  0.00000000000E+00  0.00000000000E+00  0.74505805969E-08  0.10566000000E+00  0.10566000000E+00 0.  1.
     999900   -1    0    0    0    0 -0.00000000000E+00 -0.00000000000E+00 -0.74505805969E-08  0.93827000000E+00  0.93827000000E+00 0.  1.
     999902    2    1    2    0    0  0.53780616501E-02  0.53481983774E-02  0.23440145400E-01  0.10192932959E+01  0.10189955132E+01 0.  0.
     999903    2    3    3    0    0  0.88317567874E-01  0.55917973757E-01  0.78478423385E-01  0.13223891429E+00  0.20036340263E-01 0.  0.
         14    1    1    2    0    0 -0.53780616501E-02 -0.53481983774E-02 -0.23440145400E-01  0.24636704109E-01  0.00000000000E+00 0. -1.
     999901    1    3    3    0    0 -0.82939506224E-01 -0.50569775380E-01 -0.55038277986E-01  0.88705438160E+00  0.88000000000E+00 0.  1.
        -11    1    4    4    0    0  0.19927438197E-01  0.16915240658E-01  0.10332636995E-01  0.28111433046E-01  0.51100000000E-03 0.  1.
         11    1    4    4    0    0  0.68390129677E-01  0.39002733099E-01  0.68145786390E-01  0.10412748124E+00  0.51100000000E-03 0. -1.
</event>
<event>
 8    1  0.1114447E+005  0.1043930E+01  0.7957747E-01            NaN
         13   -1    0    0    0    0  0.00000000000E+00  0.00000000000E+00  0.74505805969E-08  0.10566000000E+00  0.10566000000E+00 0.  1.
     999900   -1    0    0    0    0 -0.00000000000E+00 -0.00000000000E+00 -0.74505805969E-08  0.93827000000E+00  0.93827000000E+00 0. -1.
     999902    2    1    2    0    0 -0.15424498759E-01 -0.18702667526E-01  0.79326515377E-02  0.10184225130E+01  0.10181030316E+01 0.  0.
     999903    2    3    3    0    0  0.51508315720E-01 -0.14603763338E-01  0.11604896539E+00  0.12927351533E+00  0.19439724923E-01 0.  0.
         14    1    1    2    0    0  0.15424498759E-01  0.18702667526E-01 -0.79326515377E-02  0.25507487037E-01  0.00000000000E+00 0.  1.
     999901    1    3    3    0    0 -0.66932814478E-01 -0.40989041880E-02 -0.10811631386E+00  0.88914899763E+00  0.88000000000E+00 0. -1.
        -11    1    4    4    0    0  0.16460178252E-02 -0.42154670910E-03  0.20412107884E-01  0.20489078690E-01  0.51100000000E-03 0. -1.
         11    1    4    4    0    0  0.49862297895E-01 -0.14182216629E-01  0.95636857509E-01  0.10878443664E+00  0.51100000000E-03 0.  1.
</event>
<event>
 8    1  0.1114447E+005  0.1043930E+01  0.7957747E-01            NaN
         13   -1    0    0    0    0  0.00000000000E+00  0.00000000000E+00  0.74505805969E-08  0.10566000000E+00  0.10566000000E+00 0. -1.
     999900   -1    0    0    0    0 -0.00000000000E+00 -0.00000000000E+00 -0.74505805969E-08  0.93827000000E+00  0.93827000000E+00 0. -1.
     999902    2    1    2    0    0 -0.76960725259E-02 -0.10620353668E-01 -0.14145498378E-01  0.10246396768E+01  0.10244580766E+01 0.  0.
     999903    2    3    3    0    0  0.70438096693E-01  0.10057451850E+00 -0.48206022012E-01  0.13355642185E+00  0.20898277979E-01 0.  0.
         14    1    1    2    0    0  0.76960725259E-02  0.10620353668E-01  0.14145498378E-01  0.19290323188E-01  0.00000000000E+00 0. -1.
     999901    1    3    3    0    0 -0.78134169219E-01 -0.11119487217E+00  0.34060523634E-01  0.89108325496E+00  0.88000000000E+00 0.  1.
        -11    1    4    4    0    0  0.49232050443E-01  0.67424759866E-01 -0.22213546979E-01  0.86392105104E-01  0.51100000000E-03 0.  1.
         11    1    4    4    0    0  0.21206046250E-01  0.33149758636E-01 -0.25992475032E-01  0.47164316750E-01  0.51100000000E-03 0. -1.
</event>
<event>
 8    1  0.1114447E+005  0.1043930E+01  0.7957747E-01            NaN
         13   -1    0    0    0    0  0.00000000000E+00  0.00000000000E+00  0.74505805969E-08  0.10566000000E+00  0.10566000000E+00 0. -1.
     999900   -1    0    0    0    0 -0.00000000000E+00 -0.00000000000E+00 -0.74505805969E-08  0.93827000000E+00  0.93827000000E+00 0. -1.
     999902    2    1    2    0    0 -0.14759621780E-01  0.15199978327E-01 -0.10411483204E-01  0.10203231205E+01  0.10200499917E+01 0.  0.
     999903    2    3    3    0    0 -0.16047512436E-01 -0.10664753200E-01  0.12624641472E+00  0.12939886781E+00  0.20848264773E-01 0.  0.
         14    1    1    2    0    0  0.14759621780E-01 -0.15199978327E-01  0.10411483204E-01  0.23606879479E-01  0.00000000000E+00 0. -1.
     999901    1    3    3    0    0  0.12878906553E-02  0.25864731527E-01 -0.13665789793E+00  0.89092425271E+00  0.88000000000E+00 0. -1.
        -11    1    4    4    0    0 -0.15101005358E-01  0.10594258827E-02  0.49842726967E-01  0.52093390162E-01  0.51100000000E-03 0.  1.
         11    1    4    4    0    0 -0.94650707747E-03 -0.11724179082E-01  0.76403687757E-01  0.77305477650E-01  0.51100000000E-03 0. -1.
</event>
<event>
 8    1  0.1114447E+005  0.1043930E+01  0.7957747E-01            NaN
         13   -1    0    0    0    0  0.00000000000E+00  0.00000000000E+00  0.74505805969E-08  0.10566000000E+00  0.10566000000E+00 0. -1.
     999900   -1    0    0    0    0 -0.00000000000E+00 -0.00000000000E+00 -0.74505805969E-08  0.93827000000E+00  0.93827000000E+00 0.  1.
     999902    2    1    2    0    0 -0.15787644099E-01  0.54238942044E-02  0.17641815350E-01  0.10196421021E+01  0.10193527919E+01 0.  0.
     999903    2    3    3    0    0 -0.36144815960E-01  0.91632846956E-01 -0.81888438829E-01  0.12961251302E+00  0.19765139895E-01 0.  0.
         14    1    1    2    0    0  0.15787644099E-01 -0.54238942044E-02 -0.17641815350E-01  0.24287897879E-01  0.00000000000E+00 0.  1.
     999901    1    3    3    0    0  0.20357171860E-01 -0.86208952751E-01  0.99530254179E-01  0.89002958910E+00  0.88000000000E+00 0. -1.
        -11    1    4    4    0    0 -0.34367106829E-01  0.67097379630E-01 -0.56118487227E-01  0.93982456419E-01  0.51100000000E-03 0.  1.
         11    1    4    4    0    0 -0.17777091304E-02  0.24535467326E-01 -0.25769951603E-01  0.35630056599E-01  0.51100000000E-03 0. -1.
</event>
<event>
 8    1  0.1114447E+005  0.1043930E+01  0.7957747E-01            NaN
         13   -1    0    0    0    0  0.00000000000E+00  0.00000000000E+00  0.74505805969E-08  0.10566000000E+00  0.10566000000E+00 0.  1.
     999900   -1    0    0    0    0 -0.00000000000E+00 -0.00000000000E+00 -0.74505805969E-08  0.93827000000E+00  0.93827000000E+00 0.  1.
     999902    2    1    2    0    0  0.23789067768E-01 -0.64216746708E-03  0.76287044651E-04  0.10201321441E+01  0.10198545257E+01 0.  0.
     999903    2    3    3    0    0 -0.23052562624E-01 -0.83092494411E-01  0.95117808193E-01  0.12994953056E+00  0.20092281792E-01 0.  0.
         14    1    1    2    0    0 -0.23789067768E-01  0.64216746708E-03 -0.76287044651E-04  0.23797855871E-01  0.00000000000E+00 0.  1.
     999901    1    3    3    0    0  0.46841630392E-01  0.82450326944E-01 -0.95041521148E-01  0.89018261356E+00  0.88000000000E+00 0.  1.
        -11    1    4    4    0    0 -0.22489939014E-01 -0.71091333061E-01  0.70812495661E-01  0.10283212366E+00  0.51100000000E-03 0.  1.
         11    1    4    4    0    0 -0.56262360961E-03 -0.12001161350E-01  0.24305312532E-01  0.27117406906E-01  0.51100000000E-03 0. -1.
</event>
<event>
 8    1  0.1114447E+005  0.1043930E+01  0.7957747E-01            NaN
         13   -1    0    0    0    0  0.00000000000E+00  0.00000000000E+00  0.74505805969E-08  0.10566000000E+00  0.10566000000E+00 0. -1.
     999900   -1    0    0    0    0 -0.00000000000E+00 -0.00000000000E+00 -0.74505805969E-08  0.93827000000E+00  0.93827000000E+00 0.  1.
     999902    2    1    2    0    0 -0.17635627198E-01  0.29693515109E-02  0.16323128300E-01  0.10197168442E+01  0.10194293332E+01 0.  0.
     999903    2    3    3    0    0  0.11922494169E+00 -0.33168229040E-01 -0.19066160644E-01  0.12770275139E+00  0.25094941563E-01 0.  0.
         14    1    1    2    0    0  0.17635627198E-01 -0.29693515109E-02 -0.16323128300E-01  0.24213155775E-01  0.00000000000E+00 0.  1.
     999901    1    3    3    0    0 -0.13686056889E+00  0.36137580551E-01  0.35389288944E-01  0.89201409284E+00  0.88000000000E+00 0.  1.
        -11    1    4    4    0    0  0.10899432049E+00 -0.34397706960E-01 -0.23135154383E-01  0.11661243773E+00  0.51100000000E-03 0. -1.
         11    1    4    4    0    0  0.10230621202E-01  0.12294779198E-02  0.40689937390E-02  0.11090313665E-01  0.51100000000E-03 0.  1.
</event>
<event>
 8    1  0.1114447E+005  0.1043930E+01  0.7957747E-01            NaN
         13   -1    0    0    0    0  0.00000000000E+00  0.00000000000E+00  0.74505805969E-08  0.10566000000E+00  0.10566000000E+00 0.  1.
     999900   -1    0    0    0    0 -0.00000000000E+00 -0.00000000000E+00 -0.74505805969E-08  0.93827000000E+00  0.93827000000E+00 0.  1.
     999902    2    1    2    0    0  0.23595342664E-01 -0.56396298839E-02 -0.12355251950E-02  0.10196385994E+01  0.10193492048E+01 0.  0.
     999903    2    3    3    0    0 -0.57867342861E-02 -0.19964157459E-01  0.12687334128E+00  0.12976198986E+00  0.17586227762E-01 0.  0.
         14    1    1    2    0    0 -0.23595342664E-01  0.56396298839E-02  0.12355251950E-02  0.24291400601E-01  0.00000000000E+00 0. -1.
     999901    1    3    3    0    0  0.29382076950E-01  0.14324527575E-01 -0.12810886648E+00  0.88987660954E+00  0.88000000000E+00 0.  1.
        -11    1    4    4    0    0  0.31788967988E-02 -0.10242341401E-02  0.49018990084E-01  0.49135292309E-01  0.51100000000E-03 0. -1.
         11    1    4    4    0    0 -0.89656310849E-02 -0.18939923319E-01  0.77854351199E-01  0.80626697550E-01  0.51100000000E-03 0.  1.
</event>
<event>
 8    1  0.1114447E+005  0.1043930E+01  0.7957747E-01            NaN
         13   -1    0    0    0    0  0.00000000000E+00  0.00000000000E+00  0.74505805969E-08  0.10566000000E+00  0.10566000000E+00 0. -1.
     999900   -1    0    0    0    0 -0.00000000000E+00 -0.00000000000E+00 -0.74505805969E-08  0.93827000000E+00  0.93827000000E+00 0.  1.
     999902    2    1    2    0    0 -0.68491023555E-02 -0.55124807013E-02  0.22194437747E-01  0.10200576161E+01  0.10197782354E+01 0.  0.
     999903    2    3    3    0    0 -0.21643433900E-01  0.11788453717E+00 -0.43008200081E-01  0.12893636719E+00  0.20240533005E-01 0.  0.
         14    1    1    2    0    0  0.68491023555E-02  0.55124807013E-02 -0.22194437747E-01  0.23872383908E-01  0.00000000000E+00 0.  1.
     999901    1    3    3    0    0  0.14794331544E-01 -0.12339701787E+00  0.65202637827E-01  0.89112124890E+00  0.88000000000E+00 0. -1.
        -11    1    4    4    0    0 -0.11566101371E-01  0.23025282568E-01 -0.50206748352E-02  0.26256554136E-01  0.51100000000E-03 0. -1.
         11    1    4    4    0    0 -0.10077332529E-01  0.94859254597E-01 -0.37987525245E-01  0.10267981305E+00  0.51100000000E-03 0.  1.
</event>
<event>
 8    1  0.1114447E+005  0.1043930E+01  0.7957747E-01            NaN
         13   -1    0    0    0    0  0.00000000000E+00  0.00000000000E+00  0.74505805969E-08  0.10566000000E+00  0.10566000000E+00 0. -1.
     999900   -1    0    0    0    0 -0.00000000000E+00 -0.00000000000E+00 -0.74505805969E-08  0.93827000000E+00  0.93827000000E+00 0.  1.
     999902    2    1    2    0    0 -0.22446943557E-01 -0.37870328732E-02  0.31912978411E-02  0.10209432370E+01  0.10206844281E+01 0.  0.
     999903    2    3    3    0    0  0.18159358743E-01  0.12525261905E+00  0.22200260774E-01  0.13040326356E+00  0.22230130000E-01 0.  0.
         14    1    1    2    0    0  0.22446943557E-01  0.37870328732E-02 -0.31912978411E-02  0.22986763037E-01  0.00000000000E+00 0.  1.
     999901    1    3    3    0    0 -0.40606302300E-01 -0.12903965192E+00 -0.19008962933E-01  0.89053997340E+00  0.88000000000E+00 0.  1.
        -11    1    4    4    0    0  0.18453043869E-01  0.96635792358E-01  0.25380478341E-01  0.10160423709E+00  0.51100000000E-03 0.  1.
         11    1    4    4    0    0 -0.29368512598E-03  0.28616826693E-01 -0.31802175677E-02  0.28799026471E-01  0.51100000000E-03 0. -1.
</event>
<event>
 8    1  0.1114447E+005  0.1043930E+01  0.7957747E-01            NaN
         13   -1    0    0    0    0  0.00000000000E+00  0.00000000000E+00  0.74505805969E-08  0.10566000000E+00  0.10566000000E+00 0.  1.
     999900   -1    0    0    0    0 -0.00000000000E+00 -0.00000000000E+00 -0.74505805969E-08  0.93827000000E+00  0.93827000000E+00 0.  1.
     999902    2    1    2    0    0  0.84554784760E-02 -0.33617261453E-02 -0.25199736121E-01  0.10171377806E+01  0.10167848552E+01 0.  0.
     999903    2    3    3    0    0 -0.48908222300E-01  0.46587758376E-01  0.10275541292E+00  0.12463676362E+00  0.20327678742E-01 0.  0.
         14    1    1    2    0    0 -0.84554784760E-02  0.33617261453E-02  0.25199736121E-01  0.26792219384E-01  0.00000000000E+00 0.  1.
     999901    1    3    3    0    0  0.57363700776E-01 -0.49949484521E-01 -0.12795514904E+00  0.89250101699E+00  0.88000000000E+00 0.  1.
        -11    1    4    4    0    0 -0.28703965178E-01  0.19856849407E-01  0.37202086107E-01  0.51014394214E-01  0.51100000000E-03 0. -1.
         11    1    4    4    0    0 -0.20204257121E-01  0.26730908969E-01  0.65553326811E-01  0.73622369407E-01  0.51100000000E-03 0.  1.
</event>
<event>
 8    1  0.1114447E+005  0.1043930E+01  0.7957747E-01            NaN
         13   -1    0    0    0    0  0.00000000000E+00  0.00000000000E+00  0.74505805969E-08  0.10566000000E+00  0.10566000000E+00 0. -1.
     999900   -1    0    0    0    0 -0.00000000000E+00 -0.00000000000E+00 -0.74505805969E-08  0.93827000000E+00  0.93827000000E+00 0. -1.
     999902    2    1    2    0    0 -0.18765380424E-01 -0.87797907225E-02 -0.12211364483E-01  0.10198812651E+01  0.10195976919E+01 0.  0.
     999903    2    3    3    0    0 -0.59567556780E-01  0.69629114404E-01 -0.92466049738E-01  0.13181956201E+00  0.20734492525E-01 0.  0.
         14    1    1    2    0    0  0.18765380424E-01  0.87797907225E-02  0.12211364483E-01  0.24048734897E-01  0.00000000000E+00 0.  1.
     999901    1    3    3    0    0  0.40802176356E-01 -0.78408905127E-01  0.80254685255E-01  0.88806170309E+00  0.88000000000E+00 0.  1.
        -11    1    4    4    0    0 -0.35742105764E-01  0.55349756358E-01 -0.60294442925E-01  0.89312790921E-01  0.51100000000E-03 0.  1.
         11    1    4    4    0    0 -0.23825451016E-01  0.14279358046E-01 -0.32171606814E-01  0.42506771087E-01  0.51100000000E-03 0. -1.
</event>
<event>
 8    1  0.1114447E+005  0.1043930E+01  0.7957747E-01            NaN
         13   -1    0    0    0    0  0.00000000000E+00  0.00000000000E+00  0.74505805969E-08  0.10566000000E+00  0.10566000000E+00 0.  1.
     999900   -1    0    0    0    0 -0.00000000000E+00 -0.00000000000E+00 -0.74505805969E-08  0.93827000000E+00  0.93827000000E+00 0. -1.
     999902    2    1    2    0    0  0.48836176276E-02 -0.22065843903E-01 -0.28313661365E-02  0.10211535248E+01  0.10208994825E+01 0.  0.
     999903    2    3    3    0    0 -0.89692826821E-03 -0.13060738916E+00  0.23247188311E-01  0.13408262980E+00  0.19458295541E-01 0.  0.
         14    1    1    2    0    0 -0.48836176276E-02  0.22065843903E-01  0.28313661365E-02  0.22776475199E-01  0.00000000000E+00 0. -1.
     999901    1    3    3    0    0  0.57805458958E-02  0.10854154526E+00 -0.26078554447E-01  0.88707089500E+00  0.88000000000E+00 0. -1.
        -11    1    4    4    0    0 -0.86315625427E-02 -0.36405207524E-01  0.40965886956E-02  0.37641548411E-01  0.51100000000E-03 0.  1.
         11    1    4    4    0    0  0.77346342745E-02 -0.94202181638E-01  0.19150599615E-01  0.96441081388E-01  0.51100000000E-03 0. -1.
</event>
<event>
 8    1  0.1114447E+005  0.1043930E+01  0.7957747E-01            NaN
         13   -1    0    0    0    0  0.00000000000E+00  0.00000000000E+00  0.74505805969E-08  0.10566000000E+00  0.10566000000E+00 0.  1.
     999900   -1    0    0    0    0 -0.00000000000E+00 -0.00000000000E+00 -0.74505805969E-08  0.93827000000E+00  0.93827000000E+00 0.  1.
     999902    2    1    2    0    0  0.29892791904E-02  0.11316942329E-01 -0.22751475419E-01  0.10183440936E+01  0.10180226197E+01 0.  0.
     999903    2    3    3    0    0  0.84397334910E-01  0.92682379729E-01 -0.31948223045E-01  0.13080131370E+00  0.19374236981E-01 0.  0.
         14    1    1    2    0    0 -0.29892791904E-02 -0.11316942329E-01  0.22751475419E-01  0.25585906423E-01  0.00000000000E+00 0.  1.
     999901    1    3    3    0    0 -0.81408055720E-01 -0.81365437400E-01  0.91967476261E-02  0.88754277987E+00  0.88000000000E+00 0. -1.
        -11    1    4    4    0    0  0.40070411059E-01  0.36804207935E-01 -0.53333360372E-02  0.54670770604E-01  0.51100000000E-03 0. -1.
         11    1    4    4    0    0  0.44326923852E-01  0.55878171794E-01 -0.26614887007E-01  0.76130543099E-01  0.51100000000E-03 0.  1.
</event>
<event>
 8    1  0.1114447E+005  0.1043930E+01  0.7957747E-01            NaN
         13   -1    0    0    0    0  0.00000000000E+00  0.00000000000E+00  0.74505805969E-08  0.10566000000E+00  0.10566000000E+00 0. -1.
     999900   -1    0    0    0    0 -0.00000000000E+00 -0.00000000000E+00 -0.74505805969E-08  0.93827000000E+00  0.93827000000E+00 0.  1.
     999902    2    1    2    0    0 -0.19099539264E-01  0.10895840534E-01 -0.88866570173E-02  0.10202132461E+01  0.10199375389E+01 0.  0.
     999903    2    3    3    0    0  0.83623479293E-01 -0.58790206363E-01 -0.76042325261E-01  0.12896802317E+00  0.20028507598E-01 0.  0.
         14    1    1    2    0    0  0.19099539264E-01 -0.10895840534E-01  0.88866570173E-02  0.23716753867E-01  0.00000000000E+00 0. -1.
     999901    1    3    3    0    0 -0.10272301856E+00  0.69686046897E-01  0.67155668244E-01  0.89124522296E+00  0.88000000000E+00 0. -1.
        -11    1    4    4    0    0  0.36480976563E-01 -0.14778931525E-01 -0.24088236444E-01  0.46149569055E-01  0.51100000000E-03 0.  1.
         11    1    4    4    0    0  0.47142502730E-01 -0.44011274838E-01 -0.51954088818E-01  0.82818454118E-01  0.51100000000E-03 0. -1.
</event>
<event>
 8    1  0.1114447E+005  0.1043930E+01  0.7957747E-01            NaN
         13   -1    0    0    0    0  0.00000000000E+00  0.00000000000E+00  0.74505805969E-08  0.10566000000E+00  0.10566000000E+00 0.  1.
     999900   -1    0    0    0    0 -0.00000000000E+00 -0.00000000000E+00 -0.74505805969E-08  0.93827000000E+00  0.93827000000E+00 0. -1.
     999902    2    1    2    0    0 -0.69828289928E-02 -0.20738099412E-01  0.92906070666E-02  0.10201572415E+01  0.10198802152E+01 0.  0.
     999903    2    3    3    0    0 -0.90177581878E-01  0.53627120485E-01 -0.72890707124E-01  0.12931195680E+00  0.20016559670E-01 0.  0.
         14    1    1    2    0    0  0.69828289928E-02  0.20738099412E-01 -0.92906070666E-02  0.23772758520E-01  0.00000000000E+00 0.  1.
     999901    1    3    3    0    0  0.83194752885E-01 -0.74365219898E-01  0.82181314191E-01  0.89084528468E+00  0.88000000000E+00 0.  1.
        -11    1    4    4    0    0 -0.15073184136E-01  0.11502845808E-01 -0.48916581769E-02  0.19588409389E-01  0.51100000000E-03 0.  1.
         11    1    4    4    0    0 -0.75104397742E-01  0.42124274677E-01 -0.67999048947E-01  0.10972354741E+00  0.51100000000E-03 0. -1.
</event>
<event>
 8    1  0.1114447E+005  0.1043930E+01  0.7957747E-01            NaN
         13   -1    0    0    0    0  0.00000000000E+00  0.00000000000E+00  0.74505805969E-08  0.10566000000E+00  0.10566000000E+00 0.  1.
     999900   -1    0    0    0    0 -0.00000000000E+00 -0.00000000000E+00 -0.74505805969E-08  0.93827000000E+00  0.93827000000E+00 0. -1.
     999902    2    1    2    0    0 -0.55792643379E-02  0.62792169673E-02  0.21605702028E-01  0.10207489061E+01  0.10204856521E+01 0.  0.
     999903    2    3    3    0    0  0.60712219151E-01 -0.75317609505E-01  0.87732499556E-01  0.13202771455E+00  0.19380662433E-01 0.  0.
         14    1    1    2    0    0  0.55792643379E-02 -0.62792169673E-02 -0.21605702028E-01  0.23181093943E-01  0.00000000000E+00 0. -1.
     999901    1    3    3    0    0 -0.66291483489E-01  0.81596826473E-01 -0.66126797528E-01  0.88872119150E+00  0.88000000000E+00 0. -1.
        -11    1    4    4    0    0  0.45217854270E-01 -0.66257199683E-01  0.76500344283E-01  0.11084779949E+00  0.51100000000E-03 0. -1.
         11    1    4    4    0    0  0.15494364881E-01 -0.90604098222E-02  0.11232155273E-01  0.21179915068E-01  0.51100000000E-03 0.  1.
</event>
<event>
 8    1  0.1114447E+005  0.1043930E+01  0.7957747E-01            NaN
         13   -1    0    0    0    0  0.00000000000E+00  0.00000000000E+00  0.74505805969E-08  0.10566000000E+00  0.10566000000E+00 0. -1.
     999900   -1    0    0    0    0 -0.00000000000E+00 -0.00000000000E+00 -0.74505805969E-08  0.93827000000E+00  0.93827000000E+00 0. -1.
     999902    2    1    2    0    0 -0.15730594119E-01 -0.16809254924E-01  0.63145518694E-02  0.10200579199E+01  0.10197785464E+01 0.  0.
     999903    2    3    3    0    0 -0.41585645995E-01  0.32508453049E-01 -0.11692956727E+00  0.12972661476E+00  0.19243321032E-01 0.  0.
         14    1    1    2    0    0  0.15730594119E-01  0.16809254924E-01 -0.63145518694E-02  0.23872080088E-01  0.00000000000E+00 0.  1.
     999901    1    3    3    0    0  0.25855051875E-01 -0.49317707973E-01  0.12324411914E+00  0.89033130515E+00  0.88000000000E+00 0. -1.
        -11    1    4    4    0    0 -0.91341783389E-02  0.83892009219E-02 -0.50109689888E-01  0.51624161472E-01  0.51100000000E-03 0.  1.
         11    1    4    4    0    0 -0.32451467656E-01  0.24119252127E-01 -0.66819877378E-01  0.78102453291E-01  0.51100000000E-03 0. -1.
</event>
<event>
 8    1  0.1114447E+005  0.1043930E+01  0.7957747E-01            NaN
         13   -1    0    0    0    0  0.00000000000E+00  0.00000000000E+00  0.74505805969E-08  0.10566000000E+00  0.10566000000E+00 0. -1.
     999900   -1    0    0    0    0 -0.00000000000E+00 -0.00000000000E+00 -0.74505805969E-08  0.93827000000E+00  0.93827000000E+00 0. -1.
     999902    2    1    2    0    0  0.96605720163E-03  0.23428867755E-01  0.21583506917E-02  0.10203821001E+01  0.10201103502E+01 0.  0.
     999903    2    3    3    0    0 -0.69943526922E-01 -0.50184373739E-01  0.94450473410E-01  0.12967175756E+00  0.21984186462E-01 0.  0.
         14    1    1    2    0    0 -0.96605720163E-03 -0.23428867755E-01 -0.21583506917E-02  0.23547899875E-01  0.00000000000E+00 0. -1.
     999901    1    3    3    0    0  0.70909584124E-01  0.73613241494E-01 -0.92292122718E-01  0.89071034257E+00  0.88000000000E+00 0. -1.
        -11    1    4    4    0    0 -0.14599728219E-01 -0.53883993052E-02  0.29203172046E-01  0.33094913351E-01  0.51100000000E-03 0. -1.
         11    1    4    4    0    0 -0.55343798704E-01 -0.44795974433E-01  0.65247301364E-01  0.96576844205E-01  0.51100000000E-03 0.  1.
</event>
<event>
 8    1  0.1114447E+005  0.1043930E+01  0.7957747E-01            NaN
         13   -1    0    0    0    0  0.00000000000E+00  0.00000000000E+00  0.74505805969E-08  0.10566000000E+00  0.10566000000E+00 0.  1.
     999900   -1    0    0    0    0 -0.00000000000E+00 -0.00000000000E+00 -0.74505805969E-08  0.93827000000E+00  0.93827000000E+00 0. -1.
     999902    2    1    2    0    0 -0.13561211154E-01  0.17957805485E-01 -0.48351417090E-02  0.10209133143E+01  0.10206538235E+01 0.  0.
     999903    2    3    3    0    0 -0.15411969780E-02 -0.98947797116E-01  0.80348385554E-01  0.12902339172E+00  0.19953212969E-01 0.  0.
         14    1    1    2    0    0  0.13561211154E-01 -0.17957805485E-01  0.48351417090E-02  0.23016685712E-01  0.00000000000E+00 0.  1.
     999901    1    3    3    0    0 -0.12020014176E-01  0.11690560260E+00 -0.85183527263E-01  0.89188992257E+00  0.88000000000E+00 0. -1.
        -11    1    4    4    0    0  0.41046136303E-02 -0.79475014606E-01  0.55876439478E-01  0.97239721356E-01  0.51100000000E-03 0. -1.
         11    1    4    4    0    0 -0.56458106083E-02 -0.19472782510E-01  0.24471946076E-01  0.31783670365E-01  0.51100000000E-03 0.  1.
</event>
<event>
 8    1  0.1114447E+005  0.1043930E+01  0.7957747E-01            NaN
         13   -1    0    0    0    0  0.00000000000E+00  0.00000000000E+00  0.74505805969E-08  0.10566000000E+00  0.10566000000E+00 0.  1.
     999900   -1    0    0    0    0 -0.00000000000E+00 -0.00000000000E+00 -0.74505805969E-08  0.93827000000E+00  0.93827000000E+00 0. -1.
     999902    2    1    2    0    0  0.22158038001E-01 -0.39293708056E-02  0.96653788860E-02  0.10194384065E+01  0.10191441637E+01 0.  0.
     999903    2    3    3    0    0  0.12176388401E+00  0.46450292886E-01 -0.87461516499E-02  0.13219637666E+00  0.20379246120E-01 0.  0.
         14    1    1    2    0    0 -0.22158038001E-01  0.39293708056E-02 -0.96653788860E-02  0.24491593496E-01  0.00000000000E+00 0. -1.
     999901    1    3    3    0    0 -0.99605846014E-01 -0.50379663692E-01  0.18411530536E-01  0.88724202985E+00  0.88000000000E+00 0.  1.
        -11    1    4    4    0    0  0.11360133270E-01  0.88582335527E-02 -0.57770503813E-02  0.15529209951E-01  0.51100000000E-03 0. -1.
         11    1    4    4    0    0  0.11040375074E+00  0.37592059333E-01 -0.29691012686E-02  0.11666716670E+00  0.51100000000E-03 0.  1.
</event>
<event>
 8    1  0.1114447E+005  0.1043930E+01  0.7957747E-01            NaN
         13   -1    0    0    0    0  0.00000000000E+00  0.00000000000E+00  0.74505805969E-08  0.10566000000E+00  0.10566000000E+00 0. -1.
     999900   -1    0    0    0    0 -0.00000000000E+00 -0.00000000000E+00 -0.74505805969E-08  0.93827000000E+00  0.93827000000E+00 0.  1.
     999902    2    1    2    0    0 -0.21452393380E-01  0.54420364314E-02  0.12078907451E-01  0.10187164928E+01  0.10184044244E+01 0.  0.
     999903    2    3    3    0    0 -0.36746560717E-01  0.56193906577E-03 -0.12055419181E+00  0.12863263945E+00  0.25737468183E-01 0.  0.
         14    1    1    2    0    0  0.21452393380E-01 -0.54420364314E-02 -0.12078907451E-01  0.25213507242E-01  0.00000000000E+00 0.  1.
     999901    1    3    3    0    0  0.15294167337E-01  0.48800973657E-02  0.13263309926E+00  0.89008385331E+00  0.88000000000E+00 0. -1.
        -11    1    4    4    0    0 -0.29926648739E-01 -0.16429009837E-02 -0.54593774226E-01  0.62281977599E-01  0.51100000000E-03 0. -1.
         11    1    4    4    0    0 -0.68199119779E-02  0.22048400494E-02 -0.65960417582E-01  0.66350661848E-01  0.51100000000E-03 0.  1.
</event>
<event>
 8    1  0.1114447E+005  0.1043930E+01  0.7957747E-01            NaN
         13   -1    0    0    0    0  0.00000000000E+00  0.00000000000E+00  0.74505805969E-08  0.10566000000E+00  0.10566000000E+00 0.  1.
     999900   -1    0    0    0    0 -0.00000000000E+00 -0.00000000000E+00 -0.74505805969E-08  0.93827000000E+00  0.93827000000E+00 0. -1.
     999902    2    1    2    0    0 -0.81319670482E-02 -0.21907836663E-01 -0.74840987374E-02  0.10193923976E+01  0.10190970349E+01 0.  0.
     999903    2    3    3    0    0  0.25076501649E-01  0.10527392151E+00 -0.64337184742E-01  0.12781498912E+00  0.22044695944E-01 0.  0.
         14    1    1    2    0    0  0.81319670482E-02  0.21907836663E-01  0.74840987374E-02  0.24537602353E-01  0.00000000000E+00 0. -1.
     999901    1    3    3    0    0 -0.33208468697E-01 -0.12718175817E+00  0.56853086005E-01  0.89157740853E+00  0.88000000000E+00 0.  1.
        -11    1    4    4    0    0 -0.37934615319E-02  0.71626168266E-02 -0.37664261529E-02  0.89521236119E-02  0.51100000000E-03 0. -1.
         11    1    4    4    0    0  0.28869963181E-01  0.98111304680E-01 -0.60570758589E-01  0.11886286551E+00  0.51100000000E-03 0.  1.
</event>
<event>
 8    1  0.1114447E+005  0.1043930E+01  0.7957747E-01            NaN
         13   -1    0    0    0    0  0.00000000000E+00  0.00000000000E+00  0.74505805969E-08  0.10566000000E+00  0.10566000000E+00 0.  1.
     999900   -1    0    0    0    0 -0.00000000000E+00 -0.00000000000E+00 -0.74505805969E-08  0.93827000000E+00  0.93827000000E+00 0.  1.
     999902    2    1    2    0    0 -0.20847820634E-01  0.10060511053E-01 -0.40510041920E-02  0.10204298693E+01  0.10201592337E+01 0.  0.
     999903    2    3    3    0    0  0.54468692153E-01  0.49801019982E-01  0.10473973381E+00  0.12965082272E+00  0.19797575074E-01 0.  0.
         14    1    1    2    0    0  0.20847820634E-01 -0.10060511053E-01  0.40510041920E-02  0.23500130697E-01  0.00000000000E+00 0. -1.
     999901    1    3    3    0    0 -0.75316512787E-01 -0.39740508929E-01 -0.10879073800E+00  0.89077904658E+00  0.88000000000E+00 0.  1.
        -11    1    4    4    0    0  0.31348834600E-01  0.24406871695E-01  0.71808578534E-01  0.82068129555E-01  0.51100000000E-03 0.  1.
         11    1    4    4    0    0  0.23119857553E-01  0.25394148287E-01  0.32931155274E-01  0.47582693169E-01  0.51100000000E-03 0. -1.
</event>
<event>
 8    1  0.1114447E+005  0.1043930E+01  0.7957747E-01            NaN
         13   -1    0    0    0    0  0.00000000000E+00  0.00000000000E+00  0.74505805969E-08  0.10566000000E+00  0.10566000000E+00 0. -1.
     999900   -1    0    0    0    0 -0.00000000000E+00 -0.00000000000E+00 -0.74505805969E-08  0.93827000000E+00  0.93827000000E+00 0.  1.
     999902    2    1    2    0    0  0.20170690187E-01 -0.93199168519E-02  0.13397451809E-01  0.10179837227E+01  0.10176530108E+01 0.  0.
     999903    2    3    3    0    0 -0.45709595357E-01  0.21786698980E-01 -0.11361635511E+00  0.12588488244E+00  0.19346837462E-01 0.  0.
         14    1    1    2    0    0 -0.20170690187E-01  0.93199168519E-02 -0.13397451809E-01  0.25946277339E-01  0.00000000000E+00 0.  1.
     999901    1    3    3    0    0  0.65880285544E-01 -0.31106615832E-01  0.12701380692E+00  0.89209884022E+00  0.88000000000E+00 0. -1.
        -11    1    4    4    0    0 -0.11960263091E-01  0.12326009111E-01 -0.54633111167E-01  0.57271427000E-01  0.51100000000E-03 0. -1.
         11    1    4    4    0    0 -0.33749332266E-01  0.94606898688E-02 -0.58983243940E-01  0.68613455443E-01  0.51100000000E-03 0.  1.
</event>
<event>
 8    1  0.1114447E+005  0.1043930E+01  0.7957747E-01            NaN
         13   -1    0    0    0    0  0.00000000000E+00  0.00000000000E+00  0.74505805969E-08  0.10566000000E+00  0.10566000000E+00 0. -1.
     999900   -1    0    0    0    0 -0.00000000000E+00 -0.00000000000E+00 -0.74505805969E-08  0.93827000000E+00  0.93827000000E+00 0.  1.
     999902    2    1    2    0    0  0.20271202460E-01  0.99651378414E-03 -0.12434214051E-01  0.10201282276E+01  0.10198505167E+01 0.  0.
     999903    2    3    3    0    0 -0.13310731198E-01 -0.12717302934E+00  0.14913449311E-01  0.12978948718E+00  0.16514994900E-01 0.  0.
         14    1    1    2    0    0 -0.20271202460E-01 -0.99651378414E-03  0.12434214051E-01  0.23801772370E-01  0.00000000000E+00 0. -1.
     999901    1    3    3    0    0  0.33581933658E-01  0.12816954312E+00 -0.27347663362E-01  0.89033874045E+00  0.88000000000E+00 0.  1.
        -11    1    4    4    0    0 -0.31085064509E-02 -0.71913417596E-01  0.14200860104E-02  0.71996390242E-01  0.51100000000E-03 0. -1.
         11    1    4    4    0    0 -0.10202224747E-01 -0.55259611742E-01  0.13493363300E-01  0.57793096939E-01  0.51100000000E-03 0.  1.
</event>
<event>
 8    1  0.1114447E+005  0.1043930E+01  0.7957747E-01            NaN
         13   -1    0    0    0    0  0.00000000000E+00  0.00000000000E+00  0.74505805969E-08  0.10566000000E+00  0.10566000000E+00 0. -1.
     999900   -1    0    0    0    0 -0.00000000000E+00 -0.00000000000E+00 -0.74505805969E-08  0.93827000000E+00  0.93827000000E+00 0.  1.
     999902    2    1    2    0    0 -0.48138003173E-02  0.19149821167E-02  0.31430921870E-01  0.10120749740E+01  0.10115735319E+01 0.  0.
     999903    2    3    3    0    0 -0.28679053805E-01 -0.31405118470E-01  0.11780616527E+00  0.12689676480E+00  0.20389378261E-01 0.  0.
         14    1    1    2    0    0  0.48138003173E-02 -0.19149821167E-02 -0.31430921870E-01  0.31855025971E-01  0.00000000000E+00 0.  1.
     999901    1    3    3    0    0  0.23865253488E-01  0.33320100586E-01 -0.86375243405E-01  0.88517820923E+00  0.88000000000E+00 0. -1.
        -11    1    4    4    0    0 -0.21077283190E-01 -0.81583976140E-02  0.60595262013E-01  0.64675020044E-01  0.51100000000E-03 0.  1.
         11    1    4    4    0    0 -0.76017706155E-02 -0.23246720856E-01  0.57210903262E-01  0.62221744752E-01  0.51100000000E-03 0. -1.
</event>
<event>
 8    1  0.1114447E+005  0.1043930E+01  0.7957747E-01            NaN
         13   -1    0    0    0    0  0.00000000000E+00  0.00000000000E+00  0.74505805969E-08  0.10566000000E+00  0.10566000000E+00 0. -1.
     999900   -1    0    0    0    0 -0.00000000000E+00 -0.00000000000E+00 -0.74505805969E-08  0.93827000000E+00  0.93827000000E+00 0. -1.
     999902    2    1    2    0    0  0.73646110120E-02 -0.24422524494E-01 -0.16353789986E-02  0.10183688642E+01  0.10180480205E+01 0.  0.
     999903    2    3    3    0    0  0.84665356631E-01  0.64499801601E-01  0.67796703245E-01  0.12780533510E+00  0.20232738046E-01 0.  0.
         14    1    1    2    0    0 -0.73646110120E-02  0.24422524494E-01  0.16353789986E-02  0.25561135782E-01  0.00000000000E+00 0.  1.
     999901    1    3    3    0    0 -0.77300745619E-01 -0.88922326094E-01 -0.69432082244E-01  0.89056352912E+00  0.88000000000E+00 0.  1.
        -11    1    4    4    0    0  0.59081595290E-01  0.35520427487E-01  0.36138181282E-01  0.77836783967E-01  0.51100000000E-03 0. -1.
         11    1    4    4    0    0  0.25583761341E-01  0.28979374113E-01  0.31658521964E-01  0.49968551132E-01  0.51100000000E-03 0.  1.
</event>
<event>
 8    1  0.1114447E+005  0.1043930E+01  0.7957747E-01            NaN
         13   -1    0    0    0    0  0.00000000000E+00  0.00000000000E+00  0.74505805969E-08  0.10566000000E+00  0.10566000000E+00 0. -1.
     999900   -1    0    0    0    0 -0.00000000000E+00 -0.00000000000E+00 -0.74505805969E-08  0.93827000000E+00  0.93827000000E+00 0. -1.
     999902    2    1    2    0    0  0.45480170216E-02 -0.23207357283E-01 -0.21453830417E-02  0.10201840833E+01  0.10199076896E+01 0.  0.
     999903    2    3    3    0    0  0.40977454768E-02  0.75877817771E-01 -0.10212170551E+00  0.12899760467E+00  0.20911827432E-01 0.  0.
         14    1    1    2    0    0 -0.45480170216E-02  0.23207357283E-01  0.21453830417E-02  0.23745916686E-01  0.00000000000E+00 0. -1.
     999901    1    3    3    0    0  0.45027154477E-03 -0.99085175053E-01  0.99976322471E-01  0.89118647864E+00  0.88000000000E+00 0.  1.
        -11    1    4    4    0    0 -0.75423696777E-02  0.40234325949E-01 -0.59560503702E-01  0.72273114276E-01  0.51100000000E-03 0.  1.
         11    1    4    4    0    0  0.11640115155E-01  0.35643491822E-01 -0.42561201811E-01  0.56724490396E-01  0.51100000000E-03 0. -1.
</event>
<event>
 8    1  0.1114447E+005  0.1043930E+01  0.7957747E-01            NaN
         13   -1    0    0    0    0  0.00000000000E+00  0.00000000000E+00  0.74505805969E-08  0.10566000000E+00  0.10566000000E+00 0.  1.
     999900   -1    0    0    0    0 -0.00000000000E+00 -0.00000000000E+00 -0.74505805969E-08  0.93827000000E+00  0.93827000000E+00 0. -1.
     999902    2    1    2    0    0  0.10989688617E-01  0.42700785386E-02 -0.92908197253E-02  0.10289191320E+01  0.10288096296E+01 0.  0.
     999903    2    3    3    0    0 -0.49865374986E-01 -0.57152968605E-01 -0.11375459784E+00  0.13853224395E+00  0.22317182674E-01 0.  0.
         14    1    1    2    0    0 -0.10989688617E-01 -0.42700785386E-02  0.92908197253E-02  0.15010867989E-01  0.00000000000E+00 0.  1.
     999901    1    3    3    0    0  0.60855063603E-01  0.61423047143E-01  0.10446377811E+00  0.89038688806E+00  0.88000000000E+00 0.  1.
        -11    1    4    4    0    0 -0.22762736110E-01 -0.40368886286E-01 -0.57309405912E-01  0.73704940555E-01  0.51100000000E-03 0. -1.
         11    1    4    4    0    0 -0.27102638876E-01 -0.16784082319E-01 -0.56445191926E-01  0.64827303399E-01  0.51100000000E-03 0.  1.
</event>
<event>
 8    1  0.1114447E+005  0.1043930E+01  0.7957747E-01            NaN
         13   -1    0    0    0    0  0.00000000000E+00  0.00000000000E+00  0.74505805969E-08  0.10566000000E+00  0.10566000000E+00 0. -1.
     999900   -1    0    0    0    0 -0.00000000000E+00 -0.00000000000E+00 -0.74505805969E-08  0.93827000000E+00  0.93827000000E+00 0.  1.
     999902    2    1    2    0    0  0.15330364086E-01 -0.16548881305E-01  0.75277433614E-02  0.10201486532E+01  0.10198714243E+01 0.  0.
     999903    2    3    3    0    0  0.20922826309E-03  0.33258254317E-01 -0.12308878781E+00  0.12898644702E+00  0.19506372650E-01 0.  0.
         14    1    1    2    0    0 -0.15330364086E-01  0.16548881305E-01 -0.75277433614E-02  0.23781346798E-01  0.00000000000E+00 0. -1.
     999901    1    3    3    0    0  0.15121135823E-01 -0.49807135621E-01  0.13061653117E+00  0.89116220618E+00  0.88000000000E+00 0. -1.
        -11    1    4    4    0    0 -0.64643049816E-03  0.11241789157E-01 -0.15509862330E-01  0.19173227332E-01  0.51100000000E-03 0. -1.
         11    1    4    4    0    0  0.85565876125E-03  0.22016465160E-01 -0.10757892548E+00  0.10981321969E+00  0.51100000000E-03 0.  1.
</event>
<event>
 8    1  0.1114447E+005  0.1043930E+01  0.7957747E-01            NaN
         13   -1    0    0    0    0  0.00000000000E+00  0.00000000000E+00  0.74505805969E-08  0.10566000000E+00  0.10566000000E+00 0.  1.
     999900   -1    0    0    0    0 -0.00000000000E+00 -0.00000000000E+00 -0.74505805969E-08  0.93827000000E+00  0.93827000000E+00 0. -1.
     999902    2    1    2    0    0  0.19854089121E-01 -0.14144396364E-01  0.44497187853E-02  0.10191499919E+01  0.10188486920E+01 0.  0.
     999903    2    3    3    0    0  0.66023300420E-01  0.78865783218E-02  0.11109628256E+00  0.13123645475E+00  0.21432422642E-01 0.  0.
         14    1    1    2    0    0 -0.19854089121E-01  0.14144396364E-01 -0.44497187853E-02  0.24780008083E-01  0.00000000000E+00 0. -1.
     999901    1    3    3    0    0 -0.46169211299E-01 -0.22030974686E-01 -0.10664656378E+00  0.88791353717E+00  0.88000000000E+00 0. -1.
        -11    1    4    4    0    0  0.41789977442E-01  0.20457855860E-02  0.87113224895E-01  0.96641412065E-01  0.51100000000E-03 0.  1.
         11    1    4    4    0    0  0.24233322978E-01  0.58407927358E-02  0.23983057667E-01  0.34595042685E-01  0.51100000000E-03 0. -1.
</event>
<event>
 8    1  0.1114447E+005  0.1043930E+01  0.7957747E-01            NaN
         13   -1    0    0    0    0  0.00000000000E+00  0.00000000000E+00  0.74505805969E-08  0.10566000000E+00  0.10566000000E+00 0. -1.
     999900   -1    0    0    0    0 -0.00000000000E+00 -0.00000000000E+00 -0.74505805969E-08  0.93827000000E+00  0.93827000000E+00 0. -1.
     999902    2    1    2    0    0  0.21009768999E-01  0.44807991119E-02  0.10063772703E-01  0.10202072793E+01  0.10199314317E+01 0.  0.
     999903    2    3    3    0    0 -0.78257594781E-01 -0.71913195288E-02 -0.98846226449E-01  0.12787794789E+00  0.20155070234E-01 0.  0.
         14    1    1    2    0    0 -0.21009768999E-01 -0.44807991119E-02 -0.10063772703E-01  0.23722720651E-01  0.00000000000E+00 0.  1.
     999901    1    3    3    0    0  0.99267363779E-01  0.11672118641E-01  0.10890999915E+00  0.89232933146E+00  0.88000000000E+00 0.  1.
        -11    1    4    4    0    0 -0.11475182888E-01  0.63684314978E-03 -0.52847670896E-02  0.12659987192E-01  0.51100000000E-03 0. -1.
         11    1    4    4    0    0 -0.66782411893E-01 -0.78281626786E-02 -0.93561459360E-01  0.11521796070E+00  0.51100000000E-03 0.  1.
</event>
<event>
 8    1  0.1114447E+005  0.1043930E+01  0.7957747E-01            NaN
         13   -1    0    0    0    0  0.00000000000E+00  0.00000000000E+00  0.74505805969E-08  0.10566000000E+00  0.10566000000E+00 0.  1.
     999900   -1    0    0    0    0 -0.00000000000E+00 -0.00000000000E+00 -0.74505805969E-08  0.93827000000E+00  0.93827000000E+00 0. -1.
     999902    2    1    2    0    0  0.76550112820E-02  0.13689376869E-01 -0.17447447130E-01  0.10204691465E+01  0.10201994252E+01 0.  0.
     999903    2    3    3    0    0  0.14599356289E-01  0.58420649412E-01  0.11312391183E+00  0.12968410481E+00  0.19870433563E-01 0.  0.
         14    1    1    2    0    0 -0.76550112820E-02 -0.13689376869E-01  0.17447447130E-01  0.23460853525E-01  0.00000000000E+00 0.  1.
     999901    1    3    3    0    0 -0.69443450073E-02 -0.44731272543E-01 -0.13057135896E+00  0.89078504166E+00  0.88000000000E+00 0. -1.
        -11    1    4    4    0    0  0.86694603437E-02  0.53011488220E-01  0.86049627527E-01  0.10144050939E+00  0.51100000000E-03 0. -1.
         11    1    4    4    0    0  0.59298959456E-02  0.54091611914E-02  0.27074284308E-01  0.28243595425E-01  0.51100000000E-03 0.  1.
</event>
<event>
 8    1  0.1114447E+005  0.1043930E+01  0.7957747E-01            NaN
         13   -1    0    0    0    0  0.00000000000E+00  0.00000000000E+00  0.74505805969E-08  0.10566000000E+00  0.10566000000E+00 0.  1.
     999900   -1    0    0    0    0 -0.00000000000E+00 -0.00000000000E+00 -0.74505805969E-08  0.93827000000E+00  0.93827000000E+00 0. -1.
     999902    2    1    2    0    0 -0.18763852260E-01 -0.68351862114E-03  0.14579848563E-01  0.10201577192E+01  0.10198807042E+01 0.  0.
     999903    2    3    3    0    0  0.12013450266E+00 -0.37006628834E-01  0.18720409976E-01  0.12851358304E+00  0.19065622716E-01 0.  0.
         14    1    1    2    0    0  0.18763852260E-01  0.68351862114E-03 -0.14579848563E-01  0.23772280780E-01  0.00000000000E+00 0. -1.
     999901    1    3    3    0    0 -0.13889835492E+00  0.36323110213E-01 -0.41405614128E-02  0.89164413618E+00  0.88000000000E+00 0. -1.
        -11    1    4    4    0    0  0.10150925561E+00 -0.23899651354E-01  0.13650296718E-01  0.10517563421E+00  0.51100000000E-03 0. -1.
         11    1    4    4    0    0  0.18625247045E-01 -0.13106977480E-01  0.50701132578E-02  0.23337948830E-01  0.51100000000E-03 0.  1.
</event>
<event>
 8    1  0.1114447E+005  0.1043930E+01  0.7957747E-01            NaN
         13   -1    0    0    0    0  0.00000000000E+00  0.00000000000E+00  0.74505805969E-08  0.10566000000E+00  0.10566000000E+00 0. -1.
     999900   -1    0    0    0    0 -0.00000000000E+00 -0.00000000000E+00 -0.74505805969E-08  0.93827000000E+00  0.93827000000E+00 0.  1.
     999902    2    1    2    0    0  0.86702295362E-02 -0.16211224851E-01  0.14781685764E-01  0.10203402792E+01  0.10200675519E+01 0.  0.
     999903    2    3    3    0    0 -0.33413822000E-01 -0.10183975005E+00  0.76386355684E-01  0.13304188125E+00  0.19428037496E-01 0.  0.
         14    1    1    2    0    0 -0.86702295362E-02  0.16211224851E-01 -0.14781685764E-01  0.23589720757E-01  0.00000000000E+00 0.  1.
     999901    1    3    3    0    0  0.42084051536E-01  0.85628525201E-01 -0.61604669920E-01  0.88729839799E+00  0.88000000000E+00 0. -1.
        -11    1    4    4    0    0 -0.19080671480E-01 -0.77264203385E-01  0.48498183964E-01  0.93199592905E-01  0.51100000000E-03 0. -1.
         11    1    4    4    0    0 -0.14333150519E-01 -0.24575546667E-01  0.27888171720E-01  0.39842288347E-01  0.51100000000E-03 0.  1.
</event>
<event>
 8    1  0.1114447E+005  0.1043930E+01  0.7957747E-01            NaN
         13   -1    0    0    0    0  0.00000000000E+00  0.00000000000E+00  0.74505805969E-08  0.10566000000E+00  0.10566000000E+00 0. -1.
     999900   -1    0    0    0    0 -0.00000000000E+00 -0.00000000000E+00 -0.74505805969E-08  0.93827000000E+00  0.93827000000E+00 0.  1.
     999902    2    1    2    0    0 -0.20123357572E-01 -0.17449949880E-01 -0.30550990458E-02  0.10171198545E+01  0.10167664503E+01 0.  0.
     999903    2    3    3    0    0 -0.25582772651E-01  0.12070643070E+00  0.17411134990E-01  0.12608907085E+00  0.19255791277E-01 0.  0.
         14    1    1    2    0    0  0.20123357572E-01  0.17449949880E-01  0.30550990458E-02  0.26810145486E-01  0.00000000000E+00 0. -1.
     999901    1    3    3    0    0  0.54594150798E-02 -0.13815638058E+00 -0.20466234036E-01  0.89103078367E+00  0.88000000000E+00 0. -1.
        -11    1    4    4    0    0 -0.15212444753E-01  0.83794515388E-01  0.20570369742E-01  0.87614727739E-01  0.51100000000E-03 0. -1.
         11    1    4    4    0    0 -0.10370327898E-01  0.36911915308E-01 -0.31592347521E-02  0.38474343108E-01  0.51100000000E-03 0.  1.
</event>
<event>
 8    1  0.1114447E+005  0.1043930E+01  0.7957747E-01            NaN
         13   -1    0    0    0    0  0.00000000000E+00  0.00000000000E+00  0.74505805969E-08  0.10566000000E+00  0.10566000000E+00 0. -1.
     999900   -1    0    0    0    0 -0.00000000000E+00 -0.00000000000E+00 -0.74505805969E-08  0.93827000000E+00  0.93827000000E+00 0. -1.
     999902    2    1    2    0    0  0.15641502029E-01 -0.17866416862E-01  0.19138411121E-03  0.10201833778E+01  0.10199069675E+01 0.  0.
     999903    2    3    3    0    0  0.74313522074E-01 -0.87594998285E-02  0.10660718742E+00  0.13178613274E+00  0.20081433535E-01 0.  0.
         14    1    1    2    0    0 -0.15641502029E-01  0.17866416862E-01 -0.19138411121E-03  0.23746622182E-01  0.00000000000E+00 0.  1.
     999901    1    3    3    0    0 -0.58672020045E-01 -0.91069170334E-02 -0.10641580330E+00  0.88839724508E+00  0.88000000000E+00 0. -1.
        -11    1    4    4    0    0  0.55610302742E-01 -0.15116864815E-01  0.82012139816E-01  0.10023610912E+00  0.51100000000E-03 0.  1.
         11    1    4    4    0    0  0.18703219332E-01  0.63573649861E-02  0.24595047599E-01  0.31550023619E-01  0.51100000000E-03 0. -1.
</event>
<event>
 8    1  0.1114447E+005  0.1043930E+01  0.7957747E-01            NaN
         13   -1    0    0    0    0  0.00000000000E+00  0.00000000000E+00  0.74505805969E-08  0.10566000000E+00  0.10566000000E+00 0.  1.
     999900   -1    0    0    0    0 -0.00000000000E+00 -0.00000000000E+00 -0.74505805969E-08  0.93827000000E+00  0.93827000000E+00 0.  1.
     999902    2    1    2    0    0 -0.15426704161E-01  0.17813992428E-01 -0.27236887318E-02  0.10202078583E+01  0.10199320242E+01 0.  0.
     999903    2    3    3    0    0 -0.50810332643E-01 -0.10667342654E+00 -0.49243635522E-01  0.12952653250E+00  0.19780726685E-01 0.  0.
         14    1    1    2    0    0  0.15426704161E-01 -0.17813992428E-01  0.27236887318E-02  0.23722141721E-01  0.00000000000E+00 0. -1.
     999901    1    3    3    0    0  0.35383628482E-01  0.12448741897E+00  0.46519946790E-01  0.89068132578E+00  0.88000000000E+00 0. -1.
        -11    1    4    4    0    0 -0.19253515911E-01 -0.25373190914E-01 -0.19662583210E-01  0.37434943456E-01  0.51100000000E-03 0.  1.
         11    1    4    4    0    0 -0.31556816732E-01 -0.81300235628E-01 -0.29581052312E-01  0.92091589042E-01  0.51100000000E-03 0. -1.
</event>
<event>
 8    1  0.1114447E+005  0.1043930E+01  0.7957747E-01            NaN
         13   -1    0    0    0    0  0.00000000000E+00  0.00000000000E+00  0.74505805969E-08  0.10566000000E+00  0.10566000000E+00 0.  1.
     999900   -1    0    0    0    0 -0.00000000000E+00 -0.00000000000E+00 -0.74505805969E-08  0.93827000000E+00  0.93827000000E+00 0.  1.
     999902    2    1    2    0    0  0.10125450882E-01  0.14163482123E-01 -0.17345491221E-01  0.10193536893E+01  0.10190573825E+01 0.  0.
     999903    2    3    3    0    0 -0.12102421953E+00 -0.25637036551E-01  0.24643481296E-01  0.12775546637E+00  0.20249411372E-01 0.  0.
         14    1    1    2    0    0 -0.10125450882E-01 -0.14163482123E-01  0.17345491221E-01  0.24576310690E-01  0.00000000000E+00 0.  1.
     999901    1    3    3    0    0  0.13114967041E+00  0.39800518674E-01 -0.41988972517E-01  0.89159822294E+00  0.88000000000E+00 0.  1.
        -11    1    4    4    0    0 -0.45369989782E-01 -0.12003001190E-02  0.14257662773E-01  0.47575400807E-01  0.51100000000E-03 0. -1.
         11    1    4    4    0    0 -0.75654229749E-01 -0.24436736432E-01  0.10385818523E-01  0.80180065563E-01  0.51100000000E-03 0.  1.
</event>
<event>
 8    1  0.1114447E+005  0.1043930E+01  0.7957747E-01            NaN
         13   -1    0    0    0    0  0.00000000000E+00  0.00000000000E+00  0.74505805969E-08  0.10566000000E+00  0.10566000000E+00 0. -1.
     999900   -1    0    0    0    0 -0.00000000000E+00 -0.00000000000E+00 -0.74505805969E-08  0.93827000000E+00  0.93827000000E+00 0.  1.
     999902    2    1    2    0    0  0.21829489241E-01 -0.79504116207E-02 -0.62069387051E-02  0.10198829267E+01  0.10195993931E+01 0.  0.
     999903    2    3    3    0    0 -0.21794090423E-01 -0.11206112802E+00 -0.60066804413E-01  0.13103932793E+00  0.23034879682E-01 0.  0.
         14    1    1    2    0    0 -0.21829489241E-01  0.79504116207E-02  0.62069387051E-02  0.24047073284E-01  0.00000000000E+00 0. -1.
     999901    1    3    3    0    0  0.43623579664E-01  0.10411071640E+00  0.53859865708E-01  0.88884359879E+00  0.88000000000E+00 0. -1.
        -11    1    4    4    0    0  0.96810922269E-03 -0.39457226725E-02 -0.78088897053E-02  0.88173602798E-02  0.51100000000E-03 0.  1.
         11    1    4    4    0    0 -0.22762199646E-01 -0.10811540534E+00 -0.52257914708E-01  0.12222196765E+00  0.51100000000E-03 0. -1.
</event>
<event>
 8    1  0.1114447E+005  0.1043930E+01  0.7957747E-01            NaN
         13   -1    0    0    0    0  0.00000000000E+00  0.00000000000E+00  0.74505805969E-08  0.10566000000E+00  0.10566000000E+00 0. -1.
     999900   -1    0    0    0    0 -0.00000000000E+00 -0.00000000000E+00 -0.74505805969E-08  0.93827000000E+00  0.93827000000E+00 0.  1.
     999902    2    1    2    0    0 -0.16287588088E-01  0.49255800513E-02 -0.15438210461E-01  0.10209542474E+01  0.10206956893E+01 0.  0.
     999903    2    3    3    0    0 -0.60279161028E-01 -0.67102943954E-01 -0.95864803240E-01  0.13326522327E+00  0.20812902052E-01 0.  0.
         14    1    1    2    0    0  0.16287588088E-01 -0.49255800513E-02  0.15438210461E-01  0.22975752584E-01  0.00000000000E+00 0. -1.
     999901    1    3    3    0    0  0.43991572940E-01  0.72028524006E-01  0.80426592779E-01  0.88768902414E+00  0.88000000000E+00 0. -1.
        -11    1    4    4    0    0 -0.48181936909E-01 -0.43545689596E-01 -0.77080078297E-01  0.10079348053E+00  0.51100000000E-03 0. -1.
         11    1    4    4    0    0 -0.12097224119E-01 -0.23557254358E-01 -0.18784724942E-01  0.32471742738E-01  0.51100000000E-03 0.  1.
</event>
<event>
 8    1  0.1114447E+005  0.1043930E+01  0.7957747E-01            NaN
         13   -1    0    0    0    0  0.00000000000E+00  0.00000000000E+00  0.74505805969E-08  0.10566000000E+00  0.10566000000E+00 0.  1.
     999900   -1    0    0    0    0 -0.00000000000E+00 -0.00000000000E+00 -0.74505805969E-08  0.93827000000E+00  0.93827000000E+00 0.  1.
     999902    2    1    2    0    0  0.12526607458E-01 -0.17390665222E-01  0.12232626455E-01  0.10192523121E+01  0.10189535256E+01 0.  0.
     999903    2    3    3    0    0 -0.39761450691E-01 -0.78400603918E-01 -0.92707067556E-01  0.12938232549E+00  0.20434238893E-01 0.  0.
         14    1    1    2    0    0 -0.12526607458E-01  0.17390665222E-01 -0.12232626455E-01  0.24677687924E-01  0.00000000000E+00 0. -1.
     999901    1    3    3    0    0  0.52288058149E-01  0.61009938696E-01  0.10493969401E+00  0.88986998658E+00  0.88000000000E+00 0. -1.
        -11    1    4    4    0    0 -0.12868765002E-01 -0.15967919356E-01 -0.11648031473E-01  0.23590619310E-01  0.51100000000E-03 0. -1.
         11    1    4    4    0    0 -0.26892685689E-01 -0.62432684562E-01 -0.81059036083E-01  0.10579170618E+00  0.51100000000E-03 0.  1.
</event>
<event>
 8    1  0.1114447E+005  0.1043930E+01  0.7957747E-01            NaN
         13   -1    0    0    0    0  0.00000000000E+00  0.00000000000E+00  0.74505805969E-08  0.10566000000E+00  0.10566000000E+00 0. -1.
     999900   -1    0    0    0    0 -0.00000000000E+00 -0.00000000000E+00 -0.74505805969E-08  0.93827000000E+00  0.93827000000E+00 0.  1.
     999902    2    1    2    0    0  0.45733919343E-02 -0.12111983750E-01  0.22258424307E-01  0.10181801744E+01  0.10178545152E+01 0.  0.
     999903    2    3    3    0    0  0.41287363673E-01 -0.11941220811E+00  0.27408915184E-01  0.13088778665E+00  0.20406915887E-01 0.  0.
         14    1    1    2    0    0 -0.45733919343E-02  0.12111983750E-01 -0.22258424307E-01  0.25749825568E-01  0.00000000000E+00 0.  1.
     999901    1    3    3    0    0 -0.36713971739E-01  0.10730022436E+00 -0.51504908769E-02  0.88729238779E+00  0.88000000000E+00 0.  1.
        -11    1    4    4    0    0  0.23679518507E-02 -0.41436934813E-02  0.54447354930E-02  0.72583508611E-02  0.51100000000E-03 0.  1.
         11    1    4    4    0    0  0.38919411822E-01 -0.11526851463E+00  0.21964179690E-01  0.12362943578E+00  0.51100000000E-03 0. -1.
</event>
<event>
 8    1  0.1114447E+005  0.1043930E+01  0.7957747E-01            NaN
         13   -1    0    0    0    0  0.00000000000E+00  0.00000000000E+00  0.74505805969E-08  0.10566000000E+00  0.10566000000E+00 0. -1.
     999900   -1    0    0    0    0 -0.00000000000E+00 -0.00000000000E+00 -0.74505805969E-08  0.93827000000E+00  0.93827000000E+00 0. -1.
     999902    2    1    2    0    0  0.11180398742E-01  0.19779926248E-01  0.81318128986E-02  0.10197975907E+01  0.10195120170E+01 0.  0.
     999903    2    3    3    0    0  0.10745854286E+00  0.72332177264E-01 -0.19421850356E-01  0.13256006641E+00  0.20388247446E-01 0.  0.
         14    1    1    2    0    0 -0.11180398742E-01 -0.19779926248E-01 -0.81318128986E-02  0.24132409317E-01  0.00000000000E+00 0.  1.
     999901    1    3    3    0    0 -0.96278144117E-01 -0.52552251017E-01  0.27553663254E-01  0.88723752427E+00  0.88000000000E+00 0.  1.
        -11    1    4    4    0    0  0.43561377993E-01  0.34191962322E-01 -0.17643190899E-01  0.58122519269E-01  0.51100000000E-03 0.  1.
         11    1    4    4    0    0  0.63897164866E-01  0.38140214943E-01 -0.17786594569E-02  0.74437547140E-01  0.51100000000E-03 0. -1.
</event>
<event>
 8    1  0.1114447E+005  0.1043930E+01  0.7957747E-01            NaN
         13   -1    0    0    0    0  0.00000000000E+00  0.00000000000E+00  0.74505805969E-08  0.10566000000E+00  0.10566000000E+00 0. -1.
     999900   -1    0    0    0    0 -0.00000000000E+00 -0.00000000000E+00 -0.74505805969E-08  0.93827000000E+00  0.93827000000E+00 0. -1.
     999902    2    1    2    0    0 -0.14503864825E-01  0.38373005642E-02  0.17992852984E-01  0.10205028847E+01  0.10202339477E+01 0.  0.
     999903    2    3    3    0    0 -0.42064085426E-02  0.11429844702E-01 -0.12651050404E+00  0.12862570457E+00  0.19782037821E-01 0.  0.
         14    1    1    2    0    0  0.14503864825E-01 -0.38373005642E-02 -0.17992852984E-01  0.23427115251E-01  0.00000000000E+00 0.  1.
     999901    1    3    3    0    0 -0.10297456282E-01 -0.75925441376E-02  0.14450335703E+00  0.89187718018E+00  0.88000000000E+00 0.  1.
        -11    1    4    4    0    0  0.72129892222E-02  0.42122642391E-02 -0.71059467870E-01  0.71550537933E-01  0.51100000000E-03 0. -1.
         11    1    4    4    0    0 -0.11419397765E-01  0.72175804627E-02 -0.55451036172E-01  0.57075166637E-01  0.51100000000E-03 0.  1.
</event>
<event>
 8    1  0.1114447E+005  0.1043930E+01  0.7957747E-01            NaN
         13   -1    0    0    0    0  0.00000000000E+00  0.00000000000E+00  0.74505805969E-08  0.10566000000E+00  0.10566000000E+00 0. -1.
     999900   -1    0    0    0    0 -0.00000000000E+00 -0.00000000000E+00 -0.74505805969E-08  0.93827000000E+00  0.93827000000E+00 0.  1.
     999902    2    1    2    0    0  0.21562535857E-02  0.23543869305E-01  0.59547021396E-02  0.10195492353E+01  0.10192576816E+01 0.  0.
     999903    2    3    3    0    0 -0.74064543284E-01 -0.95081557293E-01  0.37896994063E-01  0.12775222264E+00  0.18931168006E-01 0.  0.
         14    1    1    2    0    0 -0.21562535857E-02 -0.23543869305E-01 -0.59547021396E-02  0.24380764733E-01  0.00000000000E+00 0. -1.
     999901    1    3    3    0    0  0.76220796870E-01  0.11862542660E+00 -0.31942291923E-01  0.89179701262E+00  0.88000000000E+00 0.  1.
        -11    1    4    4    0    0 -0.73772838889E-02 -0.11990943030E-01  0.10979667381E-01  0.17861165950E-01  0.51100000000E-03 0. -1.
         11    1    4    4    0    0 -0.66687259395E-01 -0.83090614264E-01  0.26917326682E-01  0.10989105669E+00  0.51100000000E-03 0.  1.
</event>
<event>
 8    1  0.1114447E+005  0.1043930E+01  0.7957747E-01            NaN
         13   -1    0    0    0    0  0.00000000000E+00  0.00000000000E+00  0.74505805969E-08  0.10566000000E+00  0.10566000000E+00 0.  1.
     999900   -1    0    0    0    0 -0.00000000000E+00 -0.00000000000E+00 -0.74505805969E-08  0.93827000000E+00  0.93827000000E+00 0. -1.
     999902    2    1    2    0    0 -0.38011812215E-02 -0.21876588996E-01 -0.33700973220E-02  0.10214713339E+01  0.10212244094E+01 0.  0.
     999903    2    3    3    0    0  0.12863959755E+00 -0.64891283296E-02 -0.16843067652E-01  0.13132592181E+00  0.19301657104E-01 0.  0.
         14    1    1    2    0    0  0.38011812215E-02  0.21876588996E-01  0.33700973220E-02  0.22458666050E-01  0.00000000000E+00 0.  1.
     999901    1    3    3    0    0 -0.13244077877E+00 -0.15387460667E-01  0.13472970330E-01  0.89014541214E+00  0.88000000000E+00 0.  1.
        -11    1    4    4    0    0  0.72614856653E-01  0.51902853736E-02 -0.13109384854E-01  0.73972789329E-01  0.51100000000E-03 0. -1.
         11    1    4    4    0    0  0.56024740896E-01 -0.11679413703E-01 -0.37336827982E-02  0.57353132479E-01  0.51100000000E-03 0.  1.
</event>
<event>
 8    1  0.1114447E+005  0.1043930E+01  0.7957747E-01            NaN
         13   -1    0    0    0    0  0.00000000000E+00  0.00000000000E+00  0.74505805969E-08  0.10566000000E+00  0.10566000000E+00 0.  1.
     999900   -1    0    0    0    0 -0.00000000000E+00 -0.00000000000E+00 -0.74505805969E-08  0.93827000000E+00  0.93827000000E+00 0. -1.
     999902    2    1    2    0    0  0.23280683659E-01 -0.19320875874E-03  0.21859260859E-02  0.10205461202E+01  0.10202781864E+01 0.  0.
     999903    2    3    3    0    0 -0.28844928315E-01  0.36517496163E-01  0.12081967867E+00  0.13029968100E+00  0.14664743355E-01 0.  0.
         14    1    1    2    0    0 -0.23280683659E-01  0.19320875874E-03 -0.21859260859E-02  0.23383879791E-01  0.00000000000E+00 0. -1.
     999901    1    3    3    0    0  0.52125611974E-01 -0.36710704922E-01 -0.11863375259E+00  0.89024643921E+00  0.88000000000E+00 0. -1.
        -11    1    4    4    0    0 -0.15767479369E-01  0.21453790442E-01  0.87490781094E-01  0.91453684603E-01  0.51100000000E-03 0.  1.
         11    1    4    4    0    0 -0.13077448947E-01  0.15063705721E-01  0.33328897577E-01  0.38845996392E-01  0.51100000000E-03 0. -1.
</event>
<event>
 8    1  0.1114447E+005  0.1043930E+01  0.7957747E-01            NaN
         13   -1    0    0    0    0  0.00000000000E+00  0.00000000000E+00  0.74505805969E-08  0.10566000000E+00  0.10566000000E+00 0.  1.
     999900   -1    0    0    0    0 -0.00000000000E+00 -0.00000000000E+00 -0.74505805969E-08  0.93827000000E+00  0.93827000000E+00 0.  1.
     999902    2    1    2    0    0  0.20349739885E-01 -0.12209868932E-01 -0.25376142986E-02  0.10200630291E+01  0.10197837766E+01 0.  0.
     999903    2    3    3    0    0 -0.24912329868E-02 -0.84600160992E-01 -0.98812117593E-01  0.13156382011E+00  0.19539976888E-01 0.  0.
         14    1    1    2    0    0 -0.20349739885E-01  0.12209868932E-01  0.25376142986E-02  0.23866970881E-01  0.00000000000E+00 0. -1.
     999901    1    3    3    0    0  0.22840972872E-01  0.72390292060E-01  0.96274503295E-01  0.88849920901E+00  0.88000000000E+00 0. -1.
        -11    1    4    4    0    0 -0.90261233397E-02 -0.50292472738E-01 -0.49567884713E-01  0.71190168090E-01  0.51100000000E-03 0.  1.
         11    1    4    4    0    0  0.65348903529E-02 -0.34307688253E-01 -0.49244232880E-01  0.60373652019E-01  0.51100000000E-03 0. -1.
</event>
<event>
 8    1  0.1114447E+005  0.1043930E+01  0.7957747E-01            NaN
         13   -1    0    0    0    0  0.00000000000E+00  0.00000000000E+00  0.74505805969E-08  0.10566000000E+00  0.10566000000E+00 0. -1.
     999900   -1    0    0    0    0 -0.00000000000E+00 -0.00000000000E+00 -0.74505805969E-08  0.93827000000E+00  0.93827000000E+00 0.  1.
     999902    2    1    2    0    0  0.25485485012E-02 -0.17688109504E-01  0.15487554848E-01  0.10202819838E+01  0.10200078910E+01 0.  0.
     999903    2    3    3    0    0 -0.84813182259E-01 -0.49086171686E-02  0.98934509284E-01  0.13193589037E+00  0.20041747245E-01 0.  0.
         14    1    1    2    0    0 -0.25485485012E-02  0.17688109504E-01 -0.15487554848E-01  0.23648016248E-01  0.00000000000E+00 0.  1.
     999901    1    3    3    0    0  0.87361730760E-01 -0.12779492335E-01 -0.83446954436E-01  0.88834609338E+00  0.88000000000E+00 0. -1.
        -11    1    4    4    0    0 -0.64971315129E-01  0.34580730815E-02  0.66806885225E-01  0.93255836779E-01  0.51100000000E-03 0.  1.
         11    1    4    4    0    0 -0.19841867130E-01 -0.83666902501E-02  0.32127624059E-01  0.38680053589E-01  0.51100000000E-03 0. -1.
</event>
<event>
 8    1  0.1114447E+005  0.1043930E+01  0.7957747E-01            NaN
         13   -1    0    0    0    0  0.00000000000E+00  0.00000000000E+00  0.74505805969E-08  0.10566000000E+00  0.10566000000E+00 0.  1.
     999900   -1    0    0    0    0 -0.00000000000E+00 -0.00000000000E+00 -0.74505805969E-08  0.93827000000E+00  0.93827000000E+00 0. -1.
     999902    2    1    2    0    0  0.24186564106E-02  0.20671768532E-01  0.11443328577E-01  0.10201787541E+01  0.10199022348E+01 0.  0.
     999903    2    3    3    0    0  0.68242388255E-01 -0.10137799376E+00  0.37104635002E-01  0.12895071886E+00  0.17804852770E-01 0.  0.
         14    1    1    2    0    0 -0.24186564106E-02 -0.20671768532E-01 -0.11443328577E-01  0.23751245904E-01  0.00000000000E+00 0. -1.
     999901    1    3    3    0    0 -0.65823731844E-01  0.12204976229E+00 -0.25661306425E-01  0.89122803524E+00  0.88000000000E+00 0. -1.
        -11    1    4    4    0    0  0.64961748997E-01 -0.92435676317E-01  0.38391722798E-01  0.11932547335E+00  0.51100000000E-03 0.  1.
         11    1    4    4    0    0  0.32806392579E-02 -0.89423174403E-02 -0.12870877968E-02  0.96252455106E-02  0.51100000000E-03 0. -1.
</event>
<event>
 8    1  0.1114447E+005  0.1043930E+01  0.7957747E-01            NaN
         13   -1    0    0    0    0  0.00000000000E+00  0.00000000000E+00  0.74505805969E-08  0.10566000000E+00  0.10566000000E+00 0.  1.
     999900   -1    0    0    0    0 -0.00000000000E+00 -0.00000000000E+00 -0.74505805969E-08  0.93827000000E+00  0.93827000000E+00 0. -1.
     999902    2    1    2    0    0  0.11794958814E-01 -0.27418946693E-02  0.21097312882E-01  0.10196043828E+01  0.10193141625E+01 0.  0.
     999903    2    3    3    0    0 -0.13903836044E-01 -0.97257244686E-01 -0.80124493276E-01  0.12840326440E+00  0.20375857921E-01 0.  0.
         14    1    1    2    0    0 -0.11794958814E-01  0.27418946693E-02 -0.21097312882E-01  0.24325617169E-01  0.00000000000E+00 0. -1.
     999901    1    3    3    0    0  0.25698794858E-01  0.94515350016E-01  0.10122180616E+00  0.89120111843E+00  0.88000000000E+00 0.  1.
        -11    1    4    4    0    0 -0.11496023225E-01 -0.86696694882E-01 -0.61722188801E-01  0.10704375351E+00  0.51100000000E-03 0. -1.
         11    1    4    4    0    0 -0.24078128183E-02 -0.10560549804E-01 -0.18402304475E-01  0.21359510896E-01  0.51100000000E-03 0.  1.
</event>
<event>
 8    1  0.1114447E+005  0.1043930E+01  0.7957747E-01            NaN
         13   -1    0    0    0    0  0.00000000000E+00  0.00000000000E+00  0.74505805969E-08  0.10566000000E+00  0.10566000000E+00 0. -1.
     999900   -1    0    0    0    0 -0.00000000000E+00 -0.00000000000E+00 -0.74505805969E-08  0.93827000000E+00  0.93827000000E+00 0.  1.
     999902    2    1    2    0    0  0.14187553161E-03  0.13862841067E-01 -0.19728170107E-01  0.10198177793E+01  0.10195326889E+01 0.  0.
     999903    2    3    3    0    0 -0.82556890286E-01 -0.96928412486E-01 -0.52636053277E-02  0.12890644176E+00  0.19452709454E-01 0.  0.
         14    1    1    2    0    0 -0.14187553161E-03 -0.13862841067E-01  0.19728170107E-01  0.24112220696E-01  0.00000000000E+00 0. -1.
     999901    1    3    3    0    0  0.82698765818E-01  0.11079125355E+00 -0.14464564780E-01  0.89091133754E+00  0.88000000000E+00 0. -1.
        -11    1    4    4    0    0 -0.29158350791E-01 -0.30941754265E-01  0.71501232384E-02  0.43115971069E-01  0.51100000000E-03 0.  1.
         11    1    4    4    0    0 -0.53398539495E-01 -0.65986658221E-01 -0.12413728566E-01  0.85790470690E-01  0.51100000000E-03 0. -1.
</event>
<event>
 8    1  0.1114447E+005  0.1043930E+01  0.7957747E-01            NaN
         13   -1    0    0    0    0  0.00000000000E+00  0.00000000000E+00  0.74505805969E-08  0.10566000000E+00  0.10566000000E+00 0. -1.
     999900   -1    0    0    0    0 -0.00000000000E+00 -0.00000000000E+00 -0.74505805969E-08  0.93827000000E+00  0.93827000000E+00 0. -1.
     999902    2    1    2    0    0  0.45680474281E-02  0.18279677958E-01 -0.16598145430E-01  0.10188199997E+01  0.10185105202E+01 0.  0.
     999903    2    3    3    0    0 -0.89803304644E-01  0.45812659318E-01 -0.81836437707E-01  0.13094610553E+00  0.16918827953E-01 0.  0.
         14    1    1    2    0    0 -0.45680474281E-02 -0.18279677958E-01  0.16598145430E-01  0.25110000304E-01  0.00000000000E+00 0. -1.
     999901    1    3    3    0    0  0.94371352072E-01 -0.27532981359E-01  0.65238292277E-01  0.88787389416E+00  0.88000000000E+00 0.  1.
        -11    1    4    4    0    0 -0.38087398889E-01  0.14517826355E-01 -0.24105674397E-01  0.47357807121E-01  0.51100000000E-03 0.  1.
         11    1    4    4    0    0 -0.51715905755E-01  0.31294832963E-01 -0.57730763310E-01  0.83588298413E-01  0.51100000000E-03 0. -1.
</event>
<event>
 8    1  0.1114447E+005  0.1043930E+01  0.7957747E-01            NaN
         13   -1    0    0    0    0  0.00000000000E+00  0.00000000000E+00  0.74505805969E-08  0.10566000000E+00  0.10566000000E+00 0.  1.
     999900   -1    0    0    0    0 -0.00000000000E+00 -0.00000000000E+00 -0.74505805969E-08  0.93827000000E+00  0.93827000000E+00 0.  1.
     999902    2    1    2    0    0 -0.62822049901E-02 -0.84569203597E-03  0.22539946891E-01  0.10205156775E+01  0.10202470374E+01 0.  0.
     999903    2    3    3    0    0  0.12441513204E+00 -0.29054234359E-01  0.17036945152E-01  0.13039894421E+00  0.19757366629E-01 0.  0.
         14    1    1    2    0    0  0.62822049901E-02  0.84569203597E-03 -0.22539946891E-01  0.23414322549E-01  0.00000000000E+00 0. -1.
     999901    1    3    3    0    0 -0.13069733703E+00  0.28208542323E-01  0.55030017392E-02  0.89011673324E+00  0.88000000000E+00 0. -1.
        -11    1    4    4    0    0  0.38278109080E-01  0.10257821906E-03  0.32338266450E-02  0.38418002457E-01  0.51100000000E-03 0. -1.
         11    1    4    4    0    0  0.86137022962E-01 -0.29156812578E-01  0.13803118507E-01  0.91980941754E-01  0.51100000000E-03 0.  1.
</event>
<event>
 8    1  0.1114447E+005  0.1043930E+01  0.7957747E-01            NaN
         13   -1    0    0    0    0  0.00000000000E+00  0.00000000000E+00  0.74505805969E-08  0.10566000000E+00  0.10566000000E+00 0. -1.
     999900   -1    0    0    0    0 -0.00000000000E+00 -0.00000000000E+00 -0.74505805969E-08  0.93827000000E+00  0.93827000000E+00 0.  1.
     999902    2    1    2    0    0 -0.18768520043E-01  0.10482139891E-01  0.80809457993E-02  0.10209640625E+01  0.10207057277E+01 0.  0.
     999903    2    3    3    0    0 -0.66522500763E-01 -0.10544456390E+00  0.36979255092E-01  0.13160780337E+00  0.20232385836E-01 0.  0.
         14    1    1    2    0    0  0.18768520043E-01 -0.10482139891E-01 -0.80809457993E-02  0.22965937523E-01  0.00000000000E+00 0.  1.
     999901    1    3    3    0    0  0.47753980720E-01  0.11592670380E+00 -0.28898309293E-01  0.88935625910E+00  0.88000000000E+00 0. -1.
        -11    1    4    4    0    0 -0.54780643239E-02 -0.22993496979E-01  0.51997047414E-02  0.24207605054E-01  0.51100000000E-03 0. -1.
         11    1    4    4    0    0 -0.61044436440E-01 -0.82451066926E-01  0.31779550351E-01  0.10740019832E+00  0.51100000000E-03 0.  1.
</event>
<event>
 8    1  0.1114447E+005  0.1043930E+01  0.7957747E-01            NaN
         13   -1    0    0    0    0  0.00000000000E+00  0.00000000000E+00  0.74505805969E-08  0.10566000000E+00  0.10566000000E+00 0. -1.
     999900   -1    0    0    0    0 -0.00000000000E+00 -0.00000000000E+00 -0.74505805969E-08  0.93827000000E+00  0.93827000000E+00 0. -1.
     999902    2    1    2    0    0 -0.22226604660E-01 -0.76118858186E-02 -0.58264123298E-02  0.10197244254E+01  0.10194370966E+01 0.  0.
     999903    2    3    3    0    0 -0.39866484085E-01  0.11383628380E+00 -0.45107272038E-01  0.13034047616E+00  0.20147894979E-01 0.  0.
         14    1    1    2    0    0  0.22226604660E-01  0.76118858186E-02  0.58264123298E-02  0.24205574586E-01  0.00000000000E+00 0.  1.
     999901    1    3    3    0    0  0.17639879425E-01 -0.12144816962E+00  0.39280859708E-01  0.88938394925E+00  0.88000000000E+00 0.  1.
        -11    1    4    4    0    0 -0.40659225302E-02  0.37758278875E-01 -0.17720867577E-01  0.41910733927E-01  0.51100000000E-03 0. -1.
         11    1    4    4    0    0 -0.35800561554E-01  0.76078004926E-01 -0.27386404461E-01  0.88429742233E-01  0.51100000000E-03 0.  1.
</event>
<event>
 8    1  0.1114447E+005  0.1043930E+01  0.7957747E-01            NaN
         13   -1    0    0    0    0  0.00000000000E+00  0.00000000000E+00  0.74505805969E-08  0.10566000000E+00  0.10566000000E+00 0. -1.
     999900   -1    0    0    0    0 -0.00000000000E+00 -0.00000000000E+00 -0.74505805969E-08  0.93827000000E+00  0.93827000000E+00 0.  1.
     999902    2    1    2    0    0  0.18713094288E-01 -0.15378008750E-01 -0.26370903720E-02  0.10195657373E+01  0.10192745829E+01 0.  0.
     999903    2    3    3    0    0 -0.74907181305E-01  0.46346055645E-01 -0.91339974665E-01  0.12802616005E+00  0.16990114817E-01 0.  0.
         14    1    1    2    0    0 -0.18713094288E-01  0.15378008750E-01  0.26370903720E-02  0.24364262693E-01  0.00000000000E+00 0. -1.
     999901    1    3    3    0    0  0.93620275593E-01 -0.61724064395E-01  0.88702884292E-01  0.89153957725E+00  0.88000000000E+00 0. -1.
        -11    1    4    4    0    0 -0.17796760911E-01  0.49945010001E-02 -0.25928425545E-01  0.31846728426E-01  0.51100000000E-03 0.  1.
         11    1    4    4    0    0 -0.57110420394E-01  0.41351554645E-01 -0.65411549119E-01  0.96179431628E-01  0.51100000000E-03 0. -1.
</event>
<event>
 8    1  0.1114447E+005  0.1043930E+01  0.7957747E-01            NaN
         13   -1    0    0    0    0  0.00000000000E+00  0.00000000000E+00  0.74505805969E-08  0.10566000000E+00  0.10566000000E+00 0. -1.
     999900   -1    0    0    0    0 -0.00000000000E+00 -0.00000000000E+00 -0.74505805969E-08  0.93827000000E+00  0.93827000000E+00 0.  1.
     999902    2    1    2    0    0  0.33263866491E-02  0.16372432803E-01 -0.16617894277E-01  0.10203657089E+01  0.10200935762E+01 0.  0.
     999903    2    3    3    0    0 -0.22096331681E-01  0.10168156492E+00 -0.81212181069E-01  0.13351939500E+00  0.20115217308E-01 0.  0.
         14    1    1    2    0    0 -0.33263866491E-02 -0.16372432803E-01  0.16617894277E-01  0.23564291083E-01  0.00000000000E+00 0. -1.
     999901    1    3    3    0    0  0.25422718330E-01 -0.85309132118E-01  0.64594286792E-01  0.88684631392E+00  0.88000000000E+00 0. -1.
        -11    1    4    4    0    0 -0.14132525633E-01  0.67321205723E-01 -0.65202985472E-01  0.94781662025E-01  0.51100000000E-03 0.  1.
         11    1    4    4    0    0 -0.79638060477E-02  0.34360359199E-01 -0.16009195597E-01  0.38737732971E-01  0.51100000000E-03 0. -1.
</event>
<event>
 8    1  0.1114447E+005  0.1043930E+01  0.7957747E-01            NaN
         13   -1    0    0    0    0  0.00000000000E+00  0.00000000000E+00  0.74505805969E-08  0.10566000000E+00  0.10566000000E+00 0.  1.
     999900   -1    0    0    0    0 -0.00000000000E+00 -0.00000000000E+00 -0.74505805969E-08  0.93827000000E+00  0.93827000000E+00 0. -1.
     999902    2    1    2    0    0  0.74047860984E-02 -0.20877281576E-01  0.90567967789E-02  0.10199984871E+01  0.10197177042E+01 0.  0.
     999903    2    3    3    0    0 -0.74313209788E-01  0.50886036890E-01  0.90038019467E-01  0.12961331022E+00  0.24102351281E-01 0.  0.
         14    1    1    2    0    0 -0.74047860984E-02  0.20877281576E-01 -0.90567967789E-02  0.23931512929E-01  0.00000000000E+00 0. -1.
     999901    1    3    3    0    0  0.81717995886E-01 -0.71763318466E-01 -0.80981222688E-01  0.89038517685E+00  0.88000000000E+00 0. -1.
        -11    1    4    4    0    0 -0.66102655399E-01  0.33753234204E-01  0.72282399855E-01  0.10360428717E+00  0.51100000000E-03 0. -1.
         11    1    4    4    0    0 -0.82105543885E-02  0.17132802685E-01  0.17755619612E-01  0.26009023050E-01  0.51100000000E-03 0.  1.
</event>
<event>
 8    1  0.1114447E+005  0.1043930E+01  0.7957747E-01            NaN
         13   -1    0    0    0    0  0.00000000000E+00  0.00000000000E+00  0.74505805969E-08  0.10566000000E+00  0.10566000000E+00 0. -1.
     999900   -1    0    0    0    0 -0.00000000000E+00 -0.00000000000E+00 -0.74505805969E-08  0.93827000000E+00  0.93827000000E+00 0. -1.
     999902    2    1    2    0    0 -0.76241237352E-02  0.11127522153E-01  0.19447719358E-01  0.10202622413E+01  0.10199876854E+01 0.  0.
     999903    2    3    3    0    0 -0.30918942904E-01  0.12593561470E+00 -0.13211231928E-01  0.13189849049E+00  0.20172135832E-01 0.  0.
         14    1    1    2    0    0  0.76241237352E-02 -0.11127522153E-01 -0.19447719358E-01  0.23667758665E-01  0.00000000000E+00 0.  1.
     999901    1    3    3    0    0  0.23294819169E-01 -0.11480809255E+00  0.32658951285E-01  0.88836375084E+00  0.88000000000E+00 0. -1.
        -11    1    4    4    0    0 -0.13637758797E-01  0.23049901760E-01 -0.49803210135E-02  0.27246121826E-01  0.51100000000E-03 0. -1.
         11    1    4    4    0    0 -0.17281184107E-01  0.10288571294E+00 -0.82309109141E-02  0.10465236867E+00  0.51100000000E-03 0.  1.
</event>
<event>
 8    1  0.1114447E+005  0.1043930E+01  0.7957747E-01            NaN
         13   -1    0    0    0    0  0.00000000000E+00  0.00000000000E+00  0.74505805969E-08  0.10566000000E+00  0.10566000000E+00 0.  1.
     999900   -1    0    0    0    0 -0.00000000000E+00 -0.00000000000E+00 -0.74505805969E-08  0.93827000000E+00  0.93827000000E+00 0. -1.
     999902    2    1    2    0    0 -0.20410523105E-02 -0.68946329559E-02 -0.23778799217E-01  0.10190878352E+01  0.10187850032E+01 0.  0.
     999903    2    3    3    0    0  0.23206753497E-01 -0.93774033179E-01  0.81105482663E-01  0.12825328580E+00  0.23209551774E-01 0.  0.
         14    1    1    2    0    0  0.20410523105E-02  0.68946329559E-02  0.23778799217E-01  0.24842164767E-01  0.00000000000E+00 0. -1.
     999901    1    3    3    0    0 -0.25247805807E-01  0.86879400223E-01 -0.10488428188E+00  0.89083454943E+00  0.88000000000E+00 0. -1.
        -11    1    4    4    0    0  0.81088223983E-02 -0.69650379476E-01  0.50210809997E-01  0.86245666113E-01  0.51100000000E-03 0.  1.
         11    1    4    4    0    0  0.15097931099E-01 -0.24123653703E-01  0.30894672666E-01  0.42007619685E-01  0.51100000000E-03 0. -1.
</event>
